FOO
135168
    1MOL0     O    1   6.644   5.447   6.418  0.2854 -0.3609 -0.2028
    1MOL0     C    2   6.585   5.454   6.309 -0.0080  0.0975 -0.5713
    1MOL0     O    3   6.646   5.451   6.184 -0.2742 -0.0500 -0.1716
    1MOL0     C    4   6.780   5.436   6.161 -0.3877  0.6298  0.6775
    1MOL0     C    5   6.827   5.352   6.052 -0.3628 -0.0773  0.1620
    1MOL0     C    6   6.963   5.334   6.033 -1.3476 -0.0723 -0.0400
    1MOL0     C    7   7.054   5.395   6.124 -0.6520 -1.3226  0.7058
    1MOL0     O    8   7.186   5.392   6.091  0.0893  1.8626  0.2785
    1MOL0     C    9   7.287   5.339   6.179 -0.2466  0.5043 -0.9075
    1MOL0     C   10   7.308   5.190   6.172  0.4560 -0.4912 -1.2277
    1MOL0     C   11   7.393   5.151   6.053 -1.1279  0.4817 -0.6540
    1MOL0     C   12   7.332   5.150   5.917 -1.3854  1.0123  0.1018
    1MOL0     C   13   7.220   5.042   5.912  0.0577 -0.3329  0.4460
    1MOL0     C   14   7.147   5.043   5.782  0.3889  0.5506 -1.2324
    1MOL0     C   15   7.018   4.957   5.774  0.8253  0.2636  0.3887
    1MOL0     C   16   7.057   4.809   5.729  0.2243  0.3656  0.0039
    1MOL0     N   17   6.941   4.720   5.721 -0.0438  0.3352 -0.0686
    1MOL0     C   18   6.839   4.704   5.811  0.3538 -0.1683  1.1687
    1MOL0     C   19   6.761   4.597   5.770 -0.6765 -0.0247  0.0739
    1MOL0     C   20   6.635   4.558   5.848  0.7753 -0.4323  0.3502
    1MOL0     C   21   6.580   4.428   5.806 -0.6587  0.9445 -0.7035
    1MOL0     C   22   6.446   4.391   5.867 -0.2073  0.4594  0.7233
    1MOL0     C   23   6.397   4.259   5.805 -0.4383 -1.1120 -0.7720
    1MOL0     O   24   6.290   4.205   5.878  0.4976  0.2680  0.0013
    1MOL0     C   25   6.165   4.257   5.868 -0.2349 -0.6507 -1.2208
    1MOL0     C   26   6.128   4.339   5.759 -0.0933  0.4976  0.3888
    1MOL0     C   27   5.999   4.379   5.742 -0.5876 -0.6074 -0.6655
    1MOL0     C   28   5.898   4.344   5.834 -0.2023 -0.2631 -0.6769
    1MOL0     C   29   5.758   4.382   5.809 -0.5115  0.1034  0.1949
    1MOL0     O   30   5.665   4.332   5.893  0.9363 -0.0870  0.3732
    1MOL0     C   31   5.525   4.337   5.871 -0.7015  0.1459  1.1536
    1MOL0     C   32   5.458   4.351   5.750  0.4654 -0.0837 -0.3041
    1MOL0     C   33   5.314   4.334   5.742 -0.3526 -0.9866  0.2869
    1MOL0     C   34   5.235   4.315   5.852 -0.0829  0.5454 -0.2874
    1MOL0     O   35   5.097   4.303   5.843 -0.4610  0.4562 -0.3242
    1MOL0     C   36   5.015   4.367   5.739  0.4346  0.3531 -0.2515
    1MOL0     C   37   4.873   4.377   5.783  0.3539  0.3466  0.3463
    1MOL0     C   38   4.806   4.240   5.809  0.6211 -0.5907  0.6440
    1MOL0     C   39   4.661   4.269   5.865 -0.4811  0.2705  0.3614
    1MOL0     C   40   4.589   4.132   5.886  0.2955  0.4828 -0.0867
    1MOL0     C   41   4.563   4.051   5.753  0.6607 -0.4783  0.2206
    1MOL0     C   42   4.512   3.912   5.775  0.3466  0.8028 -0.5940
    1MOL0     C   43   4.483   3.836   5.644  0.3207 -0.1170  0.2737
    1MOL0    Cl   44   4.380   3.690   5.666  0.0523 -0.4550  0.1078
    1MOL0     C   45   5.306   4.315   5.976  0.2492 -0.1157  0.1798
    1MOL0     C   46   5.448   4.323   5.985  0.6201 -0.6021  0.0997
    1MOL0     O   47   5.734   4.453   5.710 -0.8051  1.0778 -0.0064
    1MOL0     C   48   5.941   4.282   5.955 -0.2261  0.7011 -1.4424
    1MOL0     C   49   6.071   4.233   5.969 -0.2326  0.2090 -0.5018
    1MOL0     N   50   6.807   4.578   5.642 -0.3292  0.7665  0.6224
    1MOL0     N   51   6.908   4.647   5.612  0.2430  0.8759  0.7734
    1MOL0     C   52   7.019   5.483   6.222  0.3040  0.4426  0.0358
    1MOL0     C   53   6.881   5.499   6.241  1.4894 -0.3623  0.3565
    1MOL0     C   54   6.438   5.468   6.311 -0.8536 -0.3153 -1.5984
    1MOL0     C   55   6.358   5.434   6.202  0.9541 -0.1063  0.1337
    1MOL0     C   56   6.219   5.447   6.201 -0.2332  0.7673  0.4688
    1MOL0     C   57   6.157   5.478   6.324  0.0423  0.3122  0.5723
    1MOL0     O   58   6.022   5.460   6.309 -0.4078 -1.0262 -0.7895
    1MOL0     C   59   5.947   5.409   6.422  0.1169 -0.7231  0.7236
    1MOL0     C   60   5.874   5.527   6.472  0.3781 -0.2383 -0.3173
    1MOL0     C   61   5.803   5.486   6.606  0.5473  0.3293 -0.7589
    1MOL0     C   62   5.696   5.374   6.605 -0.8377 -0.6847  1.0124
    1MOL0     C   63   5.605   5.397   6.495 -0.2479  0.4186  0.0210
    1MOL0     C   64   5.535   5.401   6.400  0.0284  1.1547 -0.5533
    1MOL0     C   65   6.235   5.506   6.439  0.4805 -0.9174 -0.4906
    1MOL0     C   66   6.373   5.490   6.437  0.1660  0.1757  0.0755
    1MOL0     H   67   6.767   5.311   5.972  0.2375 -0.0735 -0.3021
    1MOL0     H   68   6.991   5.277   5.945 -1.8898  1.7094 -1.4370
    1MOL0     H   69   7.257   5.372   6.279  0.1821  0.1692 -0.6637
    1MOL0     H   70   7.381   5.388   6.154  0.7244 -0.3323  0.9157
    1MOL0     H   71   7.205   5.153   6.164  0.5345 -0.8339 -0.7268
    1MOL0     H   72   7.363   5.150   6.257  0.0598 -0.3397 -0.8962
    1MOL0     H   73   7.439   5.052   6.066  1.8084  1.6305 -1.4253
    1MOL0     H   74   7.479   5.219   6.046  0.3281 -1.4013 -2.6646
    1MOL0     H   75   7.302   5.250   5.882  0.5471  2.2480  1.7600
    1MOL0     H   76   7.412   5.116   5.851 -0.9093  0.9142  0.7210
    1MOL0     H   77   7.145   5.063   5.989 -2.2508 -2.2405 -1.1649
    1MOL0     H   78   7.257   4.939   5.920  2.9918  0.5007 -1.0416
    1MOL0     H   79   7.221   5.008   5.710 -0.5268 -0.0657 -1.8892
    1MOL0     H   80   7.123   5.149   5.764 -1.0463  0.2294 -1.2851
    1MOL0     H   81   6.953   4.950   5.861 -1.0120 -0.2160 -0.9650
    1MOL0     H   82   6.951   4.995   5.696 -1.2288 -0.0266  1.9274
    1MOL0     H   83   7.122   4.753   5.797 -1.6220 -2.7255 -0.6069
    1MOL0     H   84   7.106   4.807   5.631  0.6913 -0.5937  0.2468
    1MOL0     H   85   6.827   4.771   5.896  0.8909  0.9425  0.4008
    1MOL0     H   86   6.564   4.639   5.831  3.8983  1.8561 -3.8153
    1MOL0     H   87   6.654   4.541   5.954 -1.8205 -0.6945  0.8275
    1MOL0     H   88   6.654   4.351   5.830 -0.0255  1.1733 -1.8360
    1MOL0     H   89   6.567   4.425   5.698  2.2003 -2.9818 -1.1528
    1MOL0     H   90   6.460   4.375   5.974  2.4756  1.2969  0.5850
    1MOL0     H   91   6.366   4.465   5.856 -1.0600 -0.5737 -0.1905
    1MOL0     H   92   6.468   4.179   5.826  0.2427 -1.1917 -3.0583
    1MOL0     H   93   6.391   4.273   5.697 -0.1180  0.5706 -0.5991
    1MOL0     H   94   6.196   4.354   5.676 -0.2372  1.1737  0.3844
    1MOL0     H   95   5.986   4.431   5.649  0.8545 -0.9857 -1.1050
    1MOL0     H   96   5.517   4.349   5.659 -1.8489  0.7099 -1.9192
    1MOL0     H   97   5.277   4.337   5.640  1.7172  1.0620 -0.4705
    1MOL0     H   98   5.013   4.311   5.645 -0.0584 -1.2528  0.6755
    1MOL0     H   99   5.045   4.470   5.715  0.4167  0.1120 -1.3542
    1MOL0     H  100   4.825   4.426   5.698  1.2235 -0.6435 -0.7422
    1MOL0     H  101   4.862   4.436   5.875 -0.3932 -1.9191  1.7885
    1MOL0     H  102   4.872   4.212   5.891  2.7097  2.3079  0.1128
    1MOL0     H  103   4.814   4.174   5.723  3.6623 -1.1708  1.2799
    1MOL0     H  104   4.683   4.316   5.961 -1.2592 -0.8758  1.1277
    1MOL0     H  105   4.593   4.323   5.798  0.7816  1.0140 -0.3480
    1MOL0     H  106   4.494   4.134   5.941 -0.4555 -4.0520 -0.7705
    1MOL0     H  107   4.656   4.066   5.941  2.6297  2.8005 -0.0024
    1MOL0     H  108   4.649   4.048   5.686 -1.0867  1.3050 -2.3264
    1MOL0     H  109   4.492   4.106   5.691  1.8316 -0.6301 -1.3095
    1MOL0     H  110   4.579   3.865   5.848 -0.2351  2.2182  0.9000
    1MOL0     H  111   4.413   3.901   5.819  0.3845  1.8872 -0.2281
    1MOL0     H  112   4.582   3.816   5.603  0.2919  0.0461  0.1264
    1MOL0     H  113   4.437   3.903   5.571 -0.9403  0.8632  1.8853
    1MOL0     H  114   5.252   4.315   6.070 -1.3713 -0.9022 -0.6972
    1MOL0     H  115   5.506   4.304   6.075 -0.4292  1.6986  1.3327
    1MOL0     H  116   5.868   4.277   6.035 -0.1752  1.7011 -1.3280
    1MOL0     H  117   6.105   4.180   6.058 -1.4283 -0.5416 -0.4669
    1MOL0     H  118   7.090   5.523   6.294  1.3800 -2.9071  1.0022
    1MOL0     H  119   6.849   5.571   6.315  1.6609 -0.4119  0.4801
    1MOL0     H  120   6.400   5.396   6.109 -3.2796 -0.7095 -1.7293
    1MOL0     H  121   6.172   5.427   6.105  4.3909  0.7837 -2.0783
    1MOL0     H  122   6.006   5.355   6.496  0.7098 -1.6913 -0.4267
    1MOL0     H  123   5.883   5.328   6.386  0.2514 -0.2802 -0.5596
    1MOL0     H  124   5.944   5.611   6.476 -0.5557  0.8407 -3.3820
    1MOL0     H  125   5.804   5.553   6.392 -0.8664 -0.5241  0.6620
    1MOL0     H  126   5.746   5.572   6.643 -2.2566 -2.0855  0.8644
    1MOL0     H  127   5.886   5.463   6.674  0.9763  3.0685 -0.2071
    1MOL0     H  128   5.753   5.282   6.584  0.6230  0.6483 -1.3429
    1MOL0     H  129   5.648   5.364   6.703 -1.3440  0.8196  0.9345
    1MOL0     H  130   5.476   5.398   6.310 -1.6531  2.9278  0.4122
    1MOL0     H  131   6.185   5.526   6.534 -0.1728  0.7705 -1.1433
    1MOL0     H  132   6.420   5.507   6.534  0.1499 -2.9106  0.7435
    2MOL0     O  133   1.471   8.570   7.540 -0.2158 -0.1345  0.0513
    2MOL0     C  134   1.517   8.622   7.440 -0.5480  0.2690  0.0664
    2MOL0     O  135   1.447   8.651   7.329 -0.3397  0.0666 -0.7078
    2MOL0     C  136   1.306   8.654   7.322  0.0788  0.5362  0.7280
    2MOL0     C  137   1.239   8.638   7.192 -0.3653  0.1731  0.8152
    2MOL0     C  138   1.106   8.616   7.174  0.1899  0.7983 -0.6850
    2MOL0     C  139   1.019   8.622   7.282 -0.2760 -0.2735 -0.9789
    2MOL0     O  140   0.880   8.614   7.254 -0.0533  0.1304 -0.6324
    2MOL0     C  141   0.785   8.677   7.341  0.6336 -0.0379 -0.6861
    2MOL0     C  142   0.684   8.753   7.252 -0.8643  0.0671  0.9835
    2MOL0     C  143   0.553   8.816   7.312  0.9419  1.2766 -0.4790
    2MOL0     C  144   0.470   8.877   7.200 -0.6879  0.5497 -0.2207
    2MOL0     C  145   0.357   8.967   7.247 -0.2724 -0.0024  0.0288
    2MOL0     C  146   0.235   8.985   7.149  0.2831  0.8484  0.2167
    2MOL0     C  147   0.130   9.080   7.203  0.9520 -0.4886  0.1541
    2MOL0     C  148   0.006   9.091   7.118  0.2940  0.1046 -0.2094
    2MOL0     N  149  -0.098   9.173   7.172 -0.0860  0.2966 -1.0722
    2MOL0     C  150  -0.196   9.243   7.109  0.0984 -0.4465  0.0839
    2MOL0     C  151  -0.295   9.287   7.194 -0.0586  0.3740  0.3075
    2MOL0     C  152  -0.426   9.349   7.148 -0.3708  0.1476  0.0251
    2MOL0     C  153  -0.548   9.275   7.211 -0.9158 -0.4444  0.3579
    2MOL0     C  154  -0.672   9.286   7.120  0.3327  0.2013  0.0078
    2MOL0     C  155  -0.780   9.187   7.174  0.4104 -0.5586  0.6199
    2MOL0     O  156  -0.822   9.219   7.307 -0.8244 -0.4516 -0.3300
    2MOL0     C  157  -0.935   9.297   7.307  0.1723  0.5814 -0.5593
    2MOL0     C  158  -0.998   9.311   7.434  0.5195  0.0093  0.0256
    2MOL0     C  159  -1.116   9.372   7.449  0.0326  0.6620 -0.3599
    2MOL0     C  160  -1.176   9.437   7.341 -0.1704 -0.2639 -0.6419
    2MOL0     C  161  -1.306   9.517   7.363  0.2318 -0.6073 -0.1649
    2MOL0     O  162  -1.400   9.527   7.263 -0.8159 -0.5017 -0.0994
    2MOL0     C  163  -1.513   9.606   7.258 -0.1326  0.3379 -0.7512
    2MOL0     C  164  -1.587   9.643   7.373 -0.2011 -0.0633  0.9177
    2MOL0     C  165  -1.720   9.693   7.368 -0.0896  0.7099  0.0024
    2MOL0     C  166  -1.777   9.708   7.239  0.0823 -0.3129  0.5808
    2MOL0     O  167  -1.907   9.741   7.204 -0.2155  0.4918  0.5732
    2MOL0     C  168  -1.995   9.729   7.315  0.8261 -0.5478 -0.4310
    2MOL0     C  169  -2.143   9.743   7.287  0.1405 -0.2322 -0.1655
    2MOL0     C  170  -2.248   9.768   7.405  0.4263 -0.1373 -0.2026
    2MOL0     C  171  -2.399   9.754   7.354 -0.0998  0.2232  0.1138
    2MOL0     C  172  -2.449   9.891   7.309 -0.5299  0.6408  0.3032
    2MOL0     C  173  -2.595   9.879   7.271 -0.7787 -0.2545  0.3402
    2MOL0     C  174  -2.618   9.891   7.114 -0.8790 -0.3876  0.5355
    2MOL0     C  175  -2.747   9.825   7.059 -0.5343 -0.0066  0.1650
    2MOL0    Cl  176  -2.888   9.908   7.134  0.0179  0.2754  0.0875
    2MOL0     C  177  -1.704   9.676   7.129  0.1063  0.0192 -0.9279
    2MOL0     C  178  -1.585   9.613   7.138  0.0413 -0.6819 -0.6102
    2MOL0     O  179  -1.314   9.560   7.480  0.1399  0.1714  0.5992
    2MOL0     C  180  -1.114   9.436   7.221  0.1181  0.2639 -0.9074
    2MOL0     C  181  -0.987   9.375   7.204  0.3741  0.0830  0.5130
    2MOL0     N  182  -0.258   9.235   7.318  0.1350 -0.7973 -0.1819
    2MOL0     N  183  -0.145   9.170   7.302  0.2486  0.2644 -0.1804
    2MOL0     C  184   1.070   8.662   7.415  0.4625 -0.0984  0.2614
    2MOL0     C  185   1.213   8.671   7.432  0.5032 -0.7798  0.6814
    2MOL0     C  186   1.653   8.661   7.442  0.1039 -0.2496 -0.7682
    2MOL0     C  187   1.709   8.736   7.337 -0.7013 -0.1384 -0.5365
    2MOL0     C  188   1.842   8.779   7.346  0.3980 -0.6924 -1.1812
    2MOL0     C  189   1.931   8.752   7.455  0.1551  0.1289  0.7721
    2MOL0     O  190   2.059   8.793   7.428  1.1254  0.3841  0.2608
    2MOL0     C  191   2.129   8.831   7.547  0.2425 -0.7983  0.7038
    2MOL0     C  192   2.258   8.746   7.555 -0.1082  0.1896 -0.8410
    2MOL0     C  193   2.379   8.792   7.632  0.5618 -0.6240  0.2598
    2MOL0     C  194   2.419   8.932   7.575  0.5829  0.6845 -0.1774
    2MOL0     C  195   2.562   8.964   7.593 -0.4815 -0.7760  0.9960
    2MOL0     C  196   2.674   9.007   7.584  0.3342  0.2614 -0.6835
    2MOL0     C  197   1.876   8.681   7.571 -0.8108 -0.2291  0.4029
    2MOL0     C  198   1.741   8.642   7.561 -0.6746  0.8396  0.7229
    2MOL0     H  199   1.295   8.645   7.099 -2.1795 -0.6720 -0.3918
    2MOL0     H  200   1.062   8.599   7.076 -1.3814  2.4518 -0.3061
    2MOL0     H  201   0.823   8.752   7.411 -4.0627  2.6659 -0.5525
    2MOL0     H  202   0.734   8.597   7.397  2.8531 -1.7029 -0.9219
    2MOL0     H  203   0.661   8.683   7.172  0.6564 -0.1419  0.7006
    2MOL0     H  204   0.739   8.836   7.207  0.2516  0.6307  3.2417
    2MOL0     H  205   0.578   8.892   7.387 -0.4090  0.8463  0.4615
    2MOL0     H  206   0.488   8.736   7.352 -3.2043  2.9170 -3.2608
    2MOL0     H  207   0.538   8.937   7.139  0.7369  0.3656  1.1297
    2MOL0     H  208   0.417   8.803   7.139 -0.6924  0.3978 -0.0346
    2MOL0     H  209   0.396   9.065   7.277 -0.5240 -0.1872  1.0034
    2MOL0     H  210   0.320   8.909   7.332  0.7821 -2.5610 -1.1591
    2MOL0     H  211   0.189   8.888   7.125 -0.2584  1.2403 -0.3528
    2MOL0     H  212   0.267   9.030   7.054 -1.8713  0.3637 -0.7933
    2MOL0     H  213   0.102   9.053   7.306  1.3029 -1.8289 -0.0751
    2MOL0     H  214   0.174   9.180   7.199  1.2291 -0.5977  0.4126
    2MOL0     H  215  -0.028   8.988   7.103 -0.6411  0.2318  0.9159
    2MOL0     H  216   0.044   9.124   7.021 -1.1216 -0.9822 -1.1776
    2MOL0     H  217  -0.190   9.259   7.002 -2.2530  0.3035  0.0143
    2MOL0     H  218  -0.429   9.343   7.038  0.2989  1.6313 -0.0897
    2MOL0     H  219  -0.415   9.454   7.176 -3.5356  0.0507  2.1783
    2MOL0     H  220  -0.544   9.313   7.314  3.9343  3.1844 -0.8139
    2MOL0     H  221  -0.517   9.170   7.221  2.2649  0.3873  0.2460
    2MOL0     H  222  -0.701   9.391   7.125 -0.5971 -0.0696  0.3357
    2MOL0     H  223  -0.640   9.268   7.016  2.8308 -1.2623  0.9313
    2MOL0     H  224  -0.730   9.090   7.169  1.5445 -0.0190  1.1388
    2MOL0     H  225  -0.865   9.170   7.107  2.3930  1.0461 -2.5241
    2MOL0     H  226  -0.964   9.249   7.516 -0.0336  1.3513  1.3218
    2MOL0     H  227  -1.168   9.384   7.544 -0.8325 -3.2071 -0.1824
    2MOL0     H  228  -1.560   9.622   7.476 -1.6594  0.1171  1.3550
    2MOL0     H  229  -1.777   9.721   7.457 -1.5447  0.5192 -0.8377
    2MOL0     H  230  -1.963   9.800   7.391  5.0472 -1.3565 -1.1685
    2MOL0     H  231  -1.983   9.631   7.361 -1.1303 -0.6664 -0.1157
    2MOL0     H  232  -2.172   9.646   7.244  2.4222 -2.0465  2.0718
    2MOL0     H  233  -2.139   9.825   7.215  4.2033 -0.6011 -0.5765
    2MOL0     H  234  -2.221   9.865   7.448 -0.7449 -1.2244  3.3502
    2MOL0     H  235  -2.231   9.694   7.484  2.8018 -0.1327 -0.6283
    2MOL0     H  236  -2.412   9.683   7.272  0.1037  0.6306 -0.2747
    2MOL0     H  237  -2.466   9.716   7.432 -2.5575  0.9611 -1.5179
    2MOL0     H  238  -2.382   9.931   7.232  2.0490  1.6929  2.9061
    2MOL0     H  239  -2.434   9.959   7.393  0.9753 -0.8457  1.3213
    2MOL0     H  240  -2.655   9.955   7.321 -2.9631 -2.4706  1.3413
    2MOL0     H  241  -2.648   9.790   7.309 -0.7433 -1.9391 -3.1196
    2MOL0     H  242  -2.629   9.994   7.078 -0.1342 -0.6576 -0.5067
    2MOL0     H  243  -2.533   9.852   7.058 -0.9668  0.6313 -0.3316
    2MOL0     H  244  -2.755   9.716   7.070  0.6858 -0.0736  0.5258
    2MOL0     H  245  -2.743   9.845   6.952  1.3388 -0.1081  0.1883
    2MOL0     H  246  -1.761   9.692   7.038  0.1333 -0.3781 -1.0141
    2MOL0     H  247  -1.534   9.571   7.052  2.4031  0.0910  0.3353
    2MOL0     H  248  -1.155   9.487   7.135 -0.7204  2.4159  0.6918
    2MOL0     H  249  -0.934   9.366   7.109 -0.6390 -4.2921  0.1555
    2MOL0     H  250   1.007   8.676   7.502  0.7939  2.1265  0.1892
    2MOL0     H  251   1.244   8.702   7.531 -0.0438  1.8220  0.1050
    2MOL0     H  252   1.650   8.753   7.248  1.5762  0.0218 -2.0973
    2MOL0     H  253   1.886   8.838   7.265  0.2984  1.9152  0.5445
    2MOL0     H  254   2.075   8.814   7.640 -0.6889 -1.6277  0.0278
    2MOL0     H  255   2.159   8.936   7.533  1.0863 -1.0225  0.8122
    2MOL0     H  256   2.238   8.644   7.589 -0.2134 -0.1574 -1.8992
    2MOL0     H  257   2.295   8.748   7.451 -0.6778  2.0314 -1.0374
    2MOL0     H  258   2.461   8.719   7.628  0.6926 -0.4545 -0.2167
    2MOL0     H  259   2.363   8.795   7.741 -3.9511 -2.2328 -0.1696
    2MOL0     H  260   2.398   8.941   7.468  2.0101 -2.6466 -0.8839
    2MOL0     H  261   2.351   9.003   7.622  2.2684  1.7837  0.6716
    2MOL0     H  262   2.778   9.031   7.587  0.1891  1.1079  3.4761
    2MOL0     H  263   1.946   8.639   7.642 -0.8850  0.9974  1.2361
    2MOL0     H  264   1.698   8.587   7.644  0.2483 -1.2070 -0.0900
    3MOL0     O  265   9.227   3.523   7.665 -0.2977 -0.5843  0.4278
    3MOL0     C  266   9.276   3.450   7.740  0.5031 -0.1796  0.1472
    3MOL0     O  267   9.193   3.351   7.793  0.6960 -1.0175 -0.2019
    3MOL0     C  268   9.054   3.348   7.770  0.3521  0.5336 -0.3961
    3MOL0     C  269   8.978   3.430   7.848 -0.0542 -0.7666  0.0151
    3MOL0     C  270   8.838   3.438   7.837  0.2683  0.0380  0.7898
    3MOL0     C  271   8.772   3.352   7.736  0.4741 -0.3766 -0.7463
    3MOL0     O  272   8.636   3.352   7.710  0.5627  0.0344  0.1822
    3MOL0     C  273   8.555   3.446   7.787 -0.4406  0.3544 -0.0675
    3MOL0     C  274   8.415   3.452   7.714  0.1282  0.7371  0.6481
    3MOL0     C  275   8.317   3.343   7.762  0.6163  0.2551  0.5877
    3MOL0     C  276   8.196   3.334   7.665  0.2890  0.0940  0.7686
    3MOL0     C  277   8.114   3.204   7.690 -0.2657  0.1629 -1.4603
    3MOL0     C  278   8.001   3.186   7.584  0.6081  0.0614 -0.8373
    3MOL0     C  279   7.960   3.040   7.563  0.6034  0.3709  0.6591
    3MOL0     C  280   7.918   2.978   7.701 -0.2456  0.2101 -0.2893
    3MOL0     N  281   7.808   3.049   7.781  0.3787 -0.0206  0.3935
    3MOL0     C  282   7.743   2.987   7.881 -0.7093 -0.3374 -0.2706
    3MOL0     C  283   7.626   3.057   7.894 -0.1510  0.1290 -0.5712
    3MOL0     C  284   7.523   3.013   7.994 -0.7790 -0.1446  0.3961
    3MOL0     C  285   7.381   3.062   7.979 -0.5465 -0.7103  0.4645
    3MOL0     C  286   7.307   2.990   7.871  0.2289 -0.5416 -0.1890
    3MOL0     C  287   7.155   3.024   7.862  0.1298 -0.9527  0.4616
    3MOL0     O  288   7.123   2.997   7.721  0.7837  0.4242 -0.4452
    3MOL0     C  289   6.983   2.984   7.687  0.0247  0.6849  0.1160
    3MOL0     C  290   6.967   2.917   7.571  0.0037 -0.0007  0.6736
    3MOL0     C  291   6.833   2.903   7.524 -0.0555 -0.3813  1.0493
    3MOL0     C  292   6.728   2.940   7.597  0.0929  0.3433  0.7824
    3MOL0     C  293   6.595   2.907   7.543  0.8945  0.0032 -0.0460
    3MOL0     O  294   6.590   2.847   7.420  0.8088  0.6492  0.3343
    3MOL0     C  295   6.482   2.831   7.338  0.1766  0.4301  0.5760
    3MOL0     C  296   6.354   2.890   7.337 -0.2404 -1.2102  0.2593
    3MOL0     C  297   6.249   2.854   7.252  0.1072  0.8063 -1.0314
    3MOL0     C  298   6.271   2.756   7.159  0.4007 -0.1914  0.4639
    3MOL0     O  299   6.174   2.702   7.083  1.0235 -0.3396  0.2704
    3MOL0     C  300   6.102   2.802   7.012  0.1170  0.2472  1.0368
    3MOL0     C  301   6.007   2.731   6.910 -0.9888  0.1603  0.7357
    3MOL0     C  302   5.950   2.837   6.813  0.0112  0.0047 -0.4682
    3MOL0     C  303   5.856   2.932   6.868 -0.0011  0.6327 -0.0969
    3MOL0     C  304   5.773   3.002   6.760  0.5045  0.0983 -0.0332
    3MOL0     C  305   5.660   3.083   6.830  0.4137  0.1286 -0.5662
    3MOL0     C  306   5.574   3.151   6.721  0.2126 -0.0871  0.5266
    3MOL0     C  307   5.446   3.221   6.774  0.4826  0.5228  0.0732
    3MOL0    Cl  308   5.328   3.091   6.813 -0.1879  0.3408 -0.2419
    3MOL0     C  309   6.398   2.698   7.143  0.0309 -0.7065 -1.0288
    3MOL0     C  310   6.502   2.734   7.242  0.6272  0.2751  0.2411
    3MOL0     O  311   6.494   2.942   7.604 -1.1826 -0.6131  0.3588
    3MOL0     C  312   6.755   2.993   7.728  1.0665  0.3111  0.4928
    3MOL0     C  313   6.876   3.019   7.773  0.5056  0.3042  0.2014
    3MOL0     N  314   7.612   3.147   7.788  0.3100 -0.6712 -0.3690
    3MOL0     N  315   7.721   3.133   7.724 -0.3192  0.7431  0.4976
    3MOL0     C  316   8.852   3.289   7.644 -0.8066  0.0165 -0.2295
    3MOL0     C  317   8.993   3.282   7.668 -0.8053  0.3456 -0.0484
    3MOL0     C  318   9.418   3.468   7.768  0.3455  0.2067  0.8482
    3MOL0     C  319   9.514   3.524   7.675 -0.4268  0.0018 -0.1190
    3MOL0     C  320   9.651   3.535   7.716  0.4275  0.1194 -0.2575
    3MOL0     C  321   9.695   3.485   7.842  0.6619 -0.3147  0.2783
    3MOL0     O  322   9.824   3.499   7.893  0.7149  0.8970  0.5682
    3MOL0     C  323   9.940   3.535   7.811  0.3898 -0.2217 -0.2554
    3MOL0     C  324   9.986   3.673   7.826 -0.6258  0.1836  0.0501
    3MOL0     C  325  10.126   3.685   7.784  0.0827 -0.0141  0.5289
    3MOL0     C  326  10.176   3.821   7.788 -0.0714 -0.6739 -0.3717
    3MOL0     C  327  10.208   3.873   7.926  0.5615 -0.0013 -0.6119
    3MOL0     C  328  10.226   3.941   8.030 -1.1492 -0.4202  0.6431
    3MOL0     C  329   9.602   3.424   7.920  0.4437 -0.1953 -0.2331
    3MOL0     C  330   9.463   3.421   7.888  0.4770  0.0489 -0.5748
    3MOL0     H  331   9.045   3.469   7.925  0.2990 -2.4671  0.6162
    3MOL0     H  332   8.785   3.518   7.887 -0.1587 -0.1935  0.7192
    3MOL0     H  333   8.600   3.545   7.783 -0.9267  0.6562  1.4654
    3MOL0     H  334   8.557   3.424   7.894 -3.5836  4.4111  1.0683
    3MOL0     H  335   8.436   3.443   7.607 -0.6594  2.6963  0.2811
    3MOL0     H  336   8.360   3.546   7.728 -1.2530  0.2844 -1.2592
    3MOL0     H  337   8.273   3.368   7.859  0.3515 -0.9238  0.7867
    3MOL0     H  338   8.366   3.245   7.765  0.5464  0.0540 -2.3088
    3MOL0     H  339   8.134   3.424   7.664  1.7860  1.1857 -1.5398
    3MOL0     H  340   8.227   3.326   7.561 -3.7666 -0.1393 -0.6094
    3MOL0     H  341   8.078   3.203   7.793  2.5347  0.4938 -0.4031
    3MOL0     H  342   8.193   3.128   7.691  1.2889  1.7037 -2.0097
    3MOL0     H  343   8.032   3.226   7.487  1.4998  0.3252 -0.4599
    3MOL0     H  344   7.917   3.247   7.617 -0.0034 -1.9977  1.7372
    3MOL0     H  345   7.879   3.033   7.489  2.1213 -0.3600 -1.0229
    3MOL0     H  346   8.051   2.990   7.528 -1.1806 -2.3909 -0.3780
    3MOL0     H  347   7.999   2.953   7.769 -1.2973  0.1059  0.9581
    3MOL0     H  348   7.878   2.879   7.676  2.3695 -1.3346  1.1777
    3MOL0     H  349   7.787   2.908   7.941 -0.0704 -0.8943 -1.4524
    3MOL0     H  350   7.559   3.044   8.092  0.3427  0.7277 -0.2550
    3MOL0     H  351   7.525   2.904   7.981  3.8253 -0.3259  0.8167
    3MOL0     H  352   7.366   3.170   7.967 -2.1249 -0.6258  2.5545
    3MOL0     H  353   7.332   3.055   8.076  1.7502  0.4842  1.7875
    3MOL0     H  354   7.351   3.012   7.773 -0.3751 -2.5000 -0.9448
    3MOL0     H  355   7.313   2.887   7.906 -0.5507 -0.1060  1.3540
    3MOL0     H  356   7.129   3.127   7.889  3.3447 -0.0554  0.4703
    3MOL0     H  357   7.091   2.971   7.933 -0.7620  3.2669  3.1374
    3MOL0     H  358   7.054   2.876   7.521  0.5028 -1.6236  2.7476
    3MOL0     H  359   6.814   2.850   7.430 -5.2635  2.0601  0.3929
    3MOL0     H  360   6.319   2.963   7.410  2.5812  3.8556 -2.8905
    3MOL0     H  361   6.148   2.893   7.255 -0.0509  0.3683 -0.5879
    3MOL0     H  362   6.170   2.872   6.962  0.0685 -0.5466 -0.1734
    3MOL0     H  363   6.040   2.855   7.084  0.0339  0.9183  0.4818
    3MOL0     H  364   5.928   2.673   6.959 -1.0642 -2.2165 -1.9424
    3MOL0     H  365   6.057   2.656   6.848 -1.6004  1.9813 -2.1723
    3MOL0     H  366   5.913   2.792   6.720  0.5665 -2.8879  0.5821
    3MOL0     H  367   6.026   2.909   6.783 -1.2166  1.7319  0.4205
    3MOL0     H  368   5.785   2.871   6.924 -3.7970  1.9243 -3.0524
    3MOL0     H  369   5.914   2.999   6.932 -1.3994  0.7957  1.0719
    3MOL0     H  370   5.735   2.935   6.682 -2.3729  2.0083 -0.4170
    3MOL0     H  371   5.830   3.076   6.703  0.7622  1.0482  1.4283
    3MOL0     H  372   5.687   3.157   6.906 -3.1065  0.1047  0.8897
    3MOL0     H  373   5.603   3.009   6.886  0.5465  0.3740 -0.1022
    3MOL0     H  374   5.637   3.221   6.666  0.7952 -0.1452  1.1028
    3MOL0     H  375   5.534   3.066   6.664  2.4904 -0.4407 -0.6279
    3MOL0     H  376   5.407   3.273   6.686  0.2503  0.6277  0.2364
    3MOL0     H  377   5.466   3.289   6.858 -0.9938 -0.3642  1.2040
    3MOL0     H  378   6.413   2.628   7.062  1.1613  2.6379 -3.9594
    3MOL0     H  379   6.592   2.677   7.224 -1.2914 -2.5919 -0.9135
    3MOL0     H  380   6.672   3.026   7.789 -0.5327 -2.0676 -0.2821
    3MOL0     H  381   6.886   3.082   7.860 -0.3513  2.0608 -0.9248
    3MOL0     H  382   8.804   3.231   7.566 -0.3109 -2.3756  1.1523
    3MOL0     H  383   9.060   3.223   7.606  0.1238  1.5009 -0.1751
    3MOL0     H  384   9.478   3.562   7.580 -1.4703 -3.9806 -1.5069
    3MOL0     H  385   9.726   3.580   7.652  2.0930  1.5666  2.5502
    3MOL0     H  386   9.912   3.506   7.709  0.5278 -0.9351 -0.0903
    3MOL0     H  387  10.019   3.470   7.846 -1.1446 -3.0026 -1.6406
    3MOL0     H  388   9.926   3.743   7.766  0.7605  0.0471 -1.5859
    3MOL0     H  389   9.984   3.698   7.932 -1.2806  1.4343 -0.2296
    3MOL0     H  390  10.133   3.656   7.678 -0.0979  3.5130 -0.5589
    3MOL0     H  391  10.178   3.608   7.842  1.2037 -0.5480 -1.1212
    3MOL0     H  392  10.268   3.830   7.728  0.8311 -1.3904  0.8691
    3MOL0     H  393  10.109   3.898   7.747  1.7648  1.2328 -0.0048
    3MOL0     H  394  10.252   4.005   8.112  0.5945 -0.5444  0.2298
    3MOL0     H  395   9.649   3.393   8.013  0.0769  1.7111  0.6425
    3MOL0     H  396   9.388   3.382   7.956 -0.8207  1.1653 -1.3103
    4MOL0     O  397   7.897   3.414   5.921 -0.3149 -0.5667  0.0338
    4MOL0     C  398   7.882   3.403   6.046 -0.0892 -0.8484  0.8469
    4MOL0     O  399   7.769   3.347   6.098 -1.1692  0.2516  0.1964
    4MOL0     C  400   7.667   3.305   6.019  0.7607 -0.5896 -1.4404
    4MOL0     C  401   7.672   3.191   5.941  0.4781  0.6826  0.5302
    4MOL0     C  402   7.576   3.159   5.844  1.1155  0.2372 -0.0014
    4MOL0     C  403   7.463   3.228   5.841  0.1540  0.2867  0.6418
    4MOL0     O  404   7.354   3.214   5.754 -0.9673 -0.3845  0.7429
    4MOL0     C  405   7.352   3.080   5.684 -0.8934 -0.6034 -0.0052
    4MOL0     C  406   7.229   3.085   5.592  0.4363 -0.0679  0.3183
    4MOL0     C  407   7.148   2.946   5.612 -0.7752 -0.6308  0.0636
    4MOL0     C  408   7.059   2.914   5.484  0.1912 -0.2385  0.1195
    4MOL0     C  409   7.132   2.839   5.379  0.1436  0.1216 -0.3581
    4MOL0     C  410   7.198   2.700   5.410  0.1650 -0.1861  0.0051
    4MOL0     C  411   7.266   2.645   5.282  0.2538  0.4748  0.2152
    4MOL0     C  412   7.180   2.606   5.163 -0.5448  0.3441 -0.5487
    4MOL0     N  413   7.088   2.494   5.182  0.1527  0.1227  0.4303
    4MOL0     C  414   6.968   2.480   5.110 -0.3131 -0.0288  0.9302
    4MOL0     C  415   6.933   2.353   5.121  0.5460  0.2905 -0.1876
    4MOL0     C  416   6.817   2.279   5.066  0.1893  0.1394  0.8877
    4MOL0     C  417   6.690   2.291   5.142 -0.2621 -0.0969  0.5764
    4MOL0     C  418   6.588   2.197   5.077 -0.3132 -0.4810 -1.2902
    4MOL0     C  419   6.445   2.241   5.127  0.0954 -1.1180  0.0509
    4MOL0     O  420   6.407   2.370   5.061  0.6204  0.5745 -0.4563
    4MOL0     C  421   6.287   2.416   5.110  1.2938  0.2335 -0.3038
    4MOL0     C  422   6.176   2.337   5.141 -0.3456  0.1349 -0.1525
    4MOL0     C  423   6.064   2.387   5.197 -0.4034  0.0578 -0.3983
    4MOL0     C  424   6.043   2.534   5.210  0.0459  0.4549  0.0781
    4MOL0     C  425   5.916   2.597   5.251  0.1129  1.0053 -0.1858
    4MOL0     O  426   5.909   2.736   5.260 -0.1485 -0.3543 -0.1748
    4MOL0     C  427   5.797   2.796   5.299  0.7422  0.1763 -1.1391
    4MOL0     C  428   5.732   2.880   5.214  0.2746  0.2351 -0.4809
    4MOL0     C  429   5.609   2.944   5.245 -0.5264  0.6028  0.7380
    4MOL0     C  430   5.559   2.932   5.378  0.0307 -0.0676 -0.1975
    4MOL0     O  431   5.442   2.986   5.426  0.6092 -0.1775 -0.2085
    4MOL0     C  432   5.352   3.055   5.340 -0.0066  0.3799  0.8469
    4MOL0     C  433   5.243   3.133   5.409  0.3951 -0.6181 -0.2915
    4MOL0     C  434   5.148   3.202   5.315  0.0161  1.3832 -1.2002
    4MOL0     C  435   5.032   3.118   5.260  0.0343  0.4924  0.2216
    4MOL0     C  436   4.932   3.201   5.182  0.1433  0.9053 -0.3815
    4MOL0     C  437   4.816   3.101   5.132 -0.6255  0.4466 -0.4882
    4MOL0     C  438   4.706   3.181   5.050 -0.1631  0.8865  0.1677
    4MOL0     C  439   4.575   3.103   5.013  0.7089 -0.1027 -0.5533
    4MOL0    Cl  440   4.607   2.967   4.911  0.2935  0.1619 -0.1495
    4MOL0     C  441   5.622   2.838   5.462  0.3321 -1.1335 -0.0172
    4MOL0     C  442   5.742   2.774   5.429 -0.2064  0.3578  0.8982
    4MOL0     O  443   5.822   2.511   5.272 -0.4424 -0.0218  0.2894
    4MOL0     C  444   6.150   2.617   5.169  0.1370 -0.1627 -0.0763
    4MOL0     C  445   6.269   2.556   5.124 -0.0137  0.1754  0.1319
    4MOL0     N  446   7.030   2.285   5.190 -0.1110 -0.8135 -0.4119
    4MOL0     N  447   7.115   2.374   5.235 -0.2237  0.1913 -0.9836
    4MOL0     C  448   7.456   3.347   5.917  0.8485  0.2569  0.0727
    4MOL0     C  449   7.552   3.382   6.013  0.3425 -0.0258 -1.0135
    4MOL0     C  450   7.998   3.439   6.121 -0.0642 -0.1813  0.1857
    4MOL0     C  451   8.122   3.473   6.067 -1.0581 -0.0941  0.3377
    4MOL0     C  452   8.221   3.497   6.159  0.1237 -0.2457  0.5627
    4MOL0     C  453   8.212   3.485   6.295  0.4601  0.1949 -0.0282
    4MOL0     O  454   8.326   3.510   6.367 -0.5527  0.4211 -0.1467
    4MOL0     C  455   8.306   3.531   6.511  0.3754  0.7515 -0.5280
    4MOL0     C  456   8.426   3.586   6.581 -0.6734  0.2141  0.6628
    4MOL0     C  457   8.482   3.491   6.681 -0.5052 -0.2257  0.2375
    4MOL0     C  458   8.641   3.516   6.707  0.3512  0.3471 -0.5539
    4MOL0     C  459   8.673   3.442   6.832  0.0591  0.1606  0.3701
    4MOL0     C  460   8.728   3.400   6.927  0.7523  0.9419 -0.1257
    4MOL0     C  461   8.086   3.461   6.345 -0.5310  0.2619  0.9258
    4MOL0     C  462   7.982   3.437   6.255  0.2738  0.0141  0.3406
    4MOL0     H  463   7.757   3.123   5.944 -0.4727 -0.6747 -1.0141
    4MOL0     H  464   7.607   3.088   5.767 -1.0489 -0.5955 -0.1668
    4MOL0     H  465   7.367   3.005   5.763  0.4902 -0.8156 -0.4343
    4MOL0     H  466   7.440   3.068   5.619 -2.5446 -1.8738 -2.1120
    4MOL0     H  467   7.262   3.084   5.488 -0.0735 -1.8173  0.1276
    4MOL0     H  468   7.158   3.164   5.619  1.1611 -0.1879  2.8302
    4MOL0     H  469   7.079   2.960   5.697  0.0530 -0.5268  0.7338
    4MOL0     H  470   7.214   2.861   5.627  2.4361  1.7103  0.2643
    4MOL0     H  471   6.976   2.848   5.513  1.4357 -2.1515 -0.5206
    4MOL0     H  472   7.025   3.004   5.432  2.9298  1.0467  0.3847
    4MOL0     H  473   7.212   2.906   5.348  1.7290  0.3710  3.7292
    4MOL0     H  474   7.058   2.814   5.302  1.2138 -3.4733 -0.4207
    4MOL0     H  475   7.117   2.634   5.443 -1.0050 -0.2877 -2.7744
    4MOL0     H  476   7.273   2.722   5.486  0.8954  1.1631 -1.0516
    4MOL0     H  477   7.353   2.697   5.242 -1.2610  0.2635 -3.8389
    4MOL0     H  478   7.306   2.547   5.309 -0.2697  0.1633 -0.1195
    4MOL0     H  479   7.248   2.587   5.080  0.2245  2.6620 -0.5124
    4MOL0     H  480   7.114   2.691   5.143  0.6515  2.2114  2.7445
    4MOL0     H  481   6.905   2.558   5.069  0.2127 -0.2931 -0.4238
    4MOL0     H  482   6.831   2.171   5.057 -1.7567 -0.0015 -4.4739
    4MOL0     H  483   6.804   2.323   4.966  1.5453 -0.4871  0.4116
    4MOL0     H  484   6.660   2.395   5.126  0.2867 -0.1804 -1.3294
    4MOL0     H  485   6.721   2.278   5.246  2.7946 -0.0410 -0.2221
    4MOL0     H  486   6.611   2.199   4.970  4.1087 -3.4550 -0.6331
    4MOL0     H  487   6.593   2.091   5.100 -2.0976 -0.7381 -1.9445
    4MOL0     H  488   6.449   2.249   5.236  1.6224  0.7529 -0.0930
    4MOL0     H  489   6.368   2.164   5.114 -2.0779  0.7603  1.0680
    4MOL0     H  490   6.187   2.230   5.126 -2.3965 -0.0849 -0.3001
    4MOL0     H  491   5.980   2.320   5.216 -0.6791 -1.1407 -4.7343
    4MOL0     H  492   5.773   2.897   5.115 -1.5643 -1.3019 -1.5598
    4MOL0     H  493   5.556   2.988   5.161 -2.3560  0.3007  1.6873
    4MOL0     H  494   5.303   2.979   5.279  2.5615  1.8203 -3.4422
    4MOL0     H  495   5.406   3.123   5.274 -1.4539  0.8381  0.1105
    4MOL0     H  496   5.288   3.217   5.463 -1.8111 -0.3295  1.2544
    4MOL0     H  497   5.191   3.067   5.479  2.8414 -0.1679  2.1339
    4MOL0     H  498   5.209   3.236   5.231  3.1531 -2.8027 -0.9265
    4MOL0     H  499   5.110   3.288   5.370 -2.1830 -0.5875  0.5625
    4MOL0     H  500   5.068   3.035   5.198  0.4092 -0.0321  1.1174
    4MOL0     H  501   4.989   3.071   5.348  5.2334 -0.8280  2.3789
    4MOL0     H  502   4.985   3.243   5.096  3.6665 -2.2445 -0.0258
    4MOL0     H  503   4.884   3.281   5.239  2.0307  1.8826 -0.0717
    4MOL0     H  504   4.764   3.058   5.218  0.1039  1.1805  0.3398
    4MOL0     H  505   4.865   3.027   5.068 -0.2442  0.8584 -0.6707
    4MOL0     H  506   4.675   3.267   5.111  0.6254  0.6833  0.8824
    4MOL0     H  507   4.750   3.219   4.957 -0.0591  2.7215  0.9284
    4MOL0     H  508   4.509   3.164   4.951  0.7274  0.4599 -0.0233
    4MOL0     H  509   4.517   3.073   5.101 -0.0695  2.0143 -0.3023
    4MOL0     H  510   5.580   2.838   5.562  4.0684  3.4690  1.9568
    4MOL0     H  511   5.790   2.703   5.496  2.8089  2.0727  0.7364
    4MOL0     H  512   6.153   2.726   5.178 -0.3554 -0.2206  0.9921
    4MOL0     H  513   6.358   2.617   5.107  1.7127 -2.1332  0.3447
    4MOL0     H  514   7.361   3.400   5.912 -0.1619 -1.5683 -1.4219
    4MOL0     H  515   7.535   3.462   6.083 -0.3181 -1.0440  0.0339
    4MOL0     H  516   8.144   3.496   5.963 -0.3691  2.4928  1.0050
    4MOL0     H  517   8.317   3.542   6.132  0.0824  1.1770  2.5440
    4MOL0     H  518   8.270   3.435   6.551  0.8838  0.5596 -0.5249
    4MOL0     H  519   8.224   3.602   6.525  0.4149  0.6800  0.0794
    4MOL0     H  520   8.505   3.611   6.509  0.2297 -2.1457  0.7534
    4MOL0     H  521   8.403   3.677   6.636  2.1493  0.9683  0.7749
    4MOL0     H  522   8.470   3.386   6.650 -4.0115  0.2426 -0.4365
    4MOL0     H  523   8.416   3.489   6.769  0.3201 -1.6275  0.8789
    4MOL0     H  524   8.704   3.497   6.620 -0.3392 -1.3616 -0.7186
    4MOL0     H  525   8.649   3.619   6.744  1.2695 -0.0709  0.4509
    4MOL0     H  526   8.786   3.347   7.000  2.6489  4.9892  1.6296
    4MOL0     H  527   8.066   3.461   6.451  4.0381 -0.6334  2.0255
    4MOL0     H  528   7.891   3.414   6.309 -0.4947  0.9942 -0.5118
    5MOL0     O  529   7.808  11.068  10.197  0.2781  0.1313 -0.8083
    5MOL0     C  530   7.850  10.999  10.292 -1.0017 -0.5461 -0.1322
    5MOL0     O  531   7.789  10.994  10.412 -0.2528  0.5348  0.1178
    5MOL0     C  532   7.669  11.056  10.421 -0.5732 -0.0590  0.4259
    5MOL0     C  533   7.659  11.195  10.447  0.4317 -0.7835 -0.1521
    5MOL0     C  534   7.530  11.250  10.456  0.0338 -0.0883  0.4503
    5MOL0     C  535   7.409  11.164  10.453 -0.1718 -0.1125  0.8615
    5MOL0     O  536   7.277  11.217  10.445 -0.0123 -0.1449  0.1603
    5MOL0     C  537   7.253  11.338  10.511 -0.3689 -0.3175  0.2112
    5MOL0     C  538   7.104  11.381  10.507  0.1734  0.8492  0.4104
    5MOL0     C  539   7.051  11.416  10.358 -0.6837  0.3890 -0.4158
    5MOL0     C  540   6.910  11.468  10.354  0.3919  0.7422 -0.0430
    5MOL0     C  541   6.889  11.615  10.408 -1.0116 -1.0125 -0.6864
    5MOL0     C  542   6.929  11.719  10.301 -0.4516  0.0475  0.3972
    5MOL0     C  543   6.930  11.869  10.348  0.3749 -0.4300  0.3287
    5MOL0     C  544   6.994  11.914  10.482  1.0809 -0.0697 -0.0624
    5MOL0     N  545   6.988  12.058  10.512 -0.0458 -0.4738 -0.8146
    5MOL0     C  546   6.882  12.129  10.561  0.6677  0.3219 -0.4504
    5MOL0     C  547   6.907  12.261  10.543  1.0285 -0.0142 -0.2384
    5MOL0     C  548   6.832  12.376  10.605 -0.4299 -0.0815 -0.0671
    5MOL0     C  549   6.808  12.365  10.749  0.6444  0.2503 -1.0251
    5MOL0     C  550   6.780  12.506  10.806 -0.1070 -0.6632 -0.0966
    5MOL0     C  551   6.635  12.532  10.837 -0.7718 -0.1147 -0.3956
    5MOL0     O  552   6.570  12.526  10.717  0.5063 -0.1046  0.1858
    5MOL0     C  553   6.439  12.571  10.721 -0.1393  0.6078  0.4113
    5MOL0     C  554   6.366  12.579  10.600 -0.1453 -0.2283  0.0233
    5MOL0     C  555   6.232  12.626  10.593  0.1482 -0.0696  0.7068
    5MOL0     C  556   6.170  12.664  10.713  1.1643  0.3622 -0.5745
    5MOL0     C  557   6.031  12.720  10.701  0.8146  1.0080 -0.4745
    5MOL0     O  558   5.964  12.681  10.587  0.0123  0.7162  0.6472
    5MOL0     C  559   5.838  12.724  10.562 -0.2410 -0.5514  0.8860
    5MOL0     C  560   5.814  12.802  10.453  0.5559 -0.3831 -0.5531
    5MOL0     C  561   5.683  12.863  10.437  0.0492  0.1538  0.3502
    5MOL0     C  562   5.569  12.824  10.517 -1.2594 -0.3721  0.7106
    5MOL0     O  563   5.455  12.899  10.499  0.6758  0.4283  0.7303
    5MOL0     C  564   5.340  12.870  10.582 -0.1722  0.1142 -0.1697
    5MOL0     C  565   5.217  12.924  10.501  0.1503  0.4504  0.2071
    5MOL0     C  566   5.079  12.879  10.560  0.1191 -0.3525 -0.6209
    5MOL0     C  567   4.969  12.969  10.497  0.4215  0.8033  0.6942
    5MOL0     C  568   4.838  12.919  10.553 -0.1122 -0.9485 -0.1961
    5MOL0     C  569   4.722  13.021  10.548 -0.8599  0.7068  0.1061
    5MOL0     C  570   4.597  12.975  10.620 -0.6120  0.5876  0.4813
    5MOL0     C  571   4.485  13.076  10.636  0.5325 -0.6097  0.5284
    5MOL0    Cl  572   4.418  13.122  10.481  0.1543  0.0336 -0.3865
    5MOL0     C  573   5.603  12.747  10.627  0.0191  0.3033 -1.1732
    5MOL0     C  574   5.732  12.696  10.648  0.8507  0.4921 -0.1132
    5MOL0     O  575   5.990  12.805  10.782 -0.1795 -0.0150  0.4411
    5MOL0     C  576   6.227  12.635  10.832 -0.2530  0.6197 -0.6952
    5MOL0     C  577   6.362  12.604  10.838  0.9589 -0.0522 -0.0363
    5MOL0     N  578   7.034  12.267  10.490 -0.4828  0.0241  0.5409
    5MOL0     N  579   7.080  12.146  10.484 -0.0678 -1.0838  0.4107
    5MOL0     C  580   7.427  11.021  10.441 -0.0575 -0.8803 -0.1998
    5MOL0     C  581   7.556  10.971  10.417 -0.9498  0.2920 -0.1977
    5MOL0     C  582   7.966  10.917  10.274  0.3703  0.6106 -0.2570
    5MOL0     C  583   8.027  10.843  10.381 -0.0561 -0.0438 -0.3622
    5MOL0     C  584   8.137  10.768  10.352  0.4568 -0.2849  0.4380
    5MOL0     C  585   8.199  10.748  10.228  0.9722  0.0467  0.3711
    5MOL0     O  586   8.294  10.663  10.186 -0.0194  0.3198 -0.0482
    5MOL0     C  587   8.371  10.592  10.279  0.1209  0.7713  1.0138
    5MOL0     C  588   8.396  10.455  10.208 -0.2517  0.0823 -0.5935
    5MOL0     C  589   8.500  10.369  10.287  0.5175 -0.1570  0.1745
    5MOL0     C  590   8.640  10.417  10.248  0.5934  0.7962 -0.6135
    5MOL0     C  591   8.740  10.330  10.298  0.5778 -0.1448 -0.2935
    5MOL0     C  592   8.814  10.261  10.368 -0.0593 -0.2830  0.6808
    5MOL0     C  593   8.137  10.824  10.125 -0.2092  0.5956  0.0038
    5MOL0     C  594   8.027  10.911  10.145 -0.0196  0.1858 -0.6910
    5MOL0     H  595   7.749  11.256  10.435  0.0502 -0.0493  0.6302
    5MOL0     H  596   7.522  11.359  10.459 -0.8826 -0.1419  0.2789
    5MOL0     H  597   7.318  11.416  10.472 -0.0331  0.7081  2.6403
    5MOL0     H  598   7.278  11.337  10.618 -2.7138 -0.6612  0.8168
    5MOL0     H  599   7.088  11.464  10.577  1.9171 -0.5213  2.5462
    5MOL0     H  600   7.045  11.300  10.550 -1.2566  1.2246 -0.7756
    5MOL0     H  601   7.045  11.318  10.310 -0.0260  1.3026 -2.5337
    5MOL0     H  602   7.129  11.473  10.306  1.5675 -0.0290  2.2961
    5MOL0     H  603   6.886  11.472  10.247  1.1447  0.3633 -0.2348
    5MOL0     H  604   6.851  11.395  10.411  0.9950  2.2707  2.7417
    5MOL0     H  605   6.947  11.622  10.501 -1.6876  0.8948 -0.3682
    5MOL0     H  606   6.787  11.626  10.444  0.0752 -1.6230  2.9632
    5MOL0     H  607   6.853  11.702  10.224 -0.7842 -1.4831  1.0343
    5MOL0     H  608   7.030  11.710  10.259 -1.2277  1.3419 -1.9267
    5MOL0     H  609   6.966  11.928  10.263  2.0738 -3.2600 -1.0678
    5MOL0     H  610   6.824  11.891  10.362  0.0798 -2.2865  1.2252
    5MOL0     H  611   7.100  11.888  10.468  1.0478  0.8982 -2.6153
    5MOL0     H  612   6.954  11.876  10.576 -0.1645  1.0169 -0.1261
    5MOL0     H  613   6.792  12.087  10.605 -0.4265 -0.0402 -2.8468
    5MOL0     H  614   6.735  12.385  10.554 -0.4779  2.2980  0.3005
    5MOL0     H  615   6.895  12.464  10.590  0.1704 -0.2679  1.1986
    5MOL0     H  616   6.905  12.335  10.789  0.3687 -0.6684 -1.0206
    5MOL0     H  617   6.724  12.302  10.781  0.1041  2.7375  3.0926
    5MOL0     H  618   6.836  12.503  10.900 -2.3773  0.9785  1.4100
    5MOL0     H  619   6.823  12.582  10.740 -1.3565  1.2637  1.1982
    5MOL0     H  620   6.622  12.630  10.884 -1.0289  0.7054 -2.0893
    5MOL0     H  621   6.590  12.468  10.914  1.7153  0.9281  2.0769
    5MOL0     H  622   6.417  12.554  10.508  0.1247 -0.6091  0.2725
    5MOL0     H  623   6.188  12.635  10.495 -0.8865 -1.4353  1.0001
    5MOL0     H  624   5.894  12.817  10.381 -1.8319 -1.3199 -3.6162
    5MOL0     H  625   5.670  12.920  10.346  0.4268  0.0227  0.2086
    5MOL0     H  626   5.346  12.908  10.685 -0.9884 -0.3548  0.0611
    5MOL0     H  627   5.327  12.762  10.596  0.6291 -0.0346 -0.4920
    5MOL0     H  628   5.207  12.890  10.397 -0.8380  2.6550 -0.4673
    5MOL0     H  629   5.216  13.033  10.494 -4.6744  0.7263  1.4041
    5MOL0     H  630   5.067  12.875  10.668 -3.3115 -0.5201 -0.9160
    5MOL0     H  631   5.054  12.783  10.515 -2.0400  0.9212 -2.3387
    5MOL0     H  632   4.990  13.074  10.517  0.3968  0.9591 -0.0495
    5MOL0     H  633   4.967  12.976  10.387 -0.4572 -1.2685  0.5289
    5MOL0     H  634   4.849  12.875  10.652 -0.6608 -0.9042 -0.1125
    5MOL0     H  635   4.813  12.831  10.492  1.2588 -0.9486 -0.7995
    5MOL0     H  636   4.706  13.037  10.441  1.4565  1.2058 -0.2142
    5MOL0     H  637   4.762  13.116  10.585 -0.2152 -0.1971  1.8385
    5MOL0     H  638   4.545  12.883  10.593 -2.1971  0.6737  2.8601
    5MOL0     H  639   4.623  12.952  10.724 -1.9241 -0.3236  0.6408
    5MOL0     H  640   4.521  13.165  10.687  1.0379  0.3497 -1.3924
    5MOL0     H  641   4.400  13.032  10.688 -1.9025  1.5356 -1.3588
    5MOL0     H  642   5.525  12.706  10.690  0.4815 -2.8987 -2.5334
    5MOL0     H  643   5.749  12.639  10.739  0.8044  1.3282  0.4290
    5MOL0     H  644   6.179  12.664  10.925 -0.9587  0.0678 -0.8851
    5MOL0     H  645   6.409  12.605  10.936  0.0438  0.2797  0.4088
    5MOL0     H  646   7.336  10.962  10.429 -2.1860  2.0927  0.1673
    5MOL0     H  647   7.553  10.865  10.397 -1.1631  0.3098 -0.2692
    5MOL0     H  648   7.997  10.855  10.484 -1.2850  3.3448 -0.9885
    5MOL0     H  649   8.182  10.723  10.440 -0.6429  0.9991  1.7322
    5MOL0     H  650   8.317  10.571  10.372 -2.0007  0.4183 -0.2370
    5MOL0     H  651   8.462  10.651  10.293  0.7507  0.6361 -1.9096
    5MOL0     H  652   8.298  10.405  10.209  0.5578 -1.5812 -0.2565
    5MOL0     H  653   8.435  10.461  10.107  2.1720 -1.2347  0.1897
    5MOL0     H  654   8.466  10.266  10.272  3.6574 -1.1449 -1.0199
    5MOL0     H  655   8.484  10.374  10.395 -0.3319  1.6350  0.0074
    5MOL0     H  656   8.660  10.412  10.140  0.5763  2.0531 -0.6841
    5MOL0     H  657   8.657  10.516  10.291  0.2700  1.3451 -1.6999
    5MOL0     H  658   8.864  10.214  10.451 -0.5691 -1.8870  0.1092
    5MOL0     H  659   8.174  10.816  10.023 -1.9181 -2.1242 -0.4819
    5MOL0     H  660   7.984  10.970  10.064  1.6023  1.2455 -0.8238
    6MOL0     O  661   3.900   4.298   3.244  0.4284 -0.5675  0.3263
    6MOL0     C  662   3.806   4.223   3.280  0.0289 -0.1904 -0.4749
    6MOL0     O  663   3.818   4.123   3.373  0.7991 -0.8080  0.0044
    6MOL0     C  664   3.931   4.117   3.450 -0.0029  0.4056 -0.4149
    6MOL0     C  665   4.051   4.071   3.404 -0.0174  0.4257 -0.2234
    6MOL0     C  666   4.157   4.065   3.502  0.7600  0.6822  0.5363
    6MOL0     C  667   4.139   4.084   3.639  0.5314  0.0619  0.2532
    6MOL0     O  668   4.249   4.073   3.716 -0.2232  0.5096 -0.6835
    6MOL0     C  669   4.230   3.980   3.825 -0.6925  0.2130  0.5896
    6MOL0     C  670   4.316   4.027   3.939  0.5689 -0.7792 -0.6057
    6MOL0     C  671   4.461   3.976   3.915  0.4139 -0.2628  0.0779
    6MOL0     C  672   4.560   3.994   4.031 -0.2328 -0.0882 -0.1037
    6MOL0     C  673   4.704   3.946   3.997  0.3533  0.5863  0.9597
    6MOL0     C  674   4.802   3.939   4.113 -0.5235 -1.0228  0.3166
    6MOL0     C  675   4.772   3.818   4.210  0.5484 -0.4804 -0.1959
    6MOL0     C  676   4.895   3.785   4.298 -0.1556 -0.1602 -0.5341
    6MOL0     N  677   4.874   3.672   4.396 -0.2594  0.4386 -1.6060
    6MOL0     C  678   4.750   3.616   4.428  0.7022  0.8722  1.1237
    6MOL0     C  679   4.777   3.520   4.522  0.2510 -1.0002 -0.5152
    6MOL0     C  680   4.673   3.434   4.588  0.1717 -0.0506  0.8111
    6MOL0     C  681   4.638   3.468   4.732  0.4274  0.5273  0.0337
    6MOL0     C  682   4.529   3.380   4.783  0.1710  0.2780 -0.4179
    6MOL0     C  683   4.386   3.422   4.742  0.0250  0.4784 -0.0585
    6MOL0     O  684   4.356   3.407   4.603  0.6923  0.1596 -0.0940
    6MOL0     C  685   4.229   3.399   4.567  0.2117 -0.0451  0.5555
    6MOL0     C  686   4.117   3.458   4.629 -0.2381  0.2602  0.4355
    6MOL0     C  687   3.984   3.434   4.582 -1.1658  0.4915  0.2551
    6MOL0     C  688   3.961   3.347   4.471  1.4032  0.4719 -0.0084
    6MOL0     C  689   3.827   3.323   4.415  0.6614 -0.0815 -0.2153
    6MOL0     O  690   3.729   3.368   4.491  0.3166  0.2843  0.1830
    6MOL0     C  691   3.594   3.353   4.460 -0.4892  0.3336 -0.1758
    6MOL0     C  692   3.499   3.435   4.525 -0.2187  0.0499 -0.3739
    6MOL0     C  693   3.360   3.415   4.506  0.2528 -0.7640 -0.9640
    6MOL0     C  694   3.313   3.315   4.430 -0.4312  1.1250  0.6504
    6MOL0     O  695   3.174   3.292   4.422  0.1484  0.7978  0.2998
    6MOL0     C  696   3.117   3.176   4.359  0.2597  0.0676 -0.0498
    6MOL0     C  697   3.098   3.192   4.206 -0.0491  0.0912  0.4712
    6MOL0     C  698   2.963   3.132   4.155  0.0972  0.5044 -0.5067
    6MOL0     C  699   2.959   2.981   4.141 -0.2480 -0.3190 -0.1672
    6MOL0     C  700   2.824   2.905   4.109  0.0771 -0.3841 -0.3998
    6MOL0     C  701   2.767   2.926   3.972 -0.0777 -1.1224  0.4770
    6MOL0     C  702   2.642   2.835   3.964 -0.1397  0.0791 -0.1882
    6MOL0     C  703   2.588   2.827   3.828  0.0617  0.1920  0.7243
    6MOL0    Cl  704   2.536   2.995   3.774  0.3772  0.5445 -0.1721
    6MOL0     C  705   3.405   3.240   4.354 -0.0168  0.8163  0.3597
    6MOL0     C  706   3.542   3.263   4.371 -0.4581  0.1350  0.2537
    6MOL0     O  707   3.812   3.273   4.302 -0.1008  0.2075 -0.1521
    6MOL0     C  708   4.076   3.287   4.413 -1.0102 -0.2125  0.0625
    6MOL0     C  709   4.203   3.305   4.470  0.1579  0.0896  0.4798
    6MOL0     N  710   4.919   3.521   4.547 -0.0905 -0.4268  1.1975
    6MOL0     N  711   4.974   3.613   4.469  0.3411  0.3085  0.2845
    6MOL0     C  712   4.017   4.135   3.684  0.5474  0.0291  0.7173
    6MOL0     C  713   3.915   4.148   3.589 -0.3975 -0.8784  0.0104
    6MOL0     C  714   3.675   4.258   3.235  0.5712  0.4183  0.9354
    6MOL0     C  715   3.642   4.361   3.140  1.4307 -0.3394 -0.6082
    6MOL0     C  716   3.516   4.400   3.118  0.5006 -0.7159  1.3044
    6MOL0     C  717   3.410   4.324   3.160 -0.0042 -0.8443 -0.1636
    6MOL0     O  718   3.281   4.349   3.124  0.1670 -0.4009  0.5467
    6MOL0     C  719   3.253   4.377   2.985 -0.4183  0.5425  1.4995
    6MOL0     C  720   3.274   4.242   2.911  0.1087 -0.8690  0.4175
    6MOL0     C  721   3.187   4.214   2.786  0.4280 -0.7271  0.3807
    6MOL0     C  722   3.238   4.293   2.670  0.2520 -0.1817  0.3302
    6MOL0     C  723   3.164   4.272   2.543  0.6854 -0.1301 -0.7291
    6MOL0     C  724   3.104   4.241   2.438  0.6643 -0.2363 -1.0513
    6MOL0     C  725   3.435   4.220   3.239 -0.2464  0.5043  0.0180
    6MOL0     C  726   3.564   4.178   3.278  0.3119  0.1656  0.7682
    6MOL0     H  727   4.057   4.049   3.298 -1.7034 -0.0660 -0.2478
    6MOL0     H  728   4.257   4.048   3.463  0.1493  4.6199 -3.6550
    6MOL0     H  729   4.241   3.874   3.799  2.4446  0.1916  1.5403
    6MOL0     H  730   4.128   3.991   3.862 -0.3789  0.1191  1.5070
    6MOL0     H  731   4.281   3.987   4.035 -0.7027  0.9833 -0.2762
    6MOL0     H  732   4.307   4.136   3.944  0.0368 -0.6630 -2.7629
    6MOL0     H  733   4.502   4.024   3.825  1.7406  1.1617  1.3900
    6MOL0     H  734   4.453   3.868   3.900 -0.0364 -0.1475 -0.5321
    6MOL0     H  735   4.566   4.102   4.047  2.8251 -0.1383 -0.2739
    6MOL0     H  736   4.524   3.940   4.119 -1.6289 -2.2213 -1.8737
    6MOL0     H  737   4.748   4.015   3.924  2.1718 -1.0915  0.3996
    6MOL0     H  738   4.692   3.843   3.964 -0.0050  0.7133  0.6897
    6MOL0     H  739   4.801   4.038   4.159 -0.8810 -0.4697 -0.8276
    6MOL0     H  740   4.905   3.927   4.079  0.4866 -1.1340  3.1666
    6MOL0     H  741   4.685   3.836   4.273  0.3694 -1.5371 -0.1163
    6MOL0     H  742   4.750   3.731   4.147 -2.5001  0.9008 -1.2303
    6MOL0     H  743   4.929   3.873   4.353  2.0113 -1.6191  0.6006
    6MOL0     H  744   4.981   3.755   4.237  1.2454  3.1660 -0.3867
    6MOL0     H  745   4.656   3.646   4.383  2.2012  0.0631 -2.9921
    6MOL0     H  746   4.713   3.332   4.594  2.1566  0.6285 -0.2006
    6MOL0     H  747   4.584   3.417   4.526  0.0273  3.2947 -0.0391
    6MOL0     H  748   4.588   3.566   4.728  0.6312  0.6268 -0.0759
    6MOL0     H  749   4.719   3.460   4.804 -1.9769 -1.3278  2.7686
    6MOL0     H  750   4.546   3.279   4.744  0.9461  0.9820 -1.9709
    6MOL0     H  751   4.529   3.358   4.890 -2.4278 -3.0618 -0.9391
    6MOL0     H  752   4.360   3.522   4.778  0.3189 -0.1099  1.8949
    6MOL0     H  753   4.313   3.356   4.790  0.4262 -0.8949 -1.2636
    6MOL0     H  754   4.127   3.523   4.715  2.8810  0.9375 -0.3051
    6MOL0     H  755   3.906   3.486   4.636 -0.3182  0.4911  1.5235
    6MOL0     H  756   3.541   3.512   4.588  2.7400 -0.8214 -1.1420
    6MOL0     H  757   3.302   3.494   4.553  2.2572  0.3174 -0.1353
    6MOL0     H  758   3.017   3.166   4.401  0.0543  0.6228 -0.3917
    6MOL0     H  759   3.176   3.085   4.374 -0.9989 -0.9942 -1.3012
    6MOL0     H  760   3.192   3.169   4.155  2.1536  1.8862  3.3450
    6MOL0     H  761   3.082   3.297   4.180  1.0760 -0.2108 -1.7272
    6MOL0     H  762   2.928   3.167   4.057 -0.8947 -2.4698 -1.3188
    6MOL0     H  763   2.882   3.175   4.214 -2.4315 -1.4469 -2.3211
    6MOL0     H  764   3.026   2.955   4.059  0.1562  3.2596 -1.1342
    6MOL0     H  765   2.995   2.945   4.238 -0.3003  1.2703  0.4638
    6MOL0     H  766   2.765   2.934   4.196 -0.2801 -0.5181 -0.5954
    6MOL0     H  767   2.835   2.797   4.126 -0.0041 -0.2363  0.6568
    6MOL0     H  768   2.836   2.914   3.887  0.2395  1.2214  0.3293
    6MOL0     H  769   2.743   3.033   3.972 -0.7113 -1.1424 -3.2348
    6MOL0     H  770   2.664   2.735   4.002  1.3905  0.4627  0.0065
    6MOL0     H  771   2.562   2.880   4.023 -0.8593  1.4504 -2.1227
    6MOL0     H  772   2.515   2.748   3.808  0.4015 -0.3883  1.7073
    6MOL0     H  773   2.677   2.807   3.767 -0.7547 -3.6184  0.5672
    6MOL0     H  774   3.370   3.170   4.278 -1.2053  2.0490 -0.2622
    6MOL0     H  775   3.595   3.201   4.300  0.1951  2.8607 -1.7881
    6MOL0     H  776   4.054   3.238   4.319 -2.5428 -1.2508  0.9252
    6MOL0     H  777   4.293   3.259   4.430 -0.6998  0.3354 -1.8897
    6MOL0     H  778   4.006   4.181   3.781  1.2531 -1.8453  1.7373
    6MOL0     H  779   3.820   4.196   3.612  0.0666  1.1064 -1.8911
    6MOL0     H  780   3.722   4.430   3.112  0.2246  0.9251 -1.0573
    6MOL0     H  781   3.506   4.491   3.059  0.2050 -0.3319  1.9340
    6MOL0     H  782   3.321   4.450   2.939  1.3756 -1.3507  0.9800
    6MOL0     H  783   3.149   4.406   2.967 -0.7560 -1.8810 -1.1364
    6MOL0     H  784   3.381   4.223   2.901  1.2248  4.6304 -2.2146
    6MOL0     H  785   3.237   4.167   2.981 -2.1527  1.2144  1.6480
    6MOL0     H  786   3.085   4.251   2.803  0.5365 -0.8205  1.2848
    6MOL0     H  787   3.186   4.108   2.759 -1.0694  0.0101 -3.0954
    6MOL0     H  788   3.232   4.401   2.689  0.7415 -0.0047 -0.4669
    6MOL0     H  789   3.341   4.261   2.653 -0.5072 -2.1689 -0.8589
    6MOL0     H  790   3.064   4.213   2.343  0.2500 -1.1145 -0.6360
    6MOL0     H  791   3.355   4.166   3.289  0.7284  0.5511  1.6991
    6MOL0     H  792   3.578   4.098   3.350 -0.2157 -0.3276  0.3332
    7MOL0     O  793   4.706   8.832   1.374  0.7283  0.5709 -1.1389
    7MOL0     C  794   4.716   8.808   1.498  0.1855 -0.2489 -0.2135
    7MOL0     O  795   4.814   8.845   1.576  0.4277 -0.7402 -1.0758
    7MOL0     C  796   4.945   8.866   1.528 -0.8432  0.9671 -0.5096
    7MOL0     C  797   5.044   8.874   1.634  1.0917  0.2130  0.1663
    7MOL0     C  798   5.179   8.861   1.605  0.2359 -0.3264 -0.2991
    7MOL0     C  799   5.231   8.861   1.474  0.3971  0.6712  0.1414
    7MOL0     O  800   5.367   8.851   1.457  0.0210 -0.0532  0.1935
    7MOL0     C  801   5.400   8.791   1.322  0.2234  0.3042 -1.0957
    7MOL0     C  802   5.536   8.729   1.330 -0.0614  0.4019  0.7489
    7MOL0     C  803   5.654   8.813   1.269  0.2636 -0.6350  0.1521
    7MOL0     C  804   5.654   8.811   1.117  0.0556 -0.0051  0.0155
    7MOL0     C  805   5.713   8.694   1.047 -0.8336  1.1294 -0.8903
    7MOL0     C  806   5.856   8.645   1.086  0.3412 -0.7408 -0.6730
    7MOL0     C  807   5.949   8.755   1.050 -0.3294 -0.8629 -0.1118
    7MOL0     C  808   6.091   8.717   1.053 -1.2513 -0.4642 -1.5810
    7MOL0     N  809   6.135   8.668   1.185 -0.4358 -0.3802  0.3710
    7MOL0     C  810   6.224   8.566   1.207  0.5824  0.1094 -0.8178
    7MOL0     C  811   6.250   8.575   1.346  0.1534 -0.2878 -0.0168
    7MOL0     C  812   6.328   8.476   1.424 -0.3080  0.6234 -0.3432
    7MOL0     C  813   6.467   8.465   1.362  0.4303  0.1733  0.3020
    7MOL0     C  814   6.478   8.332   1.270  0.0865 -0.2137 -0.8435
    7MOL0     C  815   6.569   8.335   1.166 -0.0455  0.4982 -0.2511
    7MOL0     O  816   6.702   8.342   1.216 -0.1824  0.1606 -0.0520
    7MOL0     C  817   6.805   8.340   1.123  0.4001 -0.3449  0.5900
    7MOL0     C  818   6.927   8.334   1.181 -0.6054  1.1539 -0.3917
    7MOL0     C  819   7.040   8.329   1.103  0.0869  0.4752  0.1385
    7MOL0     C  820   7.044   8.344   0.966  0.4831  1.1173 -0.2961
    7MOL0     C  821   7.166   8.331   0.882 -0.1605  0.2044  0.4147
    7MOL0     O  822   7.285   8.359   0.942 -0.2023  0.1806 -0.1413
    7MOL0     C  823   7.398   8.322   0.866  0.2354 -0.7680  0.1044
    7MOL0     C  824   7.420   8.194   0.804 -0.4504 -0.0334 -0.2034
    7MOL0     C  825   7.538   8.169   0.734  0.0466 -0.4421 -0.1545
    7MOL0     C  826   7.647   8.267   0.733 -0.0583 -0.4380 -0.2533
    7MOL0     O  827   7.771   8.251   0.664 -0.1662  0.6670  0.0427
    7MOL0     C  828   7.779   8.143   0.576  0.0444 -0.7303  0.0103
    7MOL0     C  829   7.911   8.146   0.504  1.0057  0.4622  0.1997
    7MOL0     C  830   7.922   8.022   0.422  0.8056  0.5365  0.5753
    7MOL0     C  831   8.050   8.022   0.346 -0.3648  0.3952 -0.4112
    7MOL0     C  832   8.045   7.918   0.226 -0.2106  0.4950  0.3093
    7MOL0     C  833   8.185   7.920   0.149 -0.8918 -0.0178 -0.1508
    7MOL0     C  834   8.223   8.037   0.058 -0.1919 -0.1583  0.4319
    7MOL0     C  835   8.369   8.050   0.050 -0.9109  0.6852 -0.4562
    7MOL0    Cl  836   8.422   8.172   0.160 -0.1324 -0.0368 -0.2681
    7MOL0     C  837   7.626   8.385   0.805 -0.4925  0.1035  0.4415
    7MOL0     C  838   7.505   8.413   0.872  0.1173 -0.1741 -1.1998
    7MOL0     O  839   7.142   8.311   0.758 -0.2302 -1.2290  0.3211
    7MOL0     C  840   6.920   8.358   0.903  0.5527 -0.2551 -0.3448
    7MOL0     C  841   6.798   8.365   0.982  0.5956  0.5166 -0.3990
    7MOL0     N  842   6.181   8.684   1.398 -0.3917  0.1322  1.0823
    7MOL0     N  843   6.116   8.737   1.300  0.0252 -0.2113  0.0863
    7MOL0     C  844   5.131   8.872   1.368  1.7407  0.1079  0.0853
    7MOL0     C  845   4.995   8.880   1.394  0.5257  0.8968 -0.0497
    7MOL0     C  846   4.606   8.726   1.563  0.3015 -0.2321 -0.8118
    7MOL0     C  847   4.590   8.688   1.696 -0.4375  0.0685 -0.9141
    7MOL0     C  848   4.479   8.619   1.739 -0.0363  0.9066 -0.1769
    7MOL0     C  849   4.376   8.577   1.644  0.2253 -0.8649 -0.7386
    7MOL0     O  850   4.266   8.508   1.670 -0.9654  0.0569 -0.0820
    7MOL0     C  851   4.252   8.432   1.800  0.9438  0.6970  0.6731
    7MOL0     C  852   4.111   8.357   1.804 -0.4176 -0.4429 -1.5386
    7MOL0     C  853   4.104   8.253   1.695  0.2118 -0.2571 -0.7224
    7MOL0     C  854   4.056   8.115   1.746 -0.4761  0.2262  0.7185
    7MOL0     C  855   3.925   8.137   1.804 -0.7636 -0.1769  0.7055
    7MOL0     C  856   3.825   8.178   1.857  0.9789  0.5285  0.3186
    7MOL0     C  857   4.384   8.620   1.520  0.5256 -0.7329  0.3347
    7MOL0     C  858   4.497   8.693   1.480  0.4250  0.5045  1.3462
    7MOL0     H  859   5.000   8.875   1.733  0.9585  2.4512  0.1380
    7MOL0     H  860   5.256   8.849   1.681  0.5698 -0.8098 -0.7114
    7MOL0     H  861   5.415   8.865   1.242  0.0088 -0.0088 -1.4324
    7MOL0     H  862   5.330   8.718   1.280  0.0060  0.7999 -1.6077
    7MOL0     H  863   5.527   8.636   1.273 -3.4340  0.4895  0.9465
    7MOL0     H  864   5.564   8.713   1.434  2.4078  1.4325  0.3264
    7MOL0     H  865   5.755   8.795   1.307  0.4331  1.5864  0.8904
    7MOL0     H  866   5.637   8.918   1.295 -1.0480 -1.3101  2.2616
    7MOL0     H  867   5.554   8.820   1.074  0.7384 -0.7268 -1.8235
    7MOL0     H  868   5.709   8.903   1.092 -1.8751  0.9183 -1.1328
    7MOL0     H  869   5.723   8.719   0.941  1.8673 -2.6799 -1.7526
    7MOL0     H  870   5.642   8.611   1.051  1.3145 -0.8170 -0.6810
    7MOL0     H  871   5.868   8.553   1.029  0.8657 -1.6011  0.7650
    7MOL0     H  872   5.867   8.612   1.190 -1.3033  1.3596  0.2628
    7MOL0     H  873   5.922   8.792   0.951 -2.1212  1.3646  1.1001
    7MOL0     H  874   5.931   8.843   1.112 -1.1938  0.2202 -1.8296
    7MOL0     H  875   6.162   8.794   1.024  2.7555 -2.1300  2.5352
    7MOL0     H  876   6.107   8.627   0.993 -0.8498 -2.7665  1.6922
    7MOL0     H  877   6.258   8.486   1.141  1.4321 -1.5326  1.4948
    7MOL0     H  878   6.283   8.377   1.415 -1.4453  1.0079  0.8294
    7MOL0     H  879   6.330   8.509   1.528  0.5047  1.1816 -0.5193
    7MOL0     H  880   6.532   8.473   1.449  3.1609  1.7202 -1.7069
    7MOL0     H  881   6.496   8.557   1.310 -0.3734  0.8430  1.0067
    7MOL0     H  882   6.489   8.247   1.337 -3.7596 -0.5822 -0.4410
    7MOL0     H  883   6.379   8.312   1.227 -1.2108  0.2610  1.7063
    7MOL0     H  884   6.551   8.426   1.108  0.8720 -0.1277 -1.5724
    7MOL0     H  885   6.552   8.251   1.097 -0.4939  0.1568  0.2691
    7MOL0     H  886   6.929   8.327   1.290  0.0739  1.1389 -0.4005
    7MOL0     H  887   7.137   8.302   1.145  2.1472  0.1628 -4.2357
    7MOL0     H  888   7.344   8.117   0.804 -0.6154  0.1298 -0.6260
    7MOL0     H  889   7.534   8.075   0.680 -1.6442 -0.4113 -0.1541
    7MOL0     H  890   7.701   8.133   0.499  1.5225 -0.9073 -1.5147
    7MOL0     H  891   7.763   8.058   0.642  0.8945 -2.1694 -1.5659
    7MOL0     H  892   7.995   8.152   0.574  1.8078  1.1567 -0.7957
    7MOL0     H  893   7.890   8.230   0.436 -0.9470 -0.1981 -0.0687
    7MOL0     H  894   7.836   8.012   0.355  2.0707  3.0504 -1.5785
    7MOL0     H  895   7.928   7.932   0.484  1.8262  1.4054  1.8009
    7MOL0     H  896   8.062   8.128   0.323  3.1377  0.1607 -0.1495
    7MOL0     H  897   8.130   7.999   0.416  0.0348  2.1323 -0.2680
    7MOL0     H  898   7.960   7.930   0.159 -2.5584  1.6978  3.2362
    7MOL0     H  899   8.032   7.818   0.267  0.3021 -0.8880 -2.6863
    7MOL0     H  900   8.196   7.824   0.099 -2.9913 -0.0568 -0.6455
    7MOL0     H  901   8.261   7.918   0.227 -0.8353  0.1740 -0.2001
    7MOL0     H  902   8.163   8.008  -0.029 -2.6773 -0.2811  2.0781
    7MOL0     H  903   8.174   8.125   0.100  0.3544 -0.2317  1.2327
    7MOL0     H  904   8.409   8.083  -0.046 -0.7544 -0.4497 -0.7911
    7MOL0     H  905   8.403   7.947   0.065 -1.4208  0.7622  1.4558
    7MOL0     H  906   7.711   8.445   0.834 -1.1074  0.1619  2.2248
    7MOL0     H  907   7.506   8.504   0.930  3.4053 -0.1352 -1.1302
    7MOL0     H  908   6.913   8.366   0.795  2.3082  0.2760 -0.4461
    7MOL0     H  909   6.703   8.373   0.931 -0.1470  2.9485  1.1904
    7MOL0     H  910   5.158   8.873   1.262 -2.7198  1.1189 -1.2815
    7MOL0     H  911   4.932   8.863   1.307  0.8802 -0.4796 -0.0574
    7MOL0     H  912   4.669   8.712   1.767  0.2609 -1.0628 -1.2996
    7MOL0     H  913   4.468   8.582   1.841 -3.0505  3.9520  0.7838
    7MOL0     H  914   4.260   8.501   1.885  1.7152  0.8355  0.4990
    7MOL0     H  915   4.344   8.372   1.805  0.2787 -0.4075 -0.0467
    7MOL0     H  916   4.102   8.323   1.908 -2.7115  3.5841 -0.2128
    7MOL0     H  917   4.041   8.440   1.792  1.1719  0.8176 -2.3748
    7MOL0     H  918   4.207   8.246   1.660  1.3800  2.3139  1.8361
    7MOL0     H  919   4.038   8.293   1.618 -1.7420 -0.6793  0.6529
    7MOL0     H  920   4.065   8.040   1.667 -1.8197 -1.3777  2.0013
    7MOL0     H  921   4.125   8.067   1.817 -2.2437 -1.3055  1.4905
    7MOL0     H  922   3.750   8.215   1.924 -0.7097  1.6545 -2.0746
    7MOL0     H  923   4.303   8.585   1.456 -0.8555 -1.7230  2.4959
    7MOL0     H  924   4.502   8.706   1.373 -1.9081 -1.2079  0.9605
    8MOL0     O  925   5.430   1.692   0.372 -0.1210 -0.0714 -0.6956
    8MOL0     C  926   5.475   1.806   0.376 -0.1797 -0.8928 -0.8037
    8MOL0     O  927   5.608   1.838   0.388 -0.7553 -0.1450 -1.2160
    8MOL0     C  928   5.719   1.763   0.352 -0.5389 -0.1515 -0.5416
    8MOL0     C  929   5.833   1.791   0.414  0.1811 -0.1718  0.5609
    8MOL0     C  930   5.952   1.723   0.373  0.4968 -0.0563 -0.6950
    8MOL0     C  931   5.944   1.613   0.289 -0.6098 -0.6968 -0.4931
    8MOL0     O  932   6.054   1.539   0.272 -0.2231  0.1744 -0.2360
    8MOL0     C  933   6.162   1.606   0.202  1.3497  0.5946 -0.5214
    8MOL0     C  934   6.294   1.542   0.228 -0.4980 -0.1464 -0.4470
    8MOL0     C  935   6.373   1.618   0.348  0.1489  0.5185  0.1151
    8MOL0     C  936   6.485   1.534   0.405 -0.1573 -0.3869 -0.3208
    8MOL0     C  937   6.567   1.612   0.507 -0.5346 -0.5143  0.2973
    8MOL0     C  938   6.569   1.558   0.650 -0.2175  0.4740 -0.1798
    8MOL0     C  939   6.645   1.411   0.664  0.0408 -0.7640 -0.1999
    8MOL0     C  940   6.662   1.352   0.808  0.8853 -0.8404 -1.1687
    8MOL0     N  941   6.730   1.219   0.818  0.7808  0.2434 -0.2989
    8MOL0     C  942   6.854   1.194   0.882  0.5196  0.2953 -0.1336
    8MOL0     C  943   6.857   1.057   0.875  0.5318 -0.2023  0.1452
    8MOL0     C  944   6.973   0.975   0.917 -0.2437  0.2656  0.3994
    8MOL0     C  945   7.037   0.989   1.061  0.9366 -0.6578  0.1457
    8MOL0     C  946   7.175   0.925   1.072 -0.0539  0.7667 -0.0264
    8MOL0     C  947   7.234   0.929   1.211 -0.4641 -0.3349  0.0719
    8MOL0     O  948   7.159   0.848   1.302  0.2885  0.6232  0.1008
    8MOL0     C  949   7.226   0.752   1.369  0.3303  0.0598  0.2714
    8MOL0     C  950   7.318   0.667   1.310  1.0127  0.0392  0.7125
    8MOL0     C  951   7.383   0.568   1.392 -0.6906  0.0014  0.4305
    8MOL0     C  952   7.358   0.559   1.526 -0.7123  0.6021 -0.8019
    8MOL0     C  953   7.421   0.450   1.602  0.1678 -0.0613  0.4863
    8MOL0     O  954   7.492   0.357   1.535  0.2770  0.6288 -0.5853
    8MOL0     C  955   7.557   0.262   1.605  0.4293 -0.7865  0.0017
    8MOL0     C  956   7.690   0.252   1.568 -0.3554 -0.9506 -0.8737
    8MOL0     C  957   7.767   0.147   1.617  0.2877 -0.1518 -0.3472
    8MOL0     C  958   7.709   0.055   1.713 -0.3891  0.3196  0.2750
    8MOL0     O  959   7.787  -0.053   1.744  0.2007 -0.0280 -0.0393
    8MOL0     C  960   7.783  -0.091   1.879 -0.0949 -0.2347 -0.0435
    8MOL0     C  961   7.921  -0.059   1.938  0.4886 -0.9984 -0.4778
    8MOL0     C  962   7.937  -0.101   2.085  0.6473  0.0860  0.0046
    8MOL0     C  963   8.081  -0.086   2.144 -0.5511  0.2148  0.7214
    8MOL0     C  964   8.101   0.056   2.192 -0.3392 -0.7700 -0.0648
    8MOL0     C  965   8.226   0.082   2.277 -0.1633  0.0845  0.6011
    8MOL0     C  966   8.348   0.062   2.194 -0.3341  0.0930 -0.4696
    8MOL0     C  967   8.379   0.192   2.115 -0.2843 -0.6193  0.1748
    8MOL0    Cl  968   8.499   0.153   1.993  0.0480 -0.0261 -0.1231
    8MOL0     C  969   7.585   0.088   1.763 -0.4570  0.4025  0.0484
    8MOL0     C  970   7.511   0.189   1.708  0.2698 -0.5972 -0.2838
    8MOL0     O  971   7.417   0.460   1.723  0.4414  0.2150 -0.0802
    8MOL0     C  972   7.259   0.634   1.587 -0.1549 -0.5544  0.2804
    8MOL0     C  973   7.199   0.734   1.506 -0.5714 -0.6648 -0.5305
    8MOL0     N  974   6.759   1.013   0.783  0.1221 -0.1216  0.0738
    8MOL0     N  975   6.684   1.116   0.749  0.0734  0.1782 -0.6514
    8MOL0     C  976   5.822   1.572   0.243  0.2443 -0.4787 -0.0542
    8MOL0     C  977   5.708   1.645   0.271 -0.4225 -0.0827 -0.1081
    8MOL0     C  978   5.380   1.926   0.369 -0.4228 -1.6388  0.0020
    8MOL0     C  979   5.248   1.912   0.315  0.9729 -0.0157 -0.1687
    8MOL0     C  980   5.165   2.024   0.299  0.1048 -0.3355  0.3483
    8MOL0     C  981   5.204   2.157   0.330  0.2120 -0.1383 -0.9268
    8MOL0     O  982   5.119   2.269   0.305 -0.0747  0.2141 -0.2301
    8MOL0     C  983   5.161   2.402   0.339 -0.4852 -0.0078  0.3266
    8MOL0     C  984   5.031   2.493   0.317  0.6861 -0.2878  0.3709
    8MOL0     C  985   4.940   2.460   0.189 -0.8785 -0.6177 -0.7905
    8MOL0     C  986   4.848   2.575   0.152  0.3829 -0.3448  0.1671
    8MOL0     C  987   4.773   2.539   0.031 -0.8870  0.0359  0.4261
    8MOL0     C  988   4.700   2.508  -0.062  0.4028  0.2495 -0.6181
    8MOL0     C  989   5.337   2.170   0.389  1.0223  0.0819 -0.1565
    8MOL0     C  990   5.417   2.056   0.412  0.0846  0.7710 -0.3737
    8MOL0     H  991   5.850   1.886   0.464  0.7483  0.0695 -0.0731
    8MOL0     H  992   6.043   1.755   0.422 -0.1223  1.1105 -0.2557
    8MOL0     H  993   6.170   1.709   0.236 -0.0966  0.4801  0.2519
    8MOL0     H  994   6.141   1.617   0.095  0.1322  0.2185 -0.3373
    8MOL0     H  995   6.356   1.550   0.139  0.2965 -0.5832  0.0593
    8MOL0     H  996   6.287   1.437   0.257 -0.9776  0.0894  0.3371
    8MOL0     H  997   6.304   1.665   0.418  0.7945  0.3214  0.8971
    8MOL0     H  998   6.418   1.702   0.293 -2.0342  2.3054  0.8962
    8MOL0     H  999   6.443   1.442   0.448  0.6737 -0.5176  0.2359
    8MOL0     H 1000   6.562   1.500   0.335  1.6505  0.2903  1.2427
    8MOL0     H 1001   6.514   1.708   0.513  0.5034  0.0806  0.1887
    8MOL0     H 1002   6.666   1.634   0.466 -0.9031 -0.6222 -0.6635
    8MOL0     H 1003   6.477   1.550   0.708 -0.4895  1.9592 -0.3829
    8MOL0     H 1004   6.632   1.630   0.703  0.3839 -0.2299  0.0839
    8MOL0     H 1005   6.593   1.337   0.603  1.1163 -1.5919 -0.1208
    8MOL0     H 1006   6.749   1.421   0.633 -0.5374 -0.1414 -2.0748
    8MOL0     H 1007   6.563   1.353   0.855 -0.7437 -2.5273 -4.2134
    8MOL0     H 1008   6.709   1.417   0.881 -0.7437 -0.1207 -0.7049
    8MOL0     H 1009   6.919   1.262   0.937  1.2473  1.0875 -1.8918
    8MOL0     H 1010   7.049   0.999   0.842  0.1749 -1.8450  0.0960
    8MOL0     H 1011   6.934   0.873   0.915  2.4737 -0.9738  3.0996
    8MOL0     H 1012   6.977   0.944   1.141  0.1968  0.8058  0.4617
    8MOL0     H 1013   7.047   1.096   1.083  0.3907 -0.6440  0.3422
    8MOL0     H 1014   7.177   0.820   1.042  2.0100  0.9880 -0.8729
    8MOL0     H 1015   7.241   0.968   0.996  0.7825 -2.1430 -1.0892
    8MOL0     H 1016   7.249   1.031   1.246  1.2773 -1.1731  2.0642
    8MOL0     H 1017   7.333   0.887   1.189 -0.9979 -1.0587 -1.0547
    8MOL0     H 1018   7.331   0.664   1.202 -0.5068 -2.8488  0.5099
    8MOL0     H 1019   7.449   0.497   1.345 -0.8420  0.4201 -0.4481
    8MOL0     H 1020   7.710   0.317   1.483 -1.3020  0.7616  0.1396
    8MOL0     H 1021   7.872   0.136   1.591  0.6537  0.7977  0.6582
    8MOL0     H 1022   7.764  -0.199   1.884 -0.8529 -0.4114 -3.6548
    8MOL0     H 1023   7.711  -0.035   1.939  0.3927  0.3234  0.0289
    8MOL0     H 1024   7.939   0.049   1.934  0.5734 -1.0293 -1.0847
    8MOL0     H 1025   8.007  -0.100   1.882  2.2243  1.9527 -0.1838
    8MOL0     H 1026   7.913  -0.206   2.099  3.6031 -0.8676 -1.2299
    8MOL0     H 1027   7.867  -0.038   2.141 -0.7322 -1.8546  0.5535
    8MOL0     H 1028   8.097  -0.162   2.222 -0.1437 -0.5963 -0.1298
    8MOL0     H 1029   8.152  -0.114   2.066  3.0872  1.4489  3.3429
    8MOL0     H 1030   8.023   0.072   2.267  2.0133  3.5882  1.8522
    8MOL0     H 1031   8.096   0.126   2.109 -0.6683 -3.8173 -2.8258
    8MOL0     H 1032   8.224   0.008   2.358 -2.1761 -2.5787 -1.6668
    8MOL0     H 1033   8.223   0.188   2.302  1.0786  0.2054  0.2984
    8MOL0     H 1034   8.432   0.035   2.258 -1.1937  1.2186  1.1934
    8MOL0     H 1035   8.338  -0.013   2.115  1.5004 -2.0292  1.1791
    8MOL0     H 1036   8.409   0.282   2.171 -0.6153 -0.4932  0.1509
    8MOL0     H 1037   8.289   0.228   2.065 -0.6593 -0.2405  1.1005
    8MOL0     H 1038   7.540   0.018   1.832 -1.8789 -0.2103 -1.4431
    8MOL0     H 1039   7.408   0.199   1.740 -0.4607 -3.4253 -1.5080
    8MOL0     H 1040   7.218   0.606   1.684 -2.0441 -2.2823 -0.9275
    8MOL0     H 1041   7.142   0.807   1.561 -0.8722 -0.2455 -1.3822
    8MOL0     H 1042   5.810   1.481   0.185 -0.9380 -0.9702  0.9043
    8MOL0     H 1043   5.615   1.598   0.238 -1.3978  2.2839 -0.9465
    8MOL0     H 1044   5.208   1.815   0.287 -4.3511  1.2270  1.8787
    8MOL0     H 1045   5.064   2.002   0.266  1.6546 -5.9990 -1.7450
    8MOL0     H 1046   5.240   2.425   0.266 -0.7150  2.7723  0.8532
    8MOL0     H 1047   5.198   2.416   0.441 -1.3565  0.9963  0.5251
    8MOL0     H 1048   4.957   2.474   0.395 -1.6713 -3.9825 -2.4178
    8MOL0     H 1049   5.061   2.598   0.323  0.1773 -0.1512  0.5338
    8MOL0     H 1050   4.874   2.380   0.225 -1.4149  0.7496  1.4467
    8MOL0     H 1051   5.010   2.442   0.107  0.0393 -2.2203  0.2767
    8MOL0     H 1052   4.781   2.599   0.235 -0.6482 -1.5712 -0.2738
    8MOL0     H 1053   4.914   2.658   0.126  0.7063 -0.6990 -0.1566
    8MOL0     H 1054   4.629   2.493  -0.141 -0.7695  3.5786 -0.3470
    8MOL0     H 1055   5.358   2.274   0.411  0.6081  0.3259 -0.8835
    8MOL0     H 1056   5.519   2.070   0.448  1.4604  1.0096 -3.8882
    9MOL0     O 1057   7.731   3.102   8.360 -0.4487 -0.0591 -0.7119
    9MOL0     C 1058   7.728   3.222   8.351  1.1071 -0.5807 -0.6819
    9MOL0     O 1059   7.836   3.298   8.307 -0.5829  0.0690 -1.0251
    9MOL0     C 1060   7.954   3.238   8.275 -1.4183 -0.2584  1.0567
    9MOL0     C 1061   7.977   3.162   8.150 -0.1289 -0.5229  0.6905
    9MOL0     C 1062   8.108   3.137   8.103  0.0572  0.2403 -0.1106
    9MOL0     C 1063   8.220   3.193   8.161 -0.2219 -0.7251  0.5042
    9MOL0     O 1064   8.332   3.141   8.103 -0.2999  0.0684  0.3348
    9MOL0     C 1065   8.446   3.180   8.159 -0.0631 -1.2498 -0.5053
    9MOL0     C 1066   8.546   3.151   8.050 -0.1451 -0.2527 -1.0194
    9MOL0     C 1067   8.681   3.194   8.072  0.6363 -0.0911  0.4420
    9MOL0     C 1068   8.742   3.171   8.209 -0.3592  0.5650 -0.9484
    9MOL0     C 1069   8.888   3.186   8.197 -0.6863 -1.0338  0.0876
    9MOL0     C 1070   8.956   3.177   8.331 -0.1291 -0.8022  1.0995
    9MOL0     C 1071   8.933   3.297   8.427 -1.2798  0.0858  0.4710
    9MOL0     C 1072   8.994   3.426   8.381 -0.4676  0.0559 -0.6517
    9MOL0     N 1073   9.132   3.412   8.340 -0.7038 -0.8182 -0.7489
    9MOL0     C 1074   9.253   3.436   8.403 -1.0951 -0.5135  0.2134
    9MOL0     C 1075   9.347   3.411   8.311 -0.2213 -0.4193  0.7224
    9MOL0     C 1076   9.500   3.416   8.332 -0.2705 -0.8081 -0.4478
    9MOL0     C 1077   9.543   3.349   8.470  0.9157 -0.9467  0.8017
    9MOL0     C 1078   9.513   3.204   8.474  0.4764  0.0444 -0.2509
    9MOL0     C 1079   9.607   3.145   8.578  0.7968 -0.6195 -0.3347
    9MOL0     O 1080   9.599   3.010   8.599  0.2207 -0.1927 -0.3481
    9MOL0     C 1081   9.551   2.962   8.720 -0.7299  0.2309  0.2453
    9MOL0     C 1082   9.467   3.035   8.805  0.9313  0.2373 -0.3635
    9MOL0     C 1083   9.441   2.993   8.938  0.6536  0.9300 -0.7745
    9MOL0     C 1084   9.498   2.876   8.983 -0.5258 -0.6216 -0.1303
    9MOL0     C 1085   9.468   2.819   9.118 -0.8448  0.5260  0.2057
    9MOL0     O 1086   9.559   2.726   9.162 -0.2847  0.8615 -0.6448
    9MOL0     C 1087   9.524   2.667   9.281 -1.0005  0.1948  0.5236
    9MOL0     C 1088   9.510   2.731   9.410 -0.2381 -0.8869  0.5913
    9MOL0     C 1089   9.467   2.657   9.520 -0.0426  0.6024 -0.1536
    9MOL0     C 1090   9.428   2.524   9.501 -0.6348  0.1372 -0.5684
    9MOL0     O 1091   9.379   2.443   9.600 -0.0492 -0.9169  0.2726
    9MOL0     C 1092   9.265   2.501   9.677  0.7337 -0.3484  0.8318
    9MOL0     C 1093   9.141   2.519   9.591 -0.9149 -0.1666  0.0046
    9MOL0     C 1094   9.023   2.532   9.689 -0.4412  0.1938  0.2415
    9MOL0     C 1095   8.927   2.415   9.670  0.1245  0.0141  0.2228
    9MOL0     C 1096   8.820   2.429   9.778  0.2776  0.0776  0.8689
    9MOL0     C 1097   8.740   2.558   9.745  0.5667  0.0759 -0.4855
    9MOL0     C 1098   8.621   2.564   9.838  0.4394 -0.3704  1.2217
    9MOL0     C 1099   8.506   2.654   9.778 -0.5487 -0.4714 -0.6004
    9MOL0    Cl 1100   8.371   2.648   9.902 -0.1095 -0.3308  0.2643
    9MOL0     C 1101   9.446   2.463   9.381  0.1381  0.0911 -0.9541
    9MOL0     C 1102   9.491   2.530   9.272 -0.0480  0.2368 -0.8081
    9MOL0     O 1103   9.370   2.850   9.178  0.4199  0.1519  0.3650
    9MOL0     C 1104   9.584   2.804   8.905  1.0034  0.2154 -1.1684
    9MOL0     C 1105   9.612   2.855   8.780  0.3492 -0.7581  0.7988
    9MOL0     N 1106   9.288   3.360   8.199  0.5328  0.0560 -0.2995
    9MOL0     N 1107   9.159   3.380   8.211 -0.1427  1.2422 -0.4547
    9MOL0     C 1108   8.198   3.268   8.280 -0.0069 -0.0179  0.0244
    9MOL0     C 1109   8.073   3.289   8.335  0.8214 -0.7870  0.2813
    9MOL0     C 1110   7.601   3.286   8.384  0.0295 -0.1656 -0.6989
    9MOL0     C 1111   7.480   3.219   8.382 -0.1801 -0.9232 -0.1532
    9MOL0     C 1112   7.362   3.292   8.400 -0.9202  0.6709 -0.0070
    9MOL0     C 1113   7.366   3.425   8.436 -0.2863  0.1207  0.1001
    9MOL0     O 1114   7.253   3.475   8.490 -0.0109 -0.4141 -1.0413
    9MOL0     C 1115   7.225   3.615   8.479 -0.3074 -0.0252 -0.8551
    9MOL0     C 1116   7.077   3.604   8.491  0.3864  0.2996 -0.5801
    9MOL0     C 1117   7.005   3.745   8.482  0.2177  0.0079 -0.5407
    9MOL0     C 1118   6.878   3.745   8.569  0.0970 -0.4983  0.1092
    9MOL0     C 1119   6.858   3.883   8.611  0.1538  0.1113 -0.5116
    9MOL0     C 1120   6.859   3.988   8.669  0.4254  0.1693 -1.4201
    9MOL0     C 1121   7.485   3.499   8.432  0.6848  1.1763  0.2909
    9MOL0     C 1122   7.604   3.427   8.416 -0.1926 -0.0677  0.7927
    9MOL0     H 1123   7.899   3.128   8.083  0.5812  0.2492 -0.5615
    9MOL0     H 1124   8.116   3.067   8.020  1.4137  2.9232 -2.3965
    9MOL0     H 1125   8.463   3.130   8.254  1.9487 -1.0195 -0.7057
    9MOL0     H 1126   8.454   3.289   8.159  1.1603 -1.3304 -0.9811
    9MOL0     H 1127   8.508   3.192   7.956  0.6556  2.2247 -0.3319
    9MOL0     H 1128   8.554   3.043   8.035 -1.1705 -0.0891 -3.0648
    9MOL0     H 1129   8.678   3.301   8.052  0.3528 -0.3061 -0.7047
    9MOL0     H 1130   8.732   3.142   7.990 -3.0541 -0.3418 -1.9066
    9MOL0     H 1131   8.694   3.232   8.286 -3.5372 -1.0120 -1.5046
    9MOL0     H 1132   8.723   3.071   8.249 -1.3318  1.0461 -0.1488
    9MOL0     H 1133   8.898   3.286   8.153  0.0364 -1.5941 -1.0472
    9MOL0     H 1134   8.929   3.105   8.136  2.4047 -1.5755  2.6257
    9MOL0     H 1135   9.060   3.168   8.299  0.4218  0.5519  2.3825
    9MOL0     H 1136   8.929   3.085   8.385 -0.4670 -2.3269 -1.5111
    9MOL0     H 1137   8.825   3.312   8.443 -0.9902 -0.0106  2.8780
    9MOL0     H 1138   8.986   3.271   8.519 -1.7469  0.2693  0.7969
    9MOL0     H 1139   8.988   3.504   8.457 -1.6130 -0.6135 -0.0370
    9MOL0     H 1140   8.935   3.457   8.294 -0.6388 -2.0572 -1.3480
    9MOL0     H 1141   9.279   3.472   8.502  3.5357 -0.5983 -0.7159
    9MOL0     H 1142   9.522   3.524   8.334 -0.2144 -0.6675  4.6438
    9MOL0     H 1143   9.554   3.373   8.247  0.1233  1.2990 -1.3556
    9MOL0     H 1144   9.495   3.401   8.553 -0.3257 -0.2274 -0.3248
    9MOL0     H 1145   9.649   3.376   8.483  0.9443 -0.3090 -0.5747
    9MOL0     H 1146   9.409   3.175   8.493 -0.2467  0.9600 -2.4798
    9MOL0     H 1147   9.534   3.157   8.378 -0.0120  0.4871 -0.5795
    9MOL0     H 1148   9.608   3.194   8.676 -0.8114 -0.7718 -0.2137
    9MOL0     H 1149   9.708   3.154   8.537  0.8703  1.1932  0.1644
    9MOL0     H 1150   9.411   3.123   8.774 -0.6781 -0.0559  1.5615
    9MOL0     H 1151   9.377   3.051   9.003  0.8517 -0.3474  0.6134
    9MOL0     H 1152   9.514   2.839   9.419 -1.0545 -0.9024  1.2051
    9MOL0     H 1153   9.455   2.698   9.620  0.3073 -1.6048  0.8719
    9MOL0     H 1154   9.291   2.584   9.743  3.0072  0.1555 -0.5705
    9MOL0     H 1155   9.233   2.413   9.734 -1.8150 -1.7435 -2.4535
    9MOL0     H 1156   9.144   2.440   9.515  0.2266  0.4145 -0.5853
    9MOL0     H 1157   9.165   2.610   9.535  0.6591 -0.8591 -0.5268
    9MOL0     H 1158   8.971   2.620   9.648 -2.1548 -0.6984  0.4080
    9MOL0     H 1159   9.050   2.539   9.794 -3.9079  1.0164  1.2211
    9MOL0     H 1160   8.883   2.408   9.570  0.4767  0.0442  0.0677
    9MOL0     H 1161   8.982   2.322   9.680  1.4320  0.4896 -2.0116
    9MOL0     H 1162   8.872   2.427   9.874  1.6218 -1.8503  0.1752
    9MOL0     H 1163   8.759   2.338   9.780  0.8558 -0.3313  0.3150
    9MOL0     H 1164   8.695   2.549   9.646  0.4560  2.8607 -0.7557
    9MOL0     H 1165   8.803   2.647   9.751 -0.6175  0.8174  2.6473
    9MOL0     H 1166   8.577   2.464   9.844  0.4985 -0.5796 -1.1844
    9MOL0     H 1167   8.657   2.598   9.936  3.5249  0.0651  0.0424
    9MOL0     H 1168   8.468   2.615   9.683  1.4704  2.0154 -2.5859
    9MOL0     H 1169   8.543   2.755   9.759  0.5467 -0.8536 -0.5420
    9MOL0     H 1170   9.434   2.355   9.390 -1.5203  0.3505  0.5244
    9MOL0     H 1171   9.538   2.480   9.189 -2.4859  0.8551 -2.6829
    9MOL0     H 1172   9.641   2.717   8.935  0.5312  0.5809  0.9713
    9MOL0     H 1173   9.686   2.810   8.715 -0.1801  0.0073 -0.3509
    9MOL0     H 1174   8.287   3.310   8.327  0.7290 -1.1404 -0.3195
    9MOL0     H 1175   8.063   3.341   8.429 -2.8507 -0.9055  0.1107
    9MOL0     H 1176   7.478   3.114   8.351  2.4041 -1.8802  2.5256
    9MOL0     H 1177   7.263   3.248   8.395 -1.3924  1.5804  0.8134
    9MOL0     H 1178   7.272   3.657   8.390  1.9930 -3.5784 -1.5502
    9MOL0     H 1179   7.264   3.671   8.565 -2.3329 -0.7717  0.6346
    9MOL0     H 1180   7.030   3.548   8.410  0.0546  0.0498 -0.2179
    9MOL0     H 1181   7.048   3.552   8.583 -1.6055  2.9327  0.4312
    9MOL0     H 1182   6.967   3.766   8.381  0.2568  2.0613 -0.1712
    9MOL0     H 1183   7.066   3.833   8.505 -2.5684  1.2603  2.9054
    9MOL0     H 1184   6.788   3.706   8.521 -1.5608  1.6463  1.2944
    9MOL0     H 1185   6.903   3.680   8.654 -0.5553 -0.1132  0.6042
    9MOL0     H 1186   6.880   4.077   8.725  3.8280 -0.0609 -2.1191
    9MOL0     H 1187   7.498   3.605   8.446  4.3075  0.8069  0.7290
    9MOL0     H 1188   7.699   3.479   8.409 -1.1127  1.5758 -0.1235
   10MOL0     O 1189   4.389   4.282   4.211  0.0410  0.4449  0.3182
   10MOL0     C 1190   4.361   4.367   4.292  0.0310 -0.8417 -0.0376
   10MOL0     O 1191   4.239   4.390   4.347  0.1602  0.4703  0.4973
   10MOL0     C 1192   4.131   4.354   4.270 -0.0964 -0.1283 -0.0528
   10MOL0     C 1193   4.016   4.315   4.328  1.0021 -0.0085 -1.6734
   10MOL0     C 1194   3.903   4.284   4.255 -0.3906  1.0323  0.6667
   10MOL0     C 1195   3.903   4.293   4.117  1.0716 -0.2141  0.0698
   10MOL0     O 1196   3.789   4.274   4.041  0.0370 -0.5353 -0.0424
   10MOL0     C 1197   3.654   4.265   4.093 -0.4319  0.3549  0.1218
   10MOL0     C 1198   3.557   4.233   3.987  0.9122 -0.2335  0.2580
   10MOL0     C 1199   3.414   4.206   4.053  0.7739 -0.3591  0.1212
   10MOL0     C 1200   3.301   4.183   3.951 -0.1457  0.1314  0.5698
   10MOL0     C 1201   3.234   4.042   3.962  0.5686  0.0669 -0.2124
   10MOL0     C 1202   3.154   4.010   3.824  0.3456 -0.5227  0.3563
   10MOL0     C 1203   3.097   3.874   3.819 -0.8288  0.6026  0.3004
   10MOL0     C 1204   3.013   3.843   3.691 -0.5987 -0.6736 -1.0229
   10MOL0     N 1205   2.877   3.804   3.728  0.0611  0.0634 -0.9452
   10MOL0     C 1206   2.789   3.876   3.807  0.5289 -0.1641  0.1434
   10MOL0     C 1207   2.666   3.820   3.805 -0.6870  0.2476 -0.5490
   10MOL0     C 1208   2.533   3.863   3.868 -0.2803 -0.2417  0.3833
   10MOL0     C 1209   2.452   3.766   3.968 -0.2316  0.5210  0.4332
   10MOL0     C 1210   2.535   3.761   4.100 -0.6316  0.1161  0.2228
   10MOL0     C 1211   2.491   3.650   4.204  0.6343  0.1413  0.3602
   10MOL0     O 1212   2.357   3.682   4.259 -1.4037 -0.1688 -0.5464
   10MOL0     C 1213   2.244   3.657   4.189  0.0414  0.5178  0.3887
   10MOL0     C 1214   2.246   3.533   4.116  0.7312 -0.2552  0.9780
   10MOL0     C 1215   2.150   3.518   4.017 -0.4349 -0.9550 -1.2534
   10MOL0     C 1216   2.050   3.614   4.002 -0.3648  0.0777 -0.4366
   10MOL0     C 1217   1.936   3.591   3.909 -0.0946  0.2568  0.3290
   10MOL0     O 1218   1.940   3.466   3.847 -0.6788 -0.7922  0.2783
   10MOL0     C 1219   1.845   3.429   3.752 -0.5188  0.2861 -0.0007
   10MOL0     C 1220   1.763   3.310   3.763  0.1749 -0.0788  0.2698
   10MOL0     C 1221   1.672   3.265   3.663 -0.7746  0.7519  0.2860
   10MOL0     C 1222   1.658   3.351   3.553 -0.0382 -0.4555 -0.1008
   10MOL0     O 1223   1.552   3.318   3.465 -0.4025  0.2486 -0.0032
   10MOL0     C 1224   1.529   3.376   3.341  0.7573  0.1641  0.6885
   10MOL0     C 1225   1.408   3.305   3.292 -0.2094 -0.3991 -0.3248
   10MOL0     C 1226   1.418   3.160   3.257 -0.1869 -0.2150 -0.6450
   10MOL0     C 1227   1.277   3.109   3.234  0.5765  0.0641 -0.8490
   10MOL0     C 1228   1.267   2.961   3.216 -0.1381 -0.0956  0.5232
   10MOL0     C 1229   1.127   2.899   3.204 -0.1414  0.0240 -0.1957
   10MOL0     C 1230   1.031   2.958   3.097 -0.7260  0.1865  0.0522
   10MOL0     C 1231   0.897   2.890   3.085  0.0753 -0.1755 -0.1138
   10MOL0    Cl 1232   0.929   2.731   2.987  0.2986 -0.1397  0.0142
   10MOL0     C 1233   1.740   3.463   3.541 -0.4199 -0.6321  0.5610
   10MOL0     C 1234   1.833   3.505   3.634 -0.1907  0.0016  0.6639
   10MOL0     O 1235   1.859   3.682   3.889  0.6355  0.4666  0.3695
   10MOL0     C 1236   2.045   3.727   4.085 -0.3418 -0.1082 -0.1415
   10MOL0     C 1237   2.147   3.751   4.171  0.3857 -0.7156 -0.0424
   10MOL0     N 1238   2.680   3.706   3.724 -1.1771 -0.0846 -0.2029
   10MOL0     N 1239   2.803   3.706   3.673  0.6392 -0.5523 -1.1442
   10MOL0     C 1240   4.022   4.315   4.050 -0.6798 -1.1326  0.0837
   10MOL0     C 1241   4.135   4.348   4.127  0.1092 -0.1915 -0.4525
   10MOL0     C 1242   4.465   4.466   4.333  0.8619  0.0247 -0.2137
   10MOL0     C 1243   4.435   4.586   4.407 -0.6090  1.2601 -0.7779
   10MOL0     C 1244   4.526   4.688   4.438 -1.0730  0.0174  0.1349
   10MOL0     C 1245   4.661   4.656   4.416  0.3733  0.1737 -0.4169
   10MOL0     O 1246   4.749   4.751   4.471  0.2795  0.2662  0.0270
   10MOL0     C 1247   4.893   4.742   4.464 -0.2598 -0.1319  0.0170
   10MOL0     C 1248   4.946   4.832   4.355  0.0778 -0.5325 -0.9687
   10MOL0     C 1249   4.972   4.976   4.404  0.4091  0.0294 -0.0227
   10MOL0     C 1250   4.841   5.048   4.385 -0.0342 -0.5448  0.3641
   10MOL0     C 1251   4.826   5.092   4.244 -0.1204  0.4676  0.4526
   10MOL0     C 1252   4.810   5.101   4.123  0.2505 -0.5235 -0.3438
   10MOL0     C 1253   4.693   4.538   4.357 -0.1341 -0.0445  0.9475
   10MOL0     C 1254   4.600   4.444   4.309  0.0765  0.1105 -0.6548
   10MOL0     H 1255   4.004   4.298   4.435 -0.9925 -0.1604 -1.8701
   10MOL0     H 1256   3.808   4.254   4.299  1.0487  0.2396  3.4587
   10MOL0     H 1257   3.622   4.355   4.146 -2.5492 -0.6665  0.6927
   10MOL0     H 1258   3.655   4.184   4.166  0.0811 -1.3870 -1.7208
   10MOL0     H 1259   3.590   4.145   3.931  1.2601  0.0310  0.0478
   10MOL0     H 1260   3.544   4.302   3.903  0.2746 -3.9665 -3.0340
   10MOL0     H 1261   3.373   4.291   4.107  0.5576 -1.1565  1.2559
   10MOL0     H 1262   3.415   4.116   4.116 -0.7903 -0.6764 -0.2694
   10MOL0     H 1263   3.222   4.257   3.961 -0.1677 -0.1045  2.5944
   10MOL0     H 1264   3.341   4.202   3.851 -0.9173 -1.4024 -0.0712
   10MOL0     H 1265   3.168   4.038   4.049 -2.9321  1.4229 -2.5859
   10MOL0     H 1266   3.314   3.968   3.974  1.7501  0.7690 -2.8387
   10MOL0     H 1267   3.211   4.041   3.736  0.8775  0.0132  0.8826
   10MOL0     H 1268   3.060   4.065   3.828 -0.9463 -2.6629  2.2120
   10MOL0     H 1269   3.174   3.802   3.848 -0.3616 -0.3400 -2.8785
   10MOL0     H 1270   3.028   3.867   3.903 -0.9589  1.2447  0.2522
   10MOL0     H 1271   3.061   3.770   3.624  0.5405  0.8802 -1.9837
   10MOL0     H 1272   2.997   3.932   3.629  0.7023 -0.1719 -0.6591
   10MOL0     H 1273   2.807   3.975   3.848  1.0273  0.8324 -2.2972
   10MOL0     H 1274   2.469   3.890   3.783 -0.9200  2.0624  1.5214
   10MOL0     H 1275   2.542   3.959   3.919 -0.5866  0.7373 -1.3079
   10MOL0     H 1276   2.427   3.667   3.928  0.6490  0.8582 -1.0147
   10MOL0     H 1277   2.355   3.816   3.977 -0.4409  1.5264 -4.6837
   10MOL0     H 1278   2.634   3.724   4.069 -1.3134  0.3748 -2.5662
   10MOL0     H 1279   2.545   3.864   4.136 -0.2260 -0.8228  3.0520
   10MOL0     H 1280   2.558   3.656   4.291  1.1185  1.6742 -0.0729
   10MOL0     H 1281   2.506   3.552   4.158 -0.9188 -0.1960  0.5417
   10MOL0     H 1282   2.322   3.457   4.127  0.1193 -0.8521  1.2040
   10MOL0     H 1283   2.155   3.434   3.949  1.1991 -1.1738 -0.9082
   10MOL0     H 1284   1.769   3.265   3.862 -1.5923  1.0603  0.9619
   10MOL0     H 1285   1.617   3.175   3.687 -1.2033  1.0713  0.5235
   10MOL0     H 1286   1.609   3.369   3.267 -0.2841  0.5696 -0.5281
   10MOL0     H 1287   1.496   3.479   3.359 -1.3179 -0.5046  1.0477
   10MOL0     H 1288   1.377   3.347   3.196 -0.0682 -2.6551 -1.4214
   10MOL0     H 1289   1.328   3.324   3.364  0.5711  1.8509  0.0284
   10MOL0     H 1290   1.473   3.109   3.336  1.5122  1.1225 -0.9074
   10MOL0     H 1291   1.487   3.138   3.176  2.4468 -2.4013  1.9851
   10MOL0     H 1292   1.207   3.125   3.316 -2.0639 -0.5731 -2.8265
   10MOL0     H 1293   1.211   3.163   3.165 -2.4275 -2.2494 -0.0424
   10MOL0     H 1294   1.325   2.903   3.289 -1.4131  0.0117  1.6601
   10MOL0     H 1295   1.309   2.937   3.118 -0.9557 -3.6033  0.9206
   10MOL0     H 1296   1.079   2.891   3.302 -2.6965  0.2274 -1.3315
   10MOL0     H 1297   1.160   2.799   3.177  0.3264  0.2365 -0.4216
   10MOL0     H 1298   1.012   3.061   3.130 -0.7082 -0.1546  1.1527
   10MOL0     H 1299   1.084   2.952   3.001  0.2328 -1.4866  0.6402
   10MOL0     H 1300   0.830   2.959   3.033  0.1145 -0.5817 -0.7151
   10MOL0     H 1301   0.849   2.870   3.181  1.1803  2.7033  1.1390
   10MOL0     H 1302   1.745   3.516   3.446  0.2562 -1.7153 -0.0360
   10MOL0     H 1303   1.889   3.595   3.608 -3.0933  2.6850  2.9558
   10MOL0     H 1304   1.962   3.797   4.078  0.4921  1.3085  2.5989
   10MOL0     H 1305   2.152   3.830   4.246  2.9389 -2.0475  1.3374
   10MOL0     H 1306   4.025   4.310   3.942  2.5615 -0.7616  0.0377
   10MOL0     H 1307   4.223   4.365   4.066  0.6281 -1.4695 -0.1046
   10MOL0     H 1308   4.328   4.602   4.420 -0.6026 -0.2692  2.1741
   10MOL0     H 1309   4.509   4.791   4.468  1.8922  0.6259  0.0504
   10MOL0     H 1310   4.921   4.637   4.452  0.1482  0.0602 -0.8091
   10MOL0     H 1311   4.937   4.775   4.558  3.5227 -3.0792 -0.4599
   10MOL0     H 1312   5.043   4.796   4.319  0.7454  0.6700 -0.4388
   10MOL0     H 1313   4.886   4.823   4.264  1.2289  1.6439 -2.0416
   10MOL0     H 1314   5.057   5.026   4.355 -0.1866  0.8780 -0.2033
   10MOL0     H 1315   5.005   4.982   4.508  3.0332 -1.5321 -0.6524
   10MOL0     H 1316   4.753   4.985   4.404 -2.1525  1.9761 -0.4825
   10MOL0     H 1317   4.845   5.122   4.466  0.9992 -1.4584  1.1841
   10MOL0     H 1318   4.810   5.091   4.016 -1.0224 -1.0022 -0.3180
   10MOL0     H 1319   4.799   4.531   4.336  0.4093  1.3472  2.9634
   10MOL0     H 1320   4.628   4.351   4.259  0.8476 -0.7968  1.3512
   11MOL0     O 1321   2.651  10.464   1.877  0.5082  0.3874 -0.1508
   11MOL0     C 1322   2.590  10.525   1.794 -0.5083 -0.3611 -0.0388
   11MOL0     O 1323   2.461  10.510   1.757 -0.1416 -0.0459 -0.4677
   11MOL0     C 1324   2.385  10.411   1.819  0.0150 -1.0110  0.5850
   11MOL0     C 1325   2.349  10.299   1.738 -0.6190  0.5347  0.1028
   11MOL0     C 1326   2.260  10.198   1.788  0.0142  0.1216  0.5196
   11MOL0     C 1327   2.193  10.223   1.911  0.0425  0.2401  0.4015
   11MOL0     O 1328   2.087  10.134   1.939  0.3803 -0.5052  0.6197
   11MOL0     C 1329   1.972  10.205   1.999 -0.1866  0.0380 -0.8770
   11MOL0     C 1330   1.862  10.107   2.025 -0.5895 -0.3016  0.2216
   11MOL0     C 1331   1.744  10.184   2.088  0.7710 -0.0279 -0.5303
   11MOL0     C 1332   1.680  10.277   1.983 -0.9846  0.8722  0.8826
   11MOL0     C 1333   1.535  10.301   1.991 -0.3214  0.0148 -0.0829
   11MOL0     C 1334   1.491  10.346   2.133  0.6205 -0.4427  0.0948
   11MOL0     C 1335   1.337  10.357   2.141 -1.6031 -0.1799 -0.1427
   11MOL0     C 1336   1.281  10.455   2.240 -0.2447  0.5428 -0.5368
   11MOL0     N 1337   1.136  10.433   2.247  0.2224  0.6613  0.1874
   11MOL0     C 1338   1.043  10.490   2.164 -0.3150  0.6201 -0.6349
   11MOL0     C 1339   0.928  10.430   2.204  0.7141 -1.1355 -0.6392
   11MOL0     C 1340   0.805  10.467   2.123 -0.1977 -0.3083  0.4442
   11MOL0     C 1341   0.675  10.396   2.163 -0.6664  0.2342  0.3888
   11MOL0     C 1342   0.627  10.440   2.292  0.1327  0.2352 -0.7269
   11MOL0     C 1343   0.499  10.360   2.346 -0.2647 -0.6296 -0.2094
   11MOL0     O 1344   0.420  10.321   2.238  0.2649 -1.0851  0.4787
   11MOL0     C 1345   0.306  10.245   2.270 -0.3563 -0.9487 -0.5132
   11MOL0     C 1346   0.231  10.200   2.156 -0.4452  0.1689  0.0025
   11MOL0     C 1347   0.125  10.114   2.181 -0.2327  1.4896 -0.1879
   11MOL0     C 1348   0.081  10.078   2.302 -0.3435  0.5950 -0.2648
   11MOL0     C 1349  -0.043  10.003   2.336  0.1086 -0.2464 -0.6021
   11MOL0     O 1350  -0.107   9.952   2.228 -0.5069 -0.3444  0.2692
   11MOL0     C 1351  -0.242   9.928   2.224  0.9939 -0.1088  1.2101
   11MOL0     C 1352  -0.316   9.847   2.321 -1.3930  0.0973 -0.3828
   11MOL0     C 1353  -0.452   9.835   2.307  0.6561  1.1454 -0.1094
   11MOL0     C 1354  -0.520   9.908   2.214 -0.3685  0.5987  0.2308
   11MOL0     O 1355  -0.657   9.888   2.209  0.3958  0.4894  0.4264
   11MOL0     C 1356  -0.749   9.975   2.133 -0.1848  0.9855 -0.5121
   11MOL0     C 1357  -0.860   9.886   2.097  0.1802 -0.5979  0.3000
   11MOL0     C 1358  -0.972   9.962   2.023  0.1121  0.0189  0.3714
   11MOL0     C 1359  -0.943  10.045   1.900 -0.5900 -0.1821  0.4027
   11MOL0     C 1360  -1.080  10.103   1.848 -0.1146 -0.2735  0.1447
   11MOL0     C 1361  -1.179  10.016   1.776 -0.4981  0.6507 -0.5968
   11MOL0     C 1362  -1.300  10.090   1.714  0.9255  0.0590 -0.1035
   11MOL0     C 1363  -1.411   9.993   1.666 -0.5774  0.4525 -0.9585
   11MOL0    Cl 1364  -1.542  10.071   1.578  0.0158 -0.1773  0.3292
   11MOL0     C 1365  -0.455  10.003   2.139 -1.0109 -0.3612  0.4187
   11MOL0     C 1366  -0.311  10.010   2.140  0.2274  0.1296 -0.6768
   11MOL0     O 1367  -0.086   9.979   2.456 -0.2146 -0.2507  0.0173
   11MOL0     C 1368   0.149  10.129   2.412 -0.1134 -0.5699 -0.7158
   11MOL0     C 1369   0.265  10.207   2.403 -0.3939 -0.5568 -0.8328
   11MOL0     N 1370   0.955  10.340   2.303  0.1095  0.2990 -0.1091
   11MOL0     N 1371   1.080  10.341   2.326 -0.0446  0.2939  0.0843
   11MOL0     C 1372   2.241  10.326   1.993 -0.0548  0.1452 -0.0191
   11MOL0     C 1373   2.337  10.409   1.951 -0.6052 -0.2378 -0.6587
   11MOL0     C 1374   2.666  10.616   1.717 -0.1644 -0.1702 -0.0866
   11MOL0     C 1375   2.600  10.724   1.656 -0.1817 -0.1993  1.0585
   11MOL0     C 1376   2.668  10.807   1.560  0.7441 -1.2155  0.8384
   11MOL0     C 1377   2.811  10.813   1.577  0.1698 -0.2462  0.4195
   11MOL0     O 1378   2.886  10.910   1.522 -0.9857  0.2411 -0.1060
   11MOL0     C 1379   2.827  11.026   1.473 -0.3087  0.1997  1.1332
   11MOL0     C 1380   2.799  10.989   1.328  0.1594  0.2440 -1.0647
   11MOL0     C 1381   2.803  11.097   1.226  0.3011 -0.0347  0.7955
   11MOL0     C 1382   2.924  11.124   1.128  0.5008  0.6755 -0.5373
   11MOL0     C 1383   3.032  11.143   1.224 -0.1515  0.1180 -0.2655
   11MOL0     C 1384   3.118  11.155   1.309 -0.8897 -1.2472  0.2213
   11MOL0     C 1385   2.878  10.712   1.650  0.9669  0.3682 -0.5169
   11MOL0     C 1386   2.801  10.614   1.716 -0.0017  0.2507  0.1872
   11MOL0     H 1387   2.406  10.299   1.646 -1.6303  3.9819 -0.6357
   11MOL0     H 1388   2.218  10.112   1.736 -1.5099  0.8724  0.4522
   11MOL0     H 1389   1.942  10.284   1.929  0.2058  1.0695  0.0683
   11MOL0     H 1390   1.997  10.259   2.091 -0.6041  2.7497 -2.2364
   11MOL0     H 1391   1.897  10.035   2.099  2.0773  0.9916  0.2982
   11MOL0     H 1392   1.823  10.058   1.935  0.6443 -1.7814  0.4499
   11MOL0     H 1393   1.771  10.241   2.177  1.2185 -0.5303 -0.3350
   11MOL0     H 1394   1.669  10.109   2.115 -0.3434  0.7707 -1.3273
   11MOL0     H 1395   1.734  10.372   1.982 -1.0256  0.8971  0.3416
   11MOL0     H 1396   1.698  10.241   1.881 -1.8063 -2.1263  1.6748
   11MOL0     H 1397   1.493  10.207   1.954 -0.1282 -0.5632  1.1193
   11MOL0     H 1398   1.509  10.385   1.926  2.9221  0.9277 -0.3996
   11MOL0     H 1399   1.536  10.444   2.154 -0.9101  0.4512 -0.5947
   11MOL0     H 1400   1.514  10.269   2.206  0.1457 -2.2549 -1.5791
   11MOL0     H 1401   1.287  10.383   2.047 -1.5025  1.4292  0.2260
   11MOL0     H 1402   1.301  10.258   2.173  2.3970 -1.7851 -0.0892
   11MOL0     H 1403   1.303  10.558   2.208 -0.6757  0.5659 -0.7778
   11MOL0     H 1404   1.317  10.447   2.343  0.6225 -0.2338 -0.8853
   11MOL0     H 1405   1.062  10.565   2.088  0.2186  1.1736  0.0344
   11MOL0     H 1406   0.819  10.451   2.016 -1.8801  2.4903 -0.2847
   11MOL0     H 1407   0.770  10.570   2.135 -4.7816 -1.0875 -3.2418
   11MOL0     H 1408   0.686  10.287   2.159 -3.2375 -0.0796 -0.2511
   11MOL0     H 1409   0.601  10.433   2.090 -0.6987 -0.7866 -0.1102
   11MOL0     H 1410   0.703  10.444   2.370  0.5591  2.9805 -1.1754
   11MOL0     H 1411   0.590  10.541   2.271 -2.5942 -1.0173 -2.5489
   11MOL0     H 1412   0.447  10.424   2.418 -1.9829 -2.5766  0.3458
   11MOL0     H 1413   0.537  10.271   2.397  0.4296  0.4925  1.3052
   11MOL0     H 1414   0.263  10.225   2.055 -1.9251  0.4034 -0.4420
   11MOL0     H 1415   0.068  10.062   2.103 -0.7360 -0.8606  1.6233
   11MOL0     H 1416  -0.262   9.790   2.397 -1.7731 -0.2744 -0.3871
   11MOL0     H 1417  -0.500   9.763   2.372  1.3996  0.1496 -0.6357
   11MOL0     H 1418  -0.698  10.023   2.049  0.9096  2.1855  0.7931
   11MOL0     H 1419  -0.788  10.053   2.200 -2.0051 -0.5612  0.3423
   11MOL0     H 1420  -0.903   9.844   2.189 -2.1241 -3.0368 -1.7280
   11MOL0     H 1421  -0.826   9.798   2.040 -1.5915 -0.5857 -0.8533
   11MOL0     H 1422  -1.035  10.018   2.093  0.1418 -0.9790  1.2193
   11MOL0     H 1423  -1.044   9.883   2.001 -0.1415  0.4573 -0.3962
   11MOL0     H 1424  -0.885  10.128   1.940 -0.5902 -0.2310  0.5026
   11MOL0     H 1425  -0.883  10.002   1.818  0.3618  1.1450  0.3758
   11MOL0     H 1426  -1.055  10.187   1.782 -1.3799 -1.2371 -1.6806
   11MOL0     H 1427  -1.133  10.145   1.934 -1.5063  1.7394 -1.5882
   11MOL0     H 1428  -1.203   9.932   1.842 -0.1888  0.3324 -0.8776
   11MOL0     H 1429  -1.131   9.978   1.685 -2.2248 -0.0059 -1.2667
   11MOL0     H 1430  -1.344  10.144   1.798  2.2794 -3.9868  3.5574
   11MOL0     H 1431  -1.266  10.156   1.634  3.7704  0.7113  1.4895
   11MOL0     H 1432  -1.443   9.937   1.754  2.9549 -2.4746 -1.2901
   11MOL0     H 1433  -1.370   9.917   1.598 -0.2027  0.0688 -0.3056
   11MOL0     H 1434  -0.490  10.084   2.076  0.2852 -0.1339 -0.0492
   11MOL0     H 1435  -0.248  10.076   2.083 -0.4378 -0.5647 -2.2853
   11MOL0     H 1436   0.101  10.124   2.510 -1.4331  0.9343 -1.2514
   11MOL0     H 1437   0.297  10.259   2.493 -0.7531 -0.7290 -0.6014
   11MOL0     H 1438   2.207  10.326   2.096 -0.2343 -2.9049  0.0189
   11MOL0     H 1439   2.374  10.489   2.015  1.1207 -0.2373 -1.5933
   11MOL0     H 1440   2.492  10.736   1.660 -0.8499 -1.9075 -4.0939
   11MOL0     H 1441   2.603  10.875   1.505  2.1558  0.2854  0.9765
   11MOL0     H 1442   2.900  11.107   1.468 -1.6937  1.4569 -2.5020
   11MOL0     H 1443   2.737  11.059   1.525 -1.2610 -1.2372  0.4848
   11MOL0     H 1444   2.866  10.908   1.299 -0.8838 -0.5340 -1.3700
   11MOL0     H 1445   2.695  10.953   1.328  0.5035 -0.8595  0.5032
   11MOL0     H 1446   2.776  11.193   1.272 -0.6260 -0.0577  0.3302
   11MOL0     H 1447   2.717  11.089   1.160  0.7671  1.5651 -0.0583
   11MOL0     H 1448   2.943  11.036   1.066  2.9356  1.7265 -1.4282
   11MOL0     H 1449   2.919  11.211   1.062 -0.5020  0.4963 -0.7175
   11MOL0     H 1450   3.200  11.181   1.372 -0.0214  0.4369 -1.4961
   11MOL0     H 1451   2.986  10.704   1.641  0.7413 -2.2000 -1.7999
   11MOL0     H 1452   2.857  10.535   1.763 -1.6557  0.7223  3.2245
   12MOL0     O 1453   5.160   6.523  10.077  0.2021  0.8497  0.1467
   12MOL0     C 1454   5.141   6.647  10.062  0.0690 -0.2391  0.3042
   12MOL0     O 1455   5.041   6.709   9.987 -0.3498 -1.2218  0.0139
   12MOL0     C 1456   4.964   6.647   9.901  0.5115 -0.2524  0.2303
   12MOL0     C 1457   4.828   6.679   9.905 -0.2314 -0.9628  0.9537
   12MOL0     C 1458   4.736   6.613   9.820 -1.2184  0.3059 -0.2455
   12MOL0     C 1459   4.780   6.513   9.738 -0.8199  0.7944 -0.4273
   12MOL0     O 1460   4.707   6.433   9.652  0.3536 -0.2810 -0.6952
   12MOL0     C 1461   4.605   6.505   9.582 -0.9101 -0.5179  0.3416
   12MOL0     C 1462   4.456   6.485   9.633 -0.2881  1.2049  0.1570
   12MOL0     C 1463   4.346   6.546   9.542 -0.5393 -0.6724 -0.0245
   12MOL0     C 1464   4.210   6.505   9.614 -0.1273  0.4383 -0.9569
   12MOL0     C 1465   4.092   6.503   9.508 -0.2822  0.1604  0.0225
   12MOL0     C 1466   3.977   6.436   9.578  0.9670 -0.5368  0.3374
   12MOL0     C 1467   3.855   6.430   9.493  0.4810  0.0170 -0.4177
   12MOL0     C 1468   3.777   6.566   9.503  0.9679 -0.1744 -0.5732
   12MOL0     N 1469   3.646   6.544   9.448 -0.3136  0.3096  0.7603
   12MOL0     C 1470   3.541   6.471   9.503  0.0233 -0.1258 -0.6527
   12MOL0     C 1471   3.431   6.485   9.428  0.7458 -0.9518  0.6556
   12MOL0     C 1472   3.296   6.416   9.453 -0.0513  0.1223 -0.5754
   12MOL0     C 1473   3.191   6.446   9.343  0.2490 -0.5622  0.7618
   12MOL0     C 1474   3.064   6.385   9.387 -0.0672  0.0416  0.2011
   12MOL0     C 1475   2.980   6.364   9.265  0.4916 -0.7140  0.2000
   12MOL0     O 1476   2.854   6.331   9.316 -0.7082 -0.6051  0.2470
   12MOL0     C 1477   2.760   6.274   9.233  0.0064  0.1128  0.2804
   12MOL0     C 1478   2.649   6.217   9.290  1.1288  0.1811 -0.1987
   12MOL0     C 1479   2.555   6.158   9.214  0.2537  0.9017  0.7525
   12MOL0     C 1480   2.553   6.167   9.078 -0.6895 -0.3937  0.2116
   12MOL0     C 1481   2.431   6.122   8.990 -0.1075  1.0471 -0.3726
   12MOL0     O 1482   2.363   6.012   9.027  0.3770  0.7343  0.4393
   12MOL0     C 1483   2.244   5.986   8.968 -0.1425 -0.0308 -0.3971
   12MOL0     C 1484   2.128   5.989   9.043 -0.6673 -0.7294  0.9039
   12MOL0     C 1485   2.010   5.943   8.976  1.0326  0.2808  0.4002
   12MOL0     C 1486   2.004   5.903   8.844  0.5805 -0.1561 -0.4352
   12MOL0     O 1487   1.888   5.860   8.799  0.2954 -0.0898  0.2226
   12MOL0     C 1488   1.785   5.953   8.790 -0.7859  0.0282  0.0497
   12MOL0     C 1489   1.680   5.872   8.706  0.1062 -0.4599  0.6976
   12MOL0     C 1490   1.575   5.947   8.628 -0.2183 -0.5723  0.7902
   12MOL0     C 1491   1.444   5.871   8.604 -0.1451 -0.4798 -0.2927
   12MOL0     C 1492   1.353   5.956   8.517 -0.2043 -0.2980  0.7988
   12MOL0     C 1493   1.221   5.874   8.495  0.8438 -0.2150  0.1295
   12MOL0     C 1494   1.123   5.955   8.412 -0.1887  0.0614 -0.3997
   12MOL0     C 1495   1.001   5.869   8.359 -0.8208 -0.0764 -0.7954
   12MOL0    Cl 1496   1.039   5.730   8.255 -0.4999  0.3781 -0.1336
   12MOL0     C 1497   2.128   5.904   8.774  0.4510  0.3747 -0.4191
   12MOL0     C 1498   2.241   5.952   8.835  0.2955  0.4715  0.6417
   12MOL0     O 1499   2.416   6.180   8.885  0.0304 -0.1304 -0.4596
   12MOL0     C 1500   2.664   6.231   9.023 -0.3872 -1.0797  0.3578
   12MOL0     C 1501   2.768   6.279   9.095  0.7238  0.1035 -0.3818
   12MOL0     N 1502   3.462   6.576   9.325  0.1536 -0.1202 -0.4901
   12MOL0     N 1503   3.588   6.606   9.335 -0.3749  0.3626 -0.6641
   12MOL0     C 1504   4.915   6.478   9.734 -0.0367  0.0987 -0.6652
   12MOL0     C 1505   5.006   6.535   9.823 -0.3120 -0.1827  0.3905
   12MOL0     C 1506   5.240   6.737  10.131 -0.2622 -0.2454  0.4508
   12MOL0     C 1507   5.333   6.677  10.222  0.2213  0.1313 -0.5778
   12MOL0     C 1508   5.434   6.748  10.290  0.3094  0.2919  0.2347
   12MOL0     C 1509   5.449   6.884  10.269  0.1345  0.3834  0.3849
   12MOL0     O 1510   5.547   6.964  10.327 -0.0432  0.0884  0.6077
   12MOL0     C 1511   5.618   6.903  10.428  0.1054  0.3679 -0.7290
   12MOL0     C 1512   5.689   7.002  10.524 -0.2381 -1.0325  0.0199
   12MOL0     C 1513   5.792   7.086  10.444 -0.0408 -0.6003 -0.3128
   12MOL0     C 1514   5.942   7.046  10.477  0.4234 -0.1866 -0.1108
   12MOL0     C 1515   5.986   6.925  10.409  0.3279  0.6239 -0.0402
   12MOL0     C 1516   6.008   6.817  10.354  0.4980  0.2329 -0.3709
   12MOL0     C 1517   5.358   6.949  10.191 -0.3038 -0.3221  0.2091
   12MOL0     C 1518   5.252   6.877  10.126  0.0286 -0.0149 -0.1913
   12MOL0     H 1519   4.788   6.765   9.958  1.3064  0.3481  0.0936
   12MOL0     H 1520   4.635   6.650   9.827 -1.3980 -0.4409  1.6914
   12MOL0     H 1521   4.607   6.470   9.478 -0.1208 -0.0989  0.2096
   12MOL0     H 1522   4.623   6.610   9.557 -2.1677 -0.3458  0.0476
   12MOL0     H 1523   4.465   6.547   9.723  3.5363 -0.7355  1.3209
   12MOL0     H 1524   4.429   6.381   9.652 -0.3809  0.7766 -2.0692
   12MOL0     H 1525   4.365   6.521   9.437  3.0713 -1.2838  0.6477
   12MOL0     H 1526   4.355   6.655   9.541 -0.2721 -0.6682  1.2846
   12MOL0     H 1527   4.225   6.414   9.672  0.9049  1.0181 -0.2834
   12MOL0     H 1528   4.194   6.586   9.686  0.1186  0.3625 -0.8182
   12MOL0     H 1529   4.116   6.448   9.417 -0.8969  0.7428 -0.5019
   12MOL0     H 1530   4.080   6.608   9.480 -0.6172  0.4368  1.1468
   12MOL0     H 1531   3.949   6.500   9.662  0.5096  2.2828 -1.8211
   12MOL0     H 1532   4.006   6.338   9.618 -0.4219 -0.8905  0.5411
   12MOL0     H 1533   3.884   6.420   9.388  2.2485  0.3624  0.0041
   12MOL0     H 1534   3.797   6.346   9.530  1.0050 -0.2342 -0.1621
   12MOL0     H 1535   3.829   6.643   9.444  0.1112  1.2103  0.4244
   12MOL0     H 1536   3.774   6.602   9.606  0.7148  4.7532 -2.0286
   12MOL0     H 1537   3.549   6.413   9.595 -0.6210 -2.6577 -2.0963
   12MOL0     H 1538   3.251   6.441   9.549  1.5936 -1.1972  0.6097
   12MOL0     H 1539   3.305   6.307   9.442  1.0733  0.1424  0.0095
   12MOL0     H 1540   3.237   6.402   9.254  0.4007  0.9334  0.0554
   12MOL0     H 1541   3.176   6.551   9.315  1.9883 -1.0611 -2.5296
   12MOL0     H 1542   3.086   6.287   9.431  3.1651 -0.1621 -1.6037
   12MOL0     H 1543   3.015   6.452   9.458  1.4985  0.4398  0.9531
   12MOL0     H 1544   3.021   6.296   9.190 -0.5967 -0.5425 -0.5871
   12MOL0     H 1545   2.971   6.460   9.212 -0.0142 -0.1437  1.2862
   12MOL0     H 1546   2.664   6.207   9.397  0.3145  0.0909 -0.0896
   12MOL0     H 1547   2.479   6.098   9.263 -0.0466 -0.1350 -0.8797
   12MOL0     H 1548   2.149   6.024   9.144  1.7991 -1.0988  0.5821
   12MOL0     H 1549   1.913   5.948   9.024 -0.0498 -0.2734 -1.6581
   12MOL0     H 1550   1.823   6.047   8.750 -1.6522  0.1773 -0.4536
   12MOL0     H 1551   1.740   5.975   8.887 -4.0128 -3.8940 -0.2850
   12MOL0     H 1552   1.619   5.813   8.776  1.0957  0.2250  2.1879
   12MOL0     H 1553   1.725   5.803   8.635 -1.9947  1.6646 -3.0300
   12MOL0     H 1554   1.619   5.992   8.539 -1.2230  1.2371  1.1539
   12MOL0     H 1555   1.549   6.030   8.695  0.1329 -1.7366  2.4392
   12MOL0     H 1556   1.462   5.775   8.555 -0.4196  0.7081 -2.8980
   12MOL0     H 1557   1.384   5.843   8.691 -0.8547 -2.3526 -1.3215
   12MOL0     H 1558   1.394   5.977   8.418 -1.5497 -0.5935  0.1590
   12MOL0     H 1559   1.343   6.054   8.566  0.4043  0.9140 -1.3627
   12MOL0     H 1560   1.170   5.853   8.590  1.6624 -0.4080  0.5369
   12MOL0     H 1561   1.233   5.781   8.439 -1.6585 -0.8168  0.4656
   12MOL0     H 1562   1.084   6.033   8.479  1.3359 -1.0695  1.9726
   12MOL0     H 1563   1.172   6.002   8.327 -1.2886  2.2669  0.0941
   12MOL0     H 1564   0.933   5.945   8.321 -0.5800  0.5729  0.0451
   12MOL0     H 1565   0.958   5.830   8.453 -0.0073  2.4037  0.6870
   12MOL0     H 1566   2.127   5.871   8.671 -1.7606 -1.5737  0.1206
   12MOL0     H 1567   2.337   5.956   8.783  0.6339 -3.3220  0.7139
   12MOL0     H 1568   2.663   6.245   8.916  0.4761 -2.9338  0.0803
   12MOL0     H 1569   2.847   6.324   9.036 -1.6972  2.8010 -1.8153
   12MOL0     H 1570   4.950   6.400   9.666 -0.4803  0.4838 -1.3420
   12MOL0     H 1571   5.107   6.495   9.832  0.1458  0.3864 -1.7980
   12MOL0     H 1572   5.333   6.569  10.231 -0.9126  0.2298  1.0428
   12MOL0     H 1573   5.509   6.686  10.339  0.7644  0.7429  0.1105
   12MOL0     H 1574   5.695   6.841  10.381 -1.6827 -0.1087 -3.2296
   12MOL0     H 1575   5.546   6.851  10.492 -0.3310  0.6763 -0.9608
   12MOL0     H 1576   5.597   7.053  10.555  0.4085  0.1901 -0.0126
   12MOL0     H 1577   5.739   6.951  10.606  1.2544 -0.8956 -0.7726
   12MOL0     H 1578   5.786   7.195  10.456  1.2743 -0.6295  0.9046
   12MOL0     H 1579   5.785   7.079  10.335  1.5759  3.6886 -0.8949
   12MOL0     H 1580   6.010   7.130  10.462 -0.5158  1.0411  2.0069
   12MOL0     H 1581   5.948   7.028  10.585 -2.6772  1.6570  0.4930
   12MOL0     H 1582   6.024   6.730  10.293  0.2040  0.7064 -1.1336
   12MOL0     H 1583   5.383   7.054  10.183 -1.4535  0.0044  0.6633
   12MOL0     H 1584   5.194   6.933  10.053  0.4740  2.2206  1.0885
   13MOL0     O 1585   6.835  10.900   9.188  0.2725  0.2172 -0.1470
   13MOL0     C 1586   6.899  10.893   9.295 -0.5040 -0.4385  0.0867
   13MOL0     O 1587   6.847  10.915   9.425 -0.3376 -0.2486  0.1061
   13MOL0     C 1588   6.711  10.937   9.428 -0.0839  0.3329 -0.9423
   13MOL0     C 1589   6.634  10.850   9.506 -0.0835  0.0780 -0.6618
   13MOL0     C 1590   6.498  10.886   9.542 -0.4786 -0.2298 -0.1439
   13MOL0     C 1591   6.436  10.996   9.483 -0.2302 -0.3193 -1.3169
   13MOL0     O 1592   6.304  11.029   9.519  0.0254  0.5331  0.0952
   13MOL0     C 1593   6.250  11.119   9.420  0.2422 -0.0156 -0.6412
   13MOL0     C 1594   6.095  11.122   9.431 -0.9070 -0.4919  0.6564
   13MOL0     C 1595   6.043  11.228   9.329  0.3627  0.0766 -0.0817
   13MOL0     C 1596   5.890  11.247   9.340 -0.1348 -0.7323 -0.0781
   13MOL0     C 1597   5.832  11.322   9.219 -0.3634 -0.3280  0.2674
   13MOL0     C 1598   5.679  11.305   9.222 -0.0791 -0.3169 -0.6298
   13MOL0     C 1599   5.615  11.362   9.099  0.7321  0.2727  0.0961
   13MOL0     C 1600   5.459  11.362   9.097 -0.0717 -0.3405  0.6120
   13MOL0     N 1601   5.417  11.444   8.976 -0.0777  0.5754 -0.0284
   13MOL0     C 1602   5.389  11.382   8.852  0.0764 -0.4836  0.4678
   13MOL0     C 1603   5.320  11.473   8.782  0.1208 -0.2762 -0.2718
   13MOL0     C 1604   5.283  11.455   8.637  0.8178  0.4179 -0.8028
   13MOL0     C 1605   5.132  11.458   8.621 -0.4440 -0.5940 -0.7594
   13MOL0     C 1606   5.104  11.429   8.477 -0.5187  0.3859 -0.1968
   13MOL0     C 1607   4.956  11.456   8.448 -0.4398 -1.2803  0.8788
   13MOL0     O 1608   4.937  11.603   8.443  0.2813 -0.2247 -0.2975
   13MOL0     C 1609   4.824  11.638   8.369  0.1378 -0.5426 -0.2159
   13MOL0     C 1610   4.827  11.646   8.231 -0.4916 -1.0064 -0.8529
   13MOL0     C 1611   4.716  11.691   8.164  0.3802  0.5763 -0.0723
   13MOL0     C 1612   4.594  11.733   8.230  0.0977 -0.7177  0.1350
   13MOL0     C 1613   4.485  11.800   8.157 -0.8582  0.1537  0.7030
   13MOL0     O 1614   4.388  11.865   8.221 -0.4201 -0.3359 -0.3202
   13MOL0     C 1615   4.279  11.915   8.161 -0.5413  1.0233  0.0444
   13MOL0     C 1616   4.261  12.047   8.162 -0.1482 -0.2021  0.1420
   13MOL0     C 1617   4.150  12.101   8.098  0.1405  0.6192 -0.2432
   13MOL0     C 1618   4.058  12.014   8.041 -0.2784 -1.1540 -0.9179
   13MOL0     O 1619   3.967  12.086   7.977  0.2856 -0.2573  0.5738
   13MOL0     C 1620   3.828  12.055   8.004  0.3919 -0.4680  0.0326
   13MOL0     C 1621   3.721  12.159   7.939  0.2440 -0.8297 -0.6450
   13MOL0     C 1622   3.709  12.291   8.021  0.2059  0.2504 -0.8160
   13MOL0     C 1623   3.630  12.277   8.147  0.1301  0.8056  0.4249
   13MOL0     C 1624   3.555  12.402   8.200 -0.1829 -0.4086  0.0924
   13MOL0     C 1625   3.652  12.507   8.241 -0.2235 -0.9183 -0.0584
   13MOL0     C 1626   3.593  12.646   8.276  0.4456 -0.0037  0.2163
   13MOL0     C 1627   3.502  12.647   8.400 -0.1355 -0.5429 -0.2371
   13MOL0    Cl 1628   3.581  12.584   8.556 -0.3014 -0.0004  0.2239
   13MOL0     C 1629   4.071  11.874   8.049 -0.0674 -0.6865  0.6099
   13MOL0     C 1630   4.197  11.823   8.100  1.0797  0.7702 -0.7974
   13MOL0     O 1631   4.486  11.769   8.040  0.4404 -0.7732  0.2097
   13MOL0     C 1632   4.597  11.718   8.364  0.6784  0.6035 -0.0291
   13MOL0     C 1633   4.717  11.682   8.438 -0.0559 -0.3730  0.1348
   13MOL0     N 1634   5.331  11.592   8.861 -0.7015 -0.9972 -0.5515
   13MOL0     N 1635   5.390  11.576   8.977 -0.5734 -0.5148  0.7842
   13MOL0     C 1636   6.519  11.082   9.409 -0.0508 -0.1359  0.1792
   13MOL0     C 1637   6.656  11.050   9.374  0.1961 -0.1040  0.7563
   13MOL0     C 1638   7.046  10.878   9.280 -0.2732 -0.1961  0.3600
   13MOL0     C 1639   7.111  10.825   9.164 -0.6019 -0.8818  0.1463
   13MOL0     C 1640   7.242  10.802   9.149 -0.3250 -0.2052 -0.0934
   13MOL0     C 1641   7.325  10.856   9.249  0.2475 -0.1607 -0.7792
   13MOL0     O 1642   7.457  10.852   9.249  0.1610  0.0842 -0.0344
   13MOL0     C 1643   7.531  10.862   9.128 -0.3494  0.2220  0.3839
   13MOL0     C 1644   7.684  10.850   9.155 -0.1215  0.2195 -0.9201
   13MOL0     C 1645   7.722  10.703   9.145 -0.6886 -0.1118 -0.1797
   13MOL0     C 1646   7.863  10.664   9.193  0.2659  0.7489  1.4024
   13MOL0     C 1647   7.983  10.733   9.137 -0.4863  0.3152  0.9152
   13MOL0     C 1648   8.075  10.796   9.079  1.4396  1.5021 -0.5864
   13MOL0     C 1649   7.272  10.909   9.370 -0.7590 -0.8273  0.6791
   13MOL0     C 1650   7.131  10.920   9.384 -0.8573  0.9039  0.8290
   13MOL0     H 1651   6.680  10.761   9.549 -1.3218  0.6737  2.1006
   13MOL0     H 1652   6.444  10.820   9.609  2.1827 -3.2381 -0.6982
   13MOL0     H 1653   6.274  11.091   9.316 -0.9522 -2.6464 -0.2860
   13MOL0     H 1654   6.275  11.225   9.433  0.1879  0.0468 -1.0273
   13MOL0     H 1655   6.071  11.141   9.536 -1.9029 -0.3189  0.4143
   13MOL0     H 1656   6.060  11.022   9.403  1.8730 -1.5391  0.6114
   13MOL0     H 1657   6.062  11.186   9.230 -1.8111 -1.0655 -0.0789
   13MOL0     H 1658   6.095  11.324   9.334 -0.4739  0.7657 -2.6700
   13MOL0     H 1659   5.856  11.143   9.336 -1.1961 -0.4131  0.4422
   13MOL0     H 1660   5.862  11.280   9.441 -0.4491  2.0532 -1.0085
   13MOL0     H 1661   5.869  11.282   9.124 -0.8010 -2.0333  0.7933
   13MOL0     H 1662   5.860  11.428   9.226  1.9852 -0.9803  1.6841
   13MOL0     H 1663   5.647  11.360   9.311  1.3910  1.5092 -1.1774
   13MOL0     H 1664   5.656  11.199   9.235 -1.9948  0.1848  0.4900
   13MOL0     H 1665   5.661  11.460   9.093  1.5991  0.2119  3.8018
   13MOL0     H 1666   5.641  11.300   9.012  1.9351  3.0263 -1.6217
   13MOL0     H 1667   5.434  11.422   9.185 -2.3499  3.6115 -2.3818
   13MOL0     H 1668   5.417  11.261   9.099  0.6948 -0.7245 -1.0674
   13MOL0     H 1669   5.407  11.279   8.826 -2.3876 -0.8195 -0.1007
   13MOL0     H 1670   5.326  11.359   8.610 -1.8701 -1.3328  0.6855
   13MOL0     H 1671   5.329  11.530   8.571  1.1563  1.9341  1.0600
   13MOL0     H 1672   5.105  11.558   8.656 -0.4624  0.0798 -2.6219
   13MOL0     H 1673   5.077  11.382   8.678  2.3679 -1.6978  0.6913
   13MOL0     H 1674   5.167  11.482   8.405  1.8055 -0.7635  0.8732
   13MOL0     H 1675   5.124  11.323   8.460 -3.3230 -0.1643 -0.4902
   13MOL0     H 1676   4.894  11.419   8.529 -2.3314  1.9391  1.0677
   13MOL0     H 1677   4.927  11.418   8.349  1.6521 -2.6168  0.7114
   13MOL0     H 1678   4.919  11.633   8.174  0.8629 -1.8943  1.4224
   13MOL0     H 1679   4.732  11.684   8.057  0.4945  1.3423 -0.1091
   13MOL0     H 1680   4.330  12.117   8.208 -2.8854  2.9359 -0.1083
   13MOL0     H 1681   4.122  12.206   8.095  1.1110  0.8910 -2.7950
   13MOL0     H 1682   3.808  12.038   8.110 -1.9078  1.0018 -0.0916
   13MOL0     H 1683   3.807  11.965   7.945 -0.0522  0.9650 -2.0966
   13MOL0     H 1684   3.622  12.113   7.933 -1.4334  2.2635  1.0679
   13MOL0     H 1685   3.744  12.197   7.839  0.0751 -0.2970 -0.4816
   13MOL0     H 1686   3.663  12.366   7.956  0.5181  1.9434  0.8633
   13MOL0     H 1687   3.810  12.330   8.039  0.4869  0.8159 -3.2722
   13MOL0     H 1688   3.543  12.213   8.128  2.8491 -3.4991  1.1895
   13MOL0     H 1689   3.687  12.235   8.229  0.1161  1.2902  0.6882
   13MOL0     H 1690   3.492  12.379   8.286  0.9920  1.8214  1.6491
   13MOL0     H 1691   3.498  12.456   8.124  0.7600  0.0292 -0.3279
   13MOL0     H 1692   3.723  12.528   8.161 -1.8422 -0.2808 -1.3996
   13MOL0     H 1693   3.710  12.475   8.328  1.0117 -0.1096 -0.5554
   13MOL0     H 1694   3.662  12.730   8.293 -1.3864  1.2814  1.6141
   13MOL0     H 1695   3.533  12.678   8.190 -0.8684 -3.7213 -0.4227
   13MOL0     H 1696   3.413  12.591   8.371 -1.3889  0.6918  1.0928
   13MOL0     H 1697   3.469  12.748   8.425  1.4609 -0.5477  2.3147
   13MOL0     H 1698   4.007  11.808   7.991 -0.8592  0.9302 -0.4293
   13MOL0     H 1699   4.213  11.716   8.098  3.8438  1.0752  0.7443
   13MOL0     H 1700   4.507  11.749   8.416 -0.7900 -5.6480  2.0112
   13MOL0     H 1701   4.724  11.683   8.546 -0.4616 -1.6191  0.1866
   13MOL0     H 1702   6.480  11.182   9.392  0.3301  0.3468  1.9703
   13MOL0     H 1703   6.721  11.127   9.332  1.6493 -0.8409  1.5642
   13MOL0     H 1704   7.037  10.784   9.096 -1.6654 -1.7120  1.7370
   13MOL0     H 1705   7.285  10.759   9.059  0.0678  1.0839 -0.5418
   13MOL0     H 1706   7.499  10.960   9.093 -0.6875 -0.3921 -1.1030
   13MOL0     H 1707   7.502  10.783   9.058  0.0531  0.6598 -0.2865
   13MOL0     H 1708   7.742  10.909   9.083  0.9633  1.9871  1.3028
   13MOL0     H 1709   7.707  10.891   9.253  0.8781  4.0395 -2.5718
   13MOL0     H 1710   7.723  10.671   9.040 -1.3261 -3.0022  0.6328
   13MOL0     H 1711   7.652  10.640   9.200  0.7519 -1.9230 -0.3400
   13MOL0     H 1712   7.866  10.675   9.302 -2.7187  0.8423  1.5802
   13MOL0     H 1713   7.877  10.559   9.165  4.2981  1.5095 -0.0674
   13MOL0     H 1714   8.158  10.862   9.058 -0.2490  3.3412 -1.8713
   13MOL0     H 1715   7.345  10.952   9.438  0.4302 -1.3580 -0.2249
   13MOL0     H 1716   7.093  10.966   9.475  1.2139  1.5524  1.4325
   14MOL0     O 1717   4.760   0.261   1.047 -0.4441  0.3728  0.5316
   14MOL0     C 1718   4.813   0.150   1.058 -0.5043 -0.5467 -0.0734
   14MOL0     O 1719   4.747   0.027   1.073  0.6371  1.2268  0.7568
   14MOL0     C 1720   4.623   0.042   1.118 -0.6877 -0.1896 -0.6296
   14MOL0     C 1721   4.603   0.063   1.254  0.2485 -0.6619  0.2104
   14MOL0     C 1722   4.469   0.068   1.305 -0.0781 -0.3866 -0.1005
   14MOL0     C 1723   4.364   0.049   1.216  0.0680 -0.3239 -0.1870
   14MOL0     O 1724   4.233   0.042   1.256 -0.0033  0.4321  0.0824
   14MOL0     C 1725   4.178  -0.090   1.275 -0.3922  0.1812  0.4746
   14MOL0     C 1726   4.024  -0.088   1.260 -0.3242 -0.3492  1.4202
   14MOL0     C 1727   3.960  -0.013   1.362 -0.6874  0.3132  0.6966
   14MOL0     C 1728   3.982  -0.069   1.497  0.6419  0.0120 -0.4617
   14MOL0     C 1729   3.877  -0.027   1.595  0.3331 -0.4643  0.7716
   14MOL0     C 1730   3.747  -0.099   1.568  0.1364 -0.1827  0.7589
   14MOL0     C 1731   3.655  -0.111   1.690  0.2993  0.1913 -0.4827
   14MOL0     C 1732   3.508  -0.097   1.657 -0.2614  0.0231 -0.0787
   14MOL0     N 1733   3.437  -0.219   1.621  0.8987 -0.6757 -0.3223
   14MOL0     C 1734   3.449  -0.305   1.516  0.3426  0.3681  0.1299
   14MOL0     C 1735   3.362  -0.409   1.533  0.1036 -0.2229  0.4978
   14MOL0     C 1736   3.344  -0.526   1.439 -0.3031  0.9791  0.1237
   14MOL0     C 1737   3.196  -0.574   1.447  0.3880 -0.0018  0.0876
   14MOL0     C 1738   3.178  -0.691   1.345  0.0648 -0.6739  0.6409
   14MOL0     C 1739   3.031  -0.742   1.336  0.4236 -0.1348 -0.4582
   14MOL0     O 1740   3.029  -0.858   1.251  0.5115 -0.4035  0.3105
   14MOL0     C 1741   2.914  -0.923   1.238 -0.3642 -0.4298 -0.0397
   14MOL0     C 1742   2.793  -0.890   1.290 -0.1351 -0.0408  0.0566
   14MOL0     C 1743   2.694  -0.976   1.277 -0.0663 -0.4602 -0.5048
   14MOL0     C 1744   2.694  -1.090   1.195  0.0051 -0.5179  0.6304
   14MOL0     C 1745   2.585  -1.189   1.183  0.4653 -0.4915 -0.1893
   14MOL0     O 1746   2.483  -1.178   1.280 -0.0380  0.0530  0.3688
   14MOL0     C 1747   2.385  -1.276   1.274 -0.3611 -0.1342 -0.4735
   14MOL0     C 1748   2.244  -1.238   1.270 -0.0198 -0.6539  0.7306
   14MOL0     C 1749   2.144  -1.333   1.284 -0.4321  0.9800 -0.3439
   14MOL0     C 1750   2.173  -1.463   1.303 -0.4484 -0.0134 -0.7898
   14MOL0     O 1751   2.075  -1.546   1.338  0.4323  0.1997  0.9816
   14MOL0     C 1752   2.095  -1.665   1.420  0.6095 -0.3140 -0.0318
   14MOL0     C 1753   1.954  -1.730   1.448 -0.3856  0.1396  1.4747
   14MOL0     C 1754   1.985  -1.867   1.510 -0.5762  0.6804  0.1029
   14MOL0     C 1755   1.858  -1.942   1.557 -0.5071  0.5772 -0.3192
   14MOL0     C 1756   1.764  -2.007   1.450  0.0950  0.3297  0.0941
   14MOL0     C 1757   1.627  -2.027   1.521 -0.1516  0.0870  0.0511
   14MOL0     C 1758   1.511  -2.080   1.428 -0.5965 -1.1008  0.1464
   14MOL0     C 1759   1.455  -1.961   1.334  0.0193  0.1695  0.9365
   14MOL0    Cl 1760   1.389  -1.826   1.432 -0.4873 -0.6600  0.4358
   14MOL0     C 1761   2.308  -1.504   1.301  0.5712  0.8658 -0.8826
   14MOL0     C 1762   2.413  -1.413   1.295  0.4331  0.4035 -1.0979
   14MOL0     O 1763   2.596  -1.281   1.103  0.6835 -0.3920  0.7058
   14MOL0     C 1764   2.813  -1.111   1.122  0.8238 -0.5958  0.2199
   14MOL0     C 1765   2.925  -1.033   1.150  0.8166 -0.2928 -0.0918
   14MOL0     N 1766   3.308  -0.394   1.653 -0.7922 -0.5659 -0.3694
   14MOL0     N 1767   3.347  -0.284   1.702  0.0078 -0.4046 -0.3234
   14MOL0     C 1768   4.390   0.024   1.083  0.0079  0.0036  0.1084
   14MOL0     C 1769   4.516   0.025   1.033 -0.1275  0.0913  0.3643
   14MOL0     C 1770   4.963   0.149   1.065  1.1197  0.6156  0.4294
   14MOL0     C 1771   5.026   0.028   1.103  0.0999 -0.2351 -1.0949
   14MOL0     C 1772   5.157   0.032   1.139 -0.0742 -0.0116 -0.4180
   14MOL0     C 1773   5.221   0.151   1.145 -0.6493  0.2424  0.6107
   14MOL0     O 1774   5.350   0.164   1.185 -0.3858  0.3231 -0.2035
   14MOL0     C 1775   5.450   0.097   1.116 -0.6015  0.1466  0.4632
   14MOL0     C 1776   5.574   0.120   1.206  0.2269 -0.5312  1.1709
   14MOL0     C 1777   5.701   0.102   1.117 -0.9583 -0.3704  0.3685
   14MOL0     C 1778   5.833   0.109   1.197 -0.0575  0.0372 -0.4277
   14MOL0     C 1779   5.836   0.005   1.305  0.0520 -0.8405 -0.3185
   14MOL0     C 1780   5.835  -0.095   1.372  0.7417 -0.0622 -0.3991
   14MOL0     C 1781   5.174   0.263   1.091  0.0554  0.1978 -0.3227
   14MOL0     C 1782   5.043   0.263   1.052  0.6530  0.1512  0.1437
   14MOL0     H 1783   4.684   0.080   1.324 -0.8288 -2.7285  2.0754
   14MOL0     H 1784   4.438   0.090   1.407 -2.7113 -1.3826 -0.6023
   14MOL0     H 1785   4.214  -0.133   1.369  0.6662 -1.9105 -0.8048
   14MOL0     H 1786   4.220  -0.156   1.198  0.4070  1.5072 -0.2760
   14MOL0     H 1787   3.983  -0.188   1.242 -0.8402  0.1570 -0.4575
   14MOL0     H 1788   3.988  -0.032   1.173  0.0340 -1.5807  0.4505
   14MOL0     H 1789   3.853   0.007   1.348 -0.8172  1.8189  3.2931
   14MOL0     H 1790   4.007   0.085   1.355  2.2894 -1.0366  0.0432
   14MOL0     H 1791   3.978  -0.177   1.477 -0.6397 -0.0111 -0.1540
   14MOL0     H 1792   4.082  -0.041   1.530  1.1986 -2.7877  0.4657
   14MOL0     H 1793   3.867   0.082   1.595  0.0265 -0.4838 -0.3933
   14MOL0     H 1794   3.909  -0.064   1.693  0.3097  1.0196  1.3629
   14MOL0     H 1795   3.765  -0.200   1.531  0.7593  0.3538 -0.4410
   14MOL0     H 1796   3.702  -0.031   1.495 -0.7438  1.9962  3.1692
   14MOL0     H 1797   3.688  -0.208   1.729  5.3664  0.2582 -3.6084
   14MOL0     H 1798   3.679  -0.032   1.762  1.6725 -1.4044  0.9132
   14MOL0     H 1799   3.501  -0.025   1.575 -2.1740 -1.4541 -1.2769
   14MOL0     H 1800   3.459  -0.053   1.745  2.2709  1.2251  0.8309
   14MOL0     H 1801   3.508  -0.296   1.425 -0.4368 -0.5823 -0.4944
   14MOL0     H 1802   3.413  -0.598   1.484  1.8914  2.5164 -0.6653
   14MOL0     H 1803   3.371  -0.507   1.335  0.2507 -0.8017 -0.0902
   14MOL0     H 1804   3.116  -0.500   1.438 -0.2049 -0.3262  2.2751
   14MOL0     H 1805   3.177  -0.597   1.552 -2.1269 -0.7492 -0.4593
   14MOL0     H 1806   3.197  -0.658   1.243 -4.6034 -0.1974 -0.3041
   14MOL0     H 1807   3.245  -0.774   1.369 -1.4564 -1.2703  3.3040
   14MOL0     H 1808   2.956  -0.671   1.299 -3.4915 -3.6539 -0.0283
   14MOL0     H 1809   3.004  -0.783   1.434  1.3217  3.4147  1.4410
   14MOL0     H 1810   2.780  -0.810   1.361  0.2018  0.8429 -0.8537
   14MOL0     H 1811   2.602  -0.951   1.328 -1.1249  4.0916 -4.0355
   14MOL0     H 1812   2.211  -1.135   1.259 -3.2134 -1.5224  1.0440
   14MOL0     H 1813   2.039  -1.309   1.294 -0.5517 -0.0587  1.5291
   14MOL0     H 1814   2.138  -1.644   1.518  0.5770 -1.2539  0.1920
   14MOL0     H 1815   2.157  -1.733   1.360 -0.3044 -0.5322 -0.7533
   14MOL0     H 1816   1.898  -1.727   1.354  1.6214  1.4935  0.2613
   14MOL0     H 1817   1.897  -1.668   1.518 -0.5907  2.4243 -0.6053
   14MOL0     H 1818   2.059  -1.855   1.590 -0.2112  0.0558 -0.1305
   14MOL0     H 1819   2.024  -1.931   1.430 -2.3898  0.0442 -0.3035
   14MOL0     H 1820   1.892  -2.031   1.610 -0.6538 -0.3285 -1.7113
   14MOL0     H 1821   1.802  -1.880   1.629  1.2446 -2.9131  4.6232
   14MOL0     H 1822   1.808  -2.102   1.417  2.6959  0.9712  1.4180
   14MOL0     H 1823   1.762  -1.942   1.362  2.0721 -0.0683 -0.2880
   14MOL0     H 1824   1.589  -1.928   1.550  4.3967  1.9557  0.5039
   14MOL0     H 1825   1.639  -2.105   1.596 -1.3647 -1.1982 -1.0194
   14MOL0     H 1826   1.546  -2.150   1.352 -0.3374  0.9714 -1.7324
   14MOL0     H 1827   1.433  -2.128   1.488 -0.5012 -0.5799  0.6968
   14MOL0     H 1828   1.378  -2.000   1.266 -0.5229  0.7067  1.2298
   14MOL0     H 1829   1.535  -1.911   1.279 -0.2636 -1.3655 -1.0020
   14MOL0     H 1830   2.333  -1.604   1.333 -0.8107  1.4267  2.2777
   14MOL0     H 1831   2.514  -1.449   1.312 -0.0589  0.2288  2.0624
   14MOL0     H 1832   2.833  -1.195   1.056  2.4673 -0.5553  0.6436
   14MOL0     H 1833   3.024  -1.057   1.113  0.5608 -0.2944 -0.7997
   14MOL0     H 1834   4.310   0.015   1.011  0.4297  2.3991 -0.7236
   14MOL0     H 1835   4.543   0.017   0.928  0.1228  1.8854  0.2602
   14MOL0     H 1836   4.967  -0.061   1.117  2.0311 -1.6195 -1.3986
   14MOL0     H 1837   5.205  -0.063   1.157  0.9102  0.8185  1.6978
   14MOL0     H 1838   5.460   0.130   1.013 -3.2414 -0.7236 -0.1627
   14MOL0     H 1839   5.427  -0.010   1.110  0.6315 -0.0633 -0.7532
   14MOL0     H 1840   5.575   0.227   1.230 -0.4711  0.3378 -2.0838
   14MOL0     H 1841   5.567   0.062   1.298 -0.4437 -2.9521 -0.3072
   14MOL0     H 1842   5.710   0.178   1.039 -3.6084  1.0010  1.2873
   14MOL0     H 1843   5.695   0.004   1.070  1.3979  0.3379 -1.6066
   14MOL0     H 1844   5.915   0.091   1.127 -0.5827 -0.9110 -0.8122
   14MOL0     H 1845   5.839   0.208   1.244  2.5490  0.1398 -0.8352
   14MOL0     H 1846   5.813  -0.184   1.427 -3.0228  1.4353  0.8916
   14MOL0     H 1847   5.235   0.351   1.075  0.5809  0.0695  0.9086
   14MOL0     H 1848   5.009   0.355   1.006 -0.7588 -1.8869 -3.2827
   15MOL0     O 1849   8.995   6.545   4.312 -0.2382  0.5373  0.1108
   15MOL0     C 1850   9.058   6.516   4.415  0.0954  0.0459  0.3030
   15MOL0     O 1851   9.004   6.465   4.524 -0.2060 -0.1788  0.8689
   15MOL0     C 1852   8.874   6.493   4.549  0.0914  0.0264 -0.0118
   15MOL0     C 1853   8.811   6.381   4.603  0.5770  0.5618 -0.7471
   15MOL0     C 1854   8.686   6.399   4.656 -0.0686 -1.0990  0.7224
   15MOL0     C 1855   8.622   6.521   4.647  0.9999 -0.9383 -0.3789
   15MOL0     O 1856   8.508   6.528   4.712  0.5834 -0.5480  0.0946
   15MOL0     C 1857   8.409   6.629   4.679 -0.1614  1.4086 -0.4230
   15MOL0     C 1858   8.273   6.599   4.748  0.6963  0.5129 -0.9519
   15MOL0     C 1859   8.232   6.446   4.749 -0.9973 -0.4617 -0.8495
   15MOL0     C 1860   8.089   6.428   4.805  0.3982  0.1236 -0.6910
   15MOL0     C 1861   8.056   6.275   4.837 -0.2795  0.4852 -0.9360
   15MOL0     C 1862   7.905   6.244   4.826  0.0854  0.6736 -0.2649
   15MOL0     C 1863   7.822   6.329   4.926  0.4100 -0.0119  0.1760
   15MOL0     C 1864   7.822   6.257   5.060 -0.0708 -0.1850 -0.1934
   15MOL0     N 1865   7.744   6.322   5.157  0.5265 -0.1543  0.5822
   15MOL0     C 1866   7.746   6.459   5.190  1.0632  0.1533 -0.2257
   15MOL0     C 1867   7.691   6.456   5.313  0.5989 -0.7478 -0.6210
   15MOL0     C 1868   7.683   6.582   5.398 -0.3268  0.0811  0.1397
   15MOL0     C 1869   7.544   6.643   5.391  0.8538 -0.6507 -0.1307
   15MOL0     C 1870   7.536   6.747   5.499  0.0196 -0.5474 -0.4971
   15MOL0     C 1871   7.404   6.755   5.581  1.0920 -1.6686  0.4898
   15MOL0     O 1872   7.291   6.777   5.494  0.5949  0.0887 -0.2027
   15MOL0     C 1873   7.177   6.726   5.552 -0.2421  0.9870 -0.1153
   15MOL0     C 1874   7.137   6.586   5.558 -0.0240 -0.6427  0.0648
   15MOL0     C 1875   7.015   6.550   5.609  0.7789 -0.0218  0.3776
   15MOL0     C 1876   6.937   6.647   5.663  0.9207  0.3336 -0.9713
   15MOL0     C 1877   6.808   6.609   5.732 -0.9189 -0.2845  0.1596
   15MOL0     O 1878   6.726   6.713   5.770 -0.5459  0.0832  0.2654
   15MOL0     C 1879   6.602   6.685   5.811  0.8558 -0.7260 -0.8731
   15MOL0     C 1880   6.481   6.744   5.751  1.0877  0.3438  0.0959
   15MOL0     C 1881   6.358   6.709   5.812 -0.0268 -0.4891  0.2452
   15MOL0     C 1882   6.352   6.630   5.923  0.6056 -0.2983 -0.8704
   15MOL0     O 1883   6.229   6.602   5.986  0.1972 -0.4425 -0.8027
   15MOL0     C 1884   6.130   6.544   5.898 -0.9825  0.7079 -0.1097
   15MOL0     C 1885   6.002   6.499   5.978 -0.4703  0.5272  1.5132
   15MOL0     C 1886   5.906   6.620   6.000 -0.4492  0.5272  0.0574
   15MOL0     C 1887   5.805   6.573   6.096 -0.7219  0.7697 -0.7383
   15MOL0     C 1888   5.684   6.675   6.108  0.3971  0.4327 -0.5620
   15MOL0     C 1889   5.564   6.620   6.202  0.1340 -0.6649  1.3342
   15MOL0     C 1890   5.508   6.491   6.158 -0.0472  0.5642  0.4621
   15MOL0     C 1891   5.368   6.464   6.216  0.0199  0.6069 -0.1987
   15MOL0    Cl 1892   5.387   6.486   6.401 -0.2498  0.1255  0.2392
   15MOL0     C 1893   6.460   6.573   5.986 -1.4215 -0.0534 -0.8124
   15MOL0     C 1894   6.583   6.599   5.922 -0.0362 -0.0076  0.9152
   15MOL0     O 1895   6.777   6.497   5.722 -0.3054 -0.7638  1.1112
   15MOL0     C 1896   6.974   6.786   5.647  0.1731  0.3332  0.9189
   15MOL0     C 1897   7.091   6.816   5.592 -0.1241 -0.8692 -0.5987
   15MOL0     N 1898   7.650   6.331   5.354 -0.9569 -0.8081  0.8321
   15MOL0     N 1899   7.679   6.258   5.262  0.1770 -0.2805 -0.1031
   15MOL0     C 1900   8.680   6.631   4.575  0.5852  0.3620 -0.6557
   15MOL0     C 1901   8.811   6.616   4.537  0.7764  0.2828  0.3576
   15MOL0     C 1902   9.207   6.528   4.424  0.3464  0.1320 -0.4057
   15MOL0     C 1903   9.271   6.608   4.331  0.1576 -0.6377 -0.8302
   15MOL0     C 1904   9.412   6.640   4.337  1.0589 -0.1508  0.3836
   15MOL0     C 1905   9.480   6.588   4.449 -0.8346  1.3032  0.4258
   15MOL0     O 1906   9.607   6.617   4.484  0.8436  0.3043  0.8135
   15MOL0     C 1907   9.698   6.658   4.379 -0.6077  0.0637  0.2257
   15MOL0     C 1908   9.815   6.696   4.462  0.5212  0.3108  0.3364
   15MOL0     C 1909   9.909   6.768   4.371 -0.7554 -0.8535 -0.2822
   15MOL0     C 1910  10.033   6.808   4.454  0.1224 -0.0311  0.6858
   15MOL0     C 1911  10.143   6.845   4.363  0.6790 -0.4929  0.2713
   15MOL0     C 1912  10.250   6.893   4.303 -0.1780 -0.1325  0.2177
   15MOL0     C 1913   9.421   6.502   4.531 -0.5601  0.0267  0.0810
   15MOL0     C 1914   9.284   6.469   4.521 -0.7479 -0.1873 -1.2901
   15MOL0     H 1915   8.865   6.287   4.609  0.9218  0.8341  1.1631
   15MOL0     H 1916   8.644   6.316   4.712 -2.1864 -2.1075 -2.1085
   15MOL0     H 1917   8.399   6.630   4.571  1.3423  2.2002 -0.5835
   15MOL0     H 1918   8.446   6.723   4.722 -1.9560  1.2182  1.7612
   15MOL0     H 1919   8.193   6.658   4.702  1.4928  1.3613 -1.2783
   15MOL0     H 1920   8.272   6.632   4.852  0.1980 -1.2105 -0.3690
   15MOL0     H 1921   8.302   6.392   4.815 -1.3121  0.5576  0.3564
   15MOL0     H 1922   8.251   6.412   4.647 -2.3932  1.0818 -1.6535
   15MOL0     H 1923   8.074   6.491   4.893 -0.5299  0.2238 -0.9082
   15MOL0     H 1924   8.012   6.465   4.736 -0.8756 -2.6418 -0.8992
   15MOL0     H 1925   8.091   6.247   4.937 -0.7134 -1.2005 -1.2267
   15MOL0     H 1926   8.107   6.213   4.762  2.5815  2.0328 -0.3839
   15MOL0     H 1927   7.894   6.136   4.840  1.4454  0.5820  0.2020
   15MOL0     H 1928   7.884   6.270   4.721 -0.3945 -3.1899 -1.2844
   15MOL0     H 1929   7.864   6.429   4.935  0.6855 -0.1742  0.6979
   15MOL0     H 1930   7.726   6.342   4.875  0.9933  0.4597 -0.8356
   15MOL0     H 1931   7.916   6.242   5.115  0.6588  0.5743 -1.1948
   15MOL0     H 1932   7.790   6.155   5.034  0.0031  0.1480 -1.6673
   15MOL0     H 1933   7.795   6.547   5.148 -1.2257  1.5905 -0.0493
   15MOL0     H 1934   7.759   6.654   5.368  0.9622  0.2296  3.3872
   15MOL0     H 1935   7.712   6.556   5.501 -0.1835  1.2367  0.3965
   15MOL0     H 1936   7.461   6.576   5.415 -1.0057  1.4628 -0.3324
   15MOL0     H 1937   7.523   6.681   5.290  1.3654 -1.1956 -0.4495
   15MOL0     H 1938   7.622   6.741   5.566  0.2520  3.7492 -0.0866
   15MOL0     H 1939   7.557   6.846   5.456  4.4771 -1.4931 -0.8974
   15MOL0     H 1940   7.414   6.833   5.658 -2.1570 -1.8401  1.2131
   15MOL0     H 1941   7.389   6.664   5.639  1.2011 -0.4552  2.5611
   15MOL0     H 1942   7.199   6.507   5.516 -0.4042  0.3262 -2.4961
   15MOL0     H 1943   6.991   6.444   5.603 -0.1286  0.2595 -1.7355
   15MOL0     H 1944   6.495   6.811   5.667 -0.3937 -1.7421 -1.9064
   15MOL0     H 1945   6.272   6.758   5.768  0.2031 -0.7643 -0.5456
   15MOL0     H 1946   6.170   6.463   5.836 -1.6218 -0.4061  0.8953
   15MOL0     H 1947   6.102   6.627   5.833  2.6892  2.0275 -0.1831
   15MOL0     H 1948   6.033   6.458   6.075  2.1101  1.1793  1.0503
   15MOL0     H 1949   5.947   6.423   5.923  1.8322 -0.2068  0.1006
   15MOL0     H 1950   5.856   6.650   5.907 -3.6517 -5.6183 -0.6956
   15MOL0     H 1951   5.959   6.707   6.040 -0.8471  0.4492  0.7627
   15MOL0     H 1952   5.766   6.477   6.061 -1.1086  1.6580 -2.9279
   15MOL0     H 1953   5.840   6.551   6.197 -0.6100  0.3387 -0.8718
   15MOL0     H 1954   5.650   6.713   6.011 -1.4166  2.4337  0.7496
   15MOL0     H 1955   5.709   6.774   6.147 -4.1500  1.2287  0.9132
   15MOL0     H 1956   5.490   6.700   6.200 -0.2125 -0.9937 -0.0603
   15MOL0     H 1957   5.610   6.613   6.301  3.0210 -1.7501  0.0358
   15MOL0     H 1958   5.507   6.479   6.050  0.1988  1.4120  0.3584
   15MOL0     H 1959   5.581   6.418   6.194  0.8993  1.7526  1.0233
   15MOL0     H 1960   5.345   6.359   6.195  2.9304 -0.0675 -0.4374
   15MOL0     H 1961   5.293   6.531   6.173  0.0398 -1.4689 -3.9369
   15MOL0     H 1962   6.461   6.516   6.079  2.0345 -0.3067 -0.8692
   15MOL0     H 1963   6.670   6.548   5.963  0.0712  0.0561  0.7656
   15MOL0     H 1964   6.904   6.855   5.692 -0.1809 -0.3849  1.4831
   15MOL0     H 1965   7.119   6.918   5.567  0.3734 -0.0089  3.0238
   15MOL0     H 1966   8.638   6.730   4.577  1.0468  0.5471  0.3434
   15MOL0     H 1967   8.861   6.692   4.478  0.8331 -0.1227 -0.1320
   15MOL0     H 1968   9.222   6.650   4.244  0.6555  1.4398 -0.1530
   15MOL0     H 1969   9.440   6.716   4.265  0.0195  0.5386  0.6860
   15MOL0     H 1970   9.661   6.742   4.319 -2.2182 -1.4286 -0.9679
   15MOL0     H 1971   9.717   6.570   4.317 -2.7150 -1.0454  1.0407
   15MOL0     H 1972   9.794   6.761   4.547 -1.3872  1.2801 -0.8191
   15MOL0     H 1973   9.866   6.605   4.495  4.8280  1.7101 -1.7398
   15MOL0     H 1974   9.866   6.857   4.325  0.7395  0.0803  0.0667
   15MOL0     H 1975   9.934   6.704   4.285 -2.6753 -0.2882 -1.3187
   15MOL0     H 1976  10.015   6.899   4.511  1.1403  0.9044 -0.4420
   15MOL0     H 1977  10.064   6.725   4.519 -0.3398 -0.4827  0.3366
   15MOL0     H 1978  10.334   6.936   4.253 -1.5228  2.1315 -0.2625
   15MOL0     H 1979   9.480   6.466   4.614  0.7147 -0.1431 -0.8615
   15MOL0     H 1980   9.237   6.417   4.603  1.4458  0.0612  0.1938
   16MOL0     O 1981   0.550   9.953  11.351  0.5733 -0.3227  0.0973
   16MOL0     C 1982   0.670   9.944  11.377 -0.4902  0.6437  0.7502
   16MOL0     O 1983   0.722   9.881  11.482 -0.6675  1.0478  0.3213
   16MOL0     C 1984   0.640   9.833  11.575 -0.8846 -0.1628  0.1172
   16MOL0     C 1985   0.641   9.702  11.592  0.1182  2.0197  0.0468
   16MOL0     C 1986   0.557   9.648  11.687  0.4390 -0.0185 -0.4803
   16MOL0     C 1987   0.470   9.722  11.768  0.6148 -0.4733 -0.1218
   16MOL0     O 1988   0.414   9.647  11.868 -0.0173 -0.0116  0.0461
   16MOL0     C 1989   0.312   9.715  11.941  1.1899 -0.5019  0.3494
   16MOL0     C 1990   0.238   9.601  12.010 -0.4344  0.4902 -1.2293
   16MOL0     C 1991   0.183   9.629  12.159  0.7699  0.6054  0.0481
   16MOL0     C 1992   0.071   9.532  12.197  0.5623  0.0216 -0.3266
   16MOL0     C 1993  -0.073   9.576  12.131 -0.1961  0.4570  0.2975
   16MOL0     C 1994  -0.157   9.458  12.063  0.0836 -0.0134 -0.3162
   16MOL0     C 1995  -0.204   9.359  12.166  0.0796  0.5975 -0.2909
   16MOL0     C 1996  -0.211   9.207  12.116 -1.0682 -0.8764  0.2282
   16MOL0     N 1997  -0.336   9.175  12.058  0.6782  0.8708 -0.1024
   16MOL0     C 1998  -0.434   9.251  11.997  0.5594 -0.2056  0.7438
   16MOL0     C 1999  -0.544   9.160  11.992  0.2392 -0.3883 -0.3767
   16MOL0     C 2000  -0.686   9.199  11.946 -0.6328  0.2627  1.0131
   16MOL0     C 2001  -0.755   9.092  11.865  1.4182  0.3924 -0.8254
   16MOL0     C 2002  -0.886   9.157  11.812  0.4876 -0.3422  0.9138
   16MOL0     C 2003  -1.009   9.059  11.804 -0.4967  1.0373 -0.4286
   16MOL0     O 2004  -1.074   9.041  11.936 -0.3132  0.5742  0.2949
   16MOL0     C 2005  -1.191   8.975  11.939 -0.6422 -0.4588  0.2777
   16MOL0     C 2006  -1.262   8.970  12.054  0.1376  0.5772  0.0390
   16MOL0     C 2007  -1.381   8.897  12.062 -0.0679 -0.6719  0.1112
   16MOL0     C 2008  -1.429   8.825  11.953 -0.1867  0.1230 -0.0935
   16MOL0     C 2009  -1.569   8.775  11.955 -0.3439  0.6859 -0.1297
   16MOL0     O 2010  -1.637   8.764  11.837 -0.4495 -1.4307 -0.3704
   16MOL0     C 2011  -1.768   8.743  11.858  0.8186 -0.9354  0.4945
   16MOL0     C 2012  -1.855   8.852  11.873 -0.0241  0.3177  0.4122
   16MOL0     C 2013  -1.995   8.830  11.866  0.6797  0.5245 -0.4778
   16MOL0     C 2014  -2.048   8.705  11.832  0.7681 -0.1983  0.2817
   16MOL0     O 2015  -2.186   8.705  11.822 -0.3358 -0.4152 -0.4110
   16MOL0     C 2016  -2.255   8.582  11.793 -0.0173  1.1205 -0.2250
   16MOL0     C 2017  -2.402   8.619  11.802  0.7179  0.0055 -0.3888
   16MOL0     C 2018  -2.497   8.511  11.755 -0.1154  0.4314 -0.1225
   16MOL0     C 2019  -2.646   8.555  11.776 -0.3579  0.0691  1.2363
   16MOL0     C 2020  -2.742   8.436  11.738  0.0343 -1.8968 -0.2098
   16MOL0     C 2021  -2.891   8.477  11.746  0.2243  0.4827 -0.5933
   16MOL0     C 2022  -2.929   8.599  11.664 -0.3865 -0.9668 -0.1007
   16MOL0     C 2023  -3.077   8.632  11.661 -0.4464  0.4372  0.3718
   16MOL0    Cl 2024  -3.180   8.488  11.617  0.2394  0.3669  0.2209
   16MOL0     C 2025  -1.960   8.597  11.830 -0.1080  0.4580 -0.6621
   16MOL0     C 2026  -1.822   8.618  11.846 -0.2948  0.3444  0.6378
   16MOL0     O 2027  -1.618   8.764  12.065  0.1414 -0.3429  0.2956
   16MOL0     C 2028  -1.367   8.830  11.832  1.0994 -0.2930  0.4157
   16MOL0     C 2029  -1.241   8.903  11.828  0.3502  0.5118  0.0366
   16MOL0     N 2030  -0.501   9.037  12.026  0.7264 -0.6486 -0.1365
   16MOL0     N 2031  -0.378   9.051  12.055  0.0747 -0.2608 -0.1577
   16MOL0     C 2032   0.481   9.863  11.760  0.1730  0.0161  0.4608
   16MOL0     C 2033   0.563   9.922  11.655 -0.0710  0.8122  0.1357
   16MOL0     C 2034   0.767  10.005  11.284 -0.5470  0.3529  1.1277
   16MOL0     C 2035   0.860  10.095  11.333 -0.3516 -0.4750 -0.4375
   16MOL0     C 2036   0.952  10.160  11.247 -0.3481 -0.5396 -0.5942
   16MOL0     C 2037   0.943  10.134  11.114 -0.2667 -0.2777 -0.7638
   16MOL0     O 2038   1.022  10.191  11.015  1.0307  0.0304  1.0401
   16MOL0     C 2039   1.077  10.323  11.024  0.8371 -0.8022  0.0195
   16MOL0     C 2040   1.161  10.342  10.890  0.1436  0.2723 -0.1226
   16MOL0     C 2041   1.297  10.262  10.908  0.6514  0.5480 -0.5013
   16MOL0     C 2042   1.289  10.113  10.866  0.5946 -0.1065  1.0849
   16MOL0     C 2043   1.424  10.055  10.835 -0.0413  0.6304 -0.1657
   16MOL0     C 2044   1.534  10.013  10.807  0.2825 -0.0757  0.3522
   16MOL0     C 2045   0.848  10.036  11.067  0.2810  0.2905 -0.1951
   16MOL0     C 2046   0.752   9.979  11.152  0.1237 -0.3476  0.4669
   16MOL0     H 2047   0.691   9.638  11.519 -1.7264  2.3734 -1.5838
   16MOL0     H 2048   0.552   9.541  11.699  0.4376  0.2972  4.0440
   16MOL0     H 2049   0.247   9.767  11.870 -0.0944  1.0854  2.5627
   16MOL0     H 2050   0.352   9.793  12.006 -0.2962 -0.0592  0.7595
   16MOL0     H 2051   0.294   9.508  12.015 -2.6838 -0.8866  2.0198
   16MOL0     H 2052   0.159   9.570  11.941  0.1501  0.8986 -2.0911
   16MOL0     H 2053   0.148   9.732  12.157 -0.2533  0.5224  4.1236
   16MOL0     H 2054   0.258   9.617  12.238 -0.1854  0.4688  0.9482
   16MOL0     H 2055   0.103   9.434  12.162 -0.4448  0.4274 -2.5242
   16MOL0     H 2056   0.075   9.546  12.306  1.6771  2.9819 -0.6657
   16MOL0     H 2057  -0.050   9.655  12.060  2.6800  2.7155  3.4502
   16MOL0     H 2058  -0.129   9.636  12.203  0.4394 -0.4977  1.6375
   16MOL0     H 2059  -0.087   9.418  11.989  2.1191  2.6382  0.0051
   16MOL0     H 2060  -0.237   9.504  12.004  0.9850  1.0871 -0.7259
   16MOL0     H 2061  -0.131   9.349  12.246  1.7500 -0.6379 -1.8859
   16MOL0     H 2062  -0.295   9.395  12.214 -2.4068 -4.3489 -0.6540
   16MOL0     H 2063  -0.170   9.136  12.189 -0.1822 -0.9699 -0.3431
   16MOL0     H 2064  -0.140   9.204  12.033  2.3899  1.0629  2.8176
   16MOL0     H 2065  -0.424   9.355  11.969 -0.6212 -0.5077 -0.9206
   16MOL0     H 2066  -0.674   9.298  11.900  1.0573 -0.4568 -0.2088
   16MOL0     H 2067  -0.748   9.218  12.034 -1.4350 -0.1496  0.5429
   16MOL0     H 2068  -0.778   9.005  11.927  1.4087 -0.6334 -2.2082
   16MOL0     H 2069  -0.697   9.058  11.778  1.1425 -1.4774 -0.3349
   16MOL0     H 2070  -0.916   9.230  11.888  0.0509 -2.0953  2.5006
   16MOL0     H 2071  -0.855   9.185  11.711  1.6407 -3.5805  0.2748
   16MOL0     H 2072  -0.971   8.962  11.768  0.5318  1.7934 -1.4785
   16MOL0     H 2073  -1.072   9.100  11.724 -0.5420  1.7910 -0.0108
   16MOL0     H 2074  -1.216   9.023  12.136  1.5174 -0.6433  0.0943
   16MOL0     H 2075  -1.425   8.900  12.161 -0.7696  1.2927 -0.2168
   16MOL0     H 2076  -1.811   8.951  11.882 -1.1120  0.6951  2.1901
   16MOL0     H 2077  -2.067   8.911  11.876  0.8702  0.5767  0.6190
   16MOL0     H 2078  -2.219   8.506  11.862  0.2217  0.8921 -0.5967
   16MOL0     H 2079  -2.240   8.544  11.692 -1.8717 -0.5845  0.0865
   16MOL0     H 2080  -2.419   8.707  11.739  0.3844  0.3968  0.2303
   16MOL0     H 2081  -2.424   8.648  11.905 -0.5438 -1.3541 -0.2455
   16MOL0     H 2082  -2.478   8.426  11.820 -1.4745 -1.2766 -1.8282
   16MOL0     H 2083  -2.468   8.482  11.654  2.5802  0.8424  0.4569
   16MOL0     H 2084  -2.681   8.582  11.876 -0.6258  4.1518  0.2289
   16MOL0     H 2085  -2.662   8.639  11.707 -0.3268 -3.3709 -3.4964
   16MOL0     H 2086  -2.727   8.341  11.789  2.1353 -2.3314 -1.5297
   16MOL0     H 2087  -2.733   8.407  11.633 -2.7666 -0.3544 -0.9896
   16MOL0     H 2088  -2.935   8.493  11.845 -3.7872 -2.9300 -1.5134
   16MOL0     H 2089  -2.954   8.397  11.705  1.7273 -0.0550 -1.9169
   16MOL0     H 2090  -2.883   8.686  11.711 -0.3911 -2.6362  3.2703
   16MOL0     H 2091  -2.894   8.579  11.562  1.1546 -0.9171  0.3891
   16MOL0     H 2092  -3.079   8.721  11.597 -1.9233 -0.3274 -0.7127
   16MOL0     H 2093  -3.117   8.661  11.759 -0.3574 -0.4583  0.6841
   16MOL0     H 2094  -2.002   8.497  11.822 -0.0084  0.4936 -1.9349
   16MOL0     H 2095  -1.750   8.538  11.832 -1.3088 -0.4056 -0.6918
   16MOL0     H 2096  -1.408   8.790  11.740 -0.7386  3.5389 -0.6366
   16MOL0     H 2097  -1.192   8.903  11.731 -2.8628 -5.3634 -2.1060
   16MOL0     H 2098   0.430   9.911  11.842 -3.2785 -2.0855 -0.2794
   16MOL0     H 2099   0.595  10.025  11.645  4.0985 -0.3892 -0.9261
   16MOL0     H 2100   0.873  10.126  11.436  2.0487  2.0487 -1.3633
   16MOL0     H 2101   1.014  10.238  11.288  4.3785 -4.3106  0.3068
   16MOL0     H 2102   1.132  10.344  11.117 -1.0718  1.0343  0.8261
   16MOL0     H 2103   0.988  10.385  11.035 -0.4058 -2.4158 -0.5851
   16MOL0     H 2104   1.112  10.294  10.805 -1.3252  0.1085  0.7680
   16MOL0     H 2105   1.186  10.443  10.859 -2.0418  2.2698  3.8014
   16MOL0     H 2106   1.328  10.254  11.012 -0.5345 -0.8396 -0.2165
   16MOL0     H 2107   1.372  10.309  10.844  1.5339 -0.2375 -0.0754
   16MOL0     H 2108   1.226  10.058  10.936 -0.7936  1.7672  1.3916
   16MOL0     H 2109   1.237  10.094  10.772 -0.7648  0.9841  1.5703
   16MOL0     H 2110   1.631   9.976  10.777 -0.2620 -0.6178 -0.8144
   16MOL0     H 2111   0.839  10.039  10.959 -0.9604  3.5352 -0.1113
   16MOL0     H 2112   0.675   9.922  11.101 -1.8554  1.5642  1.1203
   17MOL0     O 2113   5.479   6.383   8.661  0.9933 -0.4535  0.2509
   17MOL0     C 2114   5.428   6.498   8.638 -0.1570  0.5148 -0.5469
   17MOL0     O 2115   5.499   6.607   8.602 -0.2158 -0.5946 -0.6378
   17MOL0     C 2116   5.632   6.601   8.568  0.2904  0.2460 -0.3547
   17MOL0     C 2117   5.731   6.553   8.651 -0.7627 -0.6154 -1.3193
   17MOL0     C 2118   5.871   6.550   8.618 -0.2797  0.0618 -0.7058
   17MOL0     C 2119   5.906   6.596   8.502 -0.5726 -0.8140  0.0010
   17MOL0     O 2120   6.030   6.569   8.458  0.1617 -0.3079 -0.4013
   17MOL0     C 2121   6.061   6.556   8.320  1.1118 -0.0840  0.5838
   17MOL0     C 2122   6.196   6.485   8.309 -0.0573 -0.5613 -0.0794
   17MOL0     C 2123   6.249   6.468   8.169  0.9887  0.6836 -0.6933
   17MOL0     C 2124   6.366   6.371   8.165  0.1865  0.1425 -0.8994
   17MOL0     C 2125   6.500   6.436   8.112  0.8718 -0.9946  0.2488
   17MOL0     C 2126   6.607   6.338   8.079 -0.1945  0.5708 -1.0565
   17MOL0     C 2127   6.754   6.380   8.095  0.3875 -0.0834 -0.3874
   17MOL0     C 2128   6.834   6.340   7.971 -0.1390  0.0826  0.4454
   17MOL0     N 2129   6.801   6.421   7.858 -0.1656  0.4211  0.6465
   17MOL0     C 2130   6.705   6.391   7.769  0.8937 -0.1382  0.1802
   17MOL0     C 2131   6.692   6.497   7.689 -0.1992 -0.6983 -0.4246
   17MOL0     C 2132   6.601   6.516   7.569  0.9495 -0.0298  0.3202
   17MOL0     C 2133   6.459   6.566   7.607 -0.5719  0.2276 -0.5529
   17MOL0     C 2134   6.408   6.485   7.717 -0.3075 -0.6380 -0.7332
   17MOL0     C 2135   6.260   6.504   7.753 -0.0707 -0.7360 -0.4234
   17MOL0     O 2136   6.244   6.637   7.815  0.0438  0.3076  0.1171
   17MOL0     C 2137   6.140   6.716   7.776  0.3086 -0.5717  0.1071
   17MOL0     C 2138   6.030   6.669   7.710  0.9832  0.5495  0.2837
   17MOL0     C 2139   5.939   6.762   7.660 -0.6340 -0.0203  0.7734
   17MOL0     C 2140   5.955   6.897   7.677  0.6259 -0.3641  0.6252
   17MOL0     C 2141   5.856   6.989   7.620  0.0771  0.2371  0.0046
   17MOL0     O 2142   5.725   6.944   7.606  0.3164 -0.1937 -0.0364
   17MOL0     C 2143   5.639   7.029   7.529 -0.0831 -0.4855  0.9157
   17MOL0     C 2144   5.664   7.086   7.405  0.4035 -0.1163 -0.0943
   17MOL0     C 2145   5.571   7.171   7.338 -0.2862 -0.7753  0.0659
   17MOL0     C 2146   5.451   7.200   7.396  0.1595 -0.0948 -0.3674
   17MOL0     O 2147   5.355   7.286   7.338  0.4278 -0.3023  0.1514
   17MOL0     C 2148   5.402   7.419   7.294  0.1644 -0.1317 -0.5910
   17MOL0     C 2149   5.422   7.521   7.415  0.0796 -0.4185 -0.5028
   17MOL0     C 2150   5.295   7.554   7.495 -0.6923 -0.2575  0.6112
   17MOL0     C 2151   5.237   7.443   7.578 -0.8641  0.1582  0.4001
   17MOL0     C 2152   5.184   7.501   7.712 -0.0739 -0.1865 -0.8447
   17MOL0     C 2153   5.063   7.592   7.682  0.1621 -0.6879  0.3452
   17MOL0     C 2154   4.944   7.552   7.588 -0.6200  0.6572 -0.6380
   17MOL0     C 2155   4.901   7.412   7.625  0.4885 -0.1711 -0.3711
   17MOL0    Cl 2156   4.759   7.353   7.530 -0.0450 -0.3377 -0.1361
   17MOL0     C 2157   5.417   7.140   7.518 -0.2063 -0.3374  0.0782
   17MOL0     C 2158   5.508   7.050   7.575  0.1395 -0.1464 -0.0048
   17MOL0     O 2159   5.899   7.108   7.598 -0.5582 -0.2658  0.1331
   17MOL0     C 2160   6.045   6.943   7.777 -0.7120  0.5582 -0.0466
   17MOL0     C 2161   6.144   6.848   7.809 -0.3913 -0.4314 -0.2097
   17MOL0     N 2162   6.786   6.591   7.727  0.7817 -0.8699  0.2522
   17MOL0     N 2163   6.854   6.547   7.826  0.1587  0.5072 -0.2204
   17MOL0     C 2164   5.823   6.650   8.411  0.2560  0.0024  0.4742
   17MOL0     C 2165   5.682   6.654   8.447 -0.6774  0.3704 -0.0840
   17MOL0     C 2166   5.280   6.499   8.624 -1.0237  0.0197  0.1646
   17MOL0     C 2167   5.218   6.505   8.501 -0.2336  0.4875  0.1968
   17MOL0     C 2168   5.078   6.509   8.507  0.9026 -0.2412  0.0073
   17MOL0     C 2169   5.007   6.497   8.630 -0.2670  0.2140  0.2253
   17MOL0     O 2170   4.874   6.513   8.643  0.1846  0.3823 -0.1031
   17MOL0     C 2171   4.779   6.449   8.555 -0.2217 -0.1203 -0.4209
   17MOL0     C 2172   4.631   6.464   8.588  0.7544 -0.0569  0.2276
   17MOL0     C 2173   4.605   6.617   8.563  0.6775  0.4438 -0.1922
   17MOL0     C 2174   4.471   6.666   8.611  0.0629  0.3892 -0.4631
   17MOL0     C 2175   4.469   6.705   8.751  0.5429  0.0129  0.2053
   17MOL0     C 2176   4.468   6.743   8.865 -0.0603  0.9771 -0.6437
   17MOL0     C 2177   5.073   6.485   8.752 -0.0246  0.1659  0.0973
   17MOL0     C 2178   5.203   6.486   8.747  0.0169  0.1339 -0.4454
   17MOL0     H 2179   5.697   6.530   8.752 -0.3713  1.3180 -0.6985
   17MOL0     H 2180   5.942   6.494   8.678  2.5305 -1.1183 -4.6929
   17MOL0     H 2181   6.065   6.646   8.258 -0.5070  1.1801  2.1910
   17MOL0     H 2182   5.986   6.491   8.275  1.6788 -2.2048  2.5139
   17MOL0     H 2183   6.192   6.386   8.356  4.5269 -1.2102 -0.6801
   17MOL0     H 2184   6.263   6.543   8.373 -3.1032  1.5607  1.4663
   17MOL0     H 2185   6.268   6.565   8.123 -0.6304  1.5096  0.2853
   17MOL0     H 2186   6.174   6.416   8.109  2.5279 -1.0786 -1.1887
   17MOL0     H 2187   6.380   6.331   8.266  0.2810 -0.3131 -1.0888
   17MOL0     H 2188   6.347   6.288   8.097  1.4736  0.9250 -2.2614
   17MOL0     H 2189   6.539   6.514   8.179 -1.2567 -0.6916  1.2203
   17MOL0     H 2190   6.484   6.497   8.023 -1.5355 -0.7247  0.8043
   17MOL0     H 2191   6.581   6.280   7.989  1.0475 -1.1207 -0.3741
   17MOL0     H 2192   6.602   6.269   8.163  1.1047  0.8759 -0.7094
   17MOL0     H 2193   6.766   6.485   8.123  4.0625 -0.4610 -0.1868
   17MOL0     H 2194   6.797   6.340   8.187 -1.9179  0.4796  1.0445
   17MOL0     H 2195   6.827   6.236   7.937 -1.8578 -0.0704  1.1704
   17MOL0     H 2196   6.941   6.358   7.987  0.6206 -0.1272 -3.5248
   17MOL0     H 2197   6.642   6.303   7.762  0.6237  0.0163  0.6241
   17MOL0     H 2198   6.594   6.419   7.518  0.4592  0.4078 -0.4692
   17MOL0     H 2199   6.635   6.594   7.499 -1.0471  0.9991  0.4211
   17MOL0     H 2200   6.394   6.551   7.521 -1.1327  0.9522 -0.2666
   17MOL0     H 2201   6.471   6.673   7.630 -0.2016  0.3838 -1.4254
   17MOL0     H 2202   6.415   6.380   7.689 -0.2065 -0.7756 -0.2043
   17MOL0     H 2203   6.463   6.497   7.811  0.8315 -2.6690 -1.0822
   17MOL0     H 2204   6.226   6.423   7.818 -1.2066  0.0308 -0.0172
   17MOL0     H 2205   6.201   6.496   7.661  1.1891 -0.9416 -1.2358
   17MOL0     H 2206   6.003   6.565   7.700  1.1145  0.6911 -2.2467
   17MOL0     H 2207   5.863   6.709   7.604  0.6832 -0.8117 -0.3219
   17MOL0     H 2208   5.764   7.079   7.363  0.9518  0.7521  1.0283
   17MOL0     H 2209   5.601   7.236   7.257  1.7962  1.0069  2.1458
   17MOL0     H 2210   5.315   7.456   7.237 -0.0217 -0.6385 -0.6409
   17MOL0     H 2211   5.485   7.419   7.223 -0.3827  1.3909 -1.2795
   17MOL0     H 2212   5.454   7.610   7.360  1.7981 -1.6521 -1.6185
   17MOL0     H 2213   5.502   7.483   7.478  1.2075 -2.8853 -3.1723
   17MOL0     H 2214   5.228   7.595   7.418  0.7143  1.3042  0.1477
   17MOL0     H 2215   5.312   7.649   7.546 -2.9617  0.6753 -0.2268
   17MOL0     H 2216   5.163   7.386   7.520  3.2064 -0.7852 -4.5898
   17MOL0     H 2217   5.319   7.374   7.601 -1.7516 -1.1695 -0.2630
   17MOL0     H 2218   5.261   7.563   7.759  1.0788 -1.7688 -0.5578
   17MOL0     H 2219   5.157   7.416   7.776  1.3398 -1.0264 -1.3083
   17MOL0     H 2220   5.114   7.680   7.643 -2.5611  0.3172 -1.2065
   17MOL0     H 2221   5.021   7.612   7.781 -0.3527 -2.2301  0.4704
   17MOL0     H 2222   4.856   7.607   7.623  0.1740  0.1057  2.6165
   17MOL0     H 2223   4.955   7.563   7.480 -0.9908  1.5042 -0.5969
   17MOL0     H 2224   4.888   7.413   7.734  1.6147  2.2656 -0.1814
   17MOL0     H 2225   4.989   7.349   7.605  2.0253  1.7058  0.1715
   17MOL0     H 2226   5.322   7.159   7.566  0.7168  1.2998  1.3525
   17MOL0     H 2227   5.489   7.005   7.672  1.5718 -3.3274 -1.0748
   17MOL0     H 2228   6.048   7.050   7.794  4.4749  0.3534  1.8711
   17MOL0     H 2229   6.223   6.878   7.877  1.5348  0.3797 -2.6446
   17MOL0     H 2230   5.862   6.681   8.315  3.0161 -0.9015  1.2230
   17MOL0     H 2231   5.610   6.706   8.384  2.1043  1.3205 -2.7244
   17MOL0     H 2232   5.273   6.516   8.408 -1.1528  1.5669 -0.2434
   17MOL0     H 2233   5.015   6.547   8.428  0.4865 -0.2915  0.3115
   17MOL0     H 2234   4.800   6.341   8.548  0.8478  0.1116 -0.9452
   17MOL0     H 2235   4.793   6.484   8.452 -1.0280 -2.3741 -1.3755
   17MOL0     H 2236   4.574   6.415   8.508  1.2762 -0.5571  0.1465
   17MOL0     H 2237   4.599   6.427   8.685  1.1762  1.4743  0.9723
   17MOL0     H 2238   4.619   6.648   8.459  0.0852  1.8654  0.1318
   17MOL0     H 2239   4.684   6.681   8.605  1.0204  0.4594 -0.8457
   17MOL0     H 2240   4.437   6.747   8.546 -3.9685 -1.9073 -1.5887
   17MOL0     H 2241   4.393   6.591   8.595  1.0040 -0.2910 -2.2992
   17MOL0     H 2242   4.483   6.774   8.966  1.1028  0.6437 -0.6937
   17MOL0     H 2243   5.031   6.471   8.851 -1.1409 -1.2985 -0.5240
   17MOL0     H 2244   5.246   6.471   8.846  0.4946  1.6780 -0.3908
   18MOL0     O 2245   5.482   3.456   0.576  0.5442 -0.0255 -0.9262
   18MOL0     C 2246   5.448   3.340   0.553 -0.1768  0.2042 -0.1913
   18MOL0     O 2247   5.331   3.287   0.602 -0.2348  0.9490  0.7791
   18MOL0     C 2248   5.229   3.364   0.640  0.4666  0.7213  1.0684
   18MOL0     C 2249   5.237   3.480   0.720 -0.6802 -0.0128 -0.5930
   18MOL0     C 2250   5.131   3.557   0.735 -0.2159 -0.3476  0.1775
   18MOL0     C 2251   5.000   3.509   0.700  0.6130 -0.1380  0.3031
   18MOL0     O 2252   4.877   3.567   0.735 -0.6820 -0.3814 -0.4572
   18MOL0     C 2253   4.877   3.694   0.796  0.5675 -0.6098  0.0267
   18MOL0     C 2254   4.737   3.751   0.776 -0.2768  0.4314  0.1862
   18MOL0     C 2255   4.731   3.895   0.835  0.6248 -0.0563  0.4677
   18MOL0     C 2256   4.750   3.900   0.994 -0.8827 -0.6537  0.0723
   18MOL0     C 2257   4.668   3.803   1.075  0.3192 -0.2378  0.3816
   18MOL0     C 2258   4.655   3.832   1.223  0.1365  0.9131  0.1702
   18MOL0     C 2259   4.541   3.931   1.249 -0.0707  0.3568 -0.6014
   18MOL0     C 2260   4.401   3.860   1.287 -1.0966  0.3183 -0.3243
   18MOL0     N 2261   4.307   3.847   1.176  0.1506  0.2300  0.3671
   18MOL0     C 2262   4.305   3.752   1.080  0.7959  0.9904  0.7173
   18MOL0     C 2263   4.204   3.786   0.998  0.4211  1.1640 -0.8131
   18MOL0     C 2264   4.158   3.701   0.873 -0.6959 -0.4377 -0.1164
   18MOL0     C 2265   4.041   3.606   0.891  0.8703 -0.7188 -0.3829
   18MOL0     C 2266   3.926   3.672   0.959 -0.4638 -0.6923 -0.5178
   18MOL0     C 2267   3.798   3.589   0.957  0.3231 -0.3233 -0.3323
   18MOL0     O 2268   3.689   3.679   0.939 -0.4350  0.2695 -0.9532
   18MOL0     C 2269   3.559   3.638   0.932 -0.4209  0.0218  0.6149
   18MOL0     C 2270   3.469   3.745   0.906  1.5044 -0.7992 -0.4739
   18MOL0     C 2271   3.332   3.714   0.869  0.3385  0.2527 -0.4202
   18MOL0     C 2272   3.293   3.580   0.862  0.3733 -0.1133  0.2605
   18MOL0     C 2273   3.156   3.550   0.819 -0.9080  0.2676  0.4608
   18MOL0     O 2274   3.087   3.644   0.741  0.0203  0.4867 -0.1585
   18MOL0     C 2275   2.977   3.598   0.659 -0.2605  0.9807  0.4657
   18MOL0     C 2276   2.860   3.673   0.658 -0.1356 -0.0978 -0.4316
   18MOL0     C 2277   2.758   3.642   0.563  0.2967  0.2021 -0.0546
   18MOL0     C 2278   2.775   3.542   0.471  1.4799  0.3885 -0.3252
   18MOL0     O 2279   2.678   3.502   0.388 -0.0955  0.2200  0.2671
   18MOL0     C 2280   2.596   3.605   0.323 -0.2953 -0.5285  0.3251
   18MOL0     C 2281   2.516   3.532   0.207 -0.6885 -0.4768  0.1039
   18MOL0     C 2282   2.425   3.632   0.142 -0.6381  0.5013  0.2569
   18MOL0     C 2283   2.323   3.544   0.059  0.6045 -0.7971  0.2359
   18MOL0     C 2284   2.197   3.634   0.039  0.4320  0.9002  0.7558
   18MOL0     C 2285   2.086   3.550  -0.019 -0.3931 -0.3544 -0.5052
   18MOL0     C 2286   1.965   3.639  -0.056 -0.0782  0.0458  0.3541
   18MOL0     C 2287   1.849   3.538  -0.081  1.2422  0.1333 -0.8766
   18MOL0    Cl 2288   1.685   3.618  -0.136 -0.2984 -0.4979  0.2874
   18MOL0     C 2289   2.888   3.461   0.484  0.3806 -0.0482 -0.9126
   18MOL0     C 2290   2.994   3.494   0.574 -0.4017  0.3753  1.1341
   18MOL0     O 2291   3.121   3.434   0.835  0.8159  0.6159 -0.1484
   18MOL0     C 2292   3.384   3.479   0.883 -0.2453  0.3276  0.1859
   18MOL0     C 2293   3.514   3.505   0.924 -0.5998 -0.1328  0.2591
   18MOL0     N 2294   4.139   3.892   1.049 -0.0455 -0.5685  0.1977
   18MOL0     N 2295   4.195   3.922   1.164  0.5208 -0.6828 -0.2621
   18MOL0     C 2296   4.992   3.378   0.647  0.0299  1.1261 -0.2384
   18MOL0     C 2297   5.101   3.310   0.606 -0.1577 -0.7434 -0.2712
   18MOL0     C 2298   5.558   3.245   0.503  0.1402 -0.4673 -0.8371
   18MOL0     C 2299   5.675   3.302   0.445 -0.0698  0.0045  0.4913
   18MOL0     C 2300   5.790   3.219   0.413 -0.3208  0.0255 -1.0449
   18MOL0     C 2301   5.789   3.082   0.441 -0.2040  0.2498 -0.0277
   18MOL0     O 2302   5.895   3.000   0.418 -0.2501  0.2953  0.3722
   18MOL0     C 2303   6.003   3.022   0.500 -0.0370 -0.0036  0.1439
   18MOL0     C 2304   6.126   3.008   0.412 -0.1726 -0.6976 -0.1778
   18MOL0     C 2305   6.150   3.123   0.303 -0.2662 -0.3575  0.5983
   18MOL0     C 2306   6.247   3.241   0.334  0.0657 -0.3386  0.0649
   18MOL0     C 2307   6.175   3.367   0.303  0.4120 -0.3944 -0.5642
   18MOL0     C 2308   6.134   3.479   0.298  0.8209 -0.0954  1.0197
   18MOL0     C 2309   5.680   3.034   0.503  0.4989  0.2547  1.3683
   18MOL0     C 2310   5.563   3.108   0.528  0.1636  0.2447  1.0001
   18MOL0     H 2311   5.336   3.506   0.756 -1.4600  1.6094  0.5141
   18MOL0     H 2312   5.132   3.659   0.770 -3.3905  0.9312 -2.8962
   18MOL0     H 2313   4.960   3.753   0.756 -0.0485  0.5947  0.4662
   18MOL0     H 2314   4.899   3.684   0.903  1.4095  3.4173  0.3740
   18MOL0     H 2315   4.667   3.681   0.823 -1.0497  1.7943  1.1610
   18MOL0     H 2316   4.705   3.756   0.672  0.1909 -0.0673  0.0162
   18MOL0     H 2317   4.636   3.936   0.798  1.6440  0.0896 -2.2576
   18MOL0     H 2318   4.807   3.952   0.781  0.6877 -0.3637  0.2283
   18MOL0     H 2319   4.852   3.870   1.020 -1.3898  0.9337  5.1013
   18MOL0     H 2320   4.749   4.001   1.037  2.9316 -0.9904  1.3577
   18MOL0     H 2321   4.726   3.710   1.074 -0.3410 -0.6498 -0.0395
   18MOL0     H 2322   4.574   3.785   1.022  0.2766  1.3320 -0.1275
   18MOL0     H 2323   4.751   3.868   1.260  1.3760 -2.8068  1.0544
   18MOL0     H 2324   4.629   3.737   1.272  0.3369 -0.5091 -2.2892
   18MOL0     H 2325   4.567   3.990   1.337 -2.0175  1.2226 -0.5560
   18MOL0     H 2326   4.528   3.998   1.163 -1.8159 -1.8536 -2.1677
   18MOL0     H 2327   4.361   3.914   1.373 -0.8964 -0.5041  0.3075
   18MOL0     H 2328   4.428   3.758   1.318 -2.5281 -1.5667 -4.4857
   18MOL0     H 2329   4.365   3.663   1.062 -3.1033 -1.4979 -1.2265
   18MOL0     H 2330   4.241   3.632   0.858  0.2914  0.0606  2.4452
   18MOL0     H 2331   4.134   3.775   0.796  1.0362 -0.2012 -0.4623
   18MOL0     H 2332   4.078   3.527   0.958 -0.4738  1.3227  2.9853
   18MOL0     H 2333   3.998   3.564   0.800 -0.0462 -2.5587  0.8373
   18MOL0     H 2334   3.955   3.683   1.063  1.0330  2.7633 -1.1747
   18MOL0     H 2335   3.905   3.768   0.911 -1.9911 -1.7740 -2.1803
   18MOL0     H 2336   3.803   3.542   1.056 -0.8607  1.9683  0.9167
   18MOL0     H 2337   3.806   3.507   0.885  3.1100 -0.9821  0.6234
   18MOL0     H 2338   3.501   3.848   0.917 -2.8252  0.5892  1.3597
   18MOL0     H 2339   3.261   3.796   0.863 -1.4385 -1.2343 -0.3341
   18MOL0     H 2340   2.847   3.751   0.732 -0.0112 -1.2169  0.8021
   18MOL0     H 2341   2.676   3.713   0.559 -0.9633 -1.2326 -0.6372
   18MOL0     H 2342   2.660   3.686   0.286  0.7841 -1.3848  0.2618
   18MOL0     H 2343   2.521   3.642   0.393 -1.1231  0.0850 -0.8415
   18MOL0     H 2344   2.454   3.458   0.259  2.3077 -3.3947 -0.1397
   18MOL0     H 2345   2.569   3.481   0.126 -1.0327 -2.2490  0.9499
   18MOL0     H 2346   2.481   3.700   0.077  1.3087 -0.2391  1.0780
   18MOL0     H 2347   2.374   3.686   0.222 -1.5115  0.0629  0.0146
   18MOL0     H 2348   2.370   3.517  -0.035  2.2556 -1.1999  1.1347
   18MOL0     H 2349   2.294   3.463   0.127  1.9421 -2.3846 -1.0262
   18MOL0     H 2350   2.217   3.714  -0.033  2.0040 -0.8180 -0.8508
   18MOL0     H 2351   2.162   3.667   0.137  0.0296 -2.5670  1.9271
   18MOL0     H 2352   2.064   3.491   0.071  5.0843 -0.7064  0.9224
   18MOL0     H 2353   2.113   3.491  -0.106 -0.4498 -1.2034  0.0393
   18MOL0     H 2354   1.948   3.707   0.027  0.9690 -1.9635  2.3269
   18MOL0     H 2355   1.976   3.700  -0.146 -4.1952  1.4949  0.6181
   18MOL0     H 2356   1.838   3.497   0.019 -0.1273 -1.1517 -1.5217
   18MOL0     H 2357   1.876   3.463  -0.156 -0.3075  0.6616 -2.0338
   18MOL0     H 2358   2.892   3.369   0.425 -4.1410 -0.7399 -0.5738
   18MOL0     H 2359   3.091   3.445   0.576  0.2286  1.1249 -2.6141
   18MOL0     H 2360   3.363   3.373   0.869  3.9073 -0.8202  1.0210
   18MOL0     H 2361   3.579   3.420   0.943 -1.6868 -0.9118  0.5453
   18MOL0     H 2362   4.897   3.326   0.638 -0.6345  1.9641  1.4571
   18MOL0     H 2363   5.085   3.216   0.554  0.5611 -0.8111 -0.3826
   18MOL0     H 2364   5.693   3.406   0.424  0.0201 -0.3946 -1.7040
   18MOL0     H 2365   5.874   3.266   0.362  0.2438  0.5653  0.3191
   18MOL0     H 2366   6.014   2.962   0.590  0.6321  0.6856  0.5280
   18MOL0     H 2367   5.998   3.126   0.534  0.5103 -0.5740  2.0738
   18MOL0     H 2368   6.207   2.987   0.482 -1.3984  0.6747  1.7562
   18MOL0     H 2369   6.112   2.915   0.356  1.1726  0.6024 -2.8173
   18MOL0     H 2370   6.054   3.169   0.278  0.9210  2.7370  1.2685
   18MOL0     H 2371   6.197   3.080   0.214  1.4345  2.3599  0.0492
   18MOL0     H 2372   6.281   3.232   0.438 -0.4553 -0.7431  0.2066
   18MOL0     H 2373   6.341   3.238   0.279 -1.3454  0.1187 -2.5092
   18MOL0     H 2374   6.086   3.574   0.288  0.8007 -0.1842  0.1322
   18MOL0     H 2375   5.672   2.927   0.517 -0.4555  0.2027  0.5267
   18MOL0     H 2376   5.475   3.064   0.574  0.1984  0.5527  1.3652
   19MOL0     O 2377   3.084   8.764  11.135  0.4889  0.5958 -0.2134
   19MOL0     C 2378   3.107   8.716  11.026  0.2606  0.0126  0.4444
   19MOL0     O 2379   3.202   8.755  10.937  0.1922 -0.1849 -0.3560
   19MOL0     C 2380   3.314   8.831  10.973  0.5278  0.0410  0.7927
   19MOL0     C 2381   3.429   8.796  10.898  0.0578 -0.3277 -0.5574
   19MOL0     C 2382   3.551   8.840  10.938 -0.2620 -0.4414 -0.2613
   19MOL0     C 2383   3.562   8.946  11.023 -0.3351 -0.0504  0.3732
   19MOL0     O 2384   3.673   9.005  11.071 -0.0408 -0.1844  1.0059
   19MOL0     C 2385   3.788   9.007  10.985  0.1579  0.7599 -0.2412
   19MOL0     C 2386   3.758   9.139  10.902 -0.2909  0.1668  0.4077
   19MOL0     C 2387   3.884   9.217  10.873 -0.7644  0.1989 -0.0932
   19MOL0     C 2388   3.982   9.140  10.782 -1.0901  0.3560 -0.0701
   19MOL0     C 2389   3.960   9.148  10.637 -0.1305 -0.2754  0.9854
   19MOL0     C 2390   4.033   9.271  10.563  0.7306 -0.5614 -0.9830
   19MOL0     C 2391   4.002   9.277  10.408 -0.6279  0.4412  0.1653
   19MOL0     C 2392   3.865   9.334  10.372  0.3923 -0.3907  0.2748
   19MOL0     N 2393   3.851   9.332  10.221 -0.1595  0.6055  0.1823
   19MOL0     C 2394   3.931   9.407  10.137  0.2242  0.5033  0.2950
   19MOL0     C 2395   3.859   9.414  10.023 -0.2015  0.6514 -0.2513
   19MOL0     C 2396   3.893   9.485   9.906 -0.3796  0.5458  0.7276
   19MOL0     C 2397   4.011   9.438   9.829  0.2287 -0.1034  0.0724
   19MOL0     C 2398   3.984   9.299   9.775 -0.0026  0.3348  0.1580
   19MOL0     C 2399   4.086   9.256   9.679  0.6925 -0.8673  0.2757
   19MOL0     O 2400   4.066   9.320   9.555 -0.5429  0.2970 -0.6270
   19MOL0     C 2401   4.158   9.304   9.449  0.2342 -0.6093 -1.5282
   19MOL0     C 2402   4.283   9.246   9.465 -0.8155 -0.1979  0.1453
   19MOL0     C 2403   4.368   9.242   9.350  0.8062 -0.1168  0.6365
   19MOL0     C 2404   4.325   9.294   9.225  0.7811 -0.0826 -0.2836
   19MOL0     C 2405   4.409   9.278   9.109 -0.7583  0.3137  0.1012
   19MOL0     O 2406   4.350   9.265   8.986  0.0321  0.0928  0.6699
   19MOL0     C 2407   4.429   9.197   8.898 -0.5291  0.3763 -0.4815
   19MOL0     C 2408   4.434   9.055   8.904  0.0590 -0.5299  0.0092
   19MOL0     C 2409   4.489   8.995   8.789 -0.3594 -0.0534  0.7729
   19MOL0     C 2410   4.563   9.070   8.692  0.1539  0.7080  1.6410
   19MOL0     O 2411   4.619   9.008   8.584  0.3904  0.1298  0.7255
   19MOL0     C 2412   4.742   8.946   8.616  0.2671  0.8791  0.4568
   19MOL0     C 2413   4.855   8.965   8.513 -0.2226 -0.7485  0.2784
   19MOL0     C 2414   4.835   8.911   8.367  0.5697  0.0864  1.0563
   19MOL0     C 2415   4.703   8.960   8.300  0.2003 -0.6362  0.2206
   19MOL0     C 2416   4.721   8.975   8.149  1.2269 -0.1594 -0.2956
   19MOL0     C 2417   4.788   8.869   8.070  0.1974  0.2580 -0.2362
   19MOL0     C 2418   4.814   8.919   7.924 -0.2815  0.0927 -0.9845
   19MOL0     C 2419   4.844   8.812   7.814 -0.4062 -0.3012  1.5044
   19MOL0    Cl 2420   4.762   8.659   7.848  0.1541  0.0072  0.2455
   19MOL0     C 2421   4.574   9.205   8.703  0.3653 -0.3899  1.3221
   19MOL0     C 2422   4.511   9.268   8.805  0.0910 -0.1611 -0.0318
   19MOL0     O 2423   4.532   9.268   9.129  0.1727  0.4900 -1.0098
   19MOL0     C 2424   4.195   9.344   9.216 -0.2246 -0.3812 -0.4476
   19MOL0     C 2425   4.113   9.358   9.328 -0.1634 -1.2410  0.5247
   19MOL0     N 2426   3.737   9.355  10.045 -0.2446 -1.3078 -0.0348
   19MOL0     N 2427   3.728   9.312  10.165 -0.1115 -0.4680 -0.0141
   19MOL0     C 2428   3.449   8.985  11.095 -0.2714  0.4400  0.0186
   19MOL0     C 2429   3.324   8.932  11.068 -0.8636 -0.2113  0.0305
   19MOL0     C 2430   3.009   8.611  10.982  0.4802  0.6378  0.2645
   19MOL0     C 2431   2.894   8.587  11.066  1.1366  0.6423 -0.4958
   19MOL0     C 2432   2.808   8.482  11.045  0.1016  0.4166 -0.5910
   19MOL0     C 2433   2.828   8.404  10.930 -0.4592 -0.9040 -0.3024
   19MOL0     O 2434   2.755   8.299  10.884  0.1459 -0.0647 -0.2960
   19MOL0     C 2435   2.624   8.283  10.952  0.4874 -0.9155  0.2584
   19MOL0     C 2436   2.542   8.167  10.904  0.3697  0.7521 -0.6287
   19MOL0     C 2437   2.596   8.038  10.968 -0.0719  0.1140 -0.7710
   19MOL0     C 2438   2.538   7.912  10.898 -0.1718  0.2544  0.7969
   19MOL0     C 2439   2.396   7.913  10.897 -0.1498 -0.1016 -0.5934
   19MOL0     C 2440   2.277   7.929  10.900 -0.1710 -0.0058 -0.1618
   19MOL0     C 2441   2.938   8.433  10.840  0.1748  0.1631 -0.2363
   19MOL0     C 2442   3.029   8.536  10.861 -0.7293 -0.2379 -0.3372
   19MOL0     H 2443   3.439   8.715  10.826  3.8248 -1.6993  1.2281
   19MOL0     H 2444   3.633   8.817  10.870 -0.0445 -1.3986  0.3079
   19MOL0     H 2445   3.801   8.925  10.914 -3.2600  2.4158 -3.0659
   19MOL0     H 2446   3.881   9.001  11.043  0.7365 -1.6776 -1.3203
   19MOL0     H 2447   3.687   9.207  10.950 -0.9072  2.2043 -3.0664
   19MOL0     H 2448   3.714   9.110  10.806  2.5817 -2.1747 -0.3521
   19MOL0     H 2449   3.944   9.245  10.959  0.7467 -0.9529 -0.7232
   19MOL0     H 2450   3.849   9.311  10.829 -1.9390 -0.1584  0.0321
   19MOL0     H 2451   4.082   9.174  10.807 -1.6033  2.3460 -0.5620
   19MOL0     H 2452   3.960   9.034  10.803 -2.5674  0.4930 -0.7910
   19MOL0     H 2453   3.852   9.163  10.630  0.0237  1.9450  2.4812
   19MOL0     H 2454   4.002   9.061  10.585 -0.2587  1.5271 -2.4096
   19MOL0     H 2455   4.141   9.256  10.573  1.1527  2.0571 -0.8979
   19MOL0     H 2456   4.010   9.364  10.616 -1.4655 -2.0785  0.9012
   19MOL0     H 2457   4.090   9.335  10.376 -2.5335  3.2414 -0.3893
   19MOL0     H 2458   4.021   9.174  10.378  0.1814  1.2274 -2.2482
   19MOL0     H 2459   3.860   9.440  10.399  3.9526 -0.1160  0.3236
   19MOL0     H 2460   3.785   9.277  10.421  0.1253  0.3903  0.7604
   19MOL0     H 2461   4.028   9.449  10.164 -0.0729  0.4777  1.4387
   19MOL0     H 2462   3.906   9.591   9.929  1.5306  1.0105 -2.0378
   19MOL0     H 2463   3.800   9.488   9.847  0.3562 -0.8404 -0.5754
   19MOL0     H 2464   4.103   9.421   9.886  0.5867  2.3153  0.3409
   19MOL0     H 2465   4.027   9.515   9.753 -0.2149  0.8310  0.9081
   19MOL0     H 2466   3.981   9.222   9.853  0.0385  3.2054  3.2196
   19MOL0     H 2467   3.888   9.309   9.725 -0.7671  0.8170  1.6669
   19MOL0     H 2468   4.071   9.151   9.654  1.2971 -0.3703 -2.4349
   19MOL0     H 2469   4.187   9.254   9.722  0.8061 -1.9484 -0.0126
   19MOL0     H 2470   4.317   9.206   9.560 -2.3840  1.4272  1.4619
   19MOL0     H 2471   4.472   9.213   9.365  0.5667 -0.8965  0.8097
   19MOL0     H 2472   4.390   9.000   8.987 -1.7424  0.8710  0.0550
   19MOL0     H 2473   4.479   8.888   8.774  0.0027 -0.3018  2.1508
   19MOL0     H 2474   4.734   8.837   8.627 -0.2424  0.6781 -1.5587
   19MOL0     H 2475   4.778   8.983   8.713  1.2334  1.3730 -0.0768
   19MOL0     H 2476   4.944   8.913   8.549 -1.5038 -0.4944  4.2790
   19MOL0     H 2477   4.882   9.071   8.515  1.3242 -0.8167 -4.3643
   19MOL0     H 2478   4.841   8.802   8.361 -2.1251 -0.0550 -0.2241
   19MOL0     H 2479   4.917   8.933   8.298 -0.9536  1.4554 -0.4036
   19MOL0     H 2480   4.627   8.886   8.324 -2.4009  0.8557 -2.6497
   19MOL0     H 2481   4.675   9.056   8.344 -2.4858 -1.7290  1.1112
   19MOL0     H 2482   4.795   9.055   8.145  0.7932  0.3501  0.9865
   19MOL0     H 2483   4.620   9.002   8.117  1.3728  0.1545 -0.4951
   19MOL0     H 2484   4.725   8.780   8.061 -1.9078  1.7541 -1.3182
   19MOL0     H 2485   4.885   8.840   8.111 -0.4866  0.1559  1.3963
   19MOL0     H 2486   4.723   8.975   7.898  1.1359  2.0851 -1.9160
   19MOL0     H 2487   4.901   8.985   7.928 -0.2618  0.0533 -0.7176
   19MOL0     H 2488   4.953   8.807   7.803 -0.1586  1.9936  2.2618
   19MOL0     H 2489   4.797   8.849   7.723  2.0701  0.8294  0.5927
   19MOL0     H 2490   4.632   9.265   8.634  0.6303  0.6568  2.4095
   19MOL0     H 2491   4.517   9.375   8.818  2.8201 -0.2703  0.1416
   19MOL0     H 2492   4.171   9.384   9.118 -0.7928 -1.2931 -0.6891
   19MOL0     H 2493   4.014   9.402   9.320  1.0271  1.6339  0.6295
   19MOL0     H 2494   3.461   9.054  11.178  0.4806 -1.8090  1.8969
   19MOL0     H 2495   3.229   8.966  11.109 -0.9991  1.0296 -1.2330
   19MOL0     H 2496   2.881   8.644  11.157  0.2637 -2.1054  1.2101
   19MOL0     H 2497   2.721   8.470  11.109 -1.7764  2.6609 -2.5294
   19MOL0     H 2498   2.571   8.375  10.922 -1.5814 -2.2410 -0.3860
   19MOL0     H 2499   2.641   8.282  11.060  0.6655  1.5483  0.3154
   19MOL0     H 2500   2.438   8.176  10.938  0.6153  0.9677  0.0775
   19MOL0     H 2501   2.545   8.165  10.795  0.3762 -2.1295 -0.6485
   19MOL0     H 2502   2.552   8.051  11.067 -0.6108  0.5230 -1.0574
   19MOL0     H 2503   2.704   8.028  10.983  0.3422  2.4286 -1.7424
   19MOL0     H 2504   2.574   7.906  10.795 -1.3420 -2.4705  0.4664
   19MOL0     H 2505   2.567   7.824  10.957 -0.5986  0.0564  0.7147
   19MOL0     H 2506   2.172   7.949  10.907 -0.6221 -1.6863 -1.3537
   19MOL0     H 2507   2.943   8.367  10.754  2.9713 -0.7139  0.4780
   19MOL0     H 2508   3.118   8.561  10.804 -0.0592 -0.5172  0.5603
   20MOL0     O 2509   8.733   6.327  10.948 -0.1668  0.4475  0.4804
   20MOL0     C 2510   8.727   6.443  10.899 -0.8237 -0.3227 -0.4295
   20MOL0     O 2511   8.677   6.478  10.783  0.4229  0.4168  0.7508
   20MOL0     C 2512   8.611   6.387  10.701 -0.8014 -0.5456 -1.1946
   20MOL0     C 2513   8.480   6.410  10.664 -0.0938 -0.0521  1.2836
   20MOL0     C 2514   8.404   6.320  10.580  0.1727 -0.3074  0.0580
   20MOL0     C 2515   8.460   6.193  10.546  0.3383  1.0847  0.5478
   20MOL0     O 2516   8.399   6.090  10.467 -0.2682  0.4530  0.1142
   20MOL0     C 2517   8.269   6.121  10.406  1.2704  0.7512  0.4189
   20MOL0     C 2518   8.158   6.098  10.518 -0.3125 -0.6136  0.2908
   20MOL0     C 2519   8.017   6.150  10.476 -0.2183 -0.1411 -0.5644
   20MOL0     C 2520   7.966   6.078  10.349  0.7655  0.4118  0.0612
   20MOL0     C 2521   7.830   6.119  10.313 -1.2443 -0.5822  0.1976
   20MOL0     C 2522   7.808   6.074  10.159 -0.4409  0.0726 -0.4353
   20MOL0     C 2523   7.647   6.047  10.137  0.5341  0.5264  0.6057
   20MOL0     C 2524   7.552   6.155  10.196 -0.0967 -0.3931  0.2955
   20MOL0     N 2525   7.411   6.121  10.175 -0.0323 -0.7713 -0.3699
   20MOL0     C 2526   7.316   6.214  10.138 -0.2103 -0.3697 -1.1852
   20MOL0     C 2527   7.200   6.181  10.184 -0.1338  0.5462 -0.4594
   20MOL0     C 2528   7.086   6.281  10.200  0.3736  0.2561 -0.2710
   20MOL0     C 2529   6.947   6.230  10.239 -0.1137 -0.4214 -0.1777
   20MOL0     C 2530   6.846   6.349  10.238 -0.4309  0.3727 -0.1576
   20MOL0     C 2531   6.710   6.292  10.278  0.7707  0.0075 -0.4908
   20MOL0     O 2532   6.604   6.376  10.323  0.2800  0.3290  0.1275
   20MOL0     C 2533   6.527   6.456  10.240  0.6081  0.2223 -0.2010
   20MOL0     C 2534   6.447   6.548  10.302  0.2427 -0.1699 -0.5822
   20MOL0     C 2535   6.354   6.606  10.215  0.5596  1.2958 -0.0702
   20MOL0     C 2536   6.344   6.573  10.076 -0.2043 -0.4333  0.2865
   20MOL0     C 2537   6.232   6.618   9.990 -0.4056 -0.8257 -0.5363
   20MOL0     O 2538   6.125   6.676  10.057 -0.6037  0.3356  0.9664
   20MOL0     C 2539   6.042   6.752   9.985 -0.2573  0.1800  0.3964
   20MOL0     C 2540   5.907   6.735  10.022 -0.5851  0.6566 -0.0532
   20MOL0     C 2541   5.807   6.813   9.958  0.6553  0.6689 -1.4765
   20MOL0     C 2542   5.836   6.914   9.871  0.0097  0.7391  1.4114
   20MOL0     O 2543   5.723   6.985   9.829 -0.1639  0.1805  0.1381
   20MOL0     C 2544   5.723   7.060   9.705 -0.7538 -1.1657  0.0308
   20MOL0     C 2545   5.643   7.193   9.713  0.3660  0.3383  1.2828
   20MOL0     C 2546   5.501   7.158   9.753  0.2217  0.2882  0.1904
   20MOL0     C 2547   5.402   7.266   9.699 -0.3152 -0.3781  0.3395
   20MOL0     C 2548   5.430   7.409   9.745 -0.3114 -0.0243 -0.1777
   20MOL0     C 2549   5.301   7.489   9.718 -0.0170  0.9287  0.2858
   20MOL0     C 2550   5.304   7.550   9.581  0.0012 -0.4026 -0.0000
   20MOL0     C 2551   5.180   7.638   9.566 -0.4615  0.2536  0.2944
   20MOL0    Cl 2552   5.194   7.738   9.415  0.0516  0.2959  0.2100
   20MOL0     C 2553   5.967   6.935   9.832  0.3010  0.1277 -0.2109
   20MOL0     C 2554   6.069   6.857   9.895 -0.2079  0.1148 -0.4583
   20MOL0     O 2555   6.238   6.605   9.869  0.3527 -0.0227 -0.1358
   20MOL0     C 2556   6.441   6.495  10.016 -0.2931  0.2722 -0.0092
   20MOL0     C 2557   6.529   6.438  10.102 -0.2193  0.6870  0.0810
   20MOL0     N 2558   7.219   6.052  10.244 -0.4711  0.2470  0.5581
   20MOL0     N 2559   7.344   6.019  10.234  0.0034 -0.2395 -0.2187
   20MOL0     C 2560   8.595   6.173  10.576  0.0843  0.6984  0.2545
   20MOL0     C 2561   8.671   6.272  10.649  0.6676  0.4426  0.3952
   20MOL0     C 2562   8.805   6.552  10.966 -0.2839  0.2679  0.3486
   20MOL0     C 2563   8.888   6.518  11.073 -0.5910  0.3598  0.5914
   20MOL0     C 2564   8.974   6.619  11.128  0.5022 -0.7966  0.3089
   20MOL0     C 2565   8.991   6.743  11.070 -0.8541 -0.8003  0.7928
   20MOL0     O 2566   9.080   6.840  11.128 -0.2459  0.6372  0.6726
   20MOL0     C 2567   9.214   6.790  11.157  0.7469 -0.9033  0.4897
   20MOL0     C 2568   9.269   6.871  11.263  0.5569  0.5202 -0.6535
   20MOL0     C 2569   9.196   6.832  11.393  0.0792 -0.0572 -0.2745
   20MOL0     C 2570   9.243   6.917  11.508  0.0471 -0.2112 -0.0547
   20MOL0     C 2571   9.167   6.890  11.624  0.5743  0.6614 -1.3254
   20MOL0     C 2572   9.106   6.855  11.721  0.2173 -0.8045 -0.8004
   20MOL0     C 2573   8.906   6.778  10.957  0.1167 -0.2747 -0.0243
   20MOL0     C 2574   8.821   6.684  10.907  0.6341  0.4514 -0.7474
   20MOL0     H 2575   8.438   6.500  10.708 -0.3158  0.6729 -0.3275
   20MOL0     H 2576   8.305   6.359  10.558  0.2125  1.5399  2.6651
   20MOL0     H 2577   8.253   6.046  10.328  2.5933 -0.1850  1.0233
   20MOL0     H 2578   8.265   6.213  10.347  1.7682 -0.2683 -1.2750
   20MOL0     H 2579   8.185   6.146  10.612  0.2679 -4.3632  2.2260
   20MOL0     H 2580   8.165   5.990  10.535 -1.1997 -0.8627 -0.8022
   20MOL0     H 2581   8.021   6.256  10.450 -0.6758 -0.0504 -0.2734
   20MOL0     H 2582   7.951   6.148  10.563  0.4129  3.6919  0.1797
   20MOL0     H 2583   8.030   6.118  10.270 -3.4546 -0.4614 -4.2971
   20MOL0     H 2584   7.985   5.970  10.357  0.0368  0.3543  1.1593
   20MOL0     H 2585   7.805   6.226  10.312 -1.1278 -0.5588 -0.3694
   20MOL0     H 2586   7.760   6.065  10.377 -0.4163 -1.6131  0.2637
   20MOL0     H 2587   7.867   5.984  10.137  0.4822  0.1866  1.3620
   20MOL0     H 2588   7.848   6.151  10.092  1.1966  0.7521  1.2213
   20MOL0     H 2589   7.617   6.025  10.034 -1.3568 -3.1285  1.7529
   20MOL0     H 2590   7.640   5.959  10.201  0.4798  0.2671  0.2433
   20MOL0     H 2591   7.587   6.247  10.149  1.1283 -1.6203 -1.3536
   20MOL0     H 2592   7.576   6.164  10.302  0.2790  0.2769  0.1623
   20MOL0     H 2593   7.339   6.314  10.104  0.9340  0.0372  0.6174
   20MOL0     H 2594   7.065   6.323  10.101  1.3263 -2.2935 -1.6515
   20MOL0     H 2595   7.121   6.360  10.267  0.6057 -0.7810  0.8574
   20MOL0     H 2596   6.961   6.198  10.343 -0.0277 -0.8201 -0.3084
   20MOL0     H 2597   6.911   6.147  10.177 -2.4471 -0.7824  1.5284
   20MOL0     H 2598   6.887   6.433  10.295  0.2806 -1.3360  1.9932
   20MOL0     H 2599   6.829   6.383  10.135 -0.5822 -2.9261 -1.3547
   20MOL0     H 2600   6.722   6.214  10.353 -2.6659  1.5298  1.9022
   20MOL0     H 2601   6.672   6.229  10.197  1.0987  1.1290 -1.5686
   20MOL0     H 2602   6.455   6.556  10.410 -0.4379 -0.7871 -0.4764
   20MOL0     H 2603   6.289   6.668  10.277  0.1405  0.3788  0.4273
   20MOL0     H 2604   5.885   6.661  10.098  0.2626  0.3364 -0.1020
   20MOL0     H 2605   5.703   6.807   9.986  0.8095  3.3262 -0.0311
   20MOL0     H 2606   5.676   7.003   9.625 -1.9419  0.7131 -0.6582
   20MOL0     H 2607   5.826   7.092   9.687  0.4896 -2.2470  4.1515
   20MOL0     H 2608   5.658   7.242   9.617  3.8350  2.2657  2.6147
   20MOL0     H 2609   5.683   7.262   9.789 -1.5092  0.1990  2.4634
   20MOL0     H 2610   5.497   7.148   9.862 -0.5259 -2.7571 -0.0159
   20MOL0     H 2611   5.475   7.063   9.705 -0.1159  0.9402 -0.9607
   20MOL0     H 2612   5.382   7.264   9.591  1.3446 -0.7354  0.0127
   20MOL0     H 2613   5.311   7.236   9.751 -0.7139  0.4574  0.1350
   20MOL0     H 2614   5.521   7.450   9.700  2.0682 -0.4627  3.8288
   20MOL0     H 2615   5.437   7.410   9.854 -0.4647 -2.0141 -0.1202
   20MOL0     H 2616   5.315   7.565   9.796 -0.5575  1.8248 -0.4662
   20MOL0     H 2617   5.206   7.438   9.735  0.0743  1.0636  1.2799
   20MOL0     H 2618   5.387   7.621   9.574  0.9577 -1.4564  0.3380
   20MOL0     H 2619   5.300   7.477   9.500 -1.0991  0.1981 -0.5065
   20MOL0     H 2620   5.169   7.701   9.654  0.4552 -2.2424  2.3365
   20MOL0     H 2621   5.091   7.573   9.565 -1.0115  0.9858  0.6848
   20MOL0     H 2622   5.994   7.016   9.764 -1.5215 -1.8742 -3.5919
   20MOL0     H 2623   6.172   6.879   9.869  0.2250  2.5757  2.7598
   20MOL0     H 2624   6.454   6.453   9.917 -1.1126  2.9315 -1.3373
   20MOL0     H 2625   6.605   6.376  10.056 -0.7036  0.5191 -0.5035
   20MOL0     H 2626   8.639   6.087  10.526 -0.9539 -0.1028  0.6648
   20MOL0     H 2627   8.779   6.267  10.646  0.6539  0.5358 -1.7220
   20MOL0     H 2628   8.887   6.422  11.124 -1.2946  1.0413  1.8991
   20MOL0     H 2629   9.039   6.585  11.208  0.7925 -1.9741 -0.4099
   20MOL0     H 2630   9.286   6.797  11.076  0.3973  3.1965  0.3148
   20MOL0     H 2631   9.221   6.686  11.189 -1.1588 -2.1253 -2.5500
   20MOL0     H 2632   9.377   6.856  11.267  0.3354 -1.3408 -0.6167
   20MOL0     H 2633   9.260   6.978  11.243  0.7147  0.3222 -1.8578
   20MOL0     H 2634   9.231   6.730  11.410 -1.1264 -0.3896  0.3413
   20MOL0     H 2635   9.087   6.819  11.384  0.2179 -1.4009 -0.1714
   20MOL0     H 2636   9.348   6.897  11.532  0.7994  2.2734 -0.9201
   20MOL0     H 2637   9.234   7.023  11.483 -1.0832  0.1645  1.7197
   20MOL0     H 2638   9.053   6.839  11.814  1.2608  3.2923  0.7353
   20MOL0     H 2639   8.916   6.877  10.916 -0.3554 -0.0275  0.4447
   20MOL0     H 2640   8.756   6.713  10.825  0.1777 -0.8367 -0.8755
   21MOL0     O 2641   0.624   9.655   6.176 -0.7327  0.6226  0.4098
   21MOL0     C 2642   0.631   9.532   6.210  0.1553  0.0410  0.3594
   21MOL0     O 2643   0.536   9.470   6.280 -0.5398 -0.0221  0.1212
   21MOL0     C 2644   0.418   9.536   6.304 -0.2263 -0.3076 -0.2833
   21MOL0     C 2645   0.354   9.615   6.210  0.2876  0.1985 -0.7577
   21MOL0     C 2646   0.232   9.676   6.238 -1.0829 -0.2343 -0.0841
   21MOL0     C 2647   0.188   9.682   6.373  0.2597 -0.4583  0.3954
   21MOL0     O 2648   0.072   9.761   6.401 -0.2339  0.1424  0.2790
   21MOL0     C 2649  -0.006   9.719   6.510 -0.7854 -0.1058 -0.8624
   21MOL0     C 2650  -0.151   9.765   6.505  0.5930  0.3666  1.1770
   21MOL0     C 2651  -0.230   9.678   6.414  0.6225 -0.3137 -0.7911
   21MOL0     C 2652  -0.369   9.722   6.379 -0.2621 -0.1438 -0.7945
   21MOL0     C 2653  -0.467   9.715   6.500  0.0904 -0.0431  0.4972
   21MOL0     C 2654  -0.611   9.743   6.449  0.9802 -0.1554  0.2517
   21MOL0     C 2655  -0.708   9.752   6.573 -0.3570 -0.3775 -0.1823
   21MOL0     C 2656  -0.844   9.791   6.516  0.4713  0.1074 -0.8085
   21MOL0     N 2657  -0.941   9.819   6.624 -0.7894  1.5976 -0.6620
   21MOL0     C 2658  -1.041   9.730   6.658  0.3007  0.6298  0.9291
   21MOL0     C 2659  -1.114   9.806   6.738  0.5613  0.2146 -0.7840
   21MOL0     C 2660  -1.245   9.773   6.786 -0.2179  0.2035  0.1010
   21MOL0     C 2661  -1.343   9.874   6.724  0.3867  0.5588 -0.0249
   21MOL0     C 2662  -1.483   9.816   6.711 -0.0502  0.1451  0.0820
   21MOL0     C 2663  -1.594   9.913   6.684  0.3989 -0.1188 -0.1088
   21MOL0     O 2664  -1.718   9.854   6.713 -0.0642  0.1910 -0.7023
   21MOL0     C 2665  -1.836   9.928   6.728 -0.9331 -0.1745  0.3284
   21MOL0     C 2666  -1.861  10.044   6.646 -0.4602 -0.7959 -0.3566
   21MOL0     C 2667  -1.973  10.118   6.672  0.1938 -0.5559 -0.1155
   21MOL0     C 2668  -2.069  10.075   6.763 -0.1964  0.0048 -1.7211
   21MOL0     C 2669  -2.195  10.134   6.786 -0.6081 -0.0034 -0.4704
   21MOL0     O 2670  -2.291  10.079   6.863  0.1598  0.0269  0.0744
   21MOL0     C 2671  -2.418  10.121   6.841  0.4386 -0.1507 -0.0879
   21MOL0     C 2672  -2.505  10.075   6.749 -0.2164  0.3931 -0.1718
   21MOL0     C 2673  -2.637  10.119   6.744 -0.3796  0.1946  0.1670
   21MOL0     C 2674  -2.680  10.220   6.836 -0.6442 -0.1539  0.9214
   21MOL0     O 2675  -2.809  10.265   6.820 -0.2542  0.1016 -0.5870
   21MOL0     C 2676  -2.867  10.312   6.943 -0.3984 -0.2820  0.5422
   21MOL0     C 2677  -3.019  10.324   6.944  0.0672 -1.0361 -0.5620
   21MOL0     C 2678  -3.055  10.451   6.852 -0.4948  1.0402  0.2947
   21MOL0     C 2679  -3.059  10.580   6.935 -0.0048 -0.0787  0.8090
   21MOL0     C 2680  -3.119  10.698   6.855  0.0437 -0.6223  0.4472
   21MOL0     C 2681  -3.134  10.819   6.949 -0.3485  0.4519 -0.8170
   21MOL0     C 2682  -3.216  10.931   6.897 -1.3065  0.2532 -0.1272
   21MOL0     C 2683  -3.187  11.054   6.986 -0.1546 -0.9246 -0.4542
   21MOL0    Cl 2684  -3.279  11.202   6.927  0.7084  0.2113 -0.0160
   21MOL0     C 2685  -2.595  10.263   6.925  0.6243  0.7395 -0.1558
   21MOL0     C 2686  -2.465  10.216   6.930 -0.5067  0.2971 -0.2776
   21MOL0     O 2687  -2.206  10.243   6.733 -0.0930  0.2125 -0.2808
   21MOL0     C 2688  -2.039   9.967   6.847 -0.0959  0.1318  0.0774
   21MOL0     C 2689  -1.923   9.894   6.829  0.2119  0.1666  0.1841
   21MOL0     N 2690  -1.045   9.921   6.773  0.8300  0.4334 -0.2755
   21MOL0     N 2691  -0.943   9.930   6.702  0.0182 -0.7680 -0.6517
   21MOL0     C 2692   0.249   9.598   6.469 -0.3606  0.0368  0.2842
   21MOL0     C 2693   0.361   9.520   6.427 -0.4890  0.5402  0.7448
   21MOL0     C 2694   0.744   9.449   6.174  0.2569  0.1831 -0.7473
   21MOL0     C 2695   0.745   9.314   6.215  0.5081  0.3122  0.2381
   21MOL0     C 2696   0.862   9.242   6.196  1.7094 -0.0604  0.0437
   21MOL0     C 2697   0.978   9.299   6.141 -0.3976  0.5917 -0.0596
   21MOL0     O 2698   1.087   9.220   6.154 -0.1373  0.4049  0.5006
   21MOL0     C 2699   1.209   9.251   6.084 -0.0514  1.4882 -0.1223
   21MOL0     C 2700   1.300   9.327   6.185 -0.4850  0.0283  0.1234
   21MOL0     C 2701   1.415   9.392   6.108 -0.3640  0.5926 -0.3042
   21MOL0     C 2702   1.553   9.341   6.123 -1.0121 -0.4161 -0.8456
   21MOL0     C 2703   1.565   9.195   6.105 -0.0192  0.0589 -0.4800
   21MOL0     C 2704   1.574   9.073   6.102 -0.3500  0.5454 -0.5275
   21MOL0     C 2705   0.975   9.431   6.098  0.1400 -0.4606 -0.1855
   21MOL0     C 2706   0.861   9.507   6.116 -0.4331  0.1333 -0.2430
   21MOL0     H 2707   0.389   9.635   6.110 -2.1521  1.6151 -1.4074
   21MOL0     H 2708   0.189   9.747   6.169  1.0260  1.1539 -0.0920
   21MOL0     H 2709   0.040   9.773   6.593 -1.7887 -2.1518  1.1568
   21MOL0     H 2710   0.007   9.612   6.527 -0.7119 -0.2632 -1.8928
   21MOL0     H 2711  -0.148   9.870   6.474  1.6751 -0.4983 -2.0608
   21MOL0     H 2712  -0.192   9.760   6.606  0.2540  1.6354  1.1301
   21MOL0     H 2713  -0.247   9.574   6.444  1.2946 -0.3345 -0.4759
   21MOL0     H 2714  -0.172   9.667   6.321  1.3937  1.2677 -0.5239
   21MOL0     H 2715  -0.348   9.824   6.345 -0.2375 -0.7099 -2.5631
   21MOL0     H 2716  -0.418   9.674   6.293 -1.7647 -0.3732  0.1596
   21MOL0     H 2717  -0.431   9.789   6.572  1.6316 -0.1609 -0.1047
   21MOL0     H 2718  -0.453   9.617   6.549  1.8105 -0.7267 -1.2186
   21MOL0     H 2719  -0.629   9.657   6.384 -1.7096  1.9203 -1.9684
   21MOL0     H 2720  -0.615   9.838   6.395 -1.5697  0.1044  0.7939
   21MOL0     H 2721  -0.718   9.655   6.624  4.1693 -0.4100  1.0369
   21MOL0     H 2722  -0.673   9.814   6.656  0.5667 -2.1272  0.8106
   21MOL0     H 2723  -0.886   9.708   6.459 -0.1195  0.4095 -0.8355
   21MOL0     H 2724  -0.840   9.888   6.463  0.2907  0.5511 -0.0216
   21MOL0     H 2725  -1.080   9.637   6.619 -1.5422  1.6359  0.2321
   21MOL0     H 2726  -1.247   9.765   6.895 -2.1903 -1.0433  0.0186
   21MOL0     H 2727  -1.268   9.672   6.750 -1.1203  0.2688  0.4635
   21MOL0     H 2728  -1.302   9.906   6.628 -1.5092 -1.8703 -1.7667
   21MOL0     H 2729  -1.354   9.963   6.786  1.7311  0.8708 -0.2134
   21MOL0     H 2730  -1.477   9.749   6.625 -0.5978 -0.2517  0.3517
   21MOL0     H 2731  -1.491   9.771   6.810  2.5419  1.2667  0.8987
   21MOL0     H 2732  -1.589   9.940   6.578 -0.5936 -1.8968 -0.6362
   21MOL0     H 2733  -1.578  10.006   6.740  0.8575  0.6786 -1.4925
   21MOL0     H 2734  -1.781  10.077   6.580 -0.3225 -0.4143 -0.0093
   21MOL0     H 2735  -1.996  10.206   6.613  0.2161  0.3765  1.2006
   21MOL0     H 2736  -2.471   9.992   6.687  0.1734 -1.8754  2.8192
   21MOL0     H 2737  -2.708  10.059   6.688 -0.1287 -1.6672  1.7507
   21MOL0     H 2738  -2.823  10.410   6.960 -0.9289 -0.0398  0.5351
   21MOL0     H 2739  -2.833  10.245   7.022 -2.3872 -0.2513  1.4930
   21MOL0     H 2740  -3.061  10.343   7.043 -0.1117  0.3702 -0.8864
   21MOL0     H 2741  -3.066  10.239   6.892  4.5430 -2.7432 -2.3558
   21MOL0     H 2742  -3.150  10.445   6.799  0.0913 -0.2714 -0.6718
   21MOL0     H 2743  -2.995  10.452   6.760 -0.7803  3.0122  0.0872
   21MOL0     H 2744  -3.111  10.558   7.029 -0.7232 -0.4917  0.3283
   21MOL0     H 2745  -2.956  10.605   6.961 -0.3110 -0.3259  2.3832
   21MOL0     H 2746  -3.213  10.662   6.812  1.7253 -4.0553 -0.7092
   21MOL0     H 2747  -3.056  10.726   6.770 -2.7754  1.0667 -1.2271
   21MOL0     H 2748  -3.033  10.858   6.964  1.0410 -2.7968 -0.7108
   21MOL0     H 2749  -3.166  10.786   7.048 -1.1236  0.3519 -1.0975
   21MOL0     H 2750  -3.191  10.958   6.794 -0.3051 -2.0031 -0.5267
   21MOL0     H 2751  -3.321  10.905   6.912 -2.2548  1.5226 -3.6557
   21MOL0     H 2752  -3.081  11.080   6.979 -0.4103  0.5410  0.6614
   21MOL0     H 2753  -3.205  11.054   7.094  0.2082  0.5240 -0.3804
   21MOL0     H 2754  -2.611  10.333   7.007  1.1464 -0.1821  0.7651
   21MOL0     H 2755  -2.404  10.252   7.012  0.4555 -3.0564  0.6314
   21MOL0     H 2756  -2.110   9.943   6.926 -1.8275 -5.4047 -2.5969
   21MOL0     H 2757  -1.897   9.830   6.912  3.4586 -0.2648 -1.0058
   21MOL0     H 2758   0.217   9.597   6.573  1.4097  0.5866  0.8781
   21MOL0     H 2759   0.420   9.467   6.501  2.2164  1.4545 -0.6327
   21MOL0     H 2760   0.651   9.269   6.245 -0.0351  0.4777 -1.1332
   21MOL0     H 2761   0.864   9.139   6.231 -1.0840  0.3666  1.8294
   21MOL0     H 2762   1.179   9.309   5.996 -2.0826  0.1802 -0.3594
   21MOL0     H 2763   1.262   9.166   6.041 -2.2537  0.1190 -0.3145
   21MOL0     H 2764   1.236   9.406   6.225  0.1582  0.1515  0.9250
   21MOL0     H 2765   1.332   9.262   6.266 -1.1612  2.9379  2.9434
   21MOL0     H 2766   1.422   9.495   6.143 -2.1781  0.9893 -0.9875
   21MOL0     H 2767   1.377   9.409   6.007  0.5200  0.2505 -0.7010
   21MOL0     H 2768   1.625   9.399   6.065 -3.0423  0.0301 -3.0805
   21MOL0     H 2769   1.589   9.362   6.224  1.0651 -1.3994 -1.3195
   21MOL0     H 2770   1.576   8.966   6.105 -1.2358  0.5408  0.1122
   21MOL0     H 2771   1.054   9.493   6.056  0.9999 -1.2433  0.2429
   21MOL0     H 2772   0.873   9.610   6.083 -1.3425 -0.8963 -4.2827
   22MOL0     O 2773   4.377  10.775   1.901 -0.2490 -0.1670 -0.4693
   22MOL0     C 2774   4.437  10.774   1.796  0.1443  1.0983  0.3912
   22MOL0     O 2775   4.396  10.692   1.689  0.6531 -0.2251  0.3782
   22MOL0     C 2776   4.284  10.605   1.706  0.5709 -0.0643 -0.2402
   22MOL0     C 2777   4.162  10.640   1.767  0.2295 -0.2538 -0.0295
   22MOL0     C 2778   4.051  10.548   1.756  0.0119  0.0272  0.1317
   22MOL0     C 2779   4.055  10.420   1.699 -0.8530 -0.5670 -0.0251
   22MOL0     O 2780   3.941  10.343   1.695  0.3636 -0.0743 -0.2092
   22MOL0     C 2781   3.970  10.203   1.707  0.0183  0.5076 -0.2522
   22MOL0     C 2782   3.864  10.094   1.712  0.1158 -0.1561  0.2699
   22MOL0     C 2783   3.786  10.086   1.588 -0.6766  0.4069 -0.5788
   22MOL0     C 2784   3.664   9.996   1.596 -0.6821 -0.0975 -0.6392
   22MOL0     C 2785   3.578  10.016   1.477 -0.4715 -0.0483 -0.2339
   22MOL0     C 2786   3.644   9.966   1.351 -0.8684  0.0246  0.2559
   22MOL0     C 2787   3.589  10.003   1.215  0.4686 -0.2870  0.9130
   22MOL0     C 2788   3.653   9.919   1.098  0.2012 -0.5758  0.0548
   22MOL0     N 2789   3.802   9.953   1.085  0.6186 -1.2855 -0.9571
   22MOL0     C 2790   3.877  10.065   1.125  0.5251 -0.0116  0.4946
   22MOL0     C 2791   4.002  10.030   1.118 -0.3141 -0.5704  0.1978
   22MOL0     C 2792   4.124  10.110   1.163  0.9895  0.7019  0.2209
   22MOL0     C 2793   4.201  10.057   1.280 -0.0090  0.7470  0.3185
   22MOL0     C 2794   4.340  10.116   1.305  0.1494 -0.8184  0.0327
   22MOL0     C 2795   4.407  10.078   1.435  0.8200 -0.9106 -0.5146
   22MOL0     O 2796   4.508  10.174   1.477 -0.1245 -0.9056 -0.0883
   22MOL0     C 2797   4.647  10.150   1.449 -0.1098 -0.0089 -0.2230
   22MOL0     C 2798   4.740  10.185   1.540 -0.6723 -0.0211 -0.0489
   22MOL0     C 2799   4.874  10.181   1.513  0.9390 -0.1854 -0.5688
   22MOL0     C 2800   4.917  10.122   1.393 -0.4815  1.4347 -0.7717
   22MOL0     C 2801   5.064  10.109   1.371 -0.0757 -0.4942 -0.2871
   22MOL0     O 2802   5.159  10.098   1.472 -0.2517 -0.2276  0.4729
   22MOL0     C 2803   5.291  10.142   1.434  0.3552  0.1449  0.5428
   22MOL0     C 2804   5.328  10.273   1.425 -0.0576 -0.1064  0.3752
   22MOL0     C 2805   5.453  10.308   1.374 -0.0878  0.4674 -0.3391
   22MOL0     C 2806   5.540  10.209   1.326 -0.2218 -0.1190  0.3446
   22MOL0     O 2807   5.668  10.249   1.277  0.2118  0.6980 -0.0632
   22MOL0     C 2808   5.761  10.154   1.240 -0.2117  0.1230 -0.1867
   22MOL0     C 2809   5.900  10.212   1.225 -0.9129  0.5636  0.9369
   22MOL0     C 2810   6.012  10.112   1.186  0.6596  0.2251  0.3394
   22MOL0     C 2811   6.049  10.014   1.287  0.3098 -0.2838 -1.1219
   22MOL0     C 2812   6.159   9.915   1.230  0.5822 -0.2053 -0.1105
   22MOL0     C 2813   6.302   9.983   1.214  0.2496 -1.0953 -0.3004
   22MOL0     C 2814   6.428   9.895   1.200  0.5177 -0.0903  0.0572
   22MOL0     C 2815   6.548   9.995   1.181 -0.0328  0.9989  0.1275
   22MOL0    Cl 2816   6.668   9.948   1.055  0.1964  0.2143 -0.2388
   22MOL0     C 2817   5.494  10.082   1.315  0.3328  0.3976 -0.8901
   22MOL0     C 2818   5.367  10.043   1.363  0.5407  0.1263 -0.1888
   22MOL0     O 2819   5.094  10.118   1.251  0.4234  0.3957  0.4321
   22MOL0     C 2820   4.818  10.081   1.301 -0.7583  0.0897 -0.5872
   22MOL0     C 2821   4.682  10.100   1.325  0.7747 -0.0105 -0.7615
   22MOL0     N 2822   4.007   9.902   1.056  0.3691  0.2142 -0.4523
   22MOL0     N 2823   3.887   9.859   1.034  0.0496  0.3650 -0.5430
   22MOL0     C 2824   4.183  10.380   1.667  0.7747 -1.1897 -0.3288
   22MOL0     C 2825   4.297  10.469   1.668 -0.3066 -0.0375 -1.1098
   22MOL0     C 2826   4.582  10.813   1.783 -0.7631  0.0011  0.3608
   22MOL0     C 2827   4.653  10.781   1.665 -0.6090 -0.3766 -0.7468
   22MOL0     C 2828   4.794  10.805   1.657  0.5990  0.4040  0.3448
   22MOL0     C 2829   4.867  10.856   1.763 -0.9608  0.3033  0.4888
   22MOL0     O 2830   5.002  10.879   1.748  0.2661 -0.8416 -0.1849
   22MOL0     C 2831   5.068  10.840   1.631  0.3995  0.2684  0.6349
   22MOL0     C 2832   5.216  10.854   1.632  0.6214  0.2252  0.6797
   22MOL0     C 2833   5.279  10.769   1.526  0.3277  0.2006 -0.1764
   22MOL0     C 2834   5.434  10.786   1.523 -0.0778 -0.6534  0.7074
   22MOL0     C 2835   5.475  10.933   1.500 -0.5667  0.4137 -0.0587
   22MOL0     C 2836   5.507  11.054   1.485 -0.4679 -0.0318  0.5247
   22MOL0     C 2837   4.793  10.893   1.886  0.7619  0.4555  0.7745
   22MOL0     C 2838   4.658  10.866   1.888  0.7437  0.7993  0.3051
   22MOL0     H 2839   4.143  10.729   1.826  0.0051 -0.2919 -0.0448
   22MOL0     H 2840   3.947  10.570   1.777 -0.7500 -1.4875 -1.7625
   22MOL0     H 2841   4.011  10.192   1.807 -0.4265  0.4302 -0.0746
   22MOL0     H 2842   4.036  10.178   1.623  0.9851 -1.4178  1.0014
   22MOL0     H 2843   3.802  10.115   1.800 -3.1810 -2.3734 -1.3231
   22MOL0     H 2844   3.906   9.994   1.725 -1.3420 -0.6994  1.1142
   22MOL0     H 2845   3.844  10.045   1.506 -1.9646  1.6209 -2.1687
   22MOL0     H 2846   3.760  10.187   1.555 -3.3654  1.2456  3.3388
   22MOL0     H 2847   3.690   9.891   1.616 -2.2896 -0.4999 -0.5876
   22MOL0     H 2848   3.598  10.026   1.678 -0.4209  0.4997 -0.6426
   22MOL0     H 2849   3.534  10.116   1.473 -2.2652 -0.7583  0.5001
   22MOL0     H 2850   3.492   9.950   1.494  0.8002 -1.8406 -0.5458
   22MOL0     H 2851   3.656   9.857   1.352 -1.2775 -0.0197  0.2319
   22MOL0     H 2852   3.745  10.008   1.346 -0.5463 -0.4431  2.0365
   22MOL0     H 2853   3.481   9.987   1.221 -0.2371  1.6751 -3.1035
   22MOL0     H 2854   3.610  10.109   1.196 -2.7485 -0.0729 -2.5819
   22MOL0     H 2855   3.598   9.955   1.011  1.3057  0.1464 -0.3630
   22MOL0     H 2856   3.632   9.812   1.091  2.5429 -1.0140 -1.4944
   22MOL0     H 2857   3.840  10.159   1.166 -0.1189  0.0206 -0.1348
   22MOL0     H 2858   4.090  10.214   1.174  2.6185  1.4788 -1.5763
   22MOL0     H 2859   4.197  10.109   1.082  0.6924  0.3021 -0.0448
   22MOL0     H 2860   4.208   9.948   1.273  0.9021  0.9122 -2.2168
   22MOL0     H 2861   4.138  10.079   1.367  0.5849  1.7725  0.5108
   22MOL0     H 2862   4.412  10.102   1.224 -0.2394  2.5695 -1.0834
   22MOL0     H 2863   4.317  10.223   1.297  3.4196 -0.1053 -1.4804
   22MOL0     H 2864   4.439   9.974   1.431 -0.0855 -1.3199  1.5607
   22MOL0     H 2865   4.332  10.070   1.515  1.6520 -4.3039  0.0937
   22MOL0     H 2866   4.712  10.216   1.640 -1.2881 -2.9128  0.7546
   22MOL0     H 2867   4.951  10.224   1.577 -0.8425  3.9655 -0.9276
   22MOL0     H 2868   5.261  10.339   1.479 -0.4031 -0.3442  0.2354
   22MOL0     H 2869   5.470  10.415   1.368  1.8881  0.2317  0.5509
   22MOL0     H 2870   5.736  10.119   1.139 -0.3372  3.6729 -1.5412
   22MOL0     H 2871   5.754  10.073   1.313  0.6489  0.0571 -0.1718
   22MOL0     H 2872   5.928  10.274   1.311  2.6205  2.4243 -1.2928
   22MOL0     H 2873   5.895  10.282   1.141  0.0248  0.1576  0.5268
   22MOL0     H 2874   6.092  10.186   1.173  2.1706 -1.7711 -3.3139
   22MOL0     H 2875   5.991  10.077   1.085  1.7171  2.3353 -0.6805
   22MOL0     H 2876   6.081  10.076   1.371 -0.7896  2.0042 -2.3102
   22MOL0     H 2877   5.956   9.964   1.315  0.1983  1.5019  2.3782
   22MOL0     H 2878   6.130   9.869   1.136  0.7156 -1.9393  0.6635
   22MOL0     H 2879   6.158   9.834   1.304 -1.0852 -0.9311 -0.8855
   22MOL0     H 2880   6.308  10.064   1.287 -1.3737 -0.3281 -0.9869
   22MOL0     H 2881   6.293  10.045   1.125  0.8862 -0.2671  0.1907
   22MOL0     H 2882   6.448   9.838   1.291  0.1781 -0.3781 -0.0449
   22MOL0     H 2883   6.411   9.835   1.109 -2.1508 -0.1047  0.4649
   22MOL0     H 2884   6.606  10.024   1.270 -2.0594 -0.0523  1.8802
   22MOL0     H 2885   6.505  10.088   1.142  0.0379  0.0163 -2.4478
   22MOL0     H 2886   5.567  10.006   1.291 -1.2817 -1.5116 -0.0458
   22MOL0     H 2887   5.332   9.940   1.374 -0.6938  0.7806  2.9095
   22MOL0     H 2888   4.852  10.026   1.214  2.1200 -0.2722  0.6510
   22MOL0     H 2889   4.619  10.064   1.244  1.7368 -0.7953 -1.1739
   22MOL0     H 2890   4.219  10.280   1.647  0.7202 -1.6333  1.6258
   22MOL0     H 2891   4.393  10.436   1.630 -0.0975  0.3309 -0.8951
   22MOL0     H 2892   4.606  10.744   1.574 -3.3988  2.5505 -0.6801
   22MOL0     H 2893   4.851  10.771   1.572  1.9904 -1.9793  2.1132
   22MOL0     H 2894   5.029  10.910   1.556  1.5127 -0.1070 -0.3351
   22MOL0     H 2895   5.045  10.735   1.609  3.2970 -0.1533 -0.8725
   22MOL0     H 2896   5.229  10.963   1.621 -2.0877  0.6205  0.8050
   22MOL0     H 2897   5.257  10.832   1.731  2.3246  1.1578  0.2307
   22MOL0     H 2898   5.259  10.786   1.419  1.1361  0.8178 -0.2414
   22MOL0     H 2899   5.244  10.666   1.538 -0.1186  0.2591 -0.8893
   22MOL0     H 2900   5.480  10.734   1.608 -0.5835 -2.2404  0.0534
   22MOL0     H 2901   5.477  10.732   1.438 -4.0236 -2.3425 -0.4404
   22MOL0     H 2902   5.530  11.154   1.452  0.5875 -0.0781  1.0819
   22MOL0     H 2903   4.847  10.932   1.972 -0.5995 -3.1376  3.4727
   22MOL0     H 2904   4.614  10.881   1.986 -0.6054 -1.6331  0.1273
   23MOL0     O 2905   2.506   7.719   7.339  0.2194 -0.0970 -0.6287
   23MOL0     C 2906   2.558   7.613   7.375  0.3002 -0.0195 -0.2754
   23MOL0     O 2907   2.546   7.492   7.317 -0.0679 -0.0793 -1.3233
   23MOL0     C 2908   2.441   7.488   7.232 -0.1573 -0.0841 -0.1267
   23MOL0     C 2909   2.447   7.548   7.105  0.0315 -0.0601 -0.2988
   23MOL0     C 2910   2.346   7.541   7.016  0.0769  0.1119  0.9528
   23MOL0     C 2911   2.232   7.488   7.049 -0.1244  0.6101  0.4560
   23MOL0     O 2912   2.138   7.478   6.955  0.6289  0.5315  0.2008
   23MOL0     C 2913   2.009   7.409   6.993 -0.5826  0.0810 -0.6610
   23MOL0     C 2914   1.913   7.493   7.071  1.2438 -0.9125  0.0098
   23MOL0     C 2915   1.765   7.466   7.034 -0.0340  1.2017 -0.6954
   23MOL0     C 2916   1.672   7.529   7.130  0.0761 -0.2930 -0.4184
   23MOL0     C 2917   1.537   7.470   7.089 -0.6309 -0.3549  0.3005
   23MOL0     C 2918   1.428   7.516   7.170  0.1513 -0.5951  0.4138
   23MOL0     C 2919   1.287   7.452   7.137  0.1471 -0.3335 -0.0383
   23MOL0     C 2920   1.218   7.527   7.019 -0.1271  0.2132 -0.4348
   23MOL0     N 2921   1.090   7.454   7.035 -0.0381 -0.0438 -0.2125
   23MOL0     C 2922   0.974   7.496   7.100  0.3469 -0.2748 -0.7350
   23MOL0     C 2923   0.883   7.403   7.068 -0.7711 -0.5988 -0.2719
   23MOL0     C 2924   0.736   7.395   7.112  0.2910  0.4021 -0.8968
   23MOL0     C 2925   0.654   7.480   7.020  0.1498  0.0327 -0.3187
   23MOL0     C 2926   0.504   7.460   7.042  0.0691 -0.4043 -0.5962
   23MOL0     C 2927   0.422   7.544   6.956 -0.1814  0.5322  0.3880
   23MOL0     O 2928   0.288   7.494   6.985 -0.1176  0.3443  0.6149
   23MOL0     C 2929   0.174   7.569   6.966 -1.2974 -0.2890  0.5527
   23MOL0     C 2930   0.178   7.694   6.907  0.0676 -0.6598  0.6975
   23MOL0     C 2931   0.056   7.760   6.879 -0.1362  0.2150 -0.1335
   23MOL0     C 2932  -0.057   7.699   6.929  0.1313  0.2470  0.9118
   23MOL0     C 2933  -0.187   7.760   6.896  0.1094  0.3372  0.4437
   23MOL0     O 2934  -0.190   7.844   6.792 -0.3669  0.5941  1.0529
   23MOL0     C 2935  -0.318   7.871   6.745  0.2901  1.1806 -0.2707
   23MOL0     C 2936  -0.367   7.817   6.630  0.2352 -0.2510 -0.1978
   23MOL0     C 2937  -0.487   7.866   6.581  0.5831 -0.3779  0.4578
   23MOL0     C 2938  -0.567   7.966   6.647  0.5183  1.0675  0.5666
   23MOL0     O 2939  -0.673   8.021   6.588  0.4369  0.1915  0.2031
   23MOL0     C 2940  -0.729   7.977   6.468 -0.2535  0.2544  0.2326
   23MOL0     C 2941  -0.862   8.043   6.438  0.5972 -0.1860  0.3971
   23MOL0     C 2942  -0.990   7.954   6.475  0.3540 -0.4608 -0.4224
   23MOL0     C 2943  -0.967   7.814   6.420  0.4623 -1.0600 -1.2445
   23MOL0     C 2944  -1.096   7.748   6.392  0.6168 -0.8425 -0.7826
   23MOL0     C 2945  -1.093   7.619   6.328  0.1822  0.7381  0.0930
   23MOL0     C 2946  -1.235   7.566   6.302  1.3819 -0.8366 -0.9631
   23MOL0     C 2947  -1.240   7.452   6.200 -0.5593 -0.2836  0.2212
   23MOL0    Cl 2948  -1.408   7.376   6.187  0.0015  0.1777  0.0522
   23MOL0     C 2949  -0.515   8.027   6.761 -0.7188  0.3098 -0.4548
   23MOL0     C 2950  -0.388   7.981   6.807  0.2568 -0.5796 -0.2373
   23MOL0     O 2951  -0.283   7.720   6.950 -0.2595  0.1220 -0.4430
   23MOL0     C 2952  -0.060   7.578   6.995  0.3327  0.8306 -0.0084
   23MOL0     C 2953   0.061   7.507   7.014  0.0591  0.1393 -0.3807
   23MOL0     N 2954   0.936   7.305   6.997 -0.6238 -0.0444 -0.0957
   23MOL0     N 2955   1.058   7.335   6.968  0.3268 -0.0486 -0.2283
   23MOL0     C 2956   2.225   7.434   7.180  0.5685  0.3568  0.3269
   23MOL0     C 2957   2.328   7.434   7.273 -0.0089  0.0066  0.7163
   23MOL0     C 2958   2.643   7.614   7.493 -0.4969  1.4921 -0.9927
   23MOL0     C 2959   2.702   7.489   7.545 -0.7508 -0.1308 -0.1773
   23MOL0     C 2960   2.784   7.482   7.655 -0.4241  0.1244 -0.1548
   23MOL0     C 2961   2.810   7.600   7.729 -0.1325 -0.6950  0.2770
   23MOL0     O 2962   2.886   7.585   7.839 -0.3380 -0.0721  0.0935
   23MOL0     C 2963   3.018   7.658   7.847  1.1278 -0.3348  0.2854
   23MOL0     C 2964   3.109   7.592   7.947  0.3517 -0.4152  0.4232
   23MOL0     C 2965   3.043   7.619   8.086  0.0042 -0.5979  0.0575
   23MOL0     C 2966   3.110   7.543   8.205 -0.8539  0.7181 -0.1715
   23MOL0     C 2967   3.244   7.598   8.210  0.1640  0.0158  0.2446
   23MOL0     C 2968   3.352   7.648   8.236 -0.1091 -0.1402 -1.1748
   23MOL0     C 2969   2.765   7.721   7.676 -0.4431  0.0442  0.8749
   23MOL0     C 2970   2.679   7.735   7.566  0.8922  0.4941  0.1036
   23MOL0     H 2971   2.542   7.599   7.097 -0.2145  0.1508 -2.3799
   23MOL0     H 2972   2.350   7.573   6.913 -0.7182  1.5720  1.3593
   23MOL0     H 2973   2.018   7.322   7.058 -1.8012 -0.7134 -1.5168
   23MOL0     H 2974   1.960   7.381   6.900 -0.0892 -0.7079 -0.6928
   23MOL0     H 2975   1.936   7.597   7.047  0.9313 -1.3568 -2.6061
   23MOL0     H 2976   1.931   7.486   7.178  0.7105 -0.3805  0.1373
   23MOL0     H 2977   1.753   7.357   7.036 -1.9933  1.3771 -0.8637
   23MOL0     H 2978   1.734   7.504   6.936 -2.1850 -0.1220 -0.6112
   23MOL0     H 2979   1.685   7.480   7.228  1.5615 -1.6406 -1.2304
   23MOL0     H 2980   1.686   7.637   7.128  2.0335 -0.5278 -1.5473
   23MOL0     H 2981   1.536   7.361   7.091 -1.1816 -0.3484  1.1710
   23MOL0     H 2982   1.518   7.520   6.993  0.8676  2.2584  1.2581
   23MOL0     H 2983   1.402   7.619   7.147  0.3356  0.0421  2.7591
   23MOL0     H 2984   1.446   7.496   7.277 -0.6002  1.1505  0.8929
   23MOL0     H 2985   1.303   7.346   7.113 -0.0474 -0.2835 -0.3875
   23MOL0     H 2986   1.219   7.461   7.222 -0.8307  0.6547 -0.9008
   23MOL0     H 2987   1.261   7.505   6.921  0.8524  0.8706 -0.1691
   23MOL0     H 2988   1.205   7.636   7.029  0.9999  0.1634  2.3307
   23MOL0     H 2989   0.968   7.579   7.169  1.7842 -2.0345  1.6635
   23MOL0     H 2990   0.726   7.417   7.219  2.1496  0.2513 -0.6668
   23MOL0     H 2991   0.705   7.291   7.098 -4.8107  1.3986  0.8604
   23MOL0     H 2992   0.685   7.455   6.919  1.2759 -1.9991  0.4683
   23MOL0     H 2993   0.671   7.586   7.039 -1.5844  0.0746  1.3250
   23MOL0     H 2994   0.467   7.358   7.035 -0.0695 -0.2917 -1.6649
   23MOL0     H 2995   0.483   7.497   7.143 -1.1673  0.7418 -1.2405
   23MOL0     H 2996   0.451   7.531   6.851  3.0013 -0.2490  1.2654
   23MOL0     H 2997   0.442   7.648   6.985  0.5377 -0.4171  3.6030
   23MOL0     H 2998   0.272   7.739   6.877  0.0542 -1.4348 -0.6120
   23MOL0     H 2999   0.053   7.844   6.811 -0.4607 -0.2789 -0.7460
   23MOL0     H 3000  -0.310   7.733   6.592 -1.4008 -1.2167 -0.6655
   23MOL0     H 3001  -0.501   7.835   6.478  2.7488  1.3955 -0.4814
   23MOL0     H 3002  -0.733   7.868   6.457 -1.2019  0.5579 -4.6085
   23MOL0     H 3003  -0.664   8.026   6.396 -1.6658  3.9250  1.1968
   23MOL0     H 3004  -0.863   8.050   6.329  2.0664 -3.8559 -0.0101
   23MOL0     H 3005  -0.863   8.139   6.490  1.5281 -0.3594  0.7590
   23MOL0     H 3006  -1.086   7.996   6.441  0.6682 -0.1299 -0.9092
   23MOL0     H 3007  -1.001   7.940   6.583  0.1889  0.0664 -0.3673
   23MOL0     H 3008  -0.913   7.817   6.325  0.1947 -3.3522 -1.5079
   23MOL0     H 3009  -0.918   7.751   6.494 -0.0635  2.6511  2.6413
   23MOL0     H 3010  -1.153   7.816   6.328  1.1266  0.1521 -0.1922
   23MOL0     H 3011  -1.139   7.742   6.492 -0.1834 -0.1203 -1.0707
   23MOL0     H 3012  -1.042   7.542   6.387 -1.4666 -1.4375 -1.1699
   23MOL0     H 3013  -1.041   7.640   6.234 -1.3084 -0.5339 -1.0752
   23MOL0     H 3014  -1.286   7.526   6.390  0.0572  2.1527 -0.2438
   23MOL0     H 3015  -1.300   7.647   6.268 -1.8281 -3.1082 -0.6914
   23MOL0     H 3016  -1.157   7.385   6.229 -1.7104 -1.6002  0.6004
   23MOL0     H 3017  -1.219   7.492   6.101 -0.3496  0.1100  0.4206
   23MOL0     H 3018  -0.561   8.116   6.801  0.8537  0.4782  1.1047
   23MOL0     H 3019  -0.354   8.037   6.894 -1.8401  1.7335 -0.8025
   23MOL0     H 3020  -0.155   7.534   7.026 -0.0275 -1.6195 -3.9443
   23MOL0     H 3021   0.071   7.408   7.059  1.3196 -0.9081 -2.7535
   23MOL0     H 3022   2.141   7.375   7.214  0.2862  0.2041 -0.5874
   23MOL0     H 3023   2.323   7.392   7.373  1.9316 -0.4229  0.6743
   23MOL0     H 3024   2.680   7.404   7.481 -0.8753  0.1633 -0.5306
   23MOL0     H 3025   2.830   7.392   7.693  3.8954  1.9265 -0.6026
   23MOL0     H 3026   3.000   7.765   7.859  0.6936 -0.2821 -0.7104
   23MOL0     H 3027   3.060   7.644   7.747 -2.3399 -1.9080 -1.1279
   23MOL0     H 3028   3.100   7.485   7.927  0.7115 -0.3457 -0.1186
   23MOL0     H 3029   3.209   7.636   7.937  0.7241 -1.4739 -0.9001
   23MOL0     H 3030   2.937   7.597   8.071  0.4813 -1.0346 -3.2391
   23MOL0     H 3031   3.043   7.726   8.109 -0.4992 -0.6000  0.0823
   23MOL0     H 3032   3.052   7.559   8.296  0.0415  0.1262  0.5217
   23MOL0     H 3033   3.120   7.438   8.174 -1.2442 -0.4059  3.1481
   23MOL0     H 3034   3.442   7.687   8.279 -1.4042 -1.6697  3.4833
   23MOL0     H 3035   2.796   7.814   7.723 -0.6461  0.4526  0.2160
   23MOL0     H 3036   2.659   7.838   7.539 -5.1509 -0.4949 -0.5118
   24MOL0     O 3037   1.688   9.026   2.530 -0.2317 -1.2476  0.7800
   24MOL0     C 3038   1.700   8.965   2.428 -0.0816 -0.1178  0.1877
   24MOL0     O 3039   1.612   8.877   2.379  0.0531  0.1314 -0.6161
   24MOL0     C 3040   1.506   8.820   2.445 -0.5175  0.2910  0.3876
   24MOL0     C 3041   1.414   8.763   2.351 -0.4465 -0.1918  0.1563
   24MOL0     C 3042   1.311   8.687   2.409 -0.0967  0.2243  0.9292
   24MOL0     C 3043   1.299   8.670   2.554  0.7093  0.5159  1.2540
   24MOL0     O 3044   1.193   8.603   2.607  0.0757 -0.2654  0.1395
   24MOL0     C 3045   1.079   8.575   2.523  0.5024  0.0588 -0.1265
   24MOL0     C 3046   0.972   8.521   2.613  0.3949  0.2513  0.2657
   24MOL0     C 3047   0.886   8.423   2.531 -1.0089 -0.1012  0.6899
   24MOL0     C 3048   0.764   8.499   2.468  0.5901  0.0829 -0.5147
   24MOL0     C 3049   0.684   8.402   2.386  0.3451  0.3938 -0.3908
   24MOL0     C 3050   0.585   8.317   2.457  0.2379  0.3460 -0.3043
   24MOL0     C 3051   0.503   8.227   2.367  0.4936  0.1512 -0.3456
   24MOL0     C 3052   0.363   8.270   2.344 -0.8078  0.1691 -0.2759
   24MOL0     N 3053   0.300   8.168   2.263  0.5947  0.0302  0.4872
   24MOL0     C 3054   0.275   8.040   2.317 -0.5224 -0.7148 -0.7726
   24MOL0     C 3055   0.259   7.962   2.212 -0.3807  0.5827 -0.4288
   24MOL0     C 3056   0.232   7.808   2.223  0.5005 -1.4972 -0.0593
   24MOL0     C 3057   0.088   7.779   2.252 -0.4423  0.2999  0.9116
   24MOL0     C 3058   0.051   7.635   2.217  0.0099  0.1508  1.5904
   24MOL0     C 3059  -0.101   7.629   2.242  0.9231  0.4036  1.5717
   24MOL0     O 3060  -0.155   7.503   2.200  0.2350 -0.0463 -0.1152
   24MOL0     C 3061  -0.256   7.451   2.283  0.7372  0.3054 -0.0896
   24MOL0     C 3062  -0.243   7.322   2.339  0.4539  0.2025 -0.1661
   24MOL0     C 3063  -0.347   7.273   2.411  0.7014  0.6700 -1.4429
   24MOL0     C 3064  -0.465   7.350   2.451  0.3135 -0.4928  0.3424
   24MOL0     C 3065  -0.566   7.302   2.548 -0.1957 -1.0045  0.3380
   24MOL0     O 3066  -0.704   7.344   2.540  0.3689 -0.4058 -0.0662
   24MOL0     C 3067  -0.804   7.291   2.628 -0.2525 -0.5853 -0.8697
   24MOL0     C 3068  -0.886   7.375   2.697  0.8171  0.7239 -0.0251
   24MOL0     C 3069  -0.989   7.318   2.774  0.8407 -0.4459  1.0693
   24MOL0     C 3070  -1.012   7.179   2.788  0.0854  0.2636  0.1667
   24MOL0     O 3071  -1.119   7.132   2.857 -0.0308 -0.2605 -0.7157
   24MOL0     C 3072  -1.225   7.058   2.799 -0.5152 -0.1816  0.2437
   24MOL0     C 3073  -1.362   7.087   2.865 -0.3940  1.1021 -0.8993
   24MOL0     C 3074  -1.419   7.221   2.820  0.9561 -0.7452 -0.7595
   24MOL0     C 3075  -1.523   7.290   2.917 -0.1771 -0.3312 -0.4431
   24MOL0     C 3076  -1.451   7.379   3.016  0.0009  0.2890 -0.2828
   24MOL0     C 3077  -1.544   7.458   3.110 -0.1637 -0.4341 -0.8865
   24MOL0     C 3078  -1.581   7.600   3.054 -0.4753  0.2970  0.2245
   24MOL0     C 3079  -1.693   7.674   3.134 -0.6665 -0.3054  0.8832
   24MOL0    Cl 3080  -1.696   7.648   3.314 -0.4225  0.1127  0.1920
   24MOL0     C 3081  -0.925   7.095   2.715  0.5460 -0.8937 -0.4272
   24MOL0     C 3082  -0.829   7.155   2.634 -0.4620  1.4787  0.4104
   24MOL0     O 3083  -0.525   7.216   2.621  0.3073  0.6729  0.8164
   24MOL0     C 3084  -0.460   7.484   2.412 -0.4715 -0.1378 -0.2635
   24MOL0     C 3085  -0.368   7.528   2.319  1.1126 -0.3230  0.4755
   24MOL0     N 3086   0.266   8.051   2.106 -0.2019 -0.1552  0.2309
   24MOL0     N 3087   0.314   8.164   2.128 -0.2405  0.2708  0.0662
   24MOL0     C 3088   1.390   8.734   2.642 -0.5809 -0.9413 -0.6476
   24MOL0     C 3089   1.494   8.821   2.584  0.3712 -0.4560 -0.1076
   24MOL0     C 3090   1.819   9.012   2.346 -0.4209 -0.5396 -0.9503
   24MOL0     C 3091   1.889   9.119   2.392 -0.1609  0.8140 -0.0519
   24MOL0     C 3092   1.998   9.176   2.324  0.6128  0.4405  0.5219
   24MOL0     C 3093   2.040   9.119   2.204  1.2881  0.0553 -0.3989
   24MOL0     O 3094   2.145   9.173   2.126  0.5956  0.3858 -0.2961
   24MOL0     C 3095   2.145   9.136   1.986  0.4622 -0.2498 -0.2337
   24MOL0     C 3096   2.243   9.218   1.906 -0.7659  0.2080  0.3788
   24MOL0     C 3097   2.385   9.204   1.971 -0.4024  1.0478  0.1924
   24MOL0     C 3098   2.497   9.261   1.878 -0.0396 -0.0006 -0.2586
   24MOL0     C 3099   2.630   9.204   1.902  0.6417  0.4303  0.4924
   24MOL0     C 3100   2.740   9.144   1.905 -0.4589 -0.6114 -0.2752
   24MOL0     C 3101   1.968   9.006   2.161  0.0153  0.0064  0.6934
   24MOL0     C 3102   1.857   8.951   2.228  0.5646 -0.6707 -1.1848
   24MOL0     H 3103   1.411   8.773   2.243  1.5221  0.6876  0.1391
   24MOL0     H 3104   1.239   8.648   2.337 -1.0549  1.4331  1.1944
   24MOL0     H 3105   1.112   8.508   2.444 -3.5921  0.4954 -2.4847
   24MOL0     H 3106   1.032   8.664   2.478 -1.9569 -1.5627 -0.9833
   24MOL0     H 3107   0.915   8.603   2.655  0.7248 -1.4723  4.5754
   24MOL0     H 3108   1.029   8.480   2.697 -0.3907 -1.5006 -0.0075
   24MOL0     H 3109   0.851   8.348   2.601  1.6654 -1.0434  1.1215
   24MOL0     H 3110   0.943   8.375   2.451 -0.1092  0.0165  1.2444
   24MOL0     H 3111   0.706   8.538   2.552  1.4148 -0.2249  0.2148
   24MOL0     H 3112   0.792   8.590   2.415  0.7584  0.7053  0.6023
   24MOL0     H 3113   0.751   8.327   2.342 -0.2127 -1.0048  1.0199
   24MOL0     H 3114   0.625   8.452   2.310 -2.3001 -1.2418  0.4510
   24MOL0     H 3115   0.513   8.374   2.517 -0.3960 -1.2540  0.5155
   24MOL0     H 3116   0.645   8.261   2.529  1.0943  0.7241 -0.7051
   24MOL0     H 3117   0.550   8.226   2.268  1.1454  1.7568 -0.0786
   24MOL0     H 3118   0.509   8.123   2.401 -3.5732  0.4852  2.0662
   24MOL0     H 3119   0.373   8.367   2.294  2.6788  0.9066  1.5030
   24MOL0     H 3120   0.308   8.283   2.438  0.4006 -1.8110  0.7718
   24MOL0     H 3121   0.277   8.025   2.424  0.9417 -1.8313 -0.9252
   24MOL0     H 3122   0.289   7.753   2.300  2.6655 -2.6399 -2.3234
   24MOL0     H 3123   0.268   7.771   2.127  2.3823  0.8773 -0.3709
   24MOL0     H 3124   0.025   7.840   2.186 -1.1204 -1.0064  0.3026
   24MOL0     H 3125   0.056   7.808   2.352 -1.3521  0.2377  0.6536
   24MOL0     H 3126   0.086   7.604   2.118 -1.1890 -0.4643  1.3463
   24MOL0     H 3127   0.083   7.557   2.286 -1.5668 -1.3447  0.6981
   24MOL0     H 3128  -0.154   7.711   2.191 -0.7733 -0.7913  1.3138
   24MOL0     H 3129  -0.121   7.645   2.348  1.8210 -0.3809  1.8707
   24MOL0     H 3130  -0.146   7.278   2.316  1.4832  2.8664 -1.3109
   24MOL0     H 3131  -0.347   7.175   2.457 -0.3246  2.1200  2.0160
   24MOL0     H 3132  -0.877   7.483   2.704 -0.1553  0.7315  1.5840
   24MOL0     H 3133  -1.063   7.391   2.805 -1.2960 -1.7131 -0.7885
   24MOL0     H 3134  -1.199   6.956   2.831  0.5658  0.0750  0.2267
   24MOL0     H 3135  -1.223   7.065   2.690  0.3908 -5.0408 -0.2581
   24MOL0     H 3136  -1.351   7.071   2.972 -1.8359 -0.2673 -0.9182
   24MOL0     H 3137  -1.438   7.017   2.830 -4.4493  2.6958  3.6527
   24MOL0     H 3138  -1.471   7.208   2.725  1.5572  0.5470 -1.2838
   24MOL0     H 3139  -1.331   7.282   2.802 -0.2823  0.5896 -2.6928
   24MOL0     H 3140  -1.592   7.347   2.855  0.2485  0.8172  0.1040
   24MOL0     H 3141  -1.580   7.216   2.974  0.2761  2.1750  3.7130
   24MOL0     H 3142  -1.379   7.431   2.953  1.1392 -3.7172 -2.6223
   24MOL0     H 3143  -1.391   7.311   3.076  0.4928 -1.1741 -2.3513
   24MOL0     H 3144  -1.497   7.477   3.208 -0.0700  0.8776 -1.1704
   24MOL0     H 3145  -1.633   7.396   3.127 -1.5695  0.7771 -3.4172
   24MOL0     H 3146  -1.490   7.661   3.045  1.6550 -2.9607 -4.4882
   24MOL0     H 3147  -1.626   7.583   2.956 -1.2914 -1.1624  0.8218
   24MOL0     H 3148  -1.789   7.627   3.112 -1.3559  0.5899  1.8306
   24MOL0     H 3149  -1.695   7.783   3.122  0.8265 -0.5280 -2.4459
   24MOL0     H 3150  -0.943   6.988   2.717  0.3747 -1.1240 -4.6052
   24MOL0     H 3151  -0.774   7.095   2.563 -3.8339 -1.4251  0.0050
   24MOL0     H 3152  -0.534   7.546   2.461 -1.6584 -0.1148 -2.0087
   24MOL0     H 3153  -0.358   7.632   2.290  0.7887 -0.2460  0.6336
   24MOL0     H 3154   1.370   8.726   2.748  1.1324 -1.1214 -0.3132
   24MOL0     H 3155   1.562   8.874   2.649 -3.6541  3.6022  1.3051
   24MOL0     H 3156   1.866   9.161   2.489 -1.9262 -1.2450  0.5039
   24MOL0     H 3157   2.059   9.254   2.369  2.0696 -0.0735 -0.4973
   24MOL0     H 3158   2.048   9.167   1.946  1.7466  1.4284 -2.2786
   24MOL0     H 3159   2.166   9.030   1.967 -2.5441 -0.8111 -0.8987
   24MOL0     H 3160   2.237   9.170   1.807 -0.7563 -2.7492  1.6969
   24MOL0     H 3161   2.208   9.319   1.885 -0.7344  0.3499  1.0001
   24MOL0     H 3162   2.404   9.097   1.965  0.8321  1.3182 -1.3305
   24MOL0     H 3163   2.394   9.236   2.075 -1.2858 -3.4032  1.8528
   24MOL0     H 3164   2.464   9.230   1.779 -1.6828 -4.6946  1.5075
   24MOL0     H 3165   2.502   9.370   1.891  0.3754 -0.2902  2.7406
   24MOL0     H 3166   2.834   9.092   1.901 -2.0449 -3.6547 -1.0782
   24MOL0     H 3167   1.988   8.954   2.068  0.3083 -2.1046  1.8757
   24MOL0     H 3168   1.804   8.864   2.192 -0.3820 -2.1352  3.1489
   25MOL0     O 3169  10.946   0.577   1.274  0.3987 -0.0671 -0.6683
   25MOL0     C 3170  10.983   0.532   1.389  0.0229  0.0993  0.4055
   25MOL0     O 3171  10.951   0.417   1.453  0.2714  1.1667  0.3278
   25MOL0     C 3172  10.837   0.345   1.417 -0.4647  0.0783  0.1093
   25MOL0     C 3173  10.715   0.390   1.367 -0.7459  0.3974 -0.0175
   25MOL0     C 3174  10.600   0.309   1.352 -0.0589  1.5643  0.3545
   25MOL0     C 3175  10.603   0.175   1.396 -0.0230 -0.2474 -0.1570
   25MOL0     O 3176  10.489   0.091   1.386 -0.1997 -0.3540  0.2142
   25MOL0     C 3177  10.476  -0.027   1.464  0.5424  0.1438  0.0473
   25MOL0     C 3178  10.329  -0.087   1.455  0.1351 -0.5435 -0.7211
   25MOL0     C 3179  10.317  -0.187   1.575 -0.4105 -0.4193 -1.1750
   25MOL0     C 3180  10.168  -0.200   1.612  0.6387 -0.4763 -0.0113
   25MOL0     C 3181  10.154  -0.266   1.749 -0.3878  0.8591 -0.6558
   25MOL0     C 3182  10.000  -0.270   1.787  1.3478 -0.8854  0.3514
   25MOL0     C 3183   9.902  -0.363   1.706  0.0840 -0.5210 -0.2954
   25MOL0     C 3184   9.761  -0.347   1.770  0.4620  0.1245 -0.7250
   25MOL0     N 3185   9.661  -0.431   1.693 -0.3699  0.1896  0.2142
   25MOL0     C 3186   9.604  -0.393   1.577  0.2907  1.2424  0.5356
   25MOL0     C 3187   9.551  -0.506   1.518  0.8195  0.7086 -0.2590
   25MOL0     C 3188   9.501  -0.515   1.376 -0.1083 -0.0679  0.1778
   25MOL0     C 3189   9.377  -0.596   1.373 -0.5651  0.1813 -0.4715
   25MOL0     C 3190   9.255  -0.528   1.446 -0.3304  0.6601  0.1917
   25MOL0     C 3191   9.126  -0.609   1.413 -0.1098 -1.2876 -0.4299
   25MOL0     O 3192   9.020  -0.519   1.442  0.4292  0.2250  0.3130
   25MOL0     C 3193   8.898  -0.574   1.425  0.7275  0.5725 -0.5414
   25MOL0     C 3194   8.786  -0.545   1.517  0.2253 -0.3780  0.5876
   25MOL0     C 3195   8.652  -0.594   1.508  0.3744 -0.3803  0.7082
   25MOL0     C 3196   8.626  -0.698   1.424 -0.7506  0.0631 -0.1157
   25MOL0     C 3197   8.495  -0.755   1.408 -0.1609  0.4501  0.6672
   25MOL0     O 3198   8.404  -0.736   1.509 -0.2432  0.1138 -0.0878
   25MOL0     C 3199   8.273  -0.754   1.494 -0.0630  1.4037  0.4777
   25MOL0     C 3200   8.212  -0.832   1.591 -0.0481 -0.3698 -0.5238
   25MOL0     C 3201   8.080  -0.866   1.582 -0.0928  0.4914  1.5178
   25MOL0     C 3202   8.004  -0.818   1.475  0.0053  0.3655  0.6328
   25MOL0     O 3203   7.874  -0.855   1.447 -0.4066 -0.5620  0.1677
   25MOL0     C 3204   7.851  -0.909   1.313 -0.2624  0.0082 -0.5562
   25MOL0     C 3205   7.733  -1.002   1.307 -0.1026 -0.5817 -0.7971
   25MOL0     C 3206   7.608  -0.916   1.321 -0.4427  0.2572 -1.4601
   25MOL0     C 3207   7.489  -1.006   1.356 -0.0465  0.9059  0.2348
   25MOL0     C 3208   7.357  -0.941   1.296  1.0993  0.8200  0.8746
   25MOL0     C 3209   7.235  -1.027   1.334  1.2392  0.7026  0.6398
   25MOL0     C 3210   7.109  -0.955   1.291 -0.7765 -0.1449  0.5958
   25MOL0     C 3211   6.987  -1.025   1.331  0.0854 -0.5710 -0.0658
   25MOL0    Cl 3212   6.981  -1.213   1.307  0.0563  0.0298  0.3361
   25MOL0     C 3213   8.056  -0.732   1.386  0.9639 -1.2041  1.1108
   25MOL0     C 3214   8.184  -0.698   1.398 -0.1245 -0.1670 -0.8329
   25MOL0     O 3215   8.465  -0.806   1.299  0.4008 -0.5559  0.1370
   25MOL0     C 3216   8.739  -0.748   1.354 -0.5593 -0.4031  0.5471
   25MOL0     C 3217   8.869  -0.685   1.347 -0.9222  0.0898 -0.7374
   25MOL0     N 3218   9.553  -0.608   1.614  0.1820 -0.1816 -0.1912
   25MOL0     N 3219   9.615  -0.565   1.716 -0.0186 -0.7722  0.5843
   25MOL0     C 3220  10.716   0.138   1.469  0.5210  0.2078 -0.1380
   25MOL0     C 3221  10.840   0.213   1.467  0.0899 -1.6045 -0.0310
   25MOL0     C 3222  11.051   0.629   1.469  0.2128  0.1310  0.1899
   25MOL0     C 3223  11.136   0.582   1.574  0.6464  0.0880 -0.0878
   25MOL0     C 3224  11.220   0.669   1.645 -0.5512 -0.6546 -0.9121
   25MOL0     C 3225  11.210   0.805   1.622  0.1447  0.0443 -0.5944
   25MOL0     O 3226  11.271   0.891   1.710  0.4900  0.3872 -0.8851
   25MOL0     C 3227  11.421   0.898   1.713  0.8401 -0.2839  0.1235
   25MOL0     C 3228  11.443   1.041   1.772 -0.1269 -0.0954 -0.6550
   25MOL0     C 3229  11.582   1.098   1.745 -1.0042 -0.4253  0.2143
   25MOL0     C 3230  11.708   1.012   1.737  0.7620 -0.4057 -0.4997
   25MOL0     C 3231  11.731   0.942   1.864 -0.1055 -0.2174 -0.2364
   25MOL0     C 3232  11.733   0.886   1.973  0.4478 -0.0089  0.1923
   25MOL0     C 3233  11.130   0.851   1.514  0.6097  0.4905 -0.3206
   25MOL0     C 3234  11.054   0.762   1.440 -0.3797 -0.0718 -0.0666
   25MOL0     H 3235  10.710   0.490   1.325  0.4954  1.4091  2.0834
   25MOL0     H 3236  10.506   0.344   1.310 -0.7848 -0.4706  0.1471
   25MOL0     H 3237  10.494   0.019   1.562  0.6668  2.8349 -1.1349
   25MOL0     H 3238  10.553  -0.099   1.434  0.2779 -0.3546  0.5508
   25MOL0     H 3239  10.312  -0.135   1.359  1.6788  1.2240 -1.9596
   25MOL0     H 3240  10.251  -0.014   1.479  2.2824  1.5354  0.3662
   25MOL0     H 3241  10.381  -0.160   1.659  1.0047 -0.0386 -2.3164
   25MOL0     H 3242  10.357  -0.283   1.541 -3.0240 -1.8972 -0.3775
   25MOL0     H 3243  10.122  -0.101   1.617 -2.0484 -1.3951 -3.1640
   25MOL0     H 3244  10.122  -0.257   1.532 -0.8893 -1.8548  1.7449
   25MOL0     H 3245  10.208  -0.202   1.819  0.9811 -1.7619  0.8329
   25MOL0     H 3246  10.198  -0.366   1.757  1.0351  0.9097 -5.0557
   25MOL0     H 3247   9.970  -0.167   1.770  1.6779 -1.1292 -2.1372
   25MOL0     H 3248   9.999  -0.298   1.893 -0.9996  2.8494  1.4950
   25MOL0     H 3249   9.892  -0.321   1.606 -1.6078 -2.4033 -0.9712
   25MOL0     H 3250   9.939  -0.466   1.706 -3.0670 -1.7740  1.1695
   25MOL0     H 3251   9.734  -0.241   1.761 -2.8149 -0.6938 -2.4005
   25MOL0     H 3252   9.756  -0.382   1.873  2.2504 -3.5572 -1.7205
   25MOL0     H 3253   9.624  -0.299   1.525  6.5260  0.0462  0.0124
   25MOL0     H 3254   9.580  -0.569   1.323 -0.6637 -0.9033  0.1861
   25MOL0     H 3255   9.483  -0.411   1.345  0.0989 -0.7885 -2.6346
   25MOL0     H 3256   9.393  -0.686   1.432  0.1322  1.5422  1.5083
   25MOL0     H 3257   9.359  -0.629   1.270 -0.3190  0.3089 -0.5569
   25MOL0     H 3258   9.259  -0.535   1.555 -4.0192 -0.0305  0.3966
   25MOL0     H 3259   9.226  -0.427   1.416 -2.9288  0.8517  2.8882
   25MOL0     H 3260   9.113  -0.702   1.470 -3.8070 -0.1740  0.8596
   25MOL0     H 3261   9.116  -0.625   1.305 -3.1229  3.3782 -1.1093
   25MOL0     H 3262   8.820  -0.481   1.598  0.8446 -1.4321  1.1856
   25MOL0     H 3263   8.568  -0.552   1.563  0.6184 -1.1167  1.6684
   25MOL0     H 3264   8.275  -0.862   1.675 -0.7021 -0.5806 -0.1028
   25MOL0     H 3265   8.027  -0.924   1.656 -0.0488 -0.0177  1.1546
   25MOL0     H 3266   7.942  -0.965   1.290  0.4631  1.3095 -0.9563
   25MOL0     H 3267   7.825  -0.823   1.250 -0.7034 -1.1152 -1.9823
   25MOL0     H 3268   7.744  -1.083   1.380 -0.8506 -0.6265 -0.7228
   25MOL0     H 3269   7.728  -1.049   1.208  1.2218 -0.1142 -1.1083
   25MOL0     H 3270   7.590  -0.857   1.230 -0.6558 -0.3859 -1.8409
   25MOL0     H 3271   7.623  -0.838   1.396 -1.9989  2.3244 -3.1458
   25MOL0     H 3272   7.501  -1.104   1.309 -2.0279  0.3179  0.8793
   25MOL0     H 3273   7.485  -1.042   1.459  0.1244  1.3858  0.4151
   25MOL0     H 3274   7.355  -0.928   1.187  2.9677  1.0105  0.8341
   25MOL0     H 3275   7.350  -0.840   1.337  0.3761  1.4502 -0.7083
   25MOL0     H 3276   7.227  -1.056   1.439  0.4721  1.3847  0.7858
   25MOL0     H 3277   7.243  -1.123   1.283 -2.0830 -0.8162  2.6709
   25MOL0     H 3278   7.111  -0.852   1.329  0.6767  0.1145 -0.1287
   25MOL0     H 3279   7.118  -0.951   1.182 -3.0593 -1.9574  0.2499
   25MOL0     H 3280   6.907  -0.974   1.276 -1.6056 -0.5618  2.2510
   25MOL0     H 3281   6.962  -1.006   1.436  1.0300  1.9524 -0.2441
   25MOL0     H 3282   7.996  -0.685   1.309  1.8963 -1.1285  0.4146
   25MOL0     H 3283   8.229  -0.638   1.320 -2.0260  1.9395 -0.3845
   25MOL0     H 3284   8.727  -0.830   1.285 -0.0236  0.2737 -0.3714
   25MOL0     H 3285   8.948  -0.732   1.290  1.6431 -2.4238  4.2638
   25MOL0     H 3286  10.705   0.041   1.515 -1.2060  1.0788  1.4002
   25MOL0     H 3287  10.932   0.181   1.515  0.0484  0.9988  2.0567
   25MOL0     H 3288  11.139   0.475   1.591  0.8434 -0.0333 -0.8517
   25MOL0     H 3289  11.284   0.634   1.726 -0.1404  0.9231 -0.5127
   25MOL0     H 3290  11.464   0.894   1.612 -2.4196  1.1308 -1.4594
   25MOL0     H 3291  11.460   0.819   1.777  0.5567  2.0399  3.3935
   25MOL0     H 3292  11.370   1.112   1.733 -3.6700 -2.1821  1.6789
   25MOL0     H 3293  11.446   1.038   1.881  0.1063  2.5527 -0.5268
   25MOL0     H 3294  11.601   1.177   1.819 -0.6250 -2.0374  1.8880
   25MOL0     H 3295  11.583   1.146   1.646  2.7854 -2.4225 -0.8919
   25MOL0     H 3296  11.685   0.938   1.660 -1.1947 -2.6540  2.0440
   25MOL0     H 3297  11.790   1.075   1.701 -0.2518 -1.4621 -5.2088
   25MOL0     H 3298  11.745   0.840   2.069  1.8243 -0.6004 -0.2436
   25MOL0     H 3299  11.135   0.955   1.484  3.0023  0.5466  0.0194
   25MOL0     H 3300  10.996   0.801   1.358 -4.3442 -2.4946  1.3120
   26MOL0     O 3301   3.870   9.380   4.059 -0.2003  0.3379 -0.3596
   26MOL0     C 3302   3.832   9.438   3.959  0.3104  0.4438 -0.0312
   26MOL0     O 3303   3.912   9.496   3.867 -0.2134  0.1110 -0.1970
   26MOL0     C 3304   4.052   9.494   3.868  0.0129  0.6131  0.6674
   26MOL0     C 3305   4.117   9.619   3.862  0.1745  0.1097  0.8403
   26MOL0     C 3306   4.251   9.631   3.827 -0.7813  0.5867  0.2393
   26MOL0     C 3307   4.329   9.518   3.808  0.4452 -0.1722  0.2061
   26MOL0     O 3308   4.463   9.537   3.786 -0.7413 -0.2186 -1.0616
   26MOL0     C 3309   4.522   9.442   3.694  0.3671  0.0232  0.5634
   26MOL0     C 3310   4.648   9.510   3.630 -0.2846  0.1103 -0.1512
   26MOL0     C 3311   4.770   9.420   3.617 -0.4127  0.9226 -0.0588
   26MOL0     C 3312   4.886   9.484   3.531  0.5804 -0.4580 -0.3696
   26MOL0     C 3313   4.930   9.618   3.581 -1.1876 -0.7678  0.7265
   26MOL0     C 3314   4.994   9.601   3.725 -0.9097  0.7423 -0.2139
   26MOL0     C 3315   5.039   9.728   3.791  0.2016 -0.4932 -0.7584
   26MOL0     C 3316   4.919   9.816   3.843  0.7221  0.2650  0.3815
   26MOL0     N 3317   4.858   9.752   3.965  0.5985 -0.3774  0.5547
   26MOL0     C 3318   4.740   9.685   3.963 -0.3141 -0.3588 -0.2040
   26MOL0     C 3319   4.721   9.632   4.090 -0.1770  0.6837  0.3512
   26MOL0     C 3320   4.611   9.531   4.133  0.4956  0.0166  0.2873
   26MOL0     C 3321   4.472   9.583   4.154  0.9262 -0.2972 -0.3623
   26MOL0     C 3322   4.472   9.679   4.265 -0.3634 -0.0745  0.3271
   26MOL0     C 3323   4.322   9.719   4.297  0.8705  0.8997 -0.5429
   26MOL0     O 3324   4.284   9.813   4.198 -0.2445  0.3990  0.1933
   26MOL0     C 3325   4.159   9.821   4.159  0.2078 -0.7832 -0.7999
   26MOL0     C 3326   4.035   9.772   4.220 -0.7927  0.8399  0.4819
   26MOL0     C 3327   3.918   9.781   4.148 -0.1825 -0.2520  0.4219
   26MOL0     C 3328   3.910   9.854   4.027 -0.4033 -0.6382  0.8770
   26MOL0     C 3329   3.783   9.885   3.958  1.4178  0.0025  0.1327
   26MOL0     O 3330   3.785   9.957   3.846  0.5718 -0.8594 -0.5552
   26MOL0     C 3331   3.663   9.976   3.777 -0.4666  0.5006  0.2249
   26MOL0     C 3332   3.585  10.088   3.808  0.0442  0.9919  0.0197
   26MOL0     C 3333   3.473  10.111   3.728 -0.7371  0.0433 -0.6011
   26MOL0     C 3334   3.422  10.022   3.635 -0.9519  0.1397 -0.4072
   26MOL0     O 3335   3.307  10.057   3.575  0.0491  0.3006  0.0462
   26MOL0     C 3336   3.225   9.940   3.559  0.0766  0.5022  0.3665
   26MOL0     C 3337   3.077   9.979   3.543 -0.9475  0.2196 -0.7746
   26MOL0     C 3338   3.027  10.013   3.675  0.7451 -0.3037 -0.3268
   26MOL0     C 3339   3.024  10.166   3.709  0.2337  1.3135 -0.7844
   26MOL0     C 3340   3.009  10.203   3.855  0.8388  0.3113  0.1060
   26MOL0     C 3341   2.864  10.189   3.922  0.1946  0.2915  0.2258
   26MOL0     C 3342   2.870  10.184   4.078 -0.0754  0.4542 -0.4302
   26MOL0     C 3343   2.737  10.164   4.145  0.7326  0.1000  0.3290
   26MOL0    Cl 3344   2.759  10.151   4.331  0.3732  0.2119 -0.1671
   26MOL0     C 3345   3.494   9.904   3.609 -0.1653 -0.3380 -0.7045
   26MOL0     C 3346   3.618   9.881   3.670 -0.9581 -0.8050 -0.2729
   26MOL0     O 3347   3.681   9.832   4.004 -0.1865 -0.1170  0.2667
   26MOL0     C 3348   4.021   9.919   3.981 -0.0453 -0.1425 -0.1384
   26MOL0     C 3349   4.143   9.888   4.050  0.0908  0.0059 -0.5374
   26MOL0     N 3350   4.825   9.659   4.172 -0.5047 -0.7383 -0.0356
   26MOL0     N 3351   4.903   9.722   4.092  0.0765  0.6216 -0.7012
   26MOL0     C 3352   4.273   9.391   3.823  0.6878 -0.4250  0.1988
   26MOL0     C 3353   4.132   9.376   3.857  0.2833 -0.1690  0.0105
   26MOL0     C 3354   3.683   9.468   3.945  0.3147 -0.4518  0.4289
   26MOL0     C 3355   3.618   9.562   3.856  0.2637 -0.3541  0.1163
   26MOL0     C 3356   3.482   9.580   3.846 -0.0840  0.4974 -0.4681
   26MOL0     C 3357   3.391   9.490   3.905 -0.1835  0.8133 -0.3997
   26MOL0     O 3358   3.255   9.486   3.903  0.0742 -0.2043 -0.1506
   26MOL0     C 3359   3.176   9.578   3.828  0.2311 -0.1353 -0.6260
   26MOL0     C 3360   3.046   9.598   3.905  0.0408  0.0476 -0.4918
   26MOL0     C 3361   2.970   9.728   3.858 -0.5820 -0.1327  0.4821
   26MOL0     C 3362   2.825   9.733   3.906 -0.7781  1.0018 -0.6586
   26MOL0     C 3363   2.825   9.710   4.053 -0.4263 -0.3964 -0.6918
   26MOL0     C 3364   2.850   9.694   4.172 -0.2201 -0.3196  0.6855
   26MOL0     C 3365   3.456   9.386   3.982  0.3779  0.1762 -0.2357
   26MOL0     C 3366   3.595   9.377   4.006  0.0721 -0.1237 -0.1124
   26MOL0     H 3367   4.065   9.713   3.880 -1.6171 -1.2898  3.6962
   26MOL0     H 3368   4.305   9.725   3.831 -1.5603  0.9942  2.0475
   26MOL0     H 3369   4.447   9.422   3.617 -1.5742  1.4183  2.0071
   26MOL0     H 3370   4.547   9.352   3.749  0.2451 -1.3171 -1.4608
   26MOL0     H 3371   4.680   9.589   3.698  3.0368  0.4332 -1.8833
   26MOL0     H 3372   4.618   9.549   3.532 -1.1642  0.2703  0.1690
   26MOL0     H 3373   4.752   9.326   3.563  1.0028 -0.0319  1.0427
   26MOL0     H 3374   4.814   9.395   3.714 -0.7385 -0.7188 -0.3062
   26MOL0     H 3375   4.961   9.412   3.499 -0.8774 -2.3814  0.3385
   26MOL0     H 3376   4.841   9.496   3.432 -0.9153 -0.6774  0.2474
   26MOL0     H 3377   4.847   9.689   3.588 -0.6856 -0.0860  0.0030
   26MOL0     H 3378   5.005   9.647   3.507 -1.4308 -0.2515  0.6766
   26MOL0     H 3379   5.084   9.538   3.721 -1.0656  0.5643 -1.1843
   26MOL0     H 3380   4.936   9.551   3.803 -0.6973 -1.5094 -1.4153
   26MOL0     H 3381   5.094   9.696   3.880 -1.0194  1.4827  0.7910
   26MOL0     H 3382   5.117   9.785   3.738  1.5755 -2.1465 -0.5824
   26MOL0     H 3383   4.836   9.817   3.772  1.0480 -2.1185 -0.1284
   26MOL0     H 3384   4.948   9.917   3.874 -0.7427  1.7283 -2.6396
   26MOL0     H 3385   4.682   9.682   3.871  0.7302  1.9570 -1.0082
   26MOL0     H 3386   4.639   9.475   4.222 -0.7292 -0.8087  0.1783
   26MOL0     H 3387   4.604   9.458   4.051 -0.9906  2.3188 -1.7756
   26MOL0     H 3388   4.401   9.503   4.175  2.9138 -1.9881  0.3519
   26MOL0     H 3389   4.440   9.625   4.059 -1.5559  2.2756  1.4393
   26MOL0     H 3390   4.524   9.642   4.354  1.0888  1.9044  0.3818
   26MOL0     H 3391   4.532   9.765   4.232 -1.0137 -0.0628 -0.8784
   26MOL0     H 3392   4.322   9.768   4.395 -2.1153  2.1231 -1.0341
   26MOL0     H 3393   4.256   9.631   4.295  0.4364  1.2148 -3.0653
   26MOL0     H 3394   4.031   9.710   4.309 -2.4644 -0.5380 -0.4671
   26MOL0     H 3395   3.819   9.754   4.184 -0.8997  3.4248  1.7190
   26MOL0     H 3396   3.621  10.153   3.887  0.2405 -0.1848  0.9301
   26MOL0     H 3397   3.400  10.190   3.747 -3.4735 -2.6246  0.9393
   26MOL0     H 3398   3.228   9.862   3.635 -2.0417 -1.5027 -1.4149
   26MOL0     H 3399   3.256   9.891   3.466  0.4114  1.5778 -0.0986
   26MOL0     H 3400   3.024   9.889   3.511 -1.5862 -0.4819  2.0224
   26MOL0     H 3401   3.072  10.063   3.473 -0.0435  0.6702 -0.3051
   26MOL0     H 3402   3.089   9.958   3.747  1.7166  2.4370  1.0648
   26MOL0     H 3403   2.920   9.995   3.682  0.0875  2.1141 -2.7038
   26MOL0     H 3404   3.124  10.200   3.682  0.0333  0.6828 -2.4447
   26MOL0     H 3405   2.961  10.229   3.645 -0.2558  1.9471  0.2924
   26MOL0     H 3406   3.036  10.308   3.868 -0.6856  0.6312  0.8226
   26MOL0     H 3407   3.081  10.139   3.906 -1.6110 -2.3138  0.5291
   26MOL0     H 3408   2.828  10.092   3.886  3.0944 -1.5048  1.7628
   26MOL0     H 3409   2.798  10.273   3.898 -1.4905 -1.2613 -0.8390
   26MOL0     H 3410   2.943  10.109   4.111 -1.4046 -0.9092 -0.5055
   26MOL0     H 3411   2.908  10.283   4.105  0.4591  1.1681 -3.4714
   26MOL0     H 3412   2.688  10.076   4.101  1.1710  1.1770 -2.5516
   26MOL0     H 3413   2.670  10.249   4.133 -1.8677 -1.1147  4.2629
   26MOL0     H 3414   3.458   9.825   3.543 -0.6417 -1.5576  0.9604
   26MOL0     H 3415   3.680   9.796   3.643  1.3003  0.5791  0.3235
   26MOL0     H 3416   4.017   9.981   3.891 -0.6362 -0.1954 -0.1539
   26MOL0     H 3417   4.232   9.936   4.012  0.7820  0.9471  2.0403
   26MOL0     H 3418   4.338   9.305   3.811  0.6484 -0.8447  2.5062
   26MOL0     H 3419   4.097   9.273   3.864  5.9549 -2.6420 -2.3723
   26MOL0     H 3420   3.688   9.624   3.801  0.7186 -2.6727 -2.1296
   26MOL0     H 3421   3.451   9.664   3.784  3.0294  0.2475 -2.5602
   26MOL0     H 3422   3.162   9.533   3.729  0.1115 -2.5759  0.4358
   26MOL0     H 3423   3.222   9.676   3.809 -1.7247  0.4216 -2.9341
   26MOL0     H 3424   2.977   9.513   3.908 -1.6576  1.3639  1.9954
   26MOL0     H 3425   3.077   9.626   4.006  0.3517  2.3848 -1.1624
   26MOL0     H 3426   2.969   9.721   3.749  1.3680 -1.7491  0.5010
   26MOL0     H 3427   3.018   9.823   3.883 -1.5799 -0.1960  2.8905
   26MOL0     H 3428   2.786   9.833   3.884  1.8627  2.6303  1.3971
   26MOL0     H 3429   2.768   9.657   3.851  0.7804 -2.2971  1.9656
   26MOL0     H 3430   2.871   9.685   4.277 -0.7084  4.2888  1.3745
   26MOL0     H 3431   3.389   9.322   4.039  2.2537 -1.1045  0.6431
   26MOL0     H 3432   3.627   9.301   4.076 -0.3587  0.2521  0.5012
   27MOL0     O 3433  10.847   9.527   7.837  0.4727 -0.1036  0.8826
   27MOL0     C 3434  10.847   9.548   7.710  1.0281 -0.1645 -0.2634
   27MOL0     O 3435  10.738   9.567   7.634 -0.0351  0.0623 -0.6126
   27MOL0     C 3436  10.618   9.602   7.691 -0.0696 -0.4537 -0.2041
   27MOL0     C 3437  10.583   9.667   7.819 -0.1309  0.3743 -0.0656
   27MOL0     C 3438  10.466   9.729   7.843  1.0318 -0.1045 -0.2146
   27MOL0     C 3439  10.373   9.737   7.736 -0.9184  0.2931  0.4622
   27MOL0     O 3440  10.256   9.805   7.770 -0.8658 -0.5073  0.9917
   27MOL0     C 3441  10.182   9.877   7.670  0.6428 -0.3656  0.9372
   27MOL0     C 3442  10.059   9.941   7.729 -0.5597 -0.4624 -0.3195
   27MOL0     C 3443   9.945   9.955   7.630 -0.7119  1.1311 -0.5040
   27MOL0     C 3444   9.819  10.020   7.689  1.2781  0.3169  0.0481
   27MOL0     C 3445   9.714  10.043   7.575  0.1695 -0.1860  1.0849
   27MOL0     C 3446   9.616  10.156   7.586 -0.9883  0.5452 -0.4414
   27MOL0     C 3447   9.490  10.100   7.665  0.8079  0.2732  0.8193
   27MOL0     C 3448   9.385  10.214   7.707 -0.5872  0.8129  1.0503
   27MOL0     N 3449   9.344  10.291   7.591  0.0874 -0.5807  0.7579
   27MOL0     C 3450   9.220  10.272   7.528 -0.0558  0.1407  0.0314
   27MOL0     C 3451   9.190  10.378   7.448  0.7487 -0.7471  0.6531
   27MOL0     C 3452   9.069  10.406   7.372  0.4749  0.9498 -0.0827
   27MOL0     C 3453   8.972  10.498   7.447 -0.0418  0.8357  0.2553
   27MOL0     C 3454   8.843  10.518   7.373  0.5243 -0.3489  0.7575
   27MOL0     C 3455   8.753  10.619   7.438  0.5939 -0.1833  0.7025
   27MOL0     O 3456   8.632  10.624   7.364 -0.0465  0.0952 -0.5354
   27MOL0     C 3457   8.535  10.716   7.398 -0.3172  0.4381 -0.7039
   27MOL0     C 3458   8.545  10.814   7.499 -0.2177  0.2845  0.1579
   27MOL0     C 3459   8.450  10.905   7.519  0.6316 -1.1664  0.8698
   27MOL0     C 3460   8.335  10.911   7.435 -0.0058  0.0247 -0.0963
   27MOL0     C 3461   8.233  11.011   7.464  0.3428  0.6286  0.2174
   27MOL0     O 3462   8.271  11.102   7.560 -0.3629 -0.3626 -0.2948
   27MOL0     C 3463   8.198  11.217   7.591 -0.3673  0.0698  0.4623
   27MOL0     C 3464   8.103  11.285   7.519  0.0448 -0.1231 -0.0094
   27MOL0     C 3465   8.034  11.396   7.565  0.3849 -0.8615  0.8639
   27MOL0     C 3466   8.055  11.437   7.698 -0.2078  0.1062  0.7669
   27MOL0     O 3467   8.000  11.554   7.734 -0.4799 -0.3502  0.0164
   27MOL0     C 3468   8.094  11.653   7.783 -0.0509 -0.2491  0.4909
   27MOL0     C 3469   8.060  11.801   7.776  0.1500 -0.2914  0.0197
   27MOL0     C 3470   7.932  11.834   7.837 -0.9702 -0.1316 -0.2029
   27MOL0     C 3471   7.896  11.984   7.823 -0.0330  0.5264  0.5285
   27MOL0     C 3472   7.857  12.023   7.679 -0.2626 -0.1386  0.5943
   27MOL0     C 3473   7.740  12.122   7.679  0.2527 -0.2178 -0.1651
   27MOL0     C 3474   7.673  12.130   7.538  0.1977 -0.8021 -0.3017
   27MOL0     C 3475   7.774  12.198   7.444  0.6066  0.2929  0.4032
   27MOL0    Cl 3476   7.699  12.207   7.282 -0.0036 -0.1909  0.2189
   27MOL0     C 3477   8.147  11.361   7.779  1.1589 -0.2054  0.3381
   27MOL0     C 3478   8.212  11.253   7.730  0.4109 -0.2467  0.9122
   27MOL0     O 3479   8.127  11.002   7.404 -0.1318 -0.9164  0.2863
   27MOL0     C 3480   8.311  10.802   7.351  0.1795  0.5714 -1.0783
   27MOL0     C 3481   8.413  10.711   7.331  0.1184 -0.7627  0.0327
   27MOL0     N 3482   9.293  10.462   7.460  0.4105  0.7254  0.4477
   27MOL0     N 3483   9.381  10.417   7.545  0.2076 -0.0007 -0.7593
   27MOL0     C 3484  10.390   9.664   7.622  0.3326 -0.2020  0.3532
   27MOL0     C 3485  10.514   9.606   7.595  0.7907 -0.8858  0.4092
   27MOL0     C 3486  10.976   9.575   7.648 -0.0357 -0.5095  0.0619
   27MOL0     C 3487  11.084   9.637   7.713 -0.6248 -0.3318  0.8886
   27MOL0     C 3488  11.211   9.639   7.660 -0.3895  0.8566  0.7041
   27MOL0     C 3489  11.225   9.602   7.523  0.4242 -0.9493  0.0817
   27MOL0     O 3490  11.347   9.609   7.481  0.4526 -0.1939  0.7816
   27MOL0     C 3491  11.392   9.493   7.407 -0.4808  0.2885  0.0016
   27MOL0     C 3492  11.540   9.475   7.403 -0.4038  0.4011 -0.2205
   27MOL0     C 3493  11.584   9.448   7.555  0.6908 -0.3026 -0.1065
   27MOL0     C 3494  11.734   9.450   7.558  0.8288  0.3776 -1.0532
   27MOL0     C 3495  11.785   9.580   7.531  1.3069 -0.1863  1.0174
   27MOL0     C 3496  11.832   9.692   7.514 -0.0363  0.3711 -0.7681
   27MOL0     C 3497  11.110   9.540   7.458  1.4033  0.0055  0.2311
   27MOL0     C 3498  10.992   9.536   7.518  0.0608  0.2674 -0.4332
   27MOL0     H 3499  10.657   9.674   7.897  1.3129 -0.8644 -1.2622
   27MOL0     H 3500  10.455   9.770   7.943  4.5537 -2.7869  1.5211
   27MOL0     H 3501  10.144   9.812   7.591  0.6078  0.4847  0.2371
   27MOL0     H 3502  10.243   9.957   7.626  1.8868 -1.1222  1.2312
   27MOL0     H 3503  10.090  10.032   7.780  0.2845 -1.1691  0.4690
   27MOL0     H 3504  10.013   9.875   7.803 -0.4811  0.5806  0.6809
   27MOL0     H 3505   9.919   9.857   7.588 -1.8846  1.1634  0.0925
   27MOL0     H 3506   9.973  10.026   7.553  3.2183  1.9175  1.4118
   27MOL0     H 3507   9.772   9.944   7.752  2.6158 -1.4277 -0.9704
   27MOL0     H 3508   9.845  10.115   7.737 -0.2158  1.1552 -0.7280
   27MOL0     H 3509   9.662   9.953   7.543  0.8407  0.2576 -1.4684
   27MOL0     H 3510   9.782  10.074   7.495  1.3801 -0.4414  1.9829
   27MOL0     H 3511   9.599  10.199   7.487 -1.4295  0.9383 -0.1983
   27MOL0     H 3512   9.663  10.231   7.650 -0.8539 -2.5783  3.5739
   27MOL0     H 3513   9.442  10.033   7.593 -0.6838  1.7515  0.3562
   27MOL0     H 3514   9.510  10.048   7.759 -2.0064  0.8386  1.8299
   27MOL0     H 3515   9.412  10.279   7.790 -0.5418 -0.5780  2.1713
   27MOL0     H 3516   9.302  10.156   7.748 -0.4757 -0.2941 -0.1972
   27MOL0     H 3517   9.155  10.185   7.537 -2.0567  1.7305  1.9958
   27MOL0     H 3518   9.020  10.313   7.343  0.3422  0.8225  0.5393
   27MOL0     H 3519   9.089  10.452   7.275 -0.5175  1.9029  0.1364
   27MOL0     H 3520   9.020  10.594   7.468 -2.2640  1.9662  0.4624
   27MOL0     H 3521   8.960  10.455   7.546  2.3387  0.4755  0.4481
   27MOL0     H 3522   8.858  10.564   7.275  2.4832 -0.5564  0.9182
   27MOL0     H 3523   8.799  10.419   7.365 -2.7279  0.7991  2.6637
   27MOL0     H 3524   8.806  10.714   7.427  1.1471 -0.6327 -0.8365
   27MOL0     H 3525   8.742  10.587   7.542  0.4645  0.5306  0.9141
   27MOL0     H 3526   8.633  10.821   7.563 -2.5071 -0.2773  3.6309
   27MOL0     H 3527   8.481  10.988   7.583  1.9132 -0.7340 -0.2735
   27MOL0     H 3528   8.092  11.246   7.418 -0.6302 -1.9888  0.7284
   27MOL0     H 3529   7.956  11.454   7.517  0.6384  0.9688  2.5483
   27MOL0     H 3530   8.186  11.647   7.725  1.2406  0.1921  2.4089
   27MOL0     H 3531   8.120  11.620   7.884 -1.3479  1.9014  1.6022
   27MOL0     H 3532   8.047  11.822   7.669 -2.6205 -4.9915 -0.8500
   27MOL0     H 3533   8.138  11.862   7.821 -1.8275  0.5528  2.6059
   27MOL0     H 3534   7.944  11.826   7.945 -1.3915  0.5715 -0.0971
   27MOL0     H 3535   7.849  11.767   7.814 -0.6480  0.0537 -2.0535
   27MOL0     H 3536   7.817  12.007   7.894 -1.6643 -0.6004 -0.8236
   27MOL0     H 3537   7.982  12.047   7.850 -0.6304  0.7210  2.0607
   27MOL0     H 3538   7.843  11.932   7.621  3.0832 -0.7449  0.5575
   27MOL0     H 3539   7.945  12.069   7.633  2.0089 -5.1025 -0.7230
   27MOL0     H 3540   7.788  12.220   7.691 -1.0614  0.9433 -3.2800
   27MOL0     H 3541   7.673  12.093   7.761  1.3985  0.9357  1.2316
   27MOL0     H 3542   7.627  12.042   7.491 -3.1559 -1.0363  2.9330
   27MOL0     H 3543   7.586  12.194   7.559  3.4552  3.6302  1.2006
   27MOL0     H 3544   7.861  12.133   7.442  0.8743  0.5888  1.4825
   27MOL0     H 3545   7.808  12.297   7.477  2.0208  0.1558 -0.5583
   27MOL0     H 3546   8.157  11.399   7.881  0.0477  2.7782 -0.5486
   27MOL0     H 3547   8.283  11.195   7.789 -0.7061 -0.3877  2.1703
   27MOL0     H 3548   8.216  10.785   7.301  0.3221 -2.4962 -0.4880
   27MOL0     H 3549   8.413  10.648   7.243  1.5340  0.3672 -0.8207
   27MOL0     H 3550  10.312   9.661   7.546  2.0009 -4.0946 -1.5128
   27MOL0     H 3551  10.540   9.559   7.500  1.4907 -0.2913  0.2999
   27MOL0     H 3552  11.072   9.654   7.820 -0.1728  2.4996  0.5565
   27MOL0     H 3553  11.294   9.670   7.721 -0.3608 -0.0826  1.1468
   27MOL0     H 3554  11.351   9.492   7.306 -0.6869 -3.8019 -0.0037
   27MOL0     H 3555  11.343   9.407   7.453 -3.0730  1.5067 -0.2971
   27MOL0     H 3556  11.558   9.382   7.348  1.8340  0.8713 -0.3664
   27MOL0     H 3557  11.587   9.563   7.358  1.9065  0.7402  2.5820
   27MOL0     H 3558  11.544   9.350   7.583 -0.7652  0.4036  0.4259
   27MOL0     H 3559  11.544   9.522   7.625  0.1446 -0.9905  0.3212
   27MOL0     H 3560  11.772   9.422   7.657  2.2478 -0.4505 -1.8025
   27MOL0     H 3561  11.771   9.376   7.487  0.6335  0.2035 -0.9726
   27MOL0     H 3562  11.878   9.789   7.509 -1.5993  1.3350  1.5260
   27MOL0     H 3563  11.115   9.506   7.355 -0.4617 -2.8715  0.9731
   27MOL0     H 3564  10.900   9.505   7.468  0.0594  0.0386 -0.2925
   28MOL0     O 3565   5.973   9.977   8.755 -0.6179 -0.1853 -0.5261
   28MOL0     C 3566   6.003   9.962   8.634 -0.4677 -0.4707  0.4226
   28MOL0     O 3567   6.131   9.964   8.584  0.1973  0.1172 -0.1740
   28MOL0     C 3568   6.235  10.017   8.654 -0.1186  0.8490  0.4842
   28MOL0     C 3569   6.238  10.135   8.732 -0.0978  0.4126 -0.4083
   28MOL0     C 3570   6.364  10.190   8.785  0.3490 -0.6422  0.8391
   28MOL0     C 3571   6.485  10.127   8.754  0.2430 -0.4321  0.5899
   28MOL0     O 3572   6.609  10.185   8.787  0.4206 -0.6407  0.4196
   28MOL0     C 3573   6.726  10.134   8.732 -0.4881  0.0191 -0.3484
   28MOL0     C 3574   6.853  10.214   8.765  0.3451  0.2792  0.0946
   28MOL0     C 3575   6.967  10.136   8.693  0.1070  0.9723 -0.4561
   28MOL0     C 3576   7.071  10.232   8.651 -0.5292 -0.5450 -0.1754
   28MOL0     C 3577   7.205  10.167   8.612 -0.4850  0.2047 -0.0603
   28MOL0     C 3578   7.303  10.270   8.574 -1.0651 -0.0338 -0.5879
   28MOL0     C 3579   7.438  10.214   8.509 -0.1577 -0.3878 -0.2582
   28MOL0     C 3580   7.560  10.308   8.554  0.2600 -0.3122 -0.0161
   28MOL0     N 3581   7.680  10.276   8.482 -0.3181 -0.6011  0.5674
   28MOL0     C 3582   7.723  10.147   8.488  0.7219 -0.8454  0.5840
   28MOL0     C 3583   7.837  10.150   8.407  0.0172  0.0478 -0.4009
   28MOL0     C 3584   7.919  10.032   8.377  0.4906 -0.2102 -0.6697
   28MOL0     C 3585   7.848   9.908   8.340  0.8093  0.9305 -0.0105
   28MOL0     C 3586   7.817   9.911   8.189 -0.1453 -0.5827  0.3208
   28MOL0     C 3587   7.693   9.998   8.166  0.0619 -0.3061 -0.0229
   28MOL0     O 3588   7.585   9.926   8.230 -0.4062 -0.1480  1.1661
   28MOL0     C 3589   7.461   9.975   8.222  0.7258 -0.3120  0.6977
   28MOL0     C 3590   7.415  10.079   8.129 -0.9471  1.3824 -0.1324
   28MOL0     C 3591   7.286  10.113   8.132 -0.2639 -0.0907  0.1158
   28MOL0     C 3592   7.187  10.052   8.212  0.5180 -0.5079 -0.6523
   28MOL0     C 3593   7.045  10.090   8.189 -0.4745 -1.7172  0.0693
   28MOL0     O 3594   7.020  10.201   8.115 -0.2148 -0.0161 -0.4217
   28MOL0     C 3595   6.900  10.268   8.109  0.1379  0.0883  0.7575
   28MOL0     C 3596   6.906  10.376   8.025  0.3579 -0.3822 -1.2731
   28MOL0     C 3597   6.791  10.457   8.001 -0.6056  0.1652  1.0293
   28MOL0     C 3598   6.668  10.441   8.066  0.4662  0.4468  0.4811
   28MOL0     O 3599   6.550  10.514   8.032 -0.2337 -0.0854  0.4024
   28MOL0     C 3600   6.563  10.591   7.909 -0.6274 -0.5148 -0.0973
   28MOL0     C 3601   6.431  10.676   7.914  0.3153 -0.2718  0.3483
   28MOL0     C 3602   6.436  10.804   7.830  0.0275 -0.2178 -0.3249
   28MOL0     C 3603   6.310  10.875   7.792 -0.3703 -0.7081  0.4770
   28MOL0     C 3604   6.323  11.029   7.791 -0.3658 -0.7563  0.8747
   28MOL0     C 3605   6.195  11.101   7.737 -0.3235 -1.2035  0.2831
   28MOL0     C 3606   6.174  11.232   7.815  0.3975  0.3499  0.4340
   28MOL0     C 3607   6.050  11.308   7.771 -1.1078  0.3157 -0.6044
   28MOL0    Cl 3608   5.919  11.248   7.859  0.0458  0.0264 -0.0793
   28MOL0     C 3609   6.662  10.324   8.149  0.5318  0.7594  0.7973
   28MOL0     C 3610   6.774  10.242   8.170  1.2207  0.3456 -0.0525
   28MOL0     O 3611   6.954  10.020   8.235  0.1549 -0.0227 -0.2621
   28MOL0     C 3612   7.228   9.955   8.300  0.2610 -0.7186 -0.9610
   28MOL0     C 3613   7.367   9.922   8.309  0.4070  0.1025 -0.1232
   28MOL0     N 3614   7.844  10.269   8.342 -0.6943 -0.7616  0.7522
   28MOL0     N 3615   7.754  10.350   8.385  0.3629 -0.1656  1.4467
   28MOL0     C 3616   6.480  10.005   8.684  0.0861  0.2134  1.3505
   28MOL0     C 3617   6.358   9.952   8.630 -0.5564  0.7725  0.4454
   28MOL0     C 3618   5.894   9.927   8.544  0.2737  0.5993  0.3627
   28MOL0     C 3619   5.923   9.919   8.413  0.6604 -0.9891  0.6825
   28MOL0     C 3620   5.808   9.923   8.324  0.3238 -0.1475 -0.4511
   28MOL0     C 3621   5.674   9.920   8.366 -0.1266 -0.5579 -0.1811
   28MOL0     O 3622   5.561   9.895   8.284  0.2480 -0.0795  0.3958
   28MOL0     C 3623   5.577   9.877   8.147  0.8083  1.3921  0.2922
   28MOL0     C 3624   5.454   9.807   8.084 -0.4542 -0.2652 -0.0911
   28MOL0     C 3625   5.328   9.904   8.055  0.4412 -0.6672  0.5483
   28MOL0     C 3626   5.351   9.975   7.922 -0.1816 -0.2835 -0.8665
   28MOL0     C 3627   5.241  10.055   7.879  0.2103 -0.1293 -0.6722
   28MOL0     C 3628   5.151  10.131   7.850 -0.5593  0.1304 -0.1476
   28MOL0     C 3629   5.651   9.911   8.504 -0.1588  0.2311 -0.0109
   28MOL0     C 3630   5.759   9.927   8.583 -0.6061 -0.7923  0.5492
   28MOL0     H 3631   6.144  10.181   8.760 -0.7104  0.2761 -2.1087
   28MOL0     H 3632   6.356  10.286   8.836  0.2617 -1.2515  2.0121
   28MOL0     H 3633   6.712  10.106   8.627 -0.0242  0.6270 -0.5788
   28MOL0     H 3634   6.732  10.038   8.783 -2.5942  1.3935  2.7489
   28MOL0     H 3635   6.867  10.231   8.873  1.0118 -0.9149  0.2048
   28MOL0     H 3636   6.833  10.311   8.718 -3.2668 -0.2822  0.1988
   28MOL0     H 3637   6.941  10.077   8.605  1.0480 -1.4196  0.7605
   28MOL0     H 3638   6.998  10.051   8.754 -0.0369  0.6735 -0.7994
   28MOL0     H 3639   7.037  10.298   8.571 -0.2770 -0.9980 -0.6578
   28MOL0     H 3640   7.096  10.301   8.733 -1.4029 -1.9656  1.3567
   28MOL0     H 3641   7.175  10.102   8.530 -0.4114  1.1189 -0.8229
   28MOL0     H 3642   7.232  10.110   8.702 -1.9058 -1.6148 -0.7140
   28MOL0     H 3643   7.344  10.320   8.662 -3.2064  0.4699  0.1884
   28MOL0     H 3644   7.266  10.354   8.515  2.1687  0.3210 -2.3505
   28MOL0     H 3645   7.452  10.108   8.535  0.9567 -0.5639 -1.4614
   28MOL0     H 3646   7.432  10.220   8.400 -2.5147  0.3009 -0.1304
   28MOL0     H 3647   7.576  10.311   8.662 -2.8529  3.6945  0.5660
   28MOL0     H 3648   7.535  10.412   8.531  0.3511 -0.3095 -0.1009
   28MOL0     H 3649   7.692  10.063   8.550  0.2434 -0.7178  0.5190
   28MOL0     H 3650   7.978   9.997   8.461  1.6153 -2.4504 -2.2756
   28MOL0     H 3651   7.987  10.065   8.298  0.9253  0.5211 -0.0024
   28MOL0     H 3652   7.768   9.885   8.412 -0.0314  0.6538 -1.0158
   28MOL0     H 3653   7.920   9.825   8.345 -0.1306  0.1672  1.8736
   28MOL0     H 3654   7.903   9.945   8.130  0.1342 -1.8792 -0.0590
   28MOL0     H 3655   7.807   9.811   8.146  1.2437 -1.6335  2.3204
   28MOL0     H 3656   7.682  10.018   8.059 -1.8472 -1.4482 -0.0788
   28MOL0     H 3657   7.706  10.090   8.224 -3.4761 -0.3065  1.0236
   28MOL0     H 3658   7.474  10.134   8.057  2.0954  0.8228  1.7503
   28MOL0     H 3659   7.255  10.188   8.059 -0.8364 -0.5000 -0.0683
   28MOL0     H 3660   6.999  10.406   7.978  1.2299  0.0873  0.6554
   28MOL0     H 3661   6.801  10.539   7.931  0.6509  0.5209  1.5840
   28MOL0     H 3662   6.577  10.533   7.818 -0.1676 -0.0066 -0.3569
   28MOL0     H 3663   6.642  10.666   7.924 -1.4526  0.1493  1.1126
   28MOL0     H 3664   6.413  10.712   8.016 -1.4329 -0.2382  0.0459
   28MOL0     H 3665   6.342  10.617   7.895 -0.3120 -0.1352  2.5898
   28MOL0     H 3666   6.478  10.781   7.732 -0.9588 -1.6284 -0.4557
   28MOL0     H 3667   6.508  10.873   7.874 -0.7684  0.0750  0.5399
   28MOL0     H 3668   6.282  10.846   7.690 -0.6773  1.3491 -0.0752
   28MOL0     H 3669   6.226  10.846   7.856 -2.9502 -0.7175 -2.6502
   28MOL0     H 3670   6.408  11.070   7.736  0.4441 -2.6259  0.6504
   28MOL0     H 3671   6.329  11.060   7.896 -2.8026  4.2863 -0.1743
   28MOL0     H 3672   6.109  11.040   7.769  1.6842 -2.6968  3.2875
   28MOL0     H 3673   6.202  11.116   7.629  3.1615 -1.8772  0.3153
   28MOL0     H 3674   6.169  11.208   7.922 -1.8561 -0.8310  0.1289
   28MOL0     H 3675   6.259  11.299   7.799  0.9776 -0.5581 -0.3860
   28MOL0     H 3676   6.041  11.286   7.664 -1.3692 -0.6117 -0.3906
   28MOL0     H 3677   6.060  11.415   7.795 -2.2447  0.1863  0.5557
   28MOL0     H 3678   6.573  10.317   8.210 -1.5502 -1.4197 -2.1759
   28MOL0     H 3679   6.748  10.165   8.241 -4.1636  2.0250  0.2435
   28MOL0     H 3680   7.149   9.907   8.357  0.4149  0.1738  0.0440
   28MOL0     H 3681   7.404   9.840   8.370  1.7580  0.5804 -0.2520
   28MOL0     H 3682   6.564   9.943   8.655 -0.8074 -0.4910  0.1912
   28MOL0     H 3683   6.357   9.869   8.560  1.2807  0.7414  0.4004
   28MOL0     H 3684   6.023   9.918   8.371  1.6127  3.7795  2.2488
   28MOL0     H 3685   5.827   9.924   8.217 -1.8324 -1.1454 -0.8913
   28MOL0     H 3686   5.661   9.810   8.130 -0.2384  0.2300 -0.5428
   28MOL0     H 3687   5.605   9.966   8.088  2.6820  0.0379 -0.9757
   28MOL0     H 3688   5.495   9.756   7.997  2.5511 -1.9191  2.1241
   28MOL0     H 3689   5.425   9.726   8.151  1.6347 -0.2085  0.9727
   28MOL0     H 3690   5.326   9.974   8.139 -1.1299  0.0898 -0.0757
   28MOL0     H 3691   5.232   9.853   8.055  0.4870 -0.7541  0.8547
   28MOL0     H 3692   5.440  10.037   7.926 -0.7253  0.5204 -0.9695
   28MOL0     H 3693   5.365   9.901   7.843  0.4157 -1.2944  0.1626
   28MOL0     H 3694   5.073  10.197   7.817 -2.4370 -2.1797 -0.5663
   28MOL0     H 3695   5.550   9.901   8.541 -0.1376  1.0274  0.2901
   28MOL0     H 3696   5.734   9.941   8.688 -4.7601  1.1507 -0.4858
   29MOL0     O 3697   9.806   7.993   5.776 -0.1064 -0.1199 -0.8522
   29MOL0     C 3698   9.839   8.101   5.731  0.2353 -0.2985  0.4919
   29MOL0     O 3699   9.966   8.147   5.715 -0.1454  0.1273 -0.0349
   29MOL0     C 3700  10.069   8.080   5.775 -0.3918  0.6531  0.2399
   29MOL0     C 3701  10.094   8.086   5.913 -0.0393  0.6338 -0.1956
   29MOL0     C 3702  10.192   8.003   5.971  0.3161  0.0762  0.3995
   29MOL0     C 3703  10.268   7.917   5.899  0.7075 -0.7275  0.2840
   29MOL0     O 3704  10.352   7.845   5.981 -1.0843 -0.9580  0.2258
   29MOL0     C 3705  10.451   7.766   5.905  0.8995 -0.4304 -0.3642
   29MOL0     C 3706  10.542   7.701   5.999 -0.6286 -0.5484 -0.5189
   29MOL0     C 3707  10.647   7.804   6.053 -0.2144 -0.4150  0.7414
   29MOL0     C 3708  10.750   7.735   6.140 -0.5361  0.5049 -0.8401
   29MOL0     C 3709  10.878   7.821   6.167  0.7587 -0.3134 -0.0008
   29MOL0     C 3710  10.991   7.732   6.240 -0.1197 -0.4805 -0.4799
   29MOL0     C 3711  11.129   7.799   6.226 -0.3695  0.1536  0.2305
   29MOL0     C 3712  11.245   7.707   6.278  0.0339 -0.7485 -0.0611
   29MOL0     N 3713  11.378   7.764   6.260  0.1210  0.5227  0.7313
   29MOL0     C 3714  11.495   7.690   6.248 -0.1307  0.8253  0.1811
   29MOL0     C 3715  11.595   7.778   6.223  0.0359 -0.8278  0.5074
   29MOL0     C 3716  11.734   7.731   6.189  0.2319  0.2259  0.2033
   29MOL0     C 3717  11.831   7.830   6.246 -0.3624 -0.3843  1.1805
   29MOL0     C 3718  11.841   7.956   6.155 -0.3298  0.2515  0.0365
   29MOL0     C 3719  11.901   8.058   6.249 -0.0479 -0.0988  0.3411
   29MOL0     O 3720  11.907   8.191   6.196 -0.2415  0.1769  0.0667
   29MOL0     C 3721  11.802   8.258   6.160  1.0818 -0.5793  0.4055
   29MOL0     C 3722  11.825   8.379   6.093  0.8731  0.0813  0.8336
   29MOL0     C 3723  11.714   8.457   6.056 -0.6020 -0.5266  0.1147
   29MOL0     C 3724  11.578   8.413   6.095 -0.0382  0.4173  0.3479
   29MOL0     C 3725  11.465   8.489   6.056  0.6237  0.4576  0.0079
   29MOL0     O 3726  11.479   8.630   6.068  0.3408 -0.7332 -0.0558
   29MOL0     C 3727  11.385   8.714   6.030 -0.1792  0.2305  0.4503
   29MOL0     C 3728  11.431   8.835   5.984  0.5136 -0.9431 -0.4544
   29MOL0     C 3729  11.347   8.935   5.933 -0.3215 -0.0646 -0.5232
   29MOL0     C 3730  11.214   8.909   5.923 -0.5649  0.2747 -1.0954
   29MOL0     O 3731  11.120   8.983   5.861  0.4840 -0.1693 -0.1433
   29MOL0     C 3732  11.151   9.088   5.769  0.4000  1.1768 -0.4460
   29MOL0     C 3733  11.062   9.096   5.648  0.1804  0.5724 -1.2293
   29MOL0     C 3734  10.913   9.122   5.666 -1.0156 -0.8008  0.5281
   29MOL0     C 3735  10.888   9.270   5.712 -0.9755 -0.5899 -0.5985
   29MOL0     C 3736  10.737   9.302   5.715  0.0209  0.2553 -0.4367
   29MOL0     C 3737  10.713   9.403   5.600 -0.1331  0.1566 -0.1420
   29MOL0     C 3738  10.561   9.449   5.584  0.1050 -1.2644 -0.2649
   29MOL0     C 3739  10.559   9.525   5.455 -0.8237  0.3919 -0.1145
   29MOL0    Cl 3740  10.403   9.582   5.397  0.1560  0.4864 -0.1145
   29MOL0     C 3741  11.163   8.789   5.969  0.3604  0.5990 -0.1383
   29MOL0     C 3742  11.243   8.695   6.039  0.6514 -0.8113  0.0469
   29MOL0     O 3743  11.360   8.430   6.032  0.0537 -0.1786  0.5121
   29MOL0     C 3744  11.561   8.293   6.158 -0.2772 -0.5748 -0.9238
   29MOL0     C 3745  11.673   8.213   6.191  0.8995 -0.3406 -1.1145
   29MOL0     N 3746  11.538   7.901   6.225  0.5677  0.9643 -0.7871
   29MOL0     N 3747  11.410   7.891   6.240  0.6894  0.0874 -0.1531
   29MOL0     C 3748  10.254   7.918   5.764  0.3270  0.6796 -0.2673
   29MOL0     C 3749  10.152   7.998   5.703  0.0592  0.5792  0.8982
   29MOL0     C 3750   9.735   8.203   5.681 -0.1985  0.5513 -0.0279
   29MOL0     C 3751   9.596   8.166   5.703 -1.4638 -0.3533  0.5368
   29MOL0     C 3752   9.491   8.238   5.646  0.1579  1.3104  0.6504
   29MOL0     C 3753   9.516   8.337   5.552 -0.1303 -0.0254  0.2087
   29MOL0     O 3754   9.408   8.410   5.507  0.0941  0.1772  0.0642
   29MOL0     C 3755   9.444   8.512   5.418  0.2517  0.0227 -0.8238
   29MOL0     C 3756   9.335   8.575   5.339  0.1854 -0.2293  0.4581
   29MOL0     C 3757   9.239   8.469   5.271  0.1023 -0.4305 -0.6036
   29MOL0     C 3758   9.131   8.548   5.199 -0.2146 -0.8137  0.0055
   29MOL0     C 3759   9.038   8.480   5.111 -0.2378 -1.0627 -0.3768
   29MOL0     C 3760   8.948   8.447   5.040  0.6452 -0.4018  1.4567
   29MOL0     C 3761   9.656   8.369   5.537 -0.0271 -0.8074 -0.2550
   29MOL0     C 3762   9.768   8.309   5.596  0.3049 -0.8079  0.2207
   29MOL0     H 3763  10.029   8.146   5.976 -2.3337 -0.7539 -1.1052
   29MOL0     H 3764  10.208   8.014   6.078  1.4408  2.6319  0.0464
   29MOL0     H 3765  10.516   7.819   5.836 -0.1540  0.8153 -0.4481
   29MOL0     H 3766  10.380   7.695   5.861 -0.4689 -0.7735  2.1810
   29MOL0     H 3767  10.599   7.622   5.951  4.8603  1.2437  2.1608
   29MOL0     H 3768  10.481   7.659   6.080  0.2749  0.1238  0.5383
   29MOL0     H 3769  10.602   7.875   6.122 -3.5700 -2.2992  0.6991
   29MOL0     H 3770  10.693   7.848   5.964 -2.9142  0.1910 -0.4728
   29MOL0     H 3771  10.721   7.701   6.239  4.2078 -0.6413  0.4134
   29MOL0     H 3772  10.776   7.639   6.095 -3.1219 -1.3991  1.4255
   29MOL0     H 3773  10.843   7.912   6.216 -1.0271 -1.0141  0.1267
   29MOL0     H 3774  10.913   7.850   6.068 -1.3823  2.3023 -0.0928
   29MOL0     H 3775  10.987   7.635   6.191 -1.4212 -0.9268  0.4371
   29MOL0     H 3776  10.964   7.715   6.345  1.1683  0.5610  0.0443
   29MOL0     H 3777  11.157   7.816   6.122  0.7590 -1.4372  0.2331
   29MOL0     H 3778  11.136   7.889   6.288  2.0549 -0.9707  1.7432
   29MOL0     H 3779  11.237   7.618   6.215  1.1492  0.8270 -2.6386
   29MOL0     H 3780  11.231   7.684   6.384  2.6431 -0.3568  0.4330
   29MOL0     H 3781  11.501   7.582   6.259  0.5182  0.9638  1.4080
   29MOL0     H 3782  11.738   7.733   6.079 -1.2953  3.8879  0.0610
   29MOL0     H 3783  11.752   7.630   6.227 -0.3296 -0.0878 -0.3391
   29MOL0     H 3784  11.928   7.780   6.236 -0.3802 -0.6098  2.0745
   29MOL0     H 3785  11.805   7.865   6.346 -0.9348  1.0835  0.5472
   29MOL0     H 3786  11.891   7.929   6.062 -2.7280 -0.1746 -1.1950
   29MOL0     H 3787  11.740   7.980   6.120 -0.0101  0.9525 -0.4388
   29MOL0     H 3788  12.002   8.025   6.274  0.2379 -1.7404 -2.5350
   29MOL0     H 3789  11.841   8.062   6.341 -2.9440  0.5265 -1.4335
   29MOL0     H 3790  11.927   8.411   6.074  0.0815  1.4019 -1.5695
   29MOL0     H 3791  11.730   8.547   5.998  1.0232 -1.0967 -0.3534
   29MOL0     H 3792  11.535   8.865   5.996 -0.6982  2.5137  3.5401
   29MOL0     H 3793  11.388   9.034   5.918 -1.7512  0.5421 -0.5780
   29MOL0     H 3794  11.245   9.045   5.732  1.6082 -0.8419  4.2301
   29MOL0     H 3795  11.156   9.190   5.806 -0.4669  1.3240 -0.7075
   29MOL0     H 3796  11.065   9.005   5.587 -0.7043  0.7522 -1.5605
   29MOL0     H 3797  11.109   9.178   5.592 -1.5063  1.0293 -2.0545
   29MOL0     H 3798  10.875   9.059   5.748 -1.0793  0.5447  1.5699
   29MOL0     H 3799  10.854   9.091   5.580  1.8481 -0.5067 -1.7115
   29MOL0     H 3800  10.929   9.285   5.812 -2.3701  0.8438 -0.1919
   29MOL0     H 3801  10.943   9.340   5.647 -0.3659 -0.1609  0.3582
   29MOL0     H 3802  10.709   9.342   5.813  2.5546  0.9545  0.0865
   29MOL0     H 3803  10.671   9.216   5.699  1.5993 -1.4380  1.4801
   29MOL0     H 3804  10.740   9.360   5.503  2.1293  1.4358 -0.1428
   29MOL0     H 3805  10.788   9.481   5.613 -0.1638 -0.3181  4.3824
   29MOL0     H 3806  10.494   9.363   5.582 -0.9335 -0.4856  0.4306
   29MOL0     H 3807  10.540   9.512   5.671 -1.6754 -1.1441 -0.7526
   29MOL0     H 3808  10.613   9.471   5.377  3.6997 -1.8834  4.0725
   29MOL0     H 3809  10.627   9.610   5.467  0.9111 -0.5533 -2.4319
   29MOL0     H 3810  11.057   8.774   5.951  0.4077 -1.8678  1.1628
   29MOL0     H 3811  11.190   8.612   6.085 -1.1388  1.8849  3.3199
   29MOL0     H 3812  11.464   8.252   6.185 -1.0805  2.6443  1.6573
   29MOL0     H 3813  11.652   8.123   6.248  0.4008  0.6858  0.3658
   29MOL0     H 3814  10.327   7.874   5.696  2.1884  0.2721  1.8566
   29MOL0     H 3815  10.140   8.007   5.595  1.6421  3.5997  0.8787
   29MOL0     H 3816   9.571   8.073   5.754 -1.1413 -0.2926  0.8083
   29MOL0     H 3817   9.388   8.213   5.670  0.8563  1.2129  4.1446
   29MOL0     H 3818   9.517   8.479   5.344  0.5875 -1.0200 -0.0475
   29MOL0     H 3819   9.491   8.592   5.477 -0.2509 -0.3576  0.1065
   29MOL0     H 3820   9.279   8.633   5.413  0.2493 -1.2410  1.3254
   29MOL0     H 3821   9.383   8.646   5.270  2.6555  1.9670  4.0948
   29MOL0     H 3822   9.189   8.402   5.341 -1.9732  0.7710 -0.8651
   29MOL0     H 3823   9.293   8.403   5.202 -1.4273 -0.0991 -2.1853
   29MOL0     H 3824   9.082   8.610   5.275 -0.8444 -1.0802 -0.1686
   29MOL0     H 3825   9.172   8.619   5.127 -1.8376 -1.3369 -1.5326
   29MOL0     H 3826   8.869   8.416   4.975 -0.1111  0.5444  1.9069
   29MOL0     H 3827   9.683   8.449   5.469  1.0642 -1.2149 -0.3073
   29MOL0     H 3828   9.866   8.351   5.580 -1.1271  3.4399  1.1553
   30MOL0     O 3829   2.379   4.504   3.597 -0.2369  0.4805  0.2472
   30MOL0     C 3830   2.376   4.388   3.642  0.0832  0.4105 -0.8157
   30MOL0     O 3831   2.479   4.304   3.679 -0.0452 -0.5080  0.5526
   30MOL0     C 3832   2.611   4.343   3.680  0.0344 -0.3667  0.2294
   30MOL0     C 3833   2.698   4.236   3.675  0.4003  0.2631  0.4541
   30MOL0     C 3834   2.836   4.253   3.690 -0.3570  0.2165  0.2145
   30MOL0     C 3835   2.891   4.382   3.686  0.0213 -0.3183 -0.4224
   30MOL0     O 3836   3.027   4.403   3.691  0.1709 -0.1033 -0.6148
   30MOL0     C 3837   3.112   4.333   3.603 -0.3961 -0.0881  0.2804
   30MOL0     C 3838   3.145   4.411   3.470 -0.1641 -0.0183 -0.1694
   30MOL0     C 3839   3.029   4.431   3.375  0.3083  0.4529  0.0869
   30MOL0     C 3840   3.003   4.298   3.300  0.1730 -0.4335 -0.8731
   30MOL0     C 3841   2.888   4.294   3.199  0.0066 -0.4733 -0.6571
   30MOL0     C 3842   2.761   4.377   3.238 -0.6615 -0.2968 -0.0016
   30MOL0     C 3843   2.669   4.386   3.122  0.9106 -0.9397 -0.2539
   30MOL0     C 3844   2.537   4.463   3.161 -0.2799 -0.8798 -0.4421
   30MOL0     N 3845   2.441   4.440   3.049  1.0045 -0.1137 -0.3260
   30MOL0     C 3846   2.443   4.491   2.922 -0.2246 -0.4396 -0.0341
   30MOL0     C 3847   2.349   4.420   2.851  0.7349 -0.5386  0.3936
   30MOL0     C 3848   2.312   4.451   2.704 -0.6100 -0.1918  0.2087
   30MOL0     C 3849   2.154   4.434   2.670 -0.5267  0.3790 -0.6195
   30MOL0     C 3850   2.071   4.546   2.732  0.9516  0.2121  0.2098
   30MOL0     C 3851   1.918   4.510   2.727 -0.2103 -0.2188  0.3879
   30MOL0     O 3852   1.850   4.603   2.805  0.7120  0.5086 -0.2380
   30MOL0     C 3853   1.729   4.629   2.757 -0.1333  0.0506  0.6096
   30MOL0     C 3854   1.622   4.547   2.799  1.0450 -0.0988 -0.7767
   30MOL0     C 3855   1.492   4.580   2.752 -0.2809  0.7498 -0.8344
   30MOL0     C 3856   1.472   4.685   2.661  1.0527  0.4186  0.9569
   30MOL0     C 3857   1.336   4.723   2.603  0.1609  0.5803 -0.5783
   30MOL0     O 3858   1.249   4.623   2.615  0.4424  0.2336  0.4859
   30MOL0     C 3859   1.120   4.629   2.559 -0.1678  0.4318 -0.0514
   30MOL0     C 3860   1.065   4.726   2.474 -0.2357  0.4946 -0.0600
   30MOL0     C 3861   0.936   4.715   2.432 -0.3623 -0.6775 -0.1923
   30MOL0     C 3862   0.861   4.611   2.472  0.1546  0.2067 -0.4112
   30MOL0     O 3863   0.736   4.614   2.430 -0.6188 -0.5510 -0.0727
   30MOL0     C 3864   0.679   4.486   2.379 -0.2369 -0.9014 -0.4101
   30MOL0     C 3865   0.533   4.488   2.341  0.2201 -0.3241  1.0540
   30MOL0     C 3866   0.436   4.437   2.463  0.8086  0.1061  0.9377
   30MOL0     C 3867   0.433   4.538   2.571 -0.4097 -0.5663 -0.0533
   30MOL0     C 3868   0.391   4.683   2.540 -0.2875 -0.1764  0.2840
   30MOL0     C 3869   0.370   4.757   2.673 -0.5482 -0.0812 -0.7775
   30MOL0     C 3870   0.269   4.873   2.662 -1.0485 -0.9813  0.0472
   30MOL0     C 3871   0.302   4.984   2.752 -0.8790  0.2546 -0.1252
   30MOL0    Cl 3872   0.173   5.106   2.764  0.2571  0.3602 -0.2715
   30MOL0     C 3873   0.911   4.500   2.544  0.5797 -0.3892 -0.4623
   30MOL0     C 3874   1.044   4.519   2.595  0.0492 -0.5628 -0.5057
   30MOL0     O 3875   1.310   4.841   2.566  0.0207  0.0656 -0.3947
   30MOL0     C 3876   1.580   4.767   2.617  0.2465 -0.4965 -0.6349
   30MOL0     C 3877   1.711   4.742   2.675  0.5854 -0.4037 -0.2774
   30MOL0     N 3878   2.286   4.343   2.938 -0.4133  0.8944 -0.1023
   30MOL0     N 3879   2.339   4.353   3.052  0.2429 -0.6769  0.0368
   30MOL0     C 3880   2.809   4.492   3.698 -0.3151 -0.4617  0.5502
   30MOL0     C 3881   2.671   4.473   3.689 -0.4034 -0.1035 -0.1299
   30MOL0     C 3882   2.241   4.323   3.659  0.5997  0.1796 -1.5345
   30MOL0     C 3883   2.211   4.219   3.755  0.1606 -0.1414 -0.0579
   30MOL0     C 3884   2.090   4.160   3.767  0.5850 -0.5012 -0.0147
   30MOL0     C 3885   1.986   4.194   3.690  0.3731 -0.2554  0.5227
   30MOL0     O 3886   1.869   4.130   3.718  0.2973  0.7796  0.7267
   30MOL0     C 3887   1.769   4.124   3.615 -0.4240 -0.4814 -0.3643
   30MOL0     C 3888   1.703   3.984   3.609 -0.2238  0.3061 -0.0959
   30MOL0     C 3889   1.620   3.966   3.737 -0.5689 -0.2692 -0.4481
   30MOL0     C 3890   1.525   3.848   3.733 -0.1009 -0.7471 -0.2267
   30MOL0     C 3891   1.412   3.876   3.639 -0.7280 -0.6487 -1.0499
   30MOL0     C 3892   1.322   3.901   3.555  0.4971  0.3862 -0.1519
   30MOL0     C 3893   1.996   4.298   3.597 -0.4702 -0.4591  0.2005
   30MOL0     C 3894   2.128   4.361   3.581 -0.2398 -0.6412 -0.4161
   30MOL0     H 3895   2.669   4.132   3.666 -0.8248  0.5231  1.2033
   30MOL0     H 3896   2.900   4.165   3.701 -0.5996  0.0137  0.0327
   30MOL0     H 3897   3.077   4.232   3.579  0.9374 -0.6616  0.6564
   30MOL0     H 3898   3.204   4.329   3.663 -0.7255  1.2432  0.9178
   30MOL0     H 3899   3.236   4.377   3.419 -0.5992  0.3156 -1.2030
   30MOL0     H 3900   3.162   4.516   3.496 -1.0599  0.0383  0.2212
   30MOL0     H 3901   3.041   4.519   3.310  0.2126 -0.9897 -1.9795
   30MOL0     H 3902   2.935   4.456   3.425  0.9385 -0.0849  1.5907
   30MOL0     H 3903   3.095   4.268   3.248  1.3573  1.3912  0.0565
   30MOL0     H 3904   2.981   4.230   3.383  0.5150 -0.5153 -0.8471
   30MOL0     H 3905   2.873   4.188   3.180 -0.6721 -0.3612 -0.7954
   30MOL0     H 3906   2.915   4.340   3.103 -1.3287  1.1476 -0.3174
   30MOL0     H 3907   2.786   4.482   3.260 -0.8577  0.1663 -1.7867
   30MOL0     H 3908   2.708   4.328   3.319 -0.3897 -0.1015  0.2982
   30MOL0     H 3909   2.720   4.433   3.038  0.7087  4.6084  2.2540
   30MOL0     H 3910   2.632   4.287   3.094 -1.7699 -0.5225  1.4481
   30MOL0     H 3911   2.570   4.567   3.160 -0.7232 -0.6742  1.8634
   30MOL0     H 3912   2.496   4.447   3.261 -1.9505  0.0897 -0.9332
   30MOL0     H 3913   2.500   4.576   2.885  0.6038 -0.2566  1.5865
   30MOL0     H 3914   2.377   4.396   2.635  2.8212  2.1883  1.2392
   30MOL0     H 3915   2.333   4.555   2.675  3.6986 -1.0356 -0.4826
   30MOL0     H 3916   2.126   4.335   2.707  0.9640 -0.1431 -0.8197
   30MOL0     H 3917   2.143   4.426   2.561  3.6806 -2.5373 -1.0565
   30MOL0     H 3918   2.103   4.562   2.835 -2.2733 -2.2660  1.7799
   30MOL0     H 3919   2.081   4.637   2.671  0.5548 -0.8168 -1.4724
   30MOL0     H 3920   1.907   4.412   2.775  0.8120 -0.5085  0.0638
   30MOL0     H 3921   1.878   4.500   2.626  0.8554  1.5761 -0.2415
   30MOL0     H 3922   1.638   4.458   2.860 -0.5583  2.0379  3.0725
   30MOL0     H 3923   1.408   4.518   2.781  0.2929 -0.1503 -1.0567
   30MOL0     H 3924   1.121   4.810   2.433  0.4881 -1.3441 -3.1786
   30MOL0     H 3925   0.880   4.790   2.377  0.1199 -1.6257 -2.0481
   30MOL0     H 3926   0.684   4.417   2.464 -0.9029  0.6070  0.9074
   30MOL0     H 3927   0.752   4.461   2.301 -0.2313 -1.3671 -0.2608
   30MOL0     H 3928   0.513   4.405   2.273 -2.0835 -0.1313  1.4416
   30MOL0     H 3929   0.490   4.580   2.300 -3.0860 -0.7249  3.3484
   30MOL0     H 3930   0.449   4.336   2.503 -0.1773 -0.5181 -0.2440
   30MOL0     H 3931   0.337   4.436   2.416  0.6782  2.3193  1.0937
   30MOL0     H 3932   0.379   4.508   2.662 -0.9726 -2.8145 -1.0850
   30MOL0     H 3933   0.537   4.542   2.604 -0.6333  2.4009  0.5759
   30MOL0     H 3934   0.296   4.664   2.489  0.1964  0.2361 -0.7897
   30MOL0     H 3935   0.458   4.744   2.479  0.7630 -1.3280  0.2482
   30MOL0     H 3936   0.468   4.789   2.708 -0.6188  0.3564 -0.9741
   30MOL0     H 3937   0.335   4.692   2.754 -1.3473  1.8827  0.5308
   30MOL0     H 3938   0.262   4.905   2.558 -0.1334  1.1518  0.5954
   30MOL0     H 3939   0.166   4.845   2.687 -1.0541 -1.2525 -0.2730
   30MOL0     H 3940   0.383   5.044   2.709 -2.4877 -0.2933 -4.4539
   30MOL0     H 3941   0.324   4.943   2.851 -1.6724 -1.5948 -0.6681
   30MOL0     H 3942   0.866   4.407   2.576  3.0105 -1.0122  1.4067
   30MOL0     H 3943   1.070   4.452   2.677 -0.7408 -2.8571 -2.0266
   30MOL0     H 3944   1.556   4.841   2.541  0.8383 -1.0472 -1.3868
   30MOL0     H 3945   1.797   4.805   2.654 -1.5413  3.0246  0.4902
   30MOL0     H 3946   2.875   4.579   3.697 -1.6093  0.6122 -2.6026
   30MOL0     H 3947   2.609   4.560   3.709 -0.6116  0.0844 -1.4938
   30MOL0     H 3948   2.279   4.189   3.833 -1.3920  1.0302  1.8514
   30MOL0     H 3949   2.089   4.091   3.851 -1.7751  0.5684  0.9351
   30MOL0     H 3950   1.813   4.139   3.516  1.6890 -2.2952  0.2170
   30MOL0     H 3951   1.696   4.198   3.650 -1.9407 -0.5127 -3.1538
   30MOL0     H 3952   1.634   3.993   3.524 -1.4938  0.0369  0.8848
   30MOL0     H 3953   1.775   3.903   3.593 -2.4679 -1.3921 -2.6042
   30MOL0     H 3954   1.557   4.054   3.756 -3.0455 -1.3956 -2.7878
   30MOL0     H 3955   1.689   3.942   3.818 -2.9702  0.3133  1.9259
   30MOL0     H 3956   1.578   3.759   3.699 -0.7797 -2.2676  2.3656
   30MOL0     H 3957   1.484   3.847   3.835 -1.2999  1.4573 -0.6172
   30MOL0     H 3958   1.242   3.933   3.492 -2.8270  0.4717  3.7300
   30MOL0     H 3959   1.922   4.337   3.528  1.0235  0.2748 -1.0570
   30MOL0     H 3960   2.146   4.451   3.521  1.2891  0.7712  1.9980
   31MOL0     O 3961   3.905   6.241   7.777  0.3549 -0.0311 -0.3475
   31MOL0     C 3962   3.832   6.333   7.738  0.7598  0.8518  0.3224
   31MOL0     O 3963   3.870   6.423   7.642 -0.0545  0.0405  0.5389
   31MOL0     C 3964   3.996   6.404   7.589  0.3100 -0.7268 -1.0676
   31MOL0     C 3965   4.113   6.429   7.662 -0.2755 -0.4211 -0.2540
   31MOL0     C 3966   4.244   6.414   7.617 -0.2900 -0.9378 -0.4644
   31MOL0     C 3967   4.262   6.364   7.484  0.0576  0.1062 -0.1510
   31MOL0     O 3968   4.382   6.346   7.418 -0.6606  0.2870  0.3766
   31MOL0     C 3969   4.505   6.326   7.487 -0.2634 -0.1541 -0.1160
   31MOL0     C 3970   4.499   6.196   7.567 -0.0264 -0.1078  0.5084
   31MOL0     C 3971   4.500   6.068   7.479 -0.2649 -0.0608  0.7520
   31MOL0     C 3972   4.644   6.039   7.421  0.1458  0.1177  0.1891
   31MOL0     C 3973   4.643   5.917   7.336 -0.7205  0.2248  0.1155
   31MOL0     C 3974   4.539   5.899   7.222 -0.3042 -0.4922 -1.0386
   31MOL0     C 3975   4.557   6.010   7.106 -0.8839  0.1784 -1.2018
   31MOL0     C 3976   4.464   5.971   6.991 -0.2897  0.1546  0.1332
   31MOL0     N 3977   4.323   5.997   7.026  0.0735  0.0081  0.3639
   31MOL0     C 3978   4.261   6.116   7.002  0.0632 -0.6652 -0.1598
   31MOL0     C 3979   4.137   6.090   7.043  0.5577  0.3213 -0.3285
   31MOL0     C 3980   4.026   6.185   7.034  0.1569 -0.5377 -0.3219
   31MOL0     C 3981   3.884   6.127   7.012 -0.4060 -1.4121  0.3636
   31MOL0     C 3982   3.825   6.059   7.140  0.6786  0.0163 -0.4674
   31MOL0     C 3983   3.671   6.050   7.141  0.0003 -0.2827  0.8052
   31MOL0     O 3984   3.614   6.182   7.160 -0.2516  0.0069  0.0735
   31MOL0     C 3985   3.483   6.190   7.153  0.5664  1.2841  0.5431
   31MOL0     C 3986   3.395   6.078   7.169 -0.2309 -0.4522 -0.8178
   31MOL0     C 3987   3.256   6.114   7.180  0.0287  0.9909  0.7114
   31MOL0     C 3988   3.201   6.238   7.169  0.3912  0.7670 -0.2682
   31MOL0     C 3989   3.058   6.260   7.166  0.8515 -0.4319 -0.3316
   31MOL0     O 3990   3.018   6.394   7.168 -0.4939 -0.1123  0.0771
   31MOL0     C 3991   2.885   6.418   7.141  0.1231 -0.2967  0.0620
   31MOL0     C 3992   2.837   6.437   7.002 -0.8758  0.9178 -0.2899
   31MOL0     C 3993   2.702   6.466   6.985 -0.2326  0.6222 -0.1826
   31MOL0     C 3994   2.618   6.478   7.091 -0.2658  0.1286 -0.5812
   31MOL0     O 3995   2.488   6.490   7.070 -0.3524 -0.2839 -0.2187
   31MOL0     C 3996   2.378   6.439   7.145  0.2790 -0.0843  0.7631
   31MOL0     C 3997   2.298   6.342   7.056  0.5962 -0.0792 -0.2687
   31MOL0     C 3998   2.362   6.214   7.022  0.3059  0.0902 -0.0077
   31MOL0     C 3999   2.442   6.222   6.884  0.6556 -0.0068  0.1590
   31MOL0     C 4000   2.476   6.082   6.855 -1.0663 -0.2827 -0.0095
   31MOL0     C 4001   2.577   6.080   6.743 -0.7827 -0.0876 -0.0051
   31MOL0     C 4002   2.532   6.125   6.608 -0.0685 -0.3012  0.0172
   31MOL0     C 4003   2.613   6.061   6.501 -1.8536  0.0804  1.1559
   31MOL0    Cl 4004   2.784   6.105   6.503  0.0988 -0.3464  0.2437
   31MOL0     C 4005   2.668   6.475   7.224  0.9265  1.8835 -0.1109
   31MOL0     C 4006   2.798   6.432   7.248 -0.8686 -0.6141  0.8382
   31MOL0     O 4007   2.983   6.163   7.147 -0.0812 -0.0574  0.1707
   31MOL0     C 4008   3.293   6.341   7.162 -0.0873 -0.6706  0.6573
   31MOL0     C 4009   3.432   6.318   7.150 -0.2714  0.4304 -0.8430
   31MOL0     N 4010   4.129   5.962   7.100  1.1227  0.0811  1.1609
   31MOL0     N 4011   4.248   5.913   7.098  0.1756 -0.5901  0.0416
   31MOL0     C 4012   4.145   6.343   7.409 -0.2229 -0.1182 -0.3409
   31MOL0     C 4013   4.013   6.354   7.462 -0.3820  0.5175  0.5132
   31MOL0     C 4014   3.697   6.346   7.789 -0.8724  0.5136  0.4510
   31MOL0     C 4015   3.615   6.241   7.826  0.0511  1.1099  0.4330
   31MOL0     C 4016   3.485   6.255   7.870 -0.3653  0.1995  0.3139
   31MOL0     C 4017   3.436   6.380   7.884 -0.4906 -0.4424  0.1656
   31MOL0     O 4018   3.310   6.397   7.938 -0.5329  1.4516 -0.7428
   31MOL0     C 4019   3.210   6.469   7.864  0.0815  0.8320 -0.2983
   31MOL0     C 4020   3.178   6.420   7.711 -0.0003  0.0374 -0.2310
   31MOL0     C 4021   3.060   6.491   7.636  0.4581 -0.1146 -0.6519
   31MOL0     C 4022   2.923   6.472   7.710 -0.7768 -0.3004  0.2626
   31MOL0     C 4023   2.819   6.550   7.639  0.7236 -0.6510  0.3626
   31MOL0     C 4024   2.735   6.618   7.577  0.0124 -0.5540  0.7673
   31MOL0     C 4025   3.512   6.493   7.848  0.1830 -0.8704 -0.4365
   31MOL0     C 4026   3.645   6.475   7.811  0.1274 -0.0904  0.2030
   31MOL0     H 4027   4.095   6.479   7.756  0.8613  1.2403 -0.8671
   31MOL0     H 4028   4.320   6.452   7.686 -1.7192  0.6015  0.3414
   31MOL0     H 4029   4.528   6.418   7.542  1.3863  0.1066 -1.1512
   31MOL0     H 4030   4.591   6.321   7.419  1.6757  0.7724  2.1214
   31MOL0     H 4031   4.419   6.193   7.641 -1.0230  0.4550 -0.5175
   31MOL0     H 4032   4.586   6.202   7.634 -0.1561 -0.3412  0.6988
   31MOL0     H 4033   4.429   6.080   7.397  2.3480  1.9307 -1.4205
   31MOL0     H 4034   4.465   5.990   7.547 -0.0243 -0.1879  0.7317
   31MOL0     H 4035   4.679   6.123   7.361  1.3183 -1.0070 -0.7726
   31MOL0     H 4036   4.717   6.025   7.502 -0.5147 -2.3040  0.4460
   31MOL0     H 4037   4.631   5.820   7.384  5.5265 -1.5171 -0.9757
   31MOL0     H 4038   4.746   5.912   7.299  0.3514  0.2678  2.8654
   31MOL0     H 4039   4.432   5.898   7.247 -0.0659  0.2952  0.1230
   31MOL0     H 4040   4.549   5.798   7.182 -2.5682 -1.4334  0.5472
   31MOL0     H 4041   4.521   6.104   7.149  1.0160  1.0624 -1.4215
   31MOL0     H 4042   4.653   6.016   7.053 -0.7980 -2.5671 -1.5061
   31MOL0     H 4043   4.482   5.868   6.959 -1.8512  0.3713 -1.5872
   31MOL0     H 4044   4.489   6.033   6.904 -2.8964  0.5743 -0.3978
   31MOL0     H 4045   4.297   6.200   6.943 -4.3868  1.5555 -0.1298
   31MOL0     H 4046   4.052   6.256   6.955 -0.3022  1.9945  1.6530
   31MOL0     H 4047   4.026   6.234   7.132 -0.6357 -1.5338  0.2018
   31MOL0     H 4048   3.888   6.060   6.926  1.9574  0.6189 -1.2163
   31MOL0     H 4049   3.811   6.206   6.991 -0.4437 -0.9594  2.0332
   31MOL0     H 4050   3.867   5.958   7.135  0.4100 -0.0305 -3.1103
   31MOL0     H 4051   3.856   6.102   7.236 -1.6032 -0.9826  0.7887
   31MOL0     H 4052   3.639   5.980   7.219 -2.1740 -1.9852 -1.4573
   31MOL0     H 4053   3.634   6.004   7.049  0.2028  0.1189  0.5189
   31MOL0     H 4054   3.424   5.973   7.170 -1.3422 -0.8786 -3.4467
   31MOL0     H 4055   3.180   6.036   7.181  0.9707  0.0506  0.6431
   31MOL0     H 4056   2.906   6.431   6.918  0.2481 -0.1719  0.6711
   31MOL0     H 4057   2.666   6.476   6.883  2.7513 -0.1427 -1.3923
   31MOL0     H 4058   2.313   6.520   7.178 -1.1086 -1.7020  2.1662
   31MOL0     H 4059   2.406   6.376   7.230 -2.2365 -2.2966  0.0779
   31MOL0     H 4060   2.265   6.395   6.966 -0.3740  3.1811  1.8163
   31MOL0     H 4061   2.202   6.335   7.108  1.9341  0.5384  2.4660
   31MOL0     H 4062   2.273   6.150   7.021  1.0738 -1.0257  0.6416
   31MOL0     H 4063   2.425   6.184   7.107  0.7517 -3.9008 -1.5163
   31MOL0     H 4064   2.378   6.271   6.811 -0.5230  1.3593  2.0109
   31MOL0     H 4065   2.532   6.281   6.902  1.2689 -0.5402 -1.0697
   31MOL0     H 4066   2.386   6.033   6.819 -2.6694  1.1392  1.8546
   31MOL0     H 4067   2.516   6.040   6.947  1.7449  1.3016 -0.3904
   31MOL0     H 4068   2.601   5.973   6.744 -2.0050 -0.4289  2.6003
   31MOL0     H 4069   2.671   6.136   6.754 -1.2234  1.3417 -2.6515
   31MOL0     H 4070   2.428   6.092   6.604  0.8620 -4.0088  1.5872
   31MOL0     H 4071   2.535   6.233   6.592 -0.9613 -0.7047 -3.7595
   31MOL0     H 4072   2.580   6.094   6.403 -2.1961  1.4968  1.7319
   31MOL0     H 4073   2.600   5.952   6.511  0.2762 -0.6882 -2.5432
   31MOL0     H 4074   2.611   6.500   7.313  0.8867 -0.5113  0.6109
   31MOL0     H 4075   2.838   6.443   7.348 -3.4314  1.3241  1.7546
   31MOL0     H 4076   3.254   6.440   7.145  3.2083  0.5195 -0.8643
   31MOL0     H 4077   3.494   6.407   7.150 -0.8476  0.8376 -1.1677
   31MOL0     H 4078   4.168   6.320   7.305 -2.8178 -1.1573 -0.7479
   31MOL0     H 4079   3.932   6.334   7.394  0.5678  0.0211 -0.5086
   31MOL0     H 4080   3.649   6.139   7.814 -2.0146  0.5764 -1.5495
   31MOL0     H 4081   3.431   6.168   7.905 -0.4501  0.1427  0.0367
   31MOL0     H 4082   3.244   6.572   7.855 -0.4552  0.9545 -0.9636
   31MOL0     H 4083   3.118   6.474   7.922  0.3256 -0.5813  0.2718
   31MOL0     H 4084   3.272   6.436   7.656 -0.5567  4.2610 -0.3071
   31MOL0     H 4085   3.152   6.314   7.708  1.7638 -0.4007 -1.3108
   31MOL0     H 4086   3.060   6.457   7.532  1.5440  1.4453 -1.2131
   31MOL0     H 4087   3.087   6.597   7.624  1.7785  0.2389  3.5837
   31MOL0     H 4088   2.901   6.366   7.718  0.3046 -0.8997 -3.0224
   31MOL0     H 4089   2.937   6.508   7.812  1.0290  0.3172 -0.1488
   31MOL0     H 4090   2.673   6.680   7.516  2.6518  0.0731 -1.4833
   31MOL0     H 4091   3.468   6.592   7.856  1.6741 -0.3191  1.9518
   31MOL0     H 4092   3.706   6.557   7.773  0.4040 -0.2506  0.2992
   32MOL0     O 4093   2.596   6.925  10.717  0.8955  0.0977 -0.0734
   32MOL0     C 4094   2.563   7.012  10.801 -0.3127  0.6935  0.7023
   32MOL0     O 4095   2.448   7.086  10.795  0.2659  1.2793  0.6492
   32MOL0     C 4096   2.350   7.025  10.711  0.2613  1.0177  0.4035
   32MOL0     C 4097   2.239   6.973  10.772 -0.8351  0.1960 -0.2746
   32MOL0     C 4098   2.133   6.934  10.703  0.8145  1.0802  0.5158
   32MOL0     C 4099   2.126   6.943  10.566 -0.8479 -1.0090 -0.3409
   32MOL0     O 4100   2.022   6.905  10.486  0.4122  0.2665  0.5080
   32MOL0     C 4101   1.897   6.865  10.549  0.3461  0.6487  0.0973
   32MOL0     C 4102   1.764   6.908  10.484 -0.6863  0.2774  0.3105
   32MOL0     C 4103   1.778   6.919  10.333  0.1188 -0.1431  1.2505
   32MOL0     C 4104   1.652   6.967  10.262  0.5715 -0.3779  1.1852
   32MOL0     C 4105   1.531   6.873  10.273 -0.3903  0.4257 -0.2744
   32MOL0     C 4106   1.424   6.908  10.171 -0.2342  0.4180 -0.4564
   32MOL0     C 4107   1.300   6.829  10.214 -0.8108 -0.4392 -0.8366
   32MOL0     C 4108   1.189   6.848  10.120 -0.1753  0.1286  0.1653
   32MOL0     N 4109   1.061   6.783  10.160  0.3671  0.3675 -0.1512
   32MOL0     C 4110   0.938   6.831  10.118  1.0022 -0.3822 -0.2669
   32MOL0     C 4111   0.846   6.745  10.171  0.6933 -0.3709  0.5075
   32MOL0     C 4112   0.700   6.779  10.168  0.6730 -0.2693  0.6093
   32MOL0     C 4113   0.605   6.679  10.100 -0.1410 -0.0336 -0.0060
   32MOL0     C 4114   0.467   6.713  10.125  0.4391 -0.6714  0.4895
   32MOL0     C 4115   0.371   6.643  10.013 -0.2006 -0.2051  0.3480
   32MOL0     O 4116   0.350   6.498  10.043 -0.3336 -0.3726 -0.1715
   32MOL0     C 4117   0.279   6.458  10.147 -0.0355  0.1948  0.3276
   32MOL0     C 4118   0.304   6.325  10.206 -0.2052 -0.4598  1.0088
   32MOL0     C 4119   0.235   6.287  10.323  0.7873 -0.9461  0.6184
   32MOL0     C 4120   0.138   6.368  10.378  0.4585 -0.0467  0.5222
   32MOL0     C 4121   0.050   6.314  10.487  0.2523 -0.1152  0.0254
   32MOL0     O 4122  -0.032   6.412  10.536 -0.6909 -0.1757  0.1172
   32MOL0     C 4123  -0.124   6.363  10.623 -0.5806  0.6662 -0.1211
   32MOL0     C 4124  -0.129   6.431  10.747  0.1081  1.5163  0.3524
   32MOL0     C 4125  -0.208   6.379  10.852  0.0401 -0.1556  0.6279
   32MOL0     C 4126  -0.291   6.271  10.833  0.5406 -0.0929  0.1660
   32MOL0     O 4127  -0.374   6.214  10.928  0.1366 -0.0947  0.1040
   32MOL0     C 4128  -0.354   6.231  11.068 -0.7473 -0.2039 -0.3699
   32MOL0     C 4129  -0.403   6.104  11.138  0.2102 -0.1493  0.2816
   32MOL0     C 4130  -0.281   6.011  11.149  0.5087 -0.8190 -0.0831
   32MOL0     C 4131  -0.326   5.870  11.168 -0.5768  0.4088  0.2091
   32MOL0     C 4132  -0.223   5.778  11.243  0.3536 -0.1865  0.2626
   32MOL0     C 4133  -0.081   5.784  11.188  0.0511  0.2595 -0.1343
   32MOL0     C 4134  -0.009   5.679  11.272 -0.0349 -0.3401 -0.8499
   32MOL0     C 4135   0.037   5.554  11.190 -0.2929 -0.7183 -1.0325
   32MOL0    Cl 4136  -0.095   5.458  11.114 -0.0931 -0.2405  0.5895
   32MOL0     C 4137  -0.283   6.203  10.708 -0.1559 -0.2978 -0.4158
   32MOL0     C 4138  -0.206   6.254  10.598  0.1108 -0.7888  0.3117
   32MOL0     O 4139   0.070   6.203  10.536  0.1783 -0.3717 -0.0735
   32MOL0     C 4140   0.110   6.488  10.313  0.6237  0.0859 -0.0570
   32MOL0     C 4141   0.164   6.525  10.193 -0.2058  0.0445  0.2948
   32MOL0     N 4142   0.913   6.629  10.208  0.1576  0.7091 -0.7083
   32MOL0     N 4143   1.040   6.665  10.219  0.8499  0.0610  0.4465
   32MOL0     C 4144   2.233   7.010  10.499  0.6976  0.6182 -0.4719
   32MOL0     C 4145   2.349   7.042  10.570 -0.0542  0.1658  0.6916
   32MOL0     C 4146   2.646   7.048  10.917 -0.1162  0.0624 -0.2593
   32MOL0     C 4147   2.605   7.126  11.024 -0.7197 -1.5639 -0.0379
   32MOL0     C 4148   2.699   7.177  11.122 -0.1567 -0.4149  0.4024
   32MOL0     C 4149   2.828   7.128  11.127  0.0688  0.3003  0.1117
   32MOL0     O 4150   2.905   7.162  11.236  0.1044  0.2551  0.2985
   32MOL0     C 4151   2.886   7.088  11.359  0.4282  0.4847  0.4513
   32MOL0     C 4152   2.909   7.178  11.478 -0.0997  0.1237  0.2761
   32MOL0     C 4153   3.048   7.244  11.489  0.3029 -0.1336  0.2724
   32MOL0     C 4154   3.150   7.137  11.531  0.4722 -0.0610 -0.5235
   32MOL0     C 4155   3.250   7.189  11.616 -0.3453 -0.0994 -0.0166
   32MOL0     C 4156   3.315   7.236  11.707 -0.7482 -0.7675 -0.2662
   32MOL0     C 4157   2.865   7.031  11.029  0.1932  0.7338  0.2346
   32MOL0     C 4158   2.777   6.999  10.920  0.2992 -0.8511 -0.1747
   32MOL0     H 4159   2.249   6.969  10.880  2.9379 -0.2119 -0.5175
   32MOL0     H 4160   2.059   6.881  10.762  0.3160  0.6332 -0.4734
   32MOL0     H 4161   1.886   6.896  10.653 -0.1140  3.0835 -0.6105
   32MOL0     H 4162   1.892   6.756  10.541 -1.7085  0.7562 -0.5516
   32MOL0     H 4163   1.741   7.005  10.530  1.6257 -0.6577  3.7765
   32MOL0     H 4164   1.683   6.835  10.499  0.4317 -1.8351 -2.8169
   32MOL0     H 4165   1.815   6.826  10.289  0.0782  0.8974 -1.1634
   32MOL0     H 4166   1.857   6.994  10.328 -0.0048 -0.0910 -1.3740
   32MOL0     H 4167   1.625   7.067  10.296  1.1788  0.9345 -1.8497
   32MOL0     H 4168   1.667   6.961  10.154 -0.4442 -1.1188  1.0771
   32MOL0     H 4169   1.480   6.866  10.369 -1.2531 -1.1966 -0.8168
   32MOL0     H 4170   1.571   6.774  10.252  3.4844  2.2829 -2.9129
   32MOL0     H 4171   1.456   6.887  10.068  0.8778  1.3904 -0.3276
   32MOL0     H 4172   1.401   7.015  10.176 -0.2291  0.4488 -1.0206
   32MOL0     H 4173   1.318   6.722  10.232 -2.3172 -0.9801 -2.2960
   32MOL0     H 4174   1.266   6.865  10.312 -1.8603  0.9713 -1.6908
   32MOL0     H 4175   1.208   6.811  10.019 -0.2974  2.2736 -0.7101
   32MOL0     H 4176   1.168   6.955  10.105 -0.4667  0.0355 -0.0777
   32MOL0     H 4177   0.924   6.921  10.059  1.5957  0.3465  0.6737
   32MOL0     H 4178   0.700   6.877  10.118 -0.1216 -1.8313 -2.6936
   32MOL0     H 4179   0.678   6.797  10.274  0.1157  0.0434  0.4442
   32MOL0     H 4180   0.637   6.578  10.129  1.1256  0.3248 -0.0669
   32MOL0     H 4181   0.618   6.688   9.991 -1.0694 -1.4916 -0.2738
   32MOL0     H 4182   0.434   6.677  10.223 -1.6011  0.4828  0.2833
   32MOL0     H 4183   0.455   6.822  10.115  0.3709 -0.7248 -0.0529
   32MOL0     H 4184   0.418   6.654   9.916 -3.3807 -0.8205 -1.4141
   32MOL0     H 4185   0.276   6.697  10.021 -0.8173 -1.3069  0.7871
   32MOL0     H 4186   0.372   6.253  10.162 -0.5556 -0.3214  0.2056
   32MOL0     H 4187   0.259   6.187  10.359  3.3339  0.4294  3.1857
   32MOL0     H 4188  -0.070   6.522  10.749 -1.7679  2.9573 -2.8992
   32MOL0     H 4189  -0.202   6.433  10.946 -1.5866  1.8573 -0.3509
   32MOL0     H 4190  -0.397   6.324  11.106 -0.5318 -0.8224  1.5130
   32MOL0     H 4191  -0.247   6.247  11.086 -0.3410 -3.0396  0.2271
   32MOL0     H 4192  -0.484   6.059  11.080  0.3520  1.0848 -0.9299
   32MOL0     H 4193  -0.447   6.125  11.235 -1.4619 -2.9596  0.2576
   32MOL0     H 4194  -0.217   6.041  11.233 -2.4546  1.2624  1.6495
   32MOL0     H 4195  -0.218   6.012  11.060  0.3148 -2.2180 -0.2570
   32MOL0     H 4196  -0.421   5.859  11.221 -1.2905 -1.7652 -1.3589
   32MOL0     H 4197  -0.356   5.832  11.070 -4.2126 -0.1646  1.3988
   32MOL0     H 4198  -0.262   5.677  11.229  0.7966 -0.5571  1.5395
   32MOL0     H 4199  -0.219   5.804  11.349 -2.0175  3.1746 -0.2970
   32MOL0     H 4200  -0.038   5.885  11.183  4.5786 -1.4458  0.1193
   32MOL0     H 4201  -0.083   5.744  11.086 -0.8480 -4.7028  1.5678
   32MOL0     H 4202   0.076   5.727  11.321 -1.1675  0.2856  0.5958
   32MOL0     H 4203  -0.071   5.636  11.351  0.3246 -0.3365 -0.5672
   32MOL0     H 4204   0.081   5.492  11.270  0.7092 -0.5860 -1.4629
   32MOL0     H 4205   0.105   5.579  11.108 -1.4108  1.5713 -1.3373
   32MOL0     H 4206  -0.343   6.116  10.684  0.9215 -0.4292 -2.9877
   32MOL0     H 4207  -0.220   6.190  10.511 -8.5983  0.2015  0.0338
   32MOL0     H 4208   0.030   6.555  10.341 -1.3210 -2.4979  0.9793
   32MOL0     H 4209   0.130   6.604  10.127 -1.1999 -0.5656  0.0621
   32MOL0     H 4210   2.226   7.011  10.390  1.5355 -1.3922 -0.5953
   32MOL0     H 4211   2.429   7.105  10.531  0.3458 -0.2048  0.8982
   32MOL0     H 4212   2.506   7.171  11.020 -0.0534  0.0722  0.9940
   32MOL0     H 4213   2.671   7.247  11.200  2.0580 -0.5125  1.3704
   32MOL0     H 4214   2.969   7.018  11.351  1.4904  1.6592  0.8528
   32MOL0     H 4215   2.790   7.035  11.354  1.0104 -0.4905 -1.2562
   32MOL0     H 4216   2.843   7.265  11.477  1.4329  1.3342  0.4508
   32MOL0     H 4217   2.882   7.125  11.570 -2.6959  2.8746  1.2655
   32MOL0     H 4218   3.054   7.319  11.567  2.1464 -3.4526  3.6731
   32MOL0     H 4219   3.083   7.290  11.396 -1.4003  2.0104  0.6328
   32MOL0     H 4220   3.092   7.061  11.584  0.3520 -0.0453 -0.6309
   32MOL0     H 4221   3.205   7.091  11.449 -1.9017 -1.2544 -1.5390
   32MOL0     H 4222   3.359   7.294  11.786 -1.5193  1.3653 -1.3221
   32MOL0     H 4223   2.965   6.992  11.044 -1.0719 -1.4155  4.9460
   32MOL0     H 4224   2.812   6.934  10.841  2.1930  2.9789 -2.7978
   33MOL0     O 4225   6.209   5.004   3.460  0.3916  0.3209  0.6260
   33MOL0     C 4226   6.159   5.041   3.568  0.1175 -0.4584  0.1250
   33MOL0     O 4227   6.233   5.096   3.669 -0.0490 -0.4717  0.2950
   33MOL0     C 4228   6.365   5.137   3.656  0.3468 -0.2560 -0.9588
   33MOL0     C 4229   6.421   5.198   3.540  0.0333  0.0486  0.0560
   33MOL0     C 4230   6.559   5.233   3.540  0.4053 -0.7150 -0.1670
   33MOL0     C 4231   6.640   5.204   3.651 -0.0695  0.7111 -0.6663
   33MOL0     O 4232   6.774   5.234   3.648 -0.3781 -0.3285 -0.0180
   33MOL0     C 4233   6.859   5.186   3.751  0.4290  0.9651 -0.3283
   33MOL0     C 4234   7.002   5.192   3.698  0.5800 -0.0915 -0.2918
   33MOL0     C 4235   7.022   5.284   3.572  0.5684 -0.0117  0.4931
   33MOL0     C 4236   7.160   5.298   3.542 -0.4871  0.3605 -0.3552
   33MOL0     C 4237   7.195   5.405   3.432 -0.0404  0.8544  0.2125
   33MOL0     C 4238   7.351   5.429   3.419  0.1404 -0.2462  0.2748
   33MOL0     C 4239   7.419   5.315   3.338  0.0875 -0.0881  0.6605
   33MOL0     C 4240   7.573   5.328   3.315  0.3455  0.2130  0.1148
   33MOL0     N 4241   7.627   5.205   3.256 -0.2075 -0.0531 -0.0713
   33MOL0     C 4242   7.591   5.163   3.126  0.1964 -0.5980  0.4422
   33MOL0     C 4243   7.643   5.044   3.113 -0.2480  0.1218  0.0560
   33MOL0     C 4244   7.625   4.953   2.996 -0.3489  0.1664 -0.5248
   33MOL0     C 4245   7.493   4.963   2.929 -0.0149  0.0090  0.9137
   33MOL0     C 4246   7.443   4.834   2.865  0.3218  0.4155 -0.7502
   33MOL0     C 4247   7.322   4.853   2.771 -0.2926 -0.9657  0.0353
   33MOL0     O 4248   7.228   4.936   2.840  0.0874 -0.1075 -0.2836
   33MOL0     C 4249   7.098   4.953   2.803  1.4713  0.1233  0.7127
   33MOL0     C 4250   7.049   4.900   2.681 -0.5130 -0.0452 -0.9402
   33MOL0     C 4251   6.913   4.910   2.638 -0.2471 -0.6161 -0.3423
   33MOL0     C 4252   6.820   4.967   2.731  0.3906 -1.1465  0.5434
   33MOL0     C 4253   6.679   4.962   2.692 -0.9951  0.2748 -0.0738
   33MOL0     O 4254   6.649   4.896   2.586  0.5108 -0.3422  0.3747
   33MOL0     C 4255   6.515   4.851   2.562 -0.6891 -0.5558  1.4505
   33MOL0     C 4256   6.497   4.807   2.426  1.2036 -0.2361 -0.3935
   33MOL0     C 4257   6.377   4.741   2.385  0.8909  1.1837 -0.4345
   33MOL0     C 4258   6.272   4.719   2.482 -0.9825 -0.0345  0.3213
   33MOL0     O 4259   6.171   4.651   2.430  0.7040  0.1295  0.2437
   33MOL0     C 4260   6.089   4.586   2.532 -0.1719 -0.7231 -0.7704
   33MOL0     C 4261   5.968   4.513   2.458  0.4301  0.6197 -0.1641
   33MOL0     C 4262   5.917   4.580   2.330 -0.3588 -1.1080  0.2054
   33MOL0     C 4263   5.867   4.464   2.240 -0.1238 -0.3295  1.1828
   33MOL0     C 4264   5.788   4.512   2.121  0.2066 -0.3774  0.4439
   33MOL0     C 4265   5.694   4.628   2.136 -0.4648 -0.7686 -0.9626
   33MOL0     C 4266   5.577   4.585   2.206 -0.5445  0.1761  0.1561
   33MOL0     C 4267   5.506   4.710   2.268  0.2563 -0.4282 -0.0023
   33MOL0    Cl 4268   5.613   4.801   2.369 -0.3567  0.1299  0.1370
   33MOL0     C 4269   6.302   4.753   2.615 -0.0342  0.6135 -0.3321
   33MOL0     C 4270   6.421   4.812   2.655 -0.9017  0.0390 -0.3434
   33MOL0     O 4271   6.600   5.026   2.760  0.8766 -0.4933 -0.2547
   33MOL0     C 4272   6.866   5.024   2.854 -0.5278  0.2140 -0.1354
   33MOL0     C 4273   7.001   5.022   2.891 -0.7872  0.3670  0.4843
   33MOL0     N 4274   7.721   5.021   3.227 -0.2797 -0.4766  0.0079
   33MOL0     N 4275   7.716   5.116   3.310 -0.1854 -0.2061  0.6698
   33MOL0     C 4276   6.584   5.135   3.759  0.7849 -1.0727  0.5810
   33MOL0     C 4277   6.446   5.105   3.761 -0.2340  0.5598 -0.4137
   33MOL0     C 4278   6.016   5.049   3.577 -1.0841 -0.4543  0.2652
   33MOL0     C 4279   5.953   5.142   3.652  0.1464 -1.0751  0.6803
   33MOL0     C 4280   5.816   5.146   3.653 -0.0756  0.6386  0.3724
   33MOL0     C 4281   5.735   5.056   3.581 -0.4582  0.5072 -0.4131
   33MOL0     O 4282   5.601   5.063   3.609  0.7004 -0.2858 -0.0216
   33MOL0     C 4283   5.515   4.956   3.570 -0.1581 -1.1107  0.3837
   33MOL0     C 4284   5.520   4.836   3.668 -0.1788 -0.6622 -0.6233
   33MOL0     C 4285   5.477   4.704   3.611 -0.2666  0.3839  0.7221
   33MOL0     C 4286   5.503   4.580   3.705 -0.8080  0.1234  0.2027
   33MOL0     C 4287   5.649   4.537   3.707 -0.3417 -0.5853 -0.0661
   33MOL0     C 4288   5.766   4.508   3.731  0.3962 -0.1884 -1.2525
   33MOL0     C 4289   5.800   4.961   3.500 -0.0937  0.0086  0.4749
   33MOL0     C 4290   5.944   4.955   3.501  1.0339 -0.2882  0.0357
   33MOL0     H 4291   6.363   5.214   3.450  0.9886 -1.3670 -0.8473
   33MOL0     H 4292   6.599   5.286   3.454  0.2490  1.2940  0.9478
   33MOL0     H 4293   6.849   5.077   3.757  3.0481  0.4595 -2.9602
   33MOL0     H 4294   6.853   5.250   3.840 -1.3365  2.4913 -1.4828
   33MOL0     H 4295   7.049   5.096   3.678 -0.7084 -1.3000  2.0968
   33MOL0     H 4296   7.073   5.242   3.764 -1.0197  1.2681  0.4669
   33MOL0     H 4297   6.978   5.380   3.600 -1.4492 -0.8583  0.4245
   33MOL0     H 4298   6.961   5.251   3.487 -1.7673  0.7260  1.7941
   33MOL0     H 4299   7.221   5.313   3.631  1.5198 -1.3793 -1.3325
   33MOL0     H 4300   7.191   5.198   3.509 -0.4860 -0.1474  1.1032
   33MOL0     H 4301   7.146   5.498   3.463 -1.1045  0.5696 -0.5472
   33MOL0     H 4302   7.161   5.372   3.333 -0.2251  0.4838  0.3983
   33MOL0     H 4303   7.392   5.451   3.518  1.1919  0.0403 -0.2112
   33MOL0     H 4304   7.368   5.528   3.377  1.3548 -0.9275 -0.9197
   33MOL0     H 4305   7.394   5.216   3.378  2.6347 -1.0451  0.0693
   33MOL0     H 4306   7.370   5.314   3.241  1.0566  2.0795  0.0914
   33MOL0     H 4307   7.621   5.351   3.411  2.3712  0.7214 -0.9566
   33MOL0     H 4308   7.589   5.421   3.259 -3.3340  2.6546  2.6222
   33MOL0     H 4309   7.542   5.221   3.048  0.5822  0.1467  0.7436
   33MOL0     H 4310   7.647   4.854   3.037 -1.4583  1.3760  3.4854
   33MOL0     H 4311   7.694   4.989   2.920 -1.6799  1.7282 -1.0674
   33MOL0     H 4312   7.516   5.028   2.844 -2.6878 -0.9272 -0.6445
   33MOL0     H 4313   7.419   5.012   2.993 -2.7462 -1.1222 -1.1788
   33MOL0     H 4314   7.521   4.796   2.799 -0.8272 -0.7530 -1.4873
   33MOL0     H 4315   7.423   4.763   2.947  0.3133  0.2975 -0.8545
   33MOL0     H 4316   7.277   4.759   2.738  0.0060 -2.2530  2.9637
   33MOL0     H 4317   7.366   4.907   2.687  0.6094 -3.1214 -0.9565
   33MOL0     H 4318   7.126   4.862   2.614 -1.1214 -0.7055 -1.2725
   33MOL0     H 4319   6.881   4.862   2.546  0.7552 -1.5300 -0.2250
   33MOL0     H 4320   6.569   4.842   2.352 -0.1573 -1.1765 -2.2578
   33MOL0     H 4321   6.365   4.700   2.285 -0.5913  2.2216 -0.7120
   33MOL0     H 4322   6.051   4.666   2.595  1.8662  0.7834 -1.3433
   33MOL0     H 4323   6.147   4.520   2.596  2.5225 -0.0793 -2.3965
   33MOL0     H 4324   5.878   4.509   2.521  0.0430 -4.2454 -0.6702
   33MOL0     H 4325   5.995   4.409   2.438  1.4638  0.9121 -0.3658
   33MOL0     H 4326   5.997   4.634   2.277 -0.8596  0.3643  0.9174
   33MOL0     H 4327   5.841   4.654   2.356  0.5493 -0.4714  1.1095
   33MOL0     H 4328   5.949   4.408   2.196  1.8048  2.0347  1.5337
   33MOL0     H 4329   5.793   4.411   2.300 -1.5608  2.6522  2.2706
   33MOL0     H 4330   5.720   4.437   2.080 -1.1763 -0.7998  3.2328
   33MOL0     H 4331   5.861   4.550   2.050  1.0916  0.6905  1.8647
   33MOL0     H 4332   5.664   4.653   2.034 -1.1089  0.6139 -0.4631
   33MOL0     H 4333   5.756   4.706   2.180  1.7015 -2.3140 -1.1597
   33MOL0     H 4334   5.505   4.524   2.150  0.9111 -1.9958  0.5497
   33MOL0     H 4335   5.599   4.509   2.281  0.2211 -0.1447 -0.3727
   33MOL0     H 4336   5.422   4.681   2.331  0.3415  2.1501  1.4894
   33MOL0     H 4337   5.462   4.772   2.190 -2.6720 -1.8690  0.4026
   33MOL0     H 4338   6.232   4.729   2.695  3.4798 -0.3824  2.7468
   33MOL0     H 4339   6.426   4.832   2.762  0.6092 -1.3351 -0.1093
   33MOL0     H 4340   6.800   5.085   2.914 -2.1599 -0.8591 -0.7809
   33MOL0     H 4341   7.029   5.079   2.979  2.5827 -2.2506  1.3285
   33MOL0     H 4342   6.640   5.100   3.846 -0.5682 -3.7236  0.4732
   33MOL0     H 4343   6.399   5.053   3.844  1.0289 -1.5001 -0.9203
   33MOL0     H 4344   6.008   5.222   3.700  1.7957  0.6018 -3.5583
   33MOL0     H 4345   5.760   5.217   3.714 -1.5393  0.0089 -0.1971
   33MOL0     H 4346   5.526   4.920   3.467 -5.0691 -0.4314 -0.6327
   33MOL0     H 4347   5.415   5.001   3.563 -0.0332 -0.9968 -0.9931
   33MOL0     H 4348   5.626   4.828   3.695 -0.5391 -3.6921  0.3023
   33MOL0     H 4349   5.452   4.871   3.746 -0.5320 -0.4172 -1.0324
   33MOL0     H 4350   5.525   4.687   3.514 -1.0839  1.5190  0.0928
   33MOL0     H 4351   5.371   4.708   3.585  0.4887  2.6832 -2.7329
   33MOL0     H 4352   5.475   4.607   3.807 -2.0539  2.5500 -0.7143
   33MOL0     H 4353   5.442   4.504   3.654  1.2556 -0.8101 -0.9988
   33MOL0     H 4354   5.870   4.483   3.732 -0.0980 -2.8865  2.0635
   33MOL0     H 4355   5.744   4.895   3.434  0.2407  0.1813  0.0095
   33MOL0     H 4356   5.991   4.866   3.460  0.5688 -0.9074  0.8205
   34MOL0     O 4357   9.160   3.682   9.926 -0.0323  0.0693  0.4476
   34MOL0     C 4358   9.181   3.600   9.841  0.9707  0.1168  0.6017
   34MOL0     O 4359   9.082   3.538   9.751 -0.2370 -0.3464 -0.8214
   34MOL0     C 4360   8.944   3.575   9.732 -0.2870 -0.2293 -0.4458
   34MOL0     C 4361   8.881   3.501   9.634 -0.5275  0.4954  0.7515
   34MOL0     C 4362   8.742   3.516   9.610 -0.4861  0.3470 -0.3572
   34MOL0     C 4363   8.671   3.611   9.692  0.3005 -0.1661 -1.2121
   34MOL0     O 4364   8.537   3.609   9.671  0.2189 -0.1262  0.3160
   34MOL0     C 4365   8.448   3.655   9.774  0.7207  0.1128 -1.0406
   34MOL0     C 4366   8.301   3.618   9.745 -0.2526  0.6243 -0.2227
   34MOL0     C 4367   8.201   3.665   9.851 -0.2599 -0.0940 -1.6520
   34MOL0     C 4368   8.056   3.633   9.806 -0.2489  0.0534  0.8337
   34MOL0     C 4369   8.012   3.478   9.823 -0.0908 -0.7380 -0.4770
   34MOL0     C 4370   8.016   3.439   9.977  0.0387  0.3110  0.3003
   34MOL0     C 4371   7.927   3.319   9.998 -0.1667 -0.4389 -0.0813
   34MOL0     C 4372   7.933   3.265  10.141  0.1721  0.1399  0.6827
   34MOL0     N 4373   7.795   3.220  10.175  0.0236  0.3940 -0.1765
   34MOL0     C 4374   7.706   3.279  10.266  0.1876  0.1877  0.0252
   34MOL0     C 4375   7.599   3.192  10.286  0.6933  0.2354  0.4902
   34MOL0     C 4376   7.472   3.215  10.358  0.5018  0.6065 -0.3713
   34MOL0     C 4377   7.340   3.135  10.312  0.1084 -0.5240 -0.2251
   34MOL0     C 4378   7.301   3.170  10.166 -0.4874 -0.6993 -0.2752
   34MOL0     C 4379   7.209   3.056  10.119  0.1971  0.5970 -1.1756
   34MOL0     O 4380   7.099   3.029  10.204  0.1240  0.7491 -0.3054
   34MOL0     C 4381   6.970   3.075  10.177  0.0999  0.7627 -0.0844
   34MOL0     C 4382   6.868   3.036  10.264  0.5994  0.4782  0.4795
   34MOL0     C 4383   6.740   3.090  10.250  0.2364 -0.3685  0.9982
   34MOL0     C 4384   6.715   3.180  10.146  0.1501 -0.7720 -0.0835
   34MOL0     C 4385   6.580   3.252  10.130 -0.3283  0.4115 -0.1071
   34MOL0     O 4386   6.497   3.252  10.238 -0.0058 -0.5708  0.3767
   34MOL0     C 4387   6.388   3.346  10.260 -0.7782  0.8328 -0.4845
   34MOL0     C 4388   6.347   3.463  10.194 -0.1153 -0.7822  1.4057
   34MOL0     C 4389   6.228   3.541  10.228  0.3749 -0.0397 -0.4675
   34MOL0     C 4390   6.141   3.485  10.325 -0.5277 -0.0852  0.0743
   34MOL0     O 4391   6.014   3.527  10.343  0.9373  0.8976  0.3829
   34MOL0     C 4392   6.004   3.634  10.432  0.4222 -0.3250  0.5915
   34MOL0     C 4393   5.885   3.718  10.402 -0.5762  0.3416  1.1596
   34MOL0     C 4394   5.858   3.812  10.518 -0.8079  0.6750  0.7964
   34MOL0     C 4395   5.741   3.903  10.504  0.5878 -0.2915  0.1229
   34MOL0     C 4396   5.737   3.993  10.630  0.1745  0.5697 -0.7976
   34MOL0     C 4397   5.839   4.110  10.609  0.4949 -0.4948  0.1944
   34MOL0     C 4398   5.807   4.215  10.717 -0.7517  0.3651  0.3575
   34MOL0     C 4399   5.894   4.344  10.730 -0.3799 -0.4502 -0.1925
   34MOL0    Cl 4400   5.863   4.461  10.593  0.2269  0.1821 -0.1275
   34MOL0     C 4401   6.185   3.364  10.386  0.5469 -0.4685  0.4968
   34MOL0     C 4402   6.306   3.304  10.367 -0.5684  0.1666  0.7282
   34MOL0     O 4403   6.564   3.315  10.030 -0.0838  0.4601  0.3300
   34MOL0     C 4404   6.818   3.215  10.059 -0.1904 -0.4647  0.2273
   34MOL0     C 4405   6.946   3.160  10.073  0.4957 -0.4765  0.2756
   34MOL0     N 4406   7.626   3.089  10.193  0.0779 -0.1672 -0.2978
   34MOL0     N 4407   7.738   3.108  10.129 -0.1409 -0.5033 -0.6165
   34MOL0     C 4408   8.733   3.688   9.789  0.1408  0.2918  0.0241
   34MOL0     C 4409   8.870   3.663   9.809  0.6173 -0.1298  0.0380
   34MOL0     C 4410   9.313   3.538   9.831  0.2799 -1.2018  0.2055
   34MOL0     C 4411   9.434   3.604   9.849 -0.0881 -0.6681 -0.6263
   34MOL0     C 4412   9.561   3.554   9.836  0.1087 -0.4955  0.2705
   34MOL0     C 4413   9.574   3.420   9.833  0.1893  1.2612  0.3248
   34MOL0     O 4414   9.688   3.342   9.839 -0.2240 -0.5547 -0.0318
   34MOL0     C 4415   9.827   3.400   9.839  0.8468 -0.1793  0.3499
   34MOL0     C 4416   9.925   3.302   9.893 -0.4437 -0.4230  0.8465
   34MOL0     C 4417   9.912   3.285  10.040 -0.6657  0.7064 -0.2875
   34MOL0     C 4418   9.959   3.154  10.089 -0.6325  0.0411 -0.1884
   34MOL0     C 4419  10.112   3.145  10.087  0.1934  1.0122  0.2143
   34MOL0     C 4420  10.230   3.146  10.078 -0.5494 -0.0054  0.6244
   34MOL0     C 4421   9.455   3.338   9.811  0.1464  0.4160 -0.7672
   34MOL0     C 4422   9.321   3.401   9.807 -0.4232 -0.3196  0.7812
   34MOL0     H 4423   8.935   3.417   9.592 -1.7618  0.0995 -0.1027
   34MOL0     H 4424   8.688   3.444   9.551 -1.9427 -0.2316  1.5742
   34MOL0     H 4425   8.457   3.764   9.782  0.1067  0.0531  1.2071
   34MOL0     H 4426   8.475   3.621   9.875 -1.7665  1.4102  0.1601
   34MOL0     H 4427   8.296   3.509   9.736 -1.2527  0.8360 -4.1623
   34MOL0     H 4428   8.282   3.654   9.644  0.2709 -1.7417 -1.2283
   34MOL0     H 4429   8.215   3.773   9.866  0.4144 -0.5852  2.4440
   34MOL0     H 4430   8.222   3.623   9.949  0.0134 -0.7932 -2.0030
   34MOL0     H 4431   7.989   3.696   9.866 -0.9946 -0.8605  0.9807
   34MOL0     H 4432   8.041   3.657   9.700  0.5403 -4.9862 -0.6563
   34MOL0     H 4433   8.060   3.400   9.763  2.0474  0.0639  0.0893
   34MOL0     H 4434   7.905   3.481   9.803 -0.3091  1.3091  0.6883
   34MOL0     H 4435   7.977   3.525  10.031  2.0756  1.4413  0.0762
   34MOL0     H 4436   8.122   3.412   9.988 -0.5105 -2.6152 -0.5877
   34MOL0     H 4437   7.828   3.362   9.988  0.4992  0.6502 -2.8978
   34MOL0     H 4438   7.942   3.242   9.922 -0.8340  0.2152 -0.8935
   34MOL0     H 4439   7.950   3.340  10.219 -1.9453 -0.2141  1.5399
   34MOL0     H 4440   8.010   3.188  10.150  1.6225  1.3602 -0.5529
   34MOL0     H 4441   7.720   3.367  10.328 -1.8846 -1.0712  2.4888
   34MOL0     H 4442   7.444   3.313  10.319 -2.5390 -1.1995 -3.2597
   34MOL0     H 4443   7.478   3.195  10.466 -1.5409 -1.5956 -0.5814
   34MOL0     H 4444   7.256   3.153  10.380  0.0196 -1.7824  0.0171
   34MOL0     H 4445   7.355   3.027  10.308  0.6488 -0.4394 -0.6003
   34MOL0     H 4446   7.242   3.261  10.153 -0.1133 -0.3210  0.5554
   34MOL0     H 4447   7.387   3.181  10.099  2.2327  1.0611  3.1359
   34MOL0     H 4448   7.275   2.968  10.116 -0.1109  0.0936  2.1592
   34MOL0     H 4449   7.171   3.078  10.019  1.3622 -2.6987 -2.4903
   34MOL0     H 4450   6.874   2.949  10.327 -4.6812  1.4576  2.9109
   34MOL0     H 4451   6.656   3.078  10.317 -0.9202  1.9065  0.0821
   34MOL0     H 4452   6.401   3.505  10.110 -1.3748  1.1898  1.5197
   34MOL0     H 4453   6.191   3.621  10.165  0.7150  0.4215 -0.0836
   34MOL0     H 4454   6.090   3.701  10.421 -0.3623  0.7707  0.8795
   34MOL0     H 4455   5.994   3.594  10.534 -1.3408  0.0332  0.5945
   34MOL0     H 4456   5.798   3.652  10.386 -2.8132  3.4352 -0.6032
   34MOL0     H 4457   5.895   3.774  10.309  0.1304 -0.2849  0.8487
   34MOL0     H 4458   5.950   3.870  10.528 -1.1582  1.3038  0.4342
   34MOL0     H 4459   5.847   3.750  10.608  1.3111  0.2857  0.8332
   34MOL0     H 4460   5.762   3.949  10.407 -0.4924 -2.2413 -1.0989
   34MOL0     H 4461   5.641   3.859  10.499  1.2942 -2.1583  1.0562
   34MOL0     H 4462   5.773   3.946  10.722 -3.1243 -1.3031 -0.2950
   34MOL0     H 4463   5.639   4.039  10.647 -0.9720 -0.5754 -3.7546
   34MOL0     H 4464   5.836   4.156  10.510  0.8999 -2.7180 -0.9230
   34MOL0     H 4465   5.931   4.053  10.627  0.3272 -0.2030  2.1911
   34MOL0     H 4466   5.705   4.253  10.705 -1.4106  0.1942  4.1835
   34MOL0     H 4467   5.813   4.164  10.814  0.5307  1.1118  0.6968
   34MOL0     H 4468   6.000   4.315  10.733 -1.2697 -4.0514  1.8365
   34MOL0     H 4469   5.862   4.394  10.821  0.3334  2.5468 -1.4620
   34MOL0     H 4470   6.110   3.320  10.451 -2.3097 -1.0478 -2.9311
   34MOL0     H 4471   6.333   3.214  10.422 -0.3483 -0.7767 -0.8323
   34MOL0     H 4472   6.804   3.297   9.988 -0.0081  1.3140  2.1363
   34MOL0     H 4473   7.022   3.200  10.008  0.3177  2.5894  1.7732
   34MOL0     H 4474   8.680   3.753   9.858  0.6946 -1.4626  2.2249
   34MOL0     H 4475   8.922   3.725   9.882  1.6123  0.3935 -1.0860
   34MOL0     H 4476   9.437   3.712   9.856  4.1150 -0.1872 -4.9313
   34MOL0     H 4477   9.647   3.620   9.846 -1.2022  1.2738  0.3719
   34MOL0     H 4478   9.832   3.488   9.904  0.8510 -0.3973  0.6437
   34MOL0     H 4479   9.848   3.430   9.735 -1.5724  0.6011  0.0101
   34MOL0     H 4480   9.929   3.203   9.845  2.4678 -1.5229  3.0281
   34MOL0     H 4481  10.026   3.340   9.877  0.1312 -1.6846  1.2953
   34MOL0     H 4482   9.806   3.281  10.069 -0.6133 -0.1929 -0.1809
   34MOL0     H 4483   9.966   3.354  10.105  2.0166 -1.9667  0.5445
   34MOL0     H 4484   9.913   3.140  10.187 -1.5838 -2.2490 -0.8984
   34MOL0     H 4485   9.914   3.078  10.025 -1.4821 -0.2597  0.7392
   34MOL0     H 4486  10.335   3.126  10.069 -1.0650 -3.2354  0.5789
   34MOL0     H 4487   9.469   3.231   9.812 -3.8634 -0.3612  2.9363
   34MOL0     H 4488   9.236   3.344   9.772 -0.6837 -0.9563  2.3851
   35MOL0     O 4489   6.659   5.501   8.356  0.8079  0.1990 -0.9729
   35MOL0     C 4490   6.745   5.577   8.333 -1.0284  0.4910  0.0955
   35MOL0     O 4491   6.718   5.707   8.302  0.6290  1.0506 -0.1422
   35MOL0     C 4492   6.586   5.757   8.313  1.7641  0.8614  0.9186
   35MOL0     C 4493   6.463   5.682   8.269 -1.3321 -0.4009 -0.6712
   35MOL0     C 4494   6.341   5.744   8.262 -0.0438  0.1609  1.4960
   35MOL0     C 4495   6.324   5.874   8.303 -0.2037 -0.1355  0.4375
   35MOL0     O 4496   6.195   5.928   8.307  0.2786 -0.4101  0.0541
   35MOL0     C 4497   6.178   6.053   8.240 -0.3746 -0.1641 -0.1393
   35MOL0     C 4498   6.028   6.075   8.209  0.2305  0.0615  0.5281
   35MOL0     C 4499   6.002   6.196   8.128  0.5145  0.0690  0.4856
   35MOL0     C 4500   5.863   6.191   8.057  0.2013 -0.1348 -1.6410
   35MOL0     C 4501   5.852   6.308   7.970  0.0356  0.5454  0.9395
   35MOL0     C 4502   5.706   6.325   7.913 -0.1081  0.1395 -0.0782
   35MOL0     C 4503   5.702   6.437   7.816  0.4638 -0.7541  0.0777
   35MOL0     C 4504   5.704   6.582   7.884 -0.1341 -0.0690  0.6649
   35MOL0     N 4505   5.568   6.607   7.942  0.2970  0.3527 -0.2963
   35MOL0     C 4506   5.467   6.698   7.903 -0.4341 -1.4272 -0.2760
   35MOL0     C 4507   5.382   6.710   8.003 -0.2674 -0.0653 -0.0888
   35MOL0     C 4508   5.244   6.767   7.999 -0.1746 -0.4122 -0.0786
   35MOL0     C 4509   5.162   6.738   8.121 -0.5253 -1.0931  0.8771
   35MOL0     C 4510   5.020   6.728   8.082  0.3954 -0.7557  0.3602
   35MOL0     C 4511   4.924   6.772   8.190  0.7117 -1.0987 -0.1307
   35MOL0     O 4512   4.805   6.695   8.185 -0.0696  0.2332  0.3178
   35MOL0     C 4513   4.684   6.757   8.225 -0.0686  0.6877 -0.0733
   35MOL0     C 4514   4.575   6.673   8.200 -0.1922  0.2357  0.1945
   35MOL0     C 4515   4.445   6.720   8.238 -0.5883  0.6099  1.0748
   35MOL0     C 4516   4.420   6.849   8.292 -0.2933 -0.1416 -0.6343
   35MOL0     C 4517   4.291   6.899   8.319  0.2491  0.9599  0.2471
   35MOL0     O 4518   4.200   6.805   8.359 -0.1504  0.3833 -0.2661
   35MOL0     C 4519   4.074   6.842   8.405 -0.1133 -0.1728  0.0225
   35MOL0     C 4520   3.993   6.947   8.360 -0.1958  0.6187  0.0063
   35MOL0     C 4521   3.862   6.965   8.406  0.9811 -0.0906 -0.6142
   35MOL0     C 4522   3.815   6.891   8.517 -0.6397  0.6272 -0.1346
   35MOL0     O 4523   3.691   6.906   8.567  0.2037  0.1383 -0.9964
   35MOL0     C 4524   3.609   7.021   8.531  0.3387  0.2459 -0.7086
   35MOL0     C 4525   3.462   7.009   8.590  0.6120  0.3853 -0.1207
   35MOL0     C 4526   3.460   7.086   8.717  0.0039 -0.8892  0.2140
   35MOL0     C 4527   3.316   7.099   8.773  0.9742 -0.5632 -0.3507
   35MOL0     C 4528   3.292   7.211   8.883  0.1763  0.1707  0.4925
   35MOL0     C 4529   3.330   7.350   8.829 -0.3147  0.2675 -0.9151
   35MOL0     C 4530   3.305   7.462   8.939 -0.0083  0.2083 -0.9460
   35MOL0     C 4531   3.383   7.433   9.066  0.6273 -0.0663  0.5627
   35MOL0    Cl 4532   3.559   7.423   9.018 -0.5661 -0.0844 -0.0388
   35MOL0     C 4533   3.892   6.783   8.565 -1.0214  0.4516 -0.2487
   35MOL0     C 4534   4.024   6.758   8.508  0.0630  0.4755  0.7163
   35MOL0     O 4535   4.282   7.020   8.329  0.3806 -0.2969 -0.0699
   35MOL0     C 4536   4.535   6.920   8.335 -0.8114  0.4843 -0.2656
   35MOL0     C 4537   4.668   6.872   8.305  0.0611  0.5303  0.2609
   35MOL0     N 4538   5.427   6.624   8.100 -0.1694  0.8117  0.6470
   35MOL0     N 4539   5.545   6.573   8.071 -0.2489  0.3892 -0.6219
   35MOL0     C 4540   6.439   5.945   8.353 -0.2790  0.0668 -0.6046
   35MOL0     C 4541   6.558   5.883   8.361  0.2126  0.1830 -0.3249
   35MOL0     C 4542   6.879   5.519   8.324  0.1469  0.2181 -0.6352
   35MOL0     C 4543   6.987   5.603   8.305  0.0472 -0.7453 -0.7034
   35MOL0     C 4544   7.111   5.549   8.282 -0.4207 -0.2918  1.5181
   35MOL0     C 4545   7.141   5.415   8.290 -0.1022 -0.3021 -0.4473
   35MOL0     O 4546   7.267   5.379   8.254 -0.6460 -0.7131  0.5708
   35MOL0     C 4547   7.321   5.266   8.317  0.1182  0.3725  0.4717
   35MOL0     C 4548   7.466   5.258   8.275 -0.2909 -0.5380 -0.6197
   35MOL0     C 4549   7.487   5.253   8.117 -0.6103 -0.6289  0.4399
   35MOL0     C 4550   7.528   5.387   8.058 -0.2177  0.2857  0.8499
   35MOL0     C 4551   7.577   5.377   7.917 -0.0838  0.6651 -0.2644
   35MOL0     C 4552   7.643   5.377   7.818 -0.2109 -0.3820 -0.2919
   35MOL0     C 4553   7.035   5.332   8.337 -0.9665 -0.4225 -0.4504
   35MOL0     C 4554   6.913   5.381   8.361 -0.0575 -0.4534  0.1318
   35MOL0     H 4555   6.469   5.578   8.237 -1.2767 -0.5612 -0.1555
   35MOL0     H 4556   6.252   5.685   8.242  0.7941 -1.0947  1.3272
   35MOL0     H 4557   6.244   6.060   8.153  1.0798  3.6396  1.0454
   35MOL0     H 4558   6.210   6.132   8.308 -0.0622  1.1155 -1.6954
   35MOL0     H 4559   5.975   6.080   8.304  0.7282  3.1430  0.7300
   35MOL0     H 4560   6.007   5.985   8.150  0.3512  0.0928  0.4359
   35MOL0     H 4561   6.077   6.202   8.049 -0.8431 -2.7834 -1.1518
   35MOL0     H 4562   6.005   6.284   8.194 -2.2871  0.9925 -0.4703
   35MOL0     H 4563   5.836   6.102   8.000 -2.7130 -0.2661 -0.2865
   35MOL0     H 4564   5.785   6.199   8.134 -0.4704  1.3328 -2.4379
   35MOL0     H 4565   5.913   6.276   7.884  0.2761 -0.4414  1.4600
   35MOL0     H 4566   5.891   6.400   8.013  1.3289  0.6493 -0.3622
   35MOL0     H 4567   5.639   6.362   7.992  3.1264  1.7719  2.1458
   35MOL0     H 4568   5.682   6.230   7.865  2.9155 -0.9424  0.3834
   35MOL0     H 4569   5.778   6.440   7.737 -0.0628 -2.4265 -0.5422
   35MOL0     H 4570   5.606   6.426   7.763  0.2154 -0.2261  0.4040
   35MOL0     H 4571   5.716   6.649   7.798  1.1381 -4.1675 -2.6805
   35MOL0     H 4572   5.780   6.598   7.961 -0.2862  0.1564  0.7690
   35MOL0     H 4573   5.466   6.744   7.804  0.6012 -0.7543  0.0059
   35MOL0     H 4574   5.194   6.722   7.913  1.6460 -2.5652 -0.0947
   35MOL0     H 4575   5.260   6.875   7.992  1.9035 -0.7502 -1.0886
   35MOL0     H 4576   5.182   6.804   8.206 -2.4872 -0.8503  1.2113
   35MOL0     H 4577   5.191   6.640   8.162 -2.0978 -1.6894  0.6717
   35MOL0     H 4578   5.000   6.793   7.997  0.2872 -3.5826 -1.9078
   35MOL0     H 4579   4.996   6.630   8.041 -2.6740  0.1715 -0.2960
   35MOL0     H 4580   4.908   6.877   8.164  2.1749 -1.1661 -1.4888
   35MOL0     H 4581   4.963   6.757   8.291  1.7104 -1.2454 -0.5196
   35MOL0     H 4582   4.567   6.580   8.145  2.0625  1.5303 -2.6308
   35MOL0     H 4583   4.365   6.656   8.201 -0.8747 -0.7020  3.6985
   35MOL0     H 4584   4.025   7.011   8.278  0.1999 -0.0533 -0.3697
   35MOL0     H 4585   3.797   7.034   8.355  0.8081  0.4492  0.3170
   35MOL0     H 4586   3.603   7.035   8.423 -2.4424 -0.3024 -0.6741
   35MOL0     H 4587   3.642   7.119   8.567 -3.0094  0.6440  1.7622
   35MOL0     H 4588   3.432   6.907   8.615  2.5084  0.2216  1.7112
   35MOL0     H 4589   3.387   7.031   8.513  0.5296 -1.1497 -0.5154
   35MOL0     H 4590   3.472   7.189   8.683 -2.8841  0.1829  2.1123
   35MOL0     H 4591   3.529   7.067   8.800  0.6247  2.2000  0.5111
   35MOL0     H 4592   3.244   7.113   8.692  0.6004 -1.3059 -0.1599
   35MOL0     H 4593   3.297   6.998   8.810 -0.3874 -0.1711  0.0495
   35MOL0     H 4594   3.367   7.198   8.961 -2.4319 -0.3165  3.0902
   35MOL0     H 4595   3.193   7.210   8.929  0.5348  0.8689  1.3028
   35MOL0     H 4596   3.274   7.377   8.739 -0.7539 -0.2944 -0.8231
   35MOL0     H 4597   3.435   7.356   8.802 -0.4420 -0.5599 -1.6503
   35MOL0     H 4598   3.338   7.558   8.899 -1.3787  0.4071 -1.6604
   35MOL0     H 4599   3.200   7.481   8.960  0.2816 -0.3391  1.1930
   35MOL0     H 4600   3.347   7.344   9.118 -3.2325  0.6045 -0.6305
   35MOL0     H 4601   3.356   7.515   9.132 -0.1211  1.7708 -1.8739
   35MOL0     H 4602   3.871   6.712   8.644 -0.0683 -1.2498 -1.4712
   35MOL0     H 4603   4.074   6.671   8.550 -0.3149  0.2654  0.7380
   35MOL0     H 4604   4.534   7.013   8.392  2.6930  1.2998 -1.3276
   35MOL0     H 4605   4.758   6.925   8.336  0.3845 -0.1335  0.4759
   35MOL0     H 4606   6.436   6.048   8.389 -0.7609 -0.2893  0.4320
   35MOL0     H 4607   6.645   5.937   8.398 -0.3683 -0.3675  1.9659
   35MOL0     H 4608   6.964   5.705   8.273 -0.0562 -1.0454 -1.5929
   35MOL0     H 4609   7.197   5.608   8.251  0.0212 -1.9264 -0.5852
   35MOL0     H 4610   7.265   5.176   8.291  0.8950  0.1810 -0.5826
   35MOL0     H 4611   7.313   5.286   8.424 -3.1110  4.9328 -0.3478
   35MOL0     H 4612   7.511   5.340   8.332  1.1364 -0.4536 -1.8013
   35MOL0     H 4613   7.531   5.183   8.320  1.7418  1.7168  0.4175
   35MOL0     H 4614   7.407   5.219   8.052  0.2453 -0.6505 -0.6297
   35MOL0     H 4615   7.572   5.183   8.111 -0.7727 -0.8674  0.8808
   35MOL0     H 4616   7.437   5.444   8.040  0.8279  1.4273 -1.1385
   35MOL0     H 4617   7.606   5.437   8.116 -0.1810 -1.2484  2.2025
   35MOL0     H 4618   7.710   5.370   7.734 -1.2457  3.1422 -1.5966
   35MOL0     H 4619   7.055   5.227   8.356 -1.1535 -0.6871 -1.6427
   35MOL0     H 4620   6.831   5.312   8.380 -0.6904  0.5052  0.9175
   36MOL0     O 4621   6.526   1.673  11.286  0.1837 -0.0873 -0.0657
   36MOL0     C 4622   6.427   1.630  11.233 -1.0622 -0.3326 -0.5732
   36MOL0     O 4623   6.429   1.517  11.146  0.3594 -0.2461 -0.7233
   36MOL0     C 4624   6.539   1.429  11.142  0.0665 -0.7729  0.0990
   36MOL0     C 4625   6.674   1.467  11.113 -0.4150  0.6835  1.1901
   36MOL0     C 4626   6.771   1.365  11.109  0.7954 -0.2982 -0.2249
   36MOL0     C 4627   6.742   1.234  11.146  0.6133 -0.5153  0.3801
   36MOL0     O 4628   6.830   1.135  11.147  0.0509 -0.3093  0.1928
   36MOL0     C 4629   6.976   1.165  11.158 -0.2748  0.0367 -0.5270
   36MOL0     C 4630   7.038   1.027  11.175  0.4031 -0.6136 -0.4717
   36MOL0     C 4631   7.193   1.035  11.142 -0.6709  0.0042 -0.8725
   36MOL0     C 4632   7.248   0.896  11.148  0.0071  0.4289 -0.4321
   36MOL0     C 4633   7.399   0.899  11.096  0.4500 -0.1960  0.1825
   36MOL0     C 4634   7.480   0.802  11.163 -0.2244 -0.0535 -0.2680
   36MOL0     C 4635   7.452   0.649  11.159  0.2317  0.1704  0.1202
   36MOL0     C 4636   7.569   0.567  11.220 -0.0040 -0.5567 -1.2880
   36MOL0     N 4637   7.692   0.579  11.142  0.0267 -0.0688  0.1495
   36MOL0     C 4638   7.710   0.502  11.030  0.2806  0.9684 -0.2551
   36MOL0     C 4639   7.832   0.551  10.989 -0.6395 -0.8835  0.2227
   36MOL0     C 4640   7.896   0.511  10.852 -0.8733  0.0114  0.2095
   36MOL0     C 4641   7.897   0.627  10.748 -0.1265  0.1644 -0.7777
   36MOL0     C 4642   7.762   0.670  10.704  0.9200 -0.2603  0.3359
   36MOL0     C 4643   7.767   0.780  10.594 -0.4710 -0.2622  0.4547
   36MOL0     O 4644   7.635   0.817  10.544  0.2177 -0.4178 -0.7984
   36MOL0     C 4645   7.555   0.901  10.625 -0.0908 -1.4430  0.4078
   36MOL0     C 4646   7.600   0.975  10.736  0.9133  0.9151 -0.1028
   36MOL0     C 4647   7.513   1.058  10.801 -1.1748 -0.5826 -0.6910
   36MOL0     C 4648   7.381   1.071  10.762 -0.2655 -0.2512 -0.7493
   36MOL0     C 4649   7.299   1.172  10.829  0.2293  0.3444 -0.1828
   36MOL0     O 4650   7.367   1.255  10.917 -0.6224  0.3005  0.7582
   36MOL0     C 4651   7.306   1.338  10.997 -0.7223 -0.6117  0.2333
   36MOL0     C 4652   7.349   1.335  11.133  0.9382  0.5019 -0.2666
   36MOL0     C 4653   7.286   1.421  11.222  0.4804  0.3273  0.0706
   36MOL0     C 4654   7.182   1.500  11.186  0.4132  0.5362 -0.5129
   36MOL0     O 4655   7.141   1.591  11.275 -0.1740 -0.3833 -0.0812
   36MOL0     C 4656   7.002   1.634  11.267 -0.8883 -0.0224 -0.2776
   36MOL0     C 4657   6.972   1.724  11.387 -0.3714  0.1179 -0.1950
   36MOL0     C 4658   6.828   1.775  11.385  0.3191  0.0880 -0.2910
   36MOL0     C 4659   6.785   1.844  11.520 -0.0959  0.0232 -0.3341
   36MOL0     C 4660   6.644   1.899  11.515  0.1125  1.0294  0.1201
   36MOL0     C 4661   6.600   1.957  11.655 -1.3316  0.2082 -0.0073
   36MOL0     C 4662   6.461   2.020  11.642 -0.2854 -0.0248 -0.0682
   36MOL0     C 4663   6.448   2.126  11.753  0.6319 -0.0805 -0.1160
   36MOL0    Cl 4664   6.424   2.040  11.910  0.5436 -0.1179 -0.4469
   36MOL0     C 4665   7.147   1.506  11.049  0.1789 -0.0239  0.2302
   36MOL0     C 4666   7.206   1.426  10.954  0.6634 -0.6562  0.2796
   36MOL0     O 4667   7.183   1.181  10.803 -0.1777  0.5049 -0.2508
   36MOL0     C 4668   7.333   0.994  10.659 -0.2872  0.8774  0.3605
   36MOL0     C 4669   7.416   0.904  10.587 -0.6255  0.1812  0.1015
   36MOL0     N 4670   7.874   0.666  11.059  0.1211  0.4860  0.5969
   36MOL0     N 4671   7.802   0.657  11.162 -0.4884  0.1111  0.7311
   36MOL0     C 4672   6.610   1.210  11.185 -0.2337  0.1381 -0.5497
   36MOL0     C 4673   6.506   1.296  11.179 -0.1591 -0.6517 -0.3262
   36MOL0     C 4674   6.297   1.705  11.247 -0.4492  0.1481 -0.2095
   36MOL0     C 4675   6.179   1.660  11.179  0.5441 -0.7664 -0.5903
   36MOL0     C 4676   6.059   1.725  11.195 -0.9319 -0.0610 -0.0468
   36MOL0     C 4677   6.052   1.852  11.270 -0.0293  0.6693  0.6940
   36MOL0     O 4678   5.938   1.920  11.273 -0.1872 -0.6850 -0.0796
   36MOL0     C 4679   5.808   1.866  11.278 -0.0005  0.1379  0.6701
   36MOL0     C 4680   5.733   1.924  11.401 -0.1589  0.8000  0.8940
   36MOL0     C 4681   5.716   2.072  11.368  0.2942  0.6269 -0.5760
   36MOL0     C 4682   5.660   2.137  11.491  1.0209 -0.5569  1.0086
   36MOL0     C 4683   5.757   2.136  11.596 -0.3740  0.1953 -0.1623
   36MOL0     C 4684   5.842   2.141  11.681 -0.1523  0.0346 -0.4904
   36MOL0     C 4685   6.171   1.905  11.319 -0.0654  0.0444 -0.3488
   36MOL0     C 4686   6.293   1.826  11.315  0.4101  0.4916 -0.3923
   36MOL0     H 4687   6.702   1.572  11.114 -0.5521  0.7224  3.0056
   36MOL0     H 4688   6.872   1.395  11.082  0.8804  0.3005  0.7286
   36MOL0     H 4689   7.002   1.217  11.251 -1.7465 -1.5529  0.8492
   36MOL0     H 4690   7.016   1.210  11.067 -2.5267 -0.7526 -1.9872
   36MOL0     H 4691   6.988   0.964  11.101 -0.1888  0.6026 -1.1437
   36MOL0     H 4692   7.030   0.982  11.274  1.1309  1.0716  0.4015
   36MOL0     H 4693   7.248   1.095  11.215 -0.5705 -0.8554 -0.2158
   36MOL0     H 4694   7.198   1.061  11.036  4.1851 -1.4770 -1.2825
   36MOL0     H 4695   7.250   0.845  11.245  1.7613  1.4519  0.1231
   36MOL0     H 4696   7.177   0.846  11.082 -1.3925 -0.5668  1.6977
   36MOL0     H 4697   7.441   0.998  11.114  0.0481  0.0799 -0.3442
   36MOL0     H 4698   7.402   0.875  10.989  2.4198 -1.1688  0.4155
   36MOL0     H 4699   7.502   0.831  11.266  1.4677 -1.8571 -0.0749
   36MOL0     H 4700   7.578   0.802  11.114 -0.0194 -1.1930  0.1225
   36MOL0     H 4701   7.359   0.616  11.204  0.0536 -3.2296 -2.3255
   36MOL0     H 4702   7.438   0.620  11.054 -0.4050  4.5858 -1.2386
   36MOL0     H 4703   7.547   0.460  11.216 -0.2312 -0.5977  0.4244
   36MOL0     H 4704   7.600   0.590  11.322 -1.2862 -0.5413 -0.8795
   36MOL0     H 4705   7.650   0.420  10.993  1.1833 -0.1208  0.6213
   36MOL0     H 4706   7.841   0.434  10.797  1.4220 -0.0487 -2.2477
   36MOL0     H 4707   8.001   0.483  10.860  0.0702  2.7130 -1.2028
   36MOL0     H 4708   7.951   0.577  10.668  1.0449  0.2219 -0.0491
   36MOL0     H 4709   7.959   0.711  10.781 -0.0335  0.1268 -0.8575
   36MOL0     H 4710   7.707   0.589  10.655  0.7451  0.2678 -0.3613
   36MOL0     H 4711   7.700   0.703  10.788 -1.8483  1.3195 -2.1132
   36MOL0     H 4712   7.843   0.756  10.519 -0.9137  1.5730 -0.6580
   36MOL0     H 4713   7.821   0.867  10.634  0.1664 -0.2596 -0.3712
   36MOL0     H 4714   7.699   0.973  10.781  1.0100  0.0859 -0.3367
   36MOL0     H 4715   7.548   1.113  10.888 -3.3989 -2.0876  1.2687
   36MOL0     H 4716   7.424   1.263  11.162 -0.3712 -1.5011 -1.6154
   36MOL0     H 4717   7.324   1.415  11.323 -1.7056  0.7438  0.9825
   36MOL0     H 4718   6.923   1.558  11.276 -2.7494  1.6398 -1.6986
   36MOL0     H 4719   6.981   1.696  11.180  3.1397 -0.3468 -1.6887
   36MOL0     H 4720   7.047   1.803  11.384 -0.6128  0.3157 -1.6373
   36MOL0     H 4721   6.980   1.668  11.481  2.5587  2.2760  0.9935
   36MOL0     H 4722   6.763   1.689  11.370  0.2564 -0.6115  3.1408
   36MOL0     H 4723   6.818   1.845  11.302 -2.0739  0.7693  0.4801
   36MOL0     H 4724   6.787   1.769  11.600  2.4161  0.9272  0.5648
   36MOL0     H 4725   6.856   1.923  11.546  1.7960 -1.1741 -1.5614
   36MOL0     H 4726   6.579   1.816  11.486  1.2092 -0.1526  0.9028
   36MOL0     H 4727   6.631   1.975  11.438 -2.9794 -0.4992 -1.0317
   36MOL0     H 4728   6.664   2.041  11.684 -2.4423  0.7501  0.9645
   36MOL0     H 4729   6.592   1.881  11.734 -3.4980 -1.4806 -1.7251
   36MOL0     H 4730   6.459   2.076  11.548 -3.1294 -0.4145 -0.3242
   36MOL0     H 4731   6.382   1.945  11.637  1.1403 -1.8215  2.0258
   36MOL0     H 4732   6.368   2.199  11.737 -0.5270 -1.1777  0.4208
   36MOL0     H 4733   6.541   2.182  11.768  0.8301  0.0222 -1.6157
   36MOL0     H 4734   7.074   1.574  11.007 -0.0599 -0.5281 -0.1781
   36MOL0     H 4735   7.183   1.440  10.848 -2.2592  0.7613  0.9817
   36MOL0     H 4736   7.230   1.015  10.635  0.3268  4.4077  0.2962
   36MOL0     H 4737   7.375   0.856  10.499 -0.9314 -1.6464  1.1838
   36MOL0     H 4738   6.584   1.113  11.227 -1.0622 -0.1140 -1.5886
   36MOL0     H 4739   6.404   1.277  11.211  0.4099  1.5079  3.3393
   36MOL0     H 4740   6.193   1.566  11.128  0.8875 -1.6123  0.9832
   36MOL0     H 4741   5.975   1.676  11.148 -0.9809  0.5190 -0.5848
   36MOL0     H 4742   5.824   1.761  11.306  1.4496  0.2531  0.3632
   36MOL0     H 4743   5.755   1.861  11.182 -2.9256 -3.2035  2.2220
   36MOL0     H 4744   5.635   1.875  11.406 -0.0365  0.2885 -0.9743
   36MOL0     H 4745   5.785   1.892  11.492 -1.0403  0.5599  1.3299
   36MOL0     H 4746   5.648   2.075  11.283 -0.0400 -0.4131 -0.3655
   36MOL0     H 4747   5.809   2.122  11.340  0.3996  1.2710  0.8236
   36MOL0     H 4748   5.632   2.239  11.462  1.5693 -1.7822 -5.1641
   36MOL0     H 4749   5.576   2.082  11.535  1.5744 -0.2285  2.5540
   36MOL0     H 4750   5.917   2.136  11.757 -0.9663  1.5687  0.4729
   36MOL0     H 4751   6.175   2.004  11.363  2.6407 -1.1627  2.4972
   36MOL0     H 4752   6.380   1.879  11.353 -0.1037  2.9565 -2.3298
   37MOL0     O 4753   9.553   7.770   5.002  0.1299  0.1322  0.3014
   37MOL0     C 4754   9.485   7.683   4.959  0.5715  0.0581  0.1418
   37MOL0     O 4755   9.515   7.605   4.851  0.1418 -1.0805  0.0160
   37MOL0     C 4756   9.628   7.619   4.778  0.7828 -0.7544  0.0470
   37MOL0     C 4757   9.690   7.746   4.745  0.2550  0.5857 -0.3833
   37MOL0     C 4758   9.799   7.745   4.665 -0.4497 -0.2790  0.1014
   37MOL0     C 4759   9.850   7.622   4.621 -0.7949 -0.3214  0.4690
   37MOL0     O 4760   9.959   7.611   4.538 -0.9858 -0.1362  0.7926
   37MOL0     C 4761  10.036   7.721   4.507  0.5467 -0.2783  0.2770
   37MOL0     C 4762  10.133   7.684   4.402  0.7976  0.0498 -0.1815
   37MOL0     C 4763  10.069   7.713   4.263  0.1340 -0.2728 -0.3068
   37MOL0     C 4764  10.182   7.721   4.153 -0.1503  0.1655  0.0532
   37MOL0     C 4765  10.262   7.851   4.165  0.6300  0.1208  0.4100
   37MOL0     C 4766  10.364   7.858   4.060  0.0324  0.3041  0.2797
   37MOL0     C 4767  10.389   8.006   4.037  0.9971 -0.7767 -0.1680
   37MOL0     C 4768  10.477   8.052   3.924  0.1620  0.3733 -0.3994
   37MOL0     N 4769  10.606   7.998   3.961  0.0251  0.1668  0.2424
   37MOL0     C 4770  10.660   7.897   3.890  0.0325  0.7889  0.7322
   37MOL0     C 4771  10.790   7.897   3.922 -0.5741  0.8592 -0.7535
   37MOL0     C 4772  10.894   7.825   3.851 -0.3302  0.3859  0.1752
   37MOL0     C 4773  10.990   7.928   3.772 -0.2981 -0.0732 -0.7987
   37MOL0     C 4774  11.066   7.859   3.660 -0.0500 -0.7060  0.5502
   37MOL0     C 4775  11.195   7.772   3.709  0.8693  0.4337  0.0050
   37MOL0     O 4776  11.293   7.763   3.602 -0.3814  0.1529  0.0065
   37MOL0     C 4777  11.425   7.740   3.644 -0.3570 -0.0939  0.2402
   37MOL0     C 4778  11.518   7.701   3.551 -0.3028 -0.0645  0.6211
   37MOL0     C 4779  11.653   7.675   3.576 -0.4988 -0.0619 -0.5566
   37MOL0     C 4780  11.696   7.671   3.713 -0.1061  0.5668  0.1531
   37MOL0     C 4781  11.836   7.657   3.740 -0.0422  0.3711  0.9437
   37MOL0     O 4782  11.871   7.590   3.858 -0.3758 -0.4953 -0.4029
   37MOL0     C 4783  12.004   7.564   3.881 -0.3232  0.1508  0.3061
   37MOL0     C 4784  12.051   7.436   3.851 -0.8071 -0.3490 -0.5218
   37MOL0     C 4785  12.179   7.391   3.892  0.0460 -0.6561  0.4988
   37MOL0     C 4786  12.270   7.482   3.962  0.8792 -0.3174 -0.4582
   37MOL0     O 4787  12.401   7.458   4.009 -0.0229 -0.4271 -0.2725
   37MOL0     C 4788  12.407   7.335   4.077 -0.0788  0.4945 -0.4616
   37MOL0     C 4789  12.542   7.321   4.159  1.2036  0.5451  0.4487
   37MOL0     C 4790  12.548   7.418   4.275 -0.6669  0.3687  0.5528
   37MOL0     C 4791  12.687   7.424   4.339 -0.2711 -0.9302 -0.7310
   37MOL0     C 4792  12.765   7.533   4.265  0.3250  0.2062 -0.0599
   37MOL0     C 4793  12.908   7.550   4.298 -0.5110 -0.0237 -0.1747
   37MOL0     C 4794  12.952   7.698   4.308 -0.8527  0.0181 -1.3561
   37MOL0     C 4795  13.095   7.701   4.341 -0.4258  0.6457 -0.1805
   37MOL0    Cl 4796  13.098   7.680   4.527 -0.1747 -0.1790  0.0509
   37MOL0     C 4797  12.217   7.608   3.999 -0.1654 -0.1193  0.0515
   37MOL0     C 4798  12.084   7.642   3.966  0.0469  0.1459  0.3907
   37MOL0     O 4799  11.918   7.698   3.651  0.0193  0.3066 -1.1675
   37MOL0     C 4800  11.607   7.701   3.816 -0.7750 -0.2470  0.9366
   37MOL0     C 4801  11.471   7.728   3.780 -0.0257  0.1370  0.0235
   37MOL0     N 4802  10.807   7.996   4.019  0.4543 -0.0723  0.6700
   37MOL0     N 4803  10.689   8.058   4.046 -0.4652  0.7683  0.2406
   37MOL0     C 4804   9.808   7.497   4.676 -0.5985  0.0992  0.4895
   37MOL0     C 4805   9.697   7.496   4.759  0.2914  0.1987 -0.1613
   37MOL0     C 4806   9.355   7.652   5.021 -0.2970  0.7659 -0.0695
   37MOL0     C 4807   9.311   7.725   5.130  0.1086  0.5545  0.1846
   37MOL0     C 4808   9.181   7.706   5.177 -0.3762 -0.3869 -0.1941
   37MOL0     C 4809   9.087   7.619   5.125 -0.6165  0.5087 -0.1238
   37MOL0     O 4810   8.960   7.600   5.175  0.1069  0.2699 -1.0451
   37MOL0     C 4811   8.895   7.486   5.146  0.3824  0.3829  0.2225
   37MOL0     C 4812   8.755   7.480   5.220  0.4356 -0.1577 -0.2568
   37MOL0     C 4813   8.661   7.367   5.162 -0.5448 -0.5500 -0.0815
   37MOL0     C 4814   8.519   7.384   5.191  0.1829 -0.1787  0.0009
   37MOL0     C 4815   8.439   7.290   5.123 -0.4945  0.4865  1.0563
   37MOL0     C 4816   8.385   7.199   5.071  0.9816  0.3388  0.7408
   37MOL0     C 4817   9.143   7.539   5.015  0.1383  0.2500 -0.3102
   37MOL0     C 4818   9.270   7.551   4.970  0.0388 -0.7708  0.1647
   37MOL0     H 4819   9.638   7.841   4.754 -0.9126 -0.0589 -0.1736
   37MOL0     H 4820   9.850   7.840   4.650 -0.9326  0.5063  2.8759
   37MOL0     H 4821  10.098   7.751   4.592 -1.2306  0.9909  1.1793
   37MOL0     H 4822   9.973   7.804   4.475 -0.1307 -0.9038 -0.0299
   37MOL0     H 4823  10.164   7.580   4.393  0.4965  0.0534 -1.5907
   37MOL0     H 4824  10.220   7.748   4.418 -0.1331  1.5635 -0.8790
   37MOL0     H 4825  10.017   7.810   4.270  1.0627  0.3816 -2.0302
   37MOL0     H 4826  10.000   7.641   4.219  0.9327  0.0794 -2.2386
   37MOL0     H 4827  10.246   7.634   4.168  1.8594  1.2582 -1.6622
   37MOL0     H 4828  10.135   7.711   4.055 -0.3686 -0.0535  0.1775
   37MOL0     H 4829  10.316   7.862   4.259  1.9816  2.3136 -0.5352
   37MOL0     H 4830  10.197   7.940   4.164 -3.7575 -2.7415  1.5535
   37MOL0     H 4831  10.326   7.810   3.970  0.3628  2.9936 -1.4014
   37MOL0     H 4832  10.453   7.810   4.101  0.4933  2.2986  1.7170
   37MOL0     H 4833  10.298   8.059   4.010  0.7188 -2.5020 -3.0495
   37MOL0     H 4834  10.416   8.046   4.135 -0.0157  0.1768 -0.2700
   37MOL0     H 4835  10.489   8.161   3.919 -2.4447  0.6852 -1.6651
   37MOL0     H 4836  10.440   8.019   3.826 -1.1143  1.7718 -0.4352
   37MOL0     H 4837  10.606   7.833   3.820  1.3942 -1.6654  1.8184
   37MOL0     H 4838  10.844   7.747   3.792 -0.0112 -0.1587  0.6161
   37MOL0     H 4839  10.955   7.762   3.917 -0.7756 -2.6996 -2.1029
   37MOL0     H 4840  11.046   7.983   3.848 -0.2146  1.2752 -1.8061
   37MOL0     H 4841  10.927   8.001   3.721 -1.9074  0.3091  1.5992
   37MOL0     H 4842  10.992   7.783   3.629 -3.4575  0.5477  4.6636
   37MOL0     H 4843  11.104   7.932   3.588  0.6335 -1.2768  0.3170
   37MOL0     H 4844  11.166   7.669   3.731  0.7398  0.9526  2.5630
   37MOL0     H 4845  11.230   7.817   3.802 -1.7999  0.4397  1.0999
   37MOL0     H 4846  11.482   7.704   3.448 -2.0811 -0.4062  1.2096
   37MOL0     H 4847  11.726   7.662   3.496  1.0555  2.1796  0.3924
   37MOL0     H 4848  11.992   7.365   3.793  1.3031 -1.9088 -0.8735
   37MOL0     H 4849  12.220   7.298   3.855  0.8958 -0.2435  0.3798
   37MOL0     H 4850  12.405   7.248   4.010 -1.1153  1.4967 -1.8011
   37MOL0     H 4851  12.326   7.334   4.150 -1.2510  2.3255 -1.6585
   37MOL0     H 4852  12.631   7.339   4.097 -0.0795  4.3205 -0.5502
   37MOL0     H 4853  12.549   7.221   4.202  4.9882  0.8617  0.9345
   37MOL0     H 4854  12.473   7.379   4.345 -1.5564 -1.3311 -1.2559
   37MOL0     H 4855  12.517   7.519   4.247  3.7182  1.4259 -1.3632
   37MOL0     H 4856  12.683   7.444   4.447 -0.7185  1.9379 -1.2036
   37MOL0     H 4857  12.739   7.329   4.325 -0.5883 -0.8913 -2.3160
   37MOL0     H 4858  12.713   7.626   4.291  0.5163  0.1780  0.4341
   37MOL0     H 4859  12.747   7.507   4.161 -3.6905 -0.3710  0.6128
   37MOL0     H 4860  12.970   7.504   4.220  0.5072 -1.0735  1.1972
   37MOL0     H 4861  12.930   7.500   4.393  0.4887 -0.4027 -0.5921
   37MOL0     H 4862  12.934   7.747   4.211  0.0107  0.9651 -1.0577
   37MOL0     H 4863  12.896   7.766   4.372  1.4669  1.8824 -1.1635
   37MOL0     H 4864  13.153   7.784   4.300  2.2423  0.1914  2.3229
   37MOL0     H 4865  13.142   7.614   4.294  1.1154  0.6982  1.1693
   37MOL0     H 4866  12.270   7.683   4.057  1.1610 -0.0045 -1.2795
   37MOL0     H 4867  12.054   7.740   4.002  0.7008 -0.5082  2.8736
   37MOL0     H 4868  11.643   7.700   3.919 -1.2880 -2.9835  1.1687
   37MOL0     H 4869  11.416   7.781   3.857  0.2730  0.1574  0.2263
   37MOL0     H 4870   9.863   7.410   4.641 -1.1392 -0.6470  1.4337
   37MOL0     H 4871   9.658   7.405   4.801 -0.4786  0.3953 -0.4372
   37MOL0     H 4872   9.363   7.802   5.187 -3.6079  0.7683  3.7982
   37MOL0     H 4873   9.142   7.765   5.260  3.4280 -0.1708  1.6468
   37MOL0     H 4874   8.956   7.406   5.189 -1.2851  0.7235  3.5044
   37MOL0     H 4875   8.884   7.462   5.040  2.1765 -2.5576  0.6037
   37MOL0     H 4876   8.757   7.478   5.330 -1.5909  0.8442 -0.1519
   37MOL0     H 4877   8.711   7.578   5.201  0.6884 -0.3313 -1.8839
   37MOL0     H 4878   8.685   7.268   5.201  1.2001  0.6677  2.1346
   37MOL0     H 4879   8.674   7.367   5.053  1.0818 -0.7996  0.0873
   37MOL0     H 4880   8.513   7.380   5.300 -1.4001 -0.5736 -0.0809
   37MOL0     H 4881   8.487   7.483   5.159 -4.3086 -0.4861  2.6840
   37MOL0     H 4882   8.346   7.121   5.009  3.3252 -0.9463  0.8019
   37MOL0     H 4883   9.084   7.463   4.966 -0.3562  1.6566 -1.9891
   37MOL0     H 4884   9.308   7.484   4.893  1.3784  0.0844  0.0379
   38MOL0     O 4885  10.992   5.649   7.895 -0.6148 -0.4198 -0.7049
   38MOL0     C 4886  10.980   5.745   7.970 -0.3052  0.5024  0.9041
   38MOL0     O 4887  11.048   5.758   8.085  0.3302 -0.3612 -0.0510
   38MOL0     C 4888  11.138   5.669   8.124  0.3240 -0.3738  0.6649
   38MOL0     C 4889  11.148   5.629   8.254  0.2895 -0.2139 -0.4522
   38MOL0     C 4890  11.238   5.535   8.291  1.1764  0.2137  0.8376
   38MOL0     C 4891  11.328   5.479   8.208 -0.1222  0.5399 -0.0303
   38MOL0     O 4892  11.417   5.387   8.271 -0.0195 -0.3239 -0.6878
   38MOL0     C 4893  11.451   5.287   8.177 -0.0899  0.1861  0.1214
   38MOL0     C 4894  11.467   5.147   8.236  0.8255  0.2945 -0.1336
   38MOL0     C 4895  11.515   5.038   8.145 -0.1995  0.3647  0.4896
   38MOL0     C 4896  11.485   4.903   8.203  0.4056 -0.0829  0.7248
   38MOL0     C 4897  11.557   4.793   8.119 -0.3077  0.1933  0.3367
   38MOL0     C 4898  11.705   4.790   8.157  0.3020 -0.1518  0.0302
   38MOL0     C 4899  11.775   4.658   8.174 -0.3232  0.2076  0.4775
   38MOL0     C 4900  11.765   4.556   8.057 -0.5007 -0.4572 -0.5224
   38MOL0     N 4901  11.647   4.470   8.062  0.3544 -0.2985 -0.6634
   38MOL0     C 4902  11.547   4.452   7.969  0.2991 -0.1689 -0.0476
   38MOL0     C 4903  11.452   4.372   8.028 -0.2761 -0.3218  0.3613
   38MOL0     C 4904  11.334   4.304   7.970  0.8209 -0.4173 -0.9105
   38MOL0     C 4905  11.360   4.226   7.835 -0.7402  0.4951 -0.2809
   38MOL0     C 4906  11.426   4.083   7.855 -0.1802  1.1482 -1.0771
   38MOL0     C 4907  11.578   4.105   7.894  0.9602 -0.3787  0.4952
   38MOL0     O 4908  11.642   4.189   7.796 -0.2396 -0.2004  0.3943
   38MOL0     C 4909  11.778   4.216   7.809 -0.4590 -0.6575 -0.5045
   38MOL0     C 4910  11.828   4.327   7.738 -0.1587 -1.4695 -0.1517
   38MOL0     C 4911  11.969   4.363   7.748  0.9307  0.3382  0.0038
   38MOL0     C 4912  12.050   4.288   7.837  0.8870 -0.2894  0.3386
   38MOL0     C 4913  12.191   4.324   7.858 -0.7616  0.3893 -0.2139
   38MOL0     O 4914  12.232   4.427   7.781  0.4699  0.0984  0.3314
   38MOL0     C 4915  12.366   4.462   7.787  0.1765 -0.4304 -0.8208
   38MOL0     C 4916  12.470   4.373   7.763  0.1349  0.3935  0.6779
   38MOL0     C 4917  12.600   4.413   7.795  0.2032  0.5462  0.3684
   38MOL0     C 4918  12.627   4.535   7.855  0.1442  0.6500 -0.3711
   38MOL0     O 4919  12.743   4.563   7.922  0.2028 -0.1079  0.6957
   38MOL0     C 4920  12.864   4.480   7.894  0.0386 -0.4899 -0.4088
   38MOL0     C 4921  12.992   4.559   7.919  0.2437 -0.3060  0.1512
   38MOL0     C 4922  13.106   4.484   7.847 -0.3550 -0.6162 -0.3071
   38MOL0     C 4923  13.213   4.585   7.802 -0.8945 -0.6846  0.7519
   38MOL0     C 4924  13.302   4.646   7.903 -0.7921  0.2425 -0.1750
   38MOL0     C 4925  13.421   4.726   7.845 -0.4298 -0.2655  0.3335
   38MOL0     C 4926  13.526   4.778   7.942  0.0754  0.3350 -0.1203
   38MOL0     C 4927  13.659   4.834   7.883  0.4313 -0.5520 -0.4377
   38MOL0    Cl 4928  13.783   4.835   8.008 -0.0044  0.1302  0.4986
   38MOL0     C 4929  12.521   4.628   7.877 -0.3332  0.5421 -0.1192
   38MOL0     C 4930  12.388   4.598   7.826 -0.5519 -0.1727  0.8106
   38MOL0     O 4931  12.263   4.265   7.942 -0.2197 -0.5642 -0.0134
   38MOL0     C 4932  11.992   4.176   7.907  0.1086 -0.1809  0.8394
   38MOL0     C 4933  11.866   4.140   7.889  0.6966  0.0975  0.4924
   38MOL0     N 4934  11.494   4.343   8.157  0.0518  0.1322 -0.3640
   38MOL0     N 4935  11.616   4.388   8.165 -0.5258  0.1678  0.5006
   38MOL0     C 4936  11.332   5.533   8.076  0.4969 -0.3301 -0.6227
   38MOL0     C 4937  11.245   5.630   8.034  0.4144  0.1122 -0.6511
   38MOL0     C 4938  10.871   5.845   7.939  0.0930  0.5937 -0.5441
   38MOL0     C 4939  10.807   5.830   7.814 -0.6370  0.1625  0.1828
   38MOL0     C 4940  10.719   5.925   7.778 -0.5103 -0.5998  0.0982
   38MOL0     C 4941  10.686   6.035   7.866 -0.2046  0.2672 -0.0695
   38MOL0     O 4942  10.628   6.146   7.810  0.1518 -0.5726 -0.0883
   38MOL0     C 4943  10.487   6.138   7.773  0.4860 -0.0226 -0.0444
   38MOL0     C 4944  10.430   6.263   7.710 -0.0464 -0.3385  0.7338
   38MOL0     C 4945  10.490   6.283   7.576  0.3023  0.0364 -1.0372
   38MOL0     C 4946  10.456   6.425   7.528 -0.4507 -0.4232 -0.0670
   38MOL0     C 4947  10.313   6.452   7.514 -0.0601  0.8414 -0.4169
   38MOL0     C 4948  10.195   6.487   7.492  0.0352  0.9810 -0.9888
   38MOL0     C 4949  10.749   6.049   7.987 -0.1710  0.3568 -0.7170
   38MOL0     C 4950  10.846   5.959   8.022 -0.0578 -0.2413  0.8773
   38MOL0     H 4951  11.080   5.667   8.329  1.5498  0.0712  0.5923
   38MOL0     H 4952  11.234   5.494   8.392  0.0405  1.6422  1.4125
   38MOL0     H 4953  11.551   5.316   8.143 -0.9406  0.7758 -2.0572
   38MOL0     H 4954  11.392   5.280   8.085 -0.2951  2.5434  0.0241
   38MOL0     H 4955  11.370   5.115   8.274  0.4203 -1.4712 -2.4293
   38MOL0     H 4956  11.534   5.174   8.318  0.3947 -0.4812  0.4836
   38MOL0     H 4957  11.621   5.048   8.120 -0.9086  0.7694 -2.7278
   38MOL0     H 4958  11.454   5.041   8.055  0.4305  2.3569  0.0797
   38MOL0     H 4959  11.500   4.893   8.311 -3.4593  0.1702  1.4090
   38MOL0     H 4960  11.377   4.886   8.203  0.4562 -0.4417  0.0533
   38MOL0     H 4961  11.548   4.808   8.011  1.0058  0.4598  0.2410
   38MOL0     H 4962  11.519   4.693   8.142  0.1090  0.2733  1.4474
   38MOL0     H 4963  11.713   4.837   8.256 -1.8979  1.0040 -0.2889
   38MOL0     H 4964  11.751   4.857   8.084 -0.9449  1.0104  0.2765
   38MOL0     H 4965  11.878   4.673   8.208  0.8685 -3.4852 -0.9819
   38MOL0     H 4966  11.721   4.607   8.255 -1.0780 -1.1756 -0.8321
   38MOL0     H 4967  11.852   4.490   8.052  1.8551  2.1539  1.8652
   38MOL0     H 4968  11.751   4.624   7.973  2.5632 -1.0272 -1.6271
   38MOL0     H 4969  11.545   4.490   7.867  0.4127  0.5908  0.2262
   38MOL0     H 4970  11.254   4.378   7.956 -0.2566 -1.5365 -0.8382
   38MOL0     H 4971  11.291   4.234   8.043  3.6097 -0.6060  0.6774
   38MOL0     H 4972  11.429   4.286   7.776 -0.2192 -1.4883 -1.7929
   38MOL0     H 4973  11.261   4.209   7.791 -0.4074  0.0897 -0.8805
   38MOL0     H 4974  11.371   4.036   7.938 -1.1180  0.2294 -2.1705
   38MOL0     H 4975  11.424   4.022   7.764  3.9659 -0.4850 -0.2609
   38MOL0     H 4976  11.638   4.014   7.905 -1.7844 -1.9782  5.1930
   38MOL0     H 4977  11.590   4.150   7.992  0.4193 -2.3364  1.5116
   38MOL0     H 4978  11.764   4.389   7.675  0.7392  1.7600  1.8669
   38MOL0     H 4979  11.994   4.454   7.695 -0.8120 -0.1557 -1.7968
   38MOL0     H 4980  12.460   4.271   7.730  0.6158  0.3538  0.6446
   38MOL0     H 4981  12.680   4.341   7.788 -0.9874 -0.6632 -1.6124
   38MOL0     H 4982  12.858   4.452   7.788  1.8543 -0.1464 -0.6488
   38MOL0     H 4983  12.853   4.397   7.964 -3.2843  0.3506  0.2235
   38MOL0     H 4984  13.016   4.577   8.024 -2.2897 -0.8060  0.8752
   38MOL0     H 4985  12.973   4.661   7.885  0.1394  0.1968  1.6329
   38MOL0     H 4986  13.073   4.415   7.769 -2.5060 -1.5220  1.2879
   38MOL0     H 4987  13.144   4.419   7.926 -0.0793  3.2666  3.1594
   38MOL0     H 4988  13.284   4.540   7.733 -0.1605  1.8961 -0.2722
   38MOL0     H 4989  13.166   4.668   7.748  0.9297 -1.0980 -1.6357
   38MOL0     H 4990  13.349   4.560   7.951  0.5859 -0.1941 -2.1759
   38MOL0     H 4991  13.246   4.706   7.976  0.7835  0.5164  0.8566
   38MOL0     H 4992  13.385   4.812   7.787  0.3090  2.6393  3.8015
   38MOL0     H 4993  13.477   4.667   7.772 -1.9543 -1.6019  0.1950
   38MOL0     H 4994  13.473   4.851   8.004 -0.8495  0.9392 -1.5821
   38MOL0     H 4995  13.565   4.694   8.000  2.1275  0.9826 -0.4576
   38MOL0     H 4996  13.642   4.940   7.863  0.8676  0.3133  3.0885
   38MOL0     H 4997  13.688   4.781   7.792 -0.0672 -0.7819 -0.4651
   38MOL0     H 4998  12.533   4.722   7.929  0.8968  1.1550 -1.4438
   38MOL0     H 4999  12.299   4.659   7.841  1.4416  3.3231 -0.3458
   38MOL0     H 5000  12.056   4.116   7.972  3.3266  0.9238 -1.0621
   38MOL0     H 5001  11.844   4.053   7.950  1.5512 -1.2196 -0.9931
   38MOL0     H 5002  11.405   5.506   8.000  1.3331 -1.1662  0.4586
   38MOL0     H 5003  11.238   5.670   7.933 -5.1684 -1.5657 -1.2942
   38MOL0     H 5004  10.831   5.746   7.749 -0.4531  0.2091  0.1898
   38MOL0     H 5005  10.666   5.920   7.684 -0.4917 -0.4046  0.0755
   38MOL0     H 5006  10.425   6.117   7.861  1.3469 -1.0384  0.3355
   38MOL0     H 5007  10.475   6.054   7.704 -0.1360  2.6164 -3.3846
   38MOL0     H 5008  10.323   6.246   7.697  0.5170 -2.4231 -2.0924
   38MOL0     H 5009  10.448   6.353   7.769 -1.5902  1.5831 -1.5370
   38MOL0     H 5010  10.451   6.217   7.498  3.2161  1.3110 -3.7978
   38MOL0     H 5011  10.598   6.285   7.591  0.2748  1.4599 -0.9733
   38MOL0     H 5012  10.498   6.488   7.607  3.9518 -2.8079 -0.1245
   38MOL0     H 5013  10.517   6.439   7.438 -0.2252 -1.8233 -0.1627
   38MOL0     H 5014  10.100   6.524   7.460 -0.9891 -2.5108 -2.4652
   38MOL0     H 5015  10.735   6.137   8.049  3.8694  0.7667 -0.1192
   38MOL0     H 5016  10.913   5.967   8.108  0.2283 -0.6886  0.6991
   39MOL0     O 5017   5.772   8.215   7.268  0.0961  0.0390  0.5364
   39MOL0     C 5018   5.696   8.298   7.219  0.6851 -1.7180  0.3111
   39MOL0     O 5019   5.729   8.425   7.174 -0.0653 -0.1610  0.0650
   39MOL0     C 5020   5.861   8.459   7.156  0.0542  0.0046 -0.4288
   39MOL0     C 5021   5.937   8.509   7.257  0.3930 -0.0914 -0.2913
   39MOL0     C 5022   6.071   8.535   7.245  0.4805 -0.3747  0.3651
   39MOL0     C 5023   6.143   8.509   7.128 -0.6455  0.7531  0.1811
   39MOL0     O 5024   6.275   8.548   7.097  0.1146 -0.6608 -0.4181
   39MOL0     C 5025   6.322   8.676   7.126 -0.4603  0.5124 -0.2927
   39MOL0     C 5026   6.456   8.704   7.074 -0.0789  0.3913  0.1787
   39MOL0     C 5027   6.505   8.837   7.117 -0.3576 -0.9085  0.2684
   39MOL0     C 5028   6.648   8.871   7.074 -0.3449  0.0346  0.6564
   39MOL0     C 5029   6.709   8.991   7.150  0.3600  1.2274 -0.3713
   39MOL0     C 5030   6.732   8.963   7.291 -0.2056  0.3568 -0.1579
   39MOL0     C 5031   6.828   8.844   7.314 -1.4212 -0.5806  0.0088
   39MOL0     C 5032   6.869   8.846   7.456 -0.4621 -0.5593  0.7093
   39MOL0     N 5033   6.981   8.939   7.496  0.1685  0.3576  0.0975
   39MOL0     C 5034   7.107   8.932   7.446 -0.3365  0.5135  0.2338
   39MOL0     C 5035   7.192   8.975   7.546  0.6266  0.0279  0.2138
   39MOL0     C 5036   7.347   8.980   7.529  0.2325  0.4496  0.6120
   39MOL0     C 5037   7.430   8.863   7.604 -0.1007  0.1337  0.5993
   39MOL0     C 5038   7.413   8.730   7.527 -0.2603  0.1800 -0.5187
   39MOL0     C 5039   7.431   8.606   7.623  0.3399  1.0673  0.4689
   39MOL0     O 5040   7.331   8.614   7.719  0.1792  0.7240 -0.0970
   39MOL0     C 5041   7.208   8.548   7.708  0.0283 -0.3129 -0.5877
   39MOL0     C 5042   7.101   8.636   7.706  0.3027  0.3938 -1.7806
   39MOL0     C 5043   6.974   8.583   7.687  0.6188 -0.9452  0.3826
   39MOL0     C 5044   6.949   8.448   7.678 -0.8245  0.1443 -0.4824
   39MOL0     C 5045   6.814   8.408   7.655 -0.2721 -0.1281 -0.0669
   39MOL0     O 5046   6.730   8.511   7.631  0.0410  0.1157  0.1589
   39MOL0     C 5047   6.597   8.486   7.630  0.5196  0.0374 -0.6573
   39MOL0     C 5048   6.526   8.445   7.747 -0.2483  0.1174 -0.0151
   39MOL0     C 5049   6.393   8.418   7.735  0.4970  0.2740 -0.5332
   39MOL0     C 5050   6.320   8.441   7.616 -0.9074 -0.6401 -0.6821
   39MOL0     O 5051   6.189   8.415   7.586 -0.3733 -0.2622 -0.0216
   39MOL0     C 5052   6.118   8.324   7.666  0.1741 -0.9142 -0.0374
   39MOL0     C 5053   5.998   8.272   7.592  0.6510  1.2377  0.3389
   39MOL0     C 5054   5.880   8.281   7.676  0.3975  0.9543 -0.5237
   39MOL0     C 5055   5.736   8.253   7.609  0.6107  0.2764 -0.3825
   39MOL0     C 5056   5.638   8.265   7.728 -0.3953 -0.9746 -0.7180
   39MOL0     C 5057   5.507   8.191   7.676  1.0321 -0.1244  0.4511
   39MOL0     C 5058   5.374   8.238   7.749  0.2889  0.6988  0.3458
   39MOL0     C 5059   5.323   8.371   7.694  0.0475  0.0097  0.3498
   39MOL0    Cl 5060   5.147   8.373   7.705  0.4357 -0.1921  0.2277
   39MOL0     C 5061   6.392   8.494   7.508 -0.7798  0.6784 -0.6602
   39MOL0     C 5062   6.529   8.509   7.511  0.2415 -0.8869 -0.5368
   39MOL0     O 5063   6.788   8.287   7.663  1.0095 -0.0283 -0.3230
   39MOL0     C 5064   7.060   8.360   7.683 -0.0423 -0.0002  0.3755
   39MOL0     C 5065   7.187   8.412   7.689  0.8202 -0.0472 -0.1287
   39MOL0     N 5066   7.107   9.037   7.640 -0.4610  0.6214 -0.5137
   39MOL0     N 5067   6.982   9.015   7.613 -0.1811  0.6728 -0.8440
   39MOL0     C 5068   6.070   8.450   7.030  0.4625 -0.7012 -0.3943
   39MOL0     C 5069   5.931   8.435   7.040 -0.0177 -0.8600  0.0326
   39MOL0     C 5070   5.549   8.280   7.247 -0.2333 -0.4148  0.3612
   39MOL0     C 5071   5.491   8.157   7.206  0.1161 -0.3987  0.3769
   39MOL0     C 5072   5.361   8.128   7.243  0.1794  1.3521 -1.2692
   39MOL0     C 5073   5.279   8.228   7.303  0.4995 -0.7778 -0.2902
   39MOL0     O 5074   5.140   8.222   7.319  0.8750 -0.1626 -0.5805
   39MOL0     C 5075   5.076   8.093   7.333 -0.2399  0.1691 -0.0821
   39MOL0     C 5076   4.928   8.117   7.352  0.6287  0.2664  0.0731
   39MOL0     C 5077   4.907   8.213   7.468 -0.0157 -0.2343  0.2713
   39MOL0     C 5078   4.754   8.232   7.487 -0.4988 -0.1182  1.1274
   39MOL0     C 5079   4.720   8.376   7.513 -0.0095  0.7859  0.2103
   39MOL0     C 5080   4.722   8.494   7.553  0.3639  0.2697 -0.2958
   39MOL0     C 5081   5.335   8.356   7.337 -0.8732 -0.5361  0.0526
   39MOL0     C 5082   5.471   8.378   7.316 -0.4152  0.9874 -0.3649
   39MOL0     H 5083   5.889   8.507   7.354  1.5956 -1.6975  0.3113
   39MOL0     H 5084   6.127   8.568   7.332  0.0403 -1.3044  1.0087
   39MOL0     H 5085   6.337   8.683   7.234  2.0475  0.7198 -0.5873
   39MOL0     H 5086   6.244   8.745   7.092 -0.8192 -0.2353 -1.0073
   39MOL0     H 5087   6.468   8.684   6.967  3.7187 -0.4932  0.6478
   39MOL0     H 5088   6.507   8.623   7.127 -2.5561 -1.3466  0.1193
   39MOL0     H 5089   6.510   8.825   7.225  2.8454  0.8779  0.4530
   39MOL0     H 5090   6.439   8.920   7.090 -0.9901 -1.5589 -0.2470
   39MOL0     H 5091   6.718   8.787   7.075  0.7443  0.7693 -2.5010
   39MOL0     H 5092   6.639   8.898   6.968 -2.4462 -3.5433 -0.2584
   39MOL0     H 5093   6.656   9.086   7.143 -1.1236  0.6780  2.2310
   39MOL0     H 5094   6.808   9.000   7.104  0.1472 -1.7036 -1.6370
   39MOL0     H 5095   6.635   8.944   7.338  0.9100 -3.2436  0.9596
   39MOL0     H 5096   6.768   9.050   7.348  1.5669  1.2242 -2.4294
   39MOL0     H 5097   6.775   8.749   7.297 -3.1734  0.8786 -3.8357
   39MOL0     H 5098   6.918   8.843   7.252 -1.8905  1.1149 -0.7724
   39MOL0     H 5099   6.907   8.745   7.478  2.9824 -0.2574 -2.8382
   39MOL0     H 5100   6.796   8.861   7.536  0.7915  0.0699  1.7744
   39MOL0     H 5101   7.136   8.872   7.360 -1.1128  2.8058 -1.7255
   39MOL0     H 5102   7.386   9.078   7.557  2.8906 -0.0807 -0.8942
   39MOL0     H 5103   7.368   8.969   7.422 -0.1148  2.1385  0.3514
   39MOL0     H 5104   7.412   8.854   7.712 -0.9357  1.3480  0.5762
   39MOL0     H 5105   7.534   8.895   7.589 -1.2232  3.3382 -1.4788
   39MOL0     H 5106   7.310   8.746   7.496 -0.1326  1.9066 -0.1501
   39MOL0     H 5107   7.487   8.731   7.447  0.4721  1.8593  0.1271
   39MOL0     H 5108   7.528   8.590   7.671 -0.7532 -1.3023  2.0500
   39MOL0     H 5109   7.421   8.527   7.548 -1.8690  2.6039 -0.9906
   39MOL0     H 5110   7.103   8.742   7.729 -0.8620  0.9755 -4.1032
   39MOL0     H 5111   6.899   8.661   7.697  2.8608  1.1125  2.1364
   39MOL0     H 5112   6.572   8.456   7.845  0.6076 -0.4642 -0.3427
   39MOL0     H 5113   6.341   8.364   7.814 -1.2160 -0.7789 -2.2948
   39MOL0     H 5114   6.099   8.358   7.768  5.1649 -0.9095  1.1856
   39MOL0     H 5115   6.187   8.240   7.680  0.1147 -1.0989 -0.8266
   39MOL0     H 5116   6.015   8.169   7.560  0.9372  0.8794  1.6163
   39MOL0     H 5117   5.985   8.335   7.503  5.3009  2.5894  0.3514
   39MOL0     H 5118   5.877   8.380   7.721 -0.8764 -0.0169  1.7442
   39MOL0     H 5119   5.895   8.208   7.756 -1.5206  2.7671  1.6478
   39MOL0     H 5120   5.703   8.310   7.522  0.4577  2.0569  0.7868
   39MOL0     H 5121   5.749   8.147   7.588  5.1031  0.1839  1.7467
   39MOL0     H 5122   5.611   8.369   7.748  2.0106 -0.6170  1.3724
   39MOL0     H 5123   5.680   8.217   7.818 -1.8221 -0.5743  0.1897
   39MOL0     H 5124   5.517   8.083   7.690 -4.0660 -0.7244  1.4691
   39MOL0     H 5125   5.483   8.215   7.572 -3.2835 -0.0915  1.2539
   39MOL0     H 5126   5.297   8.160   7.747  2.6518 -1.8607  1.9630
   39MOL0     H 5127   5.379   8.253   7.857 -3.8459 -1.2802  1.0136
   39MOL0     H 5128   5.351   8.387   7.589  0.5017 -0.0346  0.4625
   39MOL0     H 5129   5.379   8.450   7.745 -0.3676  2.7749 -3.1027
   39MOL0     H 5130   6.337   8.522   7.418 -1.6626  1.1321  0.0094
   39MOL0     H 5131   6.572   8.542   7.417  0.3826 -0.7727 -0.4315
   39MOL0     H 5132   7.054   8.254   7.660 -0.3097 -0.0567  0.6916
   39MOL0     H 5133   7.272   8.347   7.677  0.0743 -0.5600 -3.7420
   39MOL0     H 5134   6.131   8.442   6.940  1.9267  0.0178  0.4963
   39MOL0     H 5135   5.881   8.376   6.965  1.0060 -2.1362  0.3150
   39MOL0     H 5136   5.558   8.085   7.160  0.7886 -0.3751  1.2943
   39MOL0     H 5137   5.327   8.027   7.224 -1.0040  1.2180  1.2222
   39MOL0     H 5138   5.124   8.040   7.416  0.9398 -1.1585 -1.5613
   39MOL0     H 5139   5.094   8.029   7.247  2.0676 -3.0015  2.4852
   39MOL0     H 5140   4.883   8.164   7.263 -0.7210 -2.0315 -0.5309
   39MOL0     H 5141   4.866   8.031   7.377 -0.9257  1.8720  2.0574
   39MOL0     H 5142   4.950   8.312   7.447 -0.0732 -0.6522 -2.1674
   39MOL0     H 5143   4.964   8.178   7.554 -1.7819  1.8613  2.4517
   39MOL0     H 5144   4.702   8.200   7.396 -1.9913  3.5674  0.4979
   39MOL0     H 5145   4.714   8.153   7.553 -0.5263 -2.1188 -1.1471
   39MOL0     H 5146   4.718   8.594   7.592  1.7044  0.3643 -0.3519
   39MOL0     H 5147   5.263   8.426   7.378  0.2079  0.2951  0.5933
   39MOL0     H 5148   5.520   8.465   7.360  0.5929 -1.2142  3.2343
   40MOL0     O 5149   5.700   8.493   6.723 -0.1184 -0.2891 -0.1139
   40MOL0     C 5150   5.601   8.488   6.655 -0.7250  0.0424  0.0009
   40MOL0     O 5151   5.591   8.482   6.520  0.3243 -0.0386  0.4408
   40MOL0     C 5152   5.702   8.482   6.438  0.0759 -0.0334 -1.0170
   40MOL0     C 5153   5.705   8.386   6.334 -0.0794 -0.4428 -0.9315
   40MOL0     C 5154   5.822   8.375   6.255  1.5412 -0.0042 -0.5055
   40MOL0     C 5155   5.932   8.460   6.272 -0.2470  0.9105  0.3427
   40MOL0     O 5156   6.048   8.451   6.206 -1.1039 -0.2428 -0.0029
   40MOL0     C 5157   6.034   8.450   6.059  0.9436 -0.2224 -1.2623
   40MOL0     C 5158   6.143   8.523   5.985  0.7324  0.8592 -0.2459
   40MOL0     C 5159   6.286   8.464   5.991 -0.0096  1.0534  0.4744
   40MOL0     C 5160   6.345   8.403   5.862 -0.1249 -0.3524 -0.0642
   40MOL0     C 5161   6.258   8.293   5.792  0.4704 -0.6977 -0.2050
   40MOL0     C 5162   6.254   8.163   5.866  0.4500 -0.2779  0.4739
   40MOL0     C 5163   6.179   8.064   5.773  0.4974 -0.2561 -0.7003
   40MOL0     C 5164   6.063   7.977   5.837 -0.6018 -0.4535  0.1022
   40MOL0     N 5165   5.943   8.054   5.840  0.1832  0.2108  0.1704
   40MOL0     C 5166   5.857   8.074   5.741  0.9961  0.2321  0.0702
   40MOL0     C 5167   5.749   8.139   5.805 -0.2040  0.3679 -0.8808
   40MOL0     C 5168   5.615   8.178   5.754 -1.0893 -0.9577  0.8804
   40MOL0     C 5169   5.507   8.197   5.856  0.0180  0.2922  0.1450
   40MOL0     C 5170   5.365   8.205   5.801 -0.3131  0.6217  0.3446
   40MOL0     C 5171   5.269   8.247   5.897 -0.6576 -0.3450  0.0205
   40MOL0     O 5172   5.152   8.282   5.837 -0.1036 -0.5285 -0.0955
   40MOL0     C 5173   5.033   8.278   5.910  0.3236 -0.4411  1.6946
   40MOL0     C 5174   4.921   8.269   5.826  0.8003 -0.0071  0.6215
   40MOL0     C 5175   4.793   8.281   5.876  0.1857 -0.0847  0.6780
   40MOL0     C 5176   4.766   8.281   6.006 -0.1101 -1.0688 -0.5120
   40MOL0     C 5177   4.633   8.268   6.056  0.5433  0.1149 -0.4326
   40MOL0     O 5178   4.533   8.257   5.971  1.0834  0.7856  0.3256
   40MOL0     C 5179   4.416   8.207   6.022  0.6774  0.7835 -0.8519
   40MOL0     C 5180   4.383   8.078   6.005  0.1297  0.1138 -1.0451
   40MOL0     C 5181   4.251   8.027   6.021 -0.3874 -0.1848  0.4275
   40MOL0     C 5182   4.152   8.111   6.082  0.3885  0.5719  0.0638
   40MOL0     O 5183   4.023   8.087   6.123 -0.0834  0.8074  0.6250
   40MOL0     C 5184   3.962   7.954   6.112 -0.2812 -0.2585  0.4328
   40MOL0     C 5185   4.008   7.871   6.225  0.1810 -0.5069 -0.3308
   40MOL0     C 5186   3.961   7.724   6.209 -0.6022 -1.2235  0.3938
   40MOL0     C 5187   3.813   7.717   6.184  0.2456  0.2883 -0.5718
   40MOL0     C 5188   3.766   7.574   6.214 -0.0770 -0.0474 -0.0642
   40MOL0     C 5189   3.618   7.564   6.178 -0.6068 -0.4501 -0.5103
   40MOL0     C 5190   3.566   7.424   6.207 -0.0495 -0.2920  0.9509
   40MOL0     C 5191   3.607   7.319   6.109  0.1900 -0.0676  0.0146
   40MOL0    Cl 5192   3.520   7.337   5.956  0.0059  0.5800  0.4859
   40MOL0     C 5193   4.186   8.244   6.099 -0.1246 -1.1339  0.2932
   40MOL0     C 5194   4.317   8.292   6.071 -0.1825  1.1918 -0.3100
   40MOL0     O 5195   4.614   8.250   6.180 -0.1787  0.0542  0.9058
   40MOL0     C 5196   4.873   8.279   6.087  0.3386 -0.4334  0.0221
   40MOL0     C 5197   5.007   8.273   6.050 -0.3144 -0.1677  0.7836
   40MOL0     N 5198   5.765   8.138   5.947 -0.9254 -0.2326 -0.3634
   40MOL0     N 5199   5.889   8.093   5.959 -0.2430 -0.1504 -0.1813
   40MOL0     C 5200   5.922   8.559   6.369  0.6111  0.8289  0.2449
   40MOL0     C 5201   5.810   8.571   6.455  0.1722  0.5049  0.6513
   40MOL0     C 5202   5.480   8.481   6.732  0.7144  0.1736  0.2468
   40MOL0     C 5203   5.472   8.464   6.869  0.1360  0.1240 -0.0873
   40MOL0     C 5204   5.346   8.464   6.941 -0.3042 -0.3592  0.5850
   40MOL0     C 5205   5.224   8.472   6.861 -0.0140  0.7859 -0.3371
   40MOL0     O 5206   5.099   8.480   6.913  0.4341  0.4863 -0.3309
   40MOL0     C 5207   5.088   8.417   7.044 -0.2375 -0.5362 -1.0468
   40MOL0     C 5208   4.934   8.423   7.077 -0.1633 -0.5608 -0.1470
   40MOL0     C 5209   4.851   8.314   6.997 -0.6757 -0.3169 -0.6439
   40MOL0     C 5210   4.713   8.326   7.059 -0.1328  0.0753 -0.1110
   40MOL0     C 5211   4.608   8.271   6.971 -1.7117 -0.4549 -0.3095
   40MOL0     C 5212   4.512   8.247   6.899  0.0377  0.8156 -0.2171
   40MOL0     C 5213   5.229   8.473   6.720 -0.8408 -0.5369  0.2704
   40MOL0     C 5214   5.356   8.487   6.655  1.2562 -0.0040 -0.6066
   40MOL0     H 5215   5.615   8.326   6.332 -1.9760  2.2226 -2.0828
   40MOL0     H 5216   5.835   8.307   6.172 -0.4430 -0.4756 -0.4611
   40MOL0     H 5217   5.940   8.493   6.023  0.0412 -1.2776 -0.2500
   40MOL0     H 5218   6.027   8.346   6.026 -2.0054 -1.8593  3.5601
   40MOL0     H 5219   6.149   8.628   6.016  0.8663  0.1852  2.1411
   40MOL0     H 5220   6.120   8.523   5.878  0.5251  1.4904 -0.2089
   40MOL0     H 5221   6.298   8.394   6.075 -1.1939  0.6571  0.3282
   40MOL0     H 5222   6.350   8.549   6.016 -0.7271  1.9491 -0.6306
   40MOL0     H 5223   6.352   8.485   5.790  1.2857 -1.8998 -1.7697
   40MOL0     H 5224   6.447   8.366   5.877  0.1408  0.5975  0.6122
   40MOL0     H 5225   6.293   8.273   5.690 -2.4772 -1.6027 -1.1267
   40MOL0     H 5226   6.158   8.334   5.774  0.9512 -0.0072 -1.4577
   40MOL0     H 5227   6.187   8.168   5.952  0.7497 -0.4733  0.7196
   40MOL0     H 5228   6.354   8.132   5.897  0.6835  1.2066  1.2845
   40MOL0     H 5229   6.133   8.108   5.683  2.9709 -2.2758 -3.1301
   40MOL0     H 5230   6.254   7.991   5.742  0.2351  0.1540 -2.4364
   40MOL0     H 5231   6.089   7.944   5.938  1.4385  2.1443  0.5265
   40MOL0     H 5232   6.045   7.885   5.780 -2.6589  0.0056 -0.0604
   40MOL0     H 5233   5.861   8.036   5.639 -1.7288 -2.3356  0.7547
   40MOL0     H 5234   5.580   8.101   5.685  2.1370 -1.3550 -0.5016
   40MOL0     H 5235   5.620   8.271   5.697 -4.0718 -1.2738 -0.0593
   40MOL0     H 5236   5.526   8.283   5.921 -0.0154 -0.3982  1.0924
   40MOL0     H 5237   5.517   8.113   5.926  1.2389  0.2842 -0.0150
   40MOL0     H 5238   5.371   8.266   5.711 -1.0274 -0.7428 -0.6619
   40MOL0     H 5239   5.327   8.108   5.766 -0.2077  0.5152  0.5177
   40MOL0     H 5240   5.308   8.329   5.958  1.7066  0.1948 -2.0752
   40MOL0     H 5241   5.257   8.164   5.968 -3.5729 -0.7320 -0.8140
   40MOL0     H 5242   4.937   8.249   5.721  1.3978  2.2286  0.2405
   40MOL0     H 5243   4.714   8.296   5.803 -0.2541  3.1824  1.6648
   40MOL0     H 5244   4.465   8.011   5.983 -0.2030 -0.1791 -1.4256
   40MOL0     H 5245   4.229   7.921   6.011  1.0797 -0.6241  1.5416
   40MOL0     H 5246   3.987   7.917   6.012  0.7560  0.2863  0.4766
   40MOL0     H 5247   3.856   7.976   6.099  0.3414  0.9795 -4.3638
   40MOL0     H 5248   3.964   7.908   6.318 -0.3181 -3.9084  0.9590
   40MOL0     H 5249   4.116   7.884   6.232  0.1465  0.5903 -1.5084
   40MOL0     H 5250   3.995   7.676   6.301  1.0068 -1.0792 -0.0865
   40MOL0     H 5251   4.013   7.681   6.122  2.9568 -1.3769  2.3980
   40MOL0     H 5252   3.758   7.785   6.250  0.6127 -2.2196  2.5365
   40MOL0     H 5253   3.788   7.735   6.079 -1.7001 -1.4139 -0.4702
   40MOL0     H 5254   3.785   7.557   6.321  1.0578  1.4531  0.0033
   40MOL0     H 5255   3.832   7.506   6.159  0.7795 -0.5657  1.5454
   40MOL0     H 5256   3.601   7.572   6.070 -2.2472  0.1146 -0.2450
   40MOL0     H 5257   3.554   7.629   6.239  0.1352 -0.0220 -0.1763
   40MOL0     H 5258   3.592   7.397   6.310  3.5535 -0.6707  0.0558
   40MOL0     H 5259   3.457   7.430   6.209 -0.0673 -0.6781  1.3186
   40MOL0     H 5260   3.580   7.218   6.142 -0.4149  0.5724  1.5709
   40MOL0     H 5261   3.715   7.325   6.091 -0.2127 -1.2714 -3.4809
   40MOL0     H 5262   4.105   8.310   6.129  2.1923  2.9921 -1.7320
   40MOL0     H 5263   4.353   8.388   6.105 -1.5725  1.7127 -0.2520
   40MOL0     H 5264   4.864   8.275   6.195 -3.4120 -1.4884 -0.1679
   40MOL0     H 5265   5.091   8.278   6.119 -0.7005 -1.2955  1.3457
   40MOL0     H 5266   5.998   8.637   6.371  1.6321 -0.0888 -1.0573
   40MOL0     H 5267   5.802   8.653   6.526 -0.9086 -1.0030  2.3619
   40MOL0     H 5268   5.563   8.434   6.921 -2.6320 -2.8165  3.7058
   40MOL0     H 5269   5.358   8.462   7.049  1.6979 -0.1864  0.3907
   40MOL0     H 5270   5.147   8.457   7.127  0.0180 -0.3619 -1.3095
   40MOL0     H 5271   5.121   8.313   7.034  1.4905  0.0052 -1.3123
   40MOL0     H 5272   4.920   8.388   7.179 -1.4529 -0.2478 -0.2000
   40MOL0     H 5273   4.889   8.522   7.070  1.0870  0.1456  1.2873
   40MOL0     H 5274   4.885   8.210   6.999 -0.2283 -0.1980 -1.5785
   40MOL0     H 5275   4.844   8.343   6.892  1.5502  1.7886 -0.3169
   40MOL0     H 5276   4.710   8.260   7.146  1.0043 -0.6268 -0.5825
   40MOL0     H 5277   4.685   8.431   7.070 -3.1879 -0.6242 -0.2044
   40MOL0     H 5278   4.440   8.211   6.829  0.2625  0.0911 -0.0905
   40MOL0     H 5279   5.140   8.489   6.659  0.0062 -1.4292 -1.2809
   40MOL0     H 5280   5.356   8.496   6.547 -0.6253 -0.2486 -0.6640
   41MOL0     O 5281   1.873   4.937   5.961  0.0677  0.5142 -0.1167
   41MOL0     C 5282   1.925   4.856   5.881  0.7434  0.1323  0.2838
   41MOL0     O 5283   1.860   4.751   5.827  0.2392  0.4523  0.7690
   41MOL0     C 5284   1.731   4.715   5.845 -0.0685 -0.1335  0.3407
   41MOL0     C 5285   1.621   4.788   5.905 -0.1107 -0.1727 -0.0242
   41MOL0     C 5286   1.492   4.731   5.893  0.2587 -0.8524  0.5582
   41MOL0     C 5287   1.469   4.601   5.837 -0.3721  0.5093  0.6113
   41MOL0     O 5288   1.343   4.543   5.821 -0.2511 -0.4375  0.7645
   41MOL0     C 5289   1.220   4.616   5.861 -0.2859 -0.0445  0.4391
   41MOL0     C 5290   1.117   4.504   5.877  0.4583 -0.4140  0.1361
   41MOL0     C 5291   1.099   4.428   5.750  0.1370  0.6308  0.3752
   41MOL0     C 5292   0.991   4.315   5.750  0.6149 -0.4323 -0.5136
   41MOL0     C 5293   0.854   4.371   5.728 -0.8714  1.2996 -0.5515
   41MOL0     C 5294   0.744   4.263   5.751 -1.0041  0.3517 -0.0594
   41MOL0     C 5295   0.606   4.318   5.709  0.0808 -1.1734  1.3011
   41MOL0     C 5296   0.511   4.204   5.712  0.2307  0.0144  0.0310
   41MOL0     N 5297   0.369   4.238   5.684  0.1211 -0.5286  0.4134
   41MOL0     C 5298   0.315   4.308   5.581 -0.3975 -0.0952 -0.0962
   41MOL0     C 5299   0.180   4.300   5.609 -0.1139  0.6840  0.0263
   41MOL0     C 5300   0.083   4.383   5.524 -0.1386  0.1658  0.5055
   41MOL0     C 5301  -0.067   4.347   5.539  0.5664 -0.5958  0.4107
   41MOL0     C 5302  -0.124   4.382   5.676 -0.0208  0.1265 -0.3340
   41MOL0     C 5303  -0.276   4.350   5.676 -0.6605 -0.1051  0.1269
   41MOL0     O 5304  -0.364   4.457   5.639  0.3224 -0.7710 -0.5272
   41MOL0     C 5305  -0.493   4.432   5.632  0.4978  0.6830  0.1886
   41MOL0     C 5306  -0.582   4.528   5.603 -0.1739  0.7737  0.7269
   41MOL0     C 5307  -0.721   4.501   5.587 -0.9515 -0.4162 -0.3426
   41MOL0     C 5308  -0.777   4.375   5.625 -0.8046 -0.3690  0.4907
   41MOL0     C 5309  -0.918   4.339   5.605  1.0047  0.5153 -0.1443
   41MOL0     O 5310  -0.963   4.210   5.645 -0.3197  0.1630 -0.8461
   41MOL0     C 5311  -1.097   4.188   5.620  0.3355  0.6330 -0.9540
   41MOL0     C 5312  -1.186   4.265   5.697  0.4783 -0.6160 -0.3645
   41MOL0     C 5313  -1.324   4.245   5.687  0.9179 -0.0936 -1.6417
   41MOL0     C 5314  -1.376   4.140   5.605  0.2912  0.4187 -0.0076
   41MOL0     O 5315  -1.512   4.123   5.600  0.6424  0.6542 -0.4450
   41MOL0     C 5316  -1.551   4.034   5.501 -0.1235  0.4616  0.8866
   41MOL0     C 5317  -1.698   4.014   5.487 -0.6189  0.6473 -0.7982
   41MOL0     C 5318  -1.752   3.906   5.386  0.4188 -0.4543  0.0759
   41MOL0     C 5319  -1.754   3.767   5.448 -0.1235 -0.0202 -0.2161
   41MOL0     C 5320  -1.836   3.742   5.579  0.4800  0.8128  0.6742
   41MOL0     C 5321  -1.981   3.790   5.576  0.3393 -0.7379  0.6028
   41MOL0     C 5322  -2.022   3.793   5.725  1.2711  0.3803 -0.4639
   41MOL0     C 5323  -2.158   3.878   5.731 -0.7686 -0.0012 -1.3834
   41MOL0    Cl 5324  -2.302   3.763   5.707  0.2947 -0.1168 -0.1034
   41MOL0     C 5325  -1.281   4.070   5.532  0.1076 -0.4901  1.4815
   41MOL0     C 5326  -1.142   4.097   5.527  0.0118  0.7303  0.1221
   41MOL0     O 5327  -0.981   4.423   5.545 -0.2254  0.2402 -0.0638
   41MOL0     C 5328  -0.687   4.274   5.661  0.4901 -0.8687 -0.5420
   41MOL0     C 5329  -0.545   4.302   5.660  0.1677  0.3069 -0.0993
   41MOL0     N 5330   0.153   4.213   5.712  0.0862 -0.7567  0.4564
   41MOL0     N 5331   0.271   4.180   5.760  0.3816  0.2022  0.2275
   41MOL0     C 5332   1.582   4.533   5.793  0.0292 -0.7972 -0.2831
   41MOL0     C 5333   1.706   4.592   5.793 -0.0979 -0.4510  0.0310
   41MOL0     C 5334   2.067   4.870   5.854 -0.7283 -0.9513 -0.0422
   41MOL0     C 5335   2.152   4.971   5.909 -0.6164 -0.4191 -0.5738
   41MOL0     C 5336   2.291   4.975   5.879  0.4970  0.6547  0.4594
   41MOL0     C 5337   2.343   4.881   5.792 -0.6689 -1.0096 -0.0332
   41MOL0     O 5338   2.479   4.886   5.762  0.5376  0.1502  0.6391
   41MOL0     C 5339   2.563   5.002   5.791  0.5855  0.7491  0.0229
   41MOL0     C 5340   2.673   5.006   5.684  1.1724  0.0516  1.0855
   41MOL0     C 5341   2.780   5.116   5.706  0.4445  0.3964  0.8145
   41MOL0     C 5342   2.890   5.095   5.602  0.0023  0.1393 -0.8391
   41MOL0     C 5343   2.857   5.109   5.461 -0.5113 -0.4793 -0.9436
   41MOL0     C 5344   2.824   5.134   5.347  0.1778 -0.0224  0.6290
   41MOL0     C 5345   2.269   4.774   5.752 -1.0605  1.1163 -0.7307
   41MOL0     C 5346   2.141   4.761   5.787  0.6190 -0.4800  0.6973
   41MOL0     H 5347   1.635   4.876   5.967 -1.3119  0.3270 -0.4195
   41MOL0     H 5348   1.409   4.782   5.942  1.2498  0.0726  1.3113
   41MOL0     H 5349   1.182   4.692   5.792 -0.4817 -1.2019 -0.7692
   41MOL0     H 5350   1.231   4.673   5.954 -0.5273  1.8110 -0.6256
   41MOL0     H 5351   1.029   4.559   5.910  1.9909  3.6051 -1.7848
   41MOL0     H 5352   1.147   4.432   5.954 -0.8540 -2.4799 -1.2011
   41MOL0     H 5353   1.195   4.378   5.733  0.0751  0.6848 -0.1692
   41MOL0     H 5354   1.072   4.492   5.665 -0.1180 -0.9011 -0.7449
   41MOL0     H 5355   1.016   4.236   5.679  5.2605 -2.5498  2.9803
   41MOL0     H 5356   0.980   4.262   5.845  2.0396 -2.0564 -1.1979
   41MOL0     H 5357   0.843   4.429   5.636 -0.3345  0.2097 -1.3313
   41MOL0     H 5358   0.847   4.459   5.793 -1.0528  0.7669  0.1642
   41MOL0     H 5359   0.726   4.241   5.857 -1.8232 -1.1142 -0.4817
   41MOL0     H 5360   0.776   4.174   5.696  0.5571  0.8002  0.0772
   41MOL0     H 5361   0.591   4.397   5.784  1.5271 -1.5011  1.9590
   41MOL0     H 5362   0.600   4.354   5.605 -0.4609 -3.1729  0.5990
   41MOL0     H 5363   0.511   4.180   5.819 -1.3259  2.0927  0.5737
   41MOL0     H 5364   0.527   4.121   5.642  0.5563 -1.0321  1.2998
   41MOL0     H 5365   0.355   4.364   5.498  0.2936 -0.8378 -0.2818
   41MOL0     H 5366   0.118   4.368   5.421  2.5436  1.3931  1.1256
   41MOL0     H 5367   0.102   4.490   5.539 -0.1009  0.3022 -0.4437
   41MOL0     H 5368  -0.078   4.245   5.503 -1.4024  0.3002 -1.8171
   41MOL0     H 5369  -0.124   4.403   5.463  0.8290 -0.0231  0.6318
   41MOL0     H 5370  -0.081   4.301   5.736  0.1306  0.3214 -0.1789
   41MOL0     H 5371  -0.103   4.483   5.713  1.2797  0.1261 -1.0065
   41MOL0     H 5372  -0.304   4.310   5.774 -0.1097  1.6053  1.0324
   41MOL0     H 5373  -0.293   4.270   5.603 -0.0377  0.7968 -1.0531
   41MOL0     H 5374  -0.552   4.625   5.564 -3.8824  0.9957 -2.1677
   41MOL0     H 5375  -0.797   4.569   5.553 -0.7624  0.5144  1.0115
   41MOL0     H 5376  -1.147   4.341   5.764 -0.3135  0.0907 -0.6813
   41MOL0     H 5377  -1.397   4.304   5.741 -0.9961 -3.1521 -0.6487
   41MOL0     H 5378  -1.501   3.940   5.525  3.1427  2.2054  1.5612
   41MOL0     H 5379  -1.511   4.064   5.404 -2.1603  0.3359 -0.0454
   41MOL0     H 5380  -1.746   4.105   5.450 -3.3604  0.8364  2.7043
   41MOL0     H 5381  -1.741   4.005   5.587  0.5632  0.0895 -0.3309
   41MOL0     H 5382  -1.691   3.904   5.295 -1.4856 -0.3539 -1.2690
   41MOL0     H 5383  -1.850   3.935   5.346  0.3926  0.4159  0.7418
   41MOL0     H 5384  -1.785   3.698   5.369  2.5442  0.6918 -2.0188
   41MOL0     H 5385  -1.649   3.739   5.459 -0.0923  0.2215  0.0957
   41MOL0     H 5386  -1.788   3.798   5.659  2.0966  1.3536 -0.6188
   41MOL0     H 5387  -1.833   3.636   5.607  4.5988  0.1742 -1.4005
   41MOL0     H 5388  -2.054   3.734   5.517 -0.6318  0.8264  0.2623
   41MOL0     H 5389  -1.981   3.888   5.529  2.6942 -1.8650 -2.0321
   41MOL0     H 5390  -2.050   3.693   5.762  1.8138  0.3893 -0.0139
   41MOL0     H 5391  -1.944   3.828   5.793 -2.3218  2.2903  3.0614
   41MOL0     H 5392  -2.174   3.947   5.648 -2.8583 -1.5011 -2.3185
   41MOL0     H 5393  -2.168   3.922   5.830  1.5335 -2.2724 -0.0148
   41MOL0     H 5394  -1.301   3.980   5.475 -2.3717  0.6292  0.4562
   41MOL0     H 5395  -1.074   4.035   5.469 -0.4709 -1.8933  2.1383
   41MOL0     H 5396  -0.717   4.177   5.699  0.0504  0.1880  1.9430
   41MOL0     H 5397  -0.485   4.212   5.671 -2.2745 -1.6345 -1.7049
   41MOL0     H 5398   1.577   4.442   5.734  1.6780  1.4193 -4.2444
   41MOL0     H 5399   1.791   4.542   5.747 -0.2157 -1.3155  0.7220
   41MOL0     H 5400   2.099   5.049   5.961 -0.2329 -0.2499 -0.4329
   41MOL0     H 5401   2.351   5.059   5.914 -0.8604  2.4755 -1.3211
   41MOL0     H 5402   2.593   4.998   5.896 -1.5631 -3.6194  0.6855
   41MOL0     H 5403   2.502   5.090   5.771 -1.5145 -0.8836 -1.1570
   41MOL0     H 5404   2.718   4.907   5.697 -1.9431 -1.8595 -1.3243
   41MOL0     H 5405   2.620   5.004   5.588  1.1429 -2.0113  1.0917
   41MOL0     H 5406   2.816   5.114   5.809  0.3769 -0.0550  0.8341
   41MOL0     H 5407   2.743   5.217   5.689  1.4055  0.6880  0.3915
   41MOL0     H 5408   2.970   5.164   5.630 -0.1967 -0.7295  2.2099
   41MOL0     H 5409   2.931   4.994   5.612 -1.7879 -0.4419  1.8409
   41MOL0     H 5410   2.786   5.143   5.247  0.7455  1.2878  0.5155
   41MOL0     H 5411   2.323   4.694   5.701 -0.2176  1.0386  0.2636
   41MOL0     H 5412   2.090   4.671   5.756 -0.8576  1.0015 -1.5284
   42MOL0     O 5413   8.063   1.546   7.404  0.0000 -0.1542  0.1160
   42MOL0     C 5414   8.103   1.663   7.395 -0.3332 -0.2610 -0.0817
   42MOL0     O 5415   8.029   1.773   7.364 -0.3495 -0.5344 -0.9038
   42MOL0     C 5416   7.892   1.775   7.337 -0.4662  0.0515 -0.7608
   42MOL0     C 5417   7.796   1.680   7.363 -0.2851  0.6815  0.7918
   42MOL0     C 5418   7.662   1.696   7.331 -1.4508  0.6051 -0.3114
   42MOL0     C 5419   7.615   1.820   7.295 -0.3168  0.6310 -0.0892
   42MOL0     O 5420   7.482   1.860   7.282  0.4834 -0.1710  0.8473
   42MOL0     C 5421   7.396   1.781   7.371  0.3605 -0.7966 -0.4363
   42MOL0     C 5422   7.283   1.872   7.420 -0.5174  0.0615  0.3379
   42MOL0     C 5423   7.170   1.875   7.319 -1.7116  0.1187 -0.3678
   42MOL0     C 5424   7.090   2.017   7.331 -0.4506  0.6884 -0.5266
   42MOL0     C 5425   6.976   2.008   7.240 -0.1650 -0.5309 -0.2571
   42MOL0     C 5426   6.894   2.140   7.240  0.3544 -0.1252 -0.4934
   42MOL0     C 5427   6.763   2.140   7.149 -0.3540 -0.9902  0.1479
   42MOL0     C 5428   6.706   2.285   7.127  0.1196 -0.0489 -0.7128
   42MOL0     N 5429   6.577   2.287   7.053  0.1485  0.3488  0.9171
   42MOL0     C 5430   6.455   2.264   7.106  0.4898 -0.1592 -0.8254
   42MOL0     C 5431   6.357   2.286   7.013  0.4620  0.4790  0.3438
   42MOL0     C 5432   6.207   2.268   7.037 -0.9082 -0.7588 -0.2570
   42MOL0     C 5433   6.121   2.315   6.921 -0.7066  0.6664  0.2536
   42MOL0     C 5434   5.969   2.279   6.935 -0.3313  0.4001 -0.4437
   42MOL0     C 5435   5.893   2.317   6.809  0.2506 -0.1447 -0.0674
   42MOL0     O 5436   5.849   2.454   6.797 -0.1797 -0.5448 -0.4930
   42MOL0     C 5437   5.723   2.495   6.839 -1.1042 -0.0776 -0.2139
   42MOL0     C 5438   5.670   2.611   6.770 -0.2689 -0.3146  0.3657
   42MOL0     C 5439   5.542   2.650   6.788  0.0763  0.3081 -0.3387
   42MOL0     C 5440   5.458   2.583   6.879  0.4007  0.4891 -0.6008
   42MOL0     C 5441   5.317   2.627   6.899  0.1312  0.5650  0.2921
   42MOL0     O 5442   5.284   2.736   6.824 -0.2474 -0.3526 -0.9058
   42MOL0     C 5443   5.150   2.769   6.827 -0.7132 -0.1903  0.6539
   42MOL0     C 5444   5.054   2.685   6.762  0.5290 -0.5679  0.5371
   42MOL0     C 5445   4.914   2.713   6.790  0.2317 -0.6699  1.5478
   42MOL0     C 5446   4.875   2.824   6.869 -0.5629 -0.7913  0.0122
   42MOL0     O 5447   4.740   2.847   6.896  0.3276 -0.7255  0.8384
   42MOL0     C 5448   4.687   2.969   6.840 -0.9177  0.2142 -0.0822
   42MOL0     C 5449   4.542   2.946   6.786  0.4145 -0.7180  0.3494
   42MOL0     C 5450   4.424   3.007   6.865  0.2963 -0.5617  0.0083
   42MOL0     C 5451   4.285   2.956   6.828  0.0809  0.9558  0.3354
   42MOL0     C 5452   4.170   3.018   6.897  0.1729  0.5723 -0.9784
   42MOL0     C 5453   4.033   2.962   6.840 -0.6930 -0.1682  1.6444
   42MOL0     C 5454   3.898   3.019   6.876  0.2985 -0.9756 -0.1591
   42MOL0     C 5455   3.781   2.967   6.795  0.3565  0.1516 -0.7270
   42MOL0    Cl 5456   3.761   3.058   6.647  0.1198 -0.0562  0.3714
   42MOL0     C 5457   4.977   2.897   6.937  0.0088  0.2174 -0.3101
   42MOL0     C 5458   5.113   2.878   6.910 -0.6067 -0.6954 -1.1885
   42MOL0     O 5459   5.246   2.571   6.985 -0.3558 -0.3544  0.5031
   42MOL0     C 5460   5.505   2.467   6.937 -0.0740  0.8027 -0.0908
   42MOL0     C 5461   5.641   2.426   6.922 -0.1605  0.9244  0.3051
   42MOL0     N 5462   6.427   2.315   6.902 -0.2397 -0.6532  0.2158
   42MOL0     N 5463   6.555   2.310   6.919  0.2542  0.3539  0.2110
   42MOL0     C 5464   7.709   1.921   7.271 -0.0846  0.5922  1.0811
   42MOL0     C 5465   7.849   1.899   7.288  0.4633  0.4425 -0.0989
   42MOL0     C 5466   8.246   1.688   7.418 -0.1483  0.3465  0.3169
   42MOL0     C 5467   8.334   1.580   7.386  0.6899  0.4781  0.0218
   42MOL0     C 5468   8.471   1.586   7.407  0.0671 -0.3565  0.2661
   42MOL0     C 5469   8.523   1.711   7.457 -0.1851 -1.9010 -0.0790
   42MOL0     O 5470   8.650   1.738   7.490  0.2460 -0.0387 -0.0147
   42MOL0     C 5471   8.751   1.640   7.508 -0.0426  0.7579  0.1949
   42MOL0     C 5472   8.884   1.717   7.535  1.1299 -0.0294 -0.3240
   42MOL0     C 5473   8.980   1.595   7.551 -0.4118 -0.4648  0.0187
   42MOL0     C 5474   9.108   1.668   7.584 -0.2789  0.2002 -0.2198
   42MOL0     C 5475   9.206   1.560   7.594  0.4168 -0.5763  0.4975
   42MOL0     C 5476   9.287   1.475   7.615  0.2381  0.1255 -0.0078
   42MOL0     C 5477   8.431   1.825   7.484 -0.4029  0.0883  0.5908
   42MOL0     C 5478   8.297   1.812   7.461  0.0420  0.4470  0.2413
   42MOL0     H 5479   7.829   1.579   7.388 -1.2314  0.6780  2.1222
   42MOL0     H 5480   7.587   1.618   7.347 -2.1310  0.3138 -3.9002
   42MOL0     H 5481   7.453   1.751   7.459  2.2302 -0.9790 -1.6348
   42MOL0     H 5482   7.360   1.697   7.311  1.7577  0.0981 -2.6673
   42MOL0     H 5483   7.333   1.968   7.439 -0.8129  1.4379 -4.5191
   42MOL0     H 5484   7.249   1.827   7.514 -0.6559  0.2956  0.3994
   42MOL0     H 5485   7.104   1.790   7.338 -1.6554  0.2633  0.5157
   42MOL0     H 5486   7.213   1.867   7.218  0.5665  3.0141  0.2549
   42MOL0     H 5487   7.067   2.031   7.437  1.3766 -2.4069  0.4084
   42MOL0     H 5488   7.155   2.101   7.306 -1.5520  1.7798  0.1974
   42MOL0     H 5489   6.914   1.922   7.265 -0.0263  0.0305  2.2674
   42MOL0     H 5490   7.015   1.993   7.139  2.1155 -0.2080  0.5158
   42MOL0     H 5491   6.959   2.225   7.214  0.8745 -0.4173 -0.1750
   42MOL0     H 5492   6.850   2.158   7.338 -0.2990 -1.4831 -0.5175
   42MOL0     H 5493   6.795   2.103   7.051  2.0001 -0.9931  0.8690
   42MOL0     H 5494   6.691   2.072   7.197 -1.1275  0.4119  1.0514
   42MOL0     H 5495   6.779   2.337   7.064  0.3874 -0.2256 -0.5515
   42MOL0     H 5496   6.680   2.336   7.220 -0.5484 -0.8657 -0.4319
   42MOL0     H 5497   6.445   2.223   7.206  1.7237 -1.3665 -1.1668
   42MOL0     H 5498   6.185   2.330   7.124 -1.6081  1.6498 -2.0583
   42MOL0     H 5499   6.191   2.161   7.052  0.7343 -1.6618 -3.8047
   42MOL0     H 5500   6.167   2.271   6.832  1.4267 -0.4066  1.7837
   42MOL0     H 5501   6.128   2.422   6.900  0.6861  0.5860  0.2081
   42MOL0     H 5502   5.960   2.171   6.924 -0.9332  0.2993  0.8894
   42MOL0     H 5503   5.925   2.319   7.027  0.0491  0.3645 -0.2434
   42MOL0     H 5504   5.802   2.257   6.818 -0.2825  0.6928  0.2855
   42MOL0     H 5505   5.953   2.283   6.724  1.5314 -0.0089  0.7509
   42MOL0     H 5506   5.737   2.667   6.705 -1.4018  2.9263  1.7736
   42MOL0     H 5507   5.498   2.734   6.735 -0.9201  1.0018  1.5179
   42MOL0     H 5508   5.098   2.596   6.718  2.4133  0.5720  0.0094
   42MOL0     H 5509   4.836   2.652   6.744 -0.4074  3.7902 -4.4570
   42MOL0     H 5510   4.746   3.010   6.757  0.9340 -1.7591  0.1739
   42MOL0     H 5511   4.684   3.042   6.921 -1.5942 -0.4823  0.5389
   42MOL0     H 5512   4.533   2.838   6.790  3.5863 -1.0779  3.8970
   42MOL0     H 5513   4.527   2.988   6.686 -0.4447  1.9617  1.4931
   42MOL0     H 5514   4.432   3.114   6.844  3.0104  0.2003  3.7718
   42MOL0     H 5515   4.430   2.996   6.973 -0.5476 -2.4837 -0.0993
   42MOL0     H 5516   4.268   2.953   6.720  2.1324  0.0339 -0.0108
   42MOL0     H 5517   4.280   2.855   6.868  2.6544  1.3195  1.7895
   42MOL0     H 5518   4.179   3.127   6.904 -2.6032  0.8029  0.4031
   42MOL0     H 5519   4.182   2.989   7.001  2.0641  2.9076 -0.4662
   42MOL0     H 5520   4.031   2.862   6.883  1.6254 -0.7820  0.4646
   42MOL0     H 5521   4.033   2.963   6.730  0.9947  1.9976  1.5861
   42MOL0     H 5522   3.882   3.006   6.984  4.4051  0.7490  0.8660
   42MOL0     H 5523   3.907   3.126   6.856  2.9385 -1.0440  0.3461
   42MOL0     H 5524   3.698   2.990   6.861  0.1059 -0.2854 -0.8904
   42MOL0     H 5525   3.799   2.861   6.774  3.0098  0.7516 -1.9671
   42MOL0     H 5526   4.937   2.959   7.017 -0.0410  2.3000 -1.8934
   42MOL0     H 5527   5.188   2.922   6.973 -1.4659  1.2081 -1.4362
   42MOL0     H 5528   5.434   2.409   6.995 -0.2331  0.4377 -0.6520
   42MOL0     H 5529   5.670   2.334   6.972 -4.2011 -0.8795 -0.2089
   42MOL0     H 5530   7.678   2.020   7.240 -1.6249 -0.6951 -1.9569
   42MOL0     H 5531   7.917   1.984   7.278 -1.0344  1.5619 -1.3555
   42MOL0     H 5532   8.299   1.487   7.343  1.4857  0.4353 -0.5577
   42MOL0     H 5533   8.538   1.507   7.373  0.1209 -0.4667  0.6191
   42MOL0     H 5534   8.767   1.572   7.424  2.2484 -1.3588  2.1909
   42MOL0     H 5535   8.745   1.581   7.599  2.9594  0.5306  0.3355
   42MOL0     H 5536   8.899   1.782   7.449 -3.0803 -0.0806 -1.3023
   42MOL0     H 5537   8.859   1.776   7.624  2.1745  0.0261 -0.0481
   42MOL0     H 5538   8.992   1.531   7.463 -0.2912 -2.1327  1.2035
   42MOL0     H 5539   8.959   1.532   7.638 -1.0377  1.4498  1.3008
   42MOL0     H 5540   9.151   1.739   7.513  3.2063 -1.0843  0.4260
   42MOL0     H 5541   9.095   1.725   7.676 -0.3928  1.7257 -1.1438
   42MOL0     H 5542   9.360   1.399   7.634  1.1930  1.4785  2.0516
   42MOL0     H 5543   8.468   1.920   7.522  2.8559  0.6608 -3.4027
   42MOL0     H 5544   8.229   1.897   7.458  1.1894  1.3809 -2.3390
   43MOL0     O 5545   1.821  11.286   2.231 -0.0791 -0.3446 -0.1554
   43MOL0     C 5546   1.835  11.408   2.252  0.4466 -0.1320  0.5190
   43MOL0     O 5547   1.940  11.468   2.309  0.0985 -0.3778  0.7469
   43MOL0     C 5548   2.045  11.390   2.338 -0.7399  0.0843  0.5438
   43MOL0     C 5549   2.070  11.348   2.471  0.2066 -0.3581 -0.2749
   43MOL0     C 5550   2.179  11.261   2.497  0.1722 -0.4266 -0.6762
   43MOL0     C 5551   2.270  11.227   2.401 -0.1850 -0.3020  0.3346
   43MOL0     O 5552   2.380  11.150   2.426 -0.2063 -0.1832  0.4026
   43MOL0     C 5553   2.447  11.177   2.546 -0.4360 -0.0719 -0.0555
   43MOL0     C 5554   2.590  11.186   2.499  0.7116 -0.1361 -0.7586
   43MOL0     C 5555   2.695  11.219   2.602  0.3450  1.1829 -1.0868
   43MOL0     C 5556   2.681  11.131   2.720 -0.8413  0.5618 -0.7637
   43MOL0     C 5557   2.694  10.980   2.690  0.0840  0.2583  0.1177
   43MOL0     C 5558   2.672  10.886   2.812  0.0848 -0.2781 -0.3677
   43MOL0     C 5559   2.531  10.881   2.880  0.0390  0.8273  0.4862
   43MOL0     C 5560   2.509  10.787   2.999  0.4494  1.1319 -0.3148
   43MOL0     N 5561   2.365  10.789   3.047 -0.5686 -0.5347  0.2657
   43MOL0     C 5562   2.278  10.688   3.069  0.4440 -0.2694 -0.5702
   43MOL0     C 5563   2.169  10.743   3.135  0.2189 -0.0159  0.8160
   43MOL0     C 5564   2.041  10.688   3.179 -0.6674 -0.3306 -0.2173
   43MOL0     C 5565   1.959  10.646   3.056  0.4423 -1.1203 -0.6532
   43MOL0     C 5566   1.826  10.601   3.107  0.2475  0.3792 -1.0028
   43MOL0     C 5567   1.732  10.553   2.999 -0.1682 -0.1015 -0.8081
   43MOL0     O 5568   1.722  10.657   2.902  0.1576 -0.8760 -0.0282
   43MOL0     C 5569   1.598  10.720   2.890  1.0510 -0.3760  0.7252
   43MOL0     C 5570   1.583  10.858   2.908 -0.1079 -0.2587  0.2151
   43MOL0     C 5571   1.463  10.929   2.899 -0.3190  0.5526 -0.1845
   43MOL0     C 5572   1.346  10.860   2.853 -0.2778  0.1215  0.0278
   43MOL0     C 5573   1.220  10.919   2.826 -0.6475  0.0907 -0.1563
   43MOL0     O 5574   1.123  10.850   2.761 -0.1724 -0.9445 -0.0072
   43MOL0     C 5575   1.017  10.929   2.711  0.1477  0.5721  0.2290
   43MOL0     C 5576   1.027  11.023   2.607  0.2746 -0.0268 -0.9522
   43MOL0     C 5577   0.912  11.091   2.567  0.1406 -0.6174 -0.6616
   43MOL0     C 5578   0.790  11.074   2.622  0.0854  1.3057  0.8115
   43MOL0     O 5579   0.685  11.141   2.572 -0.3081 -0.0733 -0.1216
   43MOL0     C 5580   0.587  11.065   2.499  0.6286 -0.4549 -0.5511
   43MOL0     C 5581   0.498  11.150   2.396  0.0471  0.6557 -1.2123
   43MOL0     C 5582   0.568  11.256   2.309 -0.8161  0.5973 -0.9008
   43MOL0     C 5583   0.676  11.210   2.218  0.5662  0.5462  0.6467
   43MOL0     C 5584   0.738  11.331   2.153 -0.1745  0.0209 -0.2901
   43MOL0     C 5585   0.674  11.370   2.021  1.1614 -0.7920 -0.5966
   43MOL0     C 5586   0.734  11.498   1.966  0.1428 -0.8077  0.4321
   43MOL0     C 5587   0.693  11.518   1.815 -0.0862 -0.8638 -0.1826
   43MOL0    Cl 5588   0.523  11.566   1.797  0.2957  0.0829 -0.2079
   43MOL0     C 5589   0.775  10.973   2.726  0.2440  0.1859  1.0176
   43MOL0     C 5590   0.889  10.909   2.769 -0.4241 -0.2115  0.6662
   43MOL0     O 5591   1.216  11.034   2.871  0.0166 -0.1490  0.3909
   43MOL0     C 5592   1.360  10.720   2.846 -0.4968  0.1616  0.1677
   43MOL0     C 5593   1.480  10.655   2.850 -0.1267  0.2628 -0.9575
   43MOL0     N 5594   2.190  10.877   3.157 -0.7738  0.5649  0.2550
   43MOL0     N 5595   2.304  10.900   3.104 -1.4367  1.3346 -0.3170
   43MOL0     C 5596   2.245  11.263   2.266  0.2908 -0.5019 -0.2056
   43MOL0     C 5597   2.131  11.345   2.240  0.6213 -0.6442  0.2629
   43MOL0     C 5598   1.738  11.496   2.190  0.0167  0.5933  0.0115
   43MOL0     C 5599   1.700  11.462   2.058 -0.0890 -0.8838  0.5480
   43MOL0     C 5600   1.619  11.558   1.991  0.0227 -0.1827 -0.4972
   43MOL0     C 5601   1.576  11.681   2.058  0.0061 -0.3134  0.9589
   43MOL0     O 5602   1.495  11.763   1.975 -0.5200 -1.1219  0.2327
   43MOL0     C 5603   1.447  11.884   2.034  0.4088 -1.3563 -0.1506
   43MOL0     C 5604   1.363  11.970   1.943  0.1880 -0.2486  0.2129
   43MOL0     C 5605   1.461  12.029   1.836  0.4228 -0.1015 -0.3734
   43MOL0     C 5606   1.406  12.002   1.690 -0.5023  0.1673  0.7440
   43MOL0     C 5607   1.263  12.036   1.681  0.2647  0.2875 -0.1104
   43MOL0     C 5608   1.151  12.075   1.670 -0.1918  0.8549  1.3761
   43MOL0     C 5609   1.608  11.700   2.195 -0.7607  0.5490 -0.0812
   43MOL0     C 5610   1.689  11.604   2.258  0.7500 -0.5538 -0.3986
   43MOL0     H 5611   2.006  11.379   2.553 -1.3653 -1.6968 -0.9418
   43MOL0     H 5612   2.194  11.234   2.602 -2.2542  0.2557 -0.0987
   43MOL0     H 5613   2.429  11.089   2.609 -1.2178  0.3720  0.3577
   43MOL0     H 5614   2.417  11.264   2.605 -0.7574  0.5751 -1.1464
   43MOL0     H 5615   2.578  11.267   2.426  0.5958  1.3224  0.8025
   43MOL0     H 5616   2.613  11.093   2.448 -1.4589 -0.9014 -0.4580
   43MOL0     H 5617   2.687  11.320   2.641  1.7259  1.5338 -1.6477
   43MOL0     H 5618   2.795  11.216   2.558 -0.3898 -0.5242 -2.7985
   43MOL0     H 5619   2.770  11.149   2.781 -1.5751  1.1802  0.1595
   43MOL0     H 5620   2.598  11.169   2.780  1.0077  2.9962  0.4578
   43MOL0     H 5621   2.788  10.958   2.639  0.0706 -0.3064  0.3278
   43MOL0     H 5622   2.618  10.966   2.613  0.3431  2.1444 -0.5216
   43MOL0     H 5623   2.741  10.912   2.893 -1.8981 -0.7330  1.5795
   43MOL0     H 5624   2.695  10.784   2.780 -1.9896 -1.2009  0.8638
   43MOL0     H 5625   2.520  10.982   2.920  3.2199  2.1018 -1.4676
   43MOL0     H 5626   2.451  10.873   2.807  0.7508 -1.4353 -0.1467
   43MOL0     H 5627   2.570  10.822   3.082  0.5102  4.0455 -1.4821
   43MOL0     H 5628   2.541  10.683   2.987 -0.7151  0.9670 -2.8519
   43MOL0     H 5629   2.284  10.586   3.032  0.6118 -0.0011 -1.3067
   43MOL0     H 5630   1.988  10.759   3.243  0.8042 -0.0395  0.7187
   43MOL0     H 5631   2.066  10.596   3.232  1.5330 -0.1812 -0.9292
   43MOL0     H 5632   1.998  10.561   2.999 -4.5065 -3.6082 -0.8846
   43MOL0     H 5633   1.937  10.733   2.995 -1.0403 -2.9908 -2.9434
   43MOL0     H 5634   1.847  10.522   3.180 -0.3174  1.1135 -0.0145
   43MOL0     H 5635   1.774  10.679   3.163 -0.3658  0.8953 -2.2574
   43MOL0     H 5636   1.643  10.510   3.045  1.7657 -4.9243 -0.9478
   43MOL0     H 5637   1.781  10.465   2.956  1.6116  0.3605  0.1623
   43MOL0     H 5638   1.678  10.906   2.930  3.5097 -2.9243 -6.6949
   43MOL0     H 5639   1.469  11.036   2.916  1.2667  0.3654  0.5700
   43MOL0     H 5640   1.119  11.041   2.551  2.5102 -3.1497  1.3678
   43MOL0     H 5641   0.917  11.169   2.492 -1.3189  0.4187  0.2605
   43MOL0     H 5642   0.519  11.023   2.573  0.2887  2.1345  0.7175
   43MOL0     H 5643   0.644  10.989   2.444  2.9953  2.5669 -2.6083
   43MOL0     H 5644   0.418  11.195   2.457  1.4840 -1.0750  2.2468
   43MOL0     H 5645   0.454  11.074   2.331  1.3045 -1.9393  0.8105
   43MOL0     H 5646   0.615  11.324   2.381 -3.5449  0.2599  1.3794
   43MOL0     H 5647   0.492  11.310   2.253 -1.4283 -0.5546 -1.2077
   43MOL0     H 5648   0.749  11.140   2.259  0.6616  0.2797  0.0309
   43MOL0     H 5649   0.627  11.147   2.143  1.9037 -0.7839  0.8532
   43MOL0     H 5650   0.838  11.291   2.131 -0.8713 -0.5709 -2.6548
   43MOL0     H 5651   0.736  11.423   2.212 -3.8904  1.0411 -1.7160
   43MOL0     H 5652   0.568  11.388   2.040  1.1027 -1.1220 -0.6155
   43MOL0     H 5653   0.678  11.292   1.944 -0.0504 -0.5278 -0.9493
   43MOL0     H 5654   0.715  11.589   2.023  1.2474 -0.6613  0.5752
   43MOL0     H 5655   0.842  11.485   1.969  0.5975  1.5880 -1.9243
   43MOL0     H 5656   0.714  11.428   1.757  0.1537 -0.9030 -0.0340
   43MOL0     H 5657   0.762  11.596   1.782 -1.3506  0.0060 -0.9047
   43MOL0     H 5658   0.679  10.942   2.764 -0.0648 -0.2227 -0.0659
   43MOL0     H 5659   0.879  10.840   2.852 -0.0917  0.1649  1.0253
   43MOL0     H 5660   1.280  10.652   2.818  0.0888 -0.1125 -0.8945
   43MOL0     H 5661   1.487  10.553   2.813  1.4298 -0.7730  1.8446
   43MOL0     H 5662   2.324  11.231   2.200  1.0680  0.2235  0.3507
   43MOL0     H 5663   2.108  11.378   2.139 -1.1012  1.6355  1.2944
   43MOL0     H 5664   1.745  11.376   2.008 -0.4739 -0.2480 -0.9525
   43MOL0     H 5665   1.586  11.532   1.891 -1.1723 -1.5390  0.2156
   43MOL0     H 5666   1.529  11.941   2.079 -2.1368  1.7101  0.9572
   43MOL0     H 5667   1.389  11.847   2.119 -0.7230  0.6040 -0.0328
   43MOL0     H 5668   1.288  11.903   1.898  1.2845 -1.0907 -0.4046
   43MOL0     H 5669   1.320  12.059   1.989 -1.0592 -1.6881  2.0142
   43MOL0     H 5670   1.563  11.991   1.850 -0.1051 -2.0959 -1.5318
   43MOL0     H 5671   1.476  12.137   1.848 -0.2874 -0.0030 -0.3046
   43MOL0     H 5672   1.467  12.061   1.621 -0.8196 -0.0374  0.2795
   43MOL0     H 5673   1.422  11.895   1.676  1.0294  0.4982 -0.2540
   43MOL0     H 5674   1.050  12.105   1.648 -0.7022 -2.3505 -1.4550
   43MOL0     H 5675   1.576  11.783   2.257 -0.9022 -0.8468  1.7840
   43MOL0     H 5676   1.708  11.617   2.364 -0.9708 -1.5730  0.0815
   44MOL0     O 5677   3.345   3.332   0.570 -0.0754 -0.0382  0.2803
   44MOL0     C 5678   3.407   3.307   0.468 -0.3218  0.2863 -0.2537
   44MOL0     O 5679   3.362   3.257   0.347  0.1135 -0.4261  0.5842
   44MOL0     C 5680   3.226   3.217   0.345 -0.2768  0.7138  0.8550
   44MOL0     C 5681   3.157   3.150   0.447  0.3907  0.2298 -0.3228
   44MOL0     C 5682   3.023   3.113   0.435  0.5193 -0.3757  0.2353
   44MOL0     C 5683   2.942   3.134   0.322 -0.8513 -0.1657  0.0914
   44MOL0     O 5684   2.807   3.108   0.327  0.1660  0.6009  0.9283
   44MOL0     C 5685   2.729   3.132   0.208  0.1610  1.0417  0.1601
   44MOL0     C 5686   2.597   3.059   0.209 -0.0333  0.0443  0.8892
   44MOL0     C 5687   2.493   3.131   0.118  0.5765 -0.1008  0.1302
   44MOL0     C 5688   2.355   3.072   0.137 -0.2203  0.1025 -0.5600
   44MOL0     C 5689   2.249   3.154   0.072 -0.2499 -0.6526 -0.0779
   44MOL0     C 5690   2.131   3.178   0.174 -0.6288  0.3672  0.4806
   44MOL0     C 5691   2.050   3.054   0.200 -0.3528  1.1922  1.0447
   44MOL0     C 5692   1.994   2.980   0.081  0.6319 -0.0164  1.1774
   44MOL0     N 5693   1.903   3.065  -0.002 -0.4407  0.1938 -0.3764
   44MOL0     C 5694   1.763   3.063   0.012 -0.4345  0.3581  0.2766
   44MOL0     C 5695   1.715   3.149  -0.086  0.2445  1.3784  0.9028
   44MOL0     C 5696   1.574   3.198  -0.093 -1.4163  0.0709 -0.2522
   44MOL0     C 5697   1.503   3.129  -0.210 -0.3642  0.4840 -0.4720
   44MOL0     C 5698   1.374   3.205  -0.246 -0.0603 -0.5244  0.5863
   44MOL0     C 5699   1.306   3.122  -0.360  0.3750 -0.6304  0.2363
   44MOL0     O 5700   1.363   3.143  -0.494 -0.2161  0.3183 -0.4984
   44MOL0     C 5701   1.366   3.035  -0.574 -0.7945 -0.6511 -0.4060
   44MOL0     C 5702   1.250   2.998  -0.644  0.3629  0.4851  0.0238
   44MOL0     C 5703   1.250   2.881  -0.713 -0.5415  0.5308 -0.6335
   44MOL0     C 5704   1.360   2.795  -0.714  0.3920  0.5458  0.0540
   44MOL0     C 5705   1.342   2.673  -0.789  0.3594  0.8938  0.1870
   44MOL0     O 5706   1.217   2.637  -0.845  0.1760 -0.2008  0.4418
   44MOL0     C 5707   1.218   2.514  -0.917  0.2595  0.1209  0.7148
   44MOL0     C 5708   1.163   2.504  -1.050  0.1747 -0.3624  0.0944
   44MOL0     C 5709   1.146   2.380  -1.112 -0.2237  1.0578  0.6825
   44MOL0     C 5710   1.182   2.259  -1.043  0.3652  0.7302  1.1416
   44MOL0     O 5711   1.164   2.134  -1.096 -0.2245  0.4983 -0.8741
   44MOL0     C 5712   1.056   2.118  -1.181 -0.3149 -0.4164  0.3469
   44MOL0     C 5713   1.063   1.975  -1.235 -0.1125  0.2853 -1.0824
   44MOL0     C 5714   1.193   1.944  -1.315 -0.7543  0.5817  0.8105
   44MOL0     C 5715   1.201   1.789  -1.354 -0.0060 -0.2497 -0.3403
   44MOL0     C 5716   1.293   1.783  -1.471 -1.4093 -1.0203  1.2938
   44MOL0     C 5717   1.357   1.647  -1.497 -0.1404 -0.1557 -0.5442
   44MOL0     C 5718   1.481   1.621  -1.412 -0.6088 -0.1407  0.1114
   44MOL0     C 5719   1.542   1.484  -1.437  0.1011 -0.1113  0.1618
   44MOL0    Cl 5720   1.435   1.343  -1.424  0.3496 -0.0877 -0.4201
   44MOL0     C 5721   1.234   2.263  -0.911 -0.8095 -1.1797  0.4681
   44MOL0     C 5722   1.247   2.389  -0.855  0.3891 -0.7869 -0.1190
   44MOL0     O 5723   1.451   2.623  -0.817 -0.2929  0.2986 -0.0938
   44MOL0     C 5724   1.470   2.829  -0.636 -0.8176 -0.2469  0.1812
   44MOL0     C 5725   1.484   2.952  -0.576  0.5742 -0.2043 -0.1997
   44MOL0     N 5726   1.828   3.192  -0.160  0.8543 -0.3939  0.1416
   44MOL0     N 5727   1.937   3.137  -0.106 -0.1100  0.0194  0.4975
   44MOL0     C 5728   3.011   3.190   0.214  0.0171  0.2135  0.7897
   44MOL0     C 5729   3.151   3.233   0.224  0.3469  0.5054 -1.1441
   44MOL0     C 5730   3.557   3.342   0.480  0.8160  0.2070  0.2414
   44MOL0     C 5731   3.619   3.342   0.606  1.1084  0.3586  0.2665
   44MOL0     C 5732   3.760   3.368   0.609 -0.2363 -0.2133 -0.3531
   44MOL0     C 5733   3.841   3.372   0.496  0.5264  0.0725  0.4659
   44MOL0     O 5734   3.977   3.383   0.502  0.1471  0.2143  0.4151
   44MOL0     C 5735   4.031   3.256   0.524 -0.1593  0.3408  0.2690
   44MOL0     C 5736   4.161   3.260   0.604 -0.8713 -0.1157  0.0009
   44MOL0     C 5737   4.242   3.377   0.562  0.5274  0.5943  0.4337
   44MOL0     C 5738   4.382   3.394   0.627  0.9825 -0.1370  0.1928
   44MOL0     C 5739   4.476   3.285   0.600 -0.0443  0.4582  0.1235
   44MOL0     C 5740   4.536   3.183   0.582  0.2564  0.1249  0.2074
   44MOL0     C 5741   3.778   3.348   0.374  0.1660 -0.8502  0.0921
   44MOL0     C 5742   3.641   3.338   0.370  0.2385 -0.9947  1.3260
   44MOL0     H 5743   3.210   3.122   0.538  0.0190 -1.7693 -0.6837
   44MOL0     H 5744   2.980   3.054   0.515 -3.5696  1.5695 -0.2714
   44MOL0     H 5745   2.772   3.088   0.117 -0.7548  3.2881 -1.4309
   44MOL0     H 5746   2.716   3.240   0.194  1.1469  1.0561 -0.7444
   44MOL0     H 5747   2.559   3.067   0.311  0.4014  4.9193  0.8681
   44MOL0     H 5748   2.612   2.955   0.176  0.7725  0.6754 -0.8605
   44MOL0     H 5749   2.529   3.128   0.015 -0.9865 -0.1218 -0.4440
   44MOL0     H 5750   2.496   3.239   0.135  1.3284 -0.1482  0.3381
   44MOL0     H 5751   2.359   2.973   0.091 -0.4145 -0.0575 -0.2379
   44MOL0     H 5752   2.334   3.076   0.244  1.5652  2.4648 -0.2120
   44MOL0     H 5753   2.209   3.121  -0.024 -1.6049 -1.0310  0.5995
   44MOL0     H 5754   2.288   3.256   0.059  0.7476 -0.6943  2.2221
   44MOL0     H 5755   2.062   3.256   0.141 -0.8787 -0.5555 -1.3082
   44MOL0     H 5756   2.177   3.199   0.271  1.3521 -0.0756 -0.3037
   44MOL0     H 5757   2.123   2.992   0.252  0.1213  2.1543  1.5473
   44MOL0     H 5758   1.973   3.091   0.268 -1.3149 -0.8013  1.1316
   44MOL0     H 5759   1.934   2.894   0.113  3.1707 -2.8481 -1.0205
   44MOL0     H 5760   2.065   2.925   0.019 -1.5574 -1.6589 -0.0292
   44MOL0     H 5761   1.706   3.007   0.085 -4.5617 -0.2512 -2.9851
   44MOL0     H 5762   1.578   3.307  -0.109 -0.1679 -0.3635 -3.5445
   44MOL0     H 5763   1.521   3.163  -0.004 -1.0899  2.5895  1.0391
   44MOL0     H 5764   1.470   3.032  -0.171 -0.4243  0.9118  0.5807
   44MOL0     H 5765   1.568   3.110  -0.296  1.7594  0.8417  0.9745
   44MOL0     H 5766   1.309   3.226  -0.161 -1.3786 -0.9564 -0.2745
   44MOL0     H 5767   1.396   3.305  -0.286  4.7972 -2.4915 -2.5446
   44MOL0     H 5768   1.203   3.158  -0.357  0.5022 -0.0962 -0.9526
   44MOL0     H 5769   1.317   3.021  -0.321 -0.3165 -0.1708  1.6798
   44MOL0     H 5770   1.169   3.062  -0.612  0.1544 -0.5809  1.6934
   44MOL0     H 5771   1.163   2.853  -0.772 -1.2224  1.8920 -0.3216
   44MOL0     H 5772   1.138   2.595  -1.103  3.4716  0.9380  0.5443
   44MOL0     H 5773   1.094   2.372  -1.206 -2.7285 -3.2566  2.1297
   44MOL0     H 5774   1.061   2.175  -1.274  1.4658 -2.2926 -0.7824
   44MOL0     H 5775   0.961   2.137  -1.130 -0.3266  1.7374 -0.3998
   44MOL0     H 5776   0.975   1.942  -1.291 -0.9281  0.8193 -0.1531
   44MOL0     H 5777   1.067   1.911  -1.147  0.3442  3.1735  1.1659
   44MOL0     H 5778   1.284   1.969  -1.260  0.4492 -0.3530 -0.6821
   44MOL0     H 5779   1.176   1.994  -1.410 -1.1323 -1.6123 -0.3520
   44MOL0     H 5780   1.240   1.730  -1.270 -1.4280  1.2868  1.5099
   44MOL0     H 5781   1.099   1.751  -1.368  0.4271 -1.1769 -1.0395
   44MOL0     H 5782   1.380   1.841  -1.440  0.6018 -2.4140 -1.3231
   44MOL0     H 5783   1.247   1.826  -1.560  0.7852 -3.3931 -1.1521
   44MOL0     H 5784   1.386   1.656  -1.602 -0.2766 -0.6731 -0.6251
   44MOL0     H 5785   1.287   1.564  -1.487  0.1452 -0.3201  0.2051
   44MOL0     H 5786   1.552   1.699  -1.443 -2.4439  2.1074  1.2281
   44MOL0     H 5787   1.462   1.638  -1.306 -2.3550  3.0757 -0.5832
   44MOL0     H 5788   1.634   1.476  -1.377 -0.6654  1.7064  1.6650
   44MOL0     H 5789   1.572   1.494  -1.542 -0.1228  3.1923  0.3120
   44MOL0     H 5790   1.260   2.169  -0.864  1.5717 -0.5805  0.4495
   44MOL0     H 5791   1.266   2.387  -0.748 -1.1753 -3.3420  0.2054
   44MOL0     H 5792   1.556   2.763  -0.645 -0.4801  0.4364 -2.5219
   44MOL0     H 5793   1.570   2.975  -0.513 -0.4803  4.0096  0.0162
   44MOL0     H 5794   2.954   3.202   0.122  0.5822  0.4463  0.4663
   44MOL0     H 5795   3.203   3.270   0.136 -1.2391 -0.3048 -2.4725
   44MOL0     H 5796   3.562   3.343   0.699  0.4742 -2.5177  0.0168
   44MOL0     H 5797   3.815   3.398   0.698 -1.3153  0.1871  0.2110
   44MOL0     H 5798   4.052   3.197   0.435 -0.9944  0.4826 -0.0327
   44MOL0     H 5799   3.965   3.197   0.588 -0.9055 -1.5465 -2.0800
   44MOL0     H 5800   4.133   3.255   0.710  1.1249  0.7526  0.6054
   44MOL0     H 5801   4.219   3.173   0.571 -0.1600 -0.2608  1.5149
   44MOL0     H 5802   4.184   3.470   0.572  2.3751  1.5677  3.2966
   44MOL0     H 5803   4.256   3.372   0.454 -2.3376  0.8888 -0.0423
   44MOL0     H 5804   4.435   3.487   0.603  3.1927 -1.7457 -1.6759
   44MOL0     H 5805   4.368   3.404   0.735 -3.9128  2.1213 -0.4100
   44MOL0     H 5806   4.592   3.093   0.576 -0.8007 -0.5013 -0.4898
   44MOL0     H 5807   3.833   3.359   0.281 -0.0884  0.1170  0.0462
   44MOL0     H 5808   3.598   3.329   0.271 -1.8869 -2.0700  2.2611
   45MOL0     O 5809  10.698   9.703   8.292  0.7693 -0.4824  0.8416
   45MOL0     C 5810  10.686   9.804   8.223 -0.8436 -1.1968  0.0247
   45MOL0     O 5811  10.566   9.858   8.182 -0.5312 -0.5708  0.6294
   45MOL0     C 5812  10.443   9.810   8.203  0.2452  0.4998 -0.6582
   45MOL0     C 5813  10.338   9.884   8.277 -0.3385  1.1488  1.0893
   45MOL0     C 5814  10.218   9.827   8.299  0.0401  0.3402  0.6009
   45MOL0     C 5815  10.202   9.691   8.268 -0.0940 -0.2968 -1.0034
   45MOL0     O 5816  10.076   9.635   8.281 -0.4266 -0.2659 -0.0415
   45MOL0     C 5817   9.955   9.705   8.239 -0.5604 -1.2159 -0.9461
   45MOL0     C 5818   9.962   9.776   8.095  0.6032 -0.2134 -0.7483
   45MOL0     C 5819   9.825   9.811   8.040 -0.7280 -0.2923  0.4167
   45MOL0     C 5820   9.742   9.895   8.140 -0.1368  0.3807  0.0851
   45MOL0     C 5821   9.601   9.931   8.079  0.1329 -0.4891 -0.0740
   45MOL0     C 5822   9.514  10.014   8.176 -0.4444 -0.0627 -0.3676
   45MOL0     C 5823   9.371  10.015   8.126  0.4229  1.0260  0.0311
   45MOL0     C 5824   9.285  10.124   8.188 -0.0633 -0.3184 -0.6961
   45MOL0     N 5825   9.154  10.150   8.134 -0.1335 -0.7940  0.2568
   45MOL0     C 5826   9.142  10.200   8.006  0.1578  0.4618  0.9552
   45MOL0     C 5827   9.008  10.212   7.991  0.0803 -0.1559  0.3784
   45MOL0     C 5828   8.947  10.278   7.872  0.8421 -0.7401  0.3517
   45MOL0     C 5829   8.893  10.173   7.772  0.1443 -0.4303 -0.4258
   45MOL0     C 5830   8.827  10.242   7.649 -0.1273 -0.3699 -0.4076
   45MOL0     C 5831   8.716  10.169   7.588  0.4832 -0.8079 -0.1619
   45MOL0     O 5832   8.656  10.237   7.471 -0.1388  0.4013  0.4402
   45MOL0     C 5833   8.526  10.269   7.480  0.2980  0.7823 -0.1111
   45MOL0     C 5834   8.466  10.339   7.586  0.3223 -0.5343  0.3529
   45MOL0     C 5835   8.330  10.387   7.567 -0.8845  1.2925  0.5893
   45MOL0     C 5836   8.258  10.354   7.445  0.4398  0.0114 -0.0446
   45MOL0     C 5837   8.129  10.417   7.428  0.2029  0.5827  0.4735
   45MOL0     O 5838   8.054  10.457   7.524 -0.4074  0.0454  0.1948
   45MOL0     C 5839   7.928  10.508   7.503  0.0469  0.0122 -0.0790
   45MOL0     C 5840   7.809  10.442   7.535  0.4062 -0.3697 -0.1001
   45MOL0     C 5841   7.683  10.505   7.538  1.0009 -0.0844  1.2646
   45MOL0     C 5842   7.679  10.636   7.503  0.6464  0.1699  0.0797
   45MOL0     O 5843   7.563  10.707   7.525  0.1065  0.2894 -0.9691
   45MOL0     C 5844   7.469  10.655   7.626  0.7619 -0.6796 -1.2015
   45MOL0     C 5845   7.328  10.707   7.579  0.1229 -0.6909 -0.1432
   45MOL0     C 5846   7.238  10.723   7.706  0.7881 -0.0774  0.9418
   45MOL0     C 5847   7.095  10.778   7.667 -0.7125  0.2496  0.1792
   45MOL0     C 5848   7.012  10.792   7.799  0.7747 -1.0064 -0.6511
   45MOL0     C 5849   6.875  10.868   7.766 -0.5470 -0.0380  0.1070
   45MOL0     C 5850   6.896  11.010   7.706  0.4324  0.8069 -0.3260
   45MOL0     C 5851   6.764  11.077   7.687  0.1478  0.4204  0.0114
   45MOL0    Cl 5852   6.679  11.170   7.818  0.2832  0.2211 -0.1288
   45MOL0     C 5853   7.784  10.699   7.440 -0.1231 -0.5974  0.0690
   45MOL0     C 5854   7.907  10.634   7.438 -1.2288 -0.5344 -0.7669
   45MOL0     O 5855   8.089  10.413   7.314 -0.3843 -0.2369 -0.7563
   45MOL0     C 5856   8.326  10.283   7.343  0.7856  0.1151 -0.1480
   45MOL0     C 5857   8.457  10.236   7.361  0.1753 -0.0944  0.0992
   45MOL0     N 5858   8.945  10.151   8.093  0.6375 -0.2276  0.4798
   45MOL0     N 5859   9.036  10.117   8.181 -0.1447 -0.4277 -0.0152
   45MOL0     C 5860  10.306   9.614   8.227  1.3707  0.1860 -0.2324
   45MOL0     C 5861  10.417   9.673   8.179 -0.1442 -0.2351  0.7073
   45MOL0     C 5862  10.811   9.866   8.173 -0.4629 -0.7237 -0.0906
   45MOL0     C 5863  10.818  10.003   8.138 -0.2912  0.1170 -0.1066
   45MOL0     C 5864  10.931  10.062   8.082 -1.1985  0.5943  0.5603
   45MOL0     C 5865  11.044   9.987   8.081 -0.3295 -0.4713 -0.0684
   45MOL0     O 5866  11.161  10.046   8.034  0.2860  0.6125  0.5604
   45MOL0     C 5867  11.252   9.955   7.963 -0.4374 -0.1834 -0.4794
   45MOL0     C 5868  11.328  10.032   7.848  0.1776 -0.0136  0.7406
   45MOL0     C 5869  11.482  10.051   7.869 -0.4916  0.8371  0.8210
   45MOL0     C 5870  11.548  10.108   7.747 -0.4951 -0.1868  0.4650
   45MOL0     C 5871  11.570  10.007   7.650  0.2608  0.7748  0.0814
   45MOL0     C 5872  11.588   9.900   7.592 -0.3555  0.6811  0.2566
   45MOL0     C 5873  11.032   9.849   8.107  0.4673 -0.8087 -1.3506
   45MOL0     C 5874  10.921   9.786   8.154 -0.2171 -0.1172  0.2048
   45MOL0     H 5875  10.362   9.987   8.300 -2.2610  2.8286 -3.3537
   45MOL0     H 5876  10.144   9.890   8.347 -1.4721 -1.0525  0.1751
   45MOL0     H 5877   9.923   9.769   8.322  0.7084 -2.5851  0.6702
   45MOL0     H 5878   9.876   9.630   8.236 -3.3304  1.5238 -1.9538
   45MOL0     H 5879  10.017   9.703   8.034  1.0939  1.2033 -2.0623
   45MOL0     H 5880  10.024   9.864   8.114 -0.8895  0.5618  0.8589
   45MOL0     H 5881   9.768   9.721   8.016 -1.2810  0.4095 -1.0295
   45MOL0     H 5882   9.826   9.869   7.947 -2.0112 -0.0504  0.5254
   45MOL0     H 5883   9.723   9.840   8.233 -1.1491 -0.6410 -0.6867
   45MOL0     H 5884   9.805   9.984   8.153  0.1860  0.2259 -0.4182
   45MOL0     H 5885   9.551   9.836   8.056 -3.9357  1.5665 -0.6161
   45MOL0     H 5886   9.612   9.986   7.984  2.5136 -0.1576  0.3278
   45MOL0     H 5887   9.560  10.106   8.213  2.2683 -1.3452 -0.3297
   45MOL0     H 5888   9.497   9.963   8.271 -0.7340  2.4466  1.0175
   45MOL0     H 5889   9.391  10.036   8.020  0.5880  1.7761  0.2111
   45MOL0     H 5890   9.321   9.921   8.151  0.9849  0.2007 -1.7410
   45MOL0     H 5891   9.342  10.217   8.199  2.8025 -2.1425  1.3463
   45MOL0     H 5892   9.273  10.096   8.293 -1.1210 -2.0978 -1.2466
   45MOL0     H 5893   9.213  10.228   7.929 -0.5496 -0.9817 -0.2631
   45MOL0     H 5894   9.024  10.340   7.827 -1.3919  1.9952 -0.0287
   45MOL0     H 5895   8.865  10.341   7.909 -0.4128 -1.6634 -0.7594
   45MOL0     H 5896   8.811  10.116   7.817 -1.3237  1.5570 -0.4181
   45MOL0     H 5897   8.968  10.100   7.739  0.2086 -0.8128  0.5369
   45MOL0     H 5898   8.800  10.342   7.685  0.1430 -0.4882  0.1322
   45MOL0     H 5899   8.901  10.236   7.569 -1.6022 -2.5416 -1.7250
   45MOL0     H 5900   8.640  10.149   7.663 -2.3524  3.1387 -1.6390
   45MOL0     H 5901   8.761  10.072   7.563  1.8538  0.3546 -2.5718
   45MOL0     H 5902   8.520  10.367   7.676  0.3852 -1.3898  0.5870
   45MOL0     H 5903   8.284  10.450   7.643 -0.7188 -1.3787  3.1012
   45MOL0     H 5904   7.821  10.341   7.572 -0.4270  0.0465  1.3929
   45MOL0     H 5905   7.593  10.446   7.548 -0.3463  1.1197 -2.1653
   45MOL0     H 5906   7.480  10.696   7.727 -2.1972 -1.2434 -0.5533
   45MOL0     H 5907   7.455  10.548   7.640  0.4497 -0.8977 -2.8727
   45MOL0     H 5908   7.288  10.633   7.508  0.9116  1.0065 -2.5006
   45MOL0     H 5909   7.329  10.803   7.526 -3.0057  0.5800  1.8578
   45MOL0     H 5910   7.286  10.793   7.776  2.4899  0.5393 -0.7386
   45MOL0     H 5911   7.233  10.630   7.763 -0.2739 -2.1001 -2.1908
   45MOL0     H 5912   7.094  10.863   7.600  1.0494  0.4733  0.3941
   45MOL0     H 5913   7.057  10.690   7.614  1.5649 -0.2027 -0.8031
   45MOL0     H 5914   7.076  10.840   7.873 -0.9122 -1.5930  1.2672
   45MOL0     H 5915   6.972  10.698   7.839 -1.1990  0.0119 -0.0818
   45MOL0     H 5916   6.815  10.875   7.858 -0.4367 -2.1085  0.3662
   45MOL0     H 5917   6.831  10.796   7.697  0.9841 -1.0775  0.1810
   45MOL0     H 5918   6.950  11.078   7.773  0.1589 -1.2621  2.1851
   45MOL0     H 5919   6.946  11.011   7.609  1.4201  5.0921  0.0044
   45MOL0     H 5920   6.688  11.007   7.652  0.5895  0.7387 -1.7143
   45MOL0     H 5921   6.764  11.148   7.603 -1.1613 -1.6658 -1.8837
   45MOL0     H 5922   7.779  10.797   7.394 -1.9017 -1.6028 -2.0745
   45MOL0     H 5923   7.996  10.681   7.397 -1.4391  1.0717  0.5524
   45MOL0     H 5924   8.267  10.262   7.255  1.9236  1.3542 -1.2695
   45MOL0     H 5925   8.500  10.183   7.278  1.0582 -0.7268  0.9409
   45MOL0     H 5926  10.280   9.509   8.210  1.2844  0.5095 -2.2884
   45MOL0     H 5927  10.485   9.598   8.139 -1.1815  0.4131 -2.5884
   45MOL0     H 5928  10.729  10.063   8.149 -0.8609 -0.7488  0.0836
   45MOL0     H 5929  10.935  10.170   8.067  1.1326  0.1221 -4.3231
   45MOL0     H 5930  11.192   9.877   7.916  2.6323 -1.4359 -2.7040
   45MOL0     H 5931  11.319   9.911   8.038 -0.8716  1.0504  0.6484
   45MOL0     H 5932  11.306   9.981   7.754  1.0496 -1.1561  1.1356
   45MOL0     H 5933  11.284  10.132   7.853  0.5814  0.2262 -0.4138
   45MOL0     H 5934  11.518   9.951   7.893 -4.6802 -1.5773 -1.6559
   45MOL0     H 5935  11.503  10.120   7.951  0.6556  1.8835 -0.3125
   45MOL0     H 5936  11.485  10.185   7.703  0.1323  0.5970  0.9235
   45MOL0     H 5937  11.646  10.146   7.778 -1.5863  0.4106  3.5591
   45MOL0     H 5938  11.596   9.807   7.539  0.4779 -0.2490  1.9364
   45MOL0     H 5939  11.112   9.778   8.092  0.8238 -0.8850  0.6990
   45MOL0     H 5940  10.922   9.679   8.175 -0.2896 -0.6140 -2.0388
   46MOL0     O 5941  11.163   9.874   5.351 -0.1098 -0.1533  0.8129
   46MOL0     C 5942  11.219   9.964   5.416 -0.4125 -0.1381  0.1438
   46MOL0     O 5943  11.160  10.043   5.516 -0.4378  0.7472 -0.4686
   46MOL0     C 5944  11.032   9.995   5.551 -0.2245 -0.7152  0.1030
   46MOL0     C 5945  10.915  10.075   5.520 -0.1038 -0.7359  0.0561
   46MOL0     C 5946  10.790  10.030   5.568 -0.2955 -0.3169  0.7543
   46MOL0     C 5947  10.778   9.918   5.639  0.7171  0.9893 -0.1069
   46MOL0     O 5948  10.655   9.880   5.692 -0.1587 -0.3647  0.3655
   46MOL0     C 5949  10.536   9.882   5.614  0.3063  0.5082 -0.0367
   46MOL0     C 5950  10.424   9.806   5.697 -0.6202  0.7865  0.3823
   46MOL0     C 5951  10.363   9.899   5.802 -0.3082 -0.2385  0.1011
   46MOL0     C 5952  10.258   9.822   5.908  0.8670 -0.8730  0.2529
   46MOL0     C 5953  10.224   9.906   6.029  0.5249  0.1058  0.9159
   46MOL0     C 5954  10.139   9.827   6.128  0.6213  0.5731 -0.3374
   46MOL0     C 5955  10.117   9.885   6.267  0.5051  0.4044 -0.5634
   46MOL0     C 5956  10.037  10.018   6.254 -0.5998 -0.1837 -0.5256
   46MOL0     N 5957   9.892   9.996   6.241 -0.6475 -0.4561 -0.4843
   46MOL0     C 5958   9.804  10.080   6.175  0.8453 -0.1030  0.3507
   46MOL0     C 5959   9.676  10.030   6.215  0.0756  0.0845  0.4703
   46MOL0     C 5960   9.542  10.084   6.167  0.7860 -0.3645  0.2042
   46MOL0     C 5961   9.418   9.999   6.222 -0.3309  0.0222  0.2399
   46MOL0     C 5962   9.285  10.064   6.190  0.0930 -0.7459  0.6118
   46MOL0     C 5963   9.179   9.983   6.266  0.4813  0.2592  0.4818
   46MOL0     O 5964   9.044  10.032   6.232  0.2064 -0.2002  0.2862
   46MOL0     C 5965   8.930   9.987   6.296 -1.1103  0.0320 -0.1071
   46MOL0     C 5966   8.818  10.070   6.277  0.0974  0.6024 -0.0650
   46MOL0     C 5967   8.705  10.040   6.340  0.0520 -0.1627 -1.0832
   46MOL0     C 5968   8.699   9.935   6.437  0.7330 -0.2584  1.0501
   46MOL0     C 5969   8.568   9.900   6.499 -0.3114 -0.0581  0.0006
   46MOL0     O 5970   8.476   9.999   6.511  0.6223 -0.0029 -0.1178
   46MOL0     C 5971   8.352   9.972   6.569 -0.0579 -0.0026 -0.1437
   46MOL0     C 5972   8.306  10.002   6.700 -0.2819 -0.2351 -0.2948
   46MOL0     C 5973   8.185   9.957   6.745  0.5253 -0.4461 -0.5070
   46MOL0     C 5974   8.096   9.883   6.662 -0.9945 -0.8002  0.7390
   46MOL0     O 5975   7.972   9.850   6.716 -0.4681  0.0379 -0.0267
   46MOL0     C 5976   7.859   9.819   6.628  1.0323 -0.5814 -0.6761
   46MOL0     C 5977   7.729   9.794   6.712  0.5404 -0.4466  0.1658
   46MOL0     C 5978   7.611   9.747   6.623  0.1447 -0.0710  0.5323
   46MOL0     C 5979   7.477   9.774   6.686 -0.3105  0.3201 -0.5260
   46MOL0     C 5980   7.360   9.760   6.590 -0.7329  0.4688 -0.7426
   46MOL0     C 5981   7.222   9.715   6.645 -0.3400 -0.3065 -0.1016
   46MOL0     C 5982   7.226   9.575   6.688 -0.4401 -0.1280 -0.2380
   46MOL0     C 5983   7.098   9.512   6.667  0.5900  0.8687 -0.5173
   46MOL0    Cl 5984   7.074   9.481   6.487  0.0449 -0.0352  0.4172
   46MOL0     C 5985   8.137   9.852   6.524  0.2286 -0.0038 -0.7501
   46MOL0     C 5986   8.263   9.904   6.489 -0.8091  0.1387  0.0936
   46MOL0     O 5987   8.558   9.781   6.527  0.1573 -0.3514  0.4516
   46MOL0     C 5988   8.812   9.863   6.454 -0.3615  0.2237 -0.0264
   46MOL0     C 5989   8.936   9.893   6.396 -0.6614  0.0572  0.0565
   46MOL0     N 5990   9.700   9.937   6.311  0.2899  0.2082 -0.6223
   46MOL0     N 5991   9.822   9.912   6.319  0.3147 -0.3510  0.2074
   46MOL0     C 5992  10.892   9.843   5.679 -0.1253 -0.4685  0.1310
   46MOL0     C 5993  11.018   9.882   5.634 -0.2146 -0.6134 -0.2326
   46MOL0     C 5994  11.361   9.983   5.395 -0.1053 -0.2320  0.0901
   46MOL0     C 5995  11.453   9.884   5.364  0.3756 -0.2657  0.1073
   46MOL0     C 5996  11.583   9.911   5.354  0.2963  0.1110 -0.5136
   46MOL0     C 5997  11.634  10.041   5.363 -0.0695  0.4516 -0.1759
   46MOL0     O 5998  11.768  10.065   5.346 -0.1698  0.2642 -0.0874
   46MOL0     C 5999  11.867   9.975   5.291 -0.0482  0.0776  0.8286
   46MOL0     C 6000  11.828   9.932   5.154 -0.7866 -0.1241 -0.3783
   46MOL0     C 6001  11.948   9.891   5.063  0.8053 -0.4265 -0.2435
   46MOL0     C 6002  12.039   9.777   5.103 -0.1103  0.1982 -0.9483
   46MOL0     C 6003  11.959   9.657   5.136 -0.4329  0.3026 -0.8347
   46MOL0     C 6004  11.898   9.548   5.156 -0.7044  0.4755  0.3033
   46MOL0     C 6005  11.546  10.139   5.390 -0.6637 -0.8550 -0.6140
   46MOL0     C 6006  11.412  10.113   5.412  0.5584 -0.4994 -0.5698
   46MOL0     H 6007  10.929  10.175   5.481 -0.1078  0.0454  1.9228
   46MOL0     H 6008  10.701  10.091   5.555  0.7688  1.0236 -0.4637
   46MOL0     H 6009  10.541   9.830   5.518 -0.1859  2.3395 -1.0916
   46MOL0     H 6010  10.502   9.982   5.588 -0.4327 -0.0376 -1.2613
   46MOL0     H 6011  10.470   9.720   5.747  0.4627  1.7064  1.0018
   46MOL0     H 6012  10.335   9.777   5.640 -1.4689  0.4896  1.8151
   46MOL0     H 6013  10.310   9.980   5.751  1.6660  0.6674 -0.5905
   46MOL0     H 6014  10.444   9.928   5.870  1.8450 -2.2966 -1.4451
   46MOL0     H 6015  10.177   9.791   5.842  2.8879 -2.2072 -1.7826
   46MOL0     H 6016  10.296   9.725   5.941 -0.4680 -1.3175  0.5308
   46MOL0     H 6017  10.179  10.001   5.999 -1.0523 -0.8196  0.2056
   46MOL0     H 6018  10.317   9.928   6.082  1.7261 -2.4170  0.0065
   46MOL0     H 6019  10.184   9.730   6.148  1.6557  1.0226 -0.4272
   46MOL0     H 6020  10.049   9.797   6.073  0.9481  3.4398 -2.7316
   46MOL0     H 6021  10.057   9.813   6.323 -4.0628  3.5979 -0.7755
   46MOL0     H 6022  10.210   9.910   6.318  0.2051  2.0977 -0.7570
   46MOL0     H 6023  10.078  10.076   6.171  2.9169  0.1022  1.2271
   46MOL0     H 6024  10.056  10.081   6.341 -2.2709  1.2608 -1.1623
   46MOL0     H 6025   9.820  10.157   6.099  0.7743 -1.0266 -0.6189
   46MOL0     H 6026   9.541  10.086   6.058  0.7214  2.0314  0.1774
   46MOL0     H 6027   9.535  10.188   6.201  0.4690 -0.0287 -0.8619
   46MOL0     H 6028   9.435   9.978   6.328  1.6062 -2.5388 -0.4894
   46MOL0     H 6029   9.421   9.899   6.178  0.6335  0.5166 -0.8844
   46MOL0     H 6030   9.280  10.169   6.221 -0.8086  0.0898 -2.1500
   46MOL0     H 6031   9.267  10.063   6.083  1.7922 -1.4758  0.3049
   46MOL0     H 6032   9.210   9.977   6.370  2.2987 -0.5312 -0.0545
   46MOL0     H 6033   9.173   9.881   6.225 -2.8271  0.2320  0.8137
   46MOL0     H 6034   8.819  10.143   6.197  1.8638  1.2528  0.5157
   46MOL0     H 6035   8.620  10.101   6.312  0.0170 -0.3326 -1.3480
   46MOL0     H 6036   8.370  10.041   6.778 -0.1840 -1.3160  0.1882
   46MOL0     H 6037   8.175   9.969   6.853 -1.0267  1.1645 -0.7679
   46MOL0     H 6038   7.881   9.729   6.569 -2.2255 -0.6887 -1.9353
   46MOL0     H 6039   7.838   9.905   6.564  3.0076  1.0431  0.7518
   46MOL0     H 6040   7.704   9.885   6.767  0.6983  1.0208 -2.0776
   46MOL0     H 6041   7.744   9.713   6.783  0.0118 -2.5934 -2.0140
   46MOL0     H 6042   7.626   9.641   6.604  0.6612  0.2715 -1.2265
   46MOL0     H 6043   7.630   9.793   6.525  0.5699 -0.2262  0.5407
   46MOL0     H 6044   7.459   9.694   6.759  3.3361 -0.2868 -0.0777
   46MOL0     H 6045   7.477   9.873   6.734 -3.2847 -0.4222  1.2876
   46MOL0     H 6046   7.397   9.694   6.510 -3.4282 -0.8438 -1.0328
   46MOL0     H 6047   7.342   9.856   6.541  0.3184  0.8415 -0.4321
   46MOL0     H 6048   7.148   9.726   6.565 -2.0325  2.4214  1.7017
   46MOL0     H 6049   7.187   9.769   6.733  3.2513  1.8898  0.1868
   46MOL0     H 6050   7.302   9.511   6.643 -1.0149 -2.3185  1.7098
   46MOL0     H 6051   7.261   9.581   6.791 -0.7038  2.3045 -0.2216
   46MOL0     H 6052   7.017   9.565   6.719  1.3536 -2.4341  4.8395
   46MOL0     H 6053   7.120   9.417   6.717  0.6958  1.6319  0.9732
   46MOL0     H 6054   8.064   9.800   6.462 -1.6315  1.4017  0.1430
   46MOL0     H 6055   8.298   9.884   6.388 -0.4395 -1.7490  0.5509
   46MOL0     H 6056   8.812   9.792   6.537  1.1660 -2.4954 -2.2056
   46MOL0     H 6057   9.026   9.845   6.432 -0.0373 -0.6871 -2.3179
   46MOL0     H 6058  10.870   9.752   5.735  2.1870 -0.7665  0.6209
   46MOL0     H 6059  11.108   9.824   5.654  1.7422  2.0985 -0.5610
   46MOL0     H 6060  11.414   9.783   5.361  0.8914 -0.4647  0.1206
   46MOL0     H 6061  11.649   9.830   5.326 -1.4391 -0.2493 -4.1270
   46MOL0     H 6062  11.860   9.884   5.352 -1.1120 -0.1206  0.4442
   46MOL0     H 6063  11.968  10.016   5.291  1.1993 -2.6786 -0.4641
   46MOL0     H 6064  11.761   9.848   5.172  0.1811 -0.3260  2.9798
   46MOL0     H 6065  11.776  10.017   5.108 -1.7883 -0.0729  0.8044
   46MOL0     H 6066  11.990   9.990   5.043 -1.4965  0.7614  0.4375
   46MOL0     H 6067  11.908   9.868   4.964 -0.9069  1.9363 -0.2058
   46MOL0     H 6068  12.107   9.751   5.022  2.6498  0.0041  1.2821
   46MOL0     H 6069  12.096   9.814   5.189 -1.4656  0.0529  0.0583
   46MOL0     H 6070  11.837   9.461   5.162 -2.6697  1.7709  0.0792
   46MOL0     H 6071  11.564  10.245   5.404 -1.7782 -0.5351 -1.4355
   46MOL0     H 6072  11.347  10.196   5.441  2.2434  0.4804  0.5270
   47MOL0     O 6073   5.094   1.379   6.031 -0.2998  1.4367 -0.0044
   47MOL0     C 6074   5.157   1.274   6.063  0.4633 -0.0056  0.2846
   47MOL0     O 6075   5.116   1.149   6.028 -0.1879  0.0822 -0.4671
   47MOL0     C 6076   4.991   1.127   5.980 -0.4565 -0.2278 -0.0264
   47MOL0     C 6077   4.963   1.167   5.852 -1.4853 -0.1135 -0.3632
   47MOL0     C 6078   4.833   1.161   5.794 -0.4839  0.1075 -0.4234
   47MOL0     C 6079   4.732   1.107   5.869  0.0829 -1.5099 -0.5576
   47MOL0     O 6080   4.607   1.081   5.828  0.3068  0.2063 -0.5008
   47MOL0     C 6081   4.566   1.111   5.689 -0.4573  0.1230 -1.0523
   47MOL0     C 6082   4.582   0.983   5.603  0.6454 -1.3044 -0.2950
   47MOL0     C 6083   4.512   0.870   5.666 -0.1200 -0.0477 -0.3011
   47MOL0     C 6084   4.527   0.756   5.555 -0.0831  0.2731  0.1327
   47MOL0     C 6085   4.521   0.613   5.614  0.0194  1.1758  0.1045
   47MOL0     C 6086   4.592   0.499   5.530  0.0606 -0.2244  0.4109
   47MOL0     C 6087   4.744   0.521   5.530  0.2920  0.4994  0.2842
   47MOL0     C 6088   4.812   0.412   5.443  0.3678 -0.8361  0.7271
   47MOL0     N 6089   4.962   0.430   5.418  0.1420 -0.4736 -0.1293
   47MOL0     C 6090   5.042   0.322   5.382  0.8929  0.0397 -0.3030
   47MOL0     C 6091   5.167   0.381   5.361 -0.3717 -0.5053  1.1018
   47MOL0     C 6092   5.302   0.310   5.334 -0.3815 -0.7327  0.9098
   47MOL0     C 6093   5.288   0.179   5.263  0.3409 -0.0471  0.1546
   47MOL0     C 6094   5.414   0.095   5.241  0.6697  0.3503 -0.4305
   47MOL0     C 6095   5.494   0.061   5.370 -0.7866  0.9518 -0.1840
   47MOL0     O 6096   5.599  -0.026   5.324 -0.4838  0.2749  0.6789
   47MOL0     C 6097   5.736   0.012   5.320  1.3279  0.6867  0.4105
   47MOL0     C 6098   5.789   0.098   5.418  0.4594  0.2068 -0.2570
   47MOL0     C 6099   5.924   0.136   5.416  1.0114 -0.4966 -0.3733
   47MOL0     C 6100   6.015   0.077   5.325  0.1372  0.4532 -0.0591
   47MOL0     C 6101   6.161   0.112   5.339  0.1607 -0.1143  0.1733
   47MOL0     O 6102   6.196   0.192   5.446 -0.4008  1.5669 -0.3379
   47MOL0     C 6103   6.330   0.190   5.485 -0.9820  0.2820 -0.1749
   47MOL0     C 6104   6.354   0.206   5.625 -0.8854 -0.5623 -0.1846
   47MOL0     C 6105   6.479   0.192   5.682 -0.1188 -0.1815  0.7775
   47MOL0     C 6106   6.590   0.175   5.599 -0.4146  0.5026 -0.1133
   47MOL0     O 6107   6.715   0.145   5.646 -0.4688  0.0683  0.5129
   47MOL0     C 6108   6.726   0.052   5.754 -0.2727 -0.2365  0.2925
   47MOL0     C 6109   6.828  -0.058   5.711  0.3273  1.2209  0.4737
   47MOL0     C 6110   6.965  -0.013   5.704  0.1215  1.3113 -0.1980
   47MOL0     C 6111   7.046  -0.108   5.605 -0.1934  0.3236  0.8115
   47MOL0     C 6112   7.193  -0.120   5.622 -0.0460  0.5202 -0.0196
   47MOL0     C 6113   7.252   0.001   5.551  0.3531 -0.6258 -0.3408
   47MOL0     C 6114   7.293  -0.019   5.408 -0.0396  0.0580  0.2023
   47MOL0     C 6115   7.426  -0.084   5.374 -0.3213  0.4606  0.3890
   47MOL0    Cl 6116   7.422  -0.262   5.373 -0.0488 -0.0261  0.5382
   47MOL0     C 6117   6.580   0.175   5.455  0.3576 -0.8611  0.4668
   47MOL0     C 6118   6.444   0.174   5.403 -0.6862 -0.6052 -0.1995
   47MOL0     O 6119   6.242   0.050   5.268  0.4071  0.5603 -0.2890
   47MOL0     C 6120   5.963  -0.015   5.232 -0.7611  0.2330 -1.5116
   47MOL0     C 6121   5.825  -0.045   5.223  0.8853 -0.5426  0.5082
   47MOL0     N 6122   5.149   0.521   5.377  1.1698  0.5798 -0.0880
   47MOL0     N 6123   5.033   0.548   5.425 -0.9786  1.0311  0.5431
   47MOL0     C 6124   4.757   1.066   6.005  0.6946 -0.9724 -0.2843
   47MOL0     C 6125   4.887   1.078   6.061 -0.3932 -0.5164  0.1218
   47MOL0     C 6126   5.286   1.284   6.118  0.5048  0.0724 -0.6494
   47MOL0     C 6127   5.352   1.402   6.153 -0.3883  0.0299  0.2304
   47MOL0     C 6128   5.473   1.402   6.219  0.7373 -0.2693 -0.7892
   47MOL0     C 6129   5.538   1.288   6.248 -0.1843 -0.3387 -0.0411
   47MOL0     O 6130   5.656   1.300   6.316 -0.3919 -0.2382 -0.1680
   47MOL0     C 6131   5.694   1.166   6.366 -0.4715  0.2035 -0.1804
   47MOL0     C 6132   5.821   1.202   6.444 -0.3268 -0.2381  1.0170
   47MOL0     C 6133   5.890   1.073   6.479 -0.2649  0.2275 -0.5966
   47MOL0     C 6134   6.019   1.094   6.562  0.1252 -0.3786 -1.6050
   47MOL0     C 6135   6.136   1.117   6.480 -0.4070  1.2731  0.3647
   47MOL0     C 6136   6.229   1.115   6.398  0.7809 -0.4173  0.1955
   47MOL0     C 6137   5.476   1.168   6.209 -0.3805  0.4104  0.7853
   47MOL0     C 6138   5.350   1.164   6.148 -0.0472 -0.4603  0.2321
   47MOL0     H 6139   5.047   1.211   5.798 -2.6193  0.1893 -1.9699
   47MOL0     H 6140   4.812   1.191   5.692 -0.8887 -0.2053 -0.4350
   47MOL0     H 6141   4.615   1.204   5.658 -0.2057  0.7832  1.1485
   47MOL0     H 6142   4.459   1.133   5.693 -0.6637 -0.8861 -0.6953
   47MOL0     H 6143   4.691   0.968   5.599  0.7409 -1.5267  1.8378
   47MOL0     H 6144   4.540   1.010   5.506 -3.3389  0.8256  1.7778
   47MOL0     H 6145   4.406   0.884   5.691  0.0638 -1.9626  1.8979
   47MOL0     H 6146   4.562   0.840   5.758  1.1990 -2.9692 -1.8093
   47MOL0     H 6147   4.450   0.760   5.477  2.1236  0.5786 -2.1437
   47MOL0     H 6148   4.625   0.756   5.508 -0.5802  2.0218 -0.9767
   47MOL0     H 6149   4.417   0.580   5.625  0.5162 -0.3081  0.6836
   47MOL0     H 6150   4.573   0.614   5.711  3.5920 -1.7602 -1.5063
   47MOL0     H 6151   4.554   0.520   5.429  0.1503  2.2150  0.8123
   47MOL0     H 6152   4.557   0.401   5.564  2.9091 -0.9520  1.5558
   47MOL0     H 6153   4.771   0.615   5.481  2.8809  0.1601  0.9388
   47MOL0     H 6154   4.783   0.525   5.632 -1.2285  1.6400  0.8604
   47MOL0     H 6155   4.764   0.424   5.345  0.7160  1.7328  0.7874
   47MOL0     H 6156   4.797   0.310   5.477  1.2628 -1.1456  0.2196
   47MOL0     H 6157   5.018   0.217   5.369 -1.0333  0.2447  1.2959
   47MOL0     H 6158   5.350   0.287   5.429  1.6182  0.2499  0.1855
   47MOL0     H 6159   5.369   0.382   5.287 -0.9363 -0.5500  0.3895
   47MOL0     H 6160   5.250   0.200   5.162 -2.1176 -2.2302  0.5246
   47MOL0     H 6161   5.214   0.119   5.317  0.3891  0.9614  1.3928
   47MOL0     H 6162   5.380  -0.003   5.207 -0.5546  0.5288  0.2242
   47MOL0     H 6163   5.487   0.128   5.166 -2.1039  0.4561 -3.2976
   47MOL0     H 6164   5.445   0.006   5.449  1.5805 -1.5895 -0.3341
   47MOL0     H 6165   5.523   0.160   5.408 -1.7976  0.4738  1.9202
   47MOL0     H 6166   5.716   0.135   5.489  2.3583 -1.3344  2.7054
   47MOL0     H 6167   5.958   0.215   5.482 -2.0568  1.6930 -1.2218
   47MOL0     H 6168   6.269   0.210   5.693  0.3804  0.6193  1.4164
   47MOL0     H 6169   6.491   0.187   5.790 -1.5833  0.4874  0.9895
   47MOL0     H 6170   6.632   0.001   5.777  1.0798 -3.6230 -1.0806
   47MOL0     H 6171   6.762   0.111   5.839 -0.1458  0.8016 -0.4528
   47MOL0     H 6172   6.801  -0.106   5.616  0.1719 -1.5280  1.8186
   47MOL0     H 6173   6.823  -0.133   5.790  1.7429  2.1785  1.5125
   47MOL0     H 6174   7.013  -0.012   5.803  0.7758  2.6736 -0.5001
   47MOL0     H 6175   6.951   0.085   5.658 -0.7748 -0.0973 -3.1706
   47MOL0     H 6176   7.002  -0.208   5.617 -1.6790  0.9294  0.6631
   47MOL0     H 6177   7.017  -0.085   5.502 -3.2332 -1.3238  1.2003
   47MOL0     H 6178   7.225  -0.213   5.575 -1.8528 -0.3435  0.3752
   47MOL0     H 6179   7.209  -0.126   5.730  1.0231  1.2298 -0.1213
   47MOL0     H 6180   7.344   0.036   5.600 -1.2291 -1.2234  3.3631
   47MOL0     H 6181   7.187   0.086   5.572  0.5855 -1.0208  2.3864
   47MOL0     H 6182   7.209  -0.065   5.356 -0.9491  2.1362 -0.2616
   47MOL0     H 6183   7.300   0.083   5.369  2.4693  0.0690  0.4958
   47MOL0     H 6184   7.503  -0.045   5.441  0.3352  2.8382 -1.6000
   47MOL0     H 6185   7.461  -0.053   5.275 -0.6273 -1.5679 -0.4124
   47MOL0     H 6186   6.665   0.190   5.389  0.6835 -0.0282  1.0470
   47MOL0     H 6187   6.434   0.177   5.295  3.8400 -2.3274 -0.8578
   47MOL0     H 6188   6.034  -0.077   5.178  2.7213 -1.0454  3.7977
   47MOL0     H 6189   5.784  -0.121   5.157  0.6044 -0.5965  0.7445
   47MOL0     H 6190   4.674   1.024   6.061 -0.8744  1.2484 -0.8105
   47MOL0     H 6191   4.902   1.057   6.166  2.3110  1.0481  0.1466
   47MOL0     H 6192   5.311   1.498   6.127 -1.4198 -0.4530  0.0196
   47MOL0     H 6193   5.509   1.500   6.250 -2.6551  0.9967 -0.3723
   47MOL0     H 6194   5.733   1.106   6.283  1.7534 -0.0230  0.9569
   47MOL0     H 6195   5.620   1.112   6.425 -0.6297  1.3800  0.7394
   47MOL0     H 6196   5.881   1.263   6.376  0.7730 -1.0305  1.2433
   47MOL0     H 6197   5.784   1.254   6.532  0.4886  2.7951 -0.3144
   47MOL0     H 6198   5.907   1.004   6.396  0.3515  0.3622 -0.5843
   47MOL0     H 6199   5.825   1.019   6.549  2.0837  0.6515  2.0889
   47MOL0     H 6200   6.010   1.180   6.629 -0.2607 -0.1363 -1.9614
   47MOL0     H 6201   6.031   1.008   6.628 -2.1817 -0.0875 -0.7144
   47MOL0     H 6202   6.312   1.119   6.331 -0.9210 -0.9022 -2.0306
   47MOL0     H 6203   5.514   1.068   6.227 -3.4101 -1.0203 -0.1309
   47MOL0     H 6204   5.313   1.063   6.144  2.8514 -1.5909 -0.4605
   48MOL0     O 6205   9.512   7.904   5.441 -0.8499 -0.3393 -0.2966
   48MOL0     C 6206   9.523   8.013   5.387  0.3163  0.3651  0.1836
   48MOL0     O 6207   9.423   8.090   5.336 -0.0590  0.1931  0.5382
   48MOL0     C 6208   9.287   8.065   5.345 -0.1300 -0.4295 -0.7817
   48MOL0     C 6209   9.206   8.110   5.245 -0.4614  0.0123  0.6952
   48MOL0     C 6210   9.067   8.083   5.246  0.0311  0.1811  0.1624
   48MOL0     C 6211   9.014   8.020   5.353  0.7374 -0.1018  0.3211
   48MOL0     O 6212   8.880   7.998   5.368  0.2658  0.4235  0.1926
   48MOL0     C 6213   8.799   7.956   5.256  0.4754 -0.1332 -0.7820
   48MOL0     C 6214   8.657   7.914   5.307 -0.5504  0.4370 -0.6576
   48MOL0     C 6215   8.568   7.908   5.188 -0.4685 -0.0748 -0.0678
   48MOL0     C 6216   8.429   7.853   5.231 -0.3093  0.6664  0.9223
   48MOL0     C 6217   8.345   7.823   5.102  0.5337  0.0296  1.0555
   48MOL0     C 6218   8.186   7.827   5.121 -0.1675  0.7285 -0.0702
   48MOL0     C 6219   8.145   7.786   5.266  0.1554  0.2338  0.3611
   48MOL0     C 6220   7.990   7.770   5.278 -0.3383 -0.6191  0.6628
   48MOL0     N 6221   7.942   7.644   5.212 -0.1884 -0.2221  0.0807
   48MOL0     C 6222   7.971   7.518   5.259 -0.7313  0.6263  0.1028
   48MOL0     C 6223   7.927   7.442   5.158 -0.5307  0.5832  0.6137
   48MOL0     C 6224   7.940   7.288   5.171 -0.2519 -0.2955 -1.4882
   48MOL0     C 6225   7.926   7.228   5.315 -0.5352 -0.1383 -0.6146
   48MOL0     C 6226   7.923   7.070   5.310  0.1015 -0.4551  0.7487
   48MOL0     C 6227   7.908   6.995   5.446 -0.5327  0.0195  0.6873
   48MOL0     O 6228   7.894   7.083   5.561  0.7066  0.2473  0.1120
   48MOL0     C 6229   7.766   7.125   5.611 -0.2936  0.5052  0.0454
   48MOL0     C 6230   7.775   7.173   5.738  0.8470 -0.6998 -0.0434
   48MOL0     C 6231   7.662   7.232   5.799  1.1317 -0.0539  0.6665
   48MOL0     C 6232   7.544   7.255   5.729  0.2372 -0.5495  0.3039
   48MOL0     C 6233   7.434   7.336   5.798  0.2184 -0.0448  0.1931
   48MOL0     O 6234   7.318   7.320   5.724  0.0302 -0.4664 -0.3091
   48MOL0     C 6235   7.205   7.363   5.793 -0.1030  0.2335  0.9148
   48MOL0     C 6236   7.160   7.280   5.896 -0.4917 -1.0962 -0.3977
   48MOL0     C 6237   7.057   7.328   5.976  0.6525  0.1749  0.1663
   48MOL0     C 6238   6.992   7.449   5.949 -0.3903 -0.6985  0.2290
   48MOL0     O 6239   6.889   7.484   6.031 -0.5176  0.1101 -0.7814
   48MOL0     C 6240   6.917   7.539   6.159  0.1199 -0.1463 -0.4478
   48MOL0     C 6241   6.808   7.476   6.255  0.7914  0.2770 -1.1062
   48MOL0     C 6242   6.820   7.521   6.398  0.1999 -1.1917  0.0458
   48MOL0     C 6243   6.764   7.438   6.510  1.0179  0.2775  0.1409
   48MOL0     C 6244   6.781   7.497   6.646 -0.2395  0.0364 -0.5144
   48MOL0     C 6245   6.701   7.413   6.752  0.2392  0.0838 -0.1782
   48MOL0     C 6246   6.701   7.472   6.894  0.0964 -0.2820 -0.6339
   48MOL0     C 6247   6.645   7.366   6.994 -0.1057 -0.8768  0.0282
   48MOL0    Cl 6248   6.768   7.237   7.020  0.2907  0.1974  0.3182
   48MOL0     C 6249   7.037   7.526   5.844 -0.3701 -0.8096 -0.2238
   48MOL0     C 6250   7.134   7.476   5.753  0.4650 -0.3334 -0.2925
   48MOL0     O 6251   7.440   7.395   5.905 -0.4442  0.0068  0.0193
   48MOL0     C 6252   7.540   7.207   5.596 -0.0339  0.0412 -0.2800
   48MOL0     C 6253   7.644   7.133   5.538 -0.2527 -0.7378  1.1130
   48MOL0     N 6254   7.877   7.515   5.051 -0.2966 -0.5168  0.2533
   48MOL0     N 6255   7.897   7.637   5.083  0.4899 -0.3028  0.0293
   48MOL0     C 6256   9.095   7.967   5.450 -0.7398 -0.6417  1.0487
   48MOL0     C 6257   9.233   7.997   5.454  0.3993  0.1964  0.7511
   48MOL0     C 6258   9.654   8.064   5.349  0.2594 -0.9321 -0.4654
   48MOL0     C 6259   9.774   8.017   5.410 -0.1068  1.5260  0.7067
   48MOL0     C 6260   9.891   8.080   5.388 -0.1619 -0.6321 -0.1209
   48MOL0     C 6261   9.900   8.179   5.290 -0.4059  0.5708 -0.3771
   48MOL0     O 6262  10.028   8.231   5.262 -0.2601 -0.4935  0.5852
   48MOL0     C 6263  10.070   8.255   5.122  0.0832 -0.6076  0.5297
   48MOL0     C 6264  10.164   8.148   5.068  0.3393 -0.0610  0.4218
   48MOL0     C 6265  10.299   8.171   5.130  0.4817  0.6108 -0.6009
   48MOL0     C 6266  10.392   8.054   5.103 -0.3928  0.1347 -0.2643
   48MOL0     C 6267  10.344   7.950   5.191 -0.5240 -0.1897  1.0816
   48MOL0     C 6268  10.293   7.862   5.261 -0.2483 -0.2702  0.4567
   48MOL0     C 6269   9.785   8.225   5.230 -0.3884 -0.1918  0.2968
   48MOL0     C 6270   9.662   8.173   5.264  0.0812  0.3680 -0.7982
   48MOL0     H 6271   9.261   8.154   5.163 -0.0051 -0.6454  0.6390
   48MOL0     H 6272   8.989   8.113   5.177 -1.0028 -1.0567  0.7562
   48MOL0     H 6273   8.849   7.869   5.211 -2.2090 -4.0473  3.0260
   48MOL0     H 6274   8.788   8.030   5.176 -0.6401 -0.1722 -0.6776
   48MOL0     H 6275   8.623   7.988   5.380 -0.7351 -1.5122  1.3320
   48MOL0     H 6276   8.650   7.824   5.367 -0.0506  3.0081  3.6814
   48MOL0     H 6277   8.616   7.843   5.115 -0.9500 -3.2422  2.1931
   48MOL0     H 6278   8.537   8.001   5.140 -2.4829 -1.2890 -1.3055
   48MOL0     H 6279   8.437   7.757   5.282 -0.0655 -0.1961 -0.6794
   48MOL0     H 6280   8.374   7.922   5.296 -2.7624 -1.8800  1.7469
   48MOL0     H 6281   8.382   7.734   5.051 -0.4643  1.0257 -1.6057
   48MOL0     H 6282   8.368   7.900   5.027  0.0701  1.8263  2.6651
   48MOL0     H 6283   8.145   7.758   5.046 -2.7170  0.5801  1.3541
   48MOL0     H 6284   8.153   7.925   5.088 -3.5815 -0.4147 -0.4228
   48MOL0     H 6285   8.199   7.696   5.298  1.0427  1.3977  2.3859
   48MOL0     H 6286   8.170   7.869   5.333 -0.7915  2.2435 -1.6476
   48MOL0     H 6287   7.939   7.854   5.231 -1.4052 -3.0021 -2.8076
   48MOL0     H 6288   7.959   7.762   5.383 -1.4798 -0.6147  0.3379
   48MOL0     H 6289   8.006   7.493   5.358  0.2678  2.7965  0.3636
   48MOL0     H 6290   8.034   7.252   5.129  0.5153 -0.2023  0.0648
   48MOL0     H 6291   7.857   7.252   5.109 -4.1172  1.9837  1.8245
   48MOL0     H 6292   7.826   7.249   5.354 -2.1060 -0.7174 -3.9914
   48MOL0     H 6293   8.001   7.273   5.381  0.4177 -0.2869 -1.5695
   48MOL0     H 6294   7.842   7.033   5.247 -0.9006  0.6397  1.3565
   48MOL0     H 6295   8.018   7.033   5.270 -1.3679 -3.0656 -0.5684
   48MOL0     H 6296   7.993   6.926   5.455 -1.8771 -1.6540  1.0671
   48MOL0     H 6297   7.821   6.928   5.447 -0.4814 -0.4195  5.8461
   48MOL0     H 6298   7.865   7.155   5.796  0.5073  0.5764  0.9152
   48MOL0     H 6299   7.669   7.267   5.901  2.4340  2.0746 -0.0959
   48MOL0     H 6300   7.192   7.176   5.894 -1.3709 -1.3702 -1.0752
   48MOL0     H 6301   7.033   7.270   6.064  4.0496 -0.6288  0.7281
   48MOL0     H 6302   6.885   7.642   6.140 -4.7246 -1.8216 -3.2531
   48MOL0     H 6303   7.019   7.527   6.199 -1.5553 -4.2977  3.4759
   48MOL0     H 6304   6.827   7.369   6.251 -0.4942  0.0429 -1.2527
   48MOL0     H 6305   6.707   7.506   6.225 -1.1442 -0.7811  3.4915
   48MOL0     H 6306   6.772   7.615   6.423  2.6210  0.8517 -2.2819
   48MOL0     H 6307   6.925   7.535   6.427  0.1162  0.6894 -0.4445
   48MOL0     H 6308   6.660   7.408   6.493  0.7545  0.1223  1.8261
   48MOL0     H 6309   6.797   7.333   6.511 -0.1291 -0.1076 -0.3237
   48MOL0     H 6310   6.744   7.600   6.653 -1.8407 -0.5844  0.6390
   48MOL0     H 6311   6.887   7.505   6.674  0.4595 -0.9921 -2.6698
   48MOL0     H 6312   6.752   7.316   6.755 -0.6451 -0.4447 -1.4023
   48MOL0     H 6313   6.602   7.390   6.711  0.3972  2.3751 -2.0575
   48MOL0     H 6314   6.801   7.505   6.924  1.1577 -2.0447 -2.0720
   48MOL0     H 6315   6.642   7.564   6.892 -0.3146 -0.5137  0.0907
   48MOL0     H 6316   6.556   7.318   6.952 -0.2583 -1.0501  0.5370
   48MOL0     H 6317   6.624   7.410   7.092 -0.7608  1.5157 -1.1219
   48MOL0     H 6318   7.007   7.626   5.814  1.0987  0.8523  3.3049
   48MOL0     H 6319   7.151   7.544   5.670 -2.0881  0.7671  0.0133
   48MOL0     H 6320   7.454   7.238   5.537 -1.0974  0.7442  1.5482
   48MOL0     H 6321   7.646   7.094   5.436  1.7374  0.3448  0.6930
   48MOL0     H 6322   9.050   7.914   5.533  1.2551 -1.7222  1.4948
   48MOL0     H 6323   9.295   7.958   5.534 -0.6069  0.0159  1.4579
   48MOL0     H 6324   9.758   7.936   5.481  0.8180 -0.3692 -1.1157
   48MOL0     H 6325   9.978   8.033   5.433  0.0511 -1.1698 -1.0716
   48MOL0     H 6326  10.114   8.355   5.122  3.0146 -1.7848 -0.6361
   48MOL0     H 6327   9.989   8.245   5.048  1.5734  0.2192 -1.3005
   48MOL0     H 6328  10.120   8.050   5.091 -1.6587  1.4594  3.8982
   48MOL0     H 6329  10.185   8.163   4.962  0.5403 -1.2158  0.2919
   48MOL0     H 6330  10.283   8.184   5.237 -2.8374  1.3711 -1.0950
   48MOL0     H 6331  10.326   8.272   5.097 -0.3333  0.8515 -0.5608
   48MOL0     H 6332  10.386   8.024   4.998 -2.0119  1.2511 -0.5397
   48MOL0     H 6333  10.491   8.090   5.132 -1.3226  2.1319  0.6338
   48MOL0     H 6334  10.268   7.792   5.339 -1.0173  0.1959  0.6406
   48MOL0     H 6335   9.777   8.299   5.151 -1.8537 -0.4493  0.1781
   48MOL0     H 6336   9.572   8.218   5.224  0.9911 -0.1447 -3.6826
   49MOL0     O 6337   6.588   8.490   3.514 -0.0000 -0.5826  0.0269
   49MOL0     C 6338   6.534   8.520   3.621  0.0963  0.3784 -0.1151
   49MOL0     O 6339   6.587   8.560   3.732  0.7051 -0.4711 -0.7360
   49MOL0     C 6340   6.723   8.569   3.743 -0.7849 -0.1631 -0.2334
   49MOL0     C 6341   6.803   8.632   3.648 -0.3574 -0.0337  0.7066
   49MOL0     C 6342   6.949   8.633   3.659 -0.1287 -0.6639  0.6216
   49MOL0     C 6343   7.013   8.564   3.768 -0.5560  0.6641  1.5899
   49MOL0     O 6344   7.150   8.545   3.745 -0.1289  1.0091  0.5422
   49MOL0     C 6345   7.224   8.465   3.848  0.0542  0.2820 -0.2301
   49MOL0     C 6346   7.212   8.314   3.826  0.4796 -0.7658 -0.1240
   49MOL0     C 6347   7.248   8.281   3.680  0.6513 -0.1866 -0.8292
   49MOL0     C 6348   7.232   8.130   3.665  0.2144  0.4541 -1.5448
   49MOL0     C 6349   7.092   8.064   3.637  0.8430 -0.0466  0.0667
   49MOL0     C 6350   6.987   8.163   3.582  0.2579  0.0368  0.0865
   49MOL0     C 6351   6.846   8.088   3.581 -0.3999 -0.3796  0.2470
   49MOL0     C 6352   6.735   8.179   3.514  0.7947 -0.0917 -0.0062
   49MOL0     N 6353   6.612   8.157   3.580 -0.2233  0.0098 -0.5453
   49MOL0     C 6354   6.565   8.222   3.700 -0.0165  0.2445  0.2422
   49MOL0     C 6355   6.445   8.163   3.719 -0.0621  0.6783  0.0268
   49MOL0     C 6356   6.360   8.187   3.840  0.2498 -0.8532 -0.0011
   49MOL0     C 6357   6.348   8.060   3.923 -0.6995  0.9259 -0.3775
   49MOL0     C 6358   6.367   8.085   4.076  0.1326 -0.0760  0.4993
   49MOL0     C 6359   6.367   7.951   4.146  0.2118  0.3372 -0.3795
   49MOL0     O 6360   6.254   7.872   4.119  0.0561 -0.0205  0.1200
   49MOL0     C 6361   6.127   7.929   4.157 -0.0027  0.4341 -0.4690
   49MOL0     C 6362   6.104   7.996   4.274 -0.2918 -0.0909  0.1380
   49MOL0     C 6363   5.991   8.073   4.286  0.0012  0.3447 -0.3686
   49MOL0     C 6364   5.890   8.062   4.194 -0.5022 -0.4135  0.4593
   49MOL0     C 6365   5.770   8.149   4.202 -0.6761  0.9912  1.0722
   49MOL0     O 6366   5.670   8.128   4.113 -0.1603  0.1891 -0.1974
   49MOL0     C 6367   5.565   8.210   4.116 -0.3461  0.7100  0.7475
   49MOL0     C 6368   5.559   8.298   4.010 -0.3785 -0.0434 -0.3958
   49MOL0     C 6369   5.479   8.412   4.022  0.3737 -0.2855  0.5168
   49MOL0     C 6370   5.397   8.438   4.135 -0.1707  0.2065  0.4293
   49MOL0     O 6371   5.308   8.543   4.127 -0.0986  0.2310  0.2445
   49MOL0     C 6372   5.199   8.540   4.217 -0.2273 -1.1726  0.6697
   49MOL0     C 6373   5.097   8.658   4.174 -0.3443  0.1190 -0.1668
   49MOL0     C 6374   4.955   8.645   4.229  0.3437 -0.4147 -0.0078
   49MOL0     C 6375   4.874   8.764   4.182  0.0295  0.3307  0.0075
   49MOL0     C 6376   4.738   8.767   4.250  0.3044 -0.2333 -0.8041
   49MOL0     C 6377   4.645   8.644   4.229  0.4829 -0.2631 -0.2040
   49MOL0     C 6378   4.491   8.678   4.248 -0.2421  1.0956  0.6094
   49MOL0     C 6379   4.414   8.571   4.170 -0.4316 -0.0532 -0.2220
   49MOL0    Cl 6380   4.246   8.566   4.227  0.0782 -0.1074 -0.1376
   49MOL0     C 6381   5.412   8.343   4.232  0.1078 -0.4000  0.2013
   49MOL0     C 6382   5.490   8.230   4.225 -0.0541 -1.3444  1.2328
   49MOL0     O 6383   5.763   8.225   4.291 -0.5352 -1.5054  0.1998
   49MOL0     C 6384   5.906   7.977   4.086 -0.3538  0.3303  0.8761
   49MOL0     C 6385   6.026   7.907   4.069  0.7700  0.5501  0.4960
   49MOL0     N 6386   6.424   8.062   3.621  0.5398 -0.1884  0.1332
   49MOL0     N 6387   6.526   8.056   3.545  0.6996  0.7276 -0.2204
   49MOL0     C 6388   6.934   8.507   3.865  0.3093 -0.0487  0.5520
   49MOL0     C 6389   6.785   8.505   3.854  1.0658 -0.5693 -0.1674
   49MOL0     C 6390   6.383   8.531   3.620  1.4995 -0.1542  0.7242
   49MOL0     C 6391   6.292   8.493   3.510  0.8680  0.1583  0.5322
   49MOL0     C 6392   6.156   8.503   3.524  0.1935 -0.4140 -0.5426
   49MOL0     C 6393   6.099   8.560   3.643 -0.3713  0.0567 -0.1680
   49MOL0     O 6394   5.966   8.572   3.638  0.1722 -0.2296  0.2431
   49MOL0     C 6395   5.893   8.510   3.745 -0.2569 -0.1087  0.0486
   49MOL0     C 6396   5.857   8.366   3.698  1.1277 -0.3677 -0.0217
   49MOL0     C 6397   5.971   8.267   3.711 -0.8406 -0.0613  0.3199
   49MOL0     C 6398   5.982   8.198   3.847  0.6171 -0.6311 -0.2794
   49MOL0     C 6399   6.035   8.286   3.944  0.0429  0.3688 -0.2612
   49MOL0     C 6400   6.083   8.363   4.024  0.8703 -0.1840  0.5222
   49MOL0     C 6401   6.178   8.599   3.748  0.0220 -0.7610  0.4073
   49MOL0     C 6402   6.319   8.576   3.735  0.4198 -0.7300 -0.2961
   49MOL0     H 6403   6.749   8.683   3.568 -1.1636  0.1291  1.3464
   49MOL0     H 6404   7.002   8.677   3.575  0.1034 -2.1367 -0.0319
   49MOL0     H 6405   7.173   8.484   3.943 -1.9762 -0.3782 -1.1344
   49MOL0     H 6406   7.331   8.488   3.849  0.7164 -1.6319 -4.4512
   49MOL0     H 6407   7.107   8.290   3.843  0.6648 -1.6343 -0.1511
   49MOL0     H 6408   7.281   8.263   3.894 -1.0786  0.0418  2.1708
   49MOL0     H 6409   7.348   8.309   3.647 -0.7425  0.8418 -4.7568
   49MOL0     H 6410   7.185   8.338   3.612 -0.2359  0.7247  0.6826
   49MOL0     H 6411   7.299   8.111   3.580  6.0034 -2.0547  2.9051
   49MOL0     H 6412   7.279   8.074   3.746 -0.0758 -0.1712 -1.8050
   49MOL0     H 6413   7.045   8.020   3.725  1.2468  1.0172  0.8303
   49MOL0     H 6414   7.114   7.991   3.559  0.5138  0.1450 -0.2089
   49MOL0     H 6415   7.014   8.196   3.481  1.9290  0.5133  0.6677
   49MOL0     H 6416   6.973   8.253   3.641 -2.1795  0.5378 -1.0919
   49MOL0     H 6417   6.842   7.992   3.529 -1.3533 -0.5405  0.6048
   49MOL0     H 6418   6.809   8.072   3.682 -2.4824  1.1841 -0.2156
   49MOL0     H 6419   6.707   8.154   3.411 -1.5759  0.2879  0.4804
   49MOL0     H 6420   6.750   8.285   3.532  0.1010 -0.1849  1.2090
   49MOL0     H 6421   6.607   8.298   3.765 -1.8994 -1.0038  3.1337
   49MOL0     H 6422   6.264   8.222   3.802 -0.0368  2.2163  3.0271
   49MOL0     H 6423   6.396   8.264   3.909  1.4549 -1.1605 -0.2690
   49MOL0     H 6424   6.419   7.984   3.891 -1.1525  0.1651  0.3964
   49MOL0     H 6425   6.256   8.003   3.907 -1.3054  1.5347  0.7706
   49MOL0     H 6426   6.464   8.131   4.096  1.2425 -2.4406  0.9594
   49MOL0     H 6427   6.288   8.144   4.122 -1.7800 -1.3066 -1.0539
   49MOL0     H 6428   6.375   7.967   4.254  2.1232 -1.7927 -0.1270
   49MOL0     H 6429   6.458   7.894   4.126 -1.7578 -2.8250 -1.0423
   49MOL0     H 6430   6.187   8.005   4.344 -1.1882 -0.2320  1.2540
   49MOL0     H 6431   5.985   8.142   4.369  2.1071  0.1642  0.0120
   49MOL0     H 6432   5.616   8.269   3.922 -2.5072 -1.7437 -1.3073
   49MOL0     H 6433   5.479   8.490   3.946  0.0764  2.0036  2.7320
   49MOL0     H 6434   5.229   8.556   4.321  0.6499 -2.7345  0.6858
   49MOL0     H 6435   5.149   8.443   4.207  3.0798 -2.9734  0.3059
   49MOL0     H 6436   5.086   8.651   4.065  2.0853 -1.2324 -0.3913
   49MOL0     H 6437   5.140   8.756   4.196  4.4242 -2.1778  2.3328
   49MOL0     H 6438   4.964   8.646   4.338 -2.1957  0.2708  0.2759
   49MOL0     H 6439   4.921   8.545   4.202  1.0473 -1.7562  3.4360
   49MOL0     H 6440   4.925   8.859   4.202 -1.4011  1.2701 -0.6775
   49MOL0     H 6441   4.847   8.740   4.079 -3.4114 -1.1223  1.1150
   49MOL0     H 6442   4.679   8.856   4.227 -0.6975 -0.1126  1.9302
   49MOL0     H 6443   4.754   8.779   4.358  0.0538  1.0495 -0.8848
   49MOL0     H 6444   4.671   8.570   4.305  0.8863 -0.4734 -0.5407
   49MOL0     H 6445   4.653   8.604   4.128  2.0707  1.0563 -0.6419
   49MOL0     H 6446   4.462   8.664   4.352 -0.5966 -1.8384  0.1796
   49MOL0     H 6447   4.469   8.779   4.212  1.3075  1.1165 -0.3819
   49MOL0     H 6448   4.454   8.476   4.204  0.7071  1.2508  2.3410
   49MOL0     H 6449   4.417   8.599   4.064 -2.6443  0.0093 -0.3194
   49MOL0     H 6450   5.357   8.352   4.325 -3.5271  1.1284 -1.9002
   49MOL0     H 6451   5.495   8.162   4.310 -2.8144 -0.5112  2.1625
   49MOL0     H 6452   5.827   7.968   4.012 -1.1532  0.7725  1.6517
   49MOL0     H 6453   6.053   7.840   3.988 -1.4766  1.7630 -1.3753
   49MOL0     H 6454   6.968   8.460   3.957  2.4349 -1.2102 -0.7568
   49MOL0     H 6455   6.724   8.464   3.934 -2.8153  2.9436 -0.9847
   49MOL0     H 6456   6.334   8.434   3.429  1.3521 -2.0698  2.2968
   49MOL0     H 6457   6.098   8.464   3.441  0.1414 -1.4565 -0.0392
   49MOL0     H 6458   5.803   8.569   3.766  0.3855  0.6741  0.6777
   49MOL0     H 6459   5.941   8.507   3.844  0.7551  0.0083 -0.4212
   49MOL0     H 6460   5.767   8.321   3.740  2.1187 -3.6351 -1.1249
   49MOL0     H 6461   5.829   8.372   3.593  1.5112  3.1953 -0.0556
   49MOL0     H 6462   6.070   8.310   3.694 -1.5045  0.9748 -1.2233
   49MOL0     H 6463   5.958   8.192   3.632  0.7890 -1.2181  1.0891
   49MOL0     H 6464   5.893   8.174   3.906 -0.8715  1.2142 -1.6715
   49MOL0     H 6465   6.046   8.111   3.826  2.1194  0.7832 -1.8276
   49MOL0     H 6466   6.119   8.421   4.107 -0.8753  1.6824  0.0620
   49MOL0     H 6467   6.143   8.650   3.837  2.7288  2.6302 -0.2663
   49MOL0     H 6468   6.371   8.614   3.822 -0.4266  0.5431 -0.3145
   50MOL0     O 6469   7.041   5.463   2.831 -0.3307  0.1216 -0.6999
   50MOL0     C 6470   7.004   5.421   2.944  0.1649 -0.4585  0.3370
   50MOL0     O 6471   7.087   5.405   3.058 -0.5918 -0.6648 -0.1029
   50MOL0     C 6472   7.224   5.436   3.028  0.1357 -0.3117  0.0802
   50MOL0     C 6473   7.296   5.358   2.945  0.6727 -0.8493  0.2325
   50MOL0     C 6474   7.437   5.380   2.918  0.5629 -0.0101  0.0015
   50MOL0     C 6475   7.502   5.494   2.965 -0.7337 -0.1500  0.0005
   50MOL0     O 6476   7.635   5.517   2.958 -0.2590  0.0235  0.1636
   50MOL0     C 6477   7.651   5.592   2.836  0.8294 -0.5360 -0.6866
   50MOL0     C 6478   7.796   5.602   2.784  0.1426  0.4904  0.0414
   50MOL0     C 6479   7.792   5.668   2.647  0.4345 -0.1321 -0.1413
   50MOL0     C 6480   7.930   5.725   2.623  0.4115 -0.7898 -0.2721
   50MOL0     C 6481   8.046   5.623   2.633 -0.2382  0.1463 -0.7800
   50MOL0     C 6482   8.117   5.628   2.770  0.5908 -0.3076  0.8716
   50MOL0     C 6483   8.258   5.564   2.771  0.4457 -1.1798  1.0998
   50MOL0     C 6484   8.267   5.449   2.682 -0.2002 -0.6778  0.1006
   50MOL0     N 6485   8.390   5.377   2.700  0.4426 -0.5237 -0.7099
   50MOL0     C 6486   8.502   5.402   2.630 -0.7068 -0.2135  0.0816
   50MOL0     C 6487   8.603   5.331   2.695 -0.5778  0.2946 -0.5156
   50MOL0     C 6488   8.737   5.316   2.642 -0.5963 -0.3700 -0.2471
   50MOL0     C 6489   8.824   5.424   2.701  0.7498  0.1954  0.0673
   50MOL0     C 6490   8.798   5.575   2.659  0.7373  0.2814 -0.8863
   50MOL0     C 6491   8.877   5.675   2.744  0.3161 -0.1222 -0.2319
   50MOL0     O 6492   8.823   5.806   2.760 -0.5092 -0.1957  0.2762
   50MOL0     C 6493   8.707   5.822   2.833 -0.1889 -0.0592 -0.4349
   50MOL0     C 6494   8.664   5.953   2.856  0.6594 -0.0188  0.2827
   50MOL0     C 6495   8.536   5.980   2.906 -0.6651  0.7374  0.4111
   50MOL0     C 6496   8.456   5.875   2.962  0.1660 -0.4379  0.1647
   50MOL0     C 6497   8.325   5.898   3.025 -0.3072  0.1683 -0.7092
   50MOL0     O 6498   8.256   5.793   3.084  0.2694 -0.9961  0.5287
   50MOL0     C 6499   8.149   5.824   3.160 -0.2415  0.2096 -0.3470
   50MOL0     C 6500   8.021   5.782   3.127  0.9112  0.2600 -0.0034
   50MOL0     C 6501   7.908   5.792   3.213 -0.0240 -0.5056 -1.1022
   50MOL0     C 6502   7.939   5.824   3.347  0.9455 -0.3284 -0.3989
   50MOL0     O 6503   7.843   5.830   3.449 -0.3933 -0.6698  0.2691
   50MOL0     C 6504   7.737   5.736   3.429  0.7980 -0.7448  0.2571
   50MOL0     C 6505   7.641   5.747   3.545  0.1602 -0.2660 -0.8391
   50MOL0     C 6506   7.703   5.671   3.671 -0.7091  0.1179 -0.4874
   50MOL0     C 6507   7.609   5.602   3.773 -0.9463 -0.6208 -0.5863
   50MOL0     C 6508   7.507   5.694   3.846 -0.4524 -0.1221  0.5953
   50MOL0     C 6509   7.371   5.714   3.774 -0.5174  0.2765 -0.5473
   50MOL0     C 6510   7.288   5.817   3.844 -0.1653  0.7113  0.0360
   50MOL0     C 6511   7.154   5.847   3.769  0.4278  0.3469  0.6567
   50MOL0    Cl 6512   7.047   5.708   3.769  0.2258 -0.0224 -0.1097
   50MOL0     C 6513   8.064   5.878   3.378  0.2115 -0.2988  0.5492
   50MOL0     C 6514   8.162   5.883   3.288 -0.5759  0.1687  0.0690
   50MOL0     O 6515   8.274   6.006   3.006  0.5021 -0.4355  0.1768
   50MOL0     C 6516   8.500   5.741   2.946 -0.0758  0.1697  0.5325
   50MOL0     C 6517   8.634   5.721   2.894 -0.1315  0.5787  0.1011
   50MOL0     N 6518   8.555   5.260   2.802 -0.2447  0.1933 -0.5925
   50MOL0     N 6519   8.427   5.299   2.805 -0.1111 -0.2735  0.2182
   50MOL0     C 6520   7.421   5.571   3.048  0.4363  0.1832 -0.9387
   50MOL0     C 6521   7.288   5.552   3.075  0.0971 -0.8718 -0.6231
   50MOL0     C 6522   6.858   5.388   2.967 -0.2499 -0.4071  0.2500
   50MOL0     C 6523   6.808   5.333   3.086  0.0863  0.2087  0.0391
   50MOL0     C 6524   6.673   5.311   3.107  0.2642  0.0360  0.1460
   50MOL0     C 6525   6.578   5.336   3.003  0.3022 -1.0782  0.3502
   50MOL0     O 6526   6.446   5.326   3.008  0.9270  0.2247  0.5216
   50MOL0     C 6527   6.379   5.240   2.909 -0.2637 -0.9158  0.9256
   50MOL0     C 6528   6.268   5.312   2.834  0.7345  0.0201  0.2858
   50MOL0     C 6529   6.130   5.309   2.917  0.6630  0.2388 -0.3859
   50MOL0     C 6530   6.050   5.186   2.889 -0.0847  0.5151 -0.1669
   50MOL0     C 6531   5.968   5.153   3.008  0.9233 -0.2405 -0.8694
   50MOL0     C 6532   5.906   5.124   3.107  0.6733 -0.3781  0.3522
   50MOL0     C 6533   6.635   5.392   2.882  0.3210  0.0874 -0.0503
   50MOL0     C 6534   6.766   5.431   2.873 -0.8066  0.5430  0.4206
   50MOL0     H 6535   7.243   5.274   2.902  0.4601 -0.9315  0.6527
   50MOL0     H 6536   7.495   5.309   2.860  1.7682  1.0635 -0.1524
   50MOL0     H 6537   7.617   5.695   2.848 -2.3106 -0.9821 -4.0287
   50MOL0     H 6538   7.599   5.532   2.760 -2.1793 -2.6994  2.7505
   50MOL0     H 6539   7.831   5.499   2.777 -0.9930  0.0227  1.0820
   50MOL0     H 6540   7.867   5.658   2.847  2.1351  1.6549 -2.9596
   50MOL0     H 6541   7.708   5.739   2.647 -0.4480 -1.1412  0.2352
   50MOL0     H 6542   7.761   5.597   2.570 -2.2423  0.9975 -0.2320
   50MOL0     H 6543   7.939   5.776   2.527 -0.9922  4.2999  1.9625
   50MOL0     H 6544   7.945   5.814   2.685  0.3559 -0.4978 -0.6771
   50MOL0     H 6545   8.117   5.648   2.554 -0.2554 -1.0890 -1.2106
   50MOL0     H 6546   8.005   5.523   2.615 -0.5804 -0.3167  2.0581
   50MOL0     H 6547   8.067   5.561   2.840  0.5947 -0.0258  1.1436
   50MOL0     H 6548   8.117   5.731   2.807 -2.7345 -0.3244  1.1916
   50MOL0     H 6549   8.327   5.645   2.746 -0.8953 -0.0682  0.8721
   50MOL0     H 6550   8.283   5.528   2.871 -1.9902 -2.9728  1.1515
   50MOL0     H 6551   8.270   5.488   2.580 -0.4621 -0.6605  0.0986
   50MOL0     H 6552   8.181   5.385   2.703 -0.6106  0.4011  1.9930
   50MOL0     H 6553   8.511   5.471   2.547 -0.6191 -0.9693 -0.5459
   50MOL0     H 6554   8.735   5.310   2.533 -0.5787  0.8432 -0.3210
   50MOL0     H 6555   8.781   5.221   2.673 -0.8142 -0.4025 -0.0279
   50MOL0     H 6556   8.923   5.399   2.663  0.5717 -1.3803  0.5867
   50MOL0     H 6557   8.817   5.411   2.809  1.3313 -0.4613  0.0293
   50MOL0     H 6558   8.819   5.579   2.552 -2.7437  1.8155 -1.6461
   50MOL0     H 6559   8.692   5.604   2.668  0.8273  0.0961  1.3994
   50MOL0     H 6560   8.972   5.692   2.691  0.9855  1.3177  1.3283
   50MOL0     H 6561   8.890   5.626   2.841 -3.0327  0.9234  0.8702
   50MOL0     H 6562   8.738   6.027   2.828  2.2540 -0.9645  1.7850
   50MOL0     H 6563   8.513   6.085   2.917 -1.8983  0.3210  2.1477
   50MOL0     H 6564   8.000   5.743   3.028  1.3993  0.6762 -0.2809
   50MOL0     H 6565   7.808   5.769   3.178 -1.1727  2.1139  0.1629
   50MOL0     H 6566   7.780   5.636   3.421 -1.0624 -1.4674 -1.6684
   50MOL0     H 6567   7.674   5.756   3.342  0.0866 -1.0146  0.6954
   50MOL0     H 6568   7.551   5.690   3.520  1.1953 -1.6837 -1.4890
   50MOL0     H 6569   7.602   5.847   3.566 -0.0855 -0.3653 -0.8158
   50MOL0     H 6570   7.768   5.747   3.716  0.8603  0.8583 -3.6697
   50MOL0     H 6571   7.780   5.602   3.635 -0.0952 -1.3951  3.2149
   50MOL0     H 6572   7.547   5.523   3.729 -0.6485 -1.4947  0.5150
   50MOL0     H 6573   7.688   5.561   3.835 -0.5862 -1.3287 -1.4846
   50MOL0     H 6574   7.557   5.791   3.854 -2.1061  0.7392  1.0806
   50MOL0     H 6575   7.502   5.650   3.946 -0.6214  0.0664  0.6717
   50MOL0     H 6576   7.307   5.628   3.759 -1.6259  1.1341 -0.8580
   50MOL0     H 6577   7.397   5.756   3.676  1.8133 -2.1525 -1.0991
   50MOL0     H 6578   7.264   5.781   3.945  2.9546  1.4578  1.1528
   50MOL0     H 6579   7.346   5.909   3.849  0.8834 -0.0055  1.8516
   50MOL0     H 6580   7.173   5.878   3.665  0.3924  0.8864  0.8087
   50MOL0     H 6581   7.098   5.924   3.823  0.5774 -0.9745  2.7687
   50MOL0     H 6582   8.072   5.922   3.476 -0.5644  0.6020  0.2191
   50MOL0     H 6583   8.259   5.920   3.318  0.3812  0.7907 -3.3851
   50MOL0     H 6584   8.451   5.651   2.982  2.4315 -1.8731 -0.7420
   50MOL0     H 6585   8.666   5.618   2.882 -0.3763  0.4924  0.1632
   50MOL0     H 6586   7.459   5.652   3.110 -1.5146  0.0948  0.4612
   50MOL0     H 6587   7.226   5.610   3.143 -0.2290 -0.3897 -1.3238
   50MOL0     H 6588   6.879   5.301   3.161 -0.8618 -1.6510  0.1874
   50MOL0     H 6589   6.636   5.256   3.193  2.2980 -1.2090  0.2925
   50MOL0     H 6590   6.346   5.150   2.962 -3.7014 -1.2930 -1.4991
   50MOL0     H 6591   6.447   5.219   2.825  3.7502  4.8478  2.1410
   50MOL0     H 6592   6.307   5.409   2.802  0.8342 -0.2082 -0.2891
   50MOL0     H 6593   6.251   5.266   2.736 -3.7570  3.6394 -1.0157
   50MOL0     H 6594   6.073   5.400   2.896  0.2639  0.2048  0.5285
   50MOL0     H 6595   6.149   5.317   3.024  2.9119  2.4355 -0.8764
   50MOL0     H 6596   5.982   5.204   2.805 -0.6366 -0.3427  0.0921
   50MOL0     H 6597   6.112   5.099   2.867 -2.8294 -0.9158 -3.0143
   50MOL0     H 6598   5.853   5.120   3.200  1.1835  3.1624  0.9403
   50MOL0     H 6599   6.575   5.393   2.792  1.2116 -1.8659 -0.7146
   50MOL0     H 6600   6.803   5.479   2.783 -2.5788  1.2677  0.0368
   51MOL0     O 6601  10.786  10.680   1.892  0.3078  0.0904 -0.7121
   51MOL0     C 6602  10.814  10.708   2.010  0.2627 -0.3251 -0.0107
   51MOL0     O 6603  10.734  10.686   2.113 -0.5634 -0.2491  0.1509
   51MOL0     C 6604  10.599  10.666   2.080  0.9779 -0.4218 -0.5246
   51MOL0     C 6605  10.540  10.542   2.079  0.4435  1.1575  0.4663
   51MOL0     C 6606  10.402  10.519   2.058 -0.9411  0.4532  0.6557
   51MOL0     C 6607  10.321  10.631   2.040 -0.3446  0.2654  0.0428
   51MOL0     O 6608  10.186  10.628   2.022  0.5862  0.9114 -0.2321
   51MOL0     C 6609  10.105  10.510   2.052 -0.0126  0.3699  0.6959
   51MOL0     C 6610   9.974  10.541   1.980  0.0714  0.6905 -0.6724
   51MOL0     C 6611   9.911  10.416   1.925  0.3836 -0.3502  0.2475
   51MOL0     C 6612   9.792  10.441   1.824  0.4768 -0.2304  0.0631
   51MOL0     C 6613   9.718  10.309   1.799 -0.4975  0.0869  0.9629
   51MOL0     C 6614   9.606  10.316   1.690 -0.5451  0.2355  0.6348
   51MOL0     C 6615   9.502  10.416   1.749 -0.1816  0.3853  0.6151
   51MOL0     C 6616   9.366  10.405   1.677  0.8225 -0.2946 -0.2292
   51MOL0     N 6617   9.291  10.288   1.707  1.3525  0.0983  0.0046
   51MOL0     C 6618   9.272  10.187   1.618  1.0831  0.0084 -0.0394
   51MOL0     C 6619   9.168  10.117   1.668  0.8981  0.3801 -0.2673
   51MOL0     C 6620   9.116   9.990   1.614  0.0307  1.1719 -1.0931
   51MOL0     C 6621   8.971   9.980   1.570 -0.5466  0.8642  0.2914
   51MOL0     C 6622   8.955  10.077   1.460 -0.1372 -0.2295 -0.6349
   51MOL0     C 6623   8.806  10.068   1.409  0.1217 -0.3259  0.4141
   51MOL0     O 6624   8.767   9.938   1.375 -0.5399 -0.2235  0.4255
   51MOL0     C 6625   8.654   9.916   1.295  0.2907  0.5490 -0.0206
   51MOL0     C 6626   8.631   9.782   1.252  0.1005  0.4491 -0.0916
   51MOL0     C 6627   8.509   9.752   1.187  0.2888 -0.0946 -0.7077
   51MOL0     C 6628   8.423   9.854   1.153  0.0781 -0.0946  0.0678
   51MOL0     C 6629   8.296   9.817   1.068 -0.1014  0.2049  0.1331
   51MOL0     O 6630   8.182   9.887   1.079 -0.1663  0.3465  0.2156
   51MOL0     C 6631   8.065   9.855   1.011 -0.8051  0.5224 -0.0172
   51MOL0     C 6632   7.992   9.955   0.948  0.8046  0.3086 -0.1740
   51MOL0     C 6633   7.870   9.914   0.890  0.0792  0.1836 -0.2300
   51MOL0     C 6634   7.810   9.788   0.904  0.2135  0.3523  0.5665
   51MOL0     O 6635   7.692   9.773   0.839 -0.2267  0.4323  0.1277
   51MOL0     C 6636   7.624   9.645   0.846  0.8199  0.1927  0.1276
   51MOL0     C 6637   7.473   9.657   0.792 -0.8702  0.4206  0.3104
   51MOL0     C 6638   7.393   9.753   0.876 -0.1456 -0.9962 -0.0615
   51MOL0     C 6639   7.243   9.744   0.851  0.5743 -0.0784 -0.1127
   51MOL0     C 6640   7.194   9.795   0.719  0.5961 -0.0216 -0.4092
   51MOL0     C 6641   7.044   9.751   0.700 -0.1124  1.2667 -0.2299
   51MOL0     C 6642   6.979   9.831   0.582  1.1280  0.0051 -0.0442
   51MOL0     C 6643   6.859   9.736   0.532  0.0211  0.2291  0.3521
   51MOL0    Cl 6644   6.785   9.813   0.393  0.4741 -0.3526  0.3219
   51MOL0     C 6645   7.878   9.692   0.976 -0.6804  0.7267  0.6918
   51MOL0     C 6646   8.005   9.724   1.028  0.3628  0.1189 -0.8808
   51MOL0     O 6647   8.317   9.731   0.980  0.0687 -0.5315  0.2753
   51MOL0     C 6648   8.447   9.986   1.189 -0.8487  0.0147 -0.1952
   51MOL0     C 6649   8.560  10.015   1.259 -0.9742  0.9050 -0.6591
   51MOL0     N 6650   9.135  10.166   1.795  0.3466 -0.5164 -0.0225
   51MOL0     N 6651   9.211  10.273   1.819 -0.3412 -0.6516 -0.8749
   51MOL0     C 6652  10.386  10.756   2.019  0.4980  0.0662  1.0476
   51MOL0     C 6653  10.523  10.774   2.038  0.0551 -0.3657  0.0058
   51MOL0     C 6654  10.946  10.746   2.042  0.6879  0.2778  0.6567
   51MOL0     C 6655  11.029  10.790   1.936 -0.0095  1.1648  0.4564
   51MOL0     C 6656  11.154  10.848   1.952  0.1706  0.0327 -0.6049
   51MOL0     C 6657  11.209  10.866   2.080 -0.1823 -0.2145 -0.0088
   51MOL0     O 6658  11.319  10.945   2.082 -0.3054 -0.0553  0.3964
   51MOL0     C 6659  11.379  10.992   2.203 -0.4089  0.2389 -0.5883
   51MOL0     C 6660  11.506  11.062   2.168 -0.4166  0.4252 -0.6514
   51MOL0     C 6661  11.501  11.169   2.065 -0.1852 -0.2838  0.5367
   51MOL0     C 6662  11.637  11.241   2.042  0.2213 -0.3120  0.5859
   51MOL0     C 6663  11.610  11.338   1.935  0.1134  0.2496 -0.0667
   51MOL0     C 6664  11.597  11.408   1.832 -0.4537 -0.4255  0.0510
   51MOL0     C 6665  11.127  10.807   2.188  0.1617 -0.6163  0.5172
   51MOL0     C 6666  10.991  10.755   2.169 -0.7350  0.3463 -0.4637
   51MOL0     H 6667  10.609  10.462   2.101 -0.4948  0.7369  2.0432
   51MOL0     H 6668  10.364  10.417   2.062  0.0637  0.0336  0.0094
   51MOL0     H 6669  10.109  10.505   2.161  3.0888 -3.3627  0.6161
   51MOL0     H 6670  10.157  10.423   2.009  0.9632  1.1358  0.2951
   51MOL0     H 6671  10.006  10.610   1.902  2.9982 -0.9584 -1.0778
   51MOL0     H 6672   9.903  10.590   2.047 -1.2171 -0.4438 -1.1735
   51MOL0     H 6673   9.884  10.354   2.011 -0.6699  0.4767  0.5424
   51MOL0     H 6674   9.991  10.366   1.870  2.5983  0.4161  2.5505
   51MOL0     H 6675   9.720  10.509   1.872 -0.2739 -1.4235  0.6881
   51MOL0     H 6676   9.819  10.492   1.732 -1.0520 -1.5564 -1.1836
   51MOL0     H 6677   9.676  10.297   1.899 -0.1644 -0.6565  1.0226
   51MOL0     H 6678   9.794  10.232   1.780 -0.6909 -1.1391  4.4307
   51MOL0     H 6679   9.556  10.220   1.669 -0.1887  0.2990 -0.5271
   51MOL0     H 6680   9.644  10.354   1.595 -0.9449 -2.1456 -0.5625
   51MOL0     H 6681   9.488  10.388   1.853 -2.3753 -1.0087  0.0084
   51MOL0     H 6682   9.546  10.516   1.742  4.5572 -1.3382  1.8963
   51MOL0     H 6683   9.382  10.412   1.569  2.5091 -0.3981 -0.0128
   51MOL0     H 6684   9.294  10.483   1.703 -2.6273 -1.7680 -4.2115
   51MOL0     H 6685   9.340  10.172   1.535 -0.0084 -0.6286 -0.8439
   51MOL0     H 6686   9.128   9.921   1.698 -1.3257  3.2446  0.9073
   51MOL0     H 6687   9.185   9.953   1.537  3.1240 -0.2514  2.1065
   51MOL0     H 6688   8.908  10.019   1.651  0.9221  3.4313  0.3154
   51MOL0     H 6689   8.941   9.879   1.542 -0.9997  0.7829  1.0298
   51MOL0     H 6690   8.992  10.178   1.480  0.6548 -0.2948 -1.7032
   51MOL0     H 6691   9.027  10.047   1.384  3.3169  0.7350  1.9859
   51MOL0     H 6692   8.809  10.130   1.319  1.7066 -3.3934 -1.8717
   51MOL0     H 6693   8.746  10.111   1.489  1.4338 -1.6498  2.1961
   51MOL0     H 6694   8.703   9.706   1.280  0.6626  0.9844 -0.0604
   51MOL0     H 6695   8.472   9.650   1.183 -4.5524  1.3167  1.3422
   51MOL0     H 6696   8.030  10.056   0.944 -1.6824  1.3423  0.7790
   51MOL0     H 6697   7.811   9.989   0.838  1.7390  4.0341  2.9237
   51MOL0     H 6698   7.610   9.601   0.945 -1.1815  0.0294 -0.1933
   51MOL0     H 6699   7.682   9.572   0.788  1.5791  0.9443 -0.0945
   51MOL0     H 6700   7.423   9.561   0.810 -1.1245  0.8928  2.5076
   51MOL0     H 6701   7.471   9.694   0.689 -0.8752  2.5437  1.0210
   51MOL0     H 6702   7.416   9.860   0.876 -2.2297 -0.4864 -1.5190
   51MOL0     H 6703   7.407   9.713   0.976 -3.9928 -4.1325 -0.5444
   51MOL0     H 6704   7.206   9.641   0.858  1.5358 -0.5210 -1.2656
   51MOL0     H 6705   7.199   9.794   0.938  0.8091 -0.1725  0.0634
   51MOL0     H 6706   7.254   9.744   0.643  0.7765  0.2066 -0.4196
   51MOL0     H 6707   7.199   9.903   0.704  1.4573  0.1770  1.1156
   51MOL0     H 6708   6.987   9.766   0.792  0.3333 -0.9195  0.4664
   51MOL0     H 6709   7.040   9.643   0.682 -1.3651  0.8355  2.2657
   51MOL0     H 6710   6.938   9.929   0.609 -1.7532 -1.1697  0.2368
   51MOL0     H 6711   7.055   9.850   0.507  1.2637 -0.5993 -0.0590
   51MOL0     H 6712   6.780   9.741   0.609 -0.7572  2.2698 -0.5123
   51MOL0     H 6713   6.887   9.634   0.505  2.3914  1.5430 -2.7427
   51MOL0     H 6714   7.841   9.593   1.001 -1.3942  1.0446  0.9296
   51MOL0     H 6715   8.063   9.659   1.093 -1.9058 -0.8760  0.2730
   51MOL0     H 6716   8.388  10.074   1.164  0.7756  0.7556 -1.6363
   51MOL0     H 6717   8.578  10.115   1.297  2.3260 -0.7523  2.7651
   51MOL0     H 6718  10.334  10.842   1.978 -0.0116 -0.8394 -0.2616
   51MOL0     H 6719  10.570  10.870   2.021  2.6681 -1.5975 -0.3212
   51MOL0     H 6720  11.002  10.774   1.833 -0.8101 -1.0019  0.9470
   51MOL0     H 6721  11.203  10.882   1.862  2.3480  1.5861  1.0402
   51MOL0     H 6722  11.386  10.912   2.278 -3.3646  1.8053  1.5853
   51MOL0     H 6723  11.304  11.057   2.249 -1.4294 -1.4032  0.1886
   51MOL0     H 6724  11.536  11.107   2.263  1.6314 -1.6689 -0.2191
   51MOL0     H 6725  11.585  10.988   2.150  0.3180  0.4619  2.1146
   51MOL0     H 6726  11.434  11.245   2.108  0.6732  0.1536  1.1295
   51MOL0     H 6727  11.472  11.131   1.967  0.2135  1.0422 -0.1212
   51MOL0     H 6728  11.678  11.294   2.128  0.2495  0.4966  0.0781
   51MOL0     H 6729  11.718  11.173   2.012 -0.1054 -0.2411 -0.4986
   51MOL0     H 6730  11.575  11.462   1.742 -0.1015 -0.5516 -0.1103
   51MOL0     H 6731  11.174  10.819   2.285  2.3448 -0.4361 -0.5167
   51MOL0     H 6732  10.952  10.712   2.260 -2.3470 -1.4741 -1.9294
   52MOL0     O 6733   0.104   5.070   9.822 -0.7079 -0.2753  0.4088
   52MOL0     C 6734   0.159   5.120   9.726  0.6098 -0.0155  0.1055
   52MOL0     O 6735   0.111   5.131   9.604  0.6984 -0.3562 -0.0199
   52MOL0     C 6736   0.005   5.057   9.547 -0.9565 -0.0158 -0.6087
   52MOL0     C 6737  -0.040   5.097   9.424 -1.1724 -0.6755  0.4629
   52MOL0     C 6738  -0.139   5.029   9.348 -0.5391 -0.2511  0.3925
   52MOL0     C 6739  -0.205   4.925   9.413  0.4912 -0.4904 -0.8031
   52MOL0     O 6740  -0.305   4.850   9.362  0.1670 -0.2612  0.2661
   52MOL0     C 6741  -0.337   4.865   9.219 -0.3250  0.2508  0.3067
   52MOL0     C 6742  -0.462   4.769   9.191 -0.0555  0.7872 -0.1917
   52MOL0     C 6743  -0.541   4.822   9.075  1.1373  0.2793 -0.5846
   52MOL0     C 6744  -0.635   4.703   9.009 -0.0594  0.1552 -0.2743
   52MOL0     C 6745  -0.779   4.747   8.958  0.4450 -0.0471 -0.3085
   52MOL0     C 6746  -0.850   4.821   9.069  0.5888 -0.5995 -0.2822
   52MOL0     C 6747  -1.004   4.805   9.063 -0.2479 -0.3385  0.6650
   52MOL0     C 6748  -1.059   4.684   9.144  0.1644  0.6744  0.3851
   52MOL0     N 6749  -1.194   4.656   9.115 -0.2874  0.1093  0.6257
   52MOL0     C 6750  -1.276   4.728   9.036  0.4543  0.2998 -0.1183
   52MOL0     C 6751  -1.374   4.647   8.989 -0.4174  0.6413 -0.4457
   52MOL0     C 6752  -1.469   4.692   8.890  0.6395  0.4702  0.0950
   52MOL0     C 6753  -1.614   4.706   8.952  0.0777  0.8516 -0.3558
   52MOL0     C 6754  -1.677   4.578   9.009 -0.2391 -0.1644 -0.2926
   52MOL0     C 6755  -1.814   4.594   9.090 -0.2528  0.1146 -0.6574
   52MOL0     O 6756  -1.809   4.712   9.167 -0.0985 -0.8301  0.4633
   52MOL0     C 6757  -1.919   4.760   9.226 -0.8412  0.7908  0.4569
   52MOL0     C 6758  -1.911   4.889   9.261 -0.1006  0.8114 -0.3230
   52MOL0     C 6759  -2.022   4.954   9.318 -0.3935  0.2799  1.2407
   52MOL0     C 6760  -2.148   4.883   9.346 -0.0072 -0.9951 -0.3721
   52MOL0     C 6761  -2.272   4.957   9.378  0.5450  0.0777 -0.2665
   52MOL0     O 6762  -2.236   5.086   9.414  0.1393  0.0231 -0.4476
   52MOL0     C 6763  -2.330   5.178   9.462 -0.2702  0.5876  0.1556
   52MOL0     C 6764  -2.404   5.155   9.580  0.3965  0.4174 -0.4960
   52MOL0     C 6765  -2.497   5.243   9.629  0.9123 -0.2667 -0.0643
   52MOL0     C 6766  -2.507   5.374   9.573  0.5312  0.9354  0.3603
   52MOL0     O 6767  -2.590   5.474   9.602  0.7039  1.1023  0.6702
   52MOL0     C 6768  -2.681   5.446   9.710 -0.6498  0.8489 -0.3102
   52MOL0     C 6769  -2.772   5.561   9.741  0.5683 -0.5496 -0.9086
   52MOL0     C 6770  -2.679   5.679   9.802  0.5260  0.4236 -0.0264
   52MOL0     C 6771  -2.738   5.823   9.794  0.6650  0.4371 -0.5045
   52MOL0     C 6772  -2.752   5.891   9.653  0.0288  0.3107  0.2171
   52MOL0     C 6773  -2.622   5.886   9.560  0.0119 -0.3330  0.6608
   52MOL0     C 6774  -2.640   5.947   9.418  0.5824  0.4625  0.0601
   52MOL0     C 6775  -2.527   5.972   9.321 -0.8277  0.0524  0.5584
   52MOL0    Cl 6776  -2.467   5.816   9.274  0.3683 -0.3570 -0.0103
   52MOL0     C 6777  -2.426   5.397   9.463 -0.8470  0.6448  0.2072
   52MOL0     C 6778  -2.333   5.304   9.410 -0.2611  0.9333 -0.2309
   52MOL0     O 6779  -2.384   4.918   9.370  0.8315 -0.8042 -0.1040
   52MOL0     C 6780  -2.147   4.751   9.313 -0.5610 -0.1684  0.1054
   52MOL0     C 6781  -2.033   4.687   9.258 -0.3208  0.0216 -0.2085
   52MOL0     N 6782  -1.356   4.525   9.044  0.6102 -0.5047 -0.0479
   52MOL0     N 6783  -1.248   4.534   9.113  0.5135  0.0915 -0.4213
   52MOL0     C 6784  -0.175   4.881   9.542 -0.4504  0.6784  0.3154
   52MOL0     C 6785  -0.058   4.943   9.604 -0.1082  0.4780  0.9218
   52MOL0     C 6786   0.293   5.175   9.752 -0.0036  0.1367 -0.2369
   52MOL0     C 6787   0.356   5.264   9.663 -0.2048  0.6682 -0.3328
   52MOL0     C 6788   0.476   5.328   9.700  0.3733 -0.1197 -0.3072
   52MOL0     C 6789   0.538   5.294   9.820 -0.2458 -0.5818 -0.3557
   52MOL0     O 6790   0.660   5.345   9.877 -0.5644  0.1744  0.1298
   52MOL0     C 6791   0.750   5.432   9.817  0.2080  0.0933 -0.7868
   52MOL0     C 6792   0.860   5.459   9.926  0.3570  0.5902 -0.6677
   52MOL0     C 6793   0.949   5.329   9.933 -1.1601 -0.9043 -0.1521
   52MOL0     C 6794   1.037   5.324  10.059 -0.3954  0.0758  0.4786
   52MOL0     C 6795   1.130   5.439  10.054  0.9432  0.1665 -0.2422
   52MOL0     C 6796   1.200   5.537  10.044 -0.3882 -0.0074 -0.2872
   52MOL0     C 6797   0.470   5.209   9.911 -0.2977 -0.7345 -0.0641
   52MOL0     C 6798   0.347   5.157   9.875 -1.1745  0.0737 -0.2135
   52MOL0     H 6799   0.006   5.185   9.379 -0.6596 -0.7457  0.8446
   52MOL0     H 6800  -0.181   5.055   9.252 -3.8999 -2.4007  1.0864
   52MOL0     H 6801  -0.243   4.831   9.174 -0.0364  0.0507  1.0495
   52MOL0     H 6802  -0.351   4.968   9.186  1.2530 -0.1492 -1.8900
   52MOL0     H 6803  -0.534   4.765   9.273 -1.6088  1.7743 -1.4398
   52MOL0     H 6804  -0.441   4.662   9.178 -2.5153 -0.0262  1.7855
   52MOL0     H 6805  -0.467   4.857   9.002  1.5786  1.6424  0.4595
   52MOL0     H 6806  -0.602   4.909   9.100 -1.0818 -1.1846 -0.6652
   52MOL0     H 6807  -0.576   4.662   8.926  0.0029 -0.4229  0.0542
   52MOL0     H 6808  -0.641   4.627   9.087  0.4371  0.3596 -0.0301
   52MOL0     H 6809  -0.842   4.664   8.924  0.7683  0.5617 -2.6140
   52MOL0     H 6810  -0.762   4.823   8.881 -2.4483  2.5143  1.3462
   52MOL0     H 6811  -0.829   4.928   9.066  0.7261 -0.6254 -3.2350
   52MOL0     H 6812  -0.824   4.781   9.167 -1.8176 -0.3642  0.5129
   52MOL0     H 6813  -1.048   4.900   9.093  0.3846  0.1031  0.2327
   52MOL0     H 6814  -1.031   4.796   8.957 -2.8445  1.7132  1.0394
   52MOL0     H 6815  -1.054   4.702   9.252 -0.5198 -5.1147  1.7081
   52MOL0     H 6816  -0.989   4.601   9.127 -2.6162 -2.1140  1.6142
   52MOL0     H 6817  -1.260   4.830   9.002 -2.9091  0.5311 -1.4137
   52MOL0     H 6818  -1.471   4.616   8.811  0.6450  1.9106 -1.3625
   52MOL0     H 6819  -1.441   4.785   8.838 -0.5760  0.5037 -0.5480
   52MOL0     H 6820  -1.683   4.742   8.875  0.1189  2.9810  0.5387
   52MOL0     H 6821  -1.615   4.782   9.031 -3.4782  1.7295 -1.0396
   52MOL0     H 6822  -1.700   4.507   8.929 -0.9131 -0.7980  0.4411
   52MOL0     H 6823  -1.612   4.527   9.080 -2.7968 -0.9821  1.6106
   52MOL0     H 6824  -1.835   4.506   9.151  1.1658  1.3556  1.7915
   52MOL0     H 6825  -1.897   4.615   9.023  1.1535 -0.5106 -2.6970
   52MOL0     H 6826  -1.830   4.952   9.223 -0.5848  0.2642 -2.3987
   52MOL0     H 6827  -2.017   5.062   9.328 -1.8457  0.6873 -1.3897
   52MOL0     H 6828  -2.402   5.057   9.627 -2.6729 -0.9846 -2.9164
   52MOL0     H 6829  -2.567   5.225   9.710 -2.2626  1.8839 -2.1235
   52MOL0     H 6830  -2.631   5.417   9.803 -0.1652  2.6845  0.0404
   52MOL0     H 6831  -2.745   5.362   9.681 -2.0567  1.1284  1.7449
   52MOL0     H 6832  -2.837   5.527   9.823  1.1239 -1.7149 -0.9329
   52MOL0     H 6833  -2.836   5.589   9.657  1.1429  0.0089 -1.1670
   52MOL0     H 6834  -2.591   5.693   9.739 -1.2978  0.1373 -2.8226
   52MOL0     H 6835  -2.663   5.653   9.907  0.6372 -1.8964 -0.5603
   52MOL0     H 6836  -2.839   5.817   9.835  0.7102  1.9422 -0.1029
   52MOL0     H 6837  -2.686   5.887   9.866  2.0274  1.3466 -2.2531
   52MOL0     H 6838  -2.798   5.990   9.662  0.4991  0.6099 -0.6266
   52MOL0     H 6839  -2.827   5.833   9.600  1.9707 -1.2665 -0.9279
   52MOL0     H 6840  -2.601   5.781   9.540  1.4214  0.2712 -1.3734
   52MOL0     H 6841  -2.543   5.932   9.620  1.6572 -4.0407  1.6355
   52MOL0     H 6842  -2.706   5.876   9.366 -1.3373  2.8427 -0.9857
   52MOL0     H 6843  -2.676   6.047   9.444  1.8346 -0.2075  5.5312
   52MOL0     H 6844  -2.450   6.032   9.371 -0.2154  0.8610 -1.2594
   52MOL0     H 6845  -2.573   6.033   9.242 -0.5469 -0.6368 -0.1538
   52MOL0     H 6846  -2.426   5.489   9.405 -2.2108  0.3105 -0.3696
   52MOL0     H 6847  -2.274   5.335   9.324  0.4382  0.8590  0.2145
   52MOL0     H 6848  -2.238   4.697   9.339 -0.1898 -1.1343 -0.5041
   52MOL0     H 6849  -2.024   4.581   9.241  0.4165 -0.0682  0.6582
   52MOL0     H 6850  -0.219   4.792   9.585  0.2602  0.3564  0.3938
   52MOL0     H 6851  -0.019   4.893   9.692  1.7414  0.3605  0.0887
   52MOL0     H 6852   0.309   5.287   9.567 -1.3159 -1.9512 -0.5022
   52MOL0     H 6853   0.516   5.405   9.634  2.6567 -0.0862  1.0265
   52MOL0     H 6854   0.711   5.526   9.776  2.6361  1.2738 -0.5594
   52MOL0     H 6855   0.778   5.395   9.718 -0.6399 -0.4428 -0.8374
   52MOL0     H 6856   0.915   5.550   9.901 -0.9040  1.4959 -0.2661
   52MOL0     H 6857   0.816   5.476  10.025  2.0247  3.5411 -0.3096
   52MOL0     H 6858   1.010   5.316   9.843 -0.0679 -2.7415  0.7941
   52MOL0     H 6859   0.883   5.241   9.934  0.6197 -2.4223 -3.0401
   52MOL0     H 6860   0.969   5.329  10.144 -0.6902  0.0610  0.2499
   52MOL0     H 6861   1.100   5.236  10.075  4.6030  3.3714  1.1607
   52MOL0     H 6862   1.268   5.620  10.044  0.3865 -0.6341 -0.1781
   52MOL0     H 6863   0.513   5.175  10.005 -3.2317 -1.5737  1.0875
   52MOL0     H 6864   0.305   5.098   9.955 -0.0600  0.9486  1.0756
   53MOL0     O 6865   0.511   0.149   6.138 -0.0517 -0.1811  0.4685
   53MOL0     C 6866   0.582   0.081   6.059 -1.0995 -0.2439  1.3338
   53MOL0     O 6867   0.537   0.047   5.929 -0.2107  0.9931  0.7097
   53MOL0     C 6868   0.400   0.054   5.922  0.5398  0.2845 -0.8619
   53MOL0     C 6869   0.327  -0.060   5.958  0.7285  1.0249 -0.4976
   53MOL0     C 6870   0.186  -0.057   5.957 -0.2705  0.1030  0.5207
   53MOL0     C 6871   0.126   0.064   5.914  1.9430  0.6342 -0.5193
   53MOL0     O 6872  -0.017   0.073   5.929  0.2185  0.3084 -0.2580
   53MOL0     C 6873  -0.096  -0.032   5.866 -0.4996 -0.3081  0.3198
   53MOL0     C 6874  -0.174  -0.088   5.984  0.1161  0.1182  0.0252
   53MOL0     C 6875  -0.254  -0.218   5.959 -0.7967  0.0467 -0.1222
   53MOL0     C 6876  -0.323  -0.274   6.092  0.8923  0.0283 -0.0497
   53MOL0     C 6877  -0.394  -0.397   6.066  0.2263  0.9873  0.7167
   53MOL0     C 6878  -0.316  -0.517   6.128 -0.1544 -0.0762 -0.2947
   53MOL0     C 6879  -0.219  -0.568   6.022  0.5258  0.0453  1.2065
   53MOL0     C 6880  -0.117  -0.667   6.069 -0.7169 -0.2681 -0.0298
   53MOL0     N 6881  -0.174  -0.781   6.144  0.4864 -0.5526  0.2916
   53MOL0     C 6882  -0.272  -0.872   6.104 -0.1502  0.1574 -0.2846
   53MOL0     C 6883  -0.288  -0.950   6.219 -0.3175  1.2396 -0.0263
   53MOL0     C 6884  -0.373  -1.074   6.231  0.3520  0.2862 -0.2053
   53MOL0     C 6885  -0.382  -1.133   6.373  0.7420  0.0403  0.4163
   53MOL0     C 6886  -0.475  -1.264   6.385 -0.9814 -1.0483  0.1745
   53MOL0     C 6887  -0.619  -1.227   6.399  0.0599 -0.2690 -0.1557
   53MOL0     O 6888  -0.667  -1.143   6.292 -0.1661  0.0253  0.2149
   53MOL0     C 6889  -0.804  -1.109   6.286  0.6082 -1.1324 -1.0242
   53MOL0     C 6890  -0.909  -1.160   6.369 -0.8387  0.2127 -0.9986
   53MOL0     C 6891  -1.041  -1.130   6.348 -0.0165  0.2078 -1.0804
   53MOL0     C 6892  -1.080  -1.049   6.241 -0.2644 -0.1009 -0.0971
   53MOL0     C 6893  -1.219  -1.013   6.202  0.1486 -0.3152 -0.4931
   53MOL0     O 6894  -1.255  -0.958   6.092 -0.3359  0.4328  0.6208
   53MOL0     C 6895  -1.388  -0.948   6.065 -0.2105  1.4200  0.4527
   53MOL0     C 6896  -1.471  -0.863   6.133 -0.1703  0.6153  0.1484
   53MOL0     C 6897  -1.600  -0.853   6.098  0.1407 -0.4253 -0.6253
   53MOL0     C 6898  -1.646  -0.925   5.982 -0.7739  0.5780  0.0099
   53MOL0     O 6899  -1.770  -0.917   5.925 -0.5141 -0.0963 -0.4233
   53MOL0     C 6900  -1.870  -0.866   6.000 -0.1253 -0.3986 -1.0416
   53MOL0     C 6901  -2.013  -0.904   5.955  0.5769 -0.0575 -0.6754
   53MOL0     C 6902  -2.111  -0.783   5.957 -0.4924  0.3947 -0.2346
   53MOL0     C 6903  -2.228  -0.807   6.061 -0.3393  0.0316  0.4078
   53MOL0     C 6904  -2.294  -0.669   6.085 -0.2418 -0.4072  0.0622
   53MOL0     C 6905  -2.415  -0.693   6.175 -0.2729 -0.0649 -0.6149
   53MOL0     C 6906  -2.477  -0.555   6.211  0.3804 -0.4591 -0.2830
   53MOL0     C 6907  -2.624  -0.571   6.267 -0.2599  0.9987  0.6873
   53MOL0    Cl 6908  -2.729  -0.415   6.296 -0.3104  0.0262  0.0353
   53MOL0     C 6909  -1.559  -1.017   5.919  0.0536  0.1509 -0.3094
   53MOL0     C 6910  -1.430  -1.024   5.952  0.0651  0.8388 -0.6670
   53MOL0     O 6911  -1.304  -1.046   6.292 -0.0251 -0.4715 -0.1524
   53MOL0     C 6912  -0.980  -1.003   6.154 -0.4137  0.2699  1.0464
   53MOL0     C 6913  -0.847  -1.033   6.178  0.1960  0.3626 -0.2772
   53MOL0     N 6914  -0.197  -0.911   6.313 -0.8206  0.3338 -0.1864
   53MOL0     N 6915  -0.132  -0.809   6.271 -0.1232 -0.6908  0.8348
   53MOL0     C 6916   0.192   0.185   5.897  0.0967 -0.8622 -0.1761
   53MOL0     C 6917   0.328   0.175   5.900 -0.5885  0.5596  1.1185
   53MOL0     C 6918   0.724   0.041   6.097 -0.1063  0.2600  0.3584
   53MOL0     C 6919   0.808  -0.018   5.999  0.5625  0.2545 -0.9121
   53MOL0     C 6920   0.941  -0.066   6.029  0.4203 -0.1019 -0.2061
   53MOL0     C 6921   0.995  -0.050   6.157 -0.8676 -0.8598 -0.5576
   53MOL0     O 6922   1.130  -0.071   6.192 -0.3127  1.3634  0.4282
   53MOL0     C 6923   1.219  -0.060   6.081 -0.3444  0.0347 -0.7909
   53MOL0     C 6924   1.356   0.005   6.137 -0.7187  0.1517  0.2442
   53MOL0     C 6925   1.484  -0.013   6.042  0.0180 -0.6523 -0.1088
   53MOL0     C 6926   1.498   0.102   5.947  0.6665 -0.9192 -1.4470
   53MOL0     C 6927   1.397   0.083   5.842  0.2389 -0.1932 -0.7017
   53MOL0     C 6928   1.336   0.080   5.749  0.9365 -0.0641  0.0681
   53MOL0     C 6929   0.915   0.010   6.260  0.1197  0.2453  0.5950
   53MOL0     C 6930   0.779   0.046   6.227 -0.5922 -0.6091  0.0354
   53MOL0     H 6931   0.359  -0.160   5.986 -0.8849  0.8232  0.7624
   53MOL0     H 6932   0.138  -0.149   5.988  0.1479 -0.3657 -0.1873
   53MOL0     H 6933  -0.040  -0.107   5.809  0.5223 -0.4435  1.4472
   53MOL0     H 6934  -0.162   0.016   5.794  2.2927  1.5332 -1.2181
   53MOL0     H 6935  -0.252  -0.017   6.010 -0.0028 -0.7926  2.3765
   53MOL0     H 6936  -0.109  -0.104   6.070 -0.4433 -1.5353  0.1783
   53MOL0     H 6937  -0.191  -0.286   5.900  0.1186  2.9758 -2.8354
   53MOL0     H 6938  -0.335  -0.190   5.892  0.7321  0.2664 -1.9857
   53MOL0     H 6939  -0.244  -0.292   6.165  0.7198  0.8879  0.3517
   53MOL0     H 6940  -0.395  -0.198   6.124 -0.3421 -1.6114  1.2607
   53MOL0     H 6941  -0.420  -0.416   5.961  4.8066 -0.3647 -0.3788
   53MOL0     H 6942  -0.492  -0.392   6.115 -0.5969 -0.9825 -0.5718
   53MOL0     H 6943  -0.386  -0.595   6.157 -2.0021  1.2401 -1.0297
   53MOL0     H 6944  -0.260  -0.490   6.218 -1.6688 -0.5287  0.8069
   53MOL0     H 6945  -0.277  -0.601   5.935  3.0909  0.1061 -0.6288
   53MOL0     H 6946  -0.167  -0.481   5.980 -0.8984 -0.5520 -2.0819
   53MOL0     H 6947  -0.043  -0.613   6.130  0.2613 -1.5677 -0.0180
   53MOL0     H 6948  -0.063  -0.715   5.987 -3.1368  0.1011 -1.9365
   53MOL0     H 6949  -0.329  -0.877   6.011  1.3487 -1.0834 -1.1961
   53MOL0     H 6950  -0.342  -1.152   6.160  1.0452  1.6361 -1.4450
   53MOL0     H 6951  -0.466  -1.042   6.185  0.0735  1.1860  0.9443
   53MOL0     H 6952  -0.429  -1.058   6.438  0.3276  2.4411 -2.4366
   53MOL0     H 6953  -0.284  -1.166   6.408 -0.6235 -2.6480  2.0829
   53MOL0     H 6954  -0.464  -1.322   6.293  0.7528  1.4741 -1.3258
   53MOL0     H 6955  -0.437  -1.325   6.467  1.1605 -3.1670 -2.2589
   53MOL0     H 6956  -0.628  -1.164   6.487 -1.6961 -1.6837  0.7323
   53MOL0     H 6957  -0.679  -1.317   6.411 -2.2956  1.0869 -0.9500
   53MOL0     H 6958  -0.879  -1.211   6.460 -4.4254  0.7401  0.6668
   53MOL0     H 6959  -1.108  -1.168   6.424  0.4719  0.6236 -0.4352
   53MOL0     H 6960  -1.417  -0.808   6.210  3.8831 -0.0259 -1.9543
   53MOL0     H 6961  -1.659  -0.789   6.162  1.6358 -0.5138  0.9170
   53MOL0     H 6962  -1.868  -0.757   6.013 -0.4519 -0.2717 -1.9494
   53MOL0     H 6963  -1.881  -0.918   6.095 -2.7902  2.8741  0.6441
   53MOL0     H 6964  -2.055  -0.979   6.022 -0.5613  0.8612 -0.3348
   53MOL0     H 6965  -2.017  -0.951   5.856  0.0757 -3.8634  0.9925
   53MOL0     H 6966  -2.147  -0.761   5.857  0.1514  1.7828 -0.1764
   53MOL0     H 6967  -2.064  -0.691   5.992  4.6366 -3.0142  3.3638
   53MOL0     H 6968  -2.293  -0.888   6.027 -1.3664  0.3892  1.4632
   53MOL0     H 6969  -2.179  -0.857   6.145  0.3241 -0.4542 -0.2566
   53MOL0     H 6970  -2.348  -0.642   5.994 -0.8511 -0.9726  0.2459
   53MOL0     H 6971  -2.230  -0.592   6.129  2.2152  0.2548 -4.1598
   53MOL0     H 6972  -2.386  -0.738   6.270  3.0252 -1.1322 -1.9660
   53MOL0     H 6973  -2.486  -0.757   6.122  0.8704 -1.1648 -0.8596
   53MOL0     H 6974  -2.418  -0.509   6.291  0.3336 -2.7150  1.1400
   53MOL0     H 6975  -2.478  -0.496   6.119  0.6111  0.1087  0.0708
   53MOL0     H 6976  -2.624  -0.618   6.366 -2.0942  2.6092  1.5072
   53MOL0     H 6977  -2.674  -0.637   6.195 -3.8919  1.4944  2.5460
   53MOL0     H 6978  -1.581  -1.064   5.823  0.9692  1.5260 -1.2271
   53MOL0     H 6979  -1.356  -1.078   5.895  1.2909  4.2885 -2.6039
   53MOL0     H 6980  -1.012  -0.938   6.073 -0.7917 -0.8013  0.3084
   53MOL0     H 6981  -0.770  -0.995   6.111 -1.9181  2.2598 -1.7769
   53MOL0     H 6982   0.142   0.281   5.903 -0.2683 -1.0249 -0.6064
   53MOL0     H 6983   0.390   0.262   5.879  0.4919 -0.8409 -2.0983
   53MOL0     H 6984   0.768  -0.021   5.898 -2.7382 -1.5590  0.2903
   53MOL0     H 6985   0.992  -0.103   5.941 -1.5026 -2.5733 -0.3773
   53MOL0     H 6986   1.175   0.006   6.005 -1.4847 -0.1225 -0.2838
   53MOL0     H 6987   1.246  -0.156   6.036  1.4556  0.0216  0.1928
   53MOL0     H 6988   1.340   0.108   6.171  0.0644  0.4193 -0.1646
   53MOL0     H 6989   1.390  -0.055   6.222 -3.6800 -4.1889 -1.2956
   53MOL0     H 6990   1.483  -0.112   5.995 -0.7745 -0.2390 -1.0029
   53MOL0     H 6991   1.574  -0.018   6.104 -2.2646 -2.1772  3.4017
   53MOL0     H 6992   1.471   0.195   5.998 -1.1346 -0.2144 -3.5103
   53MOL0     H 6993   1.603   0.103   5.915  0.1389 -1.8590 -3.3488
   53MOL0     H 6994   1.283   0.090   5.656  0.6650  1.2857  0.3408
   53MOL0     H 6995   0.963   0.035   6.353 -0.9710 -0.4914  1.3806
   53MOL0     H 6996   0.721   0.099   6.301 -0.5473  0.9825 -1.0243
   54MOL0     O 6997   2.142   9.265   5.548 -0.7475 -0.0669  0.4079
   54MOL0     C 6998   2.059   9.196   5.486 -0.2341 -0.2302 -0.1855
   54MOL0     O 6999   2.092   9.126   5.370 -0.3221 -0.5445 -0.2149
   54MOL0     C 7000   2.222   9.112   5.330  1.3516 -1.5148  1.0090
   54MOL0     C 7001   2.262   8.986   5.308 -0.4816  0.6836  0.5922
   54MOL0     C 7002   2.384   8.957   5.240 -0.5866  0.3501 -0.0442
   54MOL0     C 7003   2.473   9.063   5.199  1.1500  1.2087 -0.5713
   54MOL0     O 7004   2.588   9.027   5.136  0.0112  0.0799  0.6051
   54MOL0     C 7005   2.676   9.123   5.077 -0.4288 -0.0063  0.3232
   54MOL0     C 7006   2.810   9.065   5.059  0.9930 -0.5257 -0.4500
   54MOL0     C 7007   2.895   9.147   4.955 -0.9306 -0.3271  0.4328
   54MOL0     C 7008   3.047   9.123   4.980 -0.4703 -0.2575 -0.5922
   54MOL0     C 7009   3.128   9.177   4.865 -0.2575  0.1889 -0.7399
   54MOL0     C 7010   3.281   9.179   4.912  0.5397 -0.5379  1.1271
   54MOL0     C 7011   3.356   9.260   4.811  0.1205 -0.0796 -0.0548
   54MOL0     C 7012   3.367   9.187   4.682  0.8045 -0.5808 -0.1933
   54MOL0     N 7013   3.473   9.230   4.591  0.4434 -0.2041 -0.9909
   54MOL0     C 7014   3.467   9.344   4.517  0.7988 -0.2172  0.0260
   54MOL0     C 7015   3.578   9.337   4.458 -0.5795  0.4773  0.8879
   54MOL0     C 7016   3.634   9.446   4.369  0.8332 -0.1267  0.1155
   54MOL0     C 7017   3.711   9.553   4.451  0.1689  0.3997 -0.3566
   54MOL0     C 7018   3.772   9.515   4.589 -0.6489  0.0900  0.2816
   54MOL0     C 7019   3.917   9.465   4.577  0.9220 -0.3250  0.5498
   54MOL0     O 7020   4.014   9.572   4.561  0.0002  0.4929  0.0518
   54MOL0     C 7021   4.147   9.538   4.557 -0.2482  0.1881  0.4670
   54MOL0     C 7022   4.244   9.605   4.629  0.3691  0.7487 -0.8018
   54MOL0     C 7023   4.376   9.556   4.643 -0.4743 -0.9194  0.2455
   54MOL0     C 7024   4.420   9.455   4.553 -0.0022 -0.5849  0.3421
   54MOL0     C 7025   4.564   9.420   4.556 -0.3446 -0.3093  0.2467
   54MOL0     O 7026   4.618   9.331   4.457  0.0341  0.7460 -0.0540
   54MOL0     C 7027   4.757   9.318   4.456  0.2161 -1.0433  0.4649
   54MOL0     C 7028   4.818   9.183   4.467  1.0178 -0.3244 -0.6712
   54MOL0     C 7029   4.959   9.170   4.471  0.7273  0.3908 -0.3855
   54MOL0     C 7030   5.034   9.287   4.461 -0.0045  0.4286  0.3983
   54MOL0     O 7031   5.168   9.268   4.481  0.7491 -0.5931  0.4637
   54MOL0     C 7032   5.228   9.358   4.572 -0.1857  0.9753 -0.2845
   54MOL0     C 7033   5.382   9.363   4.529  0.3521  0.3082 -0.3907
   54MOL0     C 7034   5.453   9.488   4.571 -0.5842 -0.3445 -0.4649
   54MOL0     C 7035   5.603   9.488   4.532 -0.3729  0.0886  0.8892
   54MOL0     C 7036   5.679   9.596   4.607 -0.2375  0.9215 -0.2286
   54MOL0     C 7037   5.809   9.643   4.534 -0.1702  0.3039 -0.9988
   54MOL0     C 7038   5.910   9.536   4.520 -0.5864  0.0946  0.1264
   54MOL0     C 7039   5.971   9.500   4.651 -0.3814 -0.1468  0.6443
   54MOL0    Cl 7040   6.069   9.363   4.609  0.2815  0.0592 -0.3999
   54MOL0     C 7041   4.978   9.414   4.431  0.6138  0.7906  0.2800
   54MOL0     C 7042   4.840   9.426   4.434 -0.1516 -0.1524  0.1113
   54MOL0     O 7043   4.632   9.489   4.635  0.7069 -0.0594  0.1111
   54MOL0     C 7044   4.321   9.390   4.477  0.0651 -0.6721 -0.5924
   54MOL0     C 7045   4.191   9.436   4.471 -0.6013  0.3991 -0.2372
   54MOL0     N 7046   3.652   9.220   4.490  1.7557  0.1816  0.1265
   54MOL0     N 7047   3.588   9.163   4.574 -0.3848 -0.3771 -0.5144
   54MOL0     C 7048   2.420   9.192   5.225 -0.5217  0.3428 -0.8276
   54MOL0     C 7049   2.300   9.219   5.290 -0.3041  0.1339 -0.0318
   54MOL0     C 7050   1.920   9.179   5.537 -0.6222 -0.1026  1.1102
   54MOL0     C 7051   1.872   9.245   5.655 -0.6022  0.0704 -0.9776
   54MOL0     C 7052   1.733   9.261   5.689 -0.3771  0.1763 -0.2622
   54MOL0     C 7053   1.649   9.208   5.596 -0.2375  0.6756 -0.1167
   54MOL0     O 7054   1.510   9.206   5.617  0.3975 -0.7651 -0.4028
   54MOL0     C 7055   1.457   9.306   5.703 -0.1106  0.2806 -0.2598
   54MOL0     C 7056   1.311   9.289   5.703 -0.1007 -1.0627  0.5133
   54MOL0     C 7057   1.242   9.322   5.563  0.5967  0.2240 -0.6438
   54MOL0     C 7058   1.108   9.265   5.530 -1.0430 -0.1439 -0.4493
   54MOL0     C 7059   1.022   9.243   5.646 -0.1066 -0.6738 -0.1717
   54MOL0     C 7060   0.940   9.236   5.732  0.7970  0.2475 -0.7503
   54MOL0     C 7061   1.696   9.135   5.482 -0.2279 -0.8152 -0.1838
   54MOL0     C 7062   1.827   9.121   5.457  0.4649  0.0653  0.0102
   54MOL0     H 7063   2.188   8.909   5.330 -0.2049 -1.0205 -3.4977
   54MOL0     H 7064   2.415   8.856   5.216 -2.6305 -0.3465  0.1111
   54MOL0     H 7065   2.691   9.207   5.146  2.7962 -2.2840  2.6937
   54MOL0     H 7066   2.637   9.148   4.978 -0.5080 -1.6793 -0.0972
   54MOL0     H 7067   2.800   8.958   5.040  0.8246 -0.6192  0.1504
   54MOL0     H 7068   2.853   9.086   5.157 -1.1247  1.8379  0.0836
   54MOL0     H 7069   2.870   9.254   4.961 -1.1979 -0.4370  1.5350
   54MOL0     H 7070   2.876   9.111   4.854  4.3922  0.5459 -1.1795
   54MOL0     H 7071   3.069   9.157   5.081 -2.3200 -0.2648 -0.1447
   54MOL0     H 7072   3.053   9.014   4.977 -4.3678 -0.6195 -1.4694
   54MOL0     H 7073   3.088   9.279   4.861 -0.7646  0.1125  1.1843
   54MOL0     H 7074   3.113   9.122   4.772 -0.6125 -0.6192 -0.2153
   54MOL0     H 7075   3.326   9.080   4.907  2.4248  0.3374 -1.3280
   54MOL0     H 7076   3.300   9.232   5.006  0.5596  4.2354 -1.2624
   54MOL0     H 7077   3.317   9.362   4.802  0.3196  0.3115  2.6343
   54MOL0     H 7078   3.460   9.280   4.836  0.3094 -0.1403 -0.7529
   54MOL0     H 7079   3.270   9.190   4.632 -1.2312 -0.7772  3.4056
   54MOL0     H 7080   3.384   9.081   4.704  0.0105 -0.6608  0.0435
   54MOL0     H 7081   3.397   9.427   4.513 -2.6561 -2.9744 -1.2120
   54MOL0     H 7082   3.558   9.489   4.304  1.3135 -0.4759 -0.6949
   54MOL0     H 7083   3.708   9.397   4.304  1.3110  1.1389 -0.3173
   54MOL0     H 7084   3.634   9.627   4.476 -0.9767 -0.8997  0.1479
   54MOL0     H 7085   3.794   9.591   4.391  1.0162 -0.5829  0.1652
   54MOL0     H 7086   3.776   9.614   4.635 -0.0448 -0.0490  0.5282
   54MOL0     H 7087   3.700   9.448   4.636 -2.1365  0.2644 -1.5995
   54MOL0     H 7088   3.917   9.394   4.494 -3.2061  0.2843 -0.1716
   54MOL0     H 7089   3.941   9.404   4.664  1.3154  0.5183  1.0426
   54MOL0     H 7090   4.217   9.684   4.699 -0.4920  2.0443 -2.5409
   54MOL0     H 7091   4.452   9.603   4.703  1.2055 -1.5312 -1.3253
   54MOL0     H 7092   4.759   9.094   4.450  1.6915 -0.9820  0.3620
   54MOL0     H 7093   5.018   9.079   4.464 -2.0425 -1.4860 -1.5402
   54MOL0     H 7094   5.226   9.320   4.674  0.3835  2.9548  0.4992
   54MOL0     H 7095   5.184   9.456   4.591 -0.2981  0.6557  1.2574
   54MOL0     H 7096   5.392   9.356   4.420  1.1597  1.2170 -0.3926
   54MOL0     H 7097   5.431   9.275   4.571 -2.1701 -1.6947 -1.3285
   54MOL0     H 7098   5.452   9.488   4.681 -1.4818 -2.7529 -0.4195
   54MOL0     H 7099   5.405   9.580   4.536  0.6561  0.7230  0.5079
   54MOL0     H 7100   5.649   9.391   4.553  1.7982  0.7109 -0.6730
   54MOL0     H 7101   5.607   9.509   4.424  2.3689 -0.5553  0.7866
   54MOL0     H 7102   5.684   9.562   4.711 -3.5014 -0.8724 -0.5294
   54MOL0     H 7103   5.620   9.688   4.608  0.6092  1.5543  2.8008
   54MOL0     H 7104   5.844   9.733   4.585 -1.5137  0.0780  0.4034
   54MOL0     H 7105   5.789   9.671   4.430 -0.1819 -0.6157 -1.2469
   54MOL0     H 7106   5.855   9.457   4.468 -1.3038  1.4715 -1.2985
   54MOL0     H 7107   5.988   9.564   4.448  0.3539 -3.0165 -0.2300
   54MOL0     H 7108   5.896   9.469   4.724  1.0507 -3.4140  0.8937
   54MOL0     H 7109   6.022   9.586   4.696  1.0780 -0.9365  0.5535
   54MOL0     H 7110   5.035   9.503   4.409  1.5896 -0.6978 -4.5249
   54MOL0     H 7111   4.781   9.517   4.433  1.8604  1.2444  1.6482
   54MOL0     H 7112   4.338   9.294   4.428 -0.1844 -1.3822  0.6581
   54MOL0     H 7113   4.119   9.403   4.397 -1.0741  1.2982 -0.1916
   54MOL0     H 7114   2.485   9.277   5.209  1.7087 -0.7155  1.7191
   54MOL0     H 7115   2.264   9.318   5.314 -1.4621 -1.3364  6.0918
   54MOL0     H 7116   1.948   9.299   5.711  0.8329 -3.1744  0.4545
   54MOL0     H 7117   1.695   9.304   5.782  0.4851  1.1461 -0.3285
   54MOL0     H 7118   1.481   9.408   5.671  2.5409 -0.3918 -0.6900
   54MOL0     H 7119   1.495   9.291   5.805 -0.7884 -2.8871 -0.3644
   54MOL0     H 7120   1.290   9.184   5.724 -1.2919 -0.8673  0.3993
   54MOL0     H 7121   1.262   9.337   5.788  3.0086 -0.5301  2.1406
   54MOL0     H 7122   1.320   9.313   5.487 -0.2355 -0.8171 -1.3970
   54MOL0     H 7123   1.231   9.430   5.554 -1.0515  0.3501  1.8193
   54MOL0     H 7124   1.057   9.335   5.464  1.0518  0.0226 -1.9852
   54MOL0     H 7125   1.118   9.172   5.474  0.4494  1.5034 -3.1537
   54MOL0     H 7126   0.858   9.241   5.801  1.3700  0.6388 -0.0927
   54MOL0     H 7127   1.626   9.102   5.405 -1.8165  2.8394 -0.5032
   54MOL0     H 7128   1.857   9.071   5.365 -0.2850 -2.9665  1.2972
   55MOL0     O 7129   1.805   0.137   1.646 -1.2603 -0.7396  0.1336
   55MOL0     C 7130   1.883   0.130   1.742  1.0505 -0.0915 -0.3441
   55MOL0     O 7131   1.950   0.017   1.785 -0.2623 -0.2530  0.9331
   55MOL0     C 7132   1.920  -0.086   1.697 -0.0886 -0.2337  0.5115
   55MOL0     C 7133   2.010  -0.131   1.601 -0.9653  0.1411  1.0232
   55MOL0     C 7134   1.973  -0.222   1.499 -0.7248  0.3305 -0.0268
   55MOL0     C 7135   1.856  -0.279   1.496 -0.1193  0.4771  0.8051
   55MOL0     O 7136   1.813  -0.365   1.403 -0.4360  0.4232  1.0372
   55MOL0     C 7137   1.897  -0.443   1.312 -0.3430  0.4428 -0.0554
   55MOL0     C 7138   1.921  -0.368   1.191  0.0185 -0.7127  0.2755
   55MOL0     C 7139   1.802  -0.379   1.090 -0.0917 -0.7418 -0.3888
   55MOL0     C 7140   1.848  -0.311   0.963 -0.2500 -0.1854 -0.1994
   55MOL0     C 7141   1.721  -0.257   0.897 -0.4763  0.2881  0.2485
   55MOL0     C 7142   1.653  -0.357   0.797  0.5913 -0.0481  0.4691
   55MOL0     C 7143   1.511  -0.310   0.765  1.1753  1.0314  0.2869
   55MOL0     C 7144   1.461  -0.409   0.656  0.2098  0.6238 -0.3147
   55MOL0     N 7145   1.326  -0.386   0.621 -0.0263  0.1982  0.6566
   55MOL0     C 7146   1.262  -0.283   0.547 -0.3156  0.4677 -0.1428
   55MOL0     C 7147   1.134  -0.294   0.554  0.5033  0.7186 -0.3412
   55MOL0     C 7148   1.025  -0.193   0.501  0.6264 -0.2147 -0.8377
   55MOL0     C 7149   0.979  -0.235   0.364  0.2542 -0.7592  0.6830
   55MOL0     C 7150   0.914  -0.377   0.374 -0.6832 -0.9886 -0.4091
   55MOL0     C 7151   0.803  -0.410   0.281 -0.0525  0.1999  0.1071
   55MOL0     O 7152   0.734  -0.531   0.321 -0.7470  0.6087  0.2338
   55MOL0     C 7153   0.631  -0.572   0.239  0.3469  0.3665  0.6503
   55MOL0     C 7154   0.568  -0.486   0.145 -0.3349 -0.3732  0.0674
   55MOL0     C 7155   0.452  -0.520   0.075 -1.1043 -1.1452 -0.5962
   55MOL0     C 7156   0.394  -0.647   0.106  1.0608  0.0732  0.8147
   55MOL0     C 7157   0.265  -0.681   0.038 -0.2813  0.3400  0.4640
   55MOL0     O 7158   0.231  -0.613  -0.082  0.3471 -0.2587 -0.9277
   55MOL0     C 7159   0.104  -0.610  -0.133  0.6827 -0.1375 -0.6122
   55MOL0     C 7160   0.006  -0.702  -0.108  0.5131  0.5259 -0.2079
   55MOL0     C 7161  -0.122  -0.683  -0.144 -1.1719 -0.2000 -0.8788
   55MOL0     C 7162  -0.152  -0.566  -0.217  0.4685 -0.3924 -0.0963
   55MOL0     O 7163  -0.284  -0.550  -0.246 -0.3054  1.9280  0.3280
   55MOL0     C 7164  -0.314  -0.513  -0.383 -0.3973 -0.8147 -0.3845
   55MOL0     C 7165  -0.373  -0.630  -0.458  0.2555 -0.1739 -0.3924
   55MOL0     C 7166  -0.503  -0.685  -0.392 -0.2718  0.3804  0.1924
   55MOL0     C 7167  -0.572  -0.794  -0.484  0.2276  0.0861  0.5912
   55MOL0     C 7168  -0.483  -0.911  -0.529  0.4282  0.2079 -0.2050
   55MOL0     C 7169  -0.398  -0.975  -0.404 -0.7258 -0.4621  0.0145
   55MOL0     C 7170  -0.305  -1.083  -0.463  0.4928  0.3369 -0.1591
   55MOL0     C 7171  -0.173  -1.054  -0.516 -0.4537 -0.6755 -0.6556
   55MOL0    Cl 7172  -0.082  -0.960  -0.393 -0.1887 -0.3809  0.0746
   55MOL0     C 7173  -0.057  -0.464  -0.237  0.3575  0.0423  0.9400
   55MOL0     C 7174   0.066  -0.493  -0.195  0.6010 -0.6107  0.5224
   55MOL0     O 7175   0.193  -0.770   0.097 -0.8102 -0.7646  0.7695
   55MOL0     C 7176   0.457  -0.744   0.194  0.7147 -0.2114  0.2289
   55MOL0     C 7177   0.565  -0.696   0.269 -0.3496  0.0283  0.7784
   55MOL0     N 7178   1.110  -0.417   0.620 -0.4422 -1.0752 -0.3185
   55MOL0     N 7179   1.227  -0.464   0.658  0.4508 -0.2988 -0.1350
   55MOL0     C 7180   1.760  -0.229   1.587 -0.0391  1.2532 -0.5618
   55MOL0     C 7181   1.789  -0.139   1.685 -0.3860 -0.6057  0.8230
   55MOL0     C 7182   1.909   0.256   1.808 -0.5895 -0.2018 -0.3565
   55MOL0     C 7183   1.881   0.381   1.759  0.2046  0.2906  0.2415
   55MOL0     C 7184   1.895   0.494   1.839  0.4277 -0.2486 -0.2397
   55MOL0     C 7185   1.967   0.488   1.961 -0.0804  0.5118 -0.3104
   55MOL0     O 7186   1.977   0.588   2.045 -0.7206  0.4344 -0.2736
   55MOL0     C 7187   1.877   0.576   2.147  0.0609  0.2458 -0.8598
   55MOL0     C 7188   1.904   0.678   2.255  0.0723 -0.3411  0.4688
   55MOL0     C 7189   1.856   0.821   2.221 -0.2656  0.3737 -0.5149
   55MOL0     C 7190   1.901   0.922   2.321  0.0904 -0.3740 -0.3902
   55MOL0     C 7191   1.863   1.057   2.288  0.3116  0.4652 -0.0444
   55MOL0     C 7192   1.831   1.169   2.259 -0.1889 -0.1792  0.9699
   55MOL0     C 7193   2.026   0.374   1.990  0.1731  0.2368  0.8333
   55MOL0     C 7194   1.992   0.259   1.916  0.9458  0.7503  0.4350
   55MOL0     H 7195   2.112  -0.097   1.591 -1.6088  1.7858 -0.4108
   55MOL0     H 7196   2.047  -0.249   1.424 -0.5336 -1.3340  0.7045
   55MOL0     H 7197   1.859  -0.541   1.281  2.2028  0.2271 -2.9930
   55MOL0     H 7198   1.995  -0.462   1.357 -2.2773 -1.7687  3.6602
   55MOL0     H 7199   2.015  -0.406   1.148 -0.8574 -2.7934  0.0797
   55MOL0     H 7200   1.931  -0.262   1.216  0.8014 -0.7282  0.0604
   55MOL0     H 7201   1.722  -0.325   1.140  1.5268 -0.5653  2.2017
   55MOL0     H 7202   1.768  -0.481   1.068  1.3180 -1.8818  2.2447
   55MOL0     H 7203   1.920  -0.230   0.980  1.2307 -1.3531 -0.6330
   55MOL0     H 7204   1.884  -0.389   0.895 -3.7337 -1.3173 -0.9307
   55MOL0     H 7205   1.752  -0.173   0.834 -2.4159  0.3096 -0.7897
   55MOL0     H 7206   1.646  -0.213   0.964  1.6830  3.9380  0.5492
   55MOL0     H 7207   1.657  -0.460   0.834  3.3993  0.5747  2.2105
   55MOL0     H 7208   1.712  -0.362   0.705 -0.1141 -1.2283  0.0545
   55MOL0     H 7209   1.450  -0.311   0.855 -1.3067 -0.9149 -1.2866
   55MOL0     H 7210   1.516  -0.214   0.712 -0.2076  0.4734 -0.9347
   55MOL0     H 7211   1.468  -0.498   0.719  0.2816  1.1801  0.4753
   55MOL0     H 7212   1.514  -0.418   0.561 -2.6199 -0.4474 -1.9112
   55MOL0     H 7213   1.312  -0.198   0.501 -3.5772  2.2784 -0.6424
   55MOL0     H 7214   1.057  -0.088   0.498 -0.3044  0.2001  1.6244
   55MOL0     H 7215   0.942  -0.197   0.571  2.0679  2.4837  1.2455
   55MOL0     H 7216   1.057  -0.232   0.287  1.5068 -3.0701  1.7598
   55MOL0     H 7217   0.899  -0.170   0.327  1.2277  0.0165 -0.1023
   55MOL0     H 7218   1.000  -0.444   0.360 -0.1335 -0.5303  0.6977
   55MOL0     H 7219   0.880  -0.392   0.477  0.3799 -1.6910 -0.1378
   55MOL0     H 7220   0.848  -0.421   0.182  2.4778 -1.9777  1.3570
   55MOL0     H 7221   0.739  -0.322   0.279  0.8657  0.8625 -0.5732
   55MOL0     H 7222   0.608  -0.387   0.126 -0.6177  0.1173  1.9215
   55MOL0     H 7223   0.401  -0.448   0.012 -1.0834 -1.2459 -0.7281
   55MOL0     H 7224   0.023  -0.796  -0.055  2.5522  0.7832 -0.3363
   55MOL0     H 7225  -0.194  -0.756  -0.108 -1.4979  0.1190 -0.8757
   55MOL0     H 7226  -0.228  -0.477  -0.440 -0.0473 -0.8046  0.1453
   55MOL0     H 7227  -0.387  -0.431  -0.381 -0.8417 -1.1836 -1.0340
   55MOL0     H 7228  -0.291  -0.703  -0.462  0.6576  0.1915  0.8916
   55MOL0     H 7229  -0.383  -0.605  -0.564  0.8612 -2.9591 -1.1798
   55MOL0     H 7230  -0.571  -0.599  -0.384 -2.3727 -0.6221 -3.9751
   55MOL0     H 7231  -0.483  -0.733  -0.296 -0.1427 -0.3427 -0.1952
   55MOL0     H 7232  -0.662  -0.839  -0.440  1.4136 -1.5828  1.4075
   55MOL0     H 7233  -0.602  -0.746  -0.578  1.0857 -0.0038  0.2638
   55MOL0     H 7234  -0.419  -0.881  -0.612 -1.6738  1.4569 -1.4736
   55MOL0     H 7235  -0.550  -0.985  -0.575 -1.9021  1.0172  1.6952
   55MOL0     H 7236  -0.477  -1.022  -0.345 -1.0384  0.3083  0.2238
   55MOL0     H 7237  -0.336  -0.906  -0.347 -0.3996 -0.2591 -0.5789
   55MOL0     H 7238  -0.289  -1.147  -0.375 -4.2596 -2.5550 -1.0403
   55MOL0     H 7239  -0.363  -1.136  -0.539  2.3181 -1.5421 -0.3115
   55MOL0     H 7240  -0.174  -0.996  -0.608  2.1640 -4.3702 -3.3080
   55MOL0     H 7241  -0.124  -1.150  -0.536  0.6004  0.1236 -2.0644
   55MOL0     H 7242  -0.097  -0.373  -0.282  0.0277 -0.7289 -0.3846
   55MOL0     H 7243   0.133  -0.409  -0.205 -1.3651  0.7959 -2.1540
   55MOL0     H 7244   0.417  -0.839   0.227 -1.2689  0.3543 -0.4242
   55MOL0     H 7245   0.601  -0.752   0.355 -0.6902 -0.2688  0.7336
   55MOL0     H 7246   1.668  -0.285   1.580  0.9376 -0.2422 -2.4458
   55MOL0     H 7247   1.706  -0.086   1.731 -1.6705 -1.2842 -0.6438
   55MOL0     H 7248   1.823   0.390   1.668 -4.7604 -4.1590  2.4191
   55MOL0     H 7249   1.863   0.589   1.798 -1.7470 -0.9487 -0.3075
   55MOL0     H 7250   1.891   0.477   2.191  3.5634  1.9241  2.3890
   55MOL0     H 7251   1.776   0.593   2.107  0.2443  1.3227 -0.8906
   55MOL0     H 7252   1.864   0.655   2.354  2.9952  2.0931  2.4175
   55MOL0     H 7253   2.012   0.658   2.254 -0.5078 -5.4793 -3.6076
   55MOL0     H 7254   1.747   0.816   2.225 -0.5087  2.8825 -2.0638
   55MOL0     H 7255   1.897   0.858   2.127  2.3450 -1.8162 -0.3706
   55MOL0     H 7256   1.858   0.906   2.421  1.7377  1.5865  0.7066
   55MOL0     H 7257   2.010   0.930   2.321  0.0622  0.6981  1.9125
   55MOL0     H 7258   1.793   1.264   2.228 -1.8336 -1.2297 -0.3926
   55MOL0     H 7259   2.087   0.361   2.079 -0.3348 -0.3452  1.1088
   55MOL0     H 7260   2.039   0.166   1.947 -1.3878 -0.8373 -0.5423
   56MOL0     O 7261   4.361   5.500   8.755  0.1092  0.7564  0.3531
   56MOL0     C 7262   4.391   5.616   8.752 -0.2451 -0.4292  0.4873
   56MOL0     O 7263   4.316   5.716   8.787  0.5325 -0.2738  0.2024
   56MOL0     C 7264   4.183   5.690   8.814 -0.3006 -0.5063  0.5098
   56MOL0     C 7265   4.091   5.734   8.713  0.7473  0.0714  0.0572
   56MOL0     C 7266   3.954   5.712   8.726  0.0615  0.4521  0.9612
   56MOL0     C 7267   3.905   5.640   8.838  0.1866 -0.1591 -0.3517
   56MOL0     O 7268   3.774   5.599   8.846  0.0662  0.5499 -0.0711
   56MOL0     C 7269   3.751   5.468   8.885 -0.2605  0.3431 -0.6943
   56MOL0     C 7270   3.635   5.399   8.807 -0.0162  0.0660 -0.1636
   56MOL0     C 7271   3.498   5.434   8.863 -0.7626  0.4528 -0.3178
   56MOL0     C 7272   3.394   5.370   8.769  0.1606 -0.6320 -0.5867
   56MOL0     C 7273   3.240   5.407   8.811 -0.4086  0.3866 -0.5361
   56MOL0     C 7274   3.147   5.382   8.703  0.5119 -0.2021  0.1815
   56MOL0     C 7275   3.169   5.249   8.641  1.1618 -0.2152 -0.9321
   56MOL0     C 7276   3.049   5.190   8.559  0.5006  0.0910 -0.0550
   56MOL0     N 7277   2.931   5.170   8.645  0.6926  0.1296 -0.3918
   56MOL0     C 7278   2.799   5.220   8.622 -0.4877 -0.2115  0.0422
   56MOL0     C 7279   2.724   5.153   8.711 -0.0183 -0.3820  0.4586
   56MOL0     C 7280   2.583   5.176   8.735 -0.9805 -0.1623 -0.2068
   56MOL0     C 7281   2.499   5.101   8.631 -0.0039 -0.1509 -0.2573
   56MOL0     C 7282   2.342   5.087   8.651  0.0547 -0.0132  0.2575
   56MOL0     C 7283   2.330   4.964   8.748  0.8153  1.0845  0.4038
   56MOL0     O 7284   2.191   4.959   8.789 -1.0814 -0.6133  0.6146
   56MOL0     C 7285   2.115   4.860   8.733 -0.6468  0.2403 -0.5096
   56MOL0     C 7286   2.006   4.897   8.658 -0.2629  0.6087  0.7447
   56MOL0     C 7287   1.919   4.797   8.611  0.1183  0.7727 -0.0319
   56MOL0     C 7288   1.950   4.663   8.621  0.7751  0.1668 -0.2257
   56MOL0     C 7289   1.858   4.560   8.551  0.9052 -0.1418 -0.0938
   56MOL0     O 7290   1.753   4.611   8.482 -0.3873 -0.5276 -0.7199
   56MOL0     C 7291   1.657   4.532   8.439  0.2090  0.8201 -0.6557
   56MOL0     C 7292   1.556   4.513   8.532  0.7442  0.1869 -0.6474
   56MOL0     C 7293   1.436   4.448   8.482 -0.5707 -0.5925 -0.8209
   56MOL0     C 7294   1.432   4.384   8.360 -0.3204  0.1261 -0.2725
   56MOL0     O 7295   1.310   4.334   8.322 -0.2757 -0.3539 -0.0831
   56MOL0     C 7296   1.261   4.383   8.204 -0.6268 -1.3585  0.3968
   56MOL0     C 7297   1.119   4.330   8.183  0.6966 -0.5144  0.4121
   56MOL0     C 7298   1.023   4.388   8.279 -0.3490 -1.1026 -0.1384
   56MOL0     C 7299   1.006   4.536   8.294 -0.2545  0.3233  0.2754
   56MOL0     C 7300   0.928   4.601   8.177 -0.0154  0.8909 -0.5439
   56MOL0     C 7301   0.883   4.749   8.205 -0.4370 -0.1598  0.4871
   56MOL0     C 7302   0.771   4.793   8.106 -0.3536 -0.5176  0.2057
   56MOL0     C 7303   0.714   4.927   8.135 -0.4228 -0.2763 -0.0067
   56MOL0    Cl 7304   0.644   5.008   7.983  0.2477 -0.3441 -0.1319
   56MOL0     C 7305   1.540   4.388   8.279 -0.1579  0.2303 -0.4253
   56MOL0     C 7306   1.653   4.466   8.314 -1.1713  0.2128 -0.2213
   56MOL0     O 7307   1.880   4.439   8.567 -0.1475 -0.4601 -0.8507
   56MOL0     C 7308   2.065   4.628   8.700  0.9844 -0.1440  0.1287
   56MOL0     C 7309   2.151   4.729   8.758  0.2801  0.3256 -0.4357
   56MOL0     N 7310   2.801   5.063   8.788 -0.1327  0.8169  0.5863
   56MOL0     N 7311   2.923   5.090   8.754  0.2178  0.4675 -1.2228
   56MOL0     C 7312   3.997   5.586   8.932 -0.1576  0.0548  0.0915
   56MOL0     C 7313   4.135   5.618   8.923  0.0102  0.8536  0.3525
   56MOL0     C 7314   4.531   5.637   8.713  0.8602  0.0141  0.2098
   56MOL0     C 7315   4.608   5.534   8.686  0.0341  0.1248 -0.1446
   56MOL0     C 7316   4.743   5.552   8.636  0.8371  0.3893 -0.0876
   56MOL0     C 7317   4.800   5.677   8.631  0.9462 -0.7611 -0.2398
   56MOL0     O 7318   4.924   5.708   8.586 -0.6713  0.3221 -0.4736
   56MOL0     C 7319   5.003   5.618   8.514 -0.3205  0.2104  0.4794
   56MOL0     C 7320   5.076   5.521   8.602  0.2942 -0.4456  0.2297
   56MOL0     C 7321   5.114   5.389   8.523  0.8030  0.2382 -0.4277
   56MOL0     C 7322   5.231   5.318   8.591  0.4301  0.0313 -0.2034
   56MOL0     C 7323   5.184   5.263   8.718 -0.3908 -0.2602  0.1851
   56MOL0     C 7324   5.166   5.210   8.827 -0.1871 -0.5361  0.6221
   56MOL0     C 7325   4.714   5.785   8.657 -0.3381  0.3716  0.4677
   56MOL0     C 7326   4.581   5.767   8.704  0.1570 -0.3965  0.0471
   56MOL0     H 7327   4.135   5.777   8.624  2.3544  2.5899  1.8990
   56MOL0     H 7328   3.882   5.739   8.650 -0.2041  0.2962  1.1515
   56MOL0     H 7329   3.721   5.463   8.990  0.8177  2.6689 -0.2110
   56MOL0     H 7330   3.839   5.403   8.876 -1.1556 -1.3446  1.7216
   56MOL0     H 7331   3.660   5.293   8.804  2.1351  0.5302 -0.2210
   56MOL0     H 7332   3.636   5.429   8.701 -3.3130  0.3470 -0.2128
   56MOL0     H 7333   3.470   5.540   8.859 -4.8204 -0.4853 -3.0741
   56MOL0     H 7334   3.487   5.388   8.962  2.8979  1.5851  0.7942
   56MOL0     H 7335   3.406   5.404   8.665 -2.3917  2.4971 -0.0353
   56MOL0     H 7336   3.415   5.266   8.793 -1.5216 -0.6807  0.8244
   56MOL0     H 7337   3.231   5.511   8.844 -0.6209 -0.9516  4.4327
   56MOL0     H 7338   3.231   5.348   8.902  0.8526 -2.3418 -2.0473
   56MOL0     H 7339   3.172   5.459   8.629  0.9169  1.0125  1.5227
   56MOL0     H 7340   3.044   5.389   8.738  1.1096 -0.4202  2.1164
   56MOL0     H 7341   3.256   5.254   8.576  0.7400 -0.6788 -1.5386
   56MOL0     H 7342   3.182   5.179   8.724 -1.0242  1.5914  1.0912
   56MOL0     H 7343   3.086   5.098   8.513  1.3761  1.2734 -1.8226
   56MOL0     H 7344   3.029   5.264   8.481  3.6109 -1.6908 -2.8088
   56MOL0     H 7345   2.757   5.287   8.547  0.2169  0.0211 -0.1559
   56MOL0     H 7346   2.558   5.283   8.740  1.6649  0.6062 -1.8011
   56MOL0     H 7347   2.568   5.121   8.829  0.5627  1.6108  1.1662
   56MOL0     H 7348   2.538   5.003   8.602 -1.3504  0.4019 -4.6342
   56MOL0     H 7349   2.521   5.160   8.542 -0.0735  1.9556  1.0497
   56MOL0     H 7350   2.294   5.173   8.699 -2.5562 -0.9262 -0.5554
   56MOL0     H 7351   2.279   5.062   8.566 -0.6431  1.4328  0.3208
   56MOL0     H 7352   2.389   4.973   8.840 -0.4794  2.2687  1.1530
   56MOL0     H 7353   2.366   4.879   8.689 -5.1738 -0.2328 -2.1237
   56MOL0     H 7354   1.989   5.004   8.658 -1.0869  0.5225 -1.3810
   56MOL0     H 7355   1.829   4.833   8.561 -0.1218 -3.1209 -2.8213
   56MOL0     H 7356   1.544   4.569   8.624  2.7360  2.1389 -1.4836
   56MOL0     H 7357   1.356   4.456   8.555  0.8562  0.6856  0.6593
   56MOL0     H 7358   1.317   4.343   8.119  0.5016  1.9578 -0.5325
   56MOL0     H 7359   1.274   4.491   8.196  0.3354 -1.3528  1.7004
   56MOL0     H 7360   1.112   4.222   8.199  0.7263 -0.4465  0.8852
   56MOL0     H 7361   1.079   4.348   8.082 -2.9336  0.8617  1.9270
   56MOL0     H 7362   1.045   4.341   8.375 -0.4644 -1.1030 -0.1105
   56MOL0     H 7363   0.924   4.353   8.249  0.1531 -2.0029 -0.7698
   56MOL0     H 7364   0.945   4.567   8.379 -0.5197  0.7732 -0.0821
   56MOL0     H 7365   1.103   4.587   8.302  0.0775 -0.2309 -0.1381
   56MOL0     H 7366   0.832   4.551   8.166  0.1914  0.2219  0.5181
   56MOL0     H 7367   0.989   4.587   8.087  2.3408 -1.5900  1.2335
   56MOL0     H 7368   0.968   4.817   8.193 -0.7389  0.3967  1.3939
   56MOL0     H 7369   0.821   4.764   8.294 -2.6056 -4.7090 -0.0061
   56MOL0     H 7370   0.811   4.800   8.004 -0.6258 -0.8426  0.0732
   56MOL0     H 7371   0.683   4.728   8.096 -2.0590  1.7062 -0.0511
   56MOL0     H 7372   0.800   4.988   8.163 -1.9668  2.0053  0.0424
   56MOL0     H 7373   0.637   4.921   8.212 -0.3677 -1.2070 -0.0101
   56MOL0     H 7374   1.519   4.346   8.181  0.6948  2.6113 -1.7171
   56MOL0     H 7375   1.739   4.485   8.250 -1.8870  1.7847 -0.7567
   56MOL0     H 7376   2.088   4.525   8.729 -0.5603 -0.8850 -1.1302
   56MOL0     H 7377   2.229   4.710   8.831 -1.3307  1.3413  1.6458
   56MOL0     H 7378   3.958   5.518   9.007 -2.6797 -1.5549 -2.4661
   56MOL0     H 7379   4.203   5.560   8.985 -0.8949  0.0066  0.5933
   56MOL0     H 7380   4.582   5.430   8.702  4.1133 -0.8114  1.9498
   56MOL0     H 7381   4.806   5.468   8.610 -0.7379 -0.7551 -0.3445
   56MOL0     H 7382   5.078   5.676   8.459 -2.5093  0.2984 -2.6506
   56MOL0     H 7383   4.934   5.583   8.438 -1.4836  0.3857  1.4284
   56MOL0     H 7384   5.161   5.566   8.653 -1.2933  1.1863  1.5510
   56MOL0     H 7385   5.013   5.506   8.690  0.1871  0.5688  0.3303
   56MOL0     H 7386   5.159   5.414   8.426 -0.0078 -0.4675 -1.0004
   56MOL0     H 7387   5.022   5.332   8.506 -2.2436  3.8504  2.2152
   56MOL0     H 7388   5.270   5.237   8.529 -1.0924  0.2954 -1.5641
   56MOL0     H 7389   5.309   5.393   8.607 -0.9555  1.4917  0.0188
   56MOL0     H 7390   5.141   5.176   8.926 -2.4031 -0.4017  0.1663
   56MOL0     H 7391   4.752   5.878   8.617  2.7417 -1.3134 -0.8393
   56MOL0     H 7392   4.527   5.858   8.728  0.7039 -0.7028  2.8648
   57MOL0     O 7393   5.867   9.844   9.174  0.9193 -0.3502  0.1165
   57MOL0     C 7394   5.895   9.786   9.073 -0.2448 -0.1527  0.6349
   57MOL0     O 7395   6.016   9.753   9.028  0.0008  0.4262  0.5030
   57MOL0     C 7396   6.117   9.781   9.112  0.9626  0.0001  0.6483
   57MOL0     C 7397   6.210   9.872   9.065  0.4251  0.5301  0.3424
   57MOL0     C 7398   6.324   9.909   9.138  0.9922  0.1621 -0.2460
   57MOL0     C 7399   6.358   9.834   9.255  0.5783 -0.5854  0.3297
   57MOL0     O 7400   6.469   9.881   9.326  0.0386 -0.2181 -0.3431
   57MOL0     C 7401   6.526   9.805   9.431 -0.4170 -0.7792  1.0060
   57MOL0     C 7402   6.679   9.824   9.430 -0.0465  0.2941  0.0325
   57MOL0     C 7403   6.735   9.767   9.557  0.5435 -0.4546 -0.1593
   57MOL0     C 7404   6.884   9.804   9.573 -0.1494 -0.1137 -0.4088
   57MOL0     C 7405   6.939   9.696   9.673 -0.4545 -0.2026 -0.0561
   57MOL0     C 7406   7.056   9.760   9.745  0.5970 -0.4658 -0.4918
   57MOL0     C 7407   7.127   9.679   9.854  0.5223 -0.3049  0.6540
   57MOL0     C 7408   7.174   9.554   9.802  0.5346  0.0089  0.4441
   57MOL0     N 7409   7.235   9.472   9.898  0.4214  0.1878  0.3355
   57MOL0     C 7410   7.361   9.421   9.896 -0.5323  0.2328  1.2670
   57MOL0     C 7411   7.364   9.339  10.008 -0.2830 -0.2500  0.0360
   57MOL0     C 7412   7.477   9.248  10.038 -0.3001 -1.3136 -0.1532
   57MOL0     C 7413   7.511   9.164   9.920  0.1576 -0.3680 -0.0531
   57MOL0     C 7414   7.628   9.062   9.932 -0.2572 -0.3061  0.1979
   57MOL0     C 7415   7.770   9.115   9.972  0.9466  0.0918  0.5051
   57MOL0     O 7416   7.857   9.006   9.974 -0.2915 -0.1297  1.0352
   57MOL0     C 7417   7.997   9.018  10.000 -0.1029  1.1586 -0.2961
   57MOL0     C 7418   8.061   9.139  10.047  0.3361 -0.7202 -0.5196
   57MOL0     C 7419   8.193   9.132  10.096  0.1021 -0.9422  0.3902
   57MOL0     C 7420   8.265   9.017  10.080 -1.0206  0.7388  0.0713
   57MOL0     C 7421   8.407   9.017  10.111 -0.0067 -0.0447 -0.5093
   57MOL0     O 7422   8.445   9.129  10.189 -0.4208 -0.4529  0.4424
   57MOL0     C 7423   8.571   9.141  10.244 -0.6133 -0.5802  0.3022
   57MOL0     C 7424   8.583   9.226  10.352  0.4296 -0.6408  1.3419
   57MOL0     C 7425   8.705   9.251  10.415  0.3687  0.1895 -0.3681
   57MOL0     C 7426   8.819   9.178  10.384 -0.2698 -0.2968 -0.1086
   57MOL0     O 7427   8.935   9.184  10.446 -0.2993 -1.0857 -0.9187
   57MOL0     C 7428   8.964   9.321  10.484 -0.0066 -0.4432  0.0621
   57MOL0     C 7429   9.120   9.325  10.498 -0.3123  0.1728  0.4965
   57MOL0     C 7430   9.151   9.451  10.579 -0.4660 -0.3113 -0.8733
   57MOL0     C 7431   9.300   9.449  10.610 -0.6759  0.8080 -0.6234
   57MOL0     C 7432   9.341   9.568  10.695  0.4346 -0.9029 -1.0031
   57MOL0     C 7433   9.498   9.575  10.738 -0.1437 -0.2354 -0.0012
   57MOL0     C 7434   9.535   9.701  10.830  0.9183 -0.4181 -0.7114
   57MOL0     C 7435   9.683   9.731  10.815 -0.2103  0.2020 -0.2524
   57MOL0    Cl 7436   9.753   9.789  10.981 -0.2637  0.2699  0.5015
   57MOL0     C 7437   8.812   9.093  10.265  0.5185 -0.3918  0.9211
   57MOL0     C 7438   8.691   9.085  10.189 -0.6590  0.5660  0.0243
   57MOL0     O 7439   8.482   8.931  10.071 -0.1896  0.7542 -0.2241
   57MOL0     C 7440   8.204   8.893  10.046 -0.0812 -0.5808 -1.1212
   57MOL0     C 7441   8.067   8.897  10.010 -0.7859 -0.8790 -0.6141
   57MOL0     N 7442   7.249   9.351  10.078  0.1589  0.2111  0.4668
   57MOL0     N 7443   7.165   9.419  10.005  0.2309 -0.1204  0.0075
   57MOL0     C 7444   6.257   9.739   9.300 -0.3841  0.3166  0.4552
   57MOL0     C 7445   6.143   9.709   9.226  0.5444  0.8400  0.8181
   57MOL0     C 7446   5.780   9.745   8.992  0.9645  0.2271 -0.4276
   57MOL0     C 7447   5.802   9.708   8.863  0.4801 -0.6579  0.6134
   57MOL0     C 7448   5.693   9.667   8.780  0.1997 -0.0084 -0.0622
   57MOL0     C 7449   5.558   9.665   8.826 -0.0574 -0.9562  0.6830
   57MOL0     O 7450   5.466   9.620   8.731  0.5491 -0.9559 -0.1875
   57MOL0     C 7451   5.321   9.617   8.760  0.3959 -0.6508 -0.1111
   57MOL0     C 7452   5.284   9.508   8.859 -0.2815 -0.1123  0.7739
   57MOL0     C 7453   5.325   9.366   8.810  0.1793 -0.0394  0.4425
   57MOL0     C 7454   5.253   9.309   8.685 -0.0341  0.0037 -0.7437
   57MOL0     C 7455   5.104   9.294   8.688 -0.4538  0.8878  1.0410
   57MOL0     C 7456   4.985   9.301   8.677 -0.3111 -0.0699  0.7425
   57MOL0     C 7457   5.534   9.706   8.963 -0.5859 -0.0616  0.0060
   57MOL0     C 7458   5.644   9.753   9.040  0.8944 -0.3435 -0.9325
   57MOL0     H 7459   6.185   9.917   8.969 -0.8977 -1.7060 -0.4354
   57MOL0     H 7460   6.376   9.998   9.104 -2.4956  2.0352 -1.1261
   57MOL0     H 7461   6.506   9.698   9.421  0.5663 -0.7980 -1.1975
   57MOL0     H 7462   6.486   9.836   9.528 -1.7487 -2.9073  1.2092
   57MOL0     H 7463   6.693   9.932   9.422 -2.3047  0.5649 -1.0398
   57MOL0     H 7464   6.707   9.772   9.338 -1.0020  0.7241 -0.5111
   57MOL0     H 7465   6.711   9.661   9.558 -2.0671  0.0464  1.9756
   57MOL0     H 7466   6.675   9.812   9.636 -1.2387  0.6618 -2.0411
   57MOL0     H 7467   6.939   9.804   9.479 -1.5212  0.1691 -1.2511
   57MOL0     H 7468   6.879   9.903   9.620 -4.8140 -0.6567  0.7711
   57MOL0     H 7469   6.979   9.616   9.610  0.0005  1.0889 -1.4665
   57MOL0     H 7470   6.862   9.665   9.744 -2.4298  1.6211 -1.2789
   57MOL0     H 7471   7.022   9.848   9.800  1.2453  0.4747 -1.5468
   57MOL0     H 7472   7.137   9.786   9.676  1.0907 -1.3967 -0.2796
   57MOL0     H 7473   7.209   9.743   9.891  0.5777 -1.1368  2.0310
   57MOL0     H 7474   7.057   9.675   9.938  0.4105 -0.6361  0.5448
   57MOL0     H 7475   7.245   9.568   9.720 -1.1478 -1.3170 -1.3230
   57MOL0     H 7476   7.090   9.499   9.761  0.2955  0.6131  0.1151
   57MOL0     H 7477   7.438   9.423   9.819  0.6154  0.9150  2.4095
   57MOL0     H 7478   7.467   9.189  10.129 -1.7777 -3.2070 -1.4393
   57MOL0     H 7479   7.559   9.319  10.052 -1.3345  0.0577 -0.8194
   57MOL0     H 7480   7.528   9.214   9.825  0.3440 -1.1083 -0.4155
   57MOL0     H 7481   7.426   9.100   9.894 -1.5134  1.4577  0.6470
   57MOL0     H 7482   7.601   8.984  10.004  2.6452 -3.0902 -1.4921
   57MOL0     H 7483   7.634   9.009   9.837  1.4325  0.3054 -0.0564
   57MOL0     H 7484   7.757   9.162  10.070 -2.9685 -2.3472  1.3683
   57MOL0     H 7485   7.795   9.189   9.895  0.8773  0.0793  0.4703
   57MOL0     H 7486   8.002   9.229  10.053 -1.2926 -1.8318  1.5295
   57MOL0     H 7487   8.229   9.229  10.128 -0.5328 -0.6775  0.3182
   57MOL0     H 7488   8.503   9.290  10.389 -0.0515 -3.0521  4.9442
   57MOL0     H 7489   8.708   9.325  10.495  3.3298 -2.6000  2.4203
   57MOL0     H 7490   8.914   9.352  10.577 -0.2785  0.7583 -0.4738
   57MOL0     H 7491   8.942   9.396  10.408 -1.6181 -1.0620 -0.1221
   57MOL0     H 7492   9.171   9.325  10.401 -1.7562  2.1557 -0.3249
   57MOL0     H 7493   9.144   9.240  10.562  1.2927  0.0382 -0.2489
   57MOL0     H 7494   9.105   9.446  10.678  0.6821  1.3998 -0.1940
   57MOL0     H 7495   9.130   9.541  10.520 -0.2257 -0.9302 -1.9233
   57MOL0     H 7496   9.338   9.356  10.654 -0.4297 -0.4094 -3.2244
   57MOL0     H 7497   9.348   9.446  10.512 -0.7758 -0.6839 -0.6481
   57MOL0     H 7498   9.285   9.549  10.787  2.5376 -1.9821  0.1378
   57MOL0     H 7499   9.310   9.668  10.663 -1.1777 -1.8105 -2.4712
   57MOL0     H 7500   9.560   9.582  10.648  0.0192 -3.8944 -0.3075
   57MOL0     H 7501   9.541   9.485  10.781  0.6969  0.1393 -0.0434
   57MOL0     H 7502   9.483   9.793  10.805  0.8040  0.2377  1.6984
   57MOL0     H 7503   9.515   9.670  10.933 -1.6856 -2.1796 -1.6235
   57MOL0     H 7504   9.696   9.819  10.751 -3.9618  2.1779  1.3542
   57MOL0     H 7505   9.740   9.647  10.775 -1.3860 -0.6451 -0.1954
   57MOL0     H 7506   8.890   9.036  10.215 -1.4455 -2.1516 -0.3268
   57MOL0     H 7507   8.687   9.007  10.113  0.9743  2.3578 -2.0331
   57MOL0     H 7508   8.263   8.802  10.040  0.7197 -0.0721 -1.1086
   57MOL0     H 7509   8.013   8.804  10.002 -1.6309 -0.5318  0.8147
   57MOL0     H 7510   6.278   9.674   9.384  0.9945 -3.2812 -2.3497
   57MOL0     H 7511   6.062   9.648   9.264  0.8052 -1.2738 -1.7191
   57MOL0     H 7512   5.901   9.704   8.818  1.1652  4.8489  1.0135
   57MOL0     H 7513   5.712   9.644   8.676  2.2610 -1.6246  0.5804
   57MOL0     H 7514   5.274   9.591   8.665  2.9088 -0.4509 -1.5112
   57MOL0     H 7515   5.281   9.714   8.791  0.7055 -0.5455 -0.0446
   57MOL0     H 7516   5.346   9.513   8.949 -0.2198 -1.0799  0.8039
   57MOL0     H 7517   5.179   9.518   8.887  0.2287  0.3448  2.6829
   57MOL0     H 7518   5.309   9.308   8.901 -1.6968  2.0729  1.5787
   57MOL0     H 7519   5.433   9.358   8.795  0.0704 -2.6223  0.6393
   57MOL0     H 7520   5.271   9.375   8.600 -0.1471  1.2704  0.1845
   57MOL0     H 7521   5.297   9.209   8.679  1.0535  0.3085  1.2216
   57MOL0     H 7522   4.879   9.312   8.661 -0.4679 -0.5055  1.4376
   57MOL0     H 7523   5.433   9.704   9.000 -0.7202 -2.2555 -0.3764
   57MOL0     H 7524   5.639   9.785   9.143  0.4441  0.1213 -1.0995
   58MOL0     O 7525  10.343   2.542   4.443  0.0878 -0.0071  0.0196
   58MOL0     C 7526  10.259   2.460   4.412  0.0461 -0.3683  0.7794
   58MOL0     O 7527  10.135   2.495   4.363  0.4982 -0.2188 -0.1425
   58MOL0     C 7528  10.081   2.621   4.347 -0.5498  0.3914 -0.4408
   58MOL0     C 7529  10.118   2.715   4.428  0.0321 -0.4917  0.7731
   58MOL0     C 7530  10.062   2.846   4.428  0.5231 -0.2541 -1.0017
   58MOL0     C 7531   9.969   2.876   4.332  0.4612  0.2544 -0.8793
   58MOL0     O 7532   9.941   3.003   4.298 -0.9097  0.0897  0.1275
   58MOL0     C 7533   9.905   3.101   4.397 -0.4802  0.6940  0.4016
   58MOL0     C 7534   9.764   3.144   4.371 -0.1598  0.3981 -0.8351
   58MOL0     C 7535   9.664   3.037   4.417 -0.4445 -0.1972 -0.2194
   58MOL0     C 7536   9.526   3.091   4.438 -0.2855  0.1784  0.6555
   58MOL0     C 7537   9.443   2.993   4.512  0.8353 -0.0083  0.1042
   58MOL0     C 7538   9.293   3.009   4.476 -0.4214  0.1327  0.4024
   58MOL0     C 7539   9.206   2.895   4.526  0.2314  0.5686  0.2296
   58MOL0     C 7540   9.202   2.889   4.676 -0.2634  0.2991 -0.0846
   58MOL0     N 7541   9.113   2.778   4.730  0.9430  0.2788 -0.3412
   58MOL0     C 7542   9.157   2.648   4.713  1.1712 -0.0602 -0.4878
   58MOL0     C 7543   9.076   2.576   4.783  0.3232 -0.0113  0.0016
   58MOL0     C 7544   9.076   2.432   4.795 -0.6351  0.6036 -0.2688
   58MOL0     C 7545   9.140   2.368   4.926  0.5690 -0.8070  0.1847
   58MOL0     C 7546   9.286   2.403   4.941 -0.2097  0.3566 -0.5019
   58MOL0     C 7547   9.366   2.306   4.854  0.0673  0.4960  0.8721
   58MOL0     O 7548   9.498   2.295   4.889 -0.1016  0.0219 -0.6082
   58MOL0     C 7549   9.567   2.175   4.887  0.3357 -0.1128  0.8294
   58MOL0     C 7550   9.510   2.044   4.883 -0.1254  0.6831 -0.9068
   58MOL0     C 7551   9.591   1.935   4.883 -0.6007 -0.6813 -0.3615
   58MOL0     C 7552   9.724   1.948   4.868  0.0525  1.0708 -0.3554
   58MOL0     C 7553   9.813   1.833   4.857  0.0631  0.8815 -0.0465
   58MOL0     O 7554   9.779   1.704   4.896  0.2787  0.1471 -0.2910
   58MOL0     C 7555   9.879   1.611   4.879  0.1734  0.2568 -0.2587
   58MOL0     C 7556   9.919   1.562   4.750 -0.5390  0.7994 -1.1508
   58MOL0     C 7557  10.018   1.455   4.745 -0.8382  0.6864  0.4641
   58MOL0     C 7558  10.066   1.395   4.861  0.7285  0.3905  0.7057
   58MOL0     O 7559  10.149   1.291   4.834  0.2968  0.0395  0.4649
   58MOL0     C 7560  10.182   1.199   4.936 -0.2463  0.0402 -0.8157
   58MOL0     C 7561  10.256   1.069   4.888  0.3711 -0.0492  0.7705
   58MOL0     C 7562  10.391   1.124   4.821 -1.2613  0.0926 -0.2715
   58MOL0     C 7563  10.491   1.012   4.834 -0.6874  0.3309  0.2454
   58MOL0     C 7564  10.445   0.888   4.754  0.6349  0.1377  0.4477
   58MOL0     C 7565  10.558   0.789   4.714 -0.6220 -0.2934 -0.7156
   58MOL0     C 7566  10.609   0.706   4.837 -0.2142  0.2059  0.1063
   58MOL0     C 7567  10.717   0.608   4.785 -0.9373  1.0618 -0.5162
   58MOL0    Cl 7568  10.777   0.509   4.929  0.0507  0.7294 -0.1722
   58MOL0     C 7569  10.024   1.443   4.990  0.2054 -0.2346  1.3366
   58MOL0     C 7570   9.931   1.555   4.992  0.1067  1.0110  0.5213
   58MOL0     O 7571   9.916   1.863   4.795  1.0809  0.6048  0.2432
   58MOL0     C 7572   9.781   2.073   4.872 -0.0423  0.3789 -0.6644
   58MOL0     C 7573   9.709   2.186   4.875  0.1863  0.0802  0.2536
   58MOL0     N 7574   8.986   2.662   4.849 -0.0069 -0.0082  0.4712
   58MOL0     N 7575   9.015   2.780   4.818 -0.2961 -0.6597 -0.0011
   58MOL0     C 7576   9.921   2.777   4.243 -0.1816  0.2977  0.6361
   58MOL0     C 7577   9.972   2.648   4.258  0.1513 -0.2154  0.0221
   58MOL0     C 7578  10.308   2.317   4.446  0.7910 -0.2153 -0.0268
   58MOL0     C 7579  10.216   2.225   4.491 -0.2107 -0.3021 -0.3252
   58MOL0     C 7580  10.251   2.105   4.539  0.0150  0.5571 -0.1720
   58MOL0     C 7581  10.389   2.064   4.547  0.2312  0.4256  0.1376
   58MOL0     O 7582  10.438   1.948   4.586 -0.4629  0.0842 -0.5725
   58MOL0     C 7583  10.349   1.862   4.656  1.1844  0.7638  0.1992
   58MOL0     C 7584  10.402   1.717   4.655  0.4169 -0.4183 -0.2676
   58MOL0     C 7585  10.537   1.724   4.724 -0.3095  0.1242  0.8261
   58MOL0     C 7586  10.586   1.579   4.743  0.3762 -0.0640  0.8537
   58MOL0     C 7587  10.733   1.575   4.778 -0.1838 -0.0704  0.3983
   58MOL0     C 7588  10.847   1.576   4.822 -0.4532 -1.3767  0.4360
   58MOL0     C 7589  10.489   2.158   4.502  0.5464  0.0451  0.6624
   58MOL0     C 7590  10.450   2.279   4.450  0.1930 -0.5309  0.2469
   58MOL0     H 7591  10.180   2.702   4.517 -1.4464  1.1009  2.1093
   58MOL0     H 7592  10.068   2.910   4.515 -1.6753 -0.1623 -0.8574
   58MOL0     H 7593   9.983   3.178   4.393  0.4644 -0.0796  2.5009
   58MOL0     H 7594   9.911   3.063   4.499 -0.9817  2.3321  1.0793
   58MOL0     H 7595   9.745   3.169   4.266 -0.2212  2.1785 -0.4353
   58MOL0     H 7596   9.737   3.234   4.427 -3.4208  0.2465 -1.9237
   58MOL0     H 7597   9.699   2.987   4.508  1.3533  2.3417  0.5870
   58MOL0     H 7598   9.657   2.962   4.338  2.6890 -4.1290  2.7975
   58MOL0     H 7599   9.534   3.184   4.496 -1.3700 -0.2683  1.5692
   58MOL0     H 7600   9.490   3.104   4.336 -2.2983 -2.4303  0.9127
   58MOL0     H 7601   9.463   2.997   4.619 -0.0290 -1.0661  0.3241
   58MOL0     H 7602   9.467   2.891   4.480  1.3923 -0.8271  2.8926
   58MOL0     H 7603   9.277   3.028   4.369  0.9293 -2.9422 -0.4394
   58MOL0     H 7604   9.245   3.093   4.529 -1.1680  0.4013 -0.6564
   58MOL0     H 7605   9.105   2.902   4.486 -0.7794 -2.9302  1.8302
   58MOL0     H 7606   9.251   2.802   4.489 -1.1627  0.3059 -0.8686
   58MOL0     H 7607   9.190   2.985   4.727  0.7607  1.3378 -1.7121
   58MOL0     H 7608   9.303   2.868   4.713 -0.5375 -1.7369 -0.3781
   58MOL0     H 7609   9.238   2.607   4.653  1.2935 -0.8309  0.1942
   58MOL0     H 7610   9.130   2.382   4.714 -0.4021 -1.4739  1.1105
   58MOL0     H 7611   8.969   2.410   4.790 -0.1803 -2.7068  1.5066
   58MOL0     H 7612   9.122   2.261   4.915  0.3409 -0.4609 -5.6571
   58MOL0     H 7613   9.083   2.398   5.015 -1.8168  4.3499 -2.6457
   58MOL0     H 7614   9.316   2.507   4.921  1.6458  0.7327  3.2362
   58MOL0     H 7615   9.324   2.383   5.042 -1.2390  0.6537 -0.0476
   58MOL0     H 7616   9.362   2.352   4.755 -2.1411  1.2870  1.2546
   58MOL0     H 7617   9.320   2.206   4.850  2.3402 -0.6835  2.2492
   58MOL0     H 7618   9.402   2.034   4.876 -0.2960  1.2081  0.5628
   58MOL0     H 7619   9.545   1.837   4.889 -1.5882 -0.1700  2.8983
   58MOL0     H 7620   9.895   1.622   4.662  1.2718  2.8117 -0.3430
   58MOL0     H 7621  10.057   1.419   4.650  0.2574  3.2770 -0.1465
   58MOL0     H 7622  10.093   1.156   4.981 -0.1224 -1.1926 -1.6994
   58MOL0     H 7623  10.244   1.235   5.019  0.8694 -4.5926  0.6663
   58MOL0     H 7624  10.197   1.017   4.812  1.3962  1.0944 -0.8933
   58MOL0     H 7625  10.274   1.001   4.971  1.1637  2.3087  2.6451
   58MOL0     H 7626  10.440   1.211   4.866  1.4349 -0.1078 -2.5128
   58MOL0     H 7627  10.363   1.153   4.720 -0.7753  1.3856 -0.0556
   58MOL0     H 7628  10.582   1.041   4.782 -0.7691  2.2528  1.0773
   58MOL0     H 7629  10.505   0.969   4.934 -0.3556 -3.3729 -1.2149
   58MOL0     H 7630  10.422   0.922   4.653  0.7754 -0.1081  0.3330
   58MOL0     H 7631  10.356   0.841   4.798  0.4197 -1.2714 -1.3831
   58MOL0     H 7632  10.638   0.839   4.659 -0.8765  0.4292 -0.4395
   58MOL0     H 7633  10.504   0.716   4.654 -4.2237 -0.3057  2.2152
   58MOL0     H 7634  10.656   0.771   4.910  0.3341  0.3847 -0.3958
   58MOL0     H 7635  10.519   0.661   4.880 -0.2807  0.0811 -0.1596
   58MOL0     H 7636  10.793   0.663   4.730  1.1053  2.3423  3.2254
   58MOL0     H 7637  10.676   0.534   4.717  0.7366 -0.3361 -0.0675
   58MOL0     H 7638  10.080   1.424   5.081  2.3442  1.4613  0.4688
   58MOL0     H 7639   9.904   1.597   5.088  0.9531  2.0184  0.3267
   58MOL0     H 7640   9.889   2.073   4.887 -0.0970 -0.1660 -0.2114
   58MOL0     H 7641   9.752   2.285   4.889 -1.9674  1.8826 -3.8465
   58MOL0     H 7642   9.843   2.797   4.171 -2.2148 -4.0654  1.2914
   58MOL0     H 7643   9.941   2.571   4.189 -4.1971  0.6375  0.7177
   58MOL0     H 7644  10.111   2.252   4.482  0.4697  1.9272 -2.7131
   58MOL0     H 7645  10.161   2.046   4.559 -0.8214  1.3216 -1.5369
   58MOL0     H 7646  10.258   1.867   4.595  0.8260  0.6192  0.7103
   58MOL0     H 7647  10.317   1.896   4.755  0.3411  1.3063 -0.2475
   58MOL0     H 7648  10.332   1.656   4.712 -0.2053  0.3497 -0.1962
   58MOL0     H 7649  10.411   1.673   4.555  0.4032  0.6412 -0.7521
   58MOL0     H 7650  10.546   1.780   4.818  3.4540  0.6223  0.3068
   58MOL0     H 7651  10.601   1.762   4.643 -0.0752 -0.4472  0.7398
   58MOL0     H 7652  10.521   1.551   4.826 -0.4240 -0.5899  0.0720
   58MOL0     H 7653  10.566   1.510   4.660 -3.1038  2.9388 -1.0703
   58MOL0     H 7654  10.946   1.596   4.859 -2.2314  0.8653  4.7149
   58MOL0     H 7655  10.590   2.120   4.494 -0.6592 -3.2065 -1.1808
   58MOL0     H 7656  10.524   2.334   4.392 -1.2477  0.1659 -0.9933
   59MOL0     O 7657   4.158   9.706   9.284  0.4320 -0.1605 -0.3528
   59MOL0     C 7658   4.173   9.658   9.396 -0.1178  0.8527  0.1640
   59MOL0     O 7659   4.070   9.639   9.485 -0.1475 -0.1630  0.1475
   59MOL0     C 7660   3.940   9.682   9.457 -0.1454  0.0909 -0.4245
   59MOL0     C 7661   3.830   9.598   9.440  0.0958 -0.4549  0.0029
   59MOL0     C 7662   3.703   9.646   9.446 -0.0636  0.0525  0.4936
   59MOL0     C 7663   3.671   9.780   9.439  0.3769 -0.1221 -0.5787
   59MOL0     O 7664   3.544   9.835   9.452 -0.8990  1.0838  0.2501
   59MOL0     C 7665   3.504   9.961   9.405 -0.1456 -0.7759  0.4333
   59MOL0     C 7666   3.346   9.950   9.382  0.1214  0.0800 -0.3082
   59MOL0     C 7667   3.289  10.088   9.342 -0.5004  0.0621  0.5962
   59MOL0     C 7668   3.134  10.089   9.361 -0.3361  0.6778 -0.0701
   59MOL0     C 7669   3.070  10.229   9.319  0.5130  0.5075  0.3377
   59MOL0     C 7670   2.920  10.209   9.338  0.8191  0.6808  0.0825
   59MOL0     C 7671   2.847  10.342   9.300 -0.3333  0.3804 -0.5802
   59MOL0     C 7672   2.880  10.401   9.155  0.0007 -0.5710 -1.0178
   59MOL0     N 7673   2.866  10.308   9.045 -0.6364  0.5302  0.2007
   59MOL0     C 7674   2.767  10.217   9.023 -0.0714 -1.0458 -0.8224
   59MOL0     C 7675   2.759  10.184   8.890 -0.7518 -0.0240 -0.0412
   59MOL0     C 7676   2.658  10.097   8.827  0.5539 -0.7751 -0.5181
   59MOL0     C 7677   2.569  10.159   8.720 -0.0901  0.5882  0.7364
   59MOL0     C 7678   2.513  10.287   8.768  0.9269 -0.3909 -0.2569
   59MOL0     C 7679   2.412  10.339   8.669 -0.8035 -0.1691 -1.0547
   59MOL0     O 7680   2.387  10.479   8.699  0.5381 -0.2744  0.4650
   59MOL0     C 7681   2.302  10.538   8.615 -0.0669  0.1657  0.2635
   59MOL0     C 7682   2.218  10.637   8.665  1.0528 -0.9078 -0.2338
   59MOL0     C 7683   2.132  10.722   8.590  1.0662  0.9465  0.9028
   59MOL0     C 7684   2.117  10.697   8.451 -0.0213  0.0646 -0.7698
   59MOL0     C 7685   2.031  10.774   8.353  1.0240 -0.1267 -0.6826
   59MOL0     O 7686   1.986  10.898   8.398 -0.7526  0.8278  0.2426
   59MOL0     C 7687   1.916  10.978   8.311 -0.8353  0.8358  0.2837
   59MOL0     C 7688   1.947  10.999   8.180  1.1542  0.0987  0.8776
   59MOL0     C 7689   1.876  11.079   8.100 -0.9210  0.1745  0.3592
   59MOL0     C 7690   1.765  11.151   8.148  0.6892  1.3355 -0.2427
   59MOL0     O 7691   1.699  11.230   8.062  0.4224  0.5138  0.7194
   59MOL0     C 7692   1.641  11.350   8.112 -0.3212  0.5649 -0.2455
   59MOL0     C 7693   1.490  11.338   8.144 -0.8025 -0.1592  0.7413
   59MOL0     C 7694   1.405  11.331   8.022 -0.0530  0.2372 -0.1915
   59MOL0     C 7695   1.256  11.326   8.043  0.1435 -1.2201 -0.3990
   59MOL0     C 7696   1.208  11.174   8.036 -0.2529 -0.3645  0.0323
   59MOL0     C 7697   1.075  11.154   8.099  0.1019 -0.1237 -0.0392
   59MOL0     C 7698   0.972  11.188   7.997  0.4010 -0.4057  0.4822
   59MOL0     C 7699   0.841  11.220   8.060  0.1520  0.0638  0.5093
   59MOL0    Cl 7700   0.729  11.249   7.926 -0.0966 -0.0979 -0.1479
   59MOL0     C 7701   1.721  11.114   8.278 -0.3972  0.2940  0.2912
   59MOL0     C 7702   1.800  11.032   8.361  0.9773  0.9315  1.0602
   59MOL0     O 7703   2.001  10.719   8.248  0.0626 -0.0284  0.0855
   59MOL0     C 7704   2.194  10.592   8.398  0.7144  0.0657  0.7363
   59MOL0     C 7705   2.277  10.508   8.478 -0.1073  0.0194 -0.8136
   59MOL0     N 7706   2.872  10.248   8.836  0.3399  0.4396  0.5409
   59MOL0     N 7707   2.933  10.320   8.930 -0.0095  0.4084  0.7138
   59MOL0     C 7708   3.780   9.864   9.432 -0.3057  0.0337  0.5290
   59MOL0     C 7709   3.908   9.815   9.445 -0.1960  0.1797 -0.1179
   59MOL0     C 7710   4.308   9.622   9.439  0.2500  0.0090 -0.9564
   59MOL0     C 7711   4.415   9.628   9.346  0.4898  0.6269 -1.2797
   59MOL0     C 7712   4.549   9.622   9.388  0.0284  0.5903  0.0484
   59MOL0     C 7713   4.581   9.590   9.522  0.1120  0.4333 -0.3626
   59MOL0     O 7714   4.709   9.578   9.561 -0.8469  0.1065  0.3720
   59MOL0     C 7715   4.810   9.608   9.471  0.2148  0.6192  0.3939
   59MOL0     C 7716   4.935   9.610   9.548  0.7185 -0.0096  0.5264
   59MOL0     C 7717   4.963   9.474   9.617 -0.7736  0.7397 -0.4287
   59MOL0     C 7718   5.112   9.415   9.616  0.0336 -0.9850  0.0574
   59MOL0     C 7719   5.195   9.496   9.706  0.1609 -0.3967 -0.5637
   59MOL0     C 7720   5.263   9.544   9.792 -0.7833  0.5615  0.7503
   59MOL0     C 7721   4.474   9.561   9.616  0.1553  0.2194 -0.0091
   59MOL0     C 7722   4.341   9.573   9.573 -0.4914  0.0170 -0.2468
   59MOL0     H 7723   3.842   9.491   9.445 -1.1488 -0.5724  1.0145
   59MOL0     H 7724   3.619   9.579   9.462 -1.6550  1.8037 -0.1601
   59MOL0     H 7725   3.554   9.988   9.312 -1.2038  0.9134  0.3155
   59MOL0     H 7726   3.511  10.038   9.482 -0.1782 -0.6954  0.3557
   59MOL0     H 7727   3.279   9.920   9.464 -1.5861  0.5300 -1.4908
   59MOL0     H 7728   3.331   9.873   9.305 -0.3982  1.1002 -1.2406
   59MOL0     H 7729   3.316  10.126   9.243 -2.3057  0.0097  0.0411
   59MOL0     H 7730   3.328  10.156   9.418 -0.3759  0.5299  0.1194
   59MOL0     H 7731   3.097  10.022   9.283 -1.1463  1.6158 -0.5162
   59MOL0     H 7732   3.101  10.043   9.455 -2.5179 -5.4496 -3.2381
   59MOL0     H 7733   3.094  10.254   9.216 -0.1321  0.3945  0.1555
   59MOL0     H 7734   3.099  10.313   9.382  1.4948 -0.0247  0.6357
   59MOL0     H 7735   2.905  10.169   9.439  1.0564  2.3428  0.8057
   59MOL0     H 7736   2.883  10.128   9.274  1.6256 -0.7709  1.4032
   59MOL0     H 7737   2.742  10.313   9.309 -0.2439  0.2357  0.0124
   59MOL0     H 7738   2.861  10.428   9.366  2.7551  0.9762 -1.8068
   59MOL0     H 7739   2.976  10.452   9.145 -0.1059  0.2165  1.4168
   59MOL0     H 7740   2.806  10.481   9.146 -2.0774 -2.0576  1.6681
   59MOL0     H 7741   2.717  10.168   9.106  1.0453 -0.3194  0.3153
   59MOL0     H 7742   2.594  10.061   8.908  2.7001 -1.1625  1.1056
   59MOL0     H 7743   2.711  10.011   8.784  1.7695  0.0803 -0.7706
   59MOL0     H 7744   2.490  10.088   8.694 -0.0137  0.7719 -0.0049
   59MOL0     H 7745   2.638  10.172   8.636  0.5437 -2.0992  0.7541
   59MOL0     H 7746   2.465  10.265   8.864  1.7412  1.0138  0.5159
   59MOL0     H 7747   2.596  10.358   8.780 -1.8360  2.8298  1.7060
   59MOL0     H 7748   2.321  10.278   8.668 -1.0261  0.1538 -0.7702
   59MOL0     H 7749   2.466  10.338   8.573  0.4402 -1.1074 -0.3732
   59MOL0     H 7750   2.226  10.670   8.768  1.1285 -1.3388 -0.0975
   59MOL0     H 7751   2.088  10.804   8.645  2.1989  0.5514  2.4396
   59MOL0     H 7752   2.027  10.941   8.136 -2.3390 -3.2662 -1.8268
   59MOL0     H 7753   1.889  11.075   7.992 -0.4814 -0.0971  0.4189
   59MOL0     H 7754   1.647  11.439   8.049  0.2661  0.8733  0.2281
   59MOL0     H 7755   1.685  11.369   8.211  0.2209  2.1437 -0.7633
   59MOL0     H 7756   1.472  11.419   8.216  0.4886  2.3951 -1.6070
   59MOL0     H 7757   1.475  11.250   8.207 -0.2596  0.7287  2.1653
   59MOL0     H 7758   1.434  11.248   7.957 -0.5557 -0.6861  0.7427
   59MOL0     H 7759   1.421  11.420   7.961  1.8451 -0.9041 -1.4670
   59MOL0     H 7760   1.242  11.368   8.143  0.3877  0.0406 -0.8852
   59MOL0     H 7761   1.196  11.377   7.968  0.1011 -1.4393 -0.5154
   59MOL0     H 7762   1.282  11.104   8.077 -0.9581 -1.2697 -0.2097
   59MOL0     H 7763   1.213  11.140   7.932 -1.4765 -0.6499  0.0512
   59MOL0     H 7764   1.070  11.203   8.197  1.0032  0.6291 -0.3558
   59MOL0     H 7765   1.062  11.047   8.117  2.8535 -0.5111  0.1779
   59MOL0     H 7766   0.997  11.280   7.944  0.3071  1.7187  3.8997
   59MOL0     H 7767   0.963  11.110   7.920  1.2918  1.9966 -2.2409
   59MOL0     H 7768   0.851  11.302   8.131  0.7452 -1.6923  2.5442
   59MOL0     H 7769   0.805  11.135   8.118 -2.0224  1.4715  1.3431
   59MOL0     H 7770   1.628  11.154   8.319 -2.0530 -2.0270 -0.9882
   59MOL0     H 7771   1.769  10.993   8.458  1.9817 -1.6981  0.4166
   59MOL0     H 7772   2.176  10.558   8.296  3.6292 -1.9620  0.7793
   59MOL0     H 7773   2.330  10.429   8.426  1.2572  0.0498  0.4855
   59MOL0     H 7774   3.766   9.970   9.412  1.3231  0.3320  0.8584
   59MOL0     H 7775   3.980   9.895   9.460 -1.2449  1.2639 -0.5975
   59MOL0     H 7776   4.386   9.664   9.248 -2.1679  2.9050  0.1708
   59MOL0     H 7777   4.618   9.648   9.309 -2.7087  0.5144 -2.5285
   59MOL0     H 7778   4.785   9.706   9.429  0.5176  0.2372 -0.6884
   59MOL0     H 7779   4.820   9.527   9.398  2.2227 -0.1740  1.4712
   59MOL0     H 7780   5.019   9.648   9.488 -0.1772  2.7123  0.8689
   59MOL0     H 7781   4.911   9.688   9.621 -2.8250 -0.8485  0.4294
   59MOL0     H 7782   4.905   9.392   9.573 -0.1852 -1.0304  1.8722
   59MOL0     H 7783   4.939   9.475   9.724  0.6147  1.9096 -0.1054
   59MOL0     H 7784   5.099   9.310   9.644 -2.7851 -1.3283 -2.0615
   59MOL0     H 7785   5.161   9.418   9.519  1.7395  1.8188  0.8668
   59MOL0     H 7786   5.336   9.551   9.870  1.0924  0.7736 -0.9484
   59MOL0     H 7787   4.504   9.539   9.718  1.8389  2.0984 -0.0326
   59MOL0     H 7788   4.252   9.579   9.634 -0.6489  2.3926 -0.6061
   60MOL0     O 7789   2.468   0.180   5.626  0.3566  0.8069 -0.0078
   60MOL0     C 7790   2.393   0.157   5.722  0.7057  0.4863 -0.8151
   60MOL0     O 7791   2.257   0.155   5.721  0.1202 -0.3057  0.1673
   60MOL0     C 7792   2.177   0.192   5.616  0.6937 -0.6267  0.3904
   60MOL0     C 7793   2.215   0.300   5.525  1.3434  0.3474  0.1090
   60MOL0     C 7794   2.122   0.324   5.414  0.8466  0.3753 -0.0781
   60MOL0     C 7795   1.989   0.275   5.413  0.8274 -0.1730 -0.5029
   60MOL0     O 7796   1.897   0.308   5.316 -0.9960  0.4153 -0.4221
   60MOL0     C 7797   1.760   0.262   5.327  0.9150 -0.4922  0.1888
   60MOL0     C 7798   1.666   0.339   5.240  0.0903 -0.0658  0.0880
   60MOL0     C 7799   1.538   0.268   5.216 -0.1324  0.2363 -0.2339
   60MOL0     C 7800   1.552   0.159   5.104  0.2992  0.9608  0.2621
   60MOL0     C 7801   1.414   0.090   5.077  0.1813 -0.8782  0.1120
   60MOL0     C 7802   1.421  -0.036   4.992  0.3397  0.6890 -0.9257
   60MOL0     C 7803   1.285  -0.052   4.922  0.1056 -0.0153 -0.6056
   60MOL0     C 7804   1.271  -0.168   4.820 -0.3642  0.0866  0.0531
   60MOL0     N 7805   1.220  -0.284   4.884 -0.0514 -0.2681 -0.4088
   60MOL0     C 7806   1.098  -0.283   4.940 -0.0123  0.0598  0.5809
   60MOL0     C 7807   1.082  -0.409   4.983 -0.4027 -0.3536 -0.9165
   60MOL0     C 7808   0.954  -0.458   5.055  0.1977 -0.2367 -0.2841
   60MOL0     C 7809   0.973  -0.438   5.202  1.0898 -0.1053 -0.2707
   60MOL0     C 7810   0.854  -0.474   5.289  0.2464  0.5578  1.3063
   60MOL0     C 7811   0.737  -0.387   5.264  0.5872  0.1878 -0.0261
   60MOL0     O 7812   0.644  -0.421   5.371 -0.4970 -0.3225  0.4154
   60MOL0     C 7813   0.532  -0.503   5.332  0.1170 -0.2297 -0.5214
   60MOL0     C 7814   0.508  -0.583   5.220 -0.4736 -0.1820 -0.1750
   60MOL0     C 7815   0.390  -0.655   5.201 -0.5152 -0.0321 -0.3325
   60MOL0     C 7816   0.277  -0.640   5.289 -0.5192 -0.6565  0.2778
   60MOL0     C 7817   0.148  -0.710   5.278 -0.3103 -0.3554  0.3712
   60MOL0     O 7818   0.127  -0.802   5.180  0.2885 -0.2438  0.2665
   60MOL0     C 7819   0.006  -0.858   5.159  0.2275  0.5628 -0.0892
   60MOL0     C 7820   0.004  -0.996   5.141  0.6263 -0.3223  0.6325
   60MOL0     C 7821  -0.112  -1.068   5.131  0.1904 -1.1905 -0.1977
   60MOL0     C 7822  -0.242  -1.003   5.147 -1.3898 -0.6637 -0.8259
   60MOL0     O 7823  -0.367  -1.067   5.135 -0.5582  0.0265  0.5708
   60MOL0     C 7824  -0.378  -1.206   5.133 -0.0087  0.4002 -0.0407
   60MOL0     C 7825  -0.526  -1.240   5.107  0.6702 -0.1074 -0.8237
   60MOL0     C 7826  -0.629  -1.227   5.209  1.0513  0.5825 -0.5095
   60MOL0     C 7827  -0.662  -1.077   5.241  0.7404  0.4631 -0.4595
   60MOL0     C 7828  -0.695  -0.991   5.121 -0.2395 -0.1325  0.6524
   60MOL0     C 7829  -0.709  -0.842   5.158 -0.0117  0.2183 -0.2054
   60MOL0     C 7830  -0.744  -0.745   5.040 -0.1560  0.8537 -0.0889
   60MOL0     C 7831  -0.826  -0.631   5.097  0.6891  0.1758  0.5098
   60MOL0    Cl 7832  -0.827  -0.485   4.981  0.3480  0.0229 -0.0594
   60MOL0     C 7833  -0.234  -0.871   5.187  1.1023  0.2398 -0.5185
   60MOL0     C 7834  -0.117  -0.794   5.187  0.3634 -0.3511  0.3748
   60MOL0     O 7835   0.063  -0.672   5.365 -0.1971  0.6318  0.4564
   60MOL0     C 7836   0.301  -0.549   5.396  0.3493  0.0285 -0.1497
   60MOL0     C 7837   0.423  -0.486   5.417 -0.1699  0.1081 -0.4573
   60MOL0     N 7838   1.199  -0.481   4.950  0.6693 -0.5250  1.0119
   60MOL0     N 7839   1.286  -0.401   4.900 -0.3616  0.0485 -0.6395
   60MOL0     C 7840   1.955   0.178   5.513 -0.0503  0.2610 -0.6639
   60MOL0     C 7841   2.049   0.138   5.612  0.0373 -1.0195 -0.2962
   60MOL0     C 7842   2.444   0.154   5.870  0.4678  0.0613 -0.6083
   60MOL0     C 7843   2.366   0.104   5.979  1.1834 -0.9555 -0.1727
   60MOL0     C 7844   2.423   0.092   6.104  0.5389  0.0388 -0.6980
   60MOL0     C 7845   2.553   0.132   6.141 -0.2045 -0.3728  0.9737
   60MOL0     O 7846   2.603   0.111   6.267 -0.2838 -0.6617  0.5469
   60MOL0     C 7847   2.739   0.070   6.286  0.5468 -0.7185 -1.3428
   60MOL0     C 7848   2.828   0.195   6.310 -0.1017  0.4417 -0.2992
   60MOL0     C 7849   2.979   0.163   6.281 -0.5176 -0.3343 -0.0402
   60MOL0     C 7850   3.060   0.092   6.389  0.2441 -1.0441  0.5944
   60MOL0     C 7851   3.093   0.183   6.500 -0.5555 -0.2379 -0.0067
   60MOL0     C 7852   3.125   0.225   6.605 -0.8169 -0.0122 -2.2802
   60MOL0     C 7853   2.623   0.181   6.027  0.0954  0.7351 -0.3756
   60MOL0     C 7854   2.571   0.197   5.897  0.6971  0.2804 -0.2039
   60MOL0     H 7855   2.308   0.355   5.517  0.1218  2.3194 -1.8148
   60MOL0     H 7856   2.151   0.389   5.332 -1.7596  2.3464  0.4277
   60MOL0     H 7857   1.715   0.264   5.427  1.5077 -2.7941  0.5433
   60MOL0     H 7858   1.760   0.156   5.301 -2.2062 -1.2960  2.8410
   60MOL0     H 7859   1.712   0.367   5.144 -1.4208 -0.1604 -0.6940
   60MOL0     H 7860   1.649   0.436   5.288  0.4132  0.2077 -0.3467
   60MOL0     H 7861   1.464   0.337   5.174 -0.6609 -2.2322 -3.8907
   60MOL0     H 7862   1.489   0.231   5.306 -1.4690 -2.6243 -1.9669
   60MOL0     H 7863   1.591   0.210   5.015 -0.3830  1.0868  0.0310
   60MOL0     H 7864   1.616   0.073   5.124 -1.2639 -0.9968 -2.5026
   60MOL0     H 7865   1.352   0.163   5.025 -2.3285 -3.4667 -0.7734
   60MOL0     H 7866   1.367   0.048   5.167  1.2735 -2.8569 -0.1802
   60MOL0     H 7867   1.440  -0.121   5.058 -1.8509  0.3266 -0.7128
   60MOL0     H 7868   1.501  -0.025   4.917 -0.7509 -1.2620 -2.4713
   60MOL0     H 7869   1.209  -0.050   5.000 -2.0344 -0.6397 -2.5501
   60MOL0     H 7870   1.265   0.040   4.867 -0.6199 -0.2783 -0.8011
   60MOL0     H 7871   1.367  -0.203   4.781 -0.2541  1.1859 -0.6841
   60MOL0     H 7872   1.213  -0.139   4.733 -2.1936 -2.4523  0.3001
   60MOL0     H 7873   1.023  -0.207   4.920  0.9264  1.8945  3.5563
   60MOL0     H 7874   0.941  -0.565   5.036  0.7480 -0.0487 -1.8039
   60MOL0     H 7875   0.869  -0.397   5.021  0.2727 -0.7869 -1.4995
   60MOL0     H 7876   0.987  -0.335   5.237 -1.7498 -0.0055  0.8884
   60MOL0     H 7877   1.064  -0.486   5.240  1.7415  2.1145  1.1717
   60MOL0     H 7878   0.823  -0.576   5.265 -0.0194  0.8580  0.3378
   60MOL0     H 7879   0.886  -0.466   5.394  1.9566 -0.4439  0.9047
   60MOL0     H 7880   0.698  -0.412   5.165 -1.4584 -1.6316  1.1372
   60MOL0     H 7881   0.759  -0.281   5.275  0.7521  0.1202  0.3153
   60MOL0     H 7882   0.594  -0.605   5.158 -0.1940  1.6322 -0.4975
   60MOL0     H 7883   0.387  -0.730   5.122  0.4084  0.8134 -1.1891
   60MOL0     H 7884   0.098  -1.046   5.119 -1.0601 -3.3996 -0.0945
   60MOL0     H 7885  -0.079  -1.165   5.094  0.8254 -1.3083  0.6462
   60MOL0     H 7886  -0.325  -1.243   5.221  1.5755  1.1616 -0.6369
   60MOL0     H 7887  -0.315  -1.253   5.057 -0.5058 -2.2686  1.0591
   60MOL0     H 7888  -0.535  -1.347   5.088 -1.9539 -0.1921  0.4138
   60MOL0     H 7889  -0.563  -1.189   5.018  0.2748  0.8539 -0.1403
   60MOL0     H 7890  -0.613  -1.285   5.300 -1.9023 -0.2314 -0.4098
   60MOL0     H 7891  -0.724  -1.268   5.174  0.0748  1.0236  1.4605
   60MOL0     H 7892  -0.756  -1.066   5.296  1.3166  3.9221  0.1085
   60MOL0     H 7893  -0.595  -1.015   5.302 -1.5608  0.9762  1.7117
   60MOL0     H 7894  -0.774  -1.022   5.052  0.8171  2.2113 -1.8129
   60MOL0     H 7895  -0.608  -0.991   5.054  0.1039  1.4343  1.0526
   60MOL0     H 7896  -0.610  -0.815   5.196 -1.0696  1.5733  1.7920
   60MOL0     H 7897  -0.779  -0.829   5.241  1.6966  3.0489  0.9797
   60MOL0     H 7898  -0.653  -0.696   5.006  1.1442 -0.4788  1.3127
   60MOL0     H 7899  -0.786  -0.809   4.961  1.1942 -1.7872  1.2160
   60MOL0     H 7900  -0.793  -0.589   5.193 -0.6716  2.6216 -0.0129
   60MOL0     H 7901  -0.923  -0.681   5.113  0.5843 -1.2145 -3.4681
   60MOL0     H 7902  -0.333  -0.830   5.197 -0.8273 -3.5164 -1.9879
   60MOL0     H 7903  -0.128  -0.689   5.209 -1.3434 -0.5091  0.3528
   60MOL0     H 7904   0.215  -0.538   5.462  0.3488 -4.0436  0.8141
   60MOL0     H 7905   0.441  -0.418   5.500 -0.9447 -0.5546  0.2673
   60MOL0     H 7906   1.863   0.121   5.503  0.5223 -1.5260  2.7948
   60MOL0     H 7907   2.021   0.052   5.672  0.0982 -0.7015  0.2007
   60MOL0     H 7908   2.269   0.059   5.963 -0.5252  2.3243 -0.0542
   60MOL0     H 7909   2.366   0.053   6.188  0.4546  0.8638 -0.3558
   60MOL0     H 7910   2.769   0.020   6.194 -3.3560 -3.3790 -1.3621
   60MOL0     H 7911   2.746   0.000   6.370 -1.9667 -0.1496 -0.5642
   60MOL0     H 7912   2.791   0.271   6.241 -0.4573 -1.1102 -1.8706
   60MOL0     H 7913   2.808   0.233   6.411  0.1244 -0.2371  0.0045
   60MOL0     H 7914   3.020   0.263   6.265 -1.4926  0.5386  2.4192
   60MOL0     H 7915   2.988   0.108   6.187  4.5248 -0.6709  0.3816
   60MOL0     H 7916   3.013   0.003   6.431  2.3579 -1.8665  1.3264
   60MOL0     H 7917   3.146   0.052   6.334  0.7260  2.1873 -1.2822
   60MOL0     H 7918   3.141   0.252   6.708  3.2095 -0.1103 -2.7206
   60MOL0     H 7919   2.724   0.219   6.040 -0.4502  1.8365  0.9443
   60MOL0     H 7920   2.633   0.245   5.821 -0.3820  1.5054 -0.3407
   61MOL0     O 7921   3.120   5.736   6.915 -0.3720 -0.0812 -0.4108
   61MOL0     C 7922   3.158   5.693   7.019 -0.5801 -0.3635  0.1790
   61MOL0     O 7923   3.074   5.654   7.121  0.5750 -0.5605  0.2063
   61MOL0     C 7924   2.942   5.686   7.108  0.8797  0.1467 -0.1123
   61MOL0     C 7925   2.843   5.590   7.083  1.4135  0.2807 -0.0984
   61MOL0     C 7926   2.710   5.636   7.084  0.3178  0.0343 -0.0253
   61MOL0     C 7927   2.670   5.772   7.080 -1.2438  0.3167  0.3197
   61MOL0     O 7928   2.542   5.804   7.039 -0.5770  0.4284 -0.4544
   61MOL0     C 7929   2.426   5.712   7.073  0.1343  0.3713 -0.2424
   61MOL0     C 7930   2.398   5.635   6.934  0.2449 -0.0309 -0.0764
   61MOL0     C 7931   2.306   5.519   6.960  0.3555  1.1032  0.0553
   61MOL0     C 7932   2.266   5.454   6.828 -0.3634 -0.6298 -0.7624
   61MOL0     C 7933   2.160   5.352   6.846  0.5400  0.0102  0.3584
   61MOL0     C 7934   2.119   5.272   6.722  0.0521  0.5058  0.2067
   61MOL0     C 7935   2.025   5.157   6.765  0.2831  1.0056 -0.5323
   61MOL0     C 7936   1.971   5.075   6.653  0.5828 -0.1938 -0.8815
   61MOL0     N 7937   1.875   4.977   6.709 -0.4407  0.0822  0.3145
   61MOL0     C 7938   1.902   4.844   6.718 -0.0478 -0.6072  0.0196
   61MOL0     C 7939   1.784   4.781   6.724  0.2676  0.5987  0.8057
   61MOL0     C 7940   1.764   4.636   6.755  0.0507  0.5693 -0.1275
   61MOL0     C 7941   1.751   4.549   6.630  0.7646  0.1351  0.9700
   61MOL0     C 7942   1.720   4.406   6.669 -0.8063 -1.1600 -0.3775
   61MOL0     C 7943   1.581   4.367   6.734  0.2656 -0.2434 -0.0235
   61MOL0     O 7944   1.491   4.351   6.624 -0.7252  0.2869 -0.1044
   61MOL0     C 7945   1.376   4.277   6.656 -0.2784 -0.4668  0.2978
   61MOL0     C 7946   1.313   4.258   6.783 -0.6482  1.0376 -0.0248
   61MOL0     C 7947   1.192   4.192   6.791  0.1112  0.4945 -0.0862
   61MOL0     C 7948   1.126   4.140   6.682 -0.0583 -0.2291 -0.3821
   61MOL0     C 7949   1.002   4.060   6.702 -0.1088 -0.8031 -0.0251
   61MOL0     O 7950   0.932   4.032   6.597  1.4738  0.3978 -0.4737
   61MOL0     C 7951   0.831   3.936   6.601 -0.8115  0.0811  0.1263
   61MOL0     C 7952   0.781   3.912   6.477  0.2849 -0.6531  0.3315
   61MOL0     C 7953   0.668   3.834   6.451  0.2582  0.7207 -0.2109
   61MOL0     C 7954   0.598   3.767   6.560 -0.1623  0.6798  0.0199
   61MOL0     O 7955   0.496   3.684   6.543  0.2474 -0.5025  0.0305
   61MOL0     C 7956   0.417   3.682   6.421 -0.0731  0.7139 -0.4351
   61MOL0     C 7957   0.306   3.590   6.448  0.7052  0.3459  0.5227
   61MOL0     C 7958   0.212   3.577   6.333  0.3492 -0.4614  0.5577
   61MOL0     C 7959   0.095   3.481   6.384 -0.0860 -1.1283  0.1589
   61MOL0     C 7960  -0.004   3.437   6.278  0.1736  0.0135  0.1634
   61MOL0     C 7961  -0.123   3.365   6.346 -0.3912 -0.1799 -0.1793
   61MOL0     C 7962  -0.209   3.315   6.234  1.0604  0.2398 -0.3213
   61MOL0     C 7963  -0.329   3.242   6.301 -0.2823 -0.1445 -0.5317
   61MOL0    Cl 7964  -0.448   3.193   6.187  0.1524 -0.4580  0.1598
   61MOL0     C 7965   0.666   3.776   6.680  0.0109 -0.0714  0.0044
   61MOL0     C 7966   0.773   3.866   6.705  0.3960 -0.3636 -0.8313
   61MOL0     O 7967   0.973   4.028   6.816 -0.2457 -0.2533 -0.2230
   61MOL0     C 7968   1.187   4.162   6.555 -0.0137  0.0951  0.0169
   61MOL0     C 7969   1.305   4.237   6.549 -0.0899  0.2608  1.0967
   61MOL0     N 7970   1.686   4.875   6.706  0.9639  0.6357  0.0178
   61MOL0     N 7971   1.741   4.989   6.693  0.0124  0.2497 -0.3901
   61MOL0     C 7972   2.775   5.872   7.087 -0.0533  0.2183 -0.4511
   61MOL0     C 7973   2.909   5.823   7.111 -0.5393  0.5534 -0.6507
   61MOL0     C 7974   3.304   5.690   7.029  0.1331  0.9049  0.7796
   61MOL0     C 7975   3.392   5.693   6.914  1.0677 -0.5055 -0.5069
   61MOL0     C 7976   3.532   5.687   6.923 -0.7262 -0.2985  0.2790
   61MOL0     C 7977   3.585   5.666   7.047  0.1115 -0.4546  0.0386
   61MOL0     O 7978   3.720   5.635   7.060 -0.8395  0.1468 -0.4686
   61MOL0     C 7979   3.825   5.650   6.964  0.3277  0.0108 -0.3532
   61MOL0     C 7980   3.958   5.604   7.028 -0.9824  0.1243  0.3696
   61MOL0     C 7981   4.080   5.641   6.932  0.1627 -1.0151  0.4754
   61MOL0     C 7982   4.210   5.587   6.984  0.2599 -0.1057 -0.0000
   61MOL0     C 7983   4.310   5.630   6.879 -0.4128 -0.5677 -0.4942
   61MOL0     C 7984   4.385   5.647   6.788  0.1712 -0.2077  0.8800
   61MOL0     C 7985   3.508   5.663   7.155  0.5724  0.4006 -0.6765
   61MOL0     C 7986   3.366   5.677   7.155  0.3793 -0.3913 -0.2624
   61MOL0     H 7987   2.870   5.485   7.083  0.5373 -0.1824  4.7965
   61MOL0     H 7988   2.636   5.560   7.062 -0.9433  1.0955  0.4423
   61MOL0     H 7989   2.333   5.765   7.096  0.5770 -0.4000  4.0227
   61MOL0     H 7990   2.429   5.636   7.151 -1.0018  1.2140  0.6589
   61MOL0     H 7991   2.486   5.589   6.888 -0.8526 -0.5388 -1.7576
   61MOL0     H 7992   2.353   5.708   6.865  1.1113  0.5594 -0.0340
   61MOL0     H 7993   2.218   5.566   7.004 -2.2182 -1.5209 -1.9364
   61MOL0     H 7994   2.347   5.451   7.035  1.5175 -0.3494 -1.8176
   61MOL0     H 7995   2.219   5.521   6.756 -3.8297 -2.5794 -0.5273
   61MOL0     H 7996   2.359   5.411   6.788  2.2405  3.1127  0.7142
   61MOL0     H 7997   2.080   5.397   6.906  1.6532 -0.2093  2.0943
   61MOL0     H 7998   2.212   5.286   6.916  0.4815  0.8978  1.2645
   61MOL0     H 7999   2.204   5.230   6.667 -1.3671 -0.5217 -1.3031
   61MOL0     H 8000   2.069   5.330   6.643 -0.0090  1.7397  1.1143
   61MOL0     H 8001   2.080   5.096   6.838  0.3505  0.7431 -0.8012
   61MOL0     H 8002   1.934   5.193   6.813 -1.2390  0.2069 -2.6874
   61MOL0     H 8003   2.038   5.019   6.587 -2.0737 -1.5254 -2.6268
   61MOL0     H 8004   1.917   5.146   6.589 -1.1966 -1.5322 -0.9340
   61MOL0     H 8005   1.999   4.800   6.737  0.2532  0.6714  1.7078
   61MOL0     H 8006   1.667   4.636   6.806  0.1092 -1.5431  0.0343
   61MOL0     H 8007   1.842   4.591   6.816 -0.9188  1.8897  2.2302
   61MOL0     H 8008   1.846   4.545   6.576  0.5927 -1.6219  0.7541
   61MOL0     H 8009   1.668   4.592   6.573  0.9844 -2.3921 -1.4647
   61MOL0     H 8010   1.753   4.339   6.588 -0.4089 -0.2062 -1.0258
   61MOL0     H 8011   1.792   4.378   6.747 -0.1658  0.2606 -0.4243
   61MOL0     H 8012   1.543   4.440   6.806  1.5751  1.2342 -0.7717
   61MOL0     H 8013   1.596   4.269   6.780 -1.8245 -0.7295 -0.2846
   61MOL0     H 8014   1.369   4.274   6.875  1.1746  1.1981 -1.1172
   61MOL0     H 8015   1.157   4.173   6.892  2.2780  0.7685  0.7680
   61MOL0     H 8016   0.830   3.960   6.393  1.8657 -1.3094  0.8370
   61MOL0     H 8017   0.637   3.800   6.353 -1.6001  0.1667  0.5327
   61MOL0     H 8018   0.478   3.642   6.340  2.6170  1.8906  0.8926
   61MOL0     H 8019   0.386   3.783   6.395 -0.0043  1.2537  1.4052
   61MOL0     H 8020   0.255   3.619   6.541  0.1877  1.2607 -0.0382
   61MOL0     H 8021   0.351   3.493   6.472 -0.7232 -0.3651  0.4575
   61MOL0     H 8022   0.264   3.529   6.250 -0.3491 -0.4644  0.1169
   61MOL0     H 8023   0.171   3.673   6.298  1.3153 -0.7611 -1.5535
   61MOL0     H 8024   0.135   3.384   6.414  2.2385 -0.8484 -1.8232
   61MOL0     H 8025   0.031   3.525   6.462  1.1625  0.3923  0.3664
   61MOL0     H 8026   0.047   3.371   6.207  0.5386 -1.1458  1.4638
   61MOL0     H 8027  -0.037   3.522   6.218  1.9831 -0.3625 -1.4443
   61MOL0     H 8028  -0.177   3.442   6.402 -0.7155 -1.4111  1.2607
   61MOL0     H 8029  -0.100   3.285   6.416  0.0991  0.9031  0.9379
   61MOL0     H 8030  -0.251   3.396   6.174 -1.5473  0.8976  2.1766
   61MOL0     H 8031  -0.156   3.248   6.165 -0.6425  0.5945 -2.0787
   61MOL0     H 8032  -0.370   3.305   6.380 -1.3461 -2.0589  0.5269
   61MOL0     H 8033  -0.291   3.150   6.347  1.1804 -0.1994 -1.7682
   61MOL0     H 8034   0.639   3.709   6.760 -1.0662  0.7779  0.3669
   61MOL0     H 8035   0.801   3.869   6.809 -2.5772  0.1211  0.0435
   61MOL0     H 8036   1.141   4.118   6.468  3.2721 -1.1315 -1.2539
   61MOL0     H 8037   1.354   4.244   6.452  0.2048 -1.5026  1.0873
   61MOL0     H 8038   2.744   5.975   7.098 -0.4822 -0.0219  0.8831
   61MOL0     H 8039   2.983   5.902   7.117  0.8729 -0.8150  1.2826
   61MOL0     H 8040   3.353   5.720   6.816  2.0654 -0.9164 -1.0348
   61MOL0     H 8041   3.593   5.707   6.836 -1.4014 -1.1823 -0.4150
   61MOL0     H 8042   3.824   5.754   6.931  1.2063  0.8980  2.1433
   61MOL0     H 8043   3.802   5.577   6.886  2.6773 -2.1634  0.8273
   61MOL0     H 8044   3.964   5.660   7.122  0.9919  0.6172  0.0088
   61MOL0     H 8045   3.963   5.497   7.048  0.7708  0.2395  0.7347
   61MOL0     H 8046   4.083   5.748   6.909 -2.0342 -1.3994 -2.2797
   61MOL0     H 8047   4.054   5.598   6.835 -0.0713  0.6880 -0.2556
   61MOL0     H 8048   4.239   5.635   7.077 -4.2148  1.2054  0.9814
   61MOL0     H 8049   4.214   5.478   6.997 -0.9076 -0.2881 -0.9115
   61MOL0     H 8050   4.470   5.677   6.729  1.7752  0.7367  3.4680
   61MOL0     H 8051   3.556   5.652   7.252  1.7239  1.1631 -1.1378
   61MOL0     H 8052   3.309   5.680   7.247 -4.0580 -0.4141 -2.7318
   62MOL0     O 8053   8.322   4.270   6.722 -0.2200  0.3544 -0.2273
   62MOL0     C 8054   8.325   4.337   6.617  0.4167 -0.1595  0.0604
   62MOL0     O 8055   8.217   4.390   6.563  0.1748  0.5847 -0.2240
   62MOL0     C 8056   8.092   4.351   6.598 -0.1081  1.6825  0.6847
   62MOL0     C 8057   8.002   4.450   6.625  0.2080 -0.2282 -0.2948
   62MOL0     C 8058   7.861   4.418   6.666 -0.3460 -0.4979  0.0391
   62MOL0     C 8059   7.820   4.282   6.681 -0.1749 -0.0013  0.1913
   62MOL0     O 8060   7.691   4.235   6.708 -0.1659  0.1975  0.1099
   62MOL0     C 8061   7.676   4.169   6.834  0.4222  0.0586 -0.6893
   62MOL0     C 8062   7.530   4.204   6.889 -0.1751  0.4326 -0.0593
   62MOL0     C 8063   7.417   4.155   6.797  0.0564 -0.5256  0.4385
   62MOL0     C 8064   7.270   4.175   6.853  0.3164 -0.2588  0.1055
   62MOL0     C 8065   7.162   4.144   6.745  0.1428  0.1458 -0.3132
   62MOL0     C 8066   7.029   4.143   6.812 -0.4633 -0.7983  0.0140
   62MOL0     C 8067   6.940   4.013   6.783  0.0322 -0.0049  0.0930
   62MOL0     C 8068   6.875   3.964   6.916 -0.4734  0.4682 -0.3438
   62MOL0     N 8069   6.754   4.027   6.957  0.8874  0.0965 -0.9580
   62MOL0     C 8070   6.638   4.028   6.881  0.3977  0.0315 -0.1277
   62MOL0     C 8071   6.572   4.130   6.934  0.8035 -0.5921  0.0954
   62MOL0     C 8072   6.438   4.180   6.890 -0.7721 -0.6349  0.4518
   62MOL0     C 8073   6.324   4.139   6.969 -0.2488 -0.5569 -0.3318
   62MOL0     C 8074   6.207   4.222   6.908  0.8133 -0.8837  0.9701
   62MOL0     C 8075   6.073   4.192   6.977 -0.1090  0.0272  1.0625
   62MOL0     O 8076   5.984   4.305   6.945 -0.9142  0.4772 -0.9429
   62MOL0     C 8077   5.882   4.328   7.028 -0.0491  0.8613  0.7661
   62MOL0     C 8078   5.834   4.225   7.110 -0.0297 -0.3652  0.2715
   62MOL0     C 8079   5.717   4.239   7.182  0.6037 -0.5610 -0.6779
   62MOL0     C 8080   5.644   4.358   7.173  0.4528  0.1388  0.9535
   62MOL0     C 8081   5.508   4.379   7.252 -0.0090  0.0129  0.3267
   62MOL0     O 8082   5.468   4.511   7.268 -0.4988  0.1734 -0.3075
   62MOL0     C 8083   5.349   4.541   7.325  0.3143  1.1242 -0.7098
   62MOL0     C 8084   5.239   4.457   7.304 -0.2700  0.4353  0.5885
   62MOL0     C 8085   5.113   4.482   7.363 -1.0205  0.2748  0.4853
   62MOL0     C 8086   5.097   4.602   7.433 -0.0133  0.3323  0.3066
   62MOL0     O 8087   4.983   4.621   7.502  0.1417 -0.5851 -0.0252
   62MOL0     C 8088   4.996   4.689   7.634 -0.2923  0.1580  0.0519
   62MOL0     C 8089   4.869   4.655   7.722  0.1693  0.3549 -0.2206
   62MOL0     C 8090   4.847   4.752   7.839  0.1231  0.7161  0.3733
   62MOL0     C 8091   4.713   4.762   7.900 -0.0795 -0.2837 -0.2872
   62MOL0     C 8092   4.720   4.888   7.994 -0.3677 -1.5734  0.5588
   62MOL0     C 8093   4.588   4.933   8.050 -0.2516  1.1289 -0.2632
   62MOL0     C 8094   4.500   4.993   7.946 -0.7638 -0.4723 -0.0868
   62MOL0     C 8095   4.358   4.941   7.959  0.8321  0.9510  0.2087
   62MOL0    Cl 8096   4.243   5.029   7.854 -0.8781  0.3566 -0.0622
   62MOL0     C 8097   5.203   4.687   7.447  0.0341  0.1539 -1.5849
   62MOL0     C 8098   5.334   4.658   7.397 -0.6789 -0.3318 -0.0646
   62MOL0     O 8099   5.473   4.276   7.314  0.6793 -0.4146 -0.0248
   62MOL0     C 8100   5.700   4.466   7.098  0.3897  0.6690  0.3046
   62MOL0     C 8101   5.813   4.450   7.020 -0.5918 -0.0212 -0.4367
   62MOL0     N 8102   6.634   4.187   7.043  0.6987 -0.2675 -0.7103
   62MOL0     N 8103   6.749   4.127   7.049  0.4427  0.2044 -1.2329
   62MOL0     C 8104   7.915   4.195   6.652  0.6819 -0.0332 -0.9430
   62MOL0     C 8105   8.045   4.226   6.616 -0.4775 -0.1123  0.6473
   62MOL0     C 8106   8.442   4.383   6.558 -0.1032 -0.4618  0.2053
   62MOL0     C 8107   8.445   4.477   6.457 -1.0217  0.3669  0.2346
   62MOL0     C 8108   8.559   4.511   6.390  0.0663 -0.3162 -0.3366
   62MOL0     C 8109   8.682   4.446   6.427 -0.5533 -0.7921 -0.1156
   62MOL0     O 8110   8.791   4.479   6.346 -0.1411  0.7079  0.6543
   62MOL0     C 8111   8.917   4.414   6.369 -0.3876 -0.2005 -0.2360
   62MOL0     C 8112   9.016   4.503   6.457  0.2529 -0.2693 -0.1193
   62MOL0     C 8113   9.159   4.460   6.449  0.4613  0.3776 -0.4475
   62MOL0     C 8114   9.247   4.541   6.353 -0.3565 -0.5297  0.6327
   62MOL0     C 8115   9.386   4.528   6.396  0.6319  0.5773 -0.9602
   62MOL0     C 8116   9.499   4.522   6.438 -0.7614  0.2887  0.3032
   62MOL0     C 8117   8.687   4.369   6.547 -0.2753  0.5460  0.4109
   62MOL0     C 8118   8.569   4.338   6.611 -0.0940 -0.4416  0.2964
   62MOL0     H 8119   8.045   4.548   6.609  3.1919 -1.4110 -0.2568
   62MOL0     H 8120   7.782   4.490   6.685  0.8162  1.1629 -1.0847
   62MOL0     H 8121   7.749   4.204   6.908 -2.1888 -1.6365  3.0073
   62MOL0     H 8122   7.704   4.064   6.819  0.4942 -0.0303  0.0330
   62MOL0     H 8123   7.537   4.313   6.896  1.3461  0.4192 -0.9204
   62MOL0     H 8124   7.528   4.162   6.990 -1.4423  2.8584  0.9942
   62MOL0     H 8125   7.424   4.048   6.778  0.0351 -0.3392 -0.6487
   62MOL0     H 8126   7.432   4.211   6.704 -0.3827 -0.5128  0.3749
   62MOL0     H 8127   7.260   4.112   6.942  0.7925  0.6340  0.8145
   62MOL0     H 8128   7.252   4.274   6.897  0.6993  1.1267 -2.6236
   62MOL0     H 8129   7.179   4.046   6.700 -2.5334 -0.8839  0.7378
   62MOL0     H 8130   7.169   4.216   6.662  2.3190 -0.8471 -1.0607
   62MOL0     H 8131   6.975   4.234   6.785  0.6280 -0.2884 -0.5150
   62MOL0     H 8132   7.041   4.148   6.920 -1.0046 -2.2693  0.1636
   62MOL0     H 8133   6.867   4.030   6.704 -0.8934  3.1878  1.4830
   62MOL0     H 8134   7.004   3.931   6.748 -0.4293  0.4015 -1.8397
   62MOL0     H 8135   6.941   3.960   7.004  1.7592  5.1206 -1.5125
   62MOL0     H 8136   6.852   3.857   6.912 -2.3036  0.8404 -0.7319
   62MOL0     H 8137   6.611   3.966   6.796 -0.6111  0.9049 -0.4573
   62MOL0     H 8138   6.422   4.141   6.789 -0.2489  0.1082  0.0719
   62MOL0     H 8139   6.449   4.289   6.898  2.5219 -0.9683  2.3917
   62MOL0     H 8140   6.335   4.164   7.075  1.2645  0.9624 -0.8106
   62MOL0     H 8141   6.328   4.032   6.947  6.7415 -0.6414 -0.6592
   62MOL0     H 8142   6.233   4.327   6.920 -1.7413 -0.4431  4.3248
   62MOL0     H 8143   6.183   4.200   6.804 -1.4776  0.1385  1.2169
   62MOL0     H 8144   6.091   4.177   7.084  2.1558  2.1070  1.0599
   62MOL0     H 8145   6.033   4.096   6.943  1.0938  0.0447 -0.5560
   62MOL0     H 8146   5.860   4.119   7.115 -4.1916 -1.5503  1.3148
   62MOL0     H 8147   5.670   4.155   7.232 -0.8729 -0.2172 -1.4132
   62MOL0     H 8148   5.244   4.361   7.255 -2.0613  1.9399 -2.8787
   62MOL0     H 8149   5.029   4.414   7.349  0.2576 -0.8323 -2.5804
   62MOL0     H 8150   4.994   4.795   7.610 -2.2114  0.5641  1.6944
   62MOL0     H 8151   5.087   4.660   7.687 -1.8750 -0.1986  2.7729
   62MOL0     H 8152   4.873   4.554   7.764  0.8772  0.8239  0.8925
   62MOL0     H 8153   4.781   4.651   7.657  0.3674 -2.4356 -0.4372
   62MOL0     H 8154   4.871   4.852   7.804  0.1342  0.8018  0.6219
   62MOL0     H 8155   4.913   4.717   7.920 -1.4871 -0.2326  1.3322
   62MOL0     H 8156   4.644   4.780   7.818  2.8148  1.8481 -2.4737
   62MOL0     H 8157   4.677   4.670   7.947  0.1641 -1.5812 -2.5357
   62MOL0     H 8158   4.753   4.973   7.933  1.2018 -3.9989 -2.2466
   62MOL0     H 8159   4.783   4.863   8.079 -1.0764 -0.2527  1.5056
   62MOL0     H 8160   4.612   5.017   8.116  2.2861  1.5183 -1.5544
   62MOL0     H 8161   4.537   4.848   8.097 -1.4555  0.7725 -2.0996
   62MOL0     H 8162   4.496   5.100   7.968  3.3022 -0.3379  0.7687
   62MOL0     H 8163   4.539   4.972   7.846  2.4665 -0.8079  1.1185
   62MOL0     H 8164   4.323   4.942   8.062 -2.6296  1.1887 -0.8302
   62MOL0     H 8165   4.357   4.838   7.923 -0.5676  1.0592 -0.1358
   62MOL0     H 8166   5.187   4.782   7.496 -1.1938 -1.8650  2.3605
   62MOL0     H 8167   5.422   4.721   7.411  0.1684 -1.6570  0.9126
   62MOL0     H 8168   5.663   4.568   7.088  1.3180  0.8180 -2.6616
   62MOL0     H 8169   5.856   4.518   6.946  2.4410 -1.2997  0.0119
   62MOL0     H 8170   7.882   4.091   6.647  2.4370 -0.6220 -1.3455
   62MOL0     H 8171   8.104   4.137   6.599 -0.9486 -0.3433  0.1917
   62MOL0     H 8172   8.350   4.522   6.432 -0.4206  0.3612 -2.3576
   62MOL0     H 8173   8.558   4.565   6.296  0.6069 -2.5269 -1.6907
   62MOL0     H 8174   8.941   4.404   6.262 -0.9289  0.8723 -0.4718
   62MOL0     H 8175   8.904   4.318   6.420 -1.9734 -0.5418 -1.2272
   62MOL0     H 8176   9.004   4.609   6.433 -0.4349  0.1331  1.8520
   62MOL0     H 8177   8.977   4.479   6.556 -0.2204 -0.4481 -0.3470
   62MOL0     H 8178   9.166   4.352   6.432 -1.1651  0.3398 -1.0676
   62MOL0     H 8179   9.189   4.483   6.552 -1.0799  1.1575 -0.1378
   62MOL0     H 8180   9.222   4.503   6.253 -0.3500  3.3368 -1.0506
   62MOL0     H 8181   9.216   4.646   6.349  0.7677 -0.1778  0.7663
   62MOL0     H 8182   9.605   4.511   6.448 -0.4009  1.6835 -1.4968
   62MOL0     H 8183   8.785   4.330   6.575  0.2445  0.5593 -1.2538
   62MOL0     H 8184   8.577   4.270   6.695  0.2922  1.6943  2.0581
   63MOL0     O 8185   5.450   1.996   7.369 -0.4163 -0.7324  0.1261
   63MOL0     C 8186   5.521   2.030   7.270  0.6389 -0.0058  0.2676
   63MOL0     O 8187   5.475   2.084   7.151 -0.4440  0.5147  0.4971
   63MOL0     C 8188   5.352   2.148   7.134 -0.0643 -0.3780  0.4805
   63MOL0     C 8189   5.278   2.131   7.010  0.4225 -0.8779  0.0059
   63MOL0     C 8190   5.145   2.191   6.996 -0.4674 -0.1474  0.1243
   63MOL0     C 8191   5.091   2.258   7.102 -0.2541  0.0877 -1.2901
   63MOL0     O 8192   4.959   2.296   7.115  0.2347 -0.6049 -0.8905
   63MOL0     C 8193   4.873   2.249   7.014 -0.5846 -0.1229  0.0339
   63MOL0     C 8194   4.733   2.311   7.012 -0.8941 -0.4477 -0.5344
   63MOL0     C 8195   4.741   2.463   7.010 -0.3772  0.3155 -0.0636
   63MOL0     C 8196   4.656   2.516   6.902 -0.5227  0.6511  0.4653
   63MOL0     C 8197   4.513   2.507   6.935  0.4716 -0.0359 -1.2897
   63MOL0     C 8198   4.414   2.501   6.825  0.4193 -0.2099  1.0571
   63MOL0     C 8199   4.272   2.469   6.857  0.3185  0.3912  0.1632
   63MOL0     C 8200   4.178   2.485   6.738  0.1331  0.1352  0.1522
   63MOL0     N 8201   4.043   2.475   6.789  0.4448  1.2082 -0.8868
   63MOL0     C 8202   3.960   2.573   6.838  1.0832  0.6059 -0.3356
   63MOL0     C 8203   3.851   2.506   6.894  0.1474  0.3181  0.2552
   63MOL0     C 8204   3.734   2.551   6.961  0.7527 -0.8227 -0.4024
   63MOL0     C 8205   3.607   2.532   6.872 -0.6963 -0.0465  0.0246
   63MOL0     C 8206   3.482   2.518   6.960  0.6936 -0.2768 -0.3520
   63MOL0     C 8207   3.357   2.470   6.881 -1.2271  0.0025 -0.3298
   63MOL0     O 8208   3.312   2.585   6.808 -0.0479 -0.2060  0.4971
   63MOL0     C 8209   3.217   2.573   6.706 -0.2455  0.0654  1.1622
   63MOL0     C 8210   3.197   2.682   6.623  0.0722  0.2831 -0.1908
   63MOL0     C 8211   3.101   2.688   6.522 -0.2009  0.3129 -0.0391
   63MOL0     C 8212   3.013   2.574   6.495  0.1647  0.5561  0.0257
   63MOL0     C 8213   2.910   2.566   6.392  0.6518  1.7365 -0.5121
   63MOL0     O 8214   2.854   2.443   6.372  0.1295 -0.7808  0.0253
   63MOL0     C 8215   2.755   2.431   6.285  0.5612 -0.2629 -0.4184
   63MOL0     C 8216   2.630   2.490   6.303  0.9433 -0.2400 -0.5887
   63MOL0     C 8217   2.521   2.456   6.211  0.3908  0.1824  0.5232
   63MOL0     C 8218   2.543   2.374   6.099 -0.0276  0.0649 -0.6239
   63MOL0     O 8219   2.436   2.352   6.021 -0.8451 -0.2217  0.5081
   63MOL0     C 8220   2.447   2.247   5.927 -0.6865 -0.4991  0.6224
   63MOL0     C 8221   2.446   2.103   5.978 -0.5146  0.5992 -1.4234
   63MOL0     C 8222   2.307   2.092   6.046  0.8960  0.0955  0.0414
   63MOL0     C 8223   2.291   1.948   6.086 -0.1120 -0.0369 -0.0987
   63MOL0     C 8224   2.146   1.913   6.140 -0.0476  0.5529 -0.7895
   63MOL0     C 8225   2.149   1.785   6.221 -0.4130  0.0022 -0.4704
   63MOL0     C 8226   2.005   1.743   6.250  1.1002 -0.6255 -0.3532
   63MOL0     C 8227   1.906   1.852   6.295 -0.8502  0.3850 -0.6003
   63MOL0    Cl 8228   1.756   1.775   6.383 -0.0779  0.1884 -0.5072
   63MOL0     C 8229   2.669   2.308   6.086  0.1786  0.0354  0.1147
   63MOL0     C 8230   2.772   2.338   6.181  0.0903  0.1305  0.7144
   63MOL0     O 8231   2.877   2.666   6.339 -0.3760 -0.2551  0.0323
   63MOL0     C 8232   3.041   2.463   6.575 -0.4053  0.4106 -1.2842
   63MOL0     C 8233   3.146   2.462   6.678 -0.4693 -0.4986  0.5465
   63MOL0     N 8234   3.882   2.369   6.882  0.0314 -0.2560  0.0796
   63MOL0     N 8235   3.994   2.353   6.813  0.2597  0.0759 -0.4247
   63MOL0     C 8236   5.170   2.277   7.221 -0.1924  0.6036 -0.6919
   63MOL0     C 8237   5.298   2.217   7.242  0.6337  0.5214 -0.2975
   63MOL0     C 8238   5.665   1.999   7.279  0.5183 -0.0764  0.5733
   63MOL0     C 8239   5.759   2.050   7.182  0.7220 -0.2255  0.1939
   63MOL0     C 8240   5.896   2.022   7.198  0.0416  0.6069 -0.1220
   63MOL0     C 8241   5.938   1.938   7.298 -0.2818 -0.2180  0.9999
   63MOL0     O 8242   6.069   1.902   7.310  0.6970 -0.2937 -1.2186
   63MOL0     C 8243   6.096   1.787   7.229 -0.8580 -0.1991 -0.6167
   63MOL0     C 8244   6.156   1.678   7.310  0.3028 -0.2591  0.0301
   63MOL0     C 8245   6.295   1.719   7.368  0.7527  0.3992 -0.4639
   63MOL0     C 8246   6.379   1.613   7.428  0.0758 -0.6735  0.5590
   63MOL0     C 8247   6.403   1.511   7.323 -1.3286  1.0684 -0.5416
   63MOL0     C 8248   6.413   1.434   7.231 -0.1402 -0.2003 -0.2370
   63MOL0     C 8249   5.846   1.887   7.385  0.1555 -0.4197 -0.4857
   63MOL0     C 8250   5.710   1.918   7.381  0.4681  0.3652  0.1164
   63MOL0     H 8251   5.314   2.066   6.932  0.5129 -1.4556  0.5191
   63MOL0     H 8252   5.085   2.171   6.908 -0.9987 -1.4815  0.7672
   63MOL0     H 8253   4.862   2.140   7.009  0.3045 -0.1581 -2.9877
   63MOL0     H 8254   4.913   2.271   6.915 -0.5156 -4.1183 -1.0059
   63MOL0     H 8255   4.679   2.283   7.103  0.3018  0.9183  0.6444
   63MOL0     H 8256   4.674   2.276   6.927 -0.1736  1.4737 -1.8849
   63MOL0     H 8257   4.843   2.491   6.986 -1.1891  0.1346 -4.4537
   63MOL0     H 8258   4.713   2.505   7.108  2.8701  2.8887 -0.0621
   63MOL0     H 8259   4.670   2.623   6.884  0.0107  0.2728 -1.6486
   63MOL0     H 8260   4.679   2.456   6.814  2.4334 -0.6694  1.9973
   63MOL0     H 8261   4.494   2.589   7.005  0.2633 -1.9477  0.9682
   63MOL0     H 8262   4.500   2.419   6.997  3.5187 -1.2566 -2.1753
   63MOL0     H 8263   4.452   2.438   6.744 -1.9830 -0.7883  0.2811
   63MOL0     H 8264   4.420   2.603   6.785  0.4828  0.4408  2.6600
   63MOL0     H 8265   4.277   2.364   6.888 -0.6853  0.4961  0.7352
   63MOL0     H 8266   4.239   2.529   6.942 -2.6174  0.2190 -0.7664
   63MOL0     H 8267   4.200   2.422   6.651 -1.3629  2.4097 -2.0135
   63MOL0     H 8268   4.200   2.588   6.708  0.2173  0.3414  0.9127
   63MOL0     H 8269   3.975   2.681   6.833 -0.7773  1.0011  1.1680
   63MOL0     H 8270   3.742   2.651   7.003  2.7060 -0.4108 -1.6249
   63MOL0     H 8271   3.724   2.478   7.042  0.7355  0.6135  0.9195
   63MOL0     H 8272   3.620   2.446   6.805  1.5114  2.3614 -2.9396
   63MOL0     H 8273   3.603   2.614   6.800 -3.3249  0.8007  1.0400
   63MOL0     H 8274   3.508   2.452   7.043 -0.6055 -0.8026 -0.3435
   63MOL0     H 8275   3.456   2.612   7.009 -3.4213  0.1839 -2.9898
   63MOL0     H 8276   3.276   2.453   6.953 -1.5850  2.5848 -0.0358
   63MOL0     H 8277   3.378   2.388   6.813 -0.1403 -1.5478  1.7635
   63MOL0     H 8278   3.257   2.770   6.646  1.5685 -0.9689  0.8792
   63MOL0     H 8279   3.078   2.772   6.457 -0.9757 -0.2872 -0.5616
   63MOL0     H 8280   2.614   2.560   6.384  1.2770 -1.1224  0.2586
   63MOL0     H 8281   2.433   2.519   6.215  1.1996  1.6938 -2.3754
   63MOL0     H 8282   2.538   2.270   5.872 -1.1269 -2.9567 -1.3236
   63MOL0     H 8283   2.367   2.248   5.853 -1.4150 -1.5555  1.3708
   63MOL0     H 8284   2.526   2.063   6.040 -0.7388  1.5058 -0.5207
   63MOL0     H 8285   2.454   2.043   5.887 -1.3926 -1.2687 -0.3121
   63MOL0     H 8286   2.231   2.132   5.978  1.3752  0.3224 -0.3749
   63MOL0     H 8287   2.314   2.149   6.139  0.9236 -1.3312  0.9371
   63MOL0     H 8288   2.303   1.885   5.998 -0.0210  3.1267 -2.5580
   63MOL0     H 8289   2.372   1.916   6.152  1.0889 -0.9568 -1.9404
   63MOL0     H 8290   2.081   1.890   6.054 -1.4681 -0.3186  0.4674
   63MOL0     H 8291   2.092   1.989   6.198 -0.3289 -0.4706  0.3333
   63MOL0     H 8292   2.210   1.808   6.310  1.7543  1.0432 -2.1199
   63MOL0     H 8293   2.195   1.694   6.180 -1.0131 -1.2523  1.4678
   63MOL0     H 8294   1.957   1.699   6.163  0.6938 -0.6425 -0.1259
   63MOL0     H 8295   2.006   1.669   6.330  0.5075 -1.8510 -1.4513
   63MOL0     H 8296   1.891   1.915   6.206  2.1643  3.4247  0.8036
   63MOL0     H 8297   1.948   1.913   6.375 -2.7866 -0.1039  0.8384
   63MOL0     H 8298   2.699   2.237   6.010 -0.6262 -1.5191  1.1896
   63MOL0     H 8299   2.867   2.292   6.157  0.8418  0.3550  2.9896
   63MOL0     H 8300   2.997   2.364   6.564  1.1746 -1.1384  3.6514
   63MOL0     H 8301   3.162   2.361   6.714 -1.1981 -1.3039 -1.2508
   63MOL0     H 8302   5.135   2.334   7.307  3.4201 -0.9299  2.0241
   63MOL0     H 8303   5.351   2.231   7.335 -2.8496  2.6679  1.5733
   63MOL0     H 8304   5.730   2.115   7.100  0.1858 -0.1344  0.4516
   63MOL0     H 8305   5.961   2.053   7.117 -1.2288 -0.6898 -1.7059
   63MOL0     H 8306   6.172   1.809   7.153  2.0820  1.3795  2.4996
   63MOL0     H 8307   6.006   1.749   7.180 -1.0867 -1.2301  0.5467
   63MOL0     H 8308   6.081   1.651   7.385  0.2593 -1.6497 -0.4927
   63MOL0     H 8309   6.166   1.592   7.242  0.2274  0.2714 -0.6704
   63MOL0     H 8310   6.272   1.786   7.451 -0.2544  0.7667 -1.0233
   63MOL0     H 8311   6.349   1.779   7.294 -2.1406  2.2272 -1.2662
   63MOL0     H 8312   6.475   1.652   7.462 -0.2352  2.1868 -1.4905
   63MOL0     H 8313   6.329   1.577   7.519 -1.1657 -0.9681 -0.2150
   63MOL0     H 8314   6.413   1.372   7.144 -1.0247 -0.3790 -0.1151
   63MOL0     H 8315   5.893   1.821   7.457 -1.3819 -0.3191  0.6628
   63MOL0     H 8316   5.638   1.876   7.451 -3.7860 -0.2845 -4.0616
   64MOL0     O 8317   6.703   2.476   2.656 -0.1198  1.2208  0.3129
   64MOL0     C 8318   6.654   2.364   2.654  0.2042  0.6381  0.2703
   64MOL0     O 8319   6.710   2.243   2.691 -0.5517  0.9196  0.2649
   64MOL0     C 8320   6.846   2.253   2.700 -0.4905  0.2348  0.2175
   64MOL0     C 8321   6.931   2.259   2.586 -0.3788  0.4153  0.1535
   64MOL0     C 8322   7.065   2.229   2.587 -0.2163 -0.5301 -0.1417
   64MOL0     C 8323   7.129   2.214   2.706  0.3462 -0.2432 -0.2826
   64MOL0     O 8324   7.261   2.207   2.722 -0.1366  0.6355  0.9314
   64MOL0     C 8325   7.333   2.146   2.603  0.1586  0.1438 -0.1421
   64MOL0     C 8326   7.466   2.083   2.641  0.6682  0.0562  0.7487
   64MOL0     C 8327   7.562   2.041   2.523  0.9685  0.8509 -0.0150
   64MOL0     C 8328   7.609   2.170   2.455  0.4202 -0.5720  0.4647
   64MOL0     C 8329   7.692   2.268   2.544  0.7627 -0.1166  0.2626
   64MOL0     C 8330   7.757   2.372   2.455  0.6104 -0.3521  0.7651
   64MOL0     C 8331   7.656   2.459   2.377 -0.2584  0.9056 -0.6425
   64MOL0     C 8332   7.575   2.551   2.466  0.0440 -0.1163  0.6907
   64MOL0     N 8333   7.494   2.654   2.384 -0.4615 -1.1284  0.5866
   64MOL0     C 8334   7.405   2.727   2.455 -0.1902  0.0221  1.3384
   64MOL0     C 8335   7.323   2.785   2.355  0.3360 -0.7219 -0.2634
   64MOL0     C 8336   7.195   2.867   2.387 -0.6942  0.0718 -0.9189
   64MOL0     C 8337   7.119   2.931   2.270  0.3867  1.4152 -0.0397
   64MOL0     C 8338   7.040   2.830   2.175  0.4075  0.2351  0.0993
   64MOL0     C 8339   6.938   2.742   2.253 -0.9571 -0.0155  0.3531
   64MOL0     O 8340   6.849   2.821   2.332  0.6393  0.1835  0.9160
   64MOL0     C 8341   6.729   2.847   2.281 -0.3024 -0.2723 -0.4914
   64MOL0     C 8342   6.674   2.821   2.149  0.1090 -0.3140  0.2958
   64MOL0     C 8343   6.548   2.860   2.112  0.6088  0.6755 -0.1042
   64MOL0     C 8344   6.463   2.926   2.202 -1.1448  0.5875  0.0370
   64MOL0     C 8345   6.318   2.942   2.171 -0.7716  0.7006 -0.1524
   64MOL0     O 8346   6.237   2.973   2.270  0.2349 -1.1667 -0.6952
   64MOL0     C 8347   6.101   2.993   2.261 -0.3254  0.1679  0.3983
   64MOL0     C 8348   6.017   2.961   2.143 -1.1654 -0.2009  0.5423
   64MOL0     C 8349   5.875   2.967   2.160  0.3775 -0.7637  0.3007
   64MOL0     C 8350   5.810   2.999   2.276  0.4752 -0.1844 -0.8785
   64MOL0     O 8351   5.673   2.999   2.284  0.3886 -0.1575  0.7309
   64MOL0     C 8352   5.620   3.131   2.298 -0.4164 -0.0251 -0.1488
   64MOL0     C 8353   5.642   3.211   2.164 -0.2519  0.1279 -0.7110
   64MOL0     C 8354   5.581   3.146   2.047  0.5910  0.2813  0.1046
   64MOL0     C 8355   5.431   3.173   2.029  0.7217 -0.1808  0.9128
   64MOL0     C 8356   5.344   3.065   2.092 -0.3211 -0.5251  0.8648
   64MOL0     C 8357   5.321   2.955   1.987  0.9039  0.3412 -0.0482
   64MOL0     C 8358   5.234   2.845   2.059 -0.5068  0.3235  0.2723
   64MOL0     C 8359   5.181   2.740   1.960  0.3686  0.5967  0.4248
   64MOL0    Cl 8360   5.311   2.647   1.893  0.2058  0.2728  0.4014
   64MOL0     C 8361   5.892   3.042   2.387  0.2043  0.4148 -0.3938
   64MOL0     C 8362   6.035   3.019   2.385 -0.1510 -0.3848 -0.3492
   64MOL0     O 8363   6.289   2.939   2.050 -0.0087 -0.0827 -0.0005
   64MOL0     C 8364   6.507   2.945   2.334  0.1239 -0.7113  0.6735
   64MOL0     C 8365   6.640   2.901   2.366 -0.2630 -0.5275 -0.6829
   64MOL0     N 8366   7.373   2.744   2.230  0.7683 -0.2596  0.0960
   64MOL0     N 8367   7.473   2.669   2.253 -1.0614  0.6557 -0.4319
   64MOL0     C 8368   7.051   2.220   2.827 -0.2768  0.3857 -0.3650
   64MOL0     C 8369   6.903   2.240   2.829 -0.5168  0.5615  1.0200
   64MOL0     C 8370   6.514   2.347   2.609 -0.1887 -0.2662  0.8130
   64MOL0     C 8371   6.443   2.231   2.641  0.4857  0.4667 -0.8679
   64MOL0     C 8372   6.312   2.204   2.593  0.4231  0.2247 -0.5068
   64MOL0     C 8373   6.245   2.305   2.532 -0.8619 -0.9686  0.2573
   64MOL0     O 8374   6.116   2.265   2.499  1.0836 -1.2726  0.7389
   64MOL0     C 8375   6.021   2.354   2.436  0.7027 -0.2409  0.1094
   64MOL0     C 8376   5.877   2.321   2.483  0.2302 -0.1789 -0.0779
   64MOL0     C 8377   5.773   2.389   2.388  1.0087  0.8260  0.0663
   64MOL0     C 8378   5.717   2.278   2.299  0.9127  0.3201 -0.1745
   64MOL0     C 8379   5.628   2.343   2.204 -0.7670 -1.2297  0.0612
   64MOL0     C 8380   5.574   2.413   2.121  0.0312  0.4887 -0.0590
   64MOL0     C 8381   6.316   2.416   2.488  0.3819 -0.8462  1.3778
   64MOL0     C 8382   6.447   2.442   2.527 -0.4884  0.2210 -0.1663
   64MOL0     H 8383   6.886   2.279   2.490  1.1602  0.3603 -0.6237
   64MOL0     H 8384   7.114   2.244   2.491  1.0323 -0.2973  0.5158
   64MOL0     H 8385   7.341   2.224   2.527 -1.3800 -0.4287 -0.9360
   64MOL0     H 8386   7.271   2.066   2.561 -1.2731  0.5693  1.0646
   64MOL0     H 8387   7.452   1.998   2.708 -2.3949 -1.0576 -1.1167
   64MOL0     H 8388   7.522   2.152   2.705  1.3624  0.9660 -0.7893
   64MOL0     H 8389   7.499   1.972   2.466  0.5100 -0.1075  1.5749
   64MOL0     H 8390   7.648   1.984   2.558 -1.4965 -0.9667  3.8372
   64MOL0     H 8391   7.658   2.135   2.364 -0.7127  0.0634 -0.4182
   64MOL0     H 8392   7.517   2.215   2.416  0.6543  0.9845  1.6272
   64MOL0     H 8393   7.768   2.223   2.608  0.3026 -2.1363 -0.5308
   64MOL0     H 8394   7.624   2.320   2.612 -0.5755 -2.7466  1.0704
   64MOL0     H 8395   7.813   2.305   2.388 -0.4887 -0.7743  0.2338
   64MOL0     H 8396   7.825   2.436   2.510  0.8903 -0.2967  0.3602
   64MOL0     H 8397   7.717   2.523   2.312  2.1206  0.6189  1.1802
   64MOL0     H 8398   7.590   2.401   2.312 -1.6434  1.5613  0.1389
   64MOL0     H 8399   7.651   2.599   2.529 -0.6544 -0.7882  2.0729
   64MOL0     H 8400   7.501   2.496   2.523 -1.2112 -1.2741 -1.8831
   64MOL0     H 8401   7.407   2.736   2.563 -0.7601  0.3794  1.3235
   64MOL0     H 8402   7.234   2.935   2.462 -1.1163  0.0081 -0.6379
   64MOL0     H 8403   7.131   2.787   2.425  2.4539 -3.6915 -2.8076
   64MOL0     H 8404   7.189   2.995   2.215 -1.7616  1.4040 -3.0366
   64MOL0     H 8405   7.046   3.000   2.313 -1.0117 -0.4926  0.7893
   64MOL0     H 8406   6.977   2.882   2.103  1.1134 -1.9721 -2.2336
   64MOL0     H 8407   7.119   2.770   2.129 -0.7181 -1.1607 -0.0846
   64MOL0     H 8408   6.981   2.671   2.324 -1.7248 -2.2106 -1.2977
   64MOL0     H 8409   6.894   2.683   2.172  1.7519 -1.4268 -0.2136
   64MOL0     H 8410   6.726   2.774   2.066  1.0712 -0.6134  1.0547
   64MOL0     H 8411   6.514   2.814   2.019 -1.4474 -0.2650  1.0291
   64MOL0     H 8412   6.069   2.932   2.053 -0.0615  0.9383  0.7949
   64MOL0     H 8413   5.811   2.948   2.075  1.0932 -1.8604 -0.0222
   64MOL0     H 8414   5.675   3.193   2.369 -0.1710  1.0444 -1.2301
   64MOL0     H 8415   5.513   3.128   2.320 -0.0579 -0.0304  1.7304
   64MOL0     H 8416   5.747   3.228   2.139 -0.6495  0.6416 -2.0796
   64MOL0     H 8417   5.594   3.309   2.168  0.4568  0.4560  0.7462
   64MOL0     H 8418   5.596   3.038   2.039 -1.1698 -0.0229  0.4496
   64MOL0     H 8419   5.625   3.206   1.966 -1.1118 -1.0358 -1.8980
   64MOL0     H 8420   5.408   3.272   2.069 -0.5998  0.1638 -0.5746
   64MOL0     H 8421   5.408   3.202   1.925  0.9104  2.0884  1.4393
   64MOL0     H 8422   5.249   3.111   2.120 -1.7175 -0.2927 -3.5506
   64MOL0     H 8423   5.393   3.024   2.181 -1.2164 -0.2095  1.5151
   64MOL0     H 8424   5.408   2.905   1.943 -1.8606 -3.0083 -2.2376
   64MOL0     H 8425   5.257   2.989   1.905 -1.4489 -4.2640 -0.4687
   64MOL0     H 8426   5.292   2.792   2.135  0.8212 -1.2280 -1.7044
   64MOL0     H 8427   5.148   2.889   2.110  0.5194  0.6745  1.7630
   64MOL0     H 8428   5.129   2.788   1.877  1.5949  0.1813 -0.6188
   64MOL0     H 8429   5.120   2.667   2.015  1.5549 -1.1841 -0.5209
   64MOL0     H 8430   5.843   3.063   2.482 -0.2470 -0.7392 -0.3485
   64MOL0     H 8431   6.088   3.055   2.472 -2.1622  1.1183  0.3292
   64MOL0     H 8432   6.453   3.000   2.410  1.2613  0.1690  0.8813
   64MOL0     H 8433   6.675   2.923   2.466  1.2821 -2.3213 -0.7738
   64MOL0     H 8434   7.103   2.197   2.919 -0.3125 -0.5259 -0.5649
   64MOL0     H 8435   6.840   2.216   2.915  0.6963 -2.9189  1.1030
   64MOL0     H 8436   6.491   2.156   2.703 -3.2755 -0.9105  0.6858
   64MOL0     H 8437   6.268   2.110   2.625  1.8698 -0.8132 -1.4262
   64MOL0     H 8438   6.033   2.321   2.332  2.0205 -2.2569  0.8431
   64MOL0     H 8439   6.027   2.462   2.453 -1.5749 -0.1360  0.5747
   64MOL0     H 8440   5.865   2.213   2.497 -2.3044 -0.6329 -4.0838
   64MOL0     H 8441   5.872   2.372   2.579  0.7651  2.8463 -1.5442
   64MOL0     H 8442   5.809   2.470   2.324  1.2870  1.6219  1.2003
   64MOL0     H 8443   5.691   2.420   2.453  0.9180  0.9900 -0.1245
   64MOL0     H 8444   5.791   2.221   2.242 -0.3068 -0.5697 -0.9034
   64MOL0     H 8445   5.657   2.206   2.357  1.2424 -2.0533 -2.5921
   64MOL0     H 8446   5.524   2.444   2.032  1.3632  1.8127 -0.4002
   64MOL0     H 8447   6.275   2.483   2.414  3.1855  1.6905  1.9207
   64MOL0     H 8448   6.506   2.529   2.502 -0.4292  1.2509  3.0846
   65MOL0     O 8449   8.050   4.069   5.172 -0.8159 -0.6042  0.3006
   65MOL0     C 8450   8.007   3.971   5.101 -0.3064  0.1876 -0.6868
   65MOL0     O 8451   8.091   3.868   5.049  0.5572  0.7474 -0.1805
   65MOL0     C 8452   8.218   3.872   5.082 -0.8808  0.4641  0.0068
   65MOL0     C 8453   8.305   3.976   5.065  0.1108 -0.2170 -0.2851
   65MOL0     C 8454   8.441   3.960   5.061  0.0271  0.4433  0.4551
   65MOL0     C 8455   8.503   3.845   5.103  0.4535  0.0353 -0.9573
   65MOL0     O 8456   8.640   3.815   5.116 -0.6215 -0.1675 -0.1374
   65MOL0     C 8457   8.748   3.903   5.082 -0.9769 -1.0578  0.0974
   65MOL0     C 8458   8.758   4.013   5.193  0.3476  0.1559  0.4520
   65MOL0     C 8459   8.872   4.102   5.156 -0.1878  0.0784 -0.3257
   65MOL0     C 8460   8.918   4.182   5.278 -0.3447  0.0228  0.2453
   65MOL0     C 8461   9.065   4.233   5.263  0.6750  1.1543 -0.1043
   65MOL0     C 8462   9.153   4.191   5.380 -0.1755  0.4129  0.2469
   65MOL0     C 8463   9.302   4.177   5.343  0.0853 -0.9568  0.7461
   65MOL0     C 8464   9.373   4.310   5.324  0.2723 -0.5542 -0.7517
   65MOL0     N 8465   9.379   4.409   5.438 -0.6648  0.1025  0.3691
   65MOL0     C 8466   9.440   4.401   5.561  0.0960 -0.3256 -1.3059
   65MOL0     C 8467   9.396   4.507   5.631  0.6219  0.3091  0.9108
   65MOL0     C 8468   9.415   4.545   5.778 -0.4326  1.0374 -0.2876
   65MOL0     C 8469   9.451   4.427   5.868 -0.9323 -0.7652 -0.2977
   65MOL0     C 8470   9.336   4.324   5.867 -0.0858 -0.1163  0.4819
   65MOL0     C 8471   9.377   4.211   5.956  0.9974 -0.2628  0.3261
   65MOL0     O 8472   9.502   4.149   5.937 -0.0876  0.4538  0.8852
   65MOL0     C 8473   9.602   4.186   6.016 -0.3108 -0.1110  0.1315
   65MOL0     C 8474   9.586   4.195   6.151 -0.5200 -0.0720  0.1021
   65MOL0     C 8475   9.682   4.254   6.231 -0.1289 -0.2803  0.3781
   65MOL0     C 8476   9.807   4.294   6.185  1.1901 -1.3914  0.4660
   65MOL0     C 8477   9.919   4.331   6.274  0.5520  0.2612 -0.1996
   65MOL0     O 8478  10.039   4.332   6.212 -0.1106 -0.4357 -0.3275
   65MOL0     C 8479  10.130   4.423   6.272  0.8253 -0.0009 -0.8183
   65MOL0     C 8480  10.155   4.552   6.222 -0.3491  0.1820  0.5543
   65MOL0     C 8481  10.243   4.646   6.275 -0.3647 -0.2615 -0.6654
   65MOL0     C 8482  10.312   4.601   6.392  0.6198  0.1155  0.8730
   65MOL0     O 8483  10.410   4.683   6.446 -0.0124 -0.2791  0.3183
   65MOL0     C 8484  10.529   4.634   6.506 -0.1423 -0.3365  0.1035
   65MOL0     C 8485  10.629   4.746   6.528  0.5725  0.6461 -0.1727
   65MOL0     C 8486  10.751   4.688   6.592  0.1406  0.0928  0.5366
   65MOL0     C 8487  10.867   4.781   6.562  1.0685  0.4129 -0.8675
   65MOL0     C 8488  10.927   4.775   6.424 -0.4397 -0.1845  0.6024
   65MOL0     C 8489  11.057   4.865   6.400 -0.0543  0.2470 -0.3997
   65MOL0     C 8490  11.118   4.825   6.277  0.1312  0.1022 -0.4816
   65MOL0     C 8491  11.219   4.928   6.236  0.0026 -0.1430  0.0101
   65MOL0    Cl 8492  11.339   4.968   6.360  0.3839  0.3295 -0.8670
   65MOL0     C 8493  10.293   4.466   6.442  0.4773 -0.0104 -0.9885
   65MOL0     C 8494  10.204   4.384   6.382  0.9503  0.1034 -0.2065
   65MOL0     O 8495   9.890   4.341   6.395  0.3822  0.0414 -0.5761
   65MOL0     C 8496   9.822   4.275   6.046  0.1003  0.0952  0.5010
   65MOL0     C 8497   9.720   4.222   5.962 -0.2357  0.3675 -0.4414
   65MOL0     N 8498   9.316   4.581   5.551  0.1052  0.0747  1.1735
   65MOL0     N 8499   9.315   4.525   5.432 -0.0370 -0.1948 -0.4977
   65MOL0     C 8500   8.416   3.736   5.137  0.0142  0.4400 -0.1337
   65MOL0     C 8501   8.275   3.756   5.120 -0.7325 -0.0437  0.3621
   65MOL0     C 8502   7.865   3.982   5.062  0.1107 -0.9976 -0.6059
   65MOL0     C 8503   7.806   3.893   4.970 -0.2167 -1.2179 -0.1401
   65MOL0     C 8504   7.671   3.913   4.938  0.5823 -0.0484  0.9219
   65MOL0     C 8505   7.594   4.019   4.992  0.4666 -0.0226 -0.4117
   65MOL0     O 8506   7.460   4.031   4.955 -0.3476 -0.7880 -0.2927
   65MOL0     C 8507   7.382   4.150   4.992 -0.3778  0.1247  0.7179
   65MOL0     C 8508   7.267   4.163   4.894 -0.7187 -0.7041  1.3883
   65MOL0     C 8509   7.179   4.036   4.882  0.0217  0.9297  0.1629
   65MOL0     C 8510   7.052   4.069   4.806 -0.6822 -0.2916  0.7314
   65MOL0     C 8511   6.987   3.941   4.768 -0.2685 -0.1549 -0.0944
   65MOL0     C 8512   6.921   3.845   4.735 -0.1548 -0.6260 -1.5334
   65MOL0     C 8513   7.645   4.103   5.091 -0.3507 -0.1832 -0.0446
   65MOL0     C 8514   7.784   4.085   5.123  0.1717 -0.0818 -0.7073
   65MOL0     H 8515   8.260   4.072   5.043 -3.2067 -1.4409  0.6294
   65MOL0     H 8516   8.496   4.048   5.029  1.8598 -0.8913 -0.3091
   65MOL0     H 8517   8.732   3.948   4.984 -1.2490 -0.0510  0.5886
   65MOL0     H 8518   8.836   3.840   5.073  0.5066  1.0517 -1.1407
   65MOL0     H 8519   8.757   3.966   5.292  1.6042 -1.2953 -0.1758
   65MOL0     H 8520   8.668   4.075   5.198  2.4432  3.3635  3.0389
   65MOL0     H 8521   8.851   4.151   5.061 -1.4629 -0.8744 -0.5705
   65MOL0     H 8522   8.956   4.034   5.141  0.6344  0.6586  1.4206
   65MOL0     H 8523   8.847   4.264   5.296  0.0345  0.4155 -0.0162
   65MOL0     H 8524   8.902   4.119   5.366 -0.9376  1.7347  1.4152
   65MOL0     H 8525   9.070   4.340   5.245  4.0624  0.9273 -1.2455
   65MOL0     H 8526   9.096   4.192   5.166 -4.9179 -0.0684 -1.7286
   65MOL0     H 8527   9.126   4.092   5.418  0.3502  0.1450 -0.0621
   65MOL0     H 8528   9.148   4.255   5.468  5.0313 -1.6648  2.4429
   65MOL0     H 8529   9.350   4.122   5.424  1.1734  0.9311  1.4419
   65MOL0     H 8530   9.303   4.114   5.254  0.6488 -0.4704  0.4042
   65MOL0     H 8531   9.329   4.363   5.239  0.4514 -1.1360 -1.2171
   65MOL0     H 8532   9.481   4.298   5.306  1.8344  2.4820  4.3309
   65MOL0     H 8533   9.510   4.325   5.595 -0.0244  0.8559  1.9125
   65MOL0     H 8534   9.326   4.599   5.811  0.1384  2.0886 -0.4002
   65MOL0     H 8535   9.501   4.613   5.774 -1.6747  2.6541 -3.3183
   65MOL0     H 8536   9.474   4.467   5.967 -0.4125 -1.5167 -0.1101
   65MOL0     H 8537   9.544   4.396   5.819  0.6018 -0.3343  2.1680
   65MOL0     H 8538   9.245   4.367   5.909  2.2770  2.8443  3.0143
   65MOL0     H 8539   9.317   4.294   5.763  0.0520  1.6627 -0.0880
   65MOL0     H 8540   9.300   4.134   5.959  1.1139 -0.4237 -0.5969
   65MOL0     H 8541   9.377   4.264   6.052  1.0707  1.6786 -0.6866
   65MOL0     H 8542   9.504   4.154   6.210  0.3051 -2.0686 -0.0570
   65MOL0     H 8543   9.672   4.258   6.339  1.6577 -0.3983  0.5869
   65MOL0     H 8544  10.107   4.593   6.134 -0.5317  1.1685  1.0966
   65MOL0     H 8545  10.269   4.749   6.252 -1.9605 -0.0207 -1.4741
   65MOL0     H 8546  10.572   4.561   6.437  0.3609 -1.2380  1.3424
   65MOL0     H 8547  10.507   4.588   6.603 -1.9894 -0.9600 -0.5582
   65MOL0     H 8548  10.586   4.827   6.587  0.6011  0.1713  0.5138
   65MOL0     H 8549  10.644   4.798   6.433  0.9871 -0.9868 -1.0383
   65MOL0     H 8550  10.788   4.594   6.549  0.5542  1.3481 -2.0147
   65MOL0     H 8551  10.726   4.679   6.698 -2.8605 -0.2846 -0.1044
   65MOL0     H 8552  10.833   4.883   6.581  0.8053  0.1096  0.4186
   65MOL0     H 8553  10.939   4.760   6.641  1.0426  2.2856 -0.3104
   65MOL0     H 8554  10.855   4.802   6.346  0.8423 -0.0886 -0.5748
   65MOL0     H 8555  10.948   4.669   6.404 -2.4153 -1.4637  4.1699
   65MOL0     H 8556  11.125   4.847   6.484  3.2190 -0.9710 -3.0623
   65MOL0     H 8557  11.028   4.970   6.389 -2.6523 -0.4122 -0.5286
   65MOL0     H 8558  11.171   4.729   6.283  1.3109  0.8208  2.0481
   65MOL0     H 8559  11.044   4.827   6.196  0.6145  1.9129 -0.9218
   65MOL0     H 8560  11.187   5.031   6.219  0.9198  0.0324 -0.7633
   65MOL0     H 8561  11.258   4.881   6.145 -2.0672 -2.3265  0.1682
   65MOL0     H 8562  10.355   4.432   6.525 -0.6309  1.3487  0.4362
   65MOL0     H 8563  10.178   4.287   6.422  2.9888 -0.5506 -0.3423
   65MOL0     H 8564   9.912   4.299   5.992 -0.1988 -0.5179 -0.2889
   65MOL0     H 8565   9.736   4.216   5.855  0.1739  0.4253 -0.3853
   65MOL0     H 8566   8.445   3.640   5.178 -1.1180  0.2432  0.2415
   65MOL0     H 8567   8.213   3.668   5.136 -0.1447 -1.3263 -3.4616
   65MOL0     H 8568   7.867   3.816   4.925  1.2635 -0.4047  0.4142
   65MOL0     H 8569   7.616   3.838   4.881 -1.9570  0.9420  1.9036
   65MOL0     H 8570   7.453   4.232   4.983  0.2597 -0.4508  0.4633
   65MOL0     H 8571   7.333   4.135   5.090 -2.3490  0.5681 -0.1502
   65MOL0     H 8572   7.204   4.248   4.923 -0.0454  0.3720 -0.1881
   65MOL0     H 8573   7.307   4.201   4.800  2.1153 -1.7188  2.0891
   65MOL0     H 8574   7.142   4.004   4.979  1.1090  3.3297  1.4782
   65MOL0     H 8575   7.223   3.943   4.845 -0.8702  0.8845 -0.8399
   65MOL0     H 8576   6.985   4.134   4.863 -1.8005 -1.4317  0.7434
   65MOL0     H 8577   7.085   4.128   4.719 -1.1341 -3.1780 -1.5504
   65MOL0     H 8578   6.867   3.763   4.692 -3.5876 -0.2995  1.6001
   65MOL0     H 8579   7.587   4.177   5.146  0.7498 -2.9756  5.6196
   65MOL0     H 8580   7.831   4.140   5.204 -0.7931  2.6593 -1.8630
   66MOL0     O 8581   6.837   8.524   2.281  0.1790  0.4357 -0.1641
   66MOL0     C 8582   6.855   8.477   2.389 -0.1494 -0.3311 -0.1476
   66MOL0     O 8583   6.754   8.448   2.478 -0.2909 -0.2304 -1.4655
   66MOL0     C 8584   6.626   8.491   2.455 -0.6390 -0.0264 -0.8524
   66MOL0     C 8585   6.559   8.593   2.525 -0.0042 -0.0547  0.3011
   66MOL0     C 8586   6.423   8.627   2.501 -0.3531 -0.6500  0.7582
   66MOL0     C 8587   6.347   8.549   2.413 -0.3400  0.3318 -0.0658
   66MOL0     O 8588   6.229   8.595   2.367  1.0085 -0.3539 -0.6051
   66MOL0     C 8589   6.118   8.509   2.398  0.2172 -0.2973 -0.4226
   66MOL0     C 8590   5.988   8.592   2.379 -0.4712 -0.5544 -0.1423
   66MOL0     C 8591   5.854   8.520   2.430  0.1709 -0.0504 -0.2286
   66MOL0     C 8592   5.738   8.625   2.422  0.3302 -0.0849 -0.1492
   66MOL0     C 8593   5.594   8.562   2.418  0.0373 -0.5572 -0.2456
   66MOL0     C 8594   5.562   8.506   2.285  0.5917  0.2226  1.1513
   66MOL0     C 8595   5.457   8.396   2.285  0.1945  0.2947  0.0192
   66MOL0     C 8596   5.315   8.464   2.320 -0.4522  1.1241  0.0367
   66MOL0     N 8597   5.200   8.397   2.259  0.4448  0.5627 -0.1945
   66MOL0     C 8598   5.096   8.344   2.319  0.0352  0.7532  0.1034
   66MOL0     C 8599   5.041   8.251   2.224 -0.1241  0.4296  0.0269
   66MOL0     C 8600   4.904   8.185   2.241  0.4566 -0.5565  0.3418
   66MOL0     C 8601   4.831   8.180   2.116  0.4364 -0.2824 -0.1115
   66MOL0     C 8602   4.784   8.319   2.076 -1.0756 -0.4078 -0.1411
   66MOL0     C 8603   4.720   8.309   1.940 -0.1077  0.3542 -0.7321
   66MOL0     O 8604   4.625   8.207   1.920 -0.1309 -0.5183 -0.6308
   66MOL0     C 8605   4.500   8.189   1.978 -0.9219  0.3758 -0.0671
   66MOL0     C 8606   4.432   8.285   2.046  0.0183  0.3058  0.0257
   66MOL0     C 8607   4.302   8.268   2.095  0.3063 -0.2778 -0.2979
   66MOL0     C 8608   4.244   8.141   2.094 -0.2260 -0.3867 -0.1681
   66MOL0     C 8609   4.116   8.119   2.176  0.0811  0.4717  0.8053
   66MOL0     O 8610   4.045   8.005   2.153  0.5905 -0.2661  0.1617
   66MOL0     C 8611   3.935   7.996   2.229 -0.1179 -0.3598  0.2700
   66MOL0     C 8612   3.814   8.070   2.209 -0.4638 -0.0719  0.2639
   66MOL0     C 8613   3.714   8.079   2.305  1.1612  0.5952  0.3933
   66MOL0     C 8614   3.718   7.991   2.412 -0.3284 -0.5267  0.3811
   66MOL0     O 8615   3.604   7.982   2.486 -0.5193 -0.3179 -0.4106
   66MOL0     C 8616   3.540   7.855   2.502 -0.8679  0.2188 -0.3535
   66MOL0     C 8617   3.389   7.868   2.541  0.1817  0.6539  0.4071
   66MOL0     C 8618   3.315   7.949   2.435 -0.0965 -0.1499 -0.0374
   66MOL0     C 8619   3.164   7.948   2.464 -0.4453 -1.0882 -0.5773
   66MOL0     C 8620   3.122   8.034   2.577  0.5155 -0.2244 -1.3811
   66MOL0     C 8621   3.150   8.184   2.554 -0.2013  0.3338 -1.0952
   66MOL0     C 8622   3.052   8.256   2.659 -0.2346 -0.6955 -0.4572
   66MOL0     C 8623   3.090   8.409   2.685 -0.0533  0.3156 -0.2214
   66MOL0    Cl 8624   3.055   8.437   2.844  0.7338  0.2774 -0.2879
   66MOL0     C 8625   3.831   7.909   2.430 -0.4098 -0.2996 -0.3837
   66MOL0     C 8626   3.935   7.918   2.348  0.4608  0.5998 -0.2170
   66MOL0     O 8627   4.090   8.207   2.254 -0.0247 -0.2604 -0.3130
   66MOL0     C 8628   4.324   8.038   2.035  0.3212 -0.5769  0.2413
   66MOL0     C 8629   4.447   8.069   1.977  0.4461  0.0482  0.1416
   66MOL0     N 8630   5.112   8.266   2.109 -0.3691 -0.3121 -0.3788
   66MOL0     N 8631   5.206   8.348   2.134 -0.7119 -0.1899  0.0161
   66MOL0     C 8632   6.414   8.444   2.345  0.1783  0.2407  0.1400
   66MOL0     C 8633   6.549   8.414   2.365 -0.2770  0.2335 -0.2621
   66MOL0     C 8634   6.999   8.465   2.434  0.1125 -0.3541  0.6171
   66MOL0     C 8635   7.095   8.539   2.364  0.3743 -0.1125  0.1402
   66MOL0     C 8636   7.228   8.527   2.409 -0.4513 -0.6927  1.1817
   66MOL0     C 8637   7.273   8.428   2.496 -0.0023 -0.3306 -0.4107
   66MOL0     O 8638   7.401   8.395   2.527  0.1283  0.2688 -0.3691
   66MOL0     C 8639   7.500   8.500   2.530  0.0009  0.0969  0.0730
   66MOL0     C 8640   7.641   8.443   2.521  0.6287 -0.5537  0.0248
   66MOL0     C 8641   7.675   8.383   2.383  0.1214  0.2172  0.3929
   66MOL0     C 8642   7.647   8.476   2.268  0.0730  0.5920 -0.1071
   66MOL0     C 8643   7.738   8.449   2.160 -0.2067  0.5750  0.6023
   66MOL0     C 8644   7.821   8.416   2.068 -0.4470 -0.0796 -0.5490
   66MOL0     C 8645   7.172   8.358   2.561  1.2918 -0.3030 -0.4551
   66MOL0     C 8646   7.039   8.369   2.524 -0.1704  0.4078 -0.2879
   66MOL0     H 8647   6.616   8.653   2.595 -0.3881  0.9146 -0.1927
   66MOL0     H 8648   6.378   8.720   2.534  0.6370  1.0765 -2.3550
   66MOL0     H 8649   6.137   8.470   2.498  3.3648  0.3102 -0.6562
   66MOL0     H 8650   6.109   8.428   2.325 -3.0494 -0.3116 -0.1317
   66MOL0     H 8651   5.979   8.613   2.272 -1.9797  0.1290  0.0891
   66MOL0     H 8652   6.003   8.686   2.433 -0.8621 -1.3378  1.3973
   66MOL0     H 8653   5.872   8.487   2.533  0.9490 -0.9936 -0.6419
   66MOL0     H 8654   5.846   8.429   2.370  1.6392 -1.4871  1.6318
   66MOL0     H 8655   5.748   8.692   2.507 -0.3348 -0.2211  0.0379
   66MOL0     H 8656   5.749   8.653   2.316  0.2462 -0.5461 -0.2830
   66MOL0     H 8657   5.516   8.634   2.445  0.2215 -0.7098  0.7472
   66MOL0     H 8658   5.579   8.488   2.497 -0.2078  0.0924  0.3313
   66MOL0     H 8659   5.655   8.465   2.244 -0.7944 -0.8241 -1.1602
   66MOL0     H 8660   5.548   8.586   2.211  2.2620  1.6664  2.3091
   66MOL0     H 8661   5.461   8.354   2.184 -4.6087  0.0701 -0.3033
   66MOL0     H 8662   5.479   8.322   2.362 -0.4460  0.0736 -0.0054
   66MOL0     H 8663   5.324   8.566   2.281  1.9269  0.8344 -0.3701
   66MOL0     H 8664   5.306   8.464   2.429 -0.0392 -1.3857  0.1496
   66MOL0     H 8665   5.058   8.369   2.417  2.4567 -0.0933  1.3386
   66MOL0     H 8666   4.859   8.245   2.321  2.3644 -0.6042  1.5380
   66MOL0     H 8667   4.925   8.085   2.278  3.4521 -0.6041 -1.1920
   66MOL0     H 8668   4.750   8.108   2.128  1.8325 -1.5023  3.0593
   66MOL0     H 8669   4.895   8.142   2.036 -0.9537  0.5405 -1.6815
   66MOL0     H 8670   4.723   8.362   2.156 -0.3797 -0.3599  0.3762
   66MOL0     H 8671   4.875   8.379   2.075  1.3688 -3.7807  0.6186
   66MOL0     H 8672   4.810   8.285   1.883  0.1016 -2.5050  0.5984
   66MOL0     H 8673   4.688   8.403   1.896  2.9516  0.3365 -3.2811
   66MOL0     H 8674   4.481   8.381   2.056  1.1898 -0.0704 -1.6325
   66MOL0     H 8675   4.246   8.347   2.144  0.4185 -1.7328  2.3717
   66MOL0     H 8676   3.814   8.139   2.125  0.0464 -0.3452  0.0374
   66MOL0     H 8677   3.635   8.153   2.298 -0.9034 -1.2380  2.5324
   66MOL0     H 8678   3.590   7.791   2.576 -2.8941 -1.3684 -0.2960
   66MOL0     H 8679   3.546   7.803   2.406  4.3950 -2.4403  1.0122
   66MOL0     H 8680   3.390   7.921   2.636  0.2049 -0.5499  1.0935
   66MOL0     H 8681   3.336   7.773   2.556 -0.5085  0.6471 -1.7007
   66MOL0     H 8682   3.336   7.904   2.337  2.7026  1.7649 -0.4339
   66MOL0     H 8683   3.351   8.052   2.431 -3.3183  1.1337  0.5864
   66MOL0     H 8684   3.117   7.986   2.373  2.4353  2.6615 -0.7414
   66MOL0     H 8685   3.136   7.843   2.475 -0.6669 -1.1161 -1.3172
   66MOL0     H 8686   3.175   7.995   2.665 -0.5494 -0.4652 -0.8240
   66MOL0     H 8687   3.016   8.009   2.579  0.5636 -0.4442  0.6412
   66MOL0     H 8688   3.132   8.227   2.455 -1.2873  2.6148  0.0149
   66MOL0     H 8689   3.255   8.208   2.575 -1.0127  0.7381  3.2983
   66MOL0     H 8690   2.952   8.252   2.615 -2.0735  2.1527  2.9086
   66MOL0     H 8691   3.058   8.213   2.759  4.9186  0.9171  0.2051
   66MOL0     H 8692   3.030   8.465   2.612  0.9166 -1.8823 -2.8684
   66MOL0     H 8693   3.196   8.431   2.671 -0.1098  0.4134 -0.5082
   66MOL0     H 8694   3.823   7.852   2.522 -1.3777  0.5112  0.0626
   66MOL0     H 8695   4.025   7.864   2.379  1.1802  1.5782 -0.5649
   66MOL0     H 8696   4.285   7.938   2.022  0.0263 -0.5470  0.8522
   66MOL0     H 8697   4.512   7.994   1.934 -0.8494  0.0707 -1.9962
   66MOL0     H 8698   6.362   8.380   2.275 -0.4312 -0.2147  0.9934
   66MOL0     H 8699   6.582   8.331   2.303 -0.9997  0.9706 -1.7073
   66MOL0     H 8700   7.062   8.618   2.297  0.3107  0.2548  0.6008
   66MOL0     H 8701   7.304   8.594   2.369 -0.8425 -0.5966  0.5905
   66MOL0     H 8702   7.483   8.526   2.635  1.8753 -3.0673  1.3117
   66MOL0     H 8703   7.476   8.578   2.457 -1.6049  0.5686  1.0698
   66MOL0     H 8704   7.722   8.514   2.541  0.8519 -1.2566  1.8820
   66MOL0     H 8705   7.654   8.375   2.606 -1.4811 -1.5712 -0.4057
   66MOL0     H 8706   7.612   8.295   2.367  0.5614  0.2736 -2.1988
   66MOL0     H 8707   7.779   8.351   2.375  0.1283 -0.1064  1.6905
   66MOL0     H 8708   7.539   8.479   2.251 -0.1311 -0.2444  0.9857
   66MOL0     H 8709   7.676   8.579   2.291  0.5537  0.4222  0.0565
   66MOL0     H 8710   7.899   8.399   1.996 -2.4883  1.4594 -3.3002
   66MOL0     H 8711   7.189   8.282   2.637  0.1730 -0.3571 -0.2492
   66MOL0     H 8712   6.966   8.308   2.577 -1.1620  2.0885  0.3582
   67MOL0     O 8713   8.037   7.349   3.716 -0.2105  0.1948 -0.6276
   67MOL0     C 8714   7.998   7.235   3.682 -0.5097 -1.8711  0.1392
   67MOL0     O 8715   7.890   7.177   3.734  1.1038  0.2543 -0.2145
   67MOL0     C 8716   7.815   7.232   3.838  0.6844  0.3242  0.1297
   67MOL0     C 8717   7.681   7.260   3.829  1.0998  0.1229 -0.1228
   67MOL0     C 8718   7.598   7.288   3.940  0.4476  0.2617  0.8235
   67MOL0     C 8719   7.654   7.301   4.065 -0.4048  0.0429  0.7017
   67MOL0     O 8720   7.576   7.321   4.175 -0.2366 -0.2738 -0.3476
   67MOL0     C 8721   7.578   7.453   4.214 -0.2210  0.1288  0.5979
   67MOL0     C 8722   7.513   7.456   4.352 -0.5532 -0.5028  0.2039
   67MOL0     C 8723   7.367   7.410   4.330 -0.3591 -0.9934 -0.2149
   67MOL0     C 8724   7.274   7.463   4.448 -0.3392 -0.6159  0.0977
   67MOL0     C 8725   7.123   7.453   4.418 -1.1282  0.8948 -0.4264
   67MOL0     C 8726   7.043   7.518   4.525 -1.1984  0.4481  0.6316
   67MOL0     C 8727   6.921   7.432   4.555 -0.5458  0.2748 -0.4077
   67MOL0     C 8728   6.847   7.465   4.685  0.5474 -1.2155 -0.1732
   67MOL0     N 8729   6.713   7.399   4.697 -0.7951  0.6905 -0.8611
   67MOL0     C 8730   6.697   7.266   4.715 -0.4564  0.6105  0.0253
   67MOL0     C 8731   6.564   7.244   4.737 -0.3489 -0.7507  1.1259
   67MOL0     C 8732   6.494   7.113   4.755 -0.3069  0.9173 -0.3576
   67MOL0     C 8733   6.370   7.131   4.842  1.3607  0.1417 -0.2195
   67MOL0     C 8734   6.392   7.156   4.987  1.0749  0.1883  0.2711
   67MOL0     C 8735   6.257   7.147   5.068 -0.2629  0.3344 -0.3334
   67MOL0     O 8736   6.192   7.269   5.040  0.9326  0.2557 -0.2045
   67MOL0     C 8737   6.105   7.306   5.136  0.8588  0.2754 -0.6314
   67MOL0     C 8738   6.039   7.222   5.235 -0.3848 -1.0139  0.3980
   67MOL0     C 8739   5.979   7.272   5.352  0.4540 -0.0333  0.9306
   67MOL0     C 8740   5.953   7.409   5.364  0.9760 -0.5038  0.2261
   67MOL0     C 8741   5.875   7.461   5.474  0.5756 -0.0451  0.9678
   67MOL0     O 8742   5.878   7.594   5.485 -0.1702 -0.7936  0.2032
   67MOL0     C 8743   5.779   7.645   5.560  0.7639 -0.3322 -0.5847
   67MOL0     C 8744   5.640   7.650   5.533  0.3147  0.4001  0.7455
   67MOL0     C 8745   5.549   7.695   5.621  1.1632  0.9823 -0.5361
   67MOL0     C 8746   5.580   7.741   5.742  0.0968  0.8376 -1.1281
   67MOL0     O 8747   5.482   7.774   5.822 -1.0079 -0.1235 -0.5791
   67MOL0     C 8748   5.489   7.784   5.966 -0.1479 -0.4080  0.4618
   67MOL0     C 8749   5.353   7.843   6.011 -0.3469  1.1333  0.2700
   67MOL0     C 8750   5.247   7.732   6.020 -0.2947 -0.3470  0.0234
   67MOL0     C 8751   5.103   7.780   6.064  0.1765 -0.5948  0.7952
   67MOL0     C 8752   5.007   7.661   6.087  0.0223 -0.2906 -0.3460
   67MOL0     C 8753   4.863   7.711   6.123 -0.4566 -1.0036 -0.1263
   67MOL0     C 8754   4.848   7.764   6.261 -0.4452 -1.0365 -0.5928
   67MOL0     C 8755   4.701   7.749   6.322  0.4751  0.2459  0.3585
   67MOL0    Cl 8756   4.589   7.816   6.219  0.1921  0.0096 -0.3272
   67MOL0     C 8757   5.719   7.743   5.776  0.0672 -0.5596 -0.1891
   67MOL0     C 8758   5.820   7.692   5.685 -0.4277 -0.4091 -0.1015
   67MOL0     O 8759   5.824   7.385   5.549  0.3576  0.0429  0.9174
   67MOL0     C 8760   6.007   7.489   5.258  0.1754  0.1202  0.6849
   67MOL0     C 8761   6.083   7.442   5.153 -0.4152  0.7013  0.1742
   67MOL0     N 8762   6.501   7.364   4.744  0.4776  0.3648  1.1225
   67MOL0     N 8763   6.590   7.454   4.720 -0.0495 -0.3745  0.2374
   67MOL0     C 8764   7.794   7.301   4.076  0.6650  0.3529 -0.3840
   67MOL0     C 8765   7.873   7.260   3.965 -0.6541  0.1801 -0.2992
   67MOL0     C 8766   8.067   7.158   3.571 -0.3042 -0.0842  0.3481
   67MOL0     C 8767   8.003   7.040   3.518 -1.2292 -0.1728 -0.0062
   67MOL0     C 8768   8.064   6.981   3.411 -0.4154  0.5622 -0.0424
   67MOL0     C 8769   8.187   7.023   3.361 -0.2134  0.1792 -0.0913
   67MOL0     O 8770   8.233   6.941   3.265 -0.0185 -0.4648  0.7877
   67MOL0     C 8771   8.374   6.899   3.279 -0.4650 -0.7176  0.3032
   67MOL0     C 8772   8.398   6.839   3.410 -0.3624 -0.4622  0.3965
   67MOL0     C 8773   8.311   6.711   3.416 -0.3203  0.0170 -0.9003
   67MOL0     C 8774   8.324   6.661   3.566  0.2646 -0.2841  0.3119
   67MOL0     C 8775   8.463   6.623   3.600  0.0001  0.5666  0.0114
   67MOL0     C 8776   8.579   6.595   3.638  0.1744  0.1285  0.2476
   67MOL0     C 8777   8.252   7.146   3.412  0.1422  1.0120  0.4850
   67MOL0     C 8778   8.190   7.210   3.515 -0.4693  0.0465  0.4241
   67MOL0     H 8779   7.622   7.227   3.743 -0.5903 -3.2335  2.1209
   67MOL0     H 8780   7.490   7.276   3.936  0.5632 -1.7891 -4.4092
   67MOL0     H 8781   7.519   7.516   4.146 -2.9627 -1.8956  0.9463
   67MOL0     H 8782   7.682   7.489   4.216  0.1701 -0.9349  2.8571
   67MOL0     H 8783   7.514   7.561   4.384 -0.7077  0.9499 -3.8990
   67MOL0     H 8784   7.557   7.390   4.428 -1.8591 -0.6597  0.8466
   67MOL0     H 8785   7.356   7.301   4.332 -0.8199 -0.9739  2.6211
   67MOL0     H 8786   7.333   7.459   4.239  0.6100 -3.5089 -2.0349
   67MOL0     H 8787   7.293   7.404   4.539 -0.7029 -0.5142  0.2380
   67MOL0     H 8788   7.288   7.570   4.463 -2.5554  0.3474 -3.4804
   67MOL0     H 8789   7.106   7.346   4.404  2.8557  0.0056  0.4639
   67MOL0     H 8790   7.095   7.510   4.329  0.9408  5.3558  1.4846
   67MOL0     H 8791   7.002   7.617   4.504 -0.4578  1.0142  1.7048
   67MOL0     H 8792   7.110   7.534   4.610 -0.5043 -0.1989  0.2194
   67MOL0     H 8793   6.847   7.456   4.477 -0.1277  2.3824 -0.2007
   67MOL0     H 8794   6.949   7.326   4.560 -0.2264  0.3504 -0.6188
   67MOL0     H 8795   6.815   7.569   4.682  0.2713 -1.1266  2.7830
   67MOL0     H 8796   6.908   7.433   4.770  1.1347 -2.3828 -1.0065
   67MOL0     H 8797   6.770   7.187   4.709  0.1425  1.1449  0.1173
   67MOL0     H 8798   6.566   7.045   4.802 -1.5282  1.9898  3.4260
   67MOL0     H 8799   6.453   7.091   4.656 -0.3992  0.7363 -0.2787
   67MOL0     H 8800   6.310   7.039   4.841 -0.3042  1.1626  0.1849
   67MOL0     H 8801   6.304   7.205   4.796  0.1362 -2.1499 -2.4409
   67MOL0     H 8802   6.456   7.074   5.023  0.7361 -2.6976 -4.7090
   67MOL0     H 8803   6.441   7.251   5.010  0.0162  0.3868  1.8498
   67MOL0     H 8804   6.282   7.137   5.174  0.0721 -0.2405 -0.4596
   67MOL0     H 8805   6.195   7.061   5.038 -0.7435  0.9664 -1.1605
   67MOL0     H 8806   6.036   7.114   5.222 -2.0599 -0.7670 -1.8570
   67MOL0     H 8807   5.957   7.202   5.432  0.1616  2.6204  3.3568
   67MOL0     H 8808   5.594   7.611   5.444 -1.3691  0.5803  1.4990
   67MOL0     H 8809   5.446   7.693   5.588  0.9789 -3.0270 -0.1647
   67MOL0     H 8810   5.568   7.858   5.984  1.6205 -1.9526 -0.5382
   67MOL0     H 8811   5.513   7.691   6.018  4.2566  1.5195  2.4461
   67MOL0     H 8812   5.320   7.919   5.940 -1.0652  0.8573  0.3030
   67MOL0     H 8813   5.370   7.864   6.117  2.1107 -1.5241  0.5156
   67MOL0     H 8814   5.292   7.655   6.084  1.7642 -0.6572 -1.7098
   67MOL0     H 8815   5.253   7.686   5.921 -0.7501  0.0908 -0.2138
   67MOL0     H 8816   5.104   7.838   6.156 -1.5715 -0.8317  1.0054
   67MOL0     H 8817   5.057   7.841   5.985 -0.3244 -2.3542 -0.3450
   67MOL0     H 8818   5.056   7.595   6.160 -1.4834  0.0117  0.9836
   67MOL0     H 8819   5.000   7.603   5.994  1.6714 -0.4517 -0.3955
   67MOL0     H 8820   4.793   7.627   6.116 -3.2199  1.1859 -1.0226
   67MOL0     H 8821   4.825   7.787   6.054 -0.5358  0.4384  1.4387
   67MOL0     H 8822   4.921   7.705   6.316  1.7745 -0.3580 -2.6245
   67MOL0     H 8823   4.870   7.870   6.269  0.1607 -1.2470  0.8081
   67MOL0     H 8824   4.694   7.806   6.415  0.6065 -0.5750  0.8741
   67MOL0     H 8825   4.664   7.648   6.339  1.2197  0.1435  1.4912
   67MOL0     H 8826   5.750   7.772   5.876 -0.3660  1.9962 -0.7443
   67MOL0     H 8827   5.927   7.691   5.700 -0.2943 -1.3668 -1.0059
   67MOL0     H 8828   5.992   7.596   5.253 -0.8029 -0.0318  0.0012
   67MOL0     H 8829   6.129   7.513   5.085  0.6888  1.3696  1.5513
   67MOL0     H 8830   7.841   7.313   4.173  1.3852 -0.2755 -0.6422
   67MOL0     H 8831   7.982   7.259   3.972 -0.4647  1.5317 -2.3416
   67MOL0     H 8832   7.909   6.997   3.552 -0.8866 -0.7303  0.2619
   67MOL0     H 8833   8.018   6.893   3.367  2.0939 -1.7968  1.7163
   67MOL0     H 8834   8.429   6.990   3.254 -2.0937  0.3647  0.4924
   67MOL0     H 8835   8.392   6.832   3.195 -0.9126  0.3265 -0.6548
   67MOL0     H 8836   8.503   6.808   3.397  0.0684  1.6442 -1.8593
   67MOL0     H 8837   8.379   6.908   3.493  0.8860 -0.6269  0.8446
   67MOL0     H 8838   8.348   6.627   3.355  0.7931  0.8751 -1.4575
   67MOL0     H 8839   8.207   6.719   3.385 -0.3143 -0.5291 -1.0725
   67MOL0     H 8840   8.301   6.734   3.644  3.4637  0.6685  0.5109
   67MOL0     H 8841   8.267   6.568   3.570 -0.2263  0.0528  1.5938
   67MOL0     H 8842   8.677   6.564   3.669 -0.4608  0.4855  2.8563
   67MOL0     H 8843   8.339   7.200   3.376 -1.0606  3.0933  0.4919
   67MOL0     H 8844   8.243   7.301   3.541 -2.2209  0.5544  2.4907
   68MOL0     O 8845   0.556   2.345   0.482 -0.1369 -0.3363  0.1198
   68MOL0     C 8846   0.575   2.301   0.371  0.7488  1.6283  0.2929
   68MOL0     O 8847   0.694   2.243   0.328 -0.1632 -0.2617 -0.7763
   68MOL0     C 8848   0.792   2.230   0.426  0.0381  0.8283 -0.2265
   68MOL0     C 8849   0.785   2.113   0.503  1.2231 -0.5463 -0.2779
   68MOL0     C 8850   0.879   2.082   0.606 -0.8203  1.0279  0.3434
   68MOL0     C 8851   0.985   2.172   0.625 -0.4971  0.5126 -0.6389
   68MOL0     O 8852   1.093   2.149   0.717  0.0876 -0.1054  0.1913
   68MOL0     C 8853   1.081   2.043   0.811 -0.6301 -0.3713 -0.2728
   68MOL0     C 8854   1.203   2.058   0.898 -0.5830  0.6207 -0.1783
   68MOL0     C 8855   1.189   2.150   1.013 -0.5304  0.8159  1.3986
   68MOL0     C 8856   1.327   2.218   1.076  0.4861 -1.0818 -0.0486
   68MOL0     C 8857   1.410   2.294   0.977 -0.1153 -0.4594 -0.6245
   68MOL0     C 8858   1.335   2.409   0.908  0.4758 -0.0625 -0.7928
   68MOL0     C 8859   1.433   2.481   0.822 -0.0261 -0.0772 -0.6286
   68MOL0     C 8860   1.381   2.619   0.779  0.2378 -1.3291 -0.1366
   68MOL0     N 8861   1.261   2.618   0.685  0.0586  0.1534  0.9202
   68MOL0     C 8862   1.166   2.719   0.700  0.3294  0.0124 -0.0052
   68MOL0     C 8863   1.109   2.717   0.582  0.5637  0.0848  0.3361
   68MOL0     C 8864   0.995   2.807   0.546  0.4773  0.9835 -0.1476
   68MOL0     C 8865   0.865   2.715   0.570  0.1703  0.0968  0.8988
   68MOL0     C 8866   0.738   2.794   0.551  0.0634 -0.2675 -0.1879
   68MOL0     C 8867   0.616   2.716   0.561  0.9032  0.1603 -0.7597
   68MOL0     O 8868   0.503   2.778   0.499 -0.5046 -0.0788 -0.3911
   68MOL0     C 8869   0.385   2.707   0.522  0.3419 -0.3799 -0.5405
   68MOL0     C 8870   0.373   2.604   0.614  0.6333  0.6686 -0.6968
   68MOL0     C 8871   0.244   2.539   0.632 -0.3182 -0.8132 -0.2036
   68MOL0     C 8872   0.137   2.581   0.552 -0.1394 -0.0672 -1.0629
   68MOL0     C 8873   0.008   2.512   0.566  0.6725 -0.0505  1.0684
   68MOL0     O 8874  -0.106   2.571   0.512  0.1795 -0.4754 -0.5423
   68MOL0     C 8875  -0.217   2.492   0.493 -0.4317  0.8339  0.1366
   68MOL0     C 8876  -0.208   2.394   0.390  0.4198  0.4318 -0.0219
   68MOL0     C 8877  -0.301   2.289   0.379 -0.4493 -0.1380  0.2318
   68MOL0     C 8878  -0.409   2.281   0.464  0.0131  0.1636  0.2782
   68MOL0     O 8879  -0.512   2.193   0.423  0.1015  0.5294  0.3082
   68MOL0     C 8880  -0.652   2.212   0.475  0.3317  0.5162  0.3672
   68MOL0     C 8881  -0.725   2.320   0.403  0.0454 -0.6505 -0.4185
   68MOL0     C 8882  -0.831   2.397   0.478 -0.2181  0.1888  0.1833
   68MOL0     C 8883  -0.918   2.494   0.396  0.1659  0.7339  0.0978
   68MOL0     C 8884  -1.002   2.578   0.493 -0.7947  0.2295 -0.9190
   68MOL0     C 8885  -1.063   2.695   0.418  0.7497 -0.3924  0.1548
   68MOL0     C 8886  -1.113   2.800   0.515  0.2099 -0.9591 -0.4056
   68MOL0     C 8887  -1.269   2.778   0.532  0.1172 -0.5558  1.1172
   68MOL0    Cl 8888  -1.335   2.912   0.636 -0.1121 -0.1723  0.2034
   68MOL0     C 8889  -0.423   2.374   0.561 -0.6610 -1.0314  0.1577
   68MOL0     C 8890  -0.324   2.475   0.586 -0.5980 -0.5436  0.0780
   68MOL0     O 8891   0.014   2.390   0.599 -0.7362  0.0875 -0.2937
   68MOL0     C 8892   0.148   2.691   0.465 -0.1031 -0.1996  0.0471
   68MOL0     C 8893   0.272   2.761   0.460 -0.3751  0.1508  0.4313
   68MOL0     N 8894   1.156   2.620   0.499  0.2449 -0.2265 -0.0170
   68MOL0     N 8895   1.255   2.561   0.553  0.3414 -0.7788 -0.4903
   68MOL0     C 8896   0.997   2.284   0.545  0.2967  0.3746 -1.0780
   68MOL0     C 8897   0.896   2.319   0.448  0.6046  0.0428 -0.1896
   68MOL0     C 8898   0.459   2.297   0.284 -0.8394  0.4392 -0.3830
   68MOL0     C 8899   0.336   2.371   0.316 -0.4466  0.2952 -0.7636
   68MOL0     C 8900   0.222   2.369   0.229  0.2248  0.1722  0.0961
   68MOL0     C 8901   0.218   2.270   0.121  0.5502 -0.7264 -0.3465
   68MOL0     O 8902   0.098   2.268   0.061  0.2605  0.4176  0.2873
   68MOL0     C 8903   0.051   2.158  -0.025 -0.0139 -0.9838 -0.7500
   68MOL0     C 8904  -0.083   2.208  -0.096 -0.0515 -0.1533 -0.4188
   68MOL0     C 8905  -0.199   2.251   0.000  0.1335  0.4580 -0.2756
   68MOL0     C 8906  -0.333   2.293  -0.067 -0.7800 -0.8556 -0.6562
   68MOL0     C 8907  -0.399   2.191  -0.139 -0.2443  0.4781  0.1033
   68MOL0     C 8908  -0.478   2.112  -0.193 -0.8683  0.0053  0.1968
   68MOL0     C 8909   0.331   2.197   0.088  0.3528 -0.1044  1.2361
   68MOL0     C 8910   0.444   2.213   0.171  0.1106  1.2135 -0.7157
   68MOL0     H 8911   0.708   2.041   0.479  1.0596  0.5870 -3.7511
   68MOL0     H 8912   0.866   2.001   0.676  1.5936  2.5380  2.7622
   68MOL0     H 8913   1.084   1.939   0.776  0.9763 -1.1478  1.9187
   68MOL0     H 8914   0.989   2.061   0.867 -2.5900  1.0228 -3.6628
   68MOL0     H 8915   1.286   2.089   0.834 -0.6331 -0.5402 -0.8178
   68MOL0     H 8916   1.223   1.960   0.941 -1.9456 -0.7385 -2.4770
   68MOL0     H 8917   1.150   2.081   1.089  2.3221 -1.4428  0.9984
   68MOL0     H 8918   1.121   2.233   0.991 -1.5032 -0.7653 -2.2023
   68MOL0     H 8919   1.287   2.283   1.154 -1.9033 -0.5143 -1.6422
   68MOL0     H 8920   1.387   2.136   1.116  1.1280 -1.6958 -2.1420
   68MOL0     H 8921   1.459   2.224   0.908  4.3775  1.0854  0.6241
   68MOL0     H 8922   1.494   2.336   1.033  1.9502 -2.8145 -1.7360
   68MOL0     H 8923   1.274   2.469   0.975 -0.2611  1.6246 -2.8488
   68MOL0     H 8924   1.262   2.365   0.839 -1.5515  1.0860  0.5106
   68MOL0     H 8925   1.524   2.499   0.882 -0.4017  0.2795 -0.1559
   68MOL0     H 8926   1.452   2.418   0.735 -0.2407  2.0075 -2.2721
   68MOL0     H 8927   1.462   2.660   0.718 -1.8200  1.2710 -1.3135
   68MOL0     H 8928   1.361   2.683   0.866  0.3009 -0.1159 -0.9930
   68MOL0     H 8929   1.155   2.789   0.782  1.9576  0.5622 -0.2298
   68MOL0     H 8930   0.989   2.843   0.443  0.3547 -0.4698 -0.6709
   68MOL0     H 8931   0.995   2.892   0.614  0.9269  0.2024  0.8643
   68MOL0     H 8932   0.862   2.680   0.674 -0.8616 -1.4642  0.3839
   68MOL0     H 8933   0.861   2.616   0.523 -0.0504 -0.2463  1.6286
   68MOL0     H 8934   0.745   2.888   0.607  0.6299  0.3442 -1.2413
   68MOL0     H 8935   0.736   2.821   0.444  0.9930 -1.7437 -0.6043
   68MOL0     H 8936   0.596   2.699   0.667  4.5029 -3.6400 -0.4008
   68MOL0     H 8937   0.618   2.621   0.507 -0.5116  1.4959 -3.3586
   68MOL0     H 8938   0.447   2.559   0.680 -3.4923 -2.6854  2.2614
   68MOL0     H 8939   0.243   2.455   0.701  0.5659  0.0001  0.8449
   68MOL0     H 8940  -0.129   2.404   0.317  0.3388  0.9987 -0.0376
   68MOL0     H 8941  -0.314   2.205   0.312 -4.5333 -0.6440  1.3789
   68MOL0     H 8942  -0.662   2.222   0.584 -1.5219  1.4752  0.1383
   68MOL0     H 8943  -0.698   2.117   0.450  0.2529  0.4308  0.8351
   68MOL0     H 8944  -0.763   2.277   0.310  1.1694  1.6344 -2.0173
   68MOL0     H 8945  -0.645   2.391   0.380 -0.4820  1.1702  2.7553
   68MOL0     H 8946  -0.790   2.455   0.562 -1.4784  1.2285  0.1251
   68MOL0     H 8947  -0.898   2.329   0.532  0.5149 -0.6871  0.0082
   68MOL0     H 8948  -0.863   2.560   0.329 -0.8964 -0.5217 -2.1530
   68MOL0     H 8949  -0.983   2.424   0.342 -1.8493  0.2286  2.9719
   68MOL0     H 8950  -0.934   2.619   0.568 -0.5876 -0.6019 -0.6348
   68MOL0     H 8951  -1.073   2.527   0.560  1.6280  3.1927  4.6075
   68MOL0     H 8952  -1.135   2.654   0.347  1.1583  0.2173 -0.6362
   68MOL0     H 8953  -0.982   2.743   0.361 -1.6275 -0.6620 -3.8642
   68MOL0     H 8954  -1.077   2.779   0.616 -1.2681 -4.7540 -0.5060
   68MOL0     H 8955  -1.093   2.903   0.482 -5.0918  0.9217  1.2190
   68MOL0     H 8956  -1.301   2.684   0.579 -0.2558 -0.4611  1.0546
   68MOL0     H 8957  -1.317   2.785   0.434  1.6358 -0.9803  0.3127
   68MOL0     H 8958  -0.519   2.381   0.613 -3.8284  0.2289 -5.1276
   68MOL0     H 8959  -0.337   2.547   0.665  1.2897  0.1686 -0.2043
   68MOL0     H 8960   0.072   2.733   0.400  1.0021 -1.0097 -1.8709
   68MOL0     H 8961   0.269   2.848   0.396 -3.0947  0.2528  0.5678
   68MOL0     H 8962   1.088   2.342   0.557  2.4670 -2.4789 -2.5482
   68MOL0     H 8963   0.898   2.417   0.401 -0.9245  1.1572  1.9052
   68MOL0     H 8964   0.334   2.428   0.408 -0.7831 -1.1548  0.1667
   68MOL0     H 8965   0.136   2.434   0.245  0.2405 -0.0028  0.9348
   68MOL0     H 8966   0.040   2.077   0.048  2.7676 -1.4972 -0.8010
   68MOL0     H 8967   0.121   2.125  -0.102 -2.9110 -2.1479 -3.0531
   68MOL0     H 8968  -0.057   2.289  -0.166 -5.3939  0.4967 -2.1228
   68MOL0     H 8969  -0.115   2.127  -0.162  3.7540 -1.5039 -0.8800
   68MOL0     H 8970  -0.165   2.325   0.073  2.1165  2.2592 -2.8133
   68MOL0     H 8971  -0.222   2.156   0.049 -2.5463  0.7454 -0.8075
   68MOL0     H 8972  -0.402   2.331   0.008  2.4192  1.3235  1.4792
   68MOL0     H 8973  -0.310   2.359  -0.152  1.2013  0.6708  0.9577
   68MOL0     H 8974  -0.540   2.046  -0.251 -2.5775 -0.9795  2.9483
   68MOL0     H 8975   0.332   2.125   0.007  1.1567  1.7787 -0.5098
   68MOL0     H 8976   0.529   2.151   0.143 -0.7549  0.8707 -2.8027
   69MOL0     O 8977   3.467   7.908   8.370 -0.0552  1.2340 -0.2100
   69MOL0     C 8978   3.409   8.002   8.432 -0.5189  0.0338 -0.3774
   69MOL0     O 8979   3.283   8.006   8.490  0.4803  0.3151  0.3879
   69MOL0     C 8980   3.212   7.880   8.491  0.1477 -0.0152  0.6719
   69MOL0     C 8981   3.073   7.878   8.466 -0.5805 -0.4514 -0.2018
   69MOL0     C 8982   2.999   7.767   8.476  0.2001 -0.1014 -0.4847
   69MOL0     C 8983   3.051   7.645   8.519  0.7524 -0.3881  1.0096
   69MOL0     O 8984   2.961   7.546   8.527 -0.1147  0.5788  0.4775
   69MOL0     C 8985   3.016   7.419   8.563  0.0540  0.3207  0.1010
   69MOL0     C 8986   2.902   7.320   8.592  0.4155  0.7799  0.2477
   69MOL0     C 8987   2.810   7.295   8.472  0.2181  0.1704 -0.4528
   69MOL0     C 8988   2.678   7.246   8.538 -0.6407  0.7149 -0.0075
   69MOL0     C 8989   2.560   7.254   8.440 -1.1307  0.5188  0.0754
   69MOL0     C 8990   2.534   7.125   8.378 -0.2815 -0.3591  0.6296
   69MOL0     C 8991   2.411   7.113   8.283  0.2793 -0.5795  0.5558
   69MOL0     C 8992   2.269   7.115   8.338  0.8228  0.2195 -0.1490
   69MOL0     N 8993   2.160   7.101   8.228 -0.7991 -0.0560 -0.9556
   69MOL0     C 8994   2.124   6.988   8.164 -0.4462 -0.4708 -0.3024
   69MOL0     C 8995   2.039   7.031   8.071 -0.4688 -0.4216  0.0684
   69MOL0     C 8996   1.993   6.956   7.952  0.7287  0.1240  0.2023
   69MOL0     C 8997   1.849   6.901   7.963  0.3379 -0.7689 -0.4793
   69MOL0     C 8998   1.747   6.990   7.885  0.0390 -0.3395 -0.3883
   69MOL0     C 8999   1.669   7.081   7.983 -0.6403 -0.7254 -0.3895
   69MOL0     O 9000   1.543   7.117   7.931 -0.0357  0.0248  0.0138
   69MOL0     C 9001   1.441   7.031   7.964  0.5076  0.2281  0.3046
   69MOL0     C 9002   1.444   6.895   8.003 -0.4792 -0.2082 -0.7577
   69MOL0     C 9003   1.333   6.824   8.047 -0.0408 -0.5864 -0.9613
   69MOL0     C 9004   1.204   6.885   8.039 -0.2233  0.4927  0.6670
   69MOL0     C 9005   1.085   6.801   8.068  0.2257  0.1113  0.3034
   69MOL0     O 9006   0.973   6.868   8.061  0.4860  0.3549 -0.3803
   69MOL0     C 9007   0.858   6.814   8.107 -0.9193  0.7327 -0.4554
   69MOL0     C 9008   0.755   6.790   8.020  0.1315 -0.1164 -0.3397
   69MOL0     C 9009   0.625   6.759   8.052 -0.1121 -0.0080 -1.2230
   69MOL0     C 9010   0.596   6.741   8.187  0.3026 -0.5696 -0.6487
   69MOL0     O 9011   0.474   6.697   8.227 -0.6299  0.6132 -0.0011
   69MOL0     C 9012   0.360   6.781   8.177 -1.3558  0.3580 -1.1599
   69MOL0     C 9013   0.379   6.929   8.201  0.3849  0.4284 -0.0961
   69MOL0     C 9014   0.246   6.994   8.164  0.2737  0.1840  0.5224
   69MOL0     C 9015   0.253   7.147   8.157  0.4097  0.1228 -0.0916
   69MOL0     C 9016   0.115   7.214   8.170  0.6435  0.1163 -0.1574
   69MOL0     C 9017   0.104   7.363   8.135  1.1736 -0.4114  0.0072
   69MOL0     C 9018  -0.049   7.404   8.150 -0.1408  0.1220  0.5124
   69MOL0     C 9019  -0.117   7.367   8.283 -0.5461  0.1822 -1.0678
   69MOL0    Cl 9020  -0.283   7.434   8.267 -0.0716 -0.0819  0.1715
   69MOL0     C 9021   0.700   6.749   8.280 -0.5964 -0.7887 -0.3064
   69MOL0     C 9022   0.827   6.792   8.244 -0.1989  0.0803 -1.0170
   69MOL0     O 9023   1.096   6.688   8.113  1.1964  0.0903 -0.3977
   69MOL0     C 9024   1.199   7.006   7.969  0.3317 -0.6309  0.7537
   69MOL0     C 9025   1.318   7.073   7.931 -0.8218  0.1460 -0.0022
   69MOL0     N 9026   2.015   7.162   8.086  0.4262 -0.0225 -0.0386
   69MOL0     N 9027   2.099   7.211   8.170 -0.2718  0.0864  0.8002
   69MOL0     C 9028   3.192   7.640   8.549  0.5474 -0.5233  0.6349
   69MOL0     C 9029   3.273   7.754   8.537  0.4433 -0.9727  0.4656
   69MOL0     C 9030   3.494   8.123   8.464 -0.5259 -0.2232 -0.3810
   69MOL0     C 9031   3.613   8.143   8.392  0.8855 -0.2006 -0.6179
   69MOL0     C 9032   3.693   8.261   8.408 -0.1326  0.4082  0.6511
   69MOL0     C 9033   3.636   8.374   8.477  0.1130 -0.4514  0.6051
   69MOL0     O 9034   3.709   8.487   8.471  0.0900  0.4112  0.9912
   69MOL0     C 9035   3.649   8.618   8.507  0.1774  1.1602  0.3110
   69MOL0     C 9036   3.603   8.701   8.387 -0.0532  0.2933 -0.0007
   69MOL0     C 9037   3.713   8.719   8.287 -1.0577 -0.4616  0.4853
   69MOL0     C 9038   3.821   8.813   8.341  0.4043  0.2674  0.3947
   69MOL0     C 9039   3.898   8.877   8.230  0.8211 -0.8110 -0.3719
   69MOL0     C 9040   3.954   8.916   8.131  0.0906 -0.0875  0.2495
   69MOL0     C 9041   3.517   8.362   8.537 -0.4427  0.2182 -0.4459
   69MOL0     C 9042   3.448   8.244   8.533  0.4219  1.3144  0.6793
   69MOL0     H 9043   3.020   7.967   8.431 -3.3905 -1.8138  0.3080
   69MOL0     H 9044   2.895   7.762   8.444 -0.3083 -3.4830  1.2559
   69MOL0     H 9045   3.079   7.424   8.652  0.7220 -5.5273  0.3479
   69MOL0     H 9046   3.075   7.386   8.477 -1.2584 -2.5739  0.1874
   69MOL0     H 9047   2.849   7.361   8.678 -0.8602 -0.2449 -0.0262
   69MOL0     H 9048   2.937   7.225   8.632 -0.9305  0.5377  0.8826
   69MOL0     H 9049   2.848   7.226   8.397  3.0086 -0.1038  1.0483
   69MOL0     H 9050   2.778   7.384   8.417 -2.7778 -0.2312  0.4721
   69MOL0     H 9051   2.699   7.148   8.584  2.9987  2.5598  2.8524
   69MOL0     H 9052   2.638   7.307   8.619  0.7755  2.8881 -0.8725
   69MOL0     H 9053   2.578   7.322   8.357  0.1605  0.3467  0.1818
   69MOL0     H 9054   2.470   7.275   8.499 -1.8269 -0.3745 -0.6482
   69MOL0     H 9055   2.507   7.067   8.467 -0.9372 -2.6908 -1.0039
   69MOL0     H 9056   2.630   7.085   8.345 -0.3649 -2.4939  2.6986
   69MOL0     H 9057   2.426   7.189   8.205  3.9486  0.2957  1.9396
   69MOL0     H 9058   2.421   7.014   8.238  1.4334 -2.0454  3.7872
   69MOL0     H 9059   2.272   7.210   8.392  0.3929 -1.4223  2.9585
   69MOL0     H 9060   2.258   7.035   8.412  0.3102  1.0004  0.6310
   69MOL0     H 9061   2.157   6.886   8.180 -3.0276 -1.4137 -0.6026
   69MOL0     H 9062   2.066   6.875   7.943 -1.2995 -1.6497 -1.3104
   69MOL0     H 9063   2.011   7.014   7.862  0.5299  2.4329  1.5742
   69MOL0     H 9064   1.819   6.868   8.063 -2.2592 -1.3474 -1.3709
   69MOL0     H 9065   1.844   6.802   7.915 -3.6454 -3.2293  4.0825
   69MOL0     H 9066   1.802   7.042   7.806  1.0140 -2.0937 -0.9234
   69MOL0     H 9067   1.682   6.923   7.829  0.7988 -1.1569 -0.3098
   69MOL0     H 9068   1.724   7.173   8.005 -0.0224 -0.6782 -1.9858
   69MOL0     H 9069   1.658   7.021   8.073  1.2605 -0.8525 -0.2161
   69MOL0     H 9070   1.544   6.857   8.016 -0.3776  0.1053 -0.5905
   69MOL0     H 9071   1.340   6.725   8.090  0.7363  0.0166  0.3735
   69MOL0     H 9072   0.786   6.802   7.916  2.3222  0.7459  0.3480
   69MOL0     H 9073   0.557   6.729   7.973 -2.2030 -3.3686  1.5546
   69MOL0     H 9074   0.269   6.749   8.230 -0.0444 -0.4356  0.7269
   69MOL0     H 9075   0.350   6.761   8.070  2.2757  0.9193 -1.7076
   69MOL0     H 9076   0.448   6.953   8.119  1.1466 -0.9512  0.1141
   69MOL0     H 9077   0.417   6.950   8.302 -2.1877  2.6306  0.5382
   69MOL0     H 9078   0.181   6.973   8.250 -1.8368 -0.7570 -1.2033
   69MOL0     H 9079   0.203   6.943   8.078  3.0526 -2.2635  0.4198
   69MOL0     H 9080   0.324   7.182   8.233  0.8784 -1.6328  0.3172
   69MOL0     H 9081   0.290   7.163   8.056 -0.5146  0.1289 -0.4393
   69MOL0     H 9082   0.113   7.207   8.279  0.0406 -1.0365 -0.2302
   69MOL0     H 9083   0.033   7.154   8.130  0.6939 -1.4000  1.8612
   69MOL0     H 9084   0.148   7.381   8.037  0.0616 -2.5988 -0.9658
   69MOL0     H 9085   0.169   7.415   8.207  1.6715 -0.8832 -0.0997
   69MOL0     H 9086  -0.060   7.513   8.140 -1.7215  0.0472  1.2150
   69MOL0     H 9087  -0.096   7.352   8.066  0.7290 -0.6204  0.4761
   69MOL0     H 9088  -0.064   7.417   8.365  0.6532  0.2063 -1.8273
   69MOL0     H 9089  -0.116   7.262   8.312  0.1965  1.0116  2.2841
   69MOL0     H 9090   0.687   6.736   8.387 -0.3258 -3.0533 -0.4902
   69MOL0     H 9091   0.896   6.808   8.326  1.2446 -1.4656 -1.8515
   69MOL0     H 9092   1.104   7.036   7.926  0.0312 -1.6195  0.7024
   69MOL0     H 9093   1.317   7.160   7.865 -0.1106  1.9002  2.1543
   69MOL0     H 9094   3.236   7.541   8.560 -2.2926 -2.4270 -2.8255
   69MOL0     H 9095   3.379   7.750   8.562  0.4746 -0.5615  0.3972
   69MOL0     H 9096   3.659   8.073   8.322  0.5498 -2.5169  1.3654
   69MOL0     H 9097   3.789   8.271   8.359  0.7491  3.0013  2.6578
   69MOL0     H 9098   3.726   8.666   8.569 -0.0828 -0.5570  2.0498
   69MOL0     H 9099   3.567   8.605   8.578 -1.0083  0.3441 -1.1620
   69MOL0     H 9100   3.520   8.650   8.337 -1.5881  1.9663  0.7336
   69MOL0     H 9101   3.588   8.796   8.439  3.0179  0.3629  0.9598
   69MOL0     H 9102   3.673   8.772   8.201  1.5607  1.5492  0.3744
   69MOL0     H 9103   3.747   8.620   8.254 -0.1772 -0.3838  1.1197
   69MOL0     H 9104   3.773   8.895   8.395 -1.0503 -0.8459  0.8673
   69MOL0     H 9105   3.880   8.763   8.419 -0.5607  1.5448  1.9994
   69MOL0     H 9106   4.017   8.948   8.050 -0.7211 -1.2913 -0.8997
   69MOL0     H 9107   3.480   8.443   8.598 -0.7217  0.8032 -1.3618
   69MOL0     H 9108   3.355   8.244   8.589 -0.0345 -0.1092 -0.0374
   70MOL0     O 9109   1.452   8.229   2.561  0.6065 -0.5199 -0.0281
   70MOL0     C 9110   1.460   8.318   2.474  0.0881  1.1175 -0.6998
   70MOL0     O 9111   1.357   8.352   2.387  0.5497 -0.0257 -0.6132
   70MOL0     C 9112   1.243   8.279   2.349  0.0876 -0.4414 -0.3581
   70MOL0     C 9113   1.202   8.156   2.414  0.7580 -0.2821 -0.4236
   70MOL0     C 9114   1.081   8.083   2.381 -0.4255 -0.4733  0.5526
   70MOL0     C 9115   0.993   8.136   2.285  0.3272  0.4618 -1.4893
   70MOL0     O 9116   0.866   8.093   2.254 -0.2135 -0.5740 -0.3038
   70MOL0     C 9117   0.844   7.959   2.294 -0.4179  0.0561 -0.1158
   70MOL0     C 9118   0.729   7.906   2.213 -0.5041  0.0695 -0.8751
   70MOL0     C 9119   0.709   7.757   2.247 -0.3614 -1.1157  0.1213
   70MOL0     C 9120   0.576   7.708   2.199 -0.3646 -0.5363 -0.0152
   70MOL0     C 9121   0.544   7.566   2.223 -0.7311 -0.0503  0.5892
   70MOL0     C 9122   0.533   7.531   2.368  0.1114 -0.2662  0.0894
   70MOL0     C 9123   0.458   7.399   2.396 -0.5883 -0.2746 -0.4877
   70MOL0     C 9124   0.428   7.383   2.552 -0.4737 -0.0008  0.5129
   70MOL0     N 9125   0.350   7.261   2.574 -0.2426  0.1021  0.1474
   70MOL0     C 9126   0.252   7.209   2.492  0.3979  0.0548  0.6963
   70MOL0     C 9127   0.195   7.113   2.567 -0.3025  0.6333  0.4253
   70MOL0     C 9128   0.074   7.046   2.519 -0.6043 -0.7313 -0.1446
   70MOL0     C 9129  -0.058   7.108   2.575 -0.2012 -0.4739 -0.8893
   70MOL0     C 9130  -0.065   7.100   2.726  0.7343 -0.8749 -1.6137
   70MOL0     C 9131  -0.207   7.108   2.784 -0.8482 -0.4968 -0.8660
   70MOL0     O 9132  -0.199   7.102   2.929 -0.3105  0.2096  0.6631
   70MOL0     C 9133  -0.316   7.074   3.002 -0.9783 -0.2472 -0.1041
   70MOL0     C 9134  -0.294   7.037   3.129  1.2096 -0.1622 -0.3636
   70MOL0     C 9135  -0.396   7.040   3.217  0.0377  1.1289  1.1330
   70MOL0     C 9136  -0.534   7.063   3.173  0.3397  0.6392 -0.5889
   70MOL0     C 9137  -0.647   7.076   3.260  0.0808 -1.5226  0.4453
   70MOL0     O 9138  -0.751   7.154   3.209 -0.4850  0.6236 -0.2936
   70MOL0     C 9139  -0.872   7.152   3.264  0.1947 -0.6125 -0.7051
   70MOL0     C 9140  -0.983   7.121   3.177  0.8651 -0.6057 -0.1979
   70MOL0     C 9141  -1.111   7.114   3.241  0.0680 -0.1480  0.6412
   70MOL0     C 9142  -1.137   7.139   3.375 -0.6247  0.2054  0.4262
   70MOL0     O 9143  -1.267   7.132   3.413  0.0571 -0.8049  0.3478
   70MOL0     C 9144  -1.380   7.075   3.342 -0.2078  0.1468  0.7123
   70MOL0     C 9145  -1.521   7.115   3.400 -0.4292  0.0929 -0.2970
   70MOL0     C 9146  -1.645   7.076   3.320  0.2850  0.9320  0.3813
   70MOL0     C 9147  -1.782   7.084   3.403 -0.1253 -0.3583  1.0505
   70MOL0     C 9148  -1.827   7.230   3.422 -0.4851  0.2905 -0.6433
   70MOL0     C 9149  -1.945   7.249   3.513  0.4795 -0.5868  0.9536
   70MOL0     C 9150  -1.973   7.401   3.527  0.2374 -0.6945 -0.1616
   70MOL0     C 9151  -2.038   7.429   3.662 -0.4152  0.0440 -0.3322
   70MOL0    Cl 9152  -2.215   7.386   3.664  0.0838  0.2569  0.0511
   70MOL0     C 9153  -1.028   7.179   3.452 -0.3788  0.2978  0.0321
   70MOL0     C 9154  -0.900   7.182   3.397 -0.5396  0.4683  0.9197
   70MOL0     O 9155  -0.650   7.025   3.369 -0.3774  0.4999 -0.0191
   70MOL0     C 9156  -0.559   7.082   3.037 -0.4467 -0.5115  0.3413
   70MOL0     C 9157  -0.450   7.092   2.945 -0.1991 -0.3932 -0.5880
   70MOL0     N 9158   0.249   7.111   2.696 -0.2477 -0.4493  0.6535
   70MOL0     N 9159   0.344   7.206   2.703 -0.0022 -0.2346  0.0213
   70MOL0     C 9160   1.040   8.247   2.216  0.2941  0.0734  0.0486
   70MOL0     C 9161   1.159   8.318   2.244  0.0676  0.1463  0.3047
   70MOL0     C 9162   1.588   8.381   2.465 -0.6917  0.3637  0.2119
   70MOL0     C 9163   1.681   8.384   2.572  0.7718 -0.4969 -0.2034
   70MOL0     C 9164   1.799   8.467   2.568 -0.0783  0.0528 -0.0188
   70MOL0     C 9165   1.822   8.559   2.460  0.4545 -0.3986 -0.7260
   70MOL0     O 9166   1.930   8.645   2.450 -0.0211  0.1914  0.2661
   70MOL0     C 9167   1.967   8.717   2.567 -0.4029  0.3573  0.1735
   70MOL0     C 9168   2.066   8.822   2.517  0.3099  0.3100  0.1442
   70MOL0     C 9169   2.210   8.760   2.523 -0.5103 -0.1040  0.1412
   70MOL0     C 9170   2.323   8.867   2.517 -0.5476  0.6004 -0.3289
   70MOL0     C 9171   2.324   8.987   2.600 -0.2966  0.8748  0.6830
   70MOL0     C 9172   2.328   9.096   2.648 -0.8269 -0.3664 -0.6862
   70MOL0     C 9173   1.726   8.565   2.361  0.4722  0.4186  0.5066
   70MOL0     C 9174   1.620   8.471   2.357 -0.2673  1.5315 -0.6680
   70MOL0     H 9175   1.263   8.124   2.498 -2.4444 -0.1854  2.1394
   70MOL0     H 9176   1.061   7.993   2.438 -3.1639 -0.6902 -0.6296
   70MOL0     H 9177   0.811   7.967   2.397 -1.1642  4.5744 -0.5296
   70MOL0     H 9178   0.936   7.905   2.267  0.8499  1.5154  1.1118
   70MOL0     H 9179   0.754   7.931   2.109 -4.3270  1.6905 -1.5786
   70MOL0     H 9180   0.640   7.961   2.245  0.5259  0.1722  2.1100
   70MOL0     H 9181   0.703   7.745   2.355  0.7906  1.4238  0.5398
   70MOL0     H 9182   0.788   7.693   2.206 -1.6094 -2.2015 -0.6871
   70MOL0     H 9183   0.506   7.779   2.244  0.0748 -0.2962  0.3043
   70MOL0     H 9184   0.579   7.731   2.093  0.4755  0.6058  0.2384
   70MOL0     H 9185   0.623   7.500   2.185  1.2780  0.7055  3.1846
   70MOL0     H 9186   0.445   7.542   2.182 -0.1969  0.0846 -0.8706
   70MOL0     H 9187   0.471   7.606   2.419  0.4627  1.1456 -1.5038
   70MOL0     H 9188   0.632   7.533   2.413 -0.1867 -0.2643  0.7618
   70MOL0     H 9189   0.360   7.408   2.348 -1.3776 -1.3467  0.8505
   70MOL0     H 9190   0.521   7.318   2.357 -0.3126 -0.2018 -0.1925
   70MOL0     H 9191   0.378   7.473   2.589  0.8989  0.6163  0.9570
   70MOL0     H 9192   0.525   7.384   2.602  1.0337  2.1935 -2.1521
   70MOL0     H 9193   0.220   7.245   2.395  1.6749  0.2166  0.3103
   70MOL0     H 9194   0.083   6.940   2.544  3.3456 -0.0316  2.3228
   70MOL0     H 9195   0.080   7.053   2.410 -2.3665 -1.4942 -0.3171
   70MOL0     H 9196  -0.134   7.043   2.528  0.6184  0.5203 -3.8121
   70MOL0     H 9197  -0.081   7.210   2.544  0.3294 -0.3256 -0.7904
   70MOL0     H 9198  -0.020   7.006   2.758  3.1983  1.2410  1.9086
   70MOL0     H 9199  -0.001   7.175   2.774 -0.2770 -2.1706  2.0849
   70MOL0     H 9200  -0.260   7.018   2.751  0.4111 -0.4279 -3.2664
   70MOL0     H 9201  -0.258   7.201   2.757  0.2005  0.2370 -0.3859
   70MOL0     H 9202  -0.192   7.027   3.167  0.9984 -0.7913  0.0426
   70MOL0     H 9203  -0.378   7.022   3.322  0.0526 -0.0382  0.9484
   70MOL0     H 9204  -0.959   7.103   3.072  1.2868  0.4115 -0.2880
   70MOL0     H 9205  -1.195   7.096   3.176 -0.8220 -0.4646  1.8384
   70MOL0     H 9206  -1.392   6.966   3.339 -0.2110  0.0841  2.4494
   70MOL0     H 9207  -1.373   7.126   3.245  1.8585 -2.8539 -0.8719
   70MOL0     H 9208  -1.522   7.224   3.410 -0.7748  0.0005  0.7195
   70MOL0     H 9209  -1.527   7.079   3.503  4.1782  2.9801  1.3110
   70MOL0     H 9210  -1.637   6.968   3.303  1.4155  0.6235  2.4919
   70MOL0     H 9211  -1.657   7.133   3.228 -1.1535  0.6533  0.3613
   70MOL0     H 9212  -1.858   7.033   3.344  0.3896  0.4085 -0.3280
   70MOL0     H 9213  -1.768   7.037   3.501 -3.9026  0.1303  1.9709
   70MOL0     H 9214  -1.870   7.271   3.330 -0.6585  2.5754  0.4088
   70MOL0     H 9215  -1.743   7.287   3.460 -3.0863  3.5131  0.7030
   70MOL0     H 9216  -1.909   7.208   3.608  3.8092  2.8744  1.4302
   70MOL0     H 9217  -2.034   7.200   3.473  1.6184 -3.5690  1.8401
   70MOL0     H 9218  -1.887   7.464   3.500 -1.3861  1.9717  0.5102
   70MOL0     H 9219  -2.041   7.436   3.449 -1.2860  1.3190  1.9190
   70MOL0     H 9220  -2.033   7.538   3.666 -0.9398  0.0935 -0.9905
   70MOL0     H 9221  -1.985   7.388   3.749  3.3179  1.1978 -1.8361
   70MOL0     H 9222  -1.050   7.201   3.556 -0.9306 -4.0009  1.0086
   70MOL0     H 9223  -0.816   7.210   3.460  0.1252 -0.2751  0.3753
   70MOL0     H 9224  -0.657   7.089   2.990 -1.9004  0.2849  3.2829
   70MOL0     H 9225  -0.465   7.124   2.843  1.2672  0.2948 -0.6167
   70MOL0     H 9226   0.985   8.301   2.140  0.5354 -1.1276 -1.0237
   70MOL0     H 9227   1.203   8.383   2.168  1.5187 -1.0205  0.1125
   70MOL0     H 9228   1.663   8.306   2.646 -0.2584 -0.2611 -0.1811
   70MOL0     H 9229   1.871   8.471   2.648 -0.5497 -0.3228  0.4347
   70MOL0     H 9230   2.018   8.642   2.627  1.7386 -0.0781 -2.0216
   70MOL0     H 9231   1.888   8.775   2.615  1.2590  2.5852  0.3601
   70MOL0     H 9232   2.060   8.841   2.409 -1.8988  1.7120  0.4399
   70MOL0     H 9233   2.051   8.919   2.567  1.6389  1.5421 -1.7044
   70MOL0     H 9234   2.222   8.684   2.445  0.4840 -1.5851  1.6487
   70MOL0     H 9235   2.229   8.705   2.616  2.6004  1.2836  0.4345
   70MOL0     H 9236   2.425   8.829   2.518 -0.6179  0.3562 -1.4828
   70MOL0     H 9237   2.314   8.900   2.413  0.7123 -3.2855 -1.8247
   70MOL0     H 9238   2.333   9.190   2.698  4.4219 -0.1318 -1.1579
   70MOL0     H 9239   1.751   8.631   2.279  0.2235  0.9632  0.8660
   70MOL0     H 9240   1.555   8.482   2.270 -0.4569  2.3842 -0.4209
   71MOL0     O 9241  11.322   7.982   4.040 -0.2570 -0.1881 -0.1786
   71MOL0     C 9242  11.347   8.086   4.100 -0.2319  0.0106  0.8851
   71MOL0     O 9243  11.460   8.157   4.090 -0.6005 -0.1597 -0.2968
   71MOL0     C 9244  11.568   8.118   4.027 -0.4388  0.0626  0.2724
   71MOL0     C 9245  11.564   8.060   3.898  0.4151 -0.0929  1.1092
   71MOL0     C 9246  11.672   8.042   3.824  0.4973 -0.4003  0.0015
   71MOL0     C 9247  11.802   8.074   3.872  0.8764  1.0306 -0.1692
   71MOL0     O 9248  11.905   8.056   3.775 -0.1091 -0.9968 -0.5158
   71MOL0     C 9249  12.037   8.044   3.825 -0.2079  0.7285 -0.6520
   71MOL0     C 9250  12.135   8.012   3.713  0.2914 -0.3953 -0.0999
   71MOL0     C 9251  12.285   8.017   3.755 -0.0202  0.1309 -0.4442
   71MOL0     C 9252  12.323   7.953   3.887  0.4590  0.1148  0.2000
   71MOL0     C 9253  12.463   7.981   3.926 -0.5156  0.1591 -0.1803
   71MOL0     C 9254  12.507   7.905   4.054 -0.2762  0.2594  0.4724
   71MOL0     C 9255  12.661   7.910   4.082 -0.5642 -0.4721  0.3654
   71MOL0     C 9256  12.729   8.040   4.046  0.0233 -0.3300  0.1235
   71MOL0     N 9257  12.843   8.050   4.139  0.0678 -0.7463 -0.5291
   71MOL0     C 9258  12.844   8.128   4.252 -0.6704  0.3624 -0.0945
   71MOL0     C 9259  12.959   8.087   4.307  0.3183 -0.0632  0.7410
   71MOL0     C 9260  13.029   8.136   4.439  0.3379  0.2667  1.2107
   71MOL0     C 9261  13.029   8.279   4.442  0.9333 -0.0320 -0.3544
   71MOL0     C 9262  13.008   8.334   4.579 -0.6400 -0.9240 -0.2712
   71MOL0     C 9263  13.006   8.496   4.578  0.4028 -0.4376 -0.1719
   71MOL0     O 9264  12.893   8.551   4.507  0.2443 -0.3494 -0.1394
   71MOL0     C 9265  12.768   8.524   4.545  0.5790 -0.8671 -0.4765
   71MOL0     C 9266  12.676   8.562   4.451  0.2327 -0.0224 -0.2457
   71MOL0     C 9267  12.538   8.559   4.484  0.5921  0.2526  0.3632
   71MOL0     C 9268  12.491   8.485   4.594  0.6886  0.4631  0.2524
   71MOL0     C 9269  12.348   8.444   4.603 -0.4587 -0.5784  0.4687
   71MOL0     O 9270  12.314   8.381   4.718  0.7740  0.2290  0.2107
   71MOL0     C 9271  12.184   8.338   4.726 -0.1278 -0.3411  0.0201
   71MOL0     C 9272  12.149   8.206   4.717  0.3109 -0.0502  0.6352
   71MOL0     C 9273  12.024   8.151   4.750 -0.7136 -0.1105 -0.4115
   71MOL0     C 9274  11.924   8.238   4.809  0.4364 -1.0155  0.6757
   71MOL0     O 9275  11.791   8.203   4.821 -0.0741  0.0048  0.0020
   71MOL0     C 9276  11.743   8.099   4.915  0.2194 -0.4503  0.5599
   71MOL0     C 9277  11.785   8.112   5.066 -0.0487 -0.1852  0.5955
   71MOL0     C 9278  11.760   8.245   5.141  0.3727 -0.4489  0.5194
   71MOL0     C 9279  11.614   8.251   5.173 -0.2660  1.0965 -0.6316
   71MOL0     C 9280  11.561   8.347   5.280  0.9821 -0.6820  1.3819
   71MOL0     C 9281  11.595   8.311   5.422  0.5599  0.9433 -0.1090
   71MOL0     C 9282  11.557   8.413   5.525  0.1257 -0.7443 -0.4665
   71MOL0     C 9283  11.404   8.436   5.550 -0.2359  0.1044 -0.5576
   71MOL0    Cl 9284  11.379   8.565   5.679 -0.7666 -0.1330  0.4734
   71MOL0     C 9285  11.950   8.372   4.810  0.1146 -0.6420 -0.3950
   71MOL0     C 9286  12.079   8.417   4.778 -0.0421 -0.3105 -0.1961
   71MOL0     O 9287  12.274   8.483   4.512  0.5338  0.4167 -0.2408
   71MOL0     C 9288  12.585   8.440   4.683 -0.6137  0.5015 -1.3443
   71MOL0     C 9289  12.723   8.472   4.666  0.3732 -0.1338  0.2736
   71MOL0     N 9290  13.026   8.005   4.218  0.9346 -0.3650  0.7160
   71MOL0     N 9291  12.963   7.981   4.118  0.6970  0.1069 -0.3795
   71MOL0     C 9292  11.809   8.131   4.003 -0.1294  0.9785  1.1882
   71MOL0     C 9293  11.692   8.159   4.077 -0.1717 -0.3050  0.2694
   71MOL0     C 9294  11.236   8.165   4.168  0.0724 -0.3734  0.8277
   71MOL0     C 9295  11.109   8.121   4.157  0.8507  0.3535 -0.4416
   71MOL0     C 9296  11.002   8.188   4.227  0.0492 -0.1712 -0.3990
   71MOL0     C 9297  11.018   8.306   4.303 -0.1923  0.1295 -0.2992
   71MOL0     O 9298  10.911   8.375   4.372 -0.6906  0.2900 -0.2358
   71MOL0     C 9299  10.769   8.359   4.360 -0.7339  1.0691 -0.2048
   71MOL0     C 9300  10.727   8.395   4.222  0.2793 -1.2584 -0.0096
   71MOL0     C 9301  10.579   8.398   4.221  0.3566  0.8328  0.8631
   71MOL0     C 9302  10.514   8.402   4.085 -0.8429 -0.0855  0.8805
   71MOL0     C 9303  10.387   8.350   4.099  0.8416 -0.3668  0.6818
   71MOL0     C 9304  10.278   8.303   4.101 -0.5107 -0.3831 -0.6924
   71MOL0     C 9305  11.152   8.340   4.323  0.3462 -0.8537  0.2564
   71MOL0     C 9306  11.252   8.282   4.249 -0.6722 -0.3417 -0.0467
   71MOL0     H 9307  11.465   8.042   3.858  0.2845  0.3893  1.2060
   71MOL0     H 9308  11.668   7.998   3.725  0.2771  0.4232 -0.3598
   71MOL0     H 9309  12.035   7.959   3.894 -0.1914 -1.5770 -3.3272
   71MOL0     H 9310  12.056   8.144   3.866  2.9360  0.7375 -1.8908
   71MOL0     H 9311  12.126   8.091   3.638  1.0457  1.8159  2.0213
   71MOL0     H 9312  12.107   7.922   3.658 -0.9028  0.4060 -0.8426
   71MOL0     H 9313  12.325   8.119   3.762 -0.1051  0.1418 -0.0618
   71MOL0     H 9314  12.334   7.974   3.667 -1.0981 -0.6890 -0.6588
   71MOL0     H 9315  12.256   7.979   3.970  1.4459  0.9789  0.7474
   71MOL0     H 9316  12.310   7.845   3.876  5.4361 -0.6815  0.1526
   71MOL0     H 9317  12.473   8.089   3.943  1.0955 -0.2932  1.9893
   71MOL0     H 9318  12.526   7.953   3.841 -1.2579 -1.4129 -0.2485
   71MOL0     H 9319  12.482   7.799   4.043 -1.6264  0.7134 -1.3295
   71MOL0     H 9320  12.453   7.933   4.145 -0.6187  0.9692  0.0603
   71MOL0     H 9321  12.666   7.898   4.191  1.0773  1.5126  0.5499
   71MOL0     H 9322  12.708   7.829   4.026  0.1082  0.9972 -1.2877
   71MOL0     H 9323  12.656   8.121   4.052 -1.5412 -1.5719 -1.4404
   71MOL0     H 9324  12.763   8.039   3.942  1.2330 -0.8937  0.5009
   71MOL0     H 9325  12.782   8.198   4.307  0.5088  1.5288 -0.1906
   71MOL0     H 9326  13.134   8.105   4.433 -0.9774 -4.8761 -0.1991
   71MOL0     H 9327  12.973   8.083   4.516  1.7786  0.1835  2.2318
   71MOL0     H 9328  12.959   8.328   4.374  1.4154 -1.6484 -2.1091
   71MOL0     H 9329  13.121   8.318   4.398  0.4641  0.2979 -1.0675
   71MOL0     H 9330  12.908   8.301   4.607 -1.2624  0.4438 -0.7699
   71MOL0     H 9331  13.083   8.299   4.651  0.1392 -0.1746 -0.6876
   71MOL0     H 9332  13.097   8.525   4.524  1.1589 -0.4093  1.0687
   71MOL0     H 9333  13.009   8.540   4.678  0.5171 -1.2951  0.2075
   71MOL0     H 9334  12.704   8.622   4.366 -2.9804  2.2151  0.0808
   71MOL0     H 9335  12.469   8.591   4.407  0.8941  1.5375  0.6080
   71MOL0     H 9336  12.210   8.131   4.667 -1.2962 -2.2260  1.7299
   71MOL0     H 9337  12.017   8.043   4.758  0.5499 -0.1694  0.1069
   71MOL0     H 9338  11.787   8.000   4.897 -1.1674 -1.1607  0.9252
   71MOL0     H 9339  11.636   8.084   4.904  0.2655 -0.7479  0.4986
   71MOL0     H 9340  11.894   8.116   5.069  0.0646  3.5946 -2.1494
   71MOL0     H 9341  11.748   8.023   5.118  0.6942 -2.5817 -2.6388
   71MOL0     H 9342  11.804   8.327   5.084  1.6040 -0.9971  0.6609
   71MOL0     H 9343  11.820   8.242   5.233  0.2979 -0.8326  0.5550
   71MOL0     H 9344  11.565   8.270   5.077  1.6426 -3.2341 -2.7076
   71MOL0     H 9345  11.589   8.150   5.205 -0.6224  0.9149 -1.4673
   71MOL0     H 9346  11.452   8.342   5.275  1.0636 -2.5302  0.0273
   71MOL0     H 9347  11.596   8.448   5.260 -0.1631 -0.4834  0.2228
   71MOL0     H 9348  11.703   8.303   5.442  0.1438 -0.5667  1.8400
   71MOL0     H 9349  11.547   8.213   5.431 -0.3707  1.1830 -1.9872
   71MOL0     H 9350  11.604   8.390   5.621  3.1891  1.7371 -1.1801
   71MOL0     H 9351  11.604   8.509   5.501 -0.1353 -0.2707  0.8370
   71MOL0     H 9352  11.355   8.342   5.581  0.7759 -0.1993  0.1693
   71MOL0     H 9353  11.345   8.472   5.466 -2.0836  0.2743  0.7279
   71MOL0     H 9354  11.876   8.438   4.855  1.0538  2.3689 -2.9249
   71MOL0     H 9355  12.090   8.525   4.772  1.7292 -0.5247 -2.1059
   71MOL0     H 9356  12.549   8.387   4.771  2.8423  1.8820  1.1376
   71MOL0     H 9357  12.791   8.439   4.744 -1.5674 -2.1908  1.2043
   71MOL0     H 9358  11.905   8.163   4.042  0.1414  0.4278  0.9801
   71MOL0     H 9359  11.705   8.195   4.178  1.9058 -0.2136  0.0191
   71MOL0     H 9360  11.080   8.035   4.098 -0.1319 -0.6430  1.4076
   71MOL0     H 9361  10.898   8.160   4.211 -1.2050  0.5829  4.6937
   71MOL0     H 9362  10.727   8.427   4.435 -1.4501 -0.4765  0.8722
   71MOL0     H 9363  10.741   8.255   4.383  1.1762  0.7022  0.6087
   71MOL0     H 9364  10.772   8.492   4.199 -1.4290  0.2155  2.3516
   71MOL0     H 9365  10.766   8.323   4.149  2.3229 -0.3458  0.1103
   71MOL0     H 9366  10.533   8.477   4.282 -4.8551 -1.0152 -0.1612
   71MOL0     H 9367  10.543   8.307   4.268  2.1141  0.2888  1.2252
   71MOL0     H 9368  10.509   8.508   4.055 -0.2010  1.4456  5.3477
   71MOL0     H 9369  10.574   8.334   4.025  0.4526 -0.6303  2.7122
   71MOL0     H 9370  10.191   8.240   4.108 -0.3638 -0.4069  3.5740
   71MOL0     H 9371  11.170   8.427   4.385 -4.6335 -0.5184  1.6639
   71MOL0     H 9372  11.350   8.323   4.272 -1.6907  0.6005  3.0685
   72MOL0     O 9373   9.840  10.639   2.657 -0.0543  0.4633 -0.3810
   72MOL0     C 9374   9.934  10.655   2.585 -0.1028 -0.2439 -0.0794
   72MOL0     O 9375   9.928  10.677   2.453  0.2069 -1.0237  0.2942
   72MOL0     C 9376   9.805  10.698   2.396  0.9642  0.1343 -0.2191
   72MOL0     C 9377   9.688  10.626   2.432 -0.0151 -0.6868  0.0542
   72MOL0     C 9378   9.570  10.645   2.356 -0.3657 -0.2715  0.4233
   72MOL0     C 9379   9.576  10.717   2.234  0.5266 -0.4128 -0.0734
   72MOL0     O 9380   9.469  10.722   2.147 -0.5411  0.4915 -0.3652
   72MOL0     C 9381   9.422  10.598   2.091 -0.5664 -0.1129  0.2517
   72MOL0     C 9382   9.323  10.607   1.973 -0.1923  0.3300 -0.8857
   72MOL0     C 9383   9.225  10.712   1.984  0.9617 -0.2487  0.5016
   72MOL0     C 9384   9.147  10.731   1.851  0.2507 -0.6720 -0.4851
   72MOL0     C 9385   9.034  10.843   1.882  0.3949 -0.1682  0.8255
   72MOL0     C 9386   9.087  10.985   1.888  0.0436  0.3900  0.0469
   72MOL0     C 9387   9.171  11.037   1.768 -0.0392  0.2779 -0.3128
   72MOL0     C 9388   9.321  11.028   1.799 -0.1413 -0.5903 -0.0307
   72MOL0     N 9389   9.370  11.114   1.911 -0.5606 -0.6347  0.1038
   72MOL0     C 9390   9.426  11.071   2.031  0.5182  0.2693  0.0625
   72MOL0     C 9391   9.502  11.178   2.061 -0.0483  0.3952 -0.1800
   72MOL0     C 9392   9.581  11.193   2.188 -0.1794  0.0383  0.3129
   72MOL0     C 9393   9.558  11.325   2.265 -0.8033 -0.4395  0.0355
   72MOL0     C 9394   9.420  11.383   2.319  0.7396 -0.9290 -0.2541
   72MOL0     C 9395   9.359  11.277   2.417  0.2856 -0.7496  0.0119
   72MOL0     O 9396   9.327  11.157   2.345 -0.6188  0.1146  0.0262
   72MOL0     C 9397   9.196  11.161   2.317  0.2645  0.6602 -0.5307
   72MOL0     C 9398   9.154  11.210   2.193  0.3754  0.3721 -0.1958
   72MOL0     C 9399   9.028  11.196   2.142  0.4235 -0.1528  0.4402
   72MOL0     C 9400   8.931  11.145   2.227  1.8388  1.1163 -0.3940
   72MOL0     C 9401   8.802  11.116   2.173 -0.1762  0.3701 -0.3937
   72MOL0     O 9402   8.775  11.128   2.037  0.6607 -0.0272 -0.0348
   72MOL0     C 9403   8.659  11.069   1.993 -0.0650  0.1861  0.2846
   72MOL0     C 9404   8.641  10.927   1.977  0.0508 -0.4102  0.1677
   72MOL0     C 9405   8.526  10.881   1.927 -0.1024 -0.6911  0.6716
   72MOL0     C 9406   8.420  10.964   1.887 -1.2263 -0.0824 -0.7163
   72MOL0     O 9407   8.316  10.894   1.840  0.1191  0.1765  0.8809
   72MOL0     C 9408   8.189  10.957   1.822  0.2454  0.3905  0.1136
   72MOL0     C 9409   8.089  10.839   1.823  0.2522  0.1396  0.1979
   72MOL0     C 9410   7.942  10.905   1.806 -0.1162 -0.3824 -0.1349
   72MOL0     C 9411   7.841  10.796   1.808  0.4497  0.5851  0.0673
   72MOL0     C 9412   7.700  10.838   1.768  0.5486 -0.1070  0.1275
   72MOL0     C 9413   7.607  10.724   1.733  0.6010  0.4502  0.6509
   72MOL0     C 9414   7.475  10.780   1.674  0.0328 -0.1480  0.1236
   72MOL0     C 9415   7.396  10.681   1.584 -0.3608  0.1408 -0.6522
   72MOL0    Cl 9416   7.331  10.546   1.694  0.3664 -0.4814 -0.1495
   72MOL0     C 9417   8.441  11.104   1.898  0.0876 -0.0600  0.2797
   72MOL0     C 9418   8.558  11.158   1.953  0.4264 -0.2550  0.1031
   72MOL0     O 9419   8.716  11.083   2.258 -0.0978  0.0355  0.3218
   72MOL0     C 9420   8.956  11.109   2.361 -0.4002  0.5834 -0.3702
   72MOL0     C 9421   9.089  11.124   2.407  0.2155  0.0441  0.1302
   72MOL0     N 9422   9.495  11.278   1.964 -0.0832 -0.1803 -0.3069
   72MOL0     N 9423   9.418  11.234   1.873 -0.6815  0.0328 -0.5434
   72MOL0     C 9424   9.686  10.788   2.201  0.1660 -0.3415 -0.2466
   72MOL0     C 9425   9.796  10.780   2.288 -0.6767  0.2336  0.1240
   72MOL0     C 9426  10.064  10.694   2.647  0.2629 -0.6946 -0.1320
   72MOL0     C 9427  10.091  10.675   2.791 -0.0360 -0.2448  0.3839
   72MOL0     C 9428  10.210  10.728   2.840  0.3785 -0.5594  0.7150
   72MOL0     C 9429  10.303  10.785   2.756  0.3616  0.1192 -0.1635
   72MOL0     O 9430  10.425  10.823   2.795  0.0303  0.1333 -0.3068
   72MOL0     C 9431  10.465  10.846   2.931  0.5927  0.2234  0.0761
   72MOL0     C 9432  10.402  10.970   2.997  0.0015 -0.8633 -0.4133
   72MOL0     C 9433  10.471  11.088   2.927  1.0489 -0.6341 -0.2782
   72MOL0     C 9434  10.397  11.219   2.947  0.0804 -0.7346 -0.0590
   72MOL0     C 9435  10.289  11.234   2.844 -0.2550 -1.6087  0.7674
   72MOL0     C 9436  10.213  11.259   2.756  0.1344  0.4250 -0.3901
   72MOL0     C 9437  10.277  10.805   2.625 -0.3138 -0.8880 -0.2316
   72MOL0     C 9438  10.158  10.760   2.575  0.3813 -0.2993  0.3749
   72MOL0     H 9439   9.677  10.559   2.517 -0.1310 -0.0148  0.5785
   72MOL0     H 9440   9.474  10.594   2.366 -0.4549 -0.4149 -0.9431
   72MOL0     H 9441   9.380  10.538   2.172  2.1290 -2.1916  0.2917
   72MOL0     H 9442   9.509  10.537   2.064 -1.2211 -0.4895 -1.0799
   72MOL0     H 9443   9.265  10.514   1.968  1.6340 -1.2329  2.7965
   72MOL0     H 9444   9.371  10.611   1.875 -0.4636 -2.0096 -1.1785
   72MOL0     H 9445   9.257  10.809   2.024 -0.9145  0.6951 -0.1620
   72MOL0     H 9446   9.145  10.677   2.050  1.0414 -2.0885 -0.3295
   72MOL0     H 9447   9.212  10.751   1.765  0.5530 -2.1937 -0.6291
   72MOL0     H 9448   9.100  10.637   1.824  2.8733 -2.5746  1.0929
   72MOL0     H 9449   8.980  10.825   1.976 -1.0891  0.9432  0.2148
   72MOL0     H 9450   8.962  10.841   1.800  1.0333 -0.5568  0.2540
   72MOL0     H 9451   9.140  11.009   1.980  1.4848 -1.4646 -0.2397
   72MOL0     H 9452   8.998  11.050   1.887  0.6163  1.1810 -0.0894
   72MOL0     H 9453   9.143  10.976   1.681  0.7006 -0.7068  0.1207
   72MOL0     H 9454   9.141  11.137   1.733 -0.9330 -0.4695 -1.7970
   72MOL0     H 9455   9.378  11.068   1.714 -0.2618  5.1047  2.1368
   72MOL0     H 9456   9.354  10.929   1.831  3.7629  1.0608  1.8244
   72MOL0     H 9457   9.418  10.982   2.092  2.3672 -0.0932 -0.1464
   72MOL0     H 9458   9.688  11.185   2.164  0.0338  1.2647  0.7899
   72MOL0     H 9459   9.565  11.112   2.260 -1.1905  1.5210  1.8197
   72MOL0     H 9460   9.600  11.409   2.209 -0.8423 -1.6315 -1.9027
   72MOL0     H 9461   9.627  11.309   2.348 -0.6296  2.8980  0.6659
   72MOL0     H 9462   9.430  11.478   2.372 -0.0015  1.1957 -3.6553
   72MOL0     H 9463   9.351  11.402   2.237  2.0124  1.4772 -0.8567
   72MOL0     H 9464   9.279  11.326   2.473 -1.5776 -1.3839 -1.9439
   72MOL0     H 9465   9.432  11.251   2.494  1.4749  0.1190 -0.7949
   72MOL0     H 9466   9.224  11.261   2.127  1.0807 -0.3770 -0.0311
   72MOL0     H 9467   9.000  11.232   2.044 -1.9417 -0.3416  0.9909
   72MOL0     H 9468   8.723  10.856   1.985  0.9499  0.2054 -2.4932
   72MOL0     H 9469   8.509  10.775   1.912  0.8625 -1.0186  1.7909
   72MOL0     H 9470   8.190  11.000   1.721  3.5952  1.9157  0.6656
   72MOL0     H 9471   8.163  11.031   1.898 -1.0408 -2.0032  2.1170
   72MOL0     H 9472   8.085  10.800   1.926 -4.9700 -3.4030 -0.9448
   72MOL0     H 9473   8.107  10.758   1.752  1.2448 -0.2785  0.9037
   72MOL0     H 9474   7.932  10.963   1.714  0.8164  1.8062  1.0783
   72MOL0     H 9475   7.921  10.980   1.882 -1.0678 -0.3747 -0.3935
   72MOL0     H 9476   7.868  10.718   1.736 -0.4005 -1.0396  1.4302
   72MOL0     H 9477   7.838  10.756   1.910 -2.3232  3.5815  1.3344
   72MOL0     H 9478   7.708  10.894   1.674 -2.1767 -0.5278 -0.4452
   72MOL0     H 9479   7.656  10.891   1.853 -0.8513 -0.5395 -0.3020
   72MOL0     H 9480   7.589  10.664   1.822 -0.9379  1.3399  0.9769
   72MOL0     H 9481   7.650  10.664   1.652  0.5026 -0.2699  1.1245
   72MOL0     H 9482   7.411  10.808   1.759 -1.0240  0.4497 -0.8486
   72MOL0     H 9483   7.492  10.874   1.621 -0.8619 -0.6610 -1.1114
   72MOL0     H 9484   7.455  10.651   1.498  0.0759 -1.6168  0.2009
   72MOL0     H 9485   7.306  10.730   1.545  0.9149  2.0859 -1.2668
   72MOL0     H 9486   8.366  11.170   1.855  0.5609 -0.9791 -2.0829
   72MOL0     H 9487   8.579  11.264   1.950 -1.9073  0.3410  1.7703
   72MOL0     H 9488   8.879  11.065   2.425 -0.7808  0.2922 -1.0204
   72MOL0     H 9489   9.102  11.123   2.515  0.2889  0.1473  0.1224
   72MOL0     H 9490   9.688  10.850   2.112  0.6447 -2.0027 -1.4430
   72MOL0     H 9491   9.889  10.812   2.244 -1.5208  1.4571 -0.8472
   72MOL0     H 9492  10.011  10.628   2.846 -2.4558  1.7775 -1.1682
   72MOL0     H 9493  10.231  10.711   2.945  0.9881 -0.9457  0.5368
   72MOL0     H 9494  10.573  10.855   2.946  0.2979  0.8302  2.1993
   72MOL0     H 9495  10.437  10.756   2.986  2.6586 -1.5658 -1.6330
   72MOL0     H 9496  10.294  10.971   2.984 -0.2067 -2.1203  0.9969
   72MOL0     H 9497  10.422  10.965   3.104  0.9198 -0.9463 -0.5795
   72MOL0     H 9498  10.480  11.072   2.819  1.3733  0.4541 -0.4247
   72MOL0     H 9499  10.568  11.107   2.973 -0.3478 -0.9112  3.0427
   72MOL0     H 9500  10.361  11.236   3.049 -2.3717  4.2289 -1.4016
   72MOL0     H 9501  10.469  11.299   2.928 -1.7622  1.1504  0.4591
   72MOL0     H 9502  10.159  11.302   2.674  0.8592  2.4025  0.1005
   72MOL0     H 9503  10.348  10.862   2.566 -0.0159 -1.6122 -0.5754
   72MOL0     H 9504  10.141  10.778   2.469 -1.3468  2.8385  1.0706
   73MOL0     O 9505   7.538   0.011   3.885 -0.2884 -0.1004 -0.8271
   73MOL0     C 9506   7.618   0.002   3.796  0.3873  0.0183  0.7984
   73MOL0     O 9507   7.590  -0.037   3.666 -0.1919  0.2862  0.2180
   73MOL0     C 9508   7.468  -0.095   3.646 -0.1608  0.5986  0.4522
   73MOL0     C 9509   7.393  -0.055   3.534  0.4039 -0.6967  0.4232
   73MOL0     C 9510   7.266  -0.100   3.511 -0.5362 -0.0432  0.4632
   73MOL0     C 9511   7.207  -0.209   3.582  0.1763  0.4981 -0.0683
   73MOL0     O 9512   7.080  -0.247   3.562 -0.8560  1.1405  0.2702
   73MOL0     C 9513   7.031  -0.242   3.424  0.3742 -0.2229  0.5742
   73MOL0     C 9514   6.923  -0.355   3.409 -0.5453  0.2504 -0.5402
   73MOL0     C 9515   6.993  -0.490   3.394 -0.6612 -0.2670 -0.0065
   73MOL0     C 9516   6.904  -0.591   3.321 -0.3054 -0.6164  0.5439
   73MOL0     C 9517   6.777  -0.618   3.403 -0.2141  0.2153  0.2143
   73MOL0     C 9518   6.679  -0.690   3.308 -0.2128 -0.5055  0.2537
   73MOL0     C 9519   6.542  -0.690   3.375  0.7500 -0.2295 -0.3521
   73MOL0     C 9520   6.446  -0.781   3.298 -1.3870 -0.2632  0.4897
   73MOL0     N 9521   6.315  -0.785   3.348 -0.5560  0.1702  0.3662
   73MOL0     C 9522   6.218  -0.706   3.289 -0.0099  0.6293  0.0511
   73MOL0     C 9523   6.106  -0.740   3.358 -0.8241  0.4875  1.2000
   73MOL0     C 9524   5.964  -0.696   3.336  0.0966  0.1330  0.8540
   73MOL0     C 9525   5.930  -0.577   3.413  0.4470  0.0806 -0.3712
   73MOL0     C 9526   5.787  -0.529   3.411 -0.3911 -0.3832  0.1688
   73MOL0     C 9527   5.709  -0.596   3.533 -0.6643  0.5185  0.6458
   73MOL0     O 9528   5.575  -0.587   3.527 -0.1196  0.5014 -0.2523
   73MOL0     C 9529   5.498  -0.630   3.629 -0.3741 -0.3737 -0.9116
   73MOL0     C 9530   5.537  -0.637   3.766  0.1937 -0.6540  0.0902
   73MOL0     C 9531   5.450  -0.669   3.870 -0.7087 -0.2424 -0.3109
   73MOL0     C 9532   5.316  -0.691   3.846 -0.0435  0.5675  0.9583
   73MOL0     C 9533   5.216  -0.733   3.942 -0.2965  0.5864 -0.1585
   73MOL0     O 9534   5.090  -0.701   3.922 -0.1392  0.5275 -0.0250
   73MOL0     C 9535   4.990  -0.741   4.003  1.1371  0.5290 -0.1410
   73MOL0     C 9536   4.865  -0.761   3.945 -0.3543  0.4977  0.1879
   73MOL0     C 9537   4.751  -0.790   4.022 -0.3790  0.6354 -0.0545
   73MOL0     C 9538   4.761  -0.808   4.156  0.0225 -0.0419 -0.6665
   73MOL0     O 9539   4.651  -0.841   4.227  0.0623  0.3432  0.2752
   73MOL0     C 9540   4.554  -0.739   4.238 -0.2625  0.2618 -0.9093
   73MOL0     C 9541   4.421  -0.810   4.282 -0.2585  0.2414 -0.0637
   73MOL0     C 9542   4.326  -0.712   4.336  0.4500 -0.6607 -0.2181
   73MOL0     C 9543   4.206  -0.776   4.407  0.5449  0.4302  0.0863
   73MOL0     C 9544   4.241  -0.844   4.534  0.1474 -0.5694  0.7289
   73MOL0     C 9545   4.117  -0.863   4.620 -0.2548 -0.6257 -0.5205
   73MOL0     C 9546   4.139  -0.952   4.744 -0.2128 -0.0216 -0.4230
   73MOL0     C 9547   4.012  -0.984   4.822  0.2757  0.1175  0.8494
   73MOL0    Cl 9548   3.928  -0.849   4.893 -0.2119  0.0427 -0.1375
   73MOL0     C 9549   4.884  -0.787   4.218  0.5779 -0.2761 -0.1580
   73MOL0     C 9550   4.992  -0.742   4.141  0.0838 -0.7583 -0.3028
   73MOL0     O 9551   5.257  -0.799   4.034 -0.1311 -0.0953  0.1279
   73MOL0     C 9552   5.272  -0.689   3.709  0.6194  0.4625 -0.0824
   73MOL0     C 9553   5.365  -0.657   3.612  0.0931  0.1201  0.5834
   73MOL0     N 9554   6.137  -0.836   3.450 -0.2053 -0.3798 -0.2229
   73MOL0     N 9555   6.260  -0.865   3.444  1.4504  0.3056  0.4575
   73MOL0     C 9556   7.289  -0.260   3.682 -0.6764 -0.0154 -0.6077
   73MOL0     C 9557   7.422  -0.212   3.710 -0.7359 -0.4639  0.4156
   73MOL0     C 9558   7.754   0.060   3.821  0.9775  0.4325 -0.8808
   73MOL0     C 9559   7.795   0.072   3.960 -0.8412 -0.5660  0.3558
   73MOL0     C 9560   7.913   0.127   3.995 -0.6038  0.1725  0.0589
   73MOL0     C 9561   8.005   0.169   3.899  0.0570  0.7792 -0.0777
   73MOL0     O 9562   8.117   0.227   3.950  0.4689 -1.0402 -0.6262
   73MOL0     C 9563   8.223   0.282   3.864  0.0898  0.9249 -0.9189
   73MOL0     C 9564   8.331   0.366   3.943 -0.5665 -1.4034  0.3567
   73MOL0     C 9565   8.406   0.307   4.055 -0.3273 -0.3306 -0.6252
   73MOL0     C 9566   8.464   0.171   4.037 -0.0874 -0.0633 -0.3774
   73MOL0     C 9567   8.595   0.174   3.964 -0.1662  0.5707 -0.4238
   73MOL0     C 9568   8.706   0.173   3.907  0.0304  0.2794  0.6411
   73MOL0     C 9569   7.977   0.138   3.760  0.1419 -0.6123 -0.2429
   73MOL0     C 9570   7.850   0.094   3.727 -0.7749 -0.6970 -0.0198
   73MOL0     H 9571   7.424   0.021   3.464 -0.0456  2.6880  3.6054
   73MOL0     H 9572   7.213  -0.052   3.429 -1.2789 -2.0676 -0.2877
   73MOL0     H 9573   7.101  -0.250   3.340 -1.4807  1.0836 -1.2021
   73MOL0     H 9574   6.975  -0.149   3.408 -1.8340 -1.3325  1.4872
   73MOL0     H 9575   6.856  -0.329   3.326  0.7708  0.5365 -1.5512
   73MOL0     H 9576   6.860  -0.357   3.499 -0.2926  0.4314 -0.3568
   73MOL0     H 9577   7.018  -0.531   3.493 -3.1153 -1.8850  0.0440
   73MOL0     H 9578   7.087  -0.474   3.340  0.6456  2.1122  2.7057
   73MOL0     H 9579   6.870  -0.545   3.228 -1.1889 -2.4684 -0.0861
   73MOL0     H 9580   6.956  -0.685   3.305 -1.8736 -1.4384  0.0100
   73MOL0     H 9581   6.728  -0.528   3.442  2.1488  2.2613 -1.2201
   73MOL0     H 9582   6.798  -0.678   3.492  2.0921  1.9045  0.8935
   73MOL0     H 9583   6.713  -0.792   3.287 -0.5661 -0.2607 -1.7241
   73MOL0     H 9584   6.666  -0.649   3.207 -1.2379  0.1385  0.6230
   73MOL0     H 9585   6.557  -0.729   3.476  0.3235 -0.4404 -0.3664
   73MOL0     H 9586   6.506  -0.587   3.383  1.7663  0.4655 -3.5190
   73MOL0     H 9587   6.483  -0.885   3.298  0.4222  0.3438  1.0110
   73MOL0     H 9588   6.435  -0.744   3.195  0.3895 -0.8667  0.0385
   73MOL0     H 9589   6.209  -0.656   3.192  1.1345  0.6293 -0.0634
   73MOL0     H 9590   5.891  -0.775   3.357  2.0108 -2.3415 -1.1281
   73MOL0     H 9591   5.935  -0.671   3.233 -0.4930  3.3821  1.7049
   73MOL0     H 9592   5.992  -0.492   3.382  1.5277 -1.0525 -1.3973
   73MOL0     H 9593   5.951  -0.584   3.521  0.1931  0.5094 -0.2933
   73MOL0     H 9594   5.782  -0.420   3.415  0.2480 -0.3297 -0.3852
   73MOL0     H 9595   5.750  -0.557   3.312 -1.6597  3.2265 -0.5194
   73MOL0     H 9596   5.740  -0.549   3.627  2.3795  3.0608 -1.4219
   73MOL0     H 9597   5.740  -0.700   3.532 -0.4448  0.5653 -1.0344
   73MOL0     H 9598   5.638  -0.614   3.800  0.2377 -0.5086 -0.1319
   73MOL0     H 9599   5.491  -0.670   3.970 -0.3418  0.3925 -0.4487
   73MOL0     H 9600   4.852  -0.749   3.838  1.7907  3.2537  0.1153
   73MOL0     H 9601   4.660  -0.802   3.964 -0.3873  1.4240 -0.2163
   73MOL0     H 9602   4.526  -0.683   4.148 -0.9796 -0.5629 -1.2071
   73MOL0     H 9603   4.586  -0.659   4.305 -0.4628  2.8800 -3.7263
   73MOL0     H 9604   4.438  -0.898   4.345  2.6695  0.5880 -0.2273
   73MOL0     H 9605   4.371  -0.852   4.194  0.6717 -4.1149  1.2433
   73MOL0     H 9606   4.288  -0.644   4.260  2.6844  0.9838  0.0337
   73MOL0     H 9607   4.380  -0.646   4.406 -2.9606  1.8365  0.3078
   73MOL0     H 9608   4.140  -0.695   4.439  1.9693  1.0782  1.5266
   73MOL0     H 9609   4.152  -0.855   4.354 -1.7396  2.6464 -1.1178
   73MOL0     H 9610   4.314  -0.785   4.590 -0.3250 -0.4165  1.1888
   73MOL0     H 9611   4.288  -0.939   4.509 -1.2274 -1.0237 -0.2619
   73MOL0     H 9612   4.037  -0.919   4.570 -0.5881 -1.0479  0.4437
   73MOL0     H 9613   4.101  -0.762   4.657  0.7611 -1.5625  2.8112
   73MOL0     H 9614   4.182  -1.044   4.703 -1.3199  0.6877 -3.4400
   73MOL0     H 9615   4.205  -0.897   4.812 -0.4437 -1.4598  1.0337
   73MOL0     H 9616   4.030  -1.056   4.902 -1.8429 -1.8389 -0.3253
   73MOL0     H 9617   3.939  -1.034   4.758  0.6130 -0.0963  0.6276
   73MOL0     H 9618   4.902  -0.799   4.324 -0.6606  0.9777  0.2235
   73MOL0     H 9619   5.083  -0.701   4.182  1.0286 -3.8795  1.0248
   73MOL0     H 9620   5.168  -0.705   3.680  0.9195 -3.9645  0.5861
   73MOL0     H 9621   5.331  -0.662   3.509  1.1299 -1.3390  0.2774
   73MOL0     H 9622   7.247  -0.343   3.738  0.1824  1.1509  1.9009
   73MOL0     H 9623   7.478  -0.264   3.787  1.2395  2.0470  0.8280
   73MOL0     H 9624   7.732   0.043   4.044 -0.8456  0.7774  0.8432
   73MOL0     H 9625   7.936   0.146   4.099  2.4767 -0.4747 -0.3992
   73MOL0     H 9626   8.163   0.349   3.802 -1.6617 -1.4988 -2.0278
   73MOL0     H 9627   8.270   0.204   3.804  1.2031  1.9995 -1.4949
   73MOL0     H 9628   8.413   0.395   3.876 -0.6725 -1.3928  0.2298
   73MOL0     H 9629   8.288   0.461   3.973  2.3284  0.0461  0.2467
   73MOL0     H 9630   8.327   0.310   4.130  0.9658  2.0407  0.7238
   73MOL0     H 9631   8.488   0.377   4.075  0.9593 -1.8856 -0.1747
   73MOL0     H 9632   8.483   0.139   4.140  0.3592  1.8009  0.1676
   73MOL0     H 9633   8.396   0.099   3.990 -0.7713 -0.5944  1.3418
   73MOL0     H 9634   8.802   0.178   3.860  0.1527 -0.4431  0.8025
   73MOL0     H 9635   8.047   0.164   3.681  0.0042 -1.5242 -0.6830
   73MOL0     H 9636   7.822   0.095   3.622 -0.3486 -1.8278 -0.1653
   74MOL0     O 9637   2.475   5.679   3.108  0.7387  0.1420 -0.0498
   74MOL0     C 9638   2.479   5.799   3.147  0.1290 -0.8638  0.4025
   74MOL0     O 9639   2.387   5.896   3.127 -0.4960  0.6227  0.9377
   74MOL0     C 9640   2.272   5.864   3.059  0.1059  1.0599 -0.1106
   74MOL0     C 9641   2.273   5.819   2.924  0.1353  0.1368  0.8990
   74MOL0     C 9642   2.147   5.813   2.862 -0.3888  0.3454 -0.2991
   74MOL0     C 9643   2.033   5.831   2.922  0.1691  0.2872 -0.2343
   74MOL0     O 9644   1.907   5.812   2.874 -0.1641  0.5559 -0.0752
   74MOL0     C 9645   1.887   5.875   2.749 -0.9696 -0.4810  0.0309
   74MOL0     C 9646   1.747   5.852   2.689 -0.1649 -0.5500  0.3817
   74MOL0     C 9647   1.640   5.940   2.756  0.7177 -0.6765  0.3681
   74MOL0     C 9648   1.508   5.914   2.685  0.2101  0.2288  0.1537
   74MOL0     C 9649   1.396   6.010   2.729  0.0672 -0.5598  0.5125
   74MOL0     C 9650   1.286   5.989   2.622  0.0215 -0.6355  0.4539
   74MOL0     C 9651   1.135   6.024   2.655 -0.1818  0.1728 -0.9020
   74MOL0     C 9652   1.097   5.951   2.793  0.8110  1.5969 -0.0420
   74MOL0     N 9653   1.003   5.845   2.764  0.2822  0.5919 -0.2274
   74MOL0     C 9654   1.038   5.707   2.765  1.1541 -0.2442 -0.2474
   74MOL0     C 9655   0.925   5.652   2.713 -0.4751 -1.0222  0.4756
   74MOL0     C 9656   0.908   5.509   2.676 -0.2506 -0.2567 -0.4394
   74MOL0     C 9657   0.858   5.423   2.789 -0.7125  0.6967  0.3396
   74MOL0     C 9658   0.838   5.271   2.755  0.4242 -0.2399 -0.3740
   74MOL0     C 9659   0.747   5.250   2.626 -0.0971 -0.3565 -0.5930
   74MOL0     O 9660   0.713   5.111   2.597 -0.6684 -1.1757  0.2974
   74MOL0     C 9661   0.629   5.088   2.493  0.0668 -0.3321  0.6084
   74MOL0     C 9662   0.650   4.968   2.417  0.3069 -0.2100 -0.5294
   74MOL0     C 9663   0.582   4.941   2.302  0.5941  0.2194 -0.2411
   74MOL0     C 9664   0.475   5.025   2.263  0.5267  0.1798  0.3039
   74MOL0     C 9665   0.400   5.007   2.134  0.2636  0.8656  0.3986
   74MOL0     O 9666   0.301   5.096   2.114  0.5037 -0.1648  0.2400
   74MOL0     C 9667   0.210   5.066   2.012 -0.8070 -0.3028 -0.9660
   74MOL0     C 9668   0.156   4.940   1.984  1.0845  0.3277  0.6486
   74MOL0     C 9669   0.064   4.934   1.873  0.4328 -0.6078 -0.8749
   74MOL0     C 9670   0.041   5.046   1.799 -0.7527 -0.7535 -0.2083
   74MOL0     O 9671  -0.048   5.022   1.697  0.0359 -0.3305  0.4922
   74MOL0     C 9672  -0.008   5.083   1.572  0.3874  0.2574  0.0873
   74MOL0     C 9673  -0.108   5.064   1.454  0.0969 -0.3015 -0.3892
   74MOL0     C 9674  -0.055   5.148   1.335 -0.7304 -0.6755 -1.2555
   74MOL0     C 9675   0.036   5.052   1.244  0.1127 -0.3272 -0.2171
   74MOL0     C 9676   0.154   5.135   1.173  0.1633 -0.0860  1.0317
   74MOL0     C 9677   0.238   5.045   1.077 -0.0645  0.3161 -0.4862
   74MOL0     C 9678   0.304   4.931   1.151  0.9504  1.0828  0.5700
   74MOL0     C 9679   0.456   4.950   1.155 -0.0061 -0.0138  0.3903
   74MOL0    Cl 9680   0.481   5.111   1.244 -0.0069  0.4008 -0.0070
   74MOL0     C 9681   0.108   5.169   1.826  0.7487  0.4124  0.6413
   74MOL0     C 9682   0.187   5.177   1.932 -0.1973 -0.0638 -0.0749
   74MOL0     O 9683   0.428   4.909   2.065  0.5186 -0.6848  0.1389
   74MOL0     C 9684   0.450   5.134   2.339 -0.1347 -0.1438 -0.2736
   74MOL0     C 9685   0.521   5.169   2.456 -0.3571 -0.3707 -0.4686
   74MOL0     N 9686   0.825   5.747   2.695 -0.6402 -0.4164  0.2529
   74MOL0     N 9687   0.874   5.860   2.726  0.9146  0.5425  0.5924
   74MOL0     C 9688   2.037   5.865   3.059  0.1803 -0.7292 -0.2260
   74MOL0     C 9689   2.150   5.888   3.129 -0.9485 -0.3785 -0.2110
   74MOL0     C 9690   2.609   5.842   3.200  0.0039 -0.2135 -0.4539
   74MOL0     C 9691   2.656   5.971   3.204 -0.0159 -0.8154 -0.1254
   74MOL0     C 9692   2.782   5.992   3.261  0.4663 -0.2245  0.1865
   74MOL0     C 9693   2.867   5.891   3.297 -0.0672  0.7988  0.9050
   74MOL0     O 9694   2.990   5.929   3.346 -0.8365 -0.3240  0.7535
   74MOL0     C 9695   3.054   5.838   3.428  0.5624  1.1513 -0.9370
   74MOL0     C 9696   3.135   5.924   3.528  0.7083 -0.7132 -0.3948
   74MOL0     C 9697   3.255   5.997   3.463  0.3380  0.3591  0.5096
   74MOL0     C 9698   3.336   6.081   3.564  0.8201 -0.5596  0.5477
   74MOL0     C 9699   3.467   6.102   3.495 -0.0501  0.6850  0.5206
   74MOL0     C 9700   3.570   6.128   3.429 -0.7172  0.2123  0.4564
   74MOL0     C 9701   2.824   5.762   3.294  0.2014  0.1517 -0.0578
   74MOL0     C 9702   2.695   5.740   3.251  0.5495 -0.3395 -0.7593
   74MOL0     H 9703   2.352   5.801   2.852  0.0449  1.1743  0.5338
   74MOL0     H 9704   2.151   5.770   2.763  4.7158 -0.2620 -0.0856
   74MOL0     H 9705   1.955   5.843   2.671 -3.8867 -2.7232 -1.8028
   74MOL0     H 9706   1.913   5.980   2.768 -0.4905 -0.7483  0.9239
   74MOL0     H 9707   1.723   5.746   2.685  2.3941 -1.1957  0.5341
   74MOL0     H 9708   1.757   5.888   2.585  1.7209 -2.3425 -0.1295
   74MOL0     H 9709   1.667   6.045   2.746 -1.7066 -0.0714 -0.3863
   74MOL0     H 9710   1.632   5.914   2.862  0.2030  1.2637  0.8274
   74MOL0     H 9711   1.520   5.926   2.577 -0.6599 -0.3971 -0.0216
   74MOL0     H 9712   1.494   5.809   2.712  0.0747  0.7962  2.4814
   74MOL0     H 9713   1.431   6.114   2.727 -1.8442  0.1423  1.7060
   74MOL0     H 9714   1.380   5.980   2.832  1.0642  0.8721  1.1141
   74MOL0     H 9715   1.275   5.882   2.598 -0.1440 -0.0432 -2.4916
   74MOL0     H 9716   1.312   6.035   2.526 -0.6466 -2.7417 -0.8152
   74MOL0     H 9717   1.133   6.134   2.654 -2.7371  0.1893 -2.7327
   74MOL0     H 9718   1.064   5.990   2.580  0.3486 -3.0779 -0.0820
   74MOL0     H 9719   1.047   6.017   2.865  1.5509  0.6264  1.4165
   74MOL0     H 9720   1.185   5.909   2.842 -0.1123  0.1355  0.4167
   74MOL0     H 9721   1.137   5.665   2.778  0.5253 -1.4378  0.9261
   74MOL0     H 9722   0.997   5.468   2.627 -0.1732 -0.8268  0.1550
   74MOL0     H 9723   0.832   5.490   2.600 -2.0463 -1.0491  1.4531
   74MOL0     H 9724   0.761   5.461   2.821 -0.6498  0.8512  0.3432
   74MOL0     H 9725   0.929   5.440   2.870 -1.9852  0.7460  1.4700
   74MOL0     H 9726   0.939   5.229   2.748  1.7856  2.5404  0.6638
   74MOL0     H 9727   0.781   5.224   2.835 -1.4115 -0.7139 -1.8985
   74MOL0     H 9728   0.806   5.286   2.542  1.8302  2.0870  1.6135
   74MOL0     H 9729   0.655   5.310   2.633  0.0249 -0.1840 -0.4541
   74MOL0     H 9730   0.716   4.893   2.461 -2.2417 -1.5703  1.2308
   74MOL0     H 9731   0.594   4.852   2.241  0.1881 -1.9983  2.6735
   74MOL0     H 9732   0.181   4.853   2.044 -4.3373 -2.6708 -0.8179
   74MOL0     H 9733   0.020   4.836   1.858  0.6029 -1.0981  1.3907
   74MOL0     H 9734   0.086   5.036   1.540  0.9351  0.5814  1.1910
   74MOL0     H 9735   0.007   5.190   1.585 -0.0622  0.2981  0.3092
   74MOL0     H 9736  -0.198   5.121   1.479  0.2805 -0.1856 -0.0006
   74MOL0     H 9737  -0.124   4.958   1.430  0.5179 -0.7185  1.0889
   74MOL0     H 9738  -0.003   5.234   1.378 -0.9203 -0.2691 -1.8209
   74MOL0     H 9739  -0.136   5.203   1.285 -2.9330  2.7511  4.9916
   74MOL0     H 9740   0.078   4.975   1.310  1.4460  1.5633  1.2652
   74MOL0     H 9741  -0.029   5.006   1.169 -1.7767  2.4541 -0.4161
   74MOL0     H 9742   0.224   5.163   1.252  3.2252 -3.0589 -0.3483
   74MOL0     H 9743   0.116   5.215   1.110  0.7261 -1.4867 -1.2137
   74MOL0     H 9744   0.313   5.110   1.030 -1.3274  2.7116  0.6243
   74MOL0     H 9745   0.187   5.015   0.985 -0.0532 -1.4232  0.0538
   74MOL0     H 9746   0.275   4.941   1.256  0.5776 -1.5433  0.7719
   74MOL0     H 9747   0.267   4.838   1.107  0.1359  0.5862  2.2409
   74MOL0     H 9748   0.504   4.955   1.056 -1.4624 -2.1126 -0.5009
   74MOL0     H 9749   0.490   4.867   1.218  0.4878  0.5314  0.8511
   74MOL0     H 9750   0.078   5.252   1.762 -3.5403 -1.5597 -0.2400
   74MOL0     H 9751   0.239   5.268   1.962  0.9513  0.1308 -2.4465
   74MOL0     H 9752   0.372   5.204   2.309  0.3388  1.3859  1.8834
   74MOL0     H 9753   0.503   5.268   2.496  0.4899 -0.2153 -0.4560
   74MOL0     H 9754   1.943   5.893   3.105  0.1219 -4.2659  2.2357
   74MOL0     H 9755   2.150   5.910   3.235 -2.3215 -2.5330  0.3172
   74MOL0     H 9756   2.585   6.048   3.175  1.3837  1.2361  1.5650
   74MOL0     H 9757   2.823   6.090   3.282  1.3278 -0.6400  0.4644
   74MOL0     H 9758   3.115   5.763   3.375  0.3108 -1.6468  2.3497
   74MOL0     H 9759   2.984   5.781   3.490 -0.8703 -0.0199 -3.4889
   74MOL0     H 9760   3.081   5.994   3.592  1.3380 -1.4540  0.9764
   74MOL0     H 9761   3.171   5.855   3.605 -1.6725 -3.0872 -1.2413
   74MOL0     H 9762   3.229   6.069   3.384 -0.4549 -0.2080  0.2433
   74MOL0     H 9763   3.315   5.920   3.413 -0.5980  1.8712 -3.3474
   74MOL0     H 9764   3.279   6.169   3.595 -1.3201 -1.6724  0.0222
   74MOL0     H 9765   3.354   6.024   3.655 -0.1424  2.0898  2.5108
   74MOL0     H 9766   3.660   6.155   3.379 -2.2870  0.7009 -2.3282
   74MOL0     H 9767   2.890   5.680   3.321 -0.5178  0.3704  2.6693
   74MOL0     H 9768   2.669   5.635   3.250 -0.4932 -0.0893 -2.1492
   75MOL0     O 9769   8.289   8.409   4.710  0.1995  0.2237  0.2289
   75MOL0     C 9770   8.354   8.308   4.738 -0.8979 -0.3546 -0.2398
   75MOL0     O 9771   8.379   8.201   4.664 -0.5883 -0.4618  1.2141
   75MOL0     C 9772   8.314   8.175   4.545 -0.7825 -0.3680 -0.9108
   75MOL0     C 9773   8.205   8.076   4.544 -0.3499  0.1848  0.8641
   75MOL0     C 9774   8.143   8.047   4.417 -0.2415 -0.0853 -0.2003
   75MOL0     C 9775   8.191   8.113   4.307 -0.0023 -0.3212 -0.1235
   75MOL0     O 9776   8.123   8.098   4.189 -0.0294  0.5196  0.2634
   75MOL0     C 9777   8.018   8.190   4.174  0.0838 -0.2429 -0.2626
   75MOL0     C 9778   7.887   8.105   4.148 -0.5085 -0.1392 -0.0603
   75MOL0     C 9779   7.804   8.056   4.268  0.3038 -0.0689 -0.8498
   75MOL0     C 9780   7.663   8.015   4.240  0.4957  0.4781 -0.3264
   75MOL0     C 9781   7.583   7.993   4.366 -0.2273  0.0750  0.1471
   75MOL0     C 9782   7.438   7.957   4.335  0.2727  0.0729 -0.0859
   75MOL0     C 9783   7.371   8.054   4.234  0.3132  0.0052 -0.5455
   75MOL0     C 9784   7.222   8.026   4.207 -0.4975 -0.1345  0.3676
   75MOL0     N 9785   7.193   7.895   4.144  0.1053  0.4628 -0.4106
   75MOL0     C 9786   7.236   7.850   4.022  0.5870 -0.0651  0.1932
   75MOL0     C 9787   7.175   7.730   4.003  0.0617 -0.9785  0.3523
   75MOL0     C 9788   7.183   7.654   3.872  0.5181  0.2278 -0.8851
   75MOL0     C 9789   7.239   7.509   3.893  0.4309 -0.0767 -0.4647
   75MOL0     C 9790   7.263   7.426   3.771 -0.3571  0.0387 -0.4480
   75MOL0     C 9791   7.361   7.474   3.660  0.0766 -0.3142 -1.0414
   75MOL0     O 9792   7.391   7.358   3.583 -0.6732  0.2246 -0.2232
   75MOL0     C 9793   7.488   7.352   3.487 -0.2529 -1.3273  0.0297
   75MOL0     C 9794   7.554   7.448   3.424 -0.8128  0.0801  0.4846
   75MOL0     C 9795   7.665   7.416   3.343 -0.7090 -0.1026 -0.5876
   75MOL0     C 9796   7.714   7.286   3.320 -0.0677 -0.0860 -0.5834
   75MOL0     C 9797   7.832   7.253   3.234 -0.1452  0.9691 -1.0644
   75MOL0     O 9798   7.909   7.361   3.182  0.1211  0.0532 -0.3973
   75MOL0     C 9799   8.006   7.345   3.081 -0.9589 -0.0948 -1.0700
   75MOL0     C 9800   8.034   7.457   3.000 -0.7081  0.1235  0.4403
   75MOL0     C 9801   8.135   7.445   2.899 -0.5819 -0.4083 -0.1445
   75MOL0     C 9802   8.210   7.326   2.888 -0.4659  0.2369 -0.6281
   75MOL0     O 9803   8.306   7.311   2.790  0.2120 -0.3000  0.2456
   75MOL0     C 9804   8.434   7.367   2.821  0.0759  0.8166 -0.6334
   75MOL0     C 9805   8.523   7.372   2.702 -0.3818 -0.3219 -0.9211
   75MOL0     C 9806   8.669   7.353   2.750  0.1444 -1.1650 -0.6334
   75MOL0     C 9807   8.769   7.436   2.664  1.1859  0.5472  0.3967
   75MOL0     C 9808   8.910   7.421   2.717  0.1957  0.3592 -0.5542
   75MOL0     C 9809   9.000   7.497   2.610  0.4067  0.2879 -0.7352
   75MOL0     C 9810   9.147   7.494   2.636  0.0518  0.4887 -0.7841
   75MOL0     C 9811   9.219   7.370   2.585 -0.2034  1.0494  0.4260
   75MOL0    Cl 9812   9.390   7.411   2.573  0.0326  0.3422  0.0518
   75MOL0     C 9813   8.178   7.221   2.976 -0.6977  0.5203  0.1797
   75MOL0     C 9814   8.076   7.227   3.060  0.0927  1.7525 -0.0212
   75MOL0     O 9815   7.848   7.128   3.215 -0.7227 -0.3336 -0.7337
   75MOL0     C 9816   7.641   7.192   3.382 -0.1177  0.1544 -1.4864
   75MOL0     C 9817   7.528   7.223   3.457 -0.1273 -0.2253  0.6075
   75MOL0     N 9818   7.132   7.680   4.125  0.1766 -0.6961  0.4938
   75MOL0     N 9819   7.140   7.781   4.209 -0.1139  0.3026 -0.2512
   75MOL0     C 9820   8.301   8.189   4.312 -0.1260 -0.3608 -1.1192
   75MOL0     C 9821   8.359   8.238   4.427  0.5583 -0.2872 -0.2546
   75MOL0     C 9822   8.445   8.312   4.856 -0.1343  0.0044  0.0331
   75MOL0     C 9823   8.547   8.217   4.873 -0.7394  0.9298  0.5259
   75MOL0     C 9824   8.630   8.217   4.990 -0.2640 -0.7069  0.6987
   75MOL0     C 9825   8.618   8.313   5.087 -0.2667 -0.0444  0.1782
   75MOL0     O 9826   8.693   8.293   5.195 -0.0253 -0.0530 -0.4971
   75MOL0     C 9827   8.681   8.380   5.303 -0.3710  0.2627 -0.0329
   75MOL0     C 9828   8.768   8.353   5.423 -1.0171  0.6323  0.3259
   75MOL0     C 9829   8.865   8.471   5.469 -0.4136 -0.1501 -0.0714
   75MOL0     C 9830   8.968   8.423   5.570  0.3394  1.0007 -0.5476
   75MOL0     C 9831   9.051   8.521   5.624 -0.1095  0.6147 -0.1511
   75MOL0     C 9832   9.130   8.599   5.658 -0.5141 -0.7642  0.2926
   75MOL0     C 9833   8.513   8.403   5.070  0.0500 -0.0100  0.7564
   75MOL0     C 9834   8.423   8.400   4.957  0.3290 -0.5715 -0.0869
   75MOL0     H 9835   8.184   8.024   4.637  1.5518  1.4000  2.0187
   75MOL0     H 9836   8.064   7.972   4.420  0.0807 -0.4035  0.9989
   75MOL0     H 9837   8.042   8.241   4.080  1.0111 -0.3860 -0.1109
   75MOL0     H 9838   8.005   8.248   4.266 -0.9914  0.0132 -0.5602
   75MOL0     H 9839   7.911   8.013   4.094 -0.5138  0.4392 -1.0656
   75MOL0     H 9840   7.828   8.161   4.075  0.5929 -1.2302 -1.8620
   75MOL0     H 9841   7.803   8.134   4.345  1.0089 -1.0937  0.2339
   75MOL0     H 9842   7.863   7.972   4.304  1.8935  0.6516 -1.6386
   75MOL0     H 9843   7.635   8.100   4.176  0.3271  2.6920  2.4846
   75MOL0     H 9844   7.652   7.925   4.178 -2.9630  0.4331  0.1493
   75MOL0     H 9845   7.586   8.087   4.422  0.8005  1.4396 -2.0566
   75MOL0     H 9846   7.644   7.915   4.413 -0.5958  0.9085  2.1146
   75MOL0     H 9847   7.382   7.974   4.428  0.1151  0.1224 -0.1886
   75MOL0     H 9848   7.426   7.854   4.301  1.1983 -0.0866  0.0418
   75MOL0     H 9849   7.379   8.154   4.277  2.9932 -0.8440  1.1655
   75MOL0     H 9850   7.418   8.036   4.137 -3.2344  3.2267 -3.1714
   75MOL0     H 9851   7.185   8.101   4.136 -0.1168 -0.5672 -0.3017
   75MOL0     H 9852   7.167   8.021   4.301 -1.1978 -4.2025 -0.0621
   75MOL0     H 9853   7.295   7.902   3.947  0.1784 -0.5545 -0.4746
   75MOL0     H 9854   7.253   7.703   3.803  1.8065  0.3702  0.4595
   75MOL0     H 9855   7.081   7.667   3.836  0.5298  3.2797 -0.1617
   75MOL0     H 9856   7.196   7.455   3.978  1.3706  1.7605  1.2732
   75MOL0     H 9857   7.335   7.527   3.943 -0.4921  2.0615  0.6493
   75MOL0     H 9858   7.311   7.333   3.802 -0.8267 -0.4195 -1.0773
   75MOL0     H 9859   7.170   7.401   3.718 -0.0925  3.1610 -2.6563
   75MOL0     H 9860   7.457   7.498   3.707 -0.3766 -0.3988 -0.0339
   75MOL0     H 9861   7.328   7.560   3.600 -2.2980  0.5735  1.3320
   75MOL0     H 9862   7.533   7.554   3.434 -1.3228 -0.0411  0.7026
   75MOL0     H 9863   7.725   7.495   3.300  1.9006 -1.0050  1.1123
   75MOL0     H 9864   7.961   7.537   3.000 -2.2283 -1.2047 -0.5955
   75MOL0     H 9865   8.169   7.525   2.833 -1.7178 -0.4956 -0.8631
   75MOL0     H 9866   8.470   7.300   2.900 -1.7873 -0.8948 -1.1313
   75MOL0     H 9867   8.422   7.467   2.862  2.2517  1.3410 -1.1751
   75MOL0     H 9868   8.489   7.458   2.643  1.9430  1.0919 -0.3415
   75MOL0     H 9869   8.513   7.293   2.628  1.0535 -1.7267  0.3273
   75MOL0     H 9870   8.692   7.246   2.755  1.5702 -0.8521 -0.0375
   75MOL0     H 9871   8.687   7.388   2.851 -0.1969  2.3489 -1.6577
   75MOL0     H 9872   8.760   7.394   2.563 -0.7339 -0.5540  0.9555
   75MOL0     H 9873   8.746   7.543   2.661  1.2218  0.5395 -1.0738
   75MOL0     H 9874   8.928   7.313   2.717  2.0200  0.6137  0.4996
   75MOL0     H 9875   8.920   7.447   2.823  0.4090 -3.1033  0.4168
   75MOL0     H 9876   8.965   7.600   2.621 -0.0631 -0.1168  2.6188
   75MOL0     H 9877   8.976   7.469   2.507  1.7720 -0.6001 -0.8382
   75MOL0     H 9878   9.189   7.583   2.588 -0.8467  0.6240 -1.3589
   75MOL0     H 9879   9.164   7.523   2.740 -1.6714  2.9784 -1.1087
   75MOL0     H 9880   9.188   7.327   2.489 -2.9666 -2.5524  2.6763
   75MOL0     H 9881   9.218   7.284   2.653 -0.3111 -0.0099 -0.8679
   75MOL0     H 9882   8.238   7.132   2.963 -1.2668 -0.0092  1.0470
   75MOL0     H 9883   8.045   7.135   3.107 -1.8334  0.6603 -3.0763
   75MOL0     H 9884   7.666   7.087   3.372  2.4391  0.4197  1.0042
   75MOL0     H 9885   7.462   7.149   3.499 -2.4347  0.7793 -1.0220
   75MOL0     H 9886   8.355   8.222   4.223 -0.6237  1.3410 -0.8352
   75MOL0     H 9887   8.444   8.305   4.428  1.5368 -1.4840  0.2734
   75MOL0     H 9888   8.570   8.130   4.812  1.5382  0.6757  1.6133
   75MOL0     H 9889   8.710   8.145   4.994 -0.4503 -0.8705  2.2228
   75MOL0     H 9890   8.577   8.376   5.337 -0.2533  2.0862  0.6102
   75MOL0     H 9891   8.686   8.483   5.269 -1.0802  0.6169  0.8901
   75MOL0     H 9892   8.703   8.324   5.506  0.4750 -3.3029  0.3094
   75MOL0     H 9893   8.830   8.267   5.398 -0.2036  2.2464 -4.3231
   75MOL0     H 9894   8.788   8.537   5.509 -0.8600  0.7829 -2.3471
   75MOL0     H 9895   8.913   8.519   5.384 -1.0696  2.0811  0.7582
   75MOL0     H 9896   8.918   8.366   5.648  0.1966 -0.4464 -1.6506
   75MOL0     H 9897   9.036   8.370   5.502  0.2235  3.1332 -2.4499
   75MOL0     H 9898   9.193   8.679   5.691  1.9776 -2.2358 -0.5744
   75MOL0     H 9899   8.482   8.473   5.147  0.6263 -3.5491  4.5412
   75MOL0     H 9900   8.337   8.467   4.954  0.7030  0.2334  3.2947
   76MOL0     O 9901   3.366   6.006   4.732 -0.5891 -0.1602  0.4735
   76MOL0     C 9902   3.450   5.928   4.778  0.0996  0.1438 -0.5328
   76MOL0     O 9903   3.425   5.830   4.872  0.8184 -0.4799  0.6392
   76MOL0     C 9904   3.290   5.818   4.893  0.6633  0.4639  0.2694
   76MOL0     C 9905   3.214   5.916   4.952  1.0930  0.0959 -1.4656
   76MOL0     C 9906   3.071   5.905   4.959 -0.6278 -0.6276 -0.2841
   76MOL0     C 9907   3.007   5.792   4.912 -0.1575  0.0523 -0.5070
   76MOL0     O 9908   2.867   5.792   4.924 -0.1041 -0.6781 -0.7685
   76MOL0     C 9909   2.782   5.699   4.864 -0.4248 -0.0311 -0.7142
   76MOL0     C 9910   2.646   5.736   4.913  0.5537  0.2102 -0.9114
   76MOL0     C 9911   2.538   5.645   4.856 -0.6404 -0.1663 -0.0664
   76MOL0     C 9912   2.399   5.685   4.897 -0.1609 -0.9671 -0.2174
   76MOL0     C 9913   2.290   5.604   4.830 -0.2833  0.4952 -0.2543
   76MOL0     C 9914   2.284   5.467   4.898  0.7165  0.4702  0.5674
   76MOL0     C 9915   2.167   5.371   4.825  0.3488 -0.0667 -0.4208
   76MOL0     C 9916   2.030   5.433   4.777 -0.1947 -0.9234 -0.3356
   76MOL0     N 9917   1.967   5.508   4.886  0.0816  0.7867  1.0358
   76MOL0     C 9918   1.899   5.440   4.985  0.4019  0.6913  0.0684
   76MOL0     C 9919   1.834   5.533   5.062  0.0953 -0.6473 -0.3258
   76MOL0     C 9920   1.734   5.508   5.173  0.4168  0.3332  0.4550
   76MOL0     C 9921   1.607   5.600   5.160 -0.0844  0.0108 -0.2239
   76MOL0     C 9922   1.591   5.687   5.286 -0.3792 -0.6196 -0.1143
   76MOL0     C 9923   1.555   5.608   5.425 -0.7341  0.6267 -0.2565
   76MOL0     O 9924   1.437   5.524   5.407 -0.3834 -0.4204 -0.3717
   76MOL0     C 9925   1.316   5.592   5.396  0.0566  1.3632 -0.1428
   76MOL0     C 9926   1.217   5.507   5.345 -0.3401 -1.0502  0.2408
   76MOL0     C 9927   1.078   5.540   5.357  0.1348 -0.3024 -0.9468
   76MOL0     C 9928   1.042   5.666   5.400  0.2357 -0.4011  0.3533
   76MOL0     C 9929   0.898   5.703   5.428  0.6317  0.6327  0.5647
   76MOL0     O 9930   0.815   5.591   5.428  0.0493 -0.3982  0.1083
   76MOL0     C 9931   0.681   5.614   5.429  0.0719  1.2247 -0.6848
   76MOL0     C 9932   0.617   5.706   5.519  0.7706  0.3371 -0.4799
   76MOL0     C 9933   0.480   5.735   5.505 -0.3177 -0.1325 -0.5087
   76MOL0     C 9934   0.407   5.668   5.412 -0.5105  0.0834 -0.3645
   76MOL0     O 9935   0.274   5.708   5.413  0.5366  0.1190 -0.1846
   76MOL0     C 9936   0.174   5.615   5.364  0.1601  0.1094 -0.0753
   76MOL0     C 9937   0.084   5.572   5.476  0.0514  0.1354 -0.1345
   76MOL0     C 9938  -0.034   5.497   5.414 -0.0101 -0.1386  0.2144
   76MOL0     C 9939  -0.127   5.584   5.331 -0.7642  0.6727 -0.5272
   76MOL0     C 9940  -0.209   5.675   5.418  0.6010  1.1546 -1.0262
   76MOL0     C 9941  -0.297   5.762   5.343 -0.1504 -0.2940  0.1072
   76MOL0     C 9942  -0.370   5.870   5.432  0.4689  0.5934  0.6923
   76MOL0     C 9943  -0.401   6.000   5.355 -0.5722  0.4589  0.3929
   76MOL0    Cl 9944  -0.515   6.122   5.436  0.3076 -0.7257  0.3477
   76MOL0     C 9945   0.469   5.574   5.327  0.0978 -0.8923 -0.1190
   76MOL0     C 9946   0.609   5.547   5.335 -0.8027 -0.1759 -0.2963
   76MOL0     O 9947   0.861   5.823   5.445 -0.3537  0.7387  0.2082
   76MOL0     C 9948   1.146   5.764   5.439  0.4066  0.5058  0.7507
   76MOL0     C 9949   1.280   5.724   5.446 -0.8513 -1.2560  0.5025
   76MOL0     N 9950   1.870   5.665   5.005 -0.0950  0.8866  0.3578
   76MOL0     N 9951   1.949   5.642   4.909  1.3193  0.3386 -0.5466
   76MOL0     C 9952   3.082   5.691   4.863  0.9802  0.9534 -0.2130
   76MOL0     C 9953   3.221   5.704   4.852 -0.1142  0.3289  1.2473
   76MOL0     C 9954   3.592   5.937   4.735  0.5564 -0.4572  0.3395
   76MOL0     C 9955   3.689   5.883   4.812  0.2334  1.3882 -0.0342
   76MOL0     C 9956   3.823   5.892   4.782  0.4669 -0.0263 -0.3963
   76MOL0     C 9957   3.867   5.947   4.665  0.0274  0.2370 -0.1487
   76MOL0     O 9958   3.999   5.961   4.638  0.4602  0.2601 -0.3019
   76MOL0     C 9959   4.094   5.856   4.668  0.7839 -0.0107  0.7860
   76MOL0     C 9960   4.214   5.894   4.589  0.4955  0.3106 -0.8986
   76MOL0     C 9961   4.309   5.770   4.573 -0.1805 -0.4390  0.1078
   76MOL0     C 9962   4.246   5.645   4.508 -0.2944 -0.0967 -0.7970
   76MOL0     C 9963   4.202   5.670   4.377  0.1061 -0.7961 -0.1937
   76MOL0     C 9964   4.152   5.715   4.280 -0.5981  0.2178  0.0085
   76MOL0     C 9965   3.775   5.990   4.578  0.0082  0.1595  1.3974
   76MOL0     C 9966   3.637   5.993   4.611 -0.3292 -0.7950 -0.3282
   76MOL0     H 9967   3.258   6.004   4.997 -0.1570  0.1098 -0.1967
   76MOL0     H 9968   3.003   5.975   5.008 -0.9187 -0.2917 -1.1373
   76MOL0     H 9969   2.803   5.597   4.898 -2.1801  0.0057  0.6170
   76MOL0     H 9970   2.791   5.709   4.755 -0.5049 -1.2757 -0.8494
   76MOL0     H 9971   2.629   5.843   4.900 -2.4057  0.1476  1.2466
   76MOL0     H 9972   2.634   5.727   5.022 -0.9857  2.1418 -0.8580
   76MOL0     H 9973   2.570   5.542   4.875 -1.0457 -0.6348 -1.7990
   76MOL0     H 9974   2.537   5.649   4.747 -1.5030  0.3626 -0.0436
   76MOL0     H 9975   2.391   5.690   5.006 -0.0203  1.3861 -0.2599
   76MOL0     H 9976   2.391   5.788   4.862  0.0054 -0.7332  0.4095
   76MOL0     H 9977   2.310   5.606   4.722  1.0091 -0.8192 -0.0663
   76MOL0     H 9978   2.194   5.658   4.838  0.8652  2.5270  0.5237
   76MOL0     H 9979   2.259   5.466   5.004  2.5110  2.0986  1.0799
   76MOL0     H 9980   2.377   5.409   4.893 -1.6680 -3.7012 -0.8787
   76MOL0     H 9981   2.208   5.325   4.735 -0.0881 -1.1847 -0.0666
   76MOL0     H 9982   2.151   5.288   4.896  0.8650 -1.7469 -2.1830
   76MOL0     H 9983   1.966   5.352   4.740 -0.3220 -0.9320 -0.0931
   76MOL0     H 9984   2.049   5.497   4.690  0.6357 -0.3542  0.2523
   76MOL0     H 9985   1.873   5.335   4.994 -1.4227  0.7616 -2.9447
   76MOL0     H 9986   1.776   5.515   5.274  1.8987 -0.3768 -0.0854
   76MOL0     H 9987   1.701   5.404   5.162 -2.4284  1.0905  0.9463
   76MOL0     H 9988   1.514   5.541   5.162 -0.2936  0.3279 -0.4656
   76MOL0     H 9989   1.608   5.660   5.069 -2.3238 -2.5973 -2.1586
   76MOL0     H 9990   1.681   5.748   5.292 -1.2174  0.5656  0.8767
   76MOL0     H 9991   1.510   5.759   5.269  0.5073  1.3453  3.1590
   76MOL0     H 9992   1.543   5.681   5.506  0.7433  0.6832 -0.0643
   76MOL0     H 9993   1.646   5.551   5.446 -1.2366 -0.8368 -1.8137
   76MOL0     H 9994   1.246   5.407   5.312  2.5935 -1.0308  2.4209
   76MOL0     H 9995   1.004   5.463   5.338 -1.1080  1.1983 -2.5263
   76MOL0     H 9996   0.676   5.744   5.601 -0.7403 -0.7005  1.1526
   76MOL0     H 9997   0.430   5.797   5.580 -1.2547 -3.6571  2.0474
   76MOL0     H 9998   0.211   5.527   5.310  0.7504 -1.0277  2.0206
   76MOL0     H 9999   0.122   5.668   5.285 -1.0357  1.6536  1.6586
   76MOL0     H10000   0.053   5.658   5.535  1.2731  0.4909  0.0078
   76MOL0     H10001   0.140   5.513   5.549  3.3673 -0.3218 -2.7628
   76MOL0     H10002  -0.091   5.446   5.492  1.1125  0.7616  1.6761
   76MOL0     H10003   0.001   5.423   5.341 -1.8388 -0.7057 -0.1427
   76MOL0     H10004  -0.072   5.644   5.258 -0.0306  1.4212  0.6049
   76MOL0     H10005  -0.196   5.516   5.280  2.7321 -2.4431 -1.6250
   76MOL0     H10006  -0.152   5.736   5.488 -0.9983  0.3671  1.0847
   76MOL0     H10007  -0.270   5.606   5.477  5.9306 -1.5785  2.0943
   76MOL0     H10008  -0.371   5.694   5.299 -3.6957  3.3593 -0.1926
   76MOL0     H10009  -0.239   5.810   5.264 -1.8233 -0.1347 -1.0665
   76MOL0     H10010  -0.466   5.825   5.458 -0.6230  0.5156 -2.9911
   76MOL0     H10011  -0.317   5.894   5.526  0.1093  3.9340  0.1811
   76MOL0     H10012  -0.453   5.981   5.261 -0.7869  0.6851  0.4694
   76MOL0     H10013  -0.307   6.052   5.332 -1.8836  3.3135  1.1965
   76MOL0     H10014   0.422   5.538   5.236  3.3524  1.2074 -2.9090
   76MOL0     H10015   0.645   5.474   5.263  1.4846 -1.5782  2.1174
   76MOL0     H10016   1.104   5.855   5.480  1.4206  0.2904  2.3581
   76MOL0     H10017   1.351   5.794   5.490 -1.0978 -2.0146  2.1692
   76MOL0     H10018   3.030   5.602   4.828  2.2795  0.4242 -0.8717
   76MOL0     H10019   3.284   5.630   4.804  1.0646  1.1056  1.5543
   76MOL0     H10020   3.660   5.829   4.902  0.3508  1.3846  0.0016
   76MOL0     H10021   3.884   5.885   4.871  0.2510 -0.6999 -0.2981
   76MOL0     H10022   4.056   5.765   4.621  0.4679  0.6288 -0.2073
   76MOL0     H10023   4.113   5.841   4.775 -1.6195 -1.1667  1.1088
   76MOL0     H10024   4.182   5.927   4.490  2.2489  0.4827 -1.4533
   76MOL0     H10025   4.267   5.981   4.627 -3.0981  1.8329  1.0649
   76MOL0     H10026   4.360   5.745   4.666  0.0791  2.9936  1.0291
   76MOL0     H10027   4.385   5.806   4.503 -2.0277  0.7824 -1.3733
   76MOL0     H10028   4.313   5.559   4.513  0.4629  0.3179 -2.6988
   76MOL0     H10029   4.155   5.613   4.557  0.2229 -0.0566  0.2179
   76MOL0     H10030   4.084   5.752   4.205  1.2454  1.9409 -0.9158
   76MOL0     H10031   3.813   6.024   4.482 -2.6740  1.2535  0.6261
   76MOL0     H10032   3.565   6.014   4.532 -0.2226 -0.5561 -0.3622
   77MOL0     O10033  10.040   3.794   4.661  0.6326  0.9549  0.2951
   77MOL0     C10034  10.099   3.858   4.747 -1.0713 -0.1843  0.2523
   77MOL0     O10035  10.045   3.917   4.864  0.2437 -0.0273  0.0427
   77MOL0     C10036   9.908   3.903   4.877 -0.7144  0.1441  0.4183
   77MOL0     C10037   9.837   4.002   4.805 -0.5146  0.0300 -0.7243
   77MOL0     C10038   9.700   4.007   4.822  0.4857 -1.0197  0.7657
   77MOL0     C10039   9.632   3.914   4.901 -0.0364  0.1255 -0.6960
   77MOL0     O10040   9.496   3.917   4.909  0.1514 -1.0161  0.3076
   77MOL0     C10041   9.421   3.844   5.014  0.8267  0.1234 -0.4393
   77MOL0     C10042   9.264   3.864   5.001  0.0114 -0.3160 -0.1860
   77MOL0     C10043   9.181   3.822   5.127 -0.0250 -0.1352 -0.3778
   77MOL0     C10044   9.197   3.674   5.173  1.0183 -1.0232  0.3116
   77MOL0     C10045   9.119   3.640   5.303 -0.0236 -0.5232  0.0188
   77MOL0     C10046   8.976   3.624   5.268  0.3548  0.6463  0.2740
   77MOL0     C10047   8.887   3.599   5.399 -0.0875 -0.1163  0.0117
   77MOL0     C10048   8.733   3.594   5.384 -0.4601 -0.0971 -0.1123
   77MOL0     N10049   8.695   3.479   5.289 -0.6285  0.2862  0.7090
   77MOL0     C10050   8.645   3.488   5.162  0.8105  1.1954 -1.0828
   77MOL0     C10051   8.639   3.358   5.127 -0.1231 -0.1497  0.8823
   77MOL0     C10052   8.590   3.311   4.991 -0.4441 -0.8468 -0.0820
   77MOL0     C10053   8.440   3.278   4.988 -0.3392 -0.4180 -0.4559
   77MOL0     C10054   8.348   3.394   5.045 -0.3273  0.2570  0.6490
   77MOL0     C10055   8.198   3.366   5.028 -0.4100  0.7363  0.7307
   77MOL0     O10056   8.123   3.476   5.071  0.4299 -0.2767 -0.7796
   77MOL0     C10057   7.983   3.472   5.045 -0.0449 -0.0987  0.1543
   77MOL0     C10058   7.907   3.355   5.021  0.2128  0.5084 -0.1505
   77MOL0     C10059   7.774   3.359   4.984  0.3726 -0.3057  0.1539
   77MOL0     C10060   7.704   3.484   4.992  0.4833  0.3033  0.0716
   77MOL0     C10061   7.569   3.488   4.934  0.0708  0.9428 -0.1477
   77MOL0     O10062   7.507   3.367   4.906 -0.4210 -0.5861 -0.3303
   77MOL0     C10063   7.433   3.366   4.791 -0.2291 -0.9324 -0.4544
   77MOL0     C10064   7.492   3.297   4.688  0.7414 -0.9970  1.2804
   77MOL0     C10065   7.407   3.279   4.576 -0.5779 -0.1614  0.9435
   77MOL0     C10066   7.277   3.324   4.559 -0.1247  0.5652  0.3185
   77MOL0     O10067   7.217   3.295   4.437  0.5488  0.3622 -0.1592
   77MOL0     C10068   7.164   3.155   4.428 -0.0931 -0.5575  0.3053
   77MOL0     C10069   7.006   3.155   4.438 -0.9135  0.1816 -0.0039
   77MOL0     C10070   6.936   3.196   4.307 -0.3676  0.5669  0.9433
   77MOL0     C10071   6.787   3.211   4.319  0.9336  0.3118  1.3228
   77MOL0     C10072   6.721   3.307   4.207  0.3557 -0.9454 -0.0298
   77MOL0     C10073   6.581   3.309   4.218  0.1539  0.3522  0.1506
   77MOL0     C10074   6.520   3.164   4.212 -0.0144 -0.4691 -0.6533
   77MOL0     C10075   6.374   3.170   4.154 -0.0883 -0.0914 -0.5032
   77MOL0    Cl10076   6.260   3.287   4.225  0.1209  0.7221  0.3919
   77MOL0     C10077   7.213   3.390   4.671 -0.1778 -0.4122  0.5859
   77MOL0     C10078   7.296   3.400   4.784 -0.2825 -0.2086 -1.0512
   77MOL0     O10079   7.524   3.596   4.905 -0.8367  0.1575  0.0007
   77MOL0     C10080   7.777   3.593   5.044  0.4360 -0.0239  0.2208
   77MOL0     C10081   7.914   3.588   5.066 -0.2334  0.5139  0.7579
   77MOL0     N10082   8.692   3.279   5.229  0.4765  0.6308  0.2960
   77MOL0     N10083   8.720   3.349   5.330  0.4203 -0.9372 -0.2376
   77MOL0     C10084   9.704   3.813   4.969 -0.3865  0.3535 -0.5293
   77MOL0     C10085   9.845   3.813   4.960  0.6056 -0.7360 -0.1024
   77MOL0     C10086  10.249   3.872   4.724  0.2338 -0.2151  0.6920
   77MOL0     C10087  10.323   3.947   4.813  0.4296 -0.6023  0.4942
   77MOL0     C10088  10.459   3.978   4.784  0.5114 -0.1226  0.3445
   77MOL0     C10089  10.525   3.922   4.678 -0.2352  0.2452  0.0223
   77MOL0     O10090  10.658   3.948   4.664  0.0777  0.5062  0.0834
   77MOL0     C10091  10.712   3.940   4.527  0.4739  0.0551  0.1559
   77MOL0     C10092  10.855   4.001   4.533  0.6726  0.1094  0.1888
   77MOL0     C10093  10.959   3.957   4.420  0.2433 -0.2152 -0.7032
   77MOL0     C10094  10.901   3.995   4.282 -0.9366  0.0904 -0.1146
   77MOL0     C10095  11.021   3.987   4.196 -0.1171  0.7704 -0.0138
   77MOL0     C10096  11.103   3.978   4.111 -0.7892 -0.5519 -0.0945
   77MOL0     C10097  10.451   3.843   4.588 -1.0008  0.0477  0.6477
   77MOL0     C10098  10.316   3.817   4.609  0.1989  0.0734 -0.4410
   77MOL0     H10099   9.884   4.069   4.733 -1.9517  2.3357  0.3426
   77MOL0     H10100   9.641   4.087   4.778 -1.0618 -2.8593 -0.6717
   77MOL0     H10101   9.458   3.879   5.111  1.4272  1.1345 -1.0169
   77MOL0     H10102   9.444   3.738   5.011 -1.1512 -0.3523 -0.1929
   77MOL0     H10103   9.232   3.803   4.916  2.1179 -0.6434 -0.8159
   77MOL0     H10104   9.231   3.967   4.986  1.3197  0.0859 -0.4918
   77MOL0     H10105   9.075   3.826   5.098  0.1609 -1.5214 -1.3514
   77MOL0     H10106   9.208   3.882   5.215  0.4161 -2.7212  1.3537
   77MOL0     H10107   9.161   3.604   5.097 -0.4451  2.6144 -2.7079
   77MOL0     H10108   9.300   3.661   5.205  0.7339 -0.6795  1.4126
   77MOL0     H10109   9.124   3.724   5.372  0.8187  0.4776 -1.2030
   77MOL0     H10110   9.148   3.545   5.348 -0.8829 -0.0132  1.7385
   77MOL0     H10111   8.953   3.535   5.209 -0.0462  0.4657  0.6965
   77MOL0     H10112   8.939   3.714   5.220  0.5664  0.7247  0.2572
   77MOL0     H10113   8.912   3.501   5.441 -0.2427  0.6516  2.0296
   77MOL0     H10114   8.895   3.683   5.468 -0.5894 -1.2587  1.5150
   77MOL0     H10115   8.716   3.693   5.341  2.0734  1.0297  1.2255
   77MOL0     H10116   8.675   3.583   5.477  0.7223 -3.3715  0.3674
   77MOL0     H10117   8.620   3.578   5.106  0.3675  1.6271 -0.2148
   77MOL0     H10118   8.649   3.225   4.957  2.6141  0.9258  0.3824
   77MOL0     H10119   8.617   3.392   4.923  2.5726  0.7843  2.7886
   77MOL0     H10120   8.429   3.182   5.040  0.4087 -1.8160 -2.7233
   77MOL0     H10121   8.411   3.251   4.886 -2.5242 -3.9382  0.8818
   77MOL0     H10122   8.363   3.398   5.154  0.8412 -1.0036  0.5500
   77MOL0     H10123   8.370   3.485   4.989  6.2359 -0.9663  0.4333
   77MOL0     H10124   8.167   3.273   5.077 -0.3290 -0.2179 -0.9457
   77MOL0     H10125   8.182   3.354   4.920  1.2509  2.0593  0.2855
   77MOL0     H10126   7.940   3.253   5.012  2.3442  1.2559 -1.5637
   77MOL0     H10127   7.718   3.272   4.953 -2.7048  2.1260 -1.6054
   77MOL0     H10128   7.588   3.249   4.676 -0.2541 -2.4015 -2.1512
   77MOL0     H10129   7.452   3.237   4.487  3.0990 -0.2715  2.6843
   77MOL0     H10130   7.197   3.091   4.511 -1.7333 -1.7461  0.0786
   77MOL0     H10131   7.194   3.109   4.334  0.4904 -1.3409  0.8567
   77MOL0     H10132   6.982   3.216   4.525  0.7776  0.1722  0.5025
   77MOL0     H10133   6.973   3.053   4.456  0.5316 -0.1991  0.6955
   77MOL0     H10134   6.962   3.134   4.221 -3.2719  0.8350 -0.2377
   77MOL0     H10135   6.980   3.293   4.283 -0.6065  0.4217 -0.1652
   77MOL0     H10136   6.746   3.112   4.300 -1.6907  1.6193 -0.4004
   77MOL0     H10137   6.762   3.242   4.421  0.0305 -2.6531  2.0965
   77MOL0     H10138   6.745   3.273   4.106 -0.6760 -1.9766  0.0532
   77MOL0     H10139   6.756   3.410   4.206  2.2221 -1.3622 -4.9853
   77MOL0     H10140   6.536   3.371   4.140  0.0201  0.0252 -0.0342
   77MOL0     H10141   6.559   3.355   4.315 -0.3177  0.2879  0.0722
   77MOL0     H10142   6.576   3.099   4.144  0.1293 -0.0720 -0.9201
   77MOL0     H10143   6.520   3.121   4.312 -1.4337  1.0356  0.0451
   77MOL0     H10144   6.339   3.066   4.152 -0.1218 -0.1834  1.7986
   77MOL0     H10145   6.388   3.210   4.054 -2.0716  1.9645 -0.0319
   77MOL0     H10146   7.108   3.419   4.671 -0.3379 -0.5154  4.1813
   77MOL0     H10147   7.242   3.438   4.870  1.0988 -0.0662 -0.2171
   77MOL0     H10148   7.720   3.684   5.058  1.7708  0.7813  0.5823
   77MOL0     H10149   7.980   3.669   5.093  2.5378 -1.3913  0.0787
   77MOL0     H10150   9.656   3.738   5.031  0.2877  0.8533  0.6299
   77MOL0     H10151   9.908   3.743   5.014 -0.2899  0.3645  2.5246
   77MOL0     H10152  10.285   3.975   4.910  1.1999  0.7904  0.4215
   77MOL0     H10153  10.500   4.044   4.860 -1.5545 -0.9877  2.3220
   77MOL0     H10154  10.655   3.999   4.456 -0.0024 -0.8786 -0.2543
   77MOL0     H10155  10.719   3.841   4.482 -0.6823  0.7540 -1.6618
   77MOL0     H10156  10.847   4.110   4.530  1.4578  0.1420 -1.3800
   77MOL0     H10157  10.901   3.972   4.628  0.4280 -1.7556 -0.2317
   77MOL0     H10158  10.981   3.850   4.418 -1.0320 -0.5053 -0.2885
   77MOL0     H10159  11.046   4.016   4.451  2.7288 -3.3356 -1.2560
   77MOL0     H10160  10.842   3.910   4.246  3.1011 -1.7104 -3.3165
   77MOL0     H10161  10.845   4.089   4.277 -1.0694  0.0380  0.3264
   77MOL0     H10162  11.176   3.969   4.032  1.0606 -0.8613  1.5558
   77MOL0     H10163  10.504   3.781   4.516  0.9473 -0.2590  2.2465
   77MOL0     H10164  10.272   3.752   4.534  1.1386  0.1789 -1.1037
   78MOL0     O10165   3.263   8.036   9.038  0.0570 -0.8092 -0.1421
   78MOL0     C10166   3.211   8.112   8.957 -0.1646 -0.2240  0.1068
   78MOL0     O10167   3.094   8.083   8.893  0.6476 -0.5702  0.2807
   78MOL0     C10168   3.039   7.957   8.914  0.8637 -0.2819  0.5999
   78MOL0     C10169   3.085   7.850   8.842 -1.0851  0.6273 -0.9911
   78MOL0     C10170   3.033   7.721   8.861  0.2558  0.3790  0.3288
   78MOL0     C10171   2.937   7.697   8.957  0.8074  0.7877 -0.3197
   78MOL0     O10172   2.897   7.572   8.986  0.1366  1.0117 -0.3513
   78MOL0     C10173   2.773   7.549   9.071 -0.2677  0.1017 -0.2654
   78MOL0     C10174   2.706   7.425   9.014 -0.2788  0.7571 -0.3714
   78MOL0     C10175   2.781   7.294   9.044  0.2217 -0.5559  0.5497
   78MOL0     C10176   2.737   7.165   8.967  0.0463 -0.1479  0.3108
   78MOL0     C10177   2.592   7.123   9.008 -0.2412 -0.0193 -0.5260
   78MOL0     C10178   2.531   7.007   8.937  0.5708  0.3281  0.5457
   78MOL0     C10179   2.419   6.930   9.024  0.1908  0.3193 -0.6912
   78MOL0     C10180   2.353   6.831   8.930  0.2247  0.2219 -0.3174
   78MOL0     N10181   2.267   6.894   8.824  0.3256 -1.1544 -0.3612
   78MOL0     C10182   2.175   6.988   8.849 -0.7329  0.6694  0.9231
   78MOL0     C10183   2.110   7.009   8.728  0.4249  0.2639  0.1335
   78MOL0     C10184   2.002   7.108   8.700  0.1782  0.4352 -0.6875
   78MOL0     C10185   1.918   7.087   8.568 -0.1077  0.4814 -0.2185
   78MOL0     C10186   1.808   6.975   8.585  0.0714  0.0746  0.0094
   78MOL0     C10187   1.704   6.959   8.475 -0.0789 -0.6231  0.1225
   78MOL0     O10188   1.614   6.843   8.475  0.1410  0.5970  0.7595
   78MOL0     C10189   1.495   6.841   8.521 -0.0750 -0.2892 -0.6029
   78MOL0     C10190   1.441   6.929   8.626 -0.3348  0.1602 -0.0148
   78MOL0     C10191   1.310   6.905   8.667  0.3681  0.0795 -0.4638
   78MOL0     C10192   1.226   6.809   8.621  0.7837  1.1590  0.1443
   78MOL0     C10193   1.089   6.776   8.678 -0.7387  0.0279  0.3229
   78MOL0     O10194   1.024   6.658   8.646  0.1148  0.3875  0.0072
   78MOL0     C10195   0.893   6.631   8.681 -0.7283  0.6409 -0.0836
   78MOL0     C10196   0.860   6.497   8.653 -0.2941  0.3969 -0.0359
   78MOL0     C10197   0.729   6.449   8.677 -0.9928 -0.2502  1.0768
   78MOL0     C10198   0.632   6.527   8.733 -0.3866  0.4735  0.0755
   78MOL0     O10199   0.500   6.489   8.771 -0.9104  0.2864  0.4495
   78MOL0     C10200   0.461   6.357   8.782  0.1267  0.6282  0.5089
   78MOL0     C10201   0.426   6.279   8.652  0.0570  0.3789 -0.0131
   78MOL0     C10202   0.340   6.359   8.559  0.1556 -0.0485  0.8219
   78MOL0     C10203   0.306   6.284   8.430 -0.4485  0.1582  0.1302
   78MOL0     C10204   0.206   6.362   8.346  0.7057  0.4965 -0.9940
   78MOL0     C10205   0.173   6.293   8.220 -0.2402  1.2127 -0.2059
   78MOL0     C10206   0.039   6.339   8.161 -0.1808 -1.2836 -0.3640
   78MOL0     C10207   0.032   6.489   8.118 -0.1498  0.0017  0.0561
   78MOL0    Cl10208   0.149   6.533   7.998 -0.0511 -0.4862 -0.1306
   78MOL0     C10209   0.667   6.663   8.764  0.2615  0.4408  0.2476
   78MOL0     C10210   0.798   6.718   8.732  0.6309 -0.0573  0.6041
   78MOL0     O10211   1.048   6.860   8.755 -1.0706 -0.2151 -0.8345
   78MOL0     C10212   1.271   6.732   8.515  0.9959 -0.2248 -0.8053
   78MOL0     C10213   1.407   6.748   8.469 -0.4387  0.1552  0.3247
   78MOL0     N10214   2.179   6.937   8.630 -0.8075  0.1018 -0.5348
   78MOL0     N10215   2.269   6.866   8.688  0.4900 -0.7665 -0.5403
   78MOL0     C10216   2.880   7.812   9.024 -0.2568 -0.2118  0.1799
   78MOL0     C10217   2.936   7.943   9.009  0.2813  0.2897  0.9333
   78MOL0     C10218   3.287   8.240   8.922 -0.6846  0.9678  0.1532
   78MOL0     C10219   3.216   8.314   8.830 -0.3264  1.1912 -0.3712
   78MOL0     C10220   3.285   8.429   8.791 -0.2257  0.0056 -0.4182
   78MOL0     C10221   3.406   8.484   8.852 -0.2744  0.1607 -0.6040
   78MOL0     O10222   3.458   8.595   8.795  0.8232  0.8341  0.6588
   78MOL0     C10223   3.568   8.659   8.860  0.3338  0.2158  0.6234
   78MOL0     C10224   3.543   8.706   9.004 -0.3935 -0.5672 -0.4645
   78MOL0     C10225   3.662   8.807   9.047  0.4355 -0.2194  0.2016
   78MOL0     C10226   3.622   8.865   9.182 -0.3680  0.3375 -0.0425
   78MOL0     C10227   3.564   8.999   9.180 -0.1206 -1.1455 -1.1956
   78MOL0     C10228   3.534   9.118   9.194 -0.4423  0.1277  0.9953
   78MOL0     C10229   3.459   8.404   8.949  0.5572 -0.2917  0.3419
   78MOL0     C10230   3.411   8.275   8.977  0.0823  0.0388 -0.1144
   78MOL0     H10231   3.157   7.884   8.768 -0.6402  4.7060  1.0057
   78MOL0     H10232   3.090   7.641   8.814 -0.1083  0.3587 -0.0844
   78MOL0     H10233   2.701   7.631   9.068  1.4454  1.7936  1.7681
   78MOL0     H10234   2.815   7.525   9.169 -0.2170  0.3173 -0.2350
   78MOL0     H10235   2.685   7.438   8.907 -0.2763 -1.0716 -0.6302
   78MOL0     H10236   2.610   7.416   9.066 -0.0552 -0.1208 -0.0887
   78MOL0     H10237   2.773   7.271   9.151  2.0211  2.6278  1.5036
   78MOL0     H10238   2.886   7.309   9.017  0.1123 -0.5368  0.1309
   78MOL0     H10239   2.752   7.180   8.859  3.3409  0.3382  0.7235
   78MOL0     H10240   2.810   7.089   8.993  2.4054  1.6827 -0.5288
   78MOL0     H10241   2.516   7.201   9.012  0.5822  0.7549  2.2517
   78MOL0     H10242   2.604   7.083   9.109 -2.9097 -3.1618 -1.2748
   78MOL0     H10243   2.613   6.943   8.905  1.3030  1.2428  0.5684
   78MOL0     H10244   2.477   7.036   8.846 -0.0271 -0.3341  0.6809
   78MOL0     H10245   2.466   6.886   9.112  0.0939  2.9665  0.8084
   78MOL0     H10246   2.334   6.991   9.056  1.3048  2.1577 -1.0748
   78MOL0     H10247   2.296   6.759   8.990  0.5987  0.0228 -0.1990
   78MOL0     H10248   2.434   6.776   8.883 -0.4651 -2.6388  1.5327
   78MOL0     H10249   2.152   7.033   8.945 -0.8176  0.0428  1.2012
   78MOL0     H10250   2.050   7.204   8.681 -1.8056  1.7453  0.4467
   78MOL0     H10251   1.948   7.118   8.795  0.1474 -4.1130  0.0025
   78MOL0     H10252   1.997   7.063   8.495  0.3070 -1.2732  0.7602
   78MOL0     H10253   1.879   7.184   8.536 -0.9526 -0.0698 -0.8990
   78MOL0     H10254   1.871   6.886   8.570 -1.0243 -0.8458  0.7519
   78MOL0     H10255   1.768   6.991   8.685  1.1199  0.5918  0.3667
   78MOL0     H10256   1.766   6.945   8.386  1.9577 -1.5425  1.5904
   78MOL0     H10257   1.658   7.058   8.470  0.3328 -0.3437  1.3798
   78MOL0     H10258   1.512   7.005   8.659  0.8145 -0.4607 -0.9871
   78MOL0     H10259   1.283   6.972   8.747  1.4242  0.3824 -0.3533
   78MOL0     H10260   0.938   6.435   8.611  2.3300  2.7604  0.9738
   78MOL0     H10261   0.706   6.353   8.633 -2.0067 -0.1285  1.3147
   78MOL0     H10262   0.366   6.364   8.836  0.4659  0.4286  1.1493
   78MOL0     H10263   0.534   6.296   8.836 -0.6879 -0.3550  0.5576
   78MOL0     H10264   0.366   6.192   8.679 -3.2381  1.8293 -1.9945
   78MOL0     H10265   0.517   6.247   8.600 -1.1718 -1.4616 -1.1640
   78MOL0     H10266   0.396   6.449   8.532 -0.4841  0.0200 -0.3332
   78MOL0     H10267   0.244   6.365   8.611  0.5038 -0.3969  1.5101
   78MOL0     H10268   0.382   6.249   8.361 -3.1372 -0.5467 -2.6912
   78MOL0     H10269   0.274   6.188   8.472 -2.2845  0.2960 -0.8216
   78MOL0     H10270   0.232   6.468   8.342  0.0062  0.7511  0.5241
   78MOL0     H10271   0.112   6.356   8.401  0.8745  2.5878 -0.3829
   78MOL0     H10272   0.160   6.184   8.226 -1.2201  1.3176 -0.3266
   78MOL0     H10273   0.249   6.317   8.145 -1.4419 -0.6884 -2.1450
   78MOL0     H10274   0.028   6.292   8.063  3.3770 -0.5814 -1.2389
   78MOL0     H10275  -0.043   6.330   8.233  1.2645  0.3020  1.5966
   78MOL0     H10276   0.055   6.554   8.203 -1.2308  0.1320  0.2651
   78MOL0     H10277  -0.065   6.516   8.076  1.4919 -1.0827 -5.2086
   78MOL0     H10278   0.586   6.731   8.789  0.3053  1.0197 -1.1177
   78MOL0     H10279   0.811   6.825   8.742  0.6458 -0.0438  0.4506
   78MOL0     H10280   1.205   6.657   8.472 -1.8889  2.4812 -1.5433
   78MOL0     H10281   1.446   6.683   8.391  2.2810  2.4321 -0.4015
   78MOL0     H10282   2.799   7.799   9.096  0.1463 -1.6368  0.4104
   78MOL0     H10283   2.911   8.025   9.076 -3.2417  1.4797 -1.5134
   78MOL0     H10284   3.119   8.295   8.786 -0.7061  2.1892  0.0010
   78MOL0     H10285   3.234   8.490   8.718 -1.2716  1.3016  1.3157
   78MOL0     H10286   3.580   8.753   8.805 -0.0452 -0.4736 -0.6937
   78MOL0     H10287   3.657   8.597   8.856 -0.7697 -1.4323  0.7751
   78MOL0     H10288   3.440   8.741   9.016  0.2048  0.5338  1.8502
   78MOL0     H10289   3.548   8.616   9.067 -0.3732 -1.0925 -1.2043
   78MOL0     H10290   3.652   8.889   8.975  0.3410  0.8287  1.3794
   78MOL0     H10291   3.755   8.752   9.034  1.0029  0.8100 -0.2819
   78MOL0     H10292   3.544   8.801   9.222  0.6493  0.0324  1.5165
   78MOL0     H10293   3.709   8.859   9.248 -1.0732  0.5837  0.9152
   78MOL0     H10294   3.487   9.211   9.219 -0.8873 -0.0745  0.9056
   78MOL0     H10295   3.551   8.428   9.001  0.0326  0.0493  1.1261
   78MOL0     H10296   3.466   8.210   9.044  0.7941 -0.9377 -1.6001
   79MOL0     O10297   6.673   9.996   5.536 -0.3832  0.7532  0.2201
   79MOL0     C10298   6.722   9.899   5.601  0.0846  0.4370 -0.2173
   79MOL0     O10299   6.645   9.797   5.660 -0.7732 -0.4261 -0.1915
   79MOL0     C10300   6.509   9.817   5.648  0.2559 -0.2955 -0.9817
   79MOL0     C10301   6.442   9.837   5.529 -0.0165  0.4991  0.8266
   79MOL0     C10302   6.307   9.853   5.518 -0.1346 -0.5704  0.2234
   79MOL0     C10303   6.223   9.838   5.631 -0.7045 -0.0754  0.1742
   79MOL0     O10304   6.095   9.818   5.639 -0.6931  0.0822 -0.4476
   79MOL0     C10305   6.009   9.893   5.552 -0.2406 -0.8835  1.1386
   79MOL0     C10306   5.874   9.894   5.624  0.0695 -0.1401 -0.1107
   79MOL0     C10307   5.820   9.756   5.624  1.0407  1.2430 -1.5791
   79MOL0     C10308   5.672   9.751   5.639  1.1253 -0.0823 -0.3186
   79MOL0     C10309   5.604   9.605   5.619  0.3207 -0.5688  0.2375
   79MOL0     C10310   5.579   9.576   5.472  0.0467  0.3183 -0.0376
   79MOL0     C10311   5.499   9.448   5.458  0.0007  0.3757 -0.5356
   79MOL0     C10312   5.470   9.405   5.318  0.2016 -0.1642  0.4000
   79MOL0     N10313   5.363   9.298   5.320 -0.3002  0.7579  0.3954
   79MOL0     C10314   5.238   9.309   5.367  0.1810  0.8099  0.1962
   79MOL0     C10315   5.188   9.190   5.344  0.2638 -0.1067  0.2411
   79MOL0     C10316   5.051   9.152   5.384 -0.6053 -0.5550  0.1280
   79MOL0     C10317   4.940   9.229   5.323  0.0155  0.1821 -0.1978
   79MOL0     C10318   4.803   9.177   5.373  0.2916  1.1989 -0.1117
   79MOL0     C10319   4.768   9.190   5.526  0.0241 -1.0834 -1.1652
   79MOL0     O10320   4.625   9.167   5.535 -0.2541  0.3057 -0.2987
   79MOL0     C10321   4.567   9.176   5.651  0.7033  0.5737  0.5725
   79MOL0     C10322   4.445   9.247   5.647 -0.3984  0.4000 -0.0951
   79MOL0     C10323   4.371   9.265   5.766 -0.1048  0.4288  0.1312
   79MOL0     C10324   4.424   9.211   5.889  0.1062 -1.2815 -0.9967
   79MOL0     C10325   4.353   9.229   6.015  0.4085 -0.5906  0.5874
   79MOL0     O10326   4.215   9.236   6.007 -0.2456  0.6161 -0.4313
   79MOL0     C10327   4.132   9.280   6.109  0.7616  0.7535 -0.0122
   79MOL0     C10328   4.167   9.373   6.208 -0.2636 -1.0324 -0.2292
   79MOL0     C10329   4.073   9.422   6.307  0.7585  0.5530  0.5426
   79MOL0     C10330   3.943   9.369   6.313 -1.1651  2.0260  0.3937
   79MOL0     O10331   3.855   9.414   6.410  0.2074 -0.7469  0.0888
   79MOL0     C10332   3.710   9.398   6.390  0.6224  0.0664 -0.1830
   79MOL0     C10333   3.664   9.251   6.434 -0.2896 -0.2114  0.0898
   79MOL0     C10334   3.529   9.205   6.378 -0.2336  0.6140  0.6789
   79MOL0     C10335   3.426   9.264   6.478 -0.5147  0.8581 -0.8912
   79MOL0     C10336   3.286   9.194   6.470  0.8981  0.0047 -0.7843
   79MOL0     C10337   3.181   9.255   6.568  0.2563 -0.1373  0.1276
   79MOL0     C10338   3.204   9.233   6.720  0.1047  0.1920  1.1048
   79MOL0     C10339   3.106   9.307   6.809  0.1579  0.2651 -0.0322
   79MOL0    Cl10340   2.937   9.252   6.784  0.0148  0.0230 -0.1190
   79MOL0     C10341   3.916   9.269   6.213 -1.4018 -0.6928  0.1747
   79MOL0     C10342   4.007   9.229   6.110  0.1677  0.0741 -0.0446
   79MOL0     O10343   4.410   9.242   6.121 -1.3233 -0.6342 -0.3356
   79MOL0     C10344   4.552   9.150   5.890  0.6488  0.5789 -1.3954
   79MOL0     C10345   4.619   9.133   5.776  0.2491 -0.1681 -0.5034
   79MOL0     N10346   5.282   9.104   5.286  0.4721  0.0622  0.4211
   79MOL0     N10347   5.390   9.171   5.281 -0.5283 -0.2974 -0.5540
   79MOL0     C10348   6.292   9.814   5.752  0.4360  0.3758  0.3962
   79MOL0     C10349   6.428   9.800   5.759  0.6958 -0.1369 -1.0328
   79MOL0     C10350   6.867   9.868   5.590  0.5766 -0.3968 -1.1540
   79MOL0     C10351   6.945   9.945   5.506  0.3113 -0.6035  0.0812
   79MOL0     C10352   7.082   9.929   5.513  0.0945 -0.3946 -0.5014
   79MOL0     C10353   7.148   9.833   5.592 -0.0577 -0.4601  0.2025
   79MOL0     O10354   7.286   9.826   5.592  0.1042 -0.2847 -0.2799
   79MOL0     C10355   7.348   9.841   5.719 -0.4426 -0.4469  0.5060
   79MOL0     C10356   7.496   9.881   5.683 -0.0799  0.1548 -0.3178
   79MOL0     C10357   7.571   9.759   5.618 -0.0654 -0.1348  1.0371
   79MOL0     C10358   7.719   9.796   5.604 -0.6193 -0.3795 -0.3667
   79MOL0     C10359   7.801   9.799   5.728 -0.2881 -0.4017 -0.0765
   79MOL0     C10360   7.852   9.800   5.841  0.4162 -0.9580  0.5619
   79MOL0     C10361   7.061   9.754   5.660  0.1488  0.0811 -0.0558
   79MOL0     C10362   6.922   9.769   5.667 -0.8042 -0.3760 -0.5548
   79MOL0     H10363   6.502   9.845   5.439 -1.1847 -1.9754 -0.2622
   79MOL0     H10364   6.249   9.881   5.431 -1.9964 -3.3544  0.4530
   79MOL0     H10365   6.004   9.857   5.449  0.3747  2.9454 -0.3972
   79MOL0     H10366   6.032   9.998   5.532  0.7483 -1.1187  0.9431
   79MOL0     H10367   5.800   9.953   5.569  0.8791  1.3510  0.3514
   79MOL0     H10368   5.882   9.942   5.722  3.9884 -1.6940  0.4935
   79MOL0     H10369   5.845   9.708   5.719  0.6145 -1.2334 -2.6186
   79MOL0     H10370   5.857   9.702   5.536 -0.4352  0.2943 -1.6647
   79MOL0     H10371   5.635   9.799   5.730 -0.2905  1.3950 -1.5978
   79MOL0     H10372   5.635   9.809   5.553  3.7057 -0.6598 -1.9330
   79MOL0     H10373   5.502   9.613   5.657 -0.5206  1.8042 -2.2320
   79MOL0     H10374   5.677   9.542   5.672 -1.0951 -0.8389  1.9606
   79MOL0     H10375   5.674   9.561   5.419 -1.2347 -1.3812 -1.9952
   79MOL0     H10376   5.520   9.660   5.433 -1.6255 -0.5277  0.6090
   79MOL0     H10377   5.560   9.369   5.502  0.3712 -0.1895 -1.9936
   79MOL0     H10378   5.402   9.463   5.507 -0.2930  1.1095 -1.3026
   79MOL0     H10379   5.563   9.364   5.277 -1.2267 -1.2239 -1.9940
   79MOL0     H10380   5.447   9.494   5.259 -0.7484 -0.0752  0.8716
   79MOL0     H10381   5.187   9.394   5.412  0.0368  0.8194  0.0127
   79MOL0     H10382   5.043   9.168   5.492  0.6892 -2.0768  0.5008
   79MOL0     H10383   5.041   9.044   5.369  0.2746 -0.7368  0.7458
   79MOL0     H10384   4.928   9.214   5.215  1.1861 -1.3589 -0.1460
   79MOL0     H10385   4.958   9.336   5.327  0.9148  0.0446 -0.4131
   79MOL0     H10386   4.732   9.240   5.318  1.7677  2.0843 -1.0500
   79MOL0     H10387   4.782   9.072   5.354  0.7868  0.6629  2.0266
   79MOL0     H10388   4.778   9.291   5.569 -3.1889 -1.3350  0.5217
   79MOL0     H10389   4.820   9.120   5.590  3.9750  0.8441 -1.9730
   79MOL0     H10390   4.424   9.290   5.549 -0.9469  1.9409  0.6790
   79MOL0     H10391   4.275   9.317   5.774 -1.1295 -0.8795 -2.5757
   79MOL0     H10392   4.264   9.420   6.199 -0.2204 -1.3668 -1.8760
   79MOL0     H10393   4.089   9.507   6.373  3.5682  1.6461 -1.3546
   79MOL0     H10394   3.684   9.395   6.284  0.7672  1.0097 -0.2502
   79MOL0     H10395   3.647   9.470   6.442 -1.5646 -0.9680 -1.2637
   79MOL0     H10396   3.673   9.242   6.543  2.4396 -2.7418 -0.2334
   79MOL0     H10397   3.741   9.185   6.394  1.3827  3.0912 -2.7180
   79MOL0     H10398   3.543   9.097   6.389 -0.3028  0.1682 -2.6709
   79MOL0     H10399   3.503   9.253   6.283  0.7616  0.8158  0.4941
   79MOL0     H10400   3.461   9.246   6.580  1.3844 -1.9940 -1.9318
   79MOL0     H10401   3.407   9.369   6.457  0.4404  1.1447 -0.3827
   79MOL0     H10402   3.300   9.088   6.489  1.5803  0.2546  0.2442
   79MOL0     H10403   3.242   9.208   6.371 -1.7389  1.8738  0.5008
   79MOL0     H10404   3.080   9.218   6.552 -0.3517 -0.5238  3.8720
   79MOL0     H10405   3.188   9.364   6.565  1.2099 -0.2177 -1.4929
   79MOL0     H10406   3.179   9.130   6.748 -1.8636 -0.6620 -2.9678
   79MOL0     H10407   3.304   9.274   6.737  0.0429  1.7508 -1.6252
   79MOL0     H10408   3.127   9.414   6.794  2.2849  0.1500  1.7126
   79MOL0     H10409   3.141   9.287   6.910  1.0303  5.3297  0.9553
   79MOL0     H10410   3.815   9.231   6.206 -1.3558 -0.7310 -0.3233
   79MOL0     H10411   3.977   9.158   6.034 -1.0106 -0.6101  1.0212
   79MOL0     H10412   4.572   9.132   5.995 -0.9284 -1.1640 -1.3476
   79MOL0     H10413   4.714   9.081   5.778  1.0783  1.3241  1.2305
   79MOL0     H10414   6.224   9.793   5.833 -3.1868 -4.4682 -3.2824
   79MOL0     H10415   6.490   9.791   5.848  1.8803 -2.4524 -1.9963
   79MOL0     H10416   6.903  10.023   5.443 -1.1014  0.5572  2.3268
   79MOL0     H10417   7.158   9.979   5.454  2.0740 -2.8268 -0.1998
   79MOL0     H10418   7.353   9.744   5.769 -0.4481 -0.4214  0.5558
   79MOL0     H10419   7.303   9.928   5.768  0.1244  0.0915  0.0935
   79MOL0     H10420   7.499   9.965   5.614 -2.1064 -2.3716 -3.7810
   79MOL0     H10421   7.538   9.914   5.779  1.0603 -1.5426 -0.1795
   79MOL0     H10422   7.520   9.728   5.526  2.8790 -0.5768 -0.5619
   79MOL0     H10423   7.570   9.669   5.680  0.3426 -0.9263 -0.0746
   79MOL0     H10424   7.757   9.713   5.544 -0.9549 -2.2298  1.8007
   79MOL0     H10425   7.719   9.892   5.552  0.3776 -0.6924 -0.9738
   79MOL0     H10426   7.890   9.798   5.941 -0.3372 -1.9993  0.8422
   79MOL0     H10427   7.106   9.689   5.734 -3.1727 -0.8636  1.3075
   79MOL0     H10428   6.868   9.703   5.735  0.1251 -1.1176 -0.5156
   80MOL0     O10429   8.572   9.715  10.246 -0.2689  0.5673 -0.2698
   80MOL0     C10430   8.626   9.642  10.169 -0.2818 -0.0764  0.5456
   80MOL0     O10431   8.757   9.618  10.172  0.5215  0.4680  0.1561
   80MOL0     C10432   8.838   9.713  10.242  0.5176 -0.0524 -0.2502
   80MOL0     C10433   8.906   9.817  10.179 -0.8174 -0.3771  0.7120
   80MOL0     C10434   8.987   9.898  10.253 -0.1940 -0.7980 -0.6719
   80MOL0     C10435   8.981   9.891  10.392  0.2559  0.9726 -0.1609
   80MOL0     O10436   9.054   9.985  10.453  0.1746  0.7309  0.1276
   80MOL0     C10437   9.022  10.015  10.587 -0.9278 -0.6704 -0.1557
   80MOL0     C10438   9.101  10.145  10.622 -0.2469  0.1662  0.2052
   80MOL0     C10439   9.076  10.204  10.770  0.9130 -0.0623  0.1070
   80MOL0     C10440   8.934  10.254  10.788 -0.6126  0.0181 -0.3523
   80MOL0     C10441   8.904  10.281  10.944  0.0229  0.0889 -1.1483
   80MOL0     C10442   9.011  10.364  11.025 -0.5582 -0.1137  0.7888
   80MOL0     C10443   8.968  10.416  11.159 -0.4215 -0.2656  0.0231
   80MOL0     C10444   8.972  10.319  11.274 -0.0334  0.2986 -0.0970
   80MOL0     N10445   9.095  10.310  11.335 -0.0617 -0.4053  0.3014
   80MOL0     C10446   9.122  10.305  11.473  0.3910  0.1040  0.2357
   80MOL0     C10447   9.246  10.246  11.493  0.7142 -0.1086 -0.7699
   80MOL0     C10448   9.311  10.212  11.626  0.0455 -0.1502  0.3115
   80MOL0     C10449   9.450  10.269  11.606  0.2296 -1.2544 -0.2065
   80MOL0     C10450   9.515  10.296  11.744  0.7653  1.0453 -0.4950
   80MOL0     C10451   9.660  10.332  11.733 -0.1397 -1.5433  0.1151
   80MOL0     O10452   9.730  10.337  11.863  0.5428  0.1006  0.4720
   80MOL0     C10453   9.863  10.366  11.871 -0.2306  0.1341 -0.4486
   80MOL0     C10454   9.925  10.358  11.998 -0.0246  0.4142 -0.1872
   80MOL0     C10455  10.054  10.403  12.019 -0.6946  0.3496  0.2083
   80MOL0     C10456  10.141  10.440  11.910  0.8548 -0.3477  0.8290
   80MOL0     C10457  10.284  10.471  11.932 -0.2202 -0.3258  0.0911
   80MOL0     O10458  10.332  10.425  12.045  0.6771  0.3395 -0.4240
   80MOL0     C10459  10.458  10.457  12.068 -0.9223  0.3505  0.8538
   80MOL0     C10460  10.567  10.409  11.990 -0.0379  0.4692  0.0602
   80MOL0     C10461  10.701  10.424  12.027 -0.3004 -0.5576  0.1109
   80MOL0     C10462  10.733  10.490  12.147  0.2348  0.9070 -0.5119
   80MOL0     O10463  10.859  10.485  12.197  0.3882  0.4683  0.3184
   80MOL0     C10464  10.911  10.578  12.290  0.3478 -0.1725  0.1253
   80MOL0     C10465  11.074  10.581  12.274  0.5973  0.2161 -0.1267
   80MOL0     C10466  11.131  10.437  12.290  0.4491  0.2139  0.7329
   80MOL0     C10467  11.285  10.456  12.299 -0.0740 -1.0432 -1.3069
   80MOL0     C10468  11.366  10.504  12.171  0.6922 -0.0017  0.6344
   80MOL0     C10469  11.515  10.468  12.176  0.2201  0.1632  0.3084
   80MOL0     C10470  11.583  10.562  12.276  0.4824  0.4753  0.1033
   80MOL0     C10471  11.709  10.486  12.337 -0.5860 -0.9148  0.5088
   80MOL0    Cl10472  11.839  10.477  12.211 -0.0981 -0.0935 -0.3878
   80MOL0     C10473  10.632  10.548  12.219  1.1615  0.3376  0.0963
   80MOL0     C10474  10.489  10.528  12.178 -0.1298 -0.0437 -0.2485
   80MOL0     O10475  10.346  10.533  11.846  0.2619  0.0980  0.3899
   80MOL0     C10476  10.084  10.436  11.777  0.4933 -0.3277  0.5328
   80MOL0     C10477   9.949  10.400  11.768  0.4667 -0.5627  0.1396
   80MOL0     N10478   9.300  10.219  11.369  0.3325 -0.3510  0.9131
   80MOL0     N10479   9.203  10.242  11.281 -0.5089  0.1874 -0.1181
   80MOL0     C10480   8.911   9.789  10.458  0.0640 -0.8711 -0.6434
   80MOL0     C10481   8.842   9.699  10.381  0.1562 -0.1700  0.1209
   80MOL0     C10482   8.534   9.550  10.094 -0.7314 -0.3153  0.1639
   80MOL0     C10483   8.392   9.560  10.094  0.7372  0.4018 -0.7553
   80MOL0     C10484   8.315   9.473  10.010 -0.1170  0.1218 -1.2650
   80MOL0     C10485   8.373   9.370   9.934 -0.1583 -0.6921 -0.3035
   80MOL0     O10486   8.276   9.297   9.865  0.2715 -0.2832  0.1518
   80MOL0     C10487   8.324   9.206   9.761 -0.3002  0.0200  0.6708
   80MOL0     C10488   8.355   9.279   9.627 -0.0376 -0.6235 -0.0069
   80MOL0     C10489   8.413   9.198   9.514  0.8271 -0.3069 -1.1656
   80MOL0     C10490   8.567   9.189   9.540  0.5225  0.6844 -0.2436
   80MOL0     C10491   8.613   9.120   9.429 -0.6309  0.1085  1.6156
   80MOL0     C10492   8.672   9.069   9.329 -0.5652 -0.6443  0.5308
   80MOL0     C10493   8.510   9.352   9.945 -0.8899 -0.1404  0.1122
   80MOL0     C10494   8.591   9.443  10.012 -0.0367  0.1842  0.0146
   80MOL0     H10495   8.908   9.835  10.073 -1.4510 -0.3751  0.6953
   80MOL0     H10496   9.049   9.977  10.210 -0.7748  1.0595  1.7039
   80MOL0     H10497   9.044   9.932  10.654 -2.0930 -0.7606  0.1463
   80MOL0     H10498   8.914  10.035  10.594 -0.9421 -1.1929  1.3338
   80MOL0     H10499   9.076  10.224  10.551  0.0631 -0.2237 -0.3549
   80MOL0     H10500   9.209  10.125  10.625 -0.1743  0.4546 -0.3274
   80MOL0     H10501   9.147  10.285  10.791 -1.7711  3.0230 -1.8408
   80MOL0     H10502   9.093  10.123  10.841  0.4522  1.7139  2.3712
   80MOL0     H10503   8.922  10.339  10.721  2.7754  1.1071  0.1992
   80MOL0     H10504   8.867  10.174  10.757  1.2040 -1.0890 -1.5956
   80MOL0     H10505   8.900  10.187  11.000  0.3865  2.1139  2.6555
   80MOL0     H10506   8.807  10.332  10.943 -0.2269 -0.2911  0.5155
   80MOL0     H10507   9.032  10.445  10.954 -0.9766  0.1230  0.9276
   80MOL0     H10508   9.105  10.310  11.033 -1.5126 -2.2293 -1.1268
   80MOL0     H10509   9.033  10.502  11.181  0.0581 -1.1322  2.2466
   80MOL0     H10510   8.864  10.446  11.149 -0.6538 -1.5099 -1.8990
   80MOL0     H10511   8.936  10.220  11.245 -0.8225  1.0684 -1.9081
   80MOL0     H10512   8.897  10.344  11.350  0.8226 -1.5821  1.4722
   80MOL0     H10513   9.050  10.335  11.549 -0.0032 -1.7607  0.6530
   80MOL0     H10514   9.311  10.103  11.625  0.7340 -0.1468 -0.6638
   80MOL0     H10515   9.269  10.252  11.719  3.2092 -1.9104  2.7223
   80MOL0     H10516   9.445  10.365  11.554  0.5310  0.1192  2.1708
   80MOL0     H10517   9.523  10.212  11.548  0.4601  0.9943 -2.2947
   80MOL0     H10518   9.460  10.380  11.788 -0.0295  0.5850 -0.5878
   80MOL0     H10519   9.511  10.211  11.813  0.4196  1.3964 -0.0784
   80MOL0     H10520   9.668  10.428  11.681  1.5965 -0.9311  1.4065
   80MOL0     H10521   9.704  10.256  11.667 -3.4938 -2.7012 -1.0267
   80MOL0     H10522   9.856  10.324  12.074  0.1077 -0.3449 -0.3997
   80MOL0     H10523  10.098  10.394  12.118  0.3933 -1.3696 -0.3912
   80MOL0     H10524  10.544  10.354  11.900  1.1636 -0.8821  0.5375
   80MOL0     H10525  10.785  10.374  11.982 -1.6743 -1.4072 -1.6447
   80MOL0     H10526  10.891  10.541  12.391 -1.2883 -0.5911 -0.3229
   80MOL0     H10527  10.872  10.679  12.279  2.9220  0.8175 -0.7500
   80MOL0     H10528  11.123  10.647  12.346  1.3242 -1.9982  1.5100
   80MOL0     H10529  11.102  10.623  12.177 -0.5880  0.9162 -0.1810
   80MOL0     H10530  11.111  10.368  12.208 -3.2102  1.4930  0.3647
   80MOL0     H10531  11.097  10.392  12.384 -1.0987  2.0470  1.1197
   80MOL0     H10532  11.313  10.537  12.367  0.4608 -2.3093  0.0274
   80MOL0     H10533  11.327  10.368  12.349  1.5237 -0.0444 -0.8221
   80MOL0     H10534  11.351  10.611  12.156 -2.4429 -0.3021  1.0143
   80MOL0     H10535  11.322  10.459  12.082 -2.3278  1.0230  1.4841
   80MOL0     H10536  11.564  10.495  12.082  0.5749  0.3580  0.5438
   80MOL0     H10537  11.520  10.361  12.196 -2.9967  0.0754  1.1209
   80MOL0     H10538  11.605  10.653  12.220 -2.7814  3.0360  2.5193
   80MOL0     H10539  11.506  10.590  12.349 -0.4420  0.7929 -0.9534
   80MOL0     H10540  11.681  10.384  12.366 -0.9865 -0.8360  0.4001
   80MOL0     H10541  11.749  10.534  12.426 -1.2155  3.2178 -1.2111
   80MOL0     H10542  10.653  10.594  12.315 -1.7979  4.7779 -1.0942
   80MOL0     H10543  10.402  10.559  12.236 -2.3881 -3.3708 -1.5724
   80MOL0     H10544  10.148  10.448  11.690  2.1138 -1.3891  1.5364
   80MOL0     H10545   9.919  10.386  11.665  0.7897 -3.3657  0.3610
   80MOL0     H10546   8.910   9.786  10.567  0.1969  0.3356 -0.5968
   80MOL0     H10547   8.787   9.619  10.429 -2.7713 -0.1409 -2.8355
   80MOL0     H10548   8.336   9.621  10.164  2.1210 -1.2874  1.9806
   80MOL0     H10549   8.207   9.485  10.006 -0.1283 -0.2263 -2.4669
   80MOL0     H10550   8.237   9.142   9.745 -0.3713  0.5074 -1.1599
   80MOL0     H10551   8.408   9.141   9.785 -0.4436 -0.5970 -0.4245
   80MOL0     H10552   8.268   9.330   9.586 -0.6131 -1.2424  0.4258
   80MOL0     H10553   8.427   9.358   9.652 -2.1600  0.2982  3.9826
   80MOL0     H10554   8.396   9.245   9.417  3.0191  1.4371 -0.7842
   80MOL0     H10555   8.379   9.094   9.518  3.9589 -1.3828  1.6197
   80MOL0     H10556   8.617   9.286   9.546  0.4254  0.6623  1.2551
   80MOL0     H10557   8.587   9.136   9.633 -0.7187  0.7705  0.0899
   80MOL0     H10558   8.724   9.023   9.248 -0.4798 -1.6861  1.1555
   80MOL0     H10559   8.557   9.276   9.883 -2.4080  0.7990 -2.3204
   80MOL0     H10560   8.697   9.420  10.017 -0.0800  0.2387  1.6975
   81MOL0     O10561   5.843   6.592   2.042  0.7384  0.1546 -0.2017
   81MOL0     C10562   5.822   6.519   1.949  0.2843 -0.3648  0.0383
   81MOL0     O10563   5.697   6.492   1.898 -0.3074 -0.0150 -0.0897
   81MOL0     C10564   5.589   6.561   1.949  1.0739  0.4336  0.2499
   81MOL0     C10565   5.570   6.694   1.932 -0.5087 -0.3978 -0.5219
   81MOL0     C10566   5.464   6.767   1.995 -0.5745  0.2717  0.8959
   81MOL0     C10567   5.380   6.698   2.093 -0.7054  0.1291  1.0233
   81MOL0     O10568   5.278   6.758   2.164 -1.2261 -0.2134  0.6408
   81MOL0     C10569   5.244   6.895   2.147  0.5347 -0.0525 -0.5824
   81MOL0     C10570   5.116   6.926   2.232 -0.4414 -1.3619 -0.6247
   81MOL0     C10571   5.053   7.064   2.208  0.8559  0.2807 -0.1676
   81MOL0     C10572   4.919   7.062   2.284  0.3898 -0.6175 -0.5525
   81MOL0     C10573   4.868   7.203   2.259  0.6604  0.3624 -1.0103
   81MOL0     C10574   4.720   7.216   2.315  0.3269  1.0761  0.5540
   81MOL0     C10575   4.611   7.141   2.230 -1.3264 -0.5915  0.0047
   81MOL0     C10576   4.466   7.182   2.266 -0.3876 -0.2790  0.6630
   81MOL0     N10577   4.435   7.200   2.410 -0.4067 -0.1527  0.2361
   81MOL0     C10578   4.453   7.316   2.482  0.6700 -0.0230 -0.4184
   81MOL0     C10579   4.396   7.283   2.606 -0.3444 -0.0036  1.0259
   81MOL0     C10580   4.366   7.369   2.727  0.4044 -0.5018 -0.3900
   81MOL0     C10581   4.228   7.425   2.735 -0.7699 -0.1804  0.6066
   81MOL0     C10582   4.132   7.331   2.805 -0.7884  0.2954 -0.0247
   81MOL0     C10583   4.029   7.415   2.880 -0.4474 -0.3255  0.8120
   81MOL0     O10584   3.933   7.338   2.943 -0.9288 -0.3086 -0.2209
   81MOL0     C10585   3.816   7.397   2.983  0.2660  0.1165 -0.5091
   81MOL0     C10586   3.748   7.478   2.900 -0.1556  0.1220 -0.3670
   81MOL0     C10587   3.619   7.517   2.929 -0.0450  0.4012  0.5745
   81MOL0     C10588   3.576   7.493   3.063  0.1649  0.3740  0.0706
   81MOL0     C10589   3.442   7.554   3.106  0.5579  0.9635  0.8193
   81MOL0     O10590   3.391   7.538   3.235 -0.0728 -0.0818 -0.4549
   81MOL0     C10591   3.268   7.607   3.256  0.2432 -0.6849 -0.7037
   81MOL0     C10592   3.154   7.529   3.262 -1.0373  0.1997 -0.0143
   81MOL0     C10593   3.036   7.586   3.318  0.9220  0.5745  0.7712
   81MOL0     C10594   3.022   7.720   3.352 -0.3251  0.7744  0.9680
   81MOL0     O10595   2.906   7.775   3.402 -0.7902 -0.2990 -0.5543
   81MOL0     C10596   2.852   7.900   3.358 -0.6723  0.1656  0.5149
   81MOL0     C10597   2.705   7.921   3.407  0.0926  0.7115  1.1486
   81MOL0     C10598   2.607   7.803   3.399 -0.0015  0.3832 -0.1600
   81MOL0     C10599   2.472   7.851   3.452 -0.0450  0.7407  0.5479
   81MOL0     C10600   2.366   7.748   3.443  0.6697  0.2172 -0.2232
   81MOL0     C10601   2.230   7.824   3.472  0.0247  0.2530 -0.1150
   81MOL0     C10602   2.103   7.739   3.453 -0.6608 -1.1693 -0.3437
   81MOL0     C10603   2.073   7.665   3.583  0.2761 -0.2769  0.6040
   81MOL0    Cl10604   2.164   7.516   3.566 -0.1400  0.1678  0.0502
   81MOL0     C10605   3.136   7.800   3.324  0.7367 -0.4221 -0.4631
   81MOL0     C10606   3.260   7.746   3.285  0.3546 -0.6804 -0.4971
   81MOL0     O10607   3.377   7.613   3.019  0.8285 -0.2790 -0.0321
   81MOL0     C10608   3.654   7.429   3.156 -0.9939 -0.5121  1.1078
   81MOL0     C10609   3.777   7.375   3.117 -0.7473 -0.0976  0.2930
   81MOL0     N10610   4.338   7.156   2.591 -0.1068  0.2215 -0.9618
   81MOL0     N10611   4.372   7.104   2.481  0.2175  1.2001  0.3785
   81MOL0     C10612   5.398   6.564   2.112 -0.3557  0.5947  0.0612
   81MOL0     C10613   5.502   6.501   2.040  0.1830  0.1298 -0.9493
   81MOL0     C10614   5.935   6.443   1.889  0.2400 -0.3493 -0.4544
   81MOL0     C10615   6.063   6.464   1.933 -0.0999 -0.1358 -0.7065
   81MOL0     C10616   6.171   6.396   1.870 -0.9669  0.1844  0.3704
   81MOL0     C10617   6.141   6.314   1.760 -0.6988 -0.4704  0.4283
   81MOL0     O10618   6.233   6.252   1.679 -0.3233 -0.3339  0.3364
   81MOL0     C10619   6.330   6.156   1.732  0.7131 -0.9347  0.0224
   81MOL0     C10620   6.313   6.020   1.670  0.3579 -0.0384 -0.3961
   81MOL0     C10621   6.318   6.016   1.515 -0.7931 -1.0568 -0.2423
   81MOL0     C10622   6.243   5.900   1.452 -0.5511 -0.1325  0.1285
   81MOL0     C10623   6.109   5.892   1.498  0.0253 -0.1782 -0.6923
   81MOL0     C10624   5.997   5.889   1.545 -0.1810 -0.7945  0.5601
   81MOL0     C10625   6.016   6.296   1.717  0.2583  0.3587 -0.0182
   81MOL0     C10626   5.913   6.366   1.775  0.2484  0.1648  0.2902
   81MOL0     H10627   5.630   6.754   1.864 -1.0292 -1.0777 -1.6193
   81MOL0     H10628   5.452   6.874   1.977  2.3361  0.7430  1.2702
   81MOL0     H10629   5.214   6.913   2.043 -1.2438 -0.7988 -0.2347
   81MOL0     H10630   5.329   6.952   2.186 -0.2922  0.7944  0.0335
   81MOL0     H10631   5.138   6.923   2.339 -1.4697 -1.3418 -0.4039
   81MOL0     H10632   5.053   6.837   2.234 -2.1146 -0.2676  2.2701
   81MOL0     H10633   5.042   7.073   2.100 -0.2761  0.3412 -0.0675
   81MOL0     H10634   5.121   7.145   2.235 -1.8085  2.1346  1.4091
   81MOL0     H10635   4.847   6.989   2.246 -1.2540  0.3856  0.4765
   81MOL0     H10636   4.926   7.066   2.393  1.4874  2.8354 -0.6382
   81MOL0     H10637   4.865   7.224   2.152  2.6864  0.0823 -1.1718
   81MOL0     H10638   4.930   7.280   2.306  1.2603  0.6178 -2.2059
   81MOL0     H10639   4.678   7.316   2.298 -1.5624  0.1019 -0.9308
   81MOL0     H10640   4.708   7.181   2.418 -0.5833 -0.4367 -0.0380
   81MOL0     H10641   4.630   7.142   2.122  1.3921 -2.1682  0.3754
   81MOL0     H10642   4.621   7.037   2.264 -0.7930 -0.2779  0.8298
   81MOL0     H10643   4.412   7.102   2.216  2.1529 -0.2494 -2.4296
   81MOL0     H10644   4.443   7.268   2.202  0.6822 -0.3069  0.2205
   81MOL0     H10645   4.509   7.401   2.446  0.5942  0.5947  0.8446
   81MOL0     H10646   4.429   7.459   2.725 -0.3718  0.2313  2.8044
   81MOL0     H10647   4.390   7.313   2.818 -0.0312 -0.4659 -0.2485
   81MOL0     H10648   4.194   7.460   2.637 -2.2197 -2.5179  0.1959
   81MOL0     H10649   4.245   7.514   2.795  0.5548 -0.1369  0.2195
   81MOL0     H10650   4.087   7.269   2.727  1.1038 -0.9788 -0.1667
   81MOL0     H10651   4.183   7.266   2.877  0.4141  0.1209 -1.0061
   81MOL0     H10652   3.981   7.476   2.804 -2.9243 -1.9206  0.9733
   81MOL0     H10653   4.065   7.496   2.944  1.9186  0.1678 -0.9836
   81MOL0     H10654   3.773   7.499   2.797 -2.9816  0.6148 -1.0538
   81MOL0     H10655   3.551   7.571   2.864 -1.6532  0.4424  2.1920
   81MOL0     H10656   3.157   7.423   3.241  2.0891  0.5410 -2.0047
   81MOL0     H10657   2.942   7.532   3.327  2.4758 -2.4623  0.2985
   81MOL0     H10658   2.864   7.899   3.250 -1.3311  2.2171  0.3845
   81MOL0     H10659   2.906   7.983   3.404 -0.2638  2.4268 -3.6292
   81MOL0     H10660   2.678   8.012   3.353  0.8646 -0.9650 -2.3804
   81MOL0     H10661   2.717   7.928   3.515  2.5167  0.7554  0.9197
   81MOL0     H10662   2.632   7.719   3.464 -0.7402 -1.1409 -1.7524
   81MOL0     H10663   2.597   7.776   3.293  0.6994 -3.0435  0.5246
   81MOL0     H10664   2.473   7.878   3.558  0.9438 -0.1022  0.7801
   81MOL0     H10665   2.444   7.937   3.391  2.2313  0.6992 -0.6905
   81MOL0     H10666   2.385   7.666   3.513  1.3814 -0.5614 -1.2892
   81MOL0     H10667   2.352   7.710   3.341 -0.9570  2.6810 -1.0207
   81MOL0     H10668   2.226   7.909   3.403  4.2428 -0.2494 -1.2675
   81MOL0     H10669   2.227   7.865   3.574 -1.0131 -1.0559  0.4217
   81MOL0     H10670   2.026   7.812   3.426  1.2132  1.7318  1.5541
   81MOL0     H10671   2.110   7.681   3.361 -0.3188  2.2735 -2.6812
   81MOL0     H10672   1.967   7.661   3.608  0.5162  3.3879  3.0900
   81MOL0     H10673   2.100   7.722   3.673 -1.8130  1.5307  0.1696
   81MOL0     H10674   3.140   7.908   3.335 -0.6579 -0.5135  1.3257
   81MOL0     H10675   3.345   7.813   3.279 -1.3656  1.5197 -1.7053
   81MOL0     H10676   3.616   7.415   3.256  0.4252  2.1030  2.1036
   81MOL0     H10677   3.829   7.320   3.195 -3.5311 -3.8615 -0.2161
   81MOL0     H10678   5.326   6.510   2.172 -1.7593  1.1057 -1.1111
   81MOL0     H10679   5.511   6.395   2.064  4.5798  0.1009 -1.7815
   81MOL0     H10680   6.078   6.534   2.015 -0.2377 -1.3542  0.4008
   81MOL0     H10681   6.267   6.407   1.919  0.6810 -2.2048 -2.0994
   81MOL0     H10682   6.320   6.151   1.841  2.2448  1.0209  0.3137
   81MOL0     H10683   6.432   6.194   1.723  0.9167 -1.7815 -1.7603
   81MOL0     H10684   6.392   5.953   1.705  1.2874 -0.9137 -3.7628
   81MOL0     H10685   6.222   5.983   1.716  0.5965  2.3265  2.2709
   81MOL0     H10686   6.419   6.000   1.475 -1.1542 -1.7471 -0.9137
   81MOL0     H10687   6.273   6.108   1.476 -0.6193 -0.4467  0.9643
   81MOL0     H10688   6.258   5.912   1.344  1.3375  2.8203  0.6029
   81MOL0     H10689   6.305   5.815   1.481  0.9019  1.2048  1.1548
   81MOL0     H10690   5.902   5.897   1.593  0.1107 -0.8723  1.1679
   81MOL0     H10691   6.003   6.245   1.622 -3.4091 -1.0849  1.0729
   81MOL0     H10692   5.812   6.358   1.735  0.3048  2.6752 -0.5717
   82MOL0     O10693   9.433   4.776   8.765  0.0124 -0.1509 -0.2876
   82MOL0     C10694   9.354   4.753   8.672  0.1398  0.3766 -0.3131
   82MOL0     O10695   9.390   4.719   8.538  0.1315  0.0923  0.4386
   82MOL0     C10696   9.519   4.731   8.505 -1.1323 -0.8759  0.2988
   82MOL0     C10697   9.558   4.826   8.407  0.9746 -0.2336 -0.3393
   82MOL0     C10698   9.687   4.838   8.369  0.4319  0.4063 -0.7033
   82MOL0     C10699   9.784   4.763   8.437  0.1333 -0.0476 -0.5297
   82MOL0     O10700   9.913   4.786   8.424  0.2655 -0.0705  1.2703
   82MOL0     C10701   9.974   4.873   8.519  0.8229 -0.1669  0.9329
   82MOL0     C10702  10.128   4.854   8.525  0.0949 -0.0022  0.6029
   82MOL0     C10703  10.148   4.721   8.588 -0.7776  0.1319  0.4656
   82MOL0     C10704  10.299   4.681   8.588 -0.0615  0.0325 -0.7296
   82MOL0     C10705  10.318   4.550   8.665 -0.0259  0.1882 -0.2281
   82MOL0     C10706  10.464   4.508   8.655 -0.0880  0.3487  0.4699
   82MOL0     C10707  10.476   4.380   8.741  0.1021 -0.6947  0.1227
   82MOL0     C10708  10.627   4.344   8.759  0.8565 -0.0373  0.0716
   82MOL0     N10709  10.716   4.357   8.644  0.3345  0.0882 -0.1265
   82MOL0     C10710  10.824   4.447   8.640  0.5853  0.1855  0.4342
   82MOL0     C10711  10.903   4.402   8.534  0.8386 -0.6543  1.1167
   82MOL0     C10712  11.032   4.457   8.473  0.9143 -0.3033  0.1229
   82MOL0     C10713  11.031   4.436   8.322  0.3668 -1.0304 -0.3739
   82MOL0     C10714  11.082   4.298   8.261 -0.0881 -0.7163 -0.6818
   82MOL0     C10715  10.974   4.244   8.168  0.3217 -0.1819  0.1817
   82MOL0     O10716  11.009   4.113   8.103  0.1258 -0.3578 -0.2700
   82MOL0     C10717  10.993   4.006   8.182  0.5885  0.1485  0.0499
   82MOL0     C10718  11.086   3.910   8.170 -0.8263 -0.4799 -0.1101
   82MOL0     C10719  11.104   3.802   8.258 -0.0875  1.2808 -0.5589
   82MOL0     C10720  11.015   3.784   8.367 -0.2606  0.1258  0.5352
   82MOL0     C10721  11.041   3.675   8.463 -0.0054  0.6455  0.4445
   82MOL0     O10722  10.946   3.678   8.561  0.5968 -0.2562 -0.4930
   82MOL0     C10723  10.944   3.611   8.680 -0.5558 -0.0411  0.4503
   82MOL0     C10724  10.818   3.625   8.749  0.2758  0.3805  0.3855
   82MOL0     C10725  10.797   3.559   8.872 -0.4611 -0.5555 -0.3785
   82MOL0     C10726  10.899   3.489   8.931 -0.4254  0.3813  0.3923
   82MOL0     O10727  10.883   3.443   9.058  0.7367  0.2962 -0.4307
   82MOL0     C10728  10.992   3.473   9.145  1.1131 -0.4147 -0.4318
   82MOL0     C10729  10.945   3.472   9.281 -0.0641  1.1505  0.3455
   82MOL0     C10730  11.047   3.512   9.390  0.8562 -0.2252  0.4348
   82MOL0     C10731  10.980   3.506   9.523 -0.2119  0.9857  0.1990
   82MOL0     C10732  11.076   3.544   9.641  0.3701  0.1672  0.1328
   82MOL0     C10733  11.015   3.498   9.771 -0.2540 -0.5878 -0.9727
   82MOL0     C10734  10.928   3.604   9.834  0.1177  0.0515 -0.1689
   82MOL0     C10735  10.851   3.551   9.957  0.2970  0.1723  0.0889
   82MOL0    Cl10736  10.731   3.447   9.887  0.1057 -0.0367  0.0188
   82MOL0     C10737  11.015   3.479   8.856  0.6528 -0.8899 -0.0040
   82MOL0     C10738  11.043   3.530   8.730  0.2034  0.0739  0.6697
   82MOL0     O10739  11.145   3.614   8.464  0.4959  0.0112 -0.1156
   82MOL0     C10740  10.913   3.878   8.379  0.0304 -0.3266  0.5623
   82MOL0     C10741  10.904   3.989   8.293 -0.3824  0.9700 -0.8332
   82MOL0     N10742  10.834   4.305   8.470  0.0277  0.0525  0.0860
   82MOL0     N10743  10.723   4.277   8.534  0.6002 -0.3902  0.0164
   82MOL0     C10744   9.748   4.666   8.528  0.1715 -0.4379  0.0991
   82MOL0     C10745   9.613   4.652   8.563 -1.1666  0.8234  0.1995
   82MOL0     C10746   9.210   4.749   8.715  0.3997 -0.5515 -0.0235
   82MOL0     C10747   9.168   4.760   8.847  0.0097  0.1789 -0.1864
   82MOL0     C10748   9.029   4.770   8.878  0.6887  0.8280  0.5040
   82MOL0     C10749   8.935   4.758   8.778 -0.1980 -0.9358  0.1762
   82MOL0     O10750   8.798   4.766   8.798 -0.3562 -0.0475 -0.1901
   82MOL0     C10751   8.757   4.752   8.936 -0.0589 -0.1839 -0.2268
   82MOL0     C10752   8.622   4.692   8.951  0.2116 -0.5478 -0.9112
   82MOL0     C10753   8.618   4.538   8.914  0.1829 -0.4289 -0.5143
   82MOL0     C10754   8.508   4.453   8.978 -0.1388 -0.0025 -0.8050
   82MOL0     C10755   8.376   4.514   8.964  0.9671  0.4718 -0.0419
   82MOL0     C10756   8.264   4.558   8.939  0.3724  0.8605  0.3812
   82MOL0     C10757   8.980   4.743   8.647 -0.8459  0.6503 -0.5082
   82MOL0     C10758   9.114   4.734   8.617  0.3882  0.3456 -0.2354
   82MOL0     H10759   9.483   4.889   8.362 -0.3797 -1.7894 -0.3342
   82MOL0     H10760   9.712   4.920   8.302  0.6111 -0.3601 -1.5973
   82MOL0     H10761   9.933   4.866   8.620  0.0593 -0.6181  0.6000
   82MOL0     H10762   9.958   4.974   8.481  1.5444  0.2305  1.6446
   82MOL0     H10763  10.172   4.938   8.580  1.5211 -0.2275 -0.1434
   82MOL0     H10764  10.175   4.852   8.426 -1.7409  1.5351 -0.3698
   82MOL0     H10765  10.099   4.639   8.534  0.6275  0.4134 -1.3136
   82MOL0     H10766  10.108   4.731   8.689 -2.6474  0.5724 -0.2610
   82MOL0     H10767  10.354   4.686   8.493  0.9687  4.5103 -0.1493
   82MOL0     H10768  10.356   4.752   8.648 -1.6243  2.1204 -1.5763
   82MOL0     H10769  10.259   4.475   8.613 -5.3316  1.6779  2.8422
   82MOL0     H10770  10.279   4.570   8.766 -0.0057 -0.9051  0.0020
   82MOL0     H10771  10.528   4.583   8.703 -0.5472  1.2949 -0.3472
   82MOL0     H10772  10.497   4.487   8.552 -1.0124  1.9288 -0.1793
   82MOL0     H10773  10.437   4.390   8.842  1.6565  0.7824  0.6023
   82MOL0     H10774  10.424   4.296   8.692 -2.9493 -0.1603  2.1359
   82MOL0     H10775  10.610   4.243   8.798 -0.9562  0.8187  1.7091
   82MOL0     H10776  10.670   4.411   8.835 -2.2639  0.6650  1.4050
   82MOL0     H10777  10.843   4.529   8.709 -0.1155  1.6948 -1.1135
   82MOL0     H10778  11.121   4.423   8.528 -0.0372 -2.0863  0.6215
   82MOL0     H10779  11.026   4.566   8.477 -1.5110 -0.4046  0.8637
   82MOL0     H10780  11.100   4.514   8.290  1.9369 -1.3500  1.9728
   82MOL0     H10781  10.928   4.442   8.284 -1.0850 -1.6480  3.1159
   82MOL0     H10782  11.175   4.311   8.205  0.6637  3.5157  1.1438
   82MOL0     H10783  11.109   4.232   8.344  2.9050  3.3462  1.9827
   82MOL0     H10784  10.949   4.316   8.090  0.8115 -1.7889 -1.5224
   82MOL0     H10785  10.872   4.244   8.208  0.2912  0.5460  0.1181
   82MOL0     H10786  11.160   3.909   8.091  1.6319  2.1661  1.9565
   82MOL0     H10787  11.185   3.731   8.243 -0.6952  0.1666  1.1875
   82MOL0     H10788  10.736   3.683   8.710 -0.8786 -1.7822 -0.5779
   82MOL0     H10789  10.711   3.569   8.939 -1.3883 -2.9455 -1.0885
   82MOL0     H10790  11.041   3.570   9.126 -0.1417  0.0250 -1.6506
   82MOL0     H10791  11.063   3.393   9.127  0.4515 -0.7180 -1.8424
   82MOL0     H10792  10.905   3.371   9.299 -1.0602  0.8256 -3.0421
   82MOL0     H10793  10.859   3.539   9.273 -0.9685 -0.1963 -3.8092
   82MOL0     H10794  11.078   3.616   9.381  1.0249 -0.4109 -2.0930
   82MOL0     H10795  11.137   3.450   9.382  0.4317 -1.1604  2.3538
   82MOL0     H10796  10.902   3.582   9.520 -1.0793  0.1214  0.1004
   82MOL0     H10797  10.939   3.404   9.526  0.5328  0.6213 -0.9585
   82MOL0     H10798  11.093   3.652   9.649 -0.6216  0.2059  2.7162
   82MOL0     H10799  11.177   3.504   9.623  1.8616  1.7684  3.9022
   82MOL0     H10800  11.102   3.483   9.837 -0.9614  0.4817  0.2482
   82MOL0     H10801  10.964   3.403   9.756 -1.3705 -0.3891  1.1088
   82MOL0     H10802  10.995   3.681   9.873 -0.2680  0.5990 -0.5845
   82MOL0     H10803  10.857   3.646   9.763 -4.0031 -2.0606  2.2792
   82MOL0     H10804  10.795   3.625  10.014 -0.6391  0.3346 -0.9944
   82MOL0     H10805  10.919   3.498  10.024 -0.2738 -1.3980 -0.5064
   82MOL0     H10806  11.101   3.430   8.901  1.5144 -0.7012 -1.3945
   82MOL0     H10807  11.129   3.500   8.671 -0.3876  0.3712 -0.3576
   82MOL0     H10808  10.843   3.878   8.462 -2.0356  0.1319 -1.0757
   82MOL0     H10809  10.833   4.057   8.339 -1.7091 -1.7691  1.4242
   82MOL0     H10810   9.811   4.584   8.560 -0.1857 -0.8683 -0.2823
   82MOL0     H10811   9.576   4.587   8.643 -0.7349  1.6215  1.0703
   82MOL0     H10812   9.240   4.754   8.928 -0.9708  0.6198  0.7252
   82MOL0     H10813   9.012   4.774   8.985 -0.6982 -3.7011  0.6685
   82MOL0     H10814   8.745   4.852   8.979 -1.6623 -1.3421  2.2654
   82MOL0     H10815   8.827   4.691   8.993 -1.8005  0.3086  2.6889
   82MOL0     H10816   8.601   4.702   9.058 -1.2136 -3.7778 -0.7419
   82MOL0     H10817   8.538   4.743   8.903 -2.2237 -0.9948  2.5231
   82MOL0     H10818   8.715   4.490   8.933  2.7789  3.7844 -1.5612
   82MOL0     H10819   8.598   4.527   8.807 -0.9693 -0.5752 -0.2944
   82MOL0     H10820   8.504   4.352   8.935 -4.3906 -0.3210 -0.1014
   82MOL0     H10821   8.535   4.435   9.083  0.7093 -0.0413 -1.0201
   82MOL0     H10822   8.164   4.588   8.918  0.0219  0.9377  1.9727
   82MOL0     H10823   8.906   4.713   8.573 -1.1676 -1.4024  0.5893
   82MOL0     H10824   9.133   4.718   8.512 -1.7368  1.1724 -0.7952
   83MOL0     O10825  10.718   0.028   2.861  0.1402 -0.0545 -0.1784
   83MOL0     C10826  10.753   0.068   2.753  0.2970  0.2967  0.7417
   83MOL0     O10827  10.883   0.090   2.712  0.7263  0.0457 -0.2569
   83MOL0     C10828  10.992   0.061   2.789  0.0267  0.8470 -0.3921
   83MOL0     C10829  10.996   0.060   2.925  0.2324  0.2702  1.2317
   83MOL0     C10830  11.119   0.029   2.997  1.0861 -0.3453 -0.6138
   83MOL0     C10831  11.227  -0.022   2.922 -0.3147 -0.1972 -0.2550
   83MOL0     O10832  11.346  -0.070   2.950 -0.7588  0.2769 -0.9031
   83MOL0     C10833  11.373  -0.065   3.092 -0.2974 -0.0088 -0.2724
   83MOL0     C10834  11.523  -0.114   3.104  0.0039  0.0573 -0.2080
   83MOL0     C10835  11.562  -0.120   3.259  0.1507  0.2104 -0.8437
   83MOL0     C10836  11.701  -0.174   3.296  0.2296 -0.2864  0.2761
   83MOL0     C10837  11.729  -0.173   3.446  0.3033 -1.0060 -0.0484
   83MOL0     C10838  11.776  -0.032   3.493 -0.7694  0.0371 -0.3730
   83MOL0     C10839  11.931  -0.026   3.482  0.1384 -0.3295 -0.6473
   83MOL0     C10840  11.989   0.006   3.346  0.8639 -0.1148 -1.0851
   83MOL0     N10841  11.926   0.125   3.276  0.3185  0.7631 -0.7280
   83MOL0     C10842  11.897   0.132   3.144 -0.4737 -0.3624 -0.2690
   83MOL0     C10843  11.840   0.249   3.117  0.4199  0.0750  1.1858
   83MOL0     C10844  11.800   0.304   2.980 -0.5220  0.3460 -1.1099
   83MOL0     C10845  11.654   0.271   2.950 -1.4452  0.3771  0.9322
   83MOL0     C10846  11.622   0.336   2.818 -0.2333 -0.1495 -0.2222
   83MOL0     C10847  11.472   0.320   2.791 -0.2903  0.5053 -0.6426
   83MOL0     O10848  11.452   0.396   2.666 -0.5572  0.1814 -0.8003
   83MOL0     C10849  11.340   0.388   2.594  0.6229 -0.4338 -1.0765
   83MOL0     C10850  11.225   0.324   2.646  0.6972  0.7154 -0.4805
   83MOL0     C10851  11.110   0.313   2.569 -0.2923  1.4116  0.3455
   83MOL0     C10852  11.104   0.367   2.435  0.1670 -0.9876 -0.2703
   83MOL0     C10853  10.974   0.353   2.370  0.3652  0.5483 -1.3268
   83MOL0     O10854  10.925   0.470   2.331  0.4806 -0.2558 -0.2305
   83MOL0     C10855  10.788   0.500   2.291 -0.5891  0.6680  0.7509
   83MOL0     C10856  10.748   0.632   2.251  0.6360 -0.7303  0.5330
   83MOL0     C10857  10.614   0.661   2.208 -0.6001 -0.8446 -0.2218
   83MOL0     C10858  10.522   0.556   2.203 -0.1357  0.1720 -0.5701
   83MOL0     O10859  10.400   0.586   2.167 -0.6251  0.1416  0.9955
   83MOL0     C10860  10.297   0.493   2.176  1.2512  0.1795 -0.2605
   83MOL0     C10861  10.174   0.580   2.148  0.9720 -0.4690  0.5135
   83MOL0     C10862  10.044   0.504   2.194  0.2098 -1.2822  0.9588
   83MOL0     C10863   9.916   0.566   2.123  0.2270  0.0174  0.0314
   83MOL0     C10864   9.776   0.514   2.162 -0.9255 -0.2362  0.4372
   83MOL0     C10865   9.764   0.371   2.219  1.0881  1.1242  0.1315
   83MOL0     C10866   9.624   0.316   2.185 -0.1730 -0.1513 -0.9309
   83MOL0     C10867   9.637   0.252   2.052 -0.3045 -0.0521 -0.0060
   83MOL0    Cl10868   9.478   0.244   1.984  0.3829  0.4887  0.0718
   83MOL0     C10869  10.562   0.429   2.234 -0.4429  0.9661  0.6260
   83MOL0     C10870  10.685   0.402   2.279 -0.6925  0.4332 -0.3873
   83MOL0     O10871  10.921   0.240   2.351 -0.8437 -0.3324  0.0113
   83MOL0     C10872  11.221   0.433   2.387  0.4329  0.4066 -0.5110
   83MOL0     C10873  11.333   0.447   2.469  0.0446  1.2269  0.4060
   83MOL0     N10874  11.825   0.310   3.237  0.1375  0.5608 -0.9167
   83MOL0     N10875  11.896   0.250   3.325 -0.0537  1.1097 -0.2947
   83MOL0     C10876  11.211  -0.024   2.789 -0.4549  0.9122 -0.3526
   83MOL0     C10877  11.101   0.019   2.717 -0.3500 -0.2650  0.3205
   83MOL0     C10878  10.643   0.074   2.656 -0.7739  0.1362 -0.1044
   83MOL0     C10879  10.683   0.077   2.523 -0.0643 -0.3479 -0.8753
   83MOL0     C10880  10.590   0.089   2.424 -0.1024  0.1867  0.5782
   83MOL0     C10881  10.457   0.123   2.444 -0.4777  0.6846 -0.6911
   83MOL0     O10882  10.376   0.144   2.333  0.4238  0.4105 -0.7401
   83MOL0     C10883  10.230   0.133   2.338  0.6090 -0.0695  0.2034
   83MOL0     C10884  10.181   0.049   2.218  0.2811 -0.8057 -0.0805
   83MOL0     C10885  10.250  -0.081   2.216 -0.8436 -1.0107  0.3951
   83MOL0     C10886  10.158  -0.200   2.190  0.9997  0.2358  0.2297
   83MOL0     C10887  10.230  -0.334   2.224  1.6277  0.0700 -0.6868
   83MOL0     C10888  10.276  -0.435   2.276 -0.7987  1.4114  0.0576
   83MOL0     C10889  10.414   0.116   2.584 -0.4177  0.1862  0.0319
   83MOL0     C10890  10.509   0.102   2.680  0.0898  0.3344 -0.4752
   83MOL0     H10891  10.902   0.078   2.975 -0.6029  1.5816 -0.7235
   83MOL0     H10892  11.116   0.033   3.105  3.0852 -0.2708 -0.5320
   83MOL0     H10893  11.305  -0.124   3.155  2.6205 -0.4960  2.7177
   83MOL0     H10894  11.366   0.035   3.136 -0.2996 -0.0281 -0.2281
   83MOL0     H10895  11.585  -0.039   3.054 -1.2085  1.6467  0.5679
   83MOL0     H10896  11.544  -0.212   3.061  2.2129  0.0501  0.7732
   83MOL0     H10897  11.489  -0.188   3.306 -0.8180 -0.0856 -2.6874
   83MOL0     H10898  11.558  -0.015   3.292 -0.2091  0.0343 -0.3137
   83MOL0     H10899  11.710  -0.278   3.263  1.2607  0.2471 -1.2216
   83MOL0     H10900  11.771  -0.110   3.242 -1.4372 -1.0989 -3.0939
   83MOL0     H10901  11.804  -0.244   3.483  1.0424  0.9706  2.5858
   83MOL0     H10902  11.635  -0.196   3.496  0.5645  1.9274  2.0811
   83MOL0     H10903  11.749  -0.014   3.598 -0.6530  0.7918 -0.4597
   83MOL0     H10904  11.727   0.055   3.448  0.5463  2.8469  3.0881
   83MOL0     H10905  11.971   0.049   3.550  1.8197 -1.1045 -0.7372
   83MOL0     H10906  11.964  -0.126   3.511  0.2254 -0.0184  0.3439
   83MOL0     H10907  11.989  -0.084   3.284  1.5170 -0.2037 -0.9615
   83MOL0     H10908  12.092   0.023   3.378  0.8528 -1.3036 -0.3601
   83MOL0     H10909  11.923   0.050   3.077  1.0512 -0.1695  0.0670
   83MOL0     H10910  11.851   0.266   2.891 -1.5484  2.4821 -2.7106
   83MOL0     H10911  11.812   0.412   2.991 -2.2474  0.3329  2.5813
   83MOL0     H10912  11.590   0.314   3.028 -2.1756  1.0091  0.0041
   83MOL0     H10913  11.636   0.163   2.939 -1.1512  0.4084  0.0469
   83MOL0     H10914  11.631   0.443   2.841 -3.5314 -0.0471  1.1484
   83MOL0     H10915  11.683   0.306   2.732  1.1552  0.4016  0.5280
   83MOL0     H10916  11.406   0.344   2.876 -0.9273 -1.5331 -0.4991
   83MOL0     H10917  11.458   0.213   2.774  0.6601 -0.5217  3.6425
   83MOL0     H10918  11.227   0.283   2.747  1.7927 -0.4939 -0.9581
   83MOL0     H10919  11.018   0.268   2.606 -0.9900  1.2362 -1.5299
   83MOL0     H10920  10.817   0.715   2.240  1.3812 -1.5264 -1.0081
   83MOL0     H10921  10.585   0.758   2.169 -2.5644 -1.0446  0.6397
   83MOL0     H10922  10.278   0.451   2.275 -2.8357  2.1473  0.0053
   83MOL0     H10923  10.309   0.414   2.102  2.0796  2.1691 -2.3687
   83MOL0     H10924  10.171   0.605   2.042 -1.1206 -3.3779 -0.2341
   83MOL0     H10925  10.162   0.680   2.190 -4.6461  0.8413 -3.1261
   83MOL0     H10926  10.026   0.519   2.301  0.3370  1.5078  0.6604
   83MOL0     H10927  10.061   0.398   2.172  4.6663 -0.2138 -2.1182
   83MOL0     H10928   9.912   0.673   2.143 -1.6279  0.1561 -0.8619
   83MOL0     H10929   9.926   0.563   2.014 -2.2624 -1.3181 -0.2348
   83MOL0     H10930   9.709   0.535   2.078 -2.6803  1.4095  2.1482
   83MOL0     H10931   9.737   0.575   2.243 -3.7021 -0.2681 -0.7731
   83MOL0     H10932   9.777   0.372   2.328 -0.8005  1.5868  0.3853
   83MOL0     H10933   9.836   0.298   2.182 -0.4453 -0.7683  0.6889
   83MOL0     H10934   9.574   0.254   2.260 -3.3006  0.3349 -2.4593
   83MOL0     H10935   9.560   0.404   2.180 -0.6720 -0.5241 -1.2933
   83MOL0     H10936   9.692   0.157   2.057 -0.8079 -0.3039  1.0684
   83MOL0     H10937   9.690   0.314   1.980 -0.8452 -1.6288 -1.8582
   83MOL0     H10938  10.506   0.339   2.212  2.4719 -1.0910  1.1080
   83MOL0     H10939  10.700   0.295   2.284  1.5846  0.7711  1.7598
   83MOL0     H10940  11.232   0.478   2.289 -1.5824  2.1157 -0.0216
   83MOL0     H10941  11.424   0.497   2.437  0.6345  0.3896  0.7447
   83MOL0     H10942  11.293  -0.053   2.724 -0.7345  0.9522 -0.7294
   83MOL0     H10943  11.109   0.016   2.609  1.9234  0.4039  0.4244
   83MOL0     H10944  10.780   0.047   2.487 -0.8237 -2.2168 -1.4641
   83MOL0     H10945  10.621   0.079   2.320 -1.7114  0.4967  0.0348
   83MOL0     H10946  10.172   0.226   2.340 -0.5156 -0.7543 -0.0106
   83MOL0     H10947  10.196   0.082   2.428  0.9163  0.3489  0.5627
   83MOL0     H10948  10.072   0.038   2.220  0.3151 -1.0820  1.3093
   83MOL0     H10949  10.223   0.102   2.132  0.9482 -0.2056  0.6058
   83MOL0     H10950  10.305  -0.097   2.309  0.4934  1.1078  0.0418
   83MOL0     H10951  10.328  -0.069   2.140 -2.4265  0.4928 -1.0806
   83MOL0     H10952  10.067  -0.207   2.251  0.1969 -1.0692 -1.0445
   83MOL0     H10953  10.118  -0.208   2.088  0.1891  0.5460  0.5149
   83MOL0     H10954  10.315  -0.529   2.310 -2.3452  0.6825 -0.1161
   83MOL0     H10955  10.313   0.139   2.616 -0.5106  2.7774 -1.8291
   83MOL0     H10956  10.463   0.104   2.778  0.7010  1.4467 -0.1913
   84MOL0     O10957   3.006   2.043   3.927  0.1637 -0.4574  0.1038
   84MOL0     C10958   3.041   1.966   4.014  0.9204 -0.0412 -0.0554
   84MOL0     O10959   3.172   1.944   4.057 -0.5181  0.0001 -0.0481
   84MOL0     C10960   3.285   1.983   3.982 -0.9828  0.1289  0.5212
   84MOL0     C10961   3.413   1.912   3.998 -0.0091 -0.4838 -1.2926
   84MOL0     C10962   3.524   1.954   3.936  0.2715 -0.8002 -0.3996
   84MOL0     C10963   3.525   2.063   3.848  0.8359  0.9993  0.1990
   84MOL0     O10964   3.639   2.082   3.794 -0.9200  0.0705  0.4939
   84MOL0     C10965   3.674   2.226   3.787 -0.1280  0.4994 -0.8622
   84MOL0     C10966   3.811   2.237   3.735 -0.3862 -0.2661  0.6313
   84MOL0     C10967   3.811   2.183   3.592  0.4863  0.0271  0.1104
   84MOL0     C10968   3.953   2.217   3.532  0.2688  1.2766 -0.3607
   84MOL0     C10969   3.972   2.129   3.408  0.0595  0.5177  0.1427
   84MOL0     C10970   4.116   2.126   3.355  0.2645 -0.1456 -0.3718
   84MOL0     C10971   4.123   2.045   3.236  0.2113  0.6834  0.1280
   84MOL0     C10972   4.074   1.903   3.241 -0.5517  0.0768 -0.9824
   84MOL0     N10973   4.112   1.857   3.110 -0.3082 -0.7377  0.4897
   84MOL0     C10974   4.031   1.867   3.001 -0.2227 -0.6543 -0.8188
   84MOL0     C10975   4.078   1.774   2.917 -0.5576 -0.5673  0.2494
   84MOL0     C10976   4.032   1.749   2.775 -0.4985 -0.3347  0.0568
   84MOL0     C10977   3.911   1.661   2.771 -1.4628 -0.3454 -0.4999
   84MOL0     C10978   3.867   1.612   2.636 -0.1159 -0.7385  0.5725
   84MOL0     C10979   3.739   1.528   2.648 -0.4971 -0.6787 -0.6320
   84MOL0     O10980   3.631   1.627   2.660 -0.1367 -0.0221 -0.7043
   84MOL0     C10981   3.506   1.579   2.689  0.3742 -0.0862  1.0522
   84MOL0     C10982   3.474   1.455   2.747  0.0683 -0.3363 -0.0503
   84MOL0     C10983   3.345   1.427   2.792  0.6083  0.0612  0.5073
   84MOL0     C10984   3.238   1.514   2.757  0.4079  0.2101 -0.5156
   84MOL0     C10985   3.098   1.479   2.793 -0.0120 -0.7052 -0.4768
   84MOL0     O10986   3.079   1.384   2.887  0.1149 -0.4769 -0.0706
   84MOL0     C10987   2.952   1.373   2.931  0.0748  0.1042 -0.2915
   84MOL0     C10988   2.879   1.253   2.904  0.8217 -0.3414 -0.3969
   84MOL0     C10989   2.749   1.248   2.969 -0.7020  0.7770  0.5691
   84MOL0     C10990   2.696   1.335   3.055  0.7797 -1.0437 -0.3742
   84MOL0     O10991   2.560   1.323   3.092  0.1120  0.1232 -0.4479
   84MOL0     C10992   2.526   1.420   3.193  0.5464  0.1743  0.0771
   84MOL0     C10993   2.384   1.393   3.238 -0.0353 -1.6124 -0.2781
   84MOL0     C10994   2.285   1.438   3.135 -0.6536 -0.1312 -0.2912
   84MOL0     C10995   2.151   1.448   3.204  0.5675 -0.5441  0.6974
   84MOL0     C10996   2.030   1.472   3.114  0.5789 -0.2762  0.3108
   84MOL0     C10997   1.914   1.532   3.194 -0.6381  0.9095 -0.1460
   84MOL0     C10998   1.845   1.446   3.303 -0.1190 -0.5318  1.0923
   84MOL0     C10999   1.773   1.543   3.397 -0.3693 -0.1985  0.2835
   84MOL0    Cl11000   1.689   1.683   3.299 -0.1885 -0.1346  0.1345
   84MOL0     C11001   2.771   1.449   3.079 -0.0332  0.0298  0.4792
   84MOL0     C11002   2.894   1.470   3.014 -0.5244 -0.4404 -0.0663
   84MOL0     O11003   3.006   1.545   2.740 -0.4393 -0.3537 -0.7056
   84MOL0     C11004   3.265   1.632   2.694  0.2642  0.0767 -0.3391
   84MOL0     C11005   3.399   1.667   2.664 -0.4021 -0.0588  0.6324
   84MOL0     N11006   4.193   1.715   2.959  0.5219  1.1491 -0.6445
   84MOL0     N11007   4.214   1.770   3.072 -0.5648 -0.5648 -0.1648
   84MOL0     C11008   3.410   2.137   3.833 -0.3115  0.4930  0.6814
   84MOL0     C11009   3.299   2.092   3.900 -0.3702 -0.2591  1.0416
   84MOL0     C11010   2.935   1.906   4.090 -0.5298 -0.1292 -0.1914
   84MOL0     C11011   2.957   1.826   4.197 -0.5683  1.1561  0.8850
   84MOL0     C11012   2.855   1.777   4.279 -0.1438  1.2156  0.4952
   84MOL0     C11013   2.725   1.807   4.256 -0.4613 -1.1581  0.9920
   84MOL0     O11014   2.617   1.771   4.327  0.6508  0.4635 -0.3826
   84MOL0     C11015   2.639   1.700   4.456 -0.7761  0.5123  0.2839
   84MOL0     C11016   2.504   1.654   4.514  0.2237  0.3984  0.5090
   84MOL0     C11017   2.417   1.766   4.557  0.2376  0.4874 -0.9134
   84MOL0     C11018   2.279   1.705   4.608 -0.3033 -0.5042 -0.0671
   84MOL0     C11019   2.209   1.821   4.670 -0.5583  0.5434 -0.7509
   84MOL0     C11020   2.140   1.901   4.729  0.4820 -1.1631 -0.4266
   84MOL0     C11021   2.693   1.884   4.142 -0.1950 -0.3321 -0.8016
   84MOL0     C11022   2.799   1.937   4.062 -0.6765 -0.2494 -0.2628
   84MOL0     H11023   3.429   1.826   4.062 -2.2075  0.9521  1.4420
   84MOL0     H11024   3.622   1.911   3.953  0.1673 -1.5877 -1.6880
   84MOL0     H11025   3.655   2.277   3.882  1.1942  0.9528 -0.8099
   84MOL0     H11026   3.608   2.280   3.719  0.9698  3.0946 -0.0253
   84MOL0     H11027   3.883   2.178   3.792 -0.4694 -0.8476  0.1480
   84MOL0     H11028   3.849   2.339   3.746 -0.0019 -0.4674  1.2040
   84MOL0     H11029   3.737   2.227   3.524  0.6348  2.3050  1.3228
   84MOL0     H11030   3.780   2.078   3.591  1.0956 -0.1587  0.2945
   84MOL0     H11031   3.964   2.324   3.513 -5.7306  2.0523 -1.2300
   84MOL0     H11032   4.022   2.185   3.611  0.5013 -3.4797 -2.1106
   84MOL0     H11033   3.909   2.169   3.328 -1.9735 -1.2227  0.7696
   84MOL0     H11034   3.935   2.031   3.440  0.2775  1.2458  2.8481
   84MOL0     H11035   4.191   2.099   3.431  0.8088  1.2732 -0.3830
   84MOL0     H11036   4.146   2.229   3.335 -2.4482  0.6885 -0.5344
   84MOL0     H11037   4.078   2.100   3.153  0.9014 -1.6698 -1.9281
   84MOL0     H11038   4.228   2.045   3.203 -0.6864  3.1174 -3.3397
   84MOL0     H11039   3.967   1.885   3.255 -0.3716 -1.2697 -1.1995
   84MOL0     H11040   4.123   1.847   3.320  0.9112  0.7731 -1.3506
   84MOL0     H11041   3.946   1.935   3.000  1.1878  1.1960 -1.4687
   84MOL0     H11042   4.112   1.692   2.727 -2.9172 -0.3261 -4.4622
   84MOL0     H11043   4.018   1.844   2.722 -6.1366  0.0368  1.6156
   84MOL0     H11044   3.826   1.713   2.817 -0.1004  2.4341 -0.9018
   84MOL0     H11045   3.942   1.573   2.828 -0.7406  0.6517  0.6911
   84MOL0     H11046   3.837   1.683   2.558 -0.5592 -2.7850 -1.2147
   84MOL0     H11047   3.949   1.556   2.589  2.3200  0.4605  3.0601
   84MOL0     H11048   3.734   1.459   2.733 -0.2646 -0.1182 -0.1544
   84MOL0     H11049   3.739   1.468   2.557  1.4271 -1.9339  0.1283
   84MOL0     H11050   3.543   1.381   2.787  1.1408  0.9574  0.5492
   84MOL0     H11051   3.312   1.338   2.845 -4.0150  2.2411  1.7861
   84MOL0     H11052   2.930   1.176   2.847  2.8248  0.7795 -0.2175
   84MOL0     H11053   2.689   1.164   2.936  0.0579  0.9518 -1.3427
   84MOL0     H11054   2.522   1.527   3.169 -0.3103 -0.1164 -1.1563
   84MOL0     H11055   2.595   1.403   3.277 -1.3030 -2.3601  1.2046
   84MOL0     H11056   2.377   1.438   3.337  0.1077 -2.1130 -0.0399
   84MOL0     H11057   2.368   1.286   3.255 -0.0839 -1.1539  3.2923
   84MOL0     H11058   2.272   1.362   3.058 -3.5796 -1.3722  1.2556
   84MOL0     H11059   2.326   1.526   3.084  1.6168 -1.3825 -0.7518
   84MOL0     H11060   2.142   1.346   3.242  2.9136 -0.7666  0.7632
   84MOL0     H11061   2.158   1.519   3.286  0.2659 -1.6619  1.7113
   84MOL0     H11062   1.996   1.376   3.072  0.0731 -1.7744  3.7929
   84MOL0     H11063   2.062   1.537   3.033  2.4614 -1.5483 -0.0402
   84MOL0     H11064   1.847   1.564   3.115 -2.0161 -0.4450  0.4322
   84MOL0     H11065   1.955   1.624   3.238  1.9182 -0.0525 -0.3559
   84MOL0     H11066   1.775   1.389   3.242  2.5339 -0.1456 -2.6447
   84MOL0     H11067   1.919   1.384   3.354 -1.5766 -1.5986  1.9915
   84MOL0     H11068   1.844   1.596   3.460  0.1438 -1.1738  0.5283
   84MOL0     H11069   1.695   1.496   3.457 -1.4474  3.6667  2.2232
   84MOL0     H11070   2.745   1.532   3.142 -1.6558  0.0837 -0.2240
   84MOL0     H11071   2.938   1.568   3.026  1.4862 -1.5189  2.5782
   84MOL0     H11072   3.192   1.705   2.662  2.3055  0.9476 -3.3940
   84MOL0     H11073   3.424   1.752   2.600 -0.6653  1.0763  1.9899
   84MOL0     H11074   3.416   2.227   3.773  5.3784  0.4907  0.6800
   84MOL0     H11075   3.209   2.149   3.879 -0.9318 -1.6745 -0.6150
   84MOL0     H11076   3.059   1.795   4.217 -0.5466 -1.8820 -2.7948
   84MOL0     H11077   2.878   1.714   4.364 -1.9775  0.1142  0.2350
   84MOL0     H11078   2.691   1.758   4.533  0.0142 -0.4877  0.5319
   84MOL0     H11079   2.710   1.617   4.443 -0.0520  0.8975  1.6251
   84MOL0     H11080   2.452   1.583   4.449 -1.9760  0.9447  1.5717
   84MOL0     H11081   2.531   1.586   4.596 -1.4345 -0.2983  0.5270
   84MOL0     H11082   2.399   1.827   4.468 -0.1540  0.8879 -0.5700
   84MOL0     H11083   2.475   1.817   4.634  1.9607 -0.3866 -1.5963
   84MOL0     H11084   2.225   1.667   4.521  2.0165  1.0741 -2.3787
   84MOL0     H11085   2.296   1.627   4.682 -5.2929  0.0344  2.0632
   84MOL0     H11086   2.091   1.980   4.782 -1.8181 -1.5651 -1.8284
   84MOL0     H11087   2.587   1.902   4.129 -0.7306 -1.9983  0.7787
   84MOL0     H11088   2.760   2.012   3.994 -1.8794 -1.0116 -0.4547
   85MOL0     O11089   9.646   5.551   8.092 -0.4654  0.7909 -0.1086
   85MOL0     C11090   9.623   5.546   7.974  1.1030  0.0908 -0.0150
   85MOL0     O11091   9.714   5.544   7.877 -0.0746  0.2831 -0.6316
   85MOL0     C11092   9.841   5.588   7.906  0.1785  0.2506  0.5771
   85MOL0     C11093   9.871   5.700   7.978 -0.1193 -0.6479 -0.4954
   85MOL0     C11094  10.002   5.730   8.013 -0.3583 -0.3217  0.1857
   85MOL0     C11095  10.106   5.650   7.976 -0.5648  0.1797  1.0182
   85MOL0     O11096  10.240   5.696   8.004  0.2946 -0.0407  0.5981
   85MOL0     C11097  10.270   5.798   8.103 -0.1377  0.6573  0.2477
   85MOL0     C11098  10.418   5.834   8.089  0.5605  0.2375 -0.2168
   85MOL0     C11099  10.531   5.744   8.148 -0.0189 -0.6141 -0.5771
   85MOL0     C11100  10.564   5.623   8.054 -0.9728  0.3835  0.2609
   85MOL0     C11101  10.657   5.520   8.134  0.2334 -0.1954  0.1969
   85MOL0     C11102  10.693   5.407   8.037 -0.3207  0.2314 -0.1074
   85MOL0     C11103  10.745   5.276   8.101  0.0938 -0.0590 -0.8660
   85MOL0     C11104  10.869   5.312   8.179  0.4018  1.1016  0.3034
   85MOL0     N11105  10.936   5.195   8.239 -0.6956  0.9206  0.0594
   85MOL0     C11106  10.960   5.173   8.368  1.2098 -1.0682 -0.8637
   85MOL0     C11107  11.021   5.056   8.376  0.4032  0.1780 -0.0201
   85MOL0     C11108  11.076   4.986   8.499 -0.3464  0.2087 -0.0532
   85MOL0     C11109  11.012   5.006   8.634 -0.9301 -1.0738  0.1602
   85MOL0     C11110  11.070   5.139   8.702  0.6841 -0.4161  0.6994
   85MOL0     C11111  11.003   5.179   8.829  0.1867 -0.5537 -0.0021
   85MOL0     O11112  11.040   5.115   8.945  0.2116 -0.1044 -0.0739
   85MOL0     C11113  11.168   5.149   8.992 -0.3994  0.1181  0.1063
   85MOL0     C11114  11.267   5.050   8.975 -0.4629 -0.4601 -0.6081
   85MOL0     C11115  11.395   5.069   9.027  0.0285 -1.0293 -0.2896
   85MOL0     C11116  11.435   5.197   9.079 -0.3109  0.8581  0.3904
   85MOL0     C11117  11.573   5.215   9.132 -0.5481  0.3675 -0.7942
   85MOL0     O11118  11.644   5.094   9.156 -0.3124 -0.3062 -0.1207
   85MOL0     C11119  11.785   5.106   9.187 -0.1236 -0.0699  0.0231
   85MOL0     C11120  11.860   5.000   9.133 -0.1708  0.0699  0.1566
   85MOL0     C11121  12.001   4.987   9.156  0.4527 -0.4124  0.0385
   85MOL0     C11122  12.066   5.077   9.237 -0.3173 -0.2765  0.4064
   85MOL0     O11123  12.199   5.077   9.260 -0.1212 -0.3934 -0.1944
   85MOL0     C11124  12.262   4.952   9.291  0.0641 -0.4376  0.5833
   85MOL0     C11125  12.395   4.994   9.351 -0.3021 -0.3297 -0.7817
   85MOL0     C11126  12.495   5.038   9.244  0.4827  0.4786  0.2960
   85MOL0     C11127  12.635   5.079   9.303  0.2640 -0.2420  0.1702
   85MOL0     C11128  12.723   5.155   9.212  0.4096  0.0828 -1.1082
   85MOL0     C11129  12.871   5.161   9.265 -0.1995 -0.1805  0.7219
   85MOL0     C11130  12.886   5.136   9.416 -0.8424 -0.0609 -0.6652
   85MOL0     C11131  13.034   5.168   9.458  0.3476 -0.0938  0.2625
   85MOL0    Cl11132  13.051   5.349   9.456 -0.0015  0.4128 -0.1381
   85MOL0     C11133  11.990   5.184   9.299 -0.4340 -0.2601 -0.3959
   85MOL0     C11134  11.858   5.195   9.270  0.3303 -0.1921  0.1550
   85MOL0     O11135  11.613   5.329   9.165 -0.2741 -0.1843  0.6750
   85MOL0     C11136  11.338   5.294   9.088 -0.3310 -0.9055 -0.3435
   85MOL0     C11137  11.208   5.274   9.039 -0.4549 -0.2710 -0.2436
   85MOL0     N11138  11.055   5.022   8.244  0.4070 -0.3905 -0.6255
   85MOL0     N11139  10.996   5.094   8.165  0.0876  0.6877 -0.4010
   85MOL0     C11140  10.083   5.542   7.894 -0.1639  0.2929 -0.7536
   85MOL0     C11141   9.953   5.506   7.862 -0.4571 -0.5346  0.4504
   85MOL0     C11142   9.480   5.544   7.932 -0.6379 -1.2836 -0.7424
   85MOL0     C11143   9.454   5.543   7.800  0.1778 -0.7617 -0.0598
   85MOL0     C11144   9.315   5.547   7.761  0.4039 -0.0006 -0.8495
   85MOL0     C11145   9.209   5.545   7.858 -0.0973 -0.2657  0.7746
   85MOL0     O11146   9.077   5.538   7.819 -0.8895  0.0455 -0.9203
   85MOL0     C11147   9.044   5.552   7.685  0.5247  0.0496  0.4864
   85MOL0     C11148   8.894   5.550   7.698  0.2504 -0.1233  0.1712
   85MOL0     C11149   8.831   5.567   7.557 -0.1284  0.3311  0.1098
   85MOL0     C11150   8.786   5.443   7.473  0.3279  0.8187  0.1141
   85MOL0     C11151   8.702   5.347   7.538  0.8657  0.0738  0.6727
   85MOL0     C11152   8.637   5.253   7.584  0.6742  0.1864  1.0580
   85MOL0     C11153   9.242   5.537   7.991 -0.2942 -0.5142 -0.1866
   85MOL0     C11154   9.376   5.539   8.030 -0.7018 -0.7988  0.6880
   85MOL0     H11155   9.788   5.755   8.021 -0.2489 -0.0220 -1.5224
   85MOL0     H11156  10.012   5.823   8.068  1.0654  1.0898 -2.2824
   85MOL0     H11157  10.256   5.750   8.201  2.4260 -0.0017  0.3676
   85MOL0     H11158  10.211   5.889   8.096  2.7201  2.6978  0.7392
   85MOL0     H11159  10.423   5.930   8.141 -2.5400 -0.0126  0.7394
   85MOL0     H11160  10.430   5.858   7.983 -1.1198  2.5398  0.0350
   85MOL0     H11161  10.509   5.717   8.251  3.0415  1.1241  0.6637
   85MOL0     H11162  10.615   5.814   8.144 -0.0543 -0.6071 -2.1291
   85MOL0     H11163  10.476   5.575   8.010 -0.7203  0.5519 -0.4485
   85MOL0     H11164  10.613   5.651   7.960  0.7476 -0.4176  0.8892
   85MOL0     H11165  10.598   5.475   8.215  1.5377 -1.2650  0.5912
   85MOL0     H11166  10.748   5.570   8.169 -0.5299  0.5164  1.2380
   85MOL0     H11167  10.771   5.449   7.973 -0.9478  3.0277  0.8124
   85MOL0     H11168  10.600   5.383   7.984 -0.7786  2.1430 -0.2546
   85MOL0     H11169  10.676   5.231   8.172  1.4902  1.2254  1.4451
   85MOL0     H11170  10.762   5.200   8.024  0.6340 -0.9205  0.0900
   85MOL0     H11171  10.846   5.378   8.263  1.4640  1.4310  0.3433
   85MOL0     H11172  10.939   5.362   8.112  0.4474 -0.5940 -0.9634
   85MOL0     H11173  10.937   5.239   8.452  2.4491  0.8111 -1.9436
   85MOL0     H11174  11.180   5.020   8.492  0.4954 -2.5222 -2.4404
   85MOL0     H11175  11.058   4.879   8.485 -1.7734  0.6344 -1.7724
   85MOL0     H11176  11.056   4.933   8.703  1.0634 -1.0492 -0.9984
   85MOL0     H11177  10.904   4.993   8.631 -0.9852 -0.7733 -2.8293
   85MOL0     H11178  11.178   5.138   8.720  1.1419  2.4620 -1.2530
   85MOL0     H11179  11.066   5.220   8.629  1.8748  1.0123  2.1300
   85MOL0     H11180  10.894   5.191   8.821 -0.3901 -1.3370  4.3389
   85MOL0     H11181  11.025   5.285   8.844 -1.5073 -0.0852 -0.5224
   85MOL0     H11182  11.250   4.947   8.947  0.6467 -0.7896 -0.1568
   85MOL0     H11183  11.464   4.985   9.028 -0.3001 -1.3074 -0.6580
   85MOL0     H11184  11.809   4.928   9.069  0.9561 -0.4148 -0.2340
   85MOL0     H11185  12.048   4.899   9.113 -0.0679 -0.4040 -0.5553
   85MOL0     H11186  12.271   4.891   9.200  0.3595 -0.9829  0.9712
   85MOL0     H11187  12.201   4.892   9.359 -1.8926  2.6634  1.7903
   85MOL0     H11188  12.430   4.904   9.403 -0.5907  0.7030  1.2617
   85MOL0     H11189  12.385   5.079   9.419 -0.4986  0.2360 -1.5070
   85MOL0     H11190  12.447   5.120   9.189 -0.8293  0.6560  1.6609
   85MOL0     H11191  12.503   4.959   9.169 -2.1964  1.6788 -1.4242
   85MOL0     H11192  12.611   5.141   9.390  1.0806  0.2146  0.0803
   85MOL0     H11193  12.684   4.986   9.334  2.8868  0.8742 -0.3904
   85MOL0     H11194  12.692   5.260   9.216 -3.1151 -0.8545  1.3002
   85MOL0     H11195  12.726   5.116   9.110 -0.9439  1.1735 -1.6006
   85MOL0     H11196  12.907   5.259   9.233  0.3263 -0.7389 -0.4728
   85MOL0     H11197  12.930   5.086   9.212 -0.4873 -1.0265  1.5761
   85MOL0     H11198  12.814   5.204   9.464  0.9207  1.8786 -0.6403
   85MOL0     H11199  12.868   5.030   9.437 -1.2111  0.1912  0.3561
   85MOL0     H11200  13.109   5.119   9.395 -1.0471 -0.3233 -1.3078
   85MOL0     H11201  13.039   5.133   9.561 -0.3968 -1.4850 -0.1507
   85MOL0     H11202  12.046   5.254   9.360  3.5038  0.0771 -3.9176
   85MOL0     H11203  11.816   5.279   9.323 -0.2647 -0.0195 -0.5690
   85MOL0     H11204  11.367   5.392   9.125  1.9222 -0.4254 -3.0020
   85MOL0     H11205  11.122   5.341   9.038  0.6739  1.2276 -1.9090
   85MOL0     H11206  10.154   5.475   7.848 -1.7791 -1.9320 -0.1684
   85MOL0     H11207   9.936   5.420   7.798  2.1918 -0.7638 -0.1022
   85MOL0     H11208   9.532   5.534   7.725 -1.0887 -0.0293 -1.5148
   85MOL0     H11209   9.294   5.544   7.655  0.5204  2.9431 -1.0372
   85MOL0     H11210   9.086   5.471   7.624  2.7156  2.6292 -1.6659
   85MOL0     H11211   9.081   5.644   7.639 -1.3839  1.6790  2.0316
   85MOL0     H11212   8.859   5.457   7.742 -0.0321 -0.2345 -0.2788
   85MOL0     H11213   8.860   5.635   7.757  0.8236 -0.8541  1.5911
   85MOL0     H11214   8.900   5.617   7.489 -0.4403 -0.1522 -0.5646
   85MOL0     H11215   8.739   5.626   7.563  0.1458  0.8810 -0.8345
   85MOL0     H11216   8.734   5.477   7.383 -0.6352  0.1143  0.3981
   85MOL0     H11217   8.877   5.387   7.449 -0.9475 -0.4718 -2.0162
   85MOL0     H11218   8.583   5.172   7.629  2.6626 -1.2161  1.0144
   85MOL0     H11219   9.166   5.527   8.068  0.4717 -2.9714  0.3364
   85MOL0     H11220   9.399   5.560   8.134 -0.6493 -1.2841  0.7762
   86MOL0     O11221   5.836   0.828   6.218  0.2998 -0.4006 -0.6412
   86MOL0     C11222   5.853   0.710   6.237  0.2225 -0.5289 -0.3111
   86MOL0     O11223   5.778   0.617   6.168  0.5790  0.6414 -0.0705
   86MOL0     C11224   5.658   0.657   6.110  0.2946  0.2494 -0.0808
   86MOL0     C11225   5.570   0.756   6.163  0.5659 -0.6178 -0.3463
   86MOL0     C11226   5.450   0.788   6.087  0.0900  0.6699  0.2172
   86MOL0     C11227   5.416   0.715   5.977 -0.0521  0.6779  0.2067
   86MOL0     O11228   5.292   0.745   5.924  0.5076 -0.7328 -0.2894
   86MOL0     C11229   5.280   0.738   5.785 -0.4864 -0.5379 -0.2314
   86MOL0     C11230   5.159   0.832   5.742 -0.0922 -0.1304 -0.3879
   86MOL0     C11231   5.025   0.760   5.729  0.3729  0.8892 -0.0020
   86MOL0     C11232   4.968   0.727   5.870  0.3817  0.2605  0.4027
   86MOL0     C11233   4.829   0.668   5.859  0.0991  0.1988 -0.8642
   86MOL0     C11234   4.773   0.682   6.008  0.9137  0.2226 -0.0414
   86MOL0     C11235   4.809   0.565   6.086 -0.5079  0.0726  0.2156
   86MOL0     C11236   4.794   0.578   6.236 -0.4190 -1.0173 -0.7148
   86MOL0     N11237   4.861   0.704   6.277  1.0374  0.0964 -0.1656
   86MOL0     C11238   4.998   0.723   6.258 -1.0674  0.0512  0.0090
   86MOL0     C11239   5.024   0.831   6.331  0.2151  0.1661 -0.0963
   86MOL0     C11240   5.169   0.872   6.373  0.6266  0.8005 -0.2176
   86MOL0     C11241   5.208   0.833   6.523 -0.1008 -0.7368  0.6069
   86MOL0     C11242   5.369   0.838   6.523 -0.5466  0.6268  0.0749
   86MOL0     C11243   5.443   0.816   6.656 -0.9505  1.0169  0.6126
   86MOL0     O11244   5.577   0.818   6.623 -0.2053 -0.1015 -0.5105
   86MOL0     C11245   5.670   0.787   6.709 -0.3665 -0.2827 -0.9175
   86MOL0     C11246   5.792   0.756   6.653 -0.3361  0.5009 -0.9877
   86MOL0     C11247   5.911   0.743   6.742 -1.1885  0.1326 -0.0720
   86MOL0     C11248   5.897   0.756   6.885  0.0661  0.2474  0.1954
   86MOL0     C11249   6.024   0.756   6.968  0.0956  0.8065  0.0316
   86MOL0     O11250   6.145   0.733   6.908 -0.3830 -0.5464  0.4269
   86MOL0     C11251   6.256   0.698   6.980 -0.1569 -0.3247  0.0825
   86MOL0     C11252   6.252   0.627   7.100 -0.9947 -0.2270  0.1892
   86MOL0     C11253   6.370   0.581   7.154 -0.0295  0.1610 -0.2805
   86MOL0     C11254   6.498   0.610   7.107  0.5876 -0.3589  0.0263
   86MOL0     O11255   6.623   0.575   7.150  0.4795 -0.1280 -0.3199
   86MOL0     C11256   6.627   0.509   7.276  0.3696  0.1266 -0.6498
   86MOL0     C11257   6.765   0.509   7.331 -0.4395 -0.4345 -0.1296
   86MOL0     C11258   6.844   0.405   7.259  0.6666 -0.7066  0.2240
   86MOL0     C11259   6.993   0.416   7.253 -0.7119 -0.3250 -0.7740
   86MOL0     C11260   7.063   0.287   7.195  0.2452  0.5741 -0.3877
   86MOL0     C11261   7.108   0.291   7.051  0.1474  0.0670 -0.2564
   86MOL0     C11262   7.170   0.171   6.983  0.3026  0.3405  0.2965
   86MOL0     C11263   7.303   0.136   7.049 -0.2278  0.7679 -0.1497
   86MOL0    Cl11264   7.369  -0.007   6.955  0.2436 -0.2132 -0.1197
   86MOL0     C11265   6.501   0.693   6.993 -0.2059  0.0132 -0.4011
   86MOL0     C11266   6.385   0.732   6.936  0.9890 -0.5339 -0.5929
   86MOL0     O11267   6.003   0.774   7.087 -0.2683  0.4557 -1.4229
   86MOL0     C11268   5.772   0.790   6.934  0.2530  0.0154  0.1298
   86MOL0     C11269   5.656   0.805   6.853  0.0885  0.1815  0.4690
   86MOL0     N11270   4.903   0.884   6.372 -0.2574 -0.5659  0.0488
   86MOL0     N11271   4.802   0.813   6.334 -0.1337 -0.7547 -1.4285
   86MOL0     C11272   5.500   0.612   5.932  0.0537  2.2356  0.4517
   86MOL0     C11273   5.616   0.582   5.999  0.9295  0.1145  0.4106
   86MOL0     C11274   5.966   0.669   6.318  0.6190  0.2748 -0.7240
   86MOL0     C11275   5.985   0.530   6.344 -0.4508 -0.6553  1.3358
   86MOL0     C11276   6.097   0.484   6.414 -0.8962  1.0617 -0.7655
   86MOL0     C11277   6.188   0.573   6.471  0.7267  0.2380  0.5302
   86MOL0     O11278   6.288   0.525   6.552  0.1961  0.6105 -0.4804
   86MOL0     C11279   6.425   0.535   6.525  0.7158 -0.1321  0.6174
   86MOL0     C11280   6.505   0.420   6.584 -1.3410  0.3088  0.3204
   86MOL0     C11281   6.517   0.434   6.738 -0.0680 -0.1338 -0.3628
   86MOL0     C11282   6.664   0.413   6.787  0.7272 -0.7388 -0.1058
   86MOL0     C11283   6.723   0.279   6.760  0.2207  1.0932  0.1625
   86MOL0     C11284   6.792   0.183   6.745  0.1502 -0.2096 -0.4892
   86MOL0     C11285   6.165   0.710   6.457 -0.2387  0.2676  0.3812
   86MOL0     C11286   6.060   0.754   6.380 -0.1936 -0.0241  0.3154
   86MOL0     H11287   5.581   0.823   6.249 -0.6354 -1.8612  0.8218
   86MOL0     H11288   5.382   0.870   6.110  1.5844  1.8852  0.4173
   86MOL0     H11289   5.265   0.636   5.749 -1.4108 -0.1464 -1.0059
   86MOL0     H11290   5.371   0.779   5.739  1.6107 -3.3540  1.1018
   86MOL0     H11291   5.186   0.871   5.643 -0.8111 -0.1135 -0.5896
   86MOL0     H11292   5.144   0.923   5.800  4.5275  1.7536 -1.6765
   86MOL0     H11293   5.041   0.667   5.673 -0.8304  0.7088 -0.0634
   86MOL0     H11294   4.951   0.812   5.668 -2.2100 -1.3699  1.0066
   86MOL0     H11295   5.029   0.654   5.923 -1.7294 -0.9593  1.3163
   86MOL0     H11296   4.963   0.813   5.937  2.6177 -1.8926  3.5810
   86MOL0     H11297   4.836   0.561   5.836  2.4784  0.1859 -0.2954
   86MOL0     H11298   4.771   0.731   5.791  1.2603  2.4820  0.1374
   86MOL0     H11299   4.664   0.691   6.003  0.3296 -2.6233  3.1602
   86MOL0     H11300   4.804   0.775   6.056 -2.3436  0.8155  1.1699
   86MOL0     H11301   4.745   0.482   6.054 -0.5531  1.3830 -3.6179
   86MOL0     H11302   4.910   0.528   6.070 -1.3803 -1.2386 -3.2403
   86MOL0     H11303   4.822   0.486   6.288 -1.4155 -2.0038 -1.8790
   86MOL0     H11304   4.688   0.585   6.262  0.2819 -1.1854  2.7727
   86MOL0     H11305   5.052   0.645   6.205  0.5355 -0.8963  2.8459
   86MOL0     H11306   5.176   0.980   6.362  2.4869  0.8653  1.1674
   86MOL0     H11307   5.243   0.837   6.301  0.7011 -0.8119  0.5863
   86MOL0     H11308   5.170   0.731   6.536 -3.0870  0.2208  0.2511
   86MOL0     H11309   5.167   0.908   6.592 -1.0119  0.1505 -0.8378
   86MOL0     H11310   5.414   0.757   6.466  0.8935  1.8660 -0.6081
   86MOL0     H11311   5.401   0.936   6.487  2.2541  0.5088  1.9808
   86MOL0     H11312   5.416   0.720   6.700  0.8207 -0.1668 -0.7692
   86MOL0     H11313   5.415   0.894   6.728 -2.0492  2.3015 -1.1097
   86MOL0     H11314   5.801   0.734   6.547 -2.6680 -0.2461 -1.0820
   86MOL0     H11315   6.012   0.722   6.709 -0.8033  1.7490  0.0184
   86MOL0     H11316   6.158   0.597   7.146 -2.4034  1.8918 -1.1053
   86MOL0     H11317   6.361   0.513   7.239 -0.6956  1.5105  0.7675
   86MOL0     H11318   6.577   0.412   7.262  0.1293  0.3837 -1.6427
   86MOL0     H11319   6.557   0.567   7.337 -0.4952  1.3622 -2.7446
   86MOL0     H11320   6.754   0.493   7.438 -1.9802  1.4892  0.0600
   86MOL0     H11321   6.803   0.609   7.309 -1.1424 -0.3496 -1.0731
   86MOL0     H11322   6.824   0.403   7.152 -0.7721  0.1313  0.4538
   86MOL0     H11323   6.806   0.309   7.296 -3.1900 -0.0556 -1.5705
   86MOL0     H11324   7.028   0.503   7.198  1.9550 -0.7392  0.1189
   86MOL0     H11325   7.023   0.443   7.355  0.5668 -2.9111 -0.3938
   86MOL0     H11326   6.988   0.207   7.193 -0.3470  0.9834  2.2093
   86MOL0     H11327   7.141   0.241   7.257 -1.3898 -3.2785 -0.8551
   86MOL0     H11328   7.176   0.377   7.045  1.5818 -0.5636  3.6136
   86MOL0     H11329   7.030   0.329   6.985  0.1889 -1.3697 -1.1698
   86MOL0     H11330   7.102   0.089   6.957 -1.4157  2.5094 -2.7569
   86MOL0     H11331   7.195   0.197   6.880 -0.6555 -2.9244 -0.9035
   86MOL0     H11332   7.301   0.105   7.154 -0.6636  2.4876  0.3822
   86MOL0     H11333   7.369   0.222   7.035 -0.0268  0.6517  0.0878
   86MOL0     H11334   6.604   0.719   6.974  0.1341  0.0640  1.2898
   86MOL0     H11335   6.402   0.800   6.854 -0.5227  2.2257  1.2083
   86MOL0     H11336   5.759   0.813   7.039  1.3430  1.2435  0.0239
   86MOL0     H11337   5.570   0.858   6.891  1.4323  1.1498  2.3003
   86MOL0     H11338   5.475   0.565   5.837 -0.9611 -0.9397  2.1365
   86MOL0     H11339   5.681   0.497   5.976 -1.1885 -1.0729 -1.5404
   86MOL0     H11340   5.920   0.456   6.299  0.2642  0.2731 -1.4035
   86MOL0     H11341   6.116   0.377   6.422 -4.5323  0.4466  3.3868
   86MOL0     H11342   6.455   0.636   6.554 -0.4787 -0.2602  2.4100
   86MOL0     H11343   6.428   0.525   6.416 -1.5044 -0.5194  0.5351
   86MOL0     H11344   6.462   0.326   6.547 -1.6090  0.7577 -0.5365
   86MOL0     H11345   6.606   0.427   6.541 -0.3140  0.0492  2.5762
   86MOL0     H11346   6.470   0.346   6.783 -0.8622 -0.2801 -1.4508
   86MOL0     H11347   6.470   0.524   6.776  1.6027  0.7822 -0.3676
   86MOL0     H11348   6.726   0.494   6.747  1.7600 -1.7817 -0.6531
   86MOL0     H11349   6.667   0.426   6.896  0.7477 -0.8958 -0.0872
   86MOL0     H11350   6.867   0.107   6.736  0.2038 -0.5032  1.9806
   86MOL0     H11351   6.234   0.785   6.495  2.4906 -2.8234  2.0033
   86MOL0     H11352   6.057   0.862   6.371  0.2802 -0.0425 -0.0784
   87MOL0     O11353   2.835   2.626   9.684  0.1587 -1.2984 -0.3461
   87MOL0     C11354   2.955   2.645   9.716 -0.4696  0.0270  0.8225
   87MOL0     O11355   3.032   2.752   9.666 -0.9767  0.1807  0.1513
   87MOL0     C11356   2.985   2.852   9.583  0.1695  0.8134  0.1374
   87MOL0     C11357   3.052   2.869   9.466 -0.6382 -0.5507 -0.4131
   87MOL0     C11358   3.016   2.970   9.376  0.3329 -0.8530  0.1672
   87MOL0     C11359   2.912   3.062   9.397  0.5277  0.7861 -0.3907
   87MOL0     O11360   2.877   3.163   9.315  0.2538 -0.3941  0.6991
   87MOL0     C11361   2.896   3.158   9.170  0.1530  0.2221  0.5052
   87MOL0     C11362   2.950   3.289   9.115  0.4348  0.5497 -0.5121
   87MOL0     C11363   3.073   3.321   9.194  0.2138  0.1274  0.0200
   87MOL0     C11364   3.152   3.434   9.134  0.0169 -1.0888  0.0753
   87MOL0     C11365   3.077   3.572   9.172  0.1505 -1.0527 -0.3566
   87MOL0     C11366   3.110   3.636   9.305  0.7575 -0.2939 -0.1892
   87MOL0     C11367   3.259   3.680   9.330 -0.2330  0.2328  0.2228
   87MOL0     C11368   3.313   3.796   9.238 -0.0362  0.3825  0.1864
   87MOL0     N11369   3.243   3.925   9.258 -0.4912  0.2987 -0.5381
   87MOL0     C11370   3.268   3.997   9.375  0.2874 -0.4083  0.1332
   87MOL0     C11371   3.169   4.092   9.359  0.1034 -0.2561 -0.2809
   87MOL0     C11372   3.130   4.206   9.449  0.1261  0.9239  0.2090
   87MOL0     C11373   2.975   4.224   9.473  0.5242 -0.2522  0.0517
   87MOL0     C11374   2.924   4.359   9.437  0.2031 -0.4680  0.1498
   87MOL0     C11375   2.857   4.361   9.299  0.4798  0.6691  0.8097
   87MOL0     O11376   2.727   4.305   9.269  0.5020 -0.9827 -0.5218
   87MOL0     C11377   2.612   4.361   9.318 -1.1679 -0.4437 -0.1198
   87MOL0     C11378   2.491   4.299   9.272  0.0556 -0.9805  0.1809
   87MOL0     C11379   2.364   4.331   9.329 -0.0466  0.0797 -0.5879
   87MOL0     C11380   2.360   4.439   9.421 -0.0310  0.3119 -0.3912
   87MOL0     C11381   2.226   4.483   9.483  0.0189 -0.7791  0.8678
   87MOL0     O11382   2.117   4.429   9.422  0.4809  0.6305  0.1621
   87MOL0     C11383   1.990   4.475   9.455  1.1527  0.8409 -0.2972
   87MOL0     C11384   1.942   4.601   9.490 -0.7917 -0.3307 -0.5219
   87MOL0     C11385   1.810   4.638   9.499 -0.5991  0.9051  0.8478
   87MOL0     C11386   1.706   4.549   9.477 -0.1223  0.0048  0.4150
   87MOL0     O11387   1.578   4.584   9.515 -0.2836 -0.3953 -0.1411
   87MOL0     C11388   1.474   4.519   9.434 -0.7816  0.8112  0.3600
   87MOL0     C11389   1.356   4.609   9.423  0.6561  0.2306 -0.3934
   87MOL0     C11390   1.248   4.546   9.320  0.4591 -0.1064  0.0111
   87MOL0     C11391   1.108   4.616   9.330  0.7634  0.6987  0.3097
   87MOL0     C11392   0.998   4.515   9.288  0.5807  0.0587  0.3345
   87MOL0     C11393   0.861   4.576   9.270 -0.2884 -0.9208  0.5497
   87MOL0     C11394   0.763   4.476   9.201 -0.3290 -0.1577 -0.8343
   87MOL0     C11395   0.622   4.515   9.202 -0.0037 -0.4743 -0.1738
   87MOL0    Cl11396   0.576   4.626   9.055 -0.2886  0.5168 -0.0042
   87MOL0     C11397   1.753   4.414   9.441 -0.3699 -1.0015  0.0030
   87MOL0     C11398   1.889   4.385   9.418  1.0400 -0.3115  0.8858
   87MOL0     O11399   2.229   4.559   9.584  0.1334 -0.8332  0.6498
   87MOL0     C11400   2.480   4.502   9.451 -1.0066 -0.0723 -0.2297
   87MOL0     C11401   2.604   4.472   9.397  0.3902  0.7584  0.7474
   87MOL0     N11402   3.094   4.073   9.248 -0.1205 -0.1108  0.5643
   87MOL0     N11403   3.146   3.982   9.178  0.1712  0.7419  0.5603
   87MOL0     C11404   2.850   3.042   9.523  0.5510  0.4409 -0.4643
   87MOL0     C11405   2.886   2.943   9.611  0.6035 -0.5341 -0.0110
   87MOL0     C11406   3.022   2.534   9.790 -0.2486  0.0711 -0.5596
   87MOL0     C11407   3.160   2.534   9.806  0.3239 -0.0605 -0.0818
   87MOL0     C11408   3.218   2.453   9.907 -0.0288  1.2598  0.0889
   87MOL0     C11409   3.142   2.352   9.970  0.7219 -0.5413 -0.6483
   87MOL0     O11410   3.188   2.260  10.057  0.2980  0.4806 -0.1371
   87MOL0     C11411   3.326   2.266  10.099  0.2015  1.1199  0.7134
   87MOL0     C11412   3.362   2.147  10.180 -0.1928 -1.5672 -0.4005
   87MOL0     C11413   3.485   2.080  10.154  0.1264  0.1747 -0.0982
   87MOL0     C11414   3.510   1.952  10.227 -0.1256  0.7826 -0.3645
   87MOL0     C11415   3.646   1.900  10.185  1.3049 -0.1898  0.0169
   87MOL0     C11416   3.753   1.848  10.138  0.7946 -0.3464 -0.2019
   87MOL0     C11417   3.004   2.347   9.942 -0.3072 -0.4562  0.6480
   87MOL0     C11418   2.951   2.428   9.847  0.2316  0.5175 -1.0714
   87MOL0     H11419   3.119   2.790   9.435  1.7493  1.3280 -0.3491
   87MOL0     H11420   3.085   2.973   9.292 -0.6783 -0.4910 -0.6762
   87MOL0     H11421   2.799   3.131   9.127  1.0723 -2.9755  0.1980
   87MOL0     H11422   2.970   3.084   9.138  1.0013  0.6547  1.4207
   87MOL0     H11423   2.874   3.367   9.127  0.0294 -0.0918  1.6590
   87MOL0     H11424   2.981   3.281   9.010  0.7968  1.1020 -0.4482
   87MOL0     H11425   3.130   3.228   9.179 -0.9806 -0.5988 -0.1439
   87MOL0     H11426   3.049   3.338   9.299 -0.2014 -3.0359  0.5418
   87MOL0     H11427   3.254   3.437   9.175 -0.7148  1.1016  1.9116
   87MOL0     H11428   3.164   3.429   9.025  2.6123  2.2195  0.0503
   87MOL0     H11429   2.969   3.559   9.167 -0.4968  3.2652 -1.5926
   87MOL0     H11430   3.110   3.653   9.106  0.3660  1.5368  2.6956
   87MOL0     H11431   3.084   3.566   9.385  1.1307 -1.6097 -1.1909
   87MOL0     H11432   3.043   3.721   9.313  2.1482  0.8980 -0.7319
   87MOL0     H11433   3.266   3.710   9.435  1.4589 -0.9423  0.4972
   87MOL0     H11434   3.334   3.602   9.315  0.5822  0.4793  2.6212
   87MOL0     H11435   3.292   3.756   9.138  1.1825 -1.4585  0.6242
   87MOL0     H11436   3.422   3.804   9.242  0.0492 -0.9655  4.0612
   87MOL0     H11437   3.338   3.984   9.457 -1.0103  0.4644  1.4325
   87MOL0     H11438   3.167   4.305   9.419 -1.9680  1.6409 -0.1710
   87MOL0     H11439   3.180   4.181   9.543 -0.8814  1.8926  1.0399
   87MOL0     H11440   2.959   4.207   9.580  0.9255  0.9048  0.3152
   87MOL0     H11441   2.919   4.147   9.420 -0.5999  1.8102 -1.9467
   87MOL0     H11442   2.852   4.407   9.504  4.0639  4.1825  1.5332
   87MOL0     H11443   3.002   4.434   9.449  0.1334 -0.2898 -0.4897
   87MOL0     H11444   2.921   4.307   9.229  0.3446 -0.1770  1.3360
   87MOL0     H11445   2.847   4.463   9.259 -1.2666  0.5211  0.8083
   87MOL0     H11446   2.518   4.226   9.196  2.2050  1.2742 -1.3997
   87MOL0     H11447   2.280   4.268   9.303  0.5924  0.7627 -5.0914
   87MOL0     H11448   2.020   4.675   9.505 -0.7508 -0.3523 -0.6313
   87MOL0     H11449   1.773   4.736   9.529 -1.0438  1.3925 -1.1758
   87MOL0     H11450   1.445   4.424   9.480 -1.4390 -0.1547 -1.9142
   87MOL0     H11451   1.505   4.509   9.330 -1.8676  1.9455 -0.1097
   87MOL0     H11452   1.373   4.713   9.397  0.7073  1.3283  3.3832
   87MOL0     H11453   1.311   4.615   9.523 -1.1575  1.6443 -1.2404
   87MOL0     H11454   1.243   4.439   9.343  2.8737  0.5660  5.0089
   87MOL0     H11455   1.272   4.564   9.215 -0.2131 -1.5579 -0.4200
   87MOL0     H11456   1.081   4.647   9.431 -2.2054  0.6083 -0.3709
   87MOL0     H11457   1.121   4.710   9.276  0.2997  0.3225 -0.4802
   87MOL0     H11458   0.996   4.427   9.354  1.6093 -0.5132 -0.3624
   87MOL0     H11459   1.026   4.472   9.191 -1.8488 -3.7011  1.0693
   87MOL0     H11460   0.865   4.666   9.208  1.0605  0.4082  2.4635
   87MOL0     H11461   0.814   4.609   9.363  2.1718  0.5508  1.3575
   87MOL0     H11462   0.798   4.444   9.103  2.3943 -0.6511  0.2055
   87MOL0     H11463   0.751   4.397   9.276 -3.1839  1.0492  0.1622
   87MOL0     H11464   0.594   4.576   9.288 -0.3465  1.2072 -1.4289
   87MOL0     H11465   0.565   4.422   9.212 -0.8448  0.1851  1.5533
   87MOL0     H11466   1.682   4.336   9.414  1.0940 -1.0746 -4.5559
   87MOL0     H11467   1.917   4.290   9.373  2.2355 -0.6680  2.2827
   87MOL0     H11468   2.494   4.586   9.518  0.1837  0.4953 -1.1530
   87MOL0     H11469   2.687   4.529   9.436 -0.6381  2.1877  0.9628
   87MOL0     H11470   2.780   3.122   9.548  0.3180 -0.1853  1.0569
   87MOL0     H11471   2.837   2.948   9.708 -2.3316  0.9656 -1.4306
   87MOL0     H11472   3.225   2.613   9.769  3.0951 -1.8952  0.5154
   87MOL0     H11473   3.326   2.460   9.917  0.1098 -2.0462  2.2464
   87MOL0     H11474   3.345   2.355  10.159 -0.3500 -0.3703  3.2560
   87MOL0     H11475   3.393   2.275  10.013  0.4727 -1.4831  0.5608
   87MOL0     H11476   3.360   2.176  10.286  0.9638 -1.1341 -0.4892
   87MOL0     H11477   3.286   2.072  10.158 -0.4632 -0.7958 -2.2355
   87MOL0     H11478   3.564   2.149  10.186  0.6842 -0.6331  0.3087
   87MOL0     H11479   3.509   2.059  10.049  2.1451  2.3469 -0.1475
   87MOL0     H11480   3.512   1.968  10.335  1.5616  0.8286 -0.3719
   87MOL0     H11481   3.423   1.890  10.203 -3.3798  4.1758  1.5559
   87MOL0     H11482   3.843   1.808  10.097  0.6593 -0.2764 -0.5695
   87MOL0     H11483   2.937   2.279   9.993 -1.0537  1.6852  2.6676
   87MOL0     H11484   2.845   2.415   9.823 -0.5125  1.2834  1.4753
   88MOL0     O11485  10.270   9.526  10.879 -0.8316 -0.4193  0.3418
   88MOL0     C11486  10.155   9.537  10.926 -0.2190 -0.1763  0.1708
   88MOL0     O11487  10.115   9.639  11.018 -0.6596 -0.0247 -0.0409
   88MOL0     C11488  10.187   9.757  11.031  0.8599 -0.1198  0.4877
   88MOL0     C11489  10.182   9.826  11.148  0.0560 -0.6335  0.0324
   88MOL0     C11490  10.258   9.942  11.174  0.1452 -0.2309  0.2760
   88MOL0     C11491  10.341   9.992  11.074 -0.9186  0.6979 -0.3905
   88MOL0     O11492  10.431  10.095  11.095 -0.0207  0.4172  0.9683
   88MOL0     C11493  10.405  10.194  11.198 -1.3088  0.0152 -0.1754
   88MOL0     C11494  10.507  10.310  11.211 -0.9389  0.7884 -1.0359
   88MOL0     C11495  10.630  10.237  11.254 -0.5322  0.0054 -0.6224
   88MOL0     C11496  10.734  10.342  11.289 -0.7123 -0.2299 -0.1655
   88MOL0     C11497  10.876  10.284  11.318  0.3989 -0.0556 -0.2907
   88MOL0     C11498  10.994  10.380  11.346  0.2941 -0.2958 -0.5296
   88MOL0     C11499  10.956  10.487  11.440  0.9840  0.4970  0.1334
   88MOL0     C11500  11.080  10.534  11.517  0.9059 -0.3139 -0.3187
   88MOL0     N11501  11.146  10.448  11.609 -0.2597 -0.1635  0.1174
   88MOL0     C11502  11.271  10.480  11.646 -0.8465 -0.2177  0.5102
   88MOL0     C11503  11.311  10.374  11.720 -0.3256 -0.2779  0.0461
   88MOL0     C11504  11.445  10.352  11.793 -0.0894  0.6570  0.3070
   88MOL0     C11505  11.560  10.388  11.707 -0.1941 -0.0675  0.5651
   88MOL0     C11506  11.584  10.306  11.574  0.6685 -0.7849 -0.8408
   88MOL0     C11507  11.599  10.156  11.588 -0.9506 -0.3077  0.5823
   88MOL0     O11508  11.489  10.067  11.576 -0.3387  0.0949  0.4769
   88MOL0     C11509  11.425  10.066  11.452  0.3930 -0.0016 -0.6152
   88MOL0     C11510  11.291  10.077  11.441 -0.0658  0.2352 -0.0663
   88MOL0     C11511  11.215  10.063  11.332  0.0239 -0.3133  0.7497
   88MOL0     C11512  11.282  10.039  11.207  0.3394 -0.2953  0.9306
   88MOL0     C11513  11.196  10.009  11.089 -0.6561 -0.0731 -0.4926
   88MOL0     O11514  11.069   9.984  11.122  0.0913  0.9383 -0.0812
   88MOL0     C11515  10.971   9.954  11.029  0.8224  0.3682 -0.4005
   88MOL0     C11516  10.856  10.039  11.011  0.2714  0.5004 -0.2456
   88MOL0     C11517  10.758  10.006  10.925  0.4166 -0.4240 -0.2825
   88MOL0     C11518  10.771   9.900  10.839 -0.1682 -0.6944 -0.1547
   88MOL0     O11519  10.670   9.872  10.754  0.8002  0.2215  0.5467
   88MOL0     C11520  10.691   9.777  10.649 -0.2790  0.4707  0.1621
   88MOL0     C11521  10.566   9.776  10.559  0.2547 -0.7979  0.6258
   88MOL0     C11522  10.548   9.896  10.472 -0.4339 -0.1452  0.2244
   88MOL0     C11523  10.444   9.872  10.357 -0.7716 -0.4424 -1.1110
   88MOL0     C11524  10.444   9.997  10.261 -0.0530 -0.5785  0.4409
   88MOL0     C11525  10.373   9.955  10.133 -0.8129  0.5563 -0.8635
   88MOL0     C11526  10.360  10.069  10.036 -0.0536  0.3773  0.6471
   88MOL0     C11527  10.282  10.030   9.908 -0.1665  0.4503 -0.5832
   88MOL0    Cl11528  10.295  10.163   9.794  0.1370  0.4672 -0.4360
   88MOL0     C11529  10.884   9.822  10.852  0.2361  0.4753  0.9562
   88MOL0     C11530  10.986   9.847  10.942  0.1480  0.5738  0.4086
   88MOL0     O11531  11.246  10.006  10.980  0.0734  0.0050  0.2480
   88MOL0     C11532  11.424  10.028  11.207  0.3832 -0.3702  0.9375
   88MOL0     C11533  11.491  10.042  11.332 -0.6368  1.0449  1.2128
   88MOL0     N11534  11.202  10.291  11.736  0.5257 -0.3885  0.7579
   88MOL0     N11535  11.096  10.342  11.675 -0.0601 -0.0435 -0.1220
   88MOL0     C11536  10.356   9.915  10.955 -1.0087  0.2476 -0.5160
   88MOL0     C11537  10.273   9.808  10.928  0.2156  0.5450  0.0523
   88MOL0     C11538  10.064   9.437  10.876 -0.0898  0.9229 -0.8924
   88MOL0     C11539  10.101   9.336  10.781  0.6631  0.0050 -0.0500
   88MOL0     C11540  10.016   9.229  10.753 -0.1324 -0.1711  0.4367
   88MOL0     C11541   9.894   9.214  10.829 -0.3639  0.0487  0.1616
   88MOL0     O11542   9.832   9.096  10.807 -0.3999 -0.5932 -0.0031
   88MOL0     C11543   9.709   9.057  10.873 -0.5924  0.3781  0.2792
   88MOL0     C11544   9.595   9.105  10.786 -0.1201  0.4420  0.0476
   88MOL0     C11545   9.596   9.028  10.650 -0.5913 -0.2986 -1.6085
   88MOL0     C11546   9.455   9.046  10.592 -0.4804  0.3263 -0.0170
   88MOL0     C11547   9.325   9.027  10.663 -0.4119  0.0739 -0.7478
   88MOL0     C11548   9.225   9.019  10.736  0.0204 -0.1623  0.6487
   88MOL0     C11549   9.855   9.325  10.915 -0.7365 -0.6791 -0.0894
   88MOL0     C11550   9.943   9.434  10.935 -0.4973  1.9027  0.3154
   88MOL0     H11551  10.132   9.771  11.228  1.3233  0.7220  1.8363
   88MOL0     H11552  10.261   9.995  11.269 -0.4579  0.1497  0.0839
   88MOL0     H11553  10.401  10.141  11.294 -1.0561 -1.7915 -1.1085
   88MOL0     H11554  10.309  10.245  11.188 -0.3107  1.8820 -0.6358
   88MOL0     H11555  10.486  10.374  11.297 -2.7958 -0.3548 -0.5731
   88MOL0     H11556  10.516  10.365  11.117  0.7650  0.5934 -1.0275
   88MOL0     H11557  10.669  10.173  11.175  1.9987  1.8265 -0.9899
   88MOL0     H11558  10.607  10.178  11.343  3.9789  2.1736  2.3266
   88MOL0     H11559  10.746  10.420  11.213  0.0127  0.6134  0.7973
   88MOL0     H11560  10.694  10.406  11.368 -1.1857 -0.6854 -0.0262
   88MOL0     H11561  10.914  10.219  11.239  0.4886  0.5802 -0.7758
   88MOL0     H11562  10.860  10.216  11.402 -1.9997 -1.3095 -1.6398
   88MOL0     H11563  11.020  10.422  11.249  0.3867 -0.4654 -0.5787
   88MOL0     H11564  11.081  10.326  11.384 -0.2762 -0.0281  1.2515
   88MOL0     H11565  10.923  10.567  11.372  4.7581  2.3035  0.1949
   88MOL0     H11566  10.881  10.446  11.509  0.5110 -2.4002 -1.8994
   88MOL0     H11567  11.046  10.628  11.562  0.5441  1.5405 -4.0623
   88MOL0     H11568  11.157  10.575  11.451  2.0658  0.1277  1.2745
   88MOL0     H11569  11.336  10.547  11.592  1.6688 -2.9051 -0.0603
   88MOL0     H11570  11.444  10.245  11.815 -0.0547  0.9214  1.6840
   88MOL0     H11571  11.445  10.398  11.893 -0.0355  3.8637 -1.0573
   88MOL0     H11572  11.653  10.373  11.763 -0.8519 -3.8773  0.8796
   88MOL0     H11573  11.533  10.492  11.685 -2.0734 -0.9104 -1.3180
   88MOL0     H11574  11.507  10.325  11.500 -2.0694 -0.8743  1.7899
   88MOL0     H11575  11.673  10.343  11.521  0.6919 -3.3412 -2.7809
   88MOL0     H11576  11.641  10.141  11.688 -1.2957  3.6299  1.4929
   88MOL0     H11577  11.673  10.134  11.511 -3.0658 -2.0751 -1.0696
   88MOL0     H11578  11.236  10.101  11.532 -1.6396 -0.4130 -0.7960
   88MOL0     H11579  11.107  10.074  11.336  0.0936 -0.0335  2.4379
   88MOL0     H11580  10.840  10.125  11.075 -1.8687 -2.6045  3.7832
   88MOL0     H11581  10.681  10.083  10.917  1.0684  0.0964 -2.1445
   88MOL0     H11582  10.697   9.677  10.694  0.3211  0.2348 -0.4379
   88MOL0     H11583  10.785   9.806  10.602  0.8242  1.4158  2.7422
   88MOL0     H11584  10.472   9.784  10.615  1.1635  0.6036  2.0197
   88MOL0     H11585  10.560   9.691  10.489  1.5666  1.0593 -1.9118
   88MOL0     H11586  10.640   9.935  10.429 -0.7917  1.9476  1.2459
   88MOL0     H11587  10.511   9.975  10.538 -0.4739  1.7777 -1.9871
   88MOL0     H11588  10.492   9.797  10.294  0.6527  0.3412 -1.0075
   88MOL0     H11589  10.346   9.835  10.389 -0.0583  0.2429  2.1559
   88MOL0     H11590  10.540  10.045  10.238 -1.0820  1.9351  1.0839
   88MOL0     H11591  10.386  10.081  10.300 -0.8455  2.1973 -5.5972
   88MOL0     H11592  10.272   9.926  10.165  1.2228 -2.4775  4.0594
   88MOL0     H11593  10.432   9.879  10.080 -2.4728 -0.3838 -1.4536
   88MOL0     H11594  10.297  10.149  10.077 -0.1794  0.7432 -0.2428
   88MOL0     H11595  10.463  10.087  10.004  1.6927 -1.0033  4.8196
   88MOL0     H11596  10.179   9.996   9.925  1.4204 -2.8439  4.7593
   88MOL0     H11597  10.334   9.942   9.868 -2.4980 -1.1052 -0.4120
   88MOL0     H11598  10.902   9.739  10.784 -1.6524  0.8441 -0.0747
   88MOL0     H11599  11.077   9.789  10.950  0.8622  1.5350 -0.4819
   88MOL0     H11600  11.473   9.998  11.115  0.6348  2.2570  0.1341
   88MOL0     H11601  11.589   9.995  11.327 -1.5725 -0.8866 -0.7795
   88MOL0     H11602  10.424   9.938  10.874 -1.0254 -0.8070 -0.8441
   88MOL0     H11603  10.290   9.768  10.828  0.0906  0.1414  0.1953
   88MOL0     H11604  10.195   9.336  10.727  0.7100  2.6707 -0.0692
   88MOL0     H11605  10.039   9.145  10.688  0.3200  0.5287 -0.3346
   88MOL0     H11606   9.702   9.098  10.974  5.2490  1.9269  0.4309
   88MOL0     H11607   9.707   8.948  10.877 -1.3222  0.4271  1.4372
   88MOL0     H11608   9.496   9.098  10.831 -1.1799  1.7428 -1.9297
   88MOL0     H11609   9.602   9.214  10.775  1.0520  0.5788  1.7931
   88MOL0     H11610   9.617   8.921  10.659  3.7151  0.4954  0.0469
   88MOL0     H11611   9.684   9.066  10.597  2.1905 -2.3160  1.2165
   88MOL0     H11612   9.441   9.138  10.535 -1.6597 -1.1320 -2.2123
   88MOL0     H11613   9.450   8.969  10.514 -2.2773  1.3826 -1.0091
   88MOL0     H11614   9.155   9.012  10.817  1.8194  0.6004  2.3597
   88MOL0     H11615   9.755   9.333  10.955 -1.6747 -0.8495 -2.2637
   88MOL0     H11616   9.914   9.508  11.008 -0.8539  0.5680  1.5721
   89MOL0     O11617   2.911   4.675   2.195  0.0592 -0.8913  0.2009
   89MOL0     C11618   2.828   4.698   2.285 -0.3119 -1.1413 -0.3120
   89MOL0     O11619   2.871   4.746   2.402  0.1869  0.0716  0.3535
   89MOL0     C11620   3.000   4.745   2.447 -0.5554 -0.3781  1.1536
   89MOL0     C11621   3.085   4.639   2.416 -0.1195 -0.1460 -0.2542
   89MOL0     C11622   3.212   4.619   2.465  0.1243 -0.8663  0.0699
   89MOL0     C11623   3.258   4.720   2.547 -0.1573 -0.1765 -0.0345
   89MOL0     O11624   3.387   4.702   2.591 -0.5413 -0.4172  0.2092
   89MOL0     C11625   3.454   4.818   2.658  0.8551  0.7217 -0.5540
   89MOL0     C11626   3.600   4.790   2.667 -0.0689 -0.7284  0.3044
   89MOL0     C11627   3.643   4.727   2.801 -0.2389  0.4328 -0.3840
   89MOL0     C11628   3.798   4.707   2.818  0.5108  0.3092 -0.8135
   89MOL0     C11629   3.842   4.605   2.916  0.1581 -1.1151 -0.7120
   89MOL0     C11630   3.991   4.596   2.935 -0.4605 -0.0750  0.1126
   89MOL0     C11631   4.015   4.493   3.045  0.0171  0.1483  1.0297
   89MOL0     C11632   4.159   4.444   3.059  0.2267 -0.4752 -0.3943
   89MOL0     N11633   4.257   4.552   3.102 -0.2917  0.9434  0.9680
   89MOL0     C11634   4.398   4.544   3.076  0.0477 -0.4116  0.4187
   89MOL0     C11635   4.447   4.650   3.161  0.1553  0.6267  0.7823
   89MOL0     C11636   4.584   4.685   3.197  0.8397 -0.0437 -0.9776
   89MOL0     C11637   4.686   4.590   3.230 -0.1117 -0.2347 -0.4612
   89MOL0     C11638   4.629   4.486   3.328  0.5776 -0.3920 -0.0128
   89MOL0     C11639   4.742   4.391   3.385 -0.5459  0.2839 -0.3191
   89MOL0     O11640   4.845   4.459   3.455 -0.0076 -0.5469 -0.6259
   89MOL0     C11641   4.963   4.402   3.480  0.6974 -0.5792 -0.3036
   89MOL0     C11642   5.036   4.318   3.397  1.3401 -0.1225 -0.4373
   89MOL0     C11643   5.150   4.250   3.446  0.6413  0.4736  0.9000
   89MOL0     C11644   5.209   4.280   3.573  0.7162  0.2968 -0.7823
   89MOL0     C11645   5.327   4.217   3.638 -0.5735 -0.5549  0.8517
   89MOL0     O11646   5.393   4.143   3.546  0.0249  0.0639  0.1125
   89MOL0     C11647   5.504   4.066   3.573 -0.9620  0.1882  0.3230
   89MOL0     C11648   5.617   4.118   3.638  0.5159 -0.1233  0.2280
   89MOL0     C11649   5.726   4.035   3.665 -0.7476 -0.2632 -0.2050
   89MOL0     C11650   5.732   3.904   3.627 -1.1305 -0.2595  0.3307
   89MOL0     O11651   5.843   3.835   3.659  0.0420 -0.4340  0.1084
   89MOL0     C11652   5.839   3.706   3.604  0.6943  0.3136 -0.2264
   89MOL0     C11653   5.969   3.641   3.613 -0.2237 -0.1517  0.3654
   89MOL0     C11654   6.067   3.733   3.528  0.0404  0.3400  0.9648
   89MOL0     C11655   6.185   3.652   3.482 -0.4130 -0.8518 -0.4995
   89MOL0     C11656   6.266   3.722   3.366 -1.1137 -0.5099  0.4350
   89MOL0     C11657   6.385   3.633   3.332  0.2681  0.2481  0.2673
   89MOL0     C11658   6.453   3.698   3.209 -0.0172 -0.1931 -0.0879
   89MOL0     C11659   6.580   3.625   3.169 -0.8318  1.0957  0.1094
   89MOL0    Cl11660   6.696   3.701   3.044 -0.0504 -0.8602 -0.5949
   89MOL0     C11661   5.609   3.851   3.575 -0.7172 -0.2329 -0.5754
   89MOL0     C11662   5.497   3.933   3.548 -0.5902  0.4580 -0.8816
   89MOL0     O11663   5.349   4.222   3.758 -0.3066 -0.9286  0.3815
   89MOL0     C11664   5.138   4.376   3.641  0.5907 -0.7623  0.1536
   89MOL0     C11665   5.019   4.441   3.596 -0.2630 -0.1507  0.0886
   89MOL0     N11666   4.340   4.701   3.228 -0.3449 -0.4039 -0.3663
   89MOL0     N11667   4.226   4.649   3.193  0.8904  0.0405  0.4028
   89MOL0     C11668   3.175   4.835   2.582 -0.6298 -0.3170 -1.0705
   89MOL0     C11669   3.043   4.849   2.529 -0.8694 -0.6385  0.0242
   89MOL0     C11670   2.680   4.681   2.265  0.2812 -0.6029  0.1791
   89MOL0     C11671   2.626   4.681   2.132 -0.0098  0.5220 -0.2769
   89MOL0     C11672   2.486   4.681   2.108 -0.3656  1.1692 -0.5777
   89MOL0     C11673   2.397   4.684   2.224  0.4331 -0.0935  0.8586
   89MOL0     O11674   2.256   4.677   2.220 -0.3054  1.0157 -1.0540
   89MOL0     C11675   2.199   4.595   2.110  0.6074  0.1383 -0.5090
   89MOL0     C11676   2.074   4.531   2.177 -0.8402 -0.5192 -0.5958
   89MOL0     C11677   1.964   4.639   2.210 -0.2567  0.1467  0.0228
   89MOL0     C11678   1.821   4.569   2.217 -0.8584  0.2025  0.0128
   89MOL0     C11679   1.799   4.473   2.327 -0.2026  0.5208  0.0631
   89MOL0     C11680   1.751   4.406   2.415  0.2024  1.1447  0.1634
   89MOL0     C11681   2.450   4.698   2.353  0.2400  0.4845  1.3434
   89MOL0     C11682   2.591   4.704   2.369  0.4904  0.2336  0.1233
   89MOL0     H11683   3.054   4.556   2.352  2.8849  0.7136 -3.0677
   89MOL0     H11684   3.257   4.534   2.415 -1.4237 -1.0750 -1.0329
   89MOL0     H11685   3.418   4.836   2.760 -0.1150  0.4160 -0.8388
   89MOL0     H11686   3.440   4.913   2.605 -2.9858 -0.0027 -1.0674
   89MOL0     H11687   3.645   4.890   2.670 -0.8767 -0.3641  2.3794
   89MOL0     H11688   3.631   4.736   2.578 -2.7230 -0.5827 -0.7930
   89MOL0     H11689   3.588   4.635   2.823 -1.1885  1.1674  0.3975
   89MOL0     H11690   3.610   4.791   2.883 -1.7231 -1.0655  0.2546
   89MOL0     H11691   3.828   4.680   2.716 -0.5735 -0.0079 -1.0594
   89MOL0     H11692   3.836   4.808   2.833 -2.4873  1.0504  4.0146
   89MOL0     H11693   3.807   4.510   2.875 -2.0000 -0.5406 -0.3080
   89MOL0     H11694   3.785   4.619   3.008 -2.2689  4.7502 -2.6623
   89MOL0     H11695   4.031   4.695   2.957 -2.7573  0.6891  1.1547
   89MOL0     H11696   4.041   4.562   2.844 -1.9232 -1.4274 -0.2440
   89MOL0     H11697   4.001   4.540   3.143  1.6765 -0.7175  1.7137
   89MOL0     H11698   3.941   4.415   3.026 -1.4131  1.9351 -1.4631
   89MOL0     H11699   4.189   4.413   2.958  2.0109  0.6838 -0.2655
   89MOL0     H11700   4.170   4.363   3.132 -2.0770 -0.0517  0.4900
   89MOL0     H11701   4.453   4.477   3.011 -0.3647 -0.2443 -0.1057
   89MOL0     H11702   4.574   4.752   3.283  2.2825 -0.5958 -0.3436
   89MOL0     H11703   4.621   4.746   3.114 -1.2765  0.0083 -1.9480
   89MOL0     H11704   4.762   4.648   3.282 -1.9175  0.1806  1.9016
   89MOL0     H11705   4.733   4.533   3.149  3.1802 -0.3756  1.3655
   89MOL0     H11706   4.591   4.545   3.412 -0.9352  1.2018 -1.7395
   89MOL0     H11707   4.538   4.434   3.296  2.3256 -3.7185 -0.0385
   89MOL0     H11708   4.781   4.340   3.296  0.3953 -0.1905  0.3466
   89MOL0     H11709   4.698   4.317   3.453  1.6502 -0.2571  0.6061
   89MOL0     H11710   4.989   4.285   3.305 -1.1103 -1.9519  1.3453
   89MOL0     H11711   5.198   4.175   3.384  0.0665 -1.4404  2.6722
   89MOL0     H11712   5.613   4.224   3.663  0.5498  1.1435 -4.2832
   89MOL0     H11713   5.811   4.069   3.724 -0.3917 -2.6101  0.7472
   89MOL0     H11714   5.784   3.699   3.510 -4.0608 -3.0221  2.4085
   89MOL0     H11715   5.775   3.656   3.676  0.2070  2.4308  0.9025
   89MOL0     H11716   5.985   3.540   3.574  2.6649 -0.4413  2.0203
   89MOL0     H11717   6.006   3.637   3.716 -0.8315  1.3746  0.6653
   89MOL0     H11718   6.088   3.818   3.594 -0.3629  2.3780 -1.3764
   89MOL0     H11719   6.023   3.771   3.436 -2.2302  1.7993  2.5681
   89MOL0     H11720   6.253   3.651   3.568 -1.9011  2.6403  0.9031
   89MOL0     H11721   6.163   3.553   3.442 -1.6378 -0.0759 -1.8776
   89MOL0     H11722   6.304   3.820   3.395 -0.2544 -1.0219  1.1036
   89MOL0     H11723   6.195   3.745   3.285 -1.3960 -0.6789  0.6313
   89MOL0     H11724   6.351   3.536   3.295  1.3514  0.2774 -0.8462
   89MOL0     H11725   6.447   3.622   3.422  2.2474  2.6178 -0.6946
   89MOL0     H11726   6.383   3.704   3.125  3.0845  1.3623 -2.7502
   89MOL0     H11727   6.482   3.798   3.241  0.2350  0.9410 -3.4995
   89MOL0     H11728   6.540   3.529   3.136 -1.5188  1.9163 -1.5323
   89MOL0     H11729   6.639   3.627   3.262 -2.6434  0.4098  1.3336
   89MOL0     H11730   5.600   3.746   3.550  2.1516 -0.6618 -0.1410
   89MOL0     H11731   5.413   3.881   3.503 -0.7864  0.4359 -0.4964
   89MOL0     H11732   5.163   4.401   3.743 -2.4152 -0.7803  0.9568
   89MOL0     H11733   4.969   4.519   3.653 -0.3925  1.1726 -1.7597
   89MOL0     H11734   3.225   4.908   2.644  1.0817 -1.4634 -1.0296
   89MOL0     H11735   2.976   4.932   2.546 -3.0752 -2.7792  2.7563
   89MOL0     H11736   2.696   4.659   2.052 -1.7121 -1.6471 -1.2506
   89MOL0     H11737   2.441   4.669   2.010 -2.0402 -1.4634  0.3948
   89MOL0     H11738   2.266   4.514   2.080 -0.2311 -1.0158  0.6202
   89MOL0     H11739   2.166   4.642   2.017  3.7156 -0.9469 -2.3051
   89MOL0     H11740   2.030   4.463   2.103 -2.7856 -0.8385  0.7571
   89MOL0     H11741   2.104   4.469   2.262 -0.0803 -1.1718 -1.3280
   89MOL0     H11742   1.973   4.727   2.145 -2.2162  2.2269  2.3438
   89MOL0     H11743   1.977   4.675   2.312 -0.0575 -0.5608  0.2531
   89MOL0     H11744   1.744   4.644   2.237 -0.3340  0.8480 -0.3395
   89MOL0     H11745   1.800   4.537   2.115 -0.4294 -0.3277  0.0867
   89MOL0     H11746   1.718   4.366   2.509  3.5934 -2.8159 -0.0379
   89MOL0     H11747   2.395   4.713   2.445 -0.3077  1.1871  0.9160
   89MOL0     H11748   2.624   4.716   2.472 -2.0357  1.4471  0.8495
   90MOL0     O11749   1.668   8.831   9.140  0.1208  0.9205 -0.1707
   90MOL0     C11750   1.737   8.926   9.173  0.3367 -0.8103 -1.0373
   90MOL0     O11751   1.722   9.055   9.136 -0.1733 -0.7530 -0.2093
   90MOL0     C11752   1.609   9.091   9.061  0.3592 -0.2383  0.4901
   90MOL0     C11753   1.602   9.089   8.918 -0.1577  0.3707 -0.0261
   90MOL0     C11754   1.486   9.126   8.847  0.2261 -0.1141  1.2049
   90MOL0     C11755   1.365   9.148   8.915 -0.5019 -0.7870  0.3085
   90MOL0     O11756   1.252   9.170   8.833 -0.6991 -0.2770 -0.4442
   90MOL0     C11757   1.130   9.165   8.907  0.5750 -0.1462 -0.1309
   90MOL0     C11758   1.011   9.176   8.810  1.3287 -0.0337  0.8482
   90MOL0     C11759   0.875   9.186   8.871  0.0771  0.3106 -0.1871
   90MOL0     C11760   0.762   9.256   8.789  1.2752 -0.3665  0.0281
   90MOL0     C11761   0.643   9.307   8.889  0.1878 -0.5303  0.7045
   90MOL0     C11762   0.562   9.211   8.956 -0.1567 -0.4800  0.3586
   90MOL0     C11763   0.411   9.243   8.976 -0.8259  0.9763  0.9825
   90MOL0     C11764   0.333   9.239   8.844 -0.6235  0.4839 -0.3267
   90MOL0     N11765   0.200   9.301   8.865  0.0847  0.3778 -0.0673
   90MOL0     C11766   0.097   9.221   8.905  0.3563 -0.6984  0.2487
   90MOL0     C11767   0.002   9.311   8.927  1.1671 -0.4076 -0.5473
   90MOL0     C11768  -0.123   9.278   8.991  0.5381 -0.3429 -0.2730
   90MOL0     C11769  -0.218   9.236   8.876 -0.4547  0.0331  0.5020
   90MOL0     C11770  -0.362   9.239   8.919 -1.4766 -0.1853  0.3615
   90MOL0     C11771  -0.389   9.154   9.044  0.9771  0.2856 -0.4528
   90MOL0     O11772  -0.523   9.105   9.050  0.4122  0.0447 -0.6199
   90MOL0     C11773  -0.600   9.107   9.165  0.7811  0.0183  1.2734
   90MOL0     C11774  -0.734   9.071   9.157  0.6570 -0.1066 -0.1489
   90MOL0     C11775  -0.832   9.093   9.248 -0.0453  0.0312 -0.7604
   90MOL0     C11776  -0.791   9.146   9.371 -0.4583  0.3153 -0.2751
   90MOL0     C11777  -0.885   9.171   9.485 -0.0118  0.6263 -0.1643
   90MOL0     O11778  -0.988   9.074   9.495 -0.7525 -0.1782  0.0981
   90MOL0     C11779  -1.077   9.091   9.584  0.0094  0.8076 -0.0545
   90MOL0     C11780  -1.083   8.989   9.684  0.0966 -0.3994 -1.0393
   90MOL0     C11781  -1.151   9.007   9.809 -0.2680  0.8139  0.1958
   90MOL0     C11782  -1.230   9.122   9.827 -1.2868  0.0753 -0.1788
   90MOL0     O11783  -1.294   9.144   9.946 -0.3823 -0.4105  0.4541
   90MOL0     C11784  -1.437   9.160   9.926  0.4742  0.5764  0.4142
   90MOL0     C11785  -1.502   9.171  10.066 -0.1377  0.0923 -0.0079
   90MOL0     C11786  -1.480   9.316  10.130  0.1346 -0.1277  0.4573
   90MOL0     C11787  -1.477   9.326  10.282 -0.4573  0.4023 -0.3147
   90MOL0     C11788  -1.443   9.472  10.324  0.3503  0.3156  0.3589
   90MOL0     C11789  -1.443   9.466  10.475  0.0592  0.5464  0.0598
   90MOL0     C11790  -1.382   9.589  10.529 -0.7157 -0.2113  0.2768
   90MOL0     C11791  -1.229   9.610  10.515 -0.1271 -0.2053 -1.0420
   90MOL0    Cl11792  -1.182   9.770  10.602 -0.1980 -0.4924  0.0781
   90MOL0     C11793  -1.237   9.221   9.730  0.3997 -0.2537  0.8646
   90MOL0     C11794  -1.157   9.199   9.612 -0.2739 -0.5523  0.4679
   90MOL0     O11795  -0.878   9.273   9.551 -0.1956  0.6137 -0.4152
   90MOL0     C11796  -0.655   9.182   9.389 -0.4660  0.0063  0.2955
   90MOL0     C11797  -0.568   9.171   9.284 -0.6647  0.2163  0.6748
   90MOL0     N11798   0.036   9.431   8.862  0.0560  0.3858 -0.0328
   90MOL0     N11799   0.160   9.427   8.833  0.4034  0.1968 -0.3863
   90MOL0     C11800   1.360   9.150   9.058  0.2526  0.5037  0.6549
   90MOL0     C11801   1.482   9.116   9.128 -0.0052 -0.0296  0.6571
   90MOL0     C11802   1.848   8.900   9.264  0.1564  1.1548 -0.5252
   90MOL0     C11803   1.895   8.990   9.358 -0.8741  0.2917 -0.1302
   90MOL0     C11804   2.006   8.969   9.441  0.1100  0.2716  0.5212
   90MOL0     C11805   2.070   8.842   9.435 -1.3807  0.0402  0.5920
   90MOL0     O11806   2.186   8.814   9.511 -0.2672  0.1170  0.0054
   90MOL0     C11807   2.262   8.922   9.579  0.0519  0.3709 -0.1412
   90MOL0     C11808   2.384   8.873   9.649 -0.2344 -0.2806 -0.4156
   90MOL0     C11809   2.338   8.766   9.746 -0.8306 -0.3856  0.8014
   90MOL0     C11810   2.459   8.733   9.826 -0.2047 -0.1596 -0.1296
   90MOL0     C11811   2.456   8.594   9.884  0.8596 -0.4035 -0.6135
   90MOL0     C11812   2.451   8.473   9.912  0.4501 -0.3436 -0.5859
   90MOL0     C11813   2.022   8.746   9.340 -0.0920 -0.7281 -0.5753
   90MOL0     C11814   1.919   8.778   9.263  0.2027 -0.0172 -0.1891
   90MOL0     H11815   1.687   9.057   8.859 -1.3497 -0.0186 -1.5771
   90MOL0     H11816   1.498   9.134   8.739  0.6003  1.1225  1.3216
   90MOL0     H11817   1.127   9.248   8.978 -1.5783 -0.3652  0.0940
   90MOL0     H11818   1.131   9.073   8.966  4.3530  0.4049  0.9333
   90MOL0     H11819   1.021   9.090   8.744 -1.8727  0.3727 -0.3157
   90MOL0     H11820   1.026   9.263   8.745  1.1161 -2.4126 -2.6178
   90MOL0     H11821   0.898   9.234   8.967  1.2014 -1.3020  0.3782
   90MOL0     H11822   0.841   9.088   8.904  1.0905  0.8770  2.9190
   90MOL0     H11823   0.802   9.336   8.726  2.2455 -1.1585 -0.3823
   90MOL0     H11824   0.722   9.177   8.725  2.7099  0.3235 -1.8208
   90MOL0     H11825   0.574   9.362   8.824  0.3486  0.0385  1.0105
   90MOL0     H11826   0.689   9.376   8.960  0.4642  3.1877 -2.7253
   90MOL0     H11827   0.616   9.212   9.051  0.5299 -1.9740  0.0171
   90MOL0     H11828   0.573   9.113   8.907 -0.1394 -0.2172 -0.1705
   90MOL0     H11829   0.369   9.165   9.041 -0.1418  2.8774  3.8817
   90MOL0     H11830   0.402   9.338   9.028 -3.3024  1.6594 -0.5489
   90MOL0     H11831   0.320   9.140   8.798 -1.7062  0.9136 -0.9751
   90MOL0     H11832   0.390   9.296   8.769  2.3388  0.3544  1.6663
   90MOL0     H11833   0.099   9.114   8.923 -0.7630 -0.7180  0.2829
   90MOL0     H11834  -0.164   9.364   9.045 -2.3019 -0.0200 -2.6627
   90MOL0     H11835  -0.103   9.201   9.066  1.0634 -0.8310 -0.9087
   90MOL0     H11836  -0.177   9.143   8.835 -0.6344 -0.8382  2.2324
   90MOL0     H11837  -0.209   9.297   8.786 -2.5554  0.8140  0.7620
   90MOL0     H11838  -0.398   9.343   8.918  1.0689  0.9348 -3.9564
   90MOL0     H11839  -0.425   9.192   8.842 -1.4439 -3.0050  1.9503
   90MOL0     H11840  -0.361   9.212   9.133 -0.7651  0.0063  0.3241
   90MOL0     H11841  -0.326   9.067   9.029  1.4469  0.8783 -2.0748
   90MOL0     H11842  -0.763   9.012   9.070 -0.2347  0.9495 -0.5917
   90MOL0     H11843  -0.931   9.060   9.220  0.3917  0.7814 -3.4378
   90MOL0     H11844  -1.030   8.895   9.674 -1.3685 -1.1386 -2.1627
   90MOL0     H11845  -1.149   8.932   9.887 -2.5323  0.6038  0.1083
   90MOL0     H11846  -1.491   9.078   9.878  0.4284  1.2052 -0.6579
   90MOL0     H11847  -1.463   9.250   9.869  0.9995 -1.2699 -3.0158
   90MOL0     H11848  -1.459   9.089  10.125 -0.4993 -0.5853 -0.6687
   90MOL0     H11849  -1.609   9.148  10.058 -0.5610 -0.0702  4.2072
   90MOL0     H11850  -1.563   9.382  10.105 -0.5454  0.0014  2.7791
   90MOL0     H11851  -1.384   9.355  10.096 -0.8686  0.6859 -1.6254
   90MOL0     H11852  -1.569   9.301  10.336  0.1950 -2.7093 -0.4754
   90MOL0     H11853  -1.408   9.244  10.303 -0.4638  0.8058  1.3895
   90MOL0     H11854  -1.512   9.547  10.283  0.4351  0.5246  0.6032
   90MOL0     H11855  -1.348   9.496  10.275 -0.3731 -2.6731 -2.9888
   90MOL0     H11856  -1.383   9.381  10.509  0.5496  1.4210  1.4985
   90MOL0     H11857  -1.545   9.460  10.515  0.6861 -1.5252  1.5261
   90MOL0     H11858  -1.437   9.678  10.498 -0.9541  0.2686  1.9991
   90MOL0     H11859  -1.403   9.566  10.634  2.0123 -3.8924  0.2296
   90MOL0     H11860  -1.197   9.611  10.411  2.0872  1.4786 -0.4316
   90MOL0     H11861  -1.180   9.528  10.569 -2.8169 -2.0618 -1.1813
   90MOL0     H11862  -1.291   9.315   9.729  2.2409  0.8603  1.1029
   90MOL0     H11863  -1.162   9.264   9.525  1.0975 -0.7447  0.2339
   90MOL0     H11864  -0.635   9.239   9.479  0.0856  2.1895 -1.1317
   90MOL0     H11865  -0.482   9.236   9.297  0.7998 -1.4769 -0.1363
   90MOL0     H11866   1.280   9.192   9.118  2.4303  0.2675  3.9890
   90MOL0     H11867   1.492   9.119   9.236 -0.2107  3.1078  0.6844
   90MOL0     H11868   1.846   9.084   9.384  0.5863  0.5666  1.9138
   90MOL0     H11869   2.030   9.049   9.510 -0.3241  0.7452  0.1376
   90MOL0     H11870   2.198   8.976   9.649  1.3587 -0.1075  1.4717
   90MOL0     H11871   2.288   8.996   9.502  0.4554 -0.6573 -1.0167
   90MOL0     H11872   2.454   8.824   9.580  2.4001 -1.2990  2.7434
   90MOL0     H11873   2.434   8.961   9.691  0.2554  0.9113 -3.2584
   90MOL0     H11874   2.304   8.684   9.682 -0.0354  0.8054 -1.2249
   90MOL0     H11875   2.261   8.798   9.817  0.5905  1.5781  1.5549
   90MOL0     H11876   2.534   8.713   9.749 -1.2998 -3.0148 -0.6062
   90MOL0     H11877   2.489   8.804   9.903 -2.3274  0.9588 -0.2463
   90MOL0     H11878   2.453   8.366   9.926 -0.5754 -0.4007 -0.7486
   90MOL0     H11879   2.077   8.652   9.340 -0.9330 -1.3165 -3.4537
   90MOL0     H11880   1.894   8.710   9.182  2.3612  1.8050 -2.5776
   91MOL0     O11881   0.260   4.169   1.194 -0.1907  0.0367 -0.4588
   91MOL0     C11882   0.285   4.266   1.275  0.3029  0.8424 -0.2026
   91MOL0     O11883   0.196   4.338   1.349 -0.5486  0.5994 -1.1888
   91MOL0     C11884   0.070   4.287   1.338  0.1009  0.4928 -0.2504
   91MOL0     C11885  -0.007   4.265   1.224 -0.0193 -0.4803 -0.7385
   91MOL0     C11886  -0.136   4.218   1.221 -0.2828  0.0642  0.7943
   91MOL0     C11887  -0.201   4.197   1.348 -0.0905 -0.0028  0.1649
   91MOL0     O11888  -0.337   4.157   1.353  0.0565 -0.1589  0.1052
   91MOL0     C11889  -0.382   4.104   1.481  0.6492  0.7524 -0.1634
   91MOL0     C11890  -0.516   4.035   1.452 -0.7530 -0.4261 -0.2577
   91MOL0     C11891  -0.575   3.975   1.578  0.7118  0.3038 -0.0722
   91MOL0     C11892  -0.711   3.902   1.556 -0.4889  1.0550 -0.1009
   91MOL0     C11893  -0.813   3.929   1.667  0.2223 -1.0457 -0.3477
   91MOL0     C11894  -0.919   3.818   1.663 -0.2532  0.0524 -0.9607
   91MOL0     C11895  -1.021   3.820   1.771  0.8014  0.6737 -0.8266
   91MOL0     C11896  -1.105   3.950   1.770  0.4760  0.0273 -0.5441
   91MOL0     N11897  -1.226   3.923   1.852  0.4050 -0.2873 -1.1743
   91MOL0     C11898  -1.360   3.939   1.809  0.0284  0.8466 -0.3299
   91MOL0     C11899  -1.433   3.925   1.917  0.4014 -0.9474 -1.4079
   91MOL0     C11900  -1.584   3.937   1.932  0.2406 -0.5974 -1.1120
   91MOL0     C11901  -1.647   3.819   1.862 -0.4823 -0.2551  0.1984
   91MOL0     C11902  -1.797   3.813   1.895  0.1771  0.2862  0.1847
   91MOL0     C11903  -1.828   3.734   2.027  0.7230  0.0418  0.5266
   91MOL0     O11904  -1.972   3.721   2.031 -0.2111  0.0320  0.3624
   91MOL0     C11905  -2.029   3.614   2.095  1.1321  0.0774 -0.5952
   91MOL0     C11906  -2.100   3.533   2.011  0.4797  0.6000  0.4928
   91MOL0     C11907  -2.165   3.417   2.068 -0.1407  0.4313  0.3063
   91MOL0     C11908  -2.162   3.400   2.209  0.3971  0.3859  0.7788
   91MOL0     C11909  -2.235   3.285   2.261  0.9365 -0.0972  0.0406
   91MOL0     O11910  -2.255   3.278   2.392 -0.2629  0.1720 -0.8025
   91MOL0     C11911  -2.330   3.172   2.439 -0.5690  0.7543 -1.2806
   91MOL0     C11912  -2.444   3.195   2.512  0.2280 -0.8907 -0.8379
   91MOL0     C11913  -2.518   3.092   2.565 -0.6872  0.4956 -1.4583
   91MOL0     C11914  -2.470   2.955   2.562 -0.4520 -0.1201 -1.1438
   91MOL0     O11915  -2.526   2.850   2.637 -0.0850  0.3063  0.2040
   91MOL0     C11916  -2.620   2.880   2.740  0.7326 -0.4803  0.0178
   91MOL0     C11917  -2.666   2.765   2.831 -0.1148  0.0710  0.1278
   91MOL0     C11918  -2.762   2.657   2.769 -0.8119 -0.9587 -0.4268
   91MOL0     C11919  -2.792   2.544   2.866 -0.6880 -0.0540  0.1923
   91MOL0     C11920  -2.907   2.453   2.806  0.2674  0.1357  0.2979
   91MOL0     C11921  -2.936   2.330   2.899 -0.3026  0.1870  0.3657
   91MOL0     C11922  -3.046   2.245   2.835 -0.7056  0.3883 -0.4706
   91MOL0     C11923  -3.045   2.107   2.904  0.0714  0.4304  0.2180
   91MOL0    Cl11924  -3.173   2.000   2.853 -0.6715 -0.0595 -0.1940
   91MOL0     C11925  -2.340   2.942   2.505 -0.6676 -0.3291 -0.1013
   91MOL0     C11926  -2.271   3.044   2.431 -0.0797  1.1230  0.2812
   91MOL0     O11927  -2.287   3.207   2.179 -0.0583 -0.0572 -0.3554
   91MOL0     C11928  -2.089   3.479   2.292  0.3033  0.5035  0.3575
   91MOL0     C11929  -2.025   3.587   2.230  0.0292  0.0593 -0.1081
   91MOL0     N11930  -1.355   3.907   2.031 -0.6946 -0.8503 -0.1252
   91MOL0     N11931  -1.229   3.907   1.990 -0.0869  0.0509  0.6248
   91MOL0     C11932  -0.129   4.225   1.467 -0.0822 -0.3507  0.9539
   91MOL0     C11933   0.007   4.271   1.455  0.0281 -0.2163 -0.0104
   91MOL0     C11934   0.427   4.306   1.283  0.0887 -0.7194 -0.6984
   91MOL0     C11935   0.466   4.444   1.317 -0.4692  0.1864 -0.7310
   91MOL0     C11936   0.597   4.478   1.352  0.2293 -0.2495  0.6811
   91MOL0     C11937   0.700   4.391   1.326 -0.3070  0.8804 -0.2456
   91MOL0     O11938   0.835   4.420   1.356 -0.4109  0.1222  0.0692
   91MOL0     C11939   0.875   4.552   1.398 -1.1584 -0.4999 -0.7594
   91MOL0     C11940   0.869   4.660   1.292  0.5017  0.5692 -0.4902
   91MOL0     C11941   0.871   4.797   1.344 -0.0151 -0.3353  1.1753
   91MOL0     C11942   0.917   4.908   1.254 -0.0885  0.1311 -0.0576
   91MOL0     C11943   0.850   4.914   1.125 -0.7328 -0.3978 -0.5509
   91MOL0     C11944   0.781   4.919   1.022 -0.1143 -0.4581  0.3356
   91MOL0     C11945   0.663   4.260   1.285  0.4013  0.3156  0.7430
   91MOL0     C11946   0.535   4.226   1.260  0.9362  0.6671  0.0943
   91MOL0     H11947   0.039   4.291   1.129  0.9198 -2.6946 -0.9564
   91MOL0     H11948  -0.192   4.190   1.132  1.4783 -2.6940  0.3944
   91MOL0     H11949  -0.398   4.183   1.555 -0.8646  0.9325 -0.6423
   91MOL0     H11950  -0.313   4.024   1.510 -0.4040  0.5584  1.9839
   91MOL0     H11951  -0.507   3.953   1.380 -5.8328 -0.2985 -1.4605
   91MOL0     H11952  -0.578   4.116   1.410  3.1651  2.7394 -0.5642
   91MOL0     H11953  -0.592   4.059   1.646 -3.2955 -0.0717 -0.3640
   91MOL0     H11954  -0.510   3.905   1.630  1.2632  0.8902  0.0456
   91MOL0     H11955  -0.741   3.933   1.456 -0.4307  4.3472  0.7668
   91MOL0     H11956  -0.687   3.796   1.559 -3.1302  0.4067  1.3410
   91MOL0     H11957  -0.859   4.023   1.633  0.5902 -0.9663 -0.6299
   91MOL0     H11958  -0.766   3.927   1.765  0.0801 -2.1328 -0.2935
   91MOL0     H11959  -0.862   3.725   1.673  0.0468  0.1566 -1.5856
   91MOL0     H11960  -0.966   3.803   1.565  1.5583 -2.6299 -1.5316
   91MOL0     H11961  -1.095   3.740   1.760  1.2258 -0.3997  2.6376
   91MOL0     H11962  -0.982   3.782   1.866 -3.9323 -1.7412  0.4803
   91MOL0     H11963  -1.142   3.980   1.672  1.3364  1.6756 -0.3900
   91MOL0     H11964  -1.040   4.027   1.811  0.0389 -0.7809  1.8396
   91MOL0     H11965  -1.397   3.965   1.710 -1.9439 -0.9091 -0.0987
   91MOL0     H11966  -1.620   4.034   1.896  0.8702 -0.4192 -1.2773
   91MOL0     H11967  -1.619   3.940   2.035  1.4053  0.8385 -0.7319
   91MOL0     H11968  -1.605   3.726   1.902 -1.6479 -2.3530 -3.0234
   91MOL0     H11969  -1.623   3.833   1.756  0.6830  1.1229  0.6159
   91MOL0     H11970  -1.846   3.910   1.904  0.3230  0.5914 -1.7579
   91MOL0     H11971  -1.846   3.763   1.811 -3.0642  2.9106  0.3343
   91MOL0     H11972  -1.777   3.791   2.105  0.7821  0.3867  0.2399
   91MOL0     H11973  -1.781   3.635   2.030 -0.9243 -0.7405  1.6105
   91MOL0     H11974  -2.099   3.548   1.904  0.9935  0.0177  0.4098
   91MOL0     H11975  -2.222   3.349   2.006  1.8951 -1.1566  0.0896
   91MOL0     H11976  -2.484   3.296   2.500  1.1840 -0.7448 -3.5094
   91MOL0     H11977  -2.612   3.109   2.618 -1.1683 -2.2740 -1.2602
   91MOL0     H11978  -2.713   2.924   2.704 -0.9654 -3.1639  0.7804
   91MOL0     H11979  -2.571   2.952   2.806 -1.2509  0.9852 -0.0269
   91MOL0     H11980  -2.712   2.808   2.920 -2.9217 -0.1289 -1.1384
   91MOL0     H11981  -2.583   2.705   2.870  0.2440  2.0118  2.5670
   91MOL0     H11982  -2.735   2.618   2.671 -0.6838  2.9531 -2.1401
   91MOL0     H11983  -2.850   2.720   2.757  0.2341  0.5283 -0.5656
   91MOL0     H11984  -2.700   2.488   2.883 -1.4881 -1.3198  0.4509
   91MOL0     H11985  -2.818   2.578   2.966 -1.0313 -1.0352  0.4466
   91MOL0     H11986  -2.867   2.432   2.707  0.3433 -1.2545  0.6052
   91MOL0     H11987  -2.999   2.511   2.797 -0.5150 -0.7173  2.2357
   91MOL0     H11988  -2.963   2.377   2.994 -0.0421  0.7097  0.1827
   91MOL0     H11989  -2.845   2.271   2.914  0.7040  1.3341 -0.9178
   91MOL0     H11990  -3.139   2.300   2.851  0.2899  2.2270 -0.7355
   91MOL0     H11991  -3.038   2.231   2.727 -0.2166 -2.1777 -0.1511
   91MOL0     H11992  -3.045   2.106   3.014  1.8545  0.0429  0.2509
   91MOL0     H11993  -2.952   2.057   2.877  0.6253  1.3250  0.4065
   91MOL0     H11994  -2.289   2.846   2.509  1.8194  0.9072 -0.2621
   91MOL0     H11995  -2.180   3.033   2.373 -0.5033 -1.8185  0.0429
   91MOL0     H11996  -2.079   3.472   2.400 -1.4207  1.1388  0.5992
   91MOL0     H11997  -1.968   3.658   2.289 -2.4711  1.6663  0.5133
   91MOL0     H11998  -0.176   4.208   1.563 -1.1316 -1.6282  0.2645
   91MOL0     H11999   0.066   4.299   1.542 -2.2413 -0.0112  1.5411
   91MOL0     H12000   0.393   4.524   1.327  1.1438  1.6063  0.3906
   91MOL0     H12001   0.611   4.578   1.389 -0.5324  1.9905 -4.2641
   91MOL0     H12002   0.980   4.537   1.421 -1.2536 -2.2769 -1.3635
   91MOL0     H12003   0.820   4.591   1.484 -0.8835 -2.0753  0.1769
   91MOL0     H12004   0.948   4.644   1.217 -0.6050 -2.3956 -1.1909
   91MOL0     H12005   0.767   4.648   1.253  0.1928 -2.5069  0.9779
   91MOL0     H12006   0.927   4.790   1.438 -0.5572 -3.4164  1.3756
   91MOL0     H12007   0.769   4.824   1.372 -1.0652 -2.0252 -0.7666
   91MOL0     H12008   0.901   5.005   1.303 -0.4160  0.8142 -1.4884
   91MOL0     H12009   1.022   4.890   1.228 -0.0306  1.5428 -0.9031
   91MOL0     H12010   0.715   4.927   0.938 -0.2123 -1.8837  0.2539
   91MOL0     H12011   0.734   4.179   1.276  2.2117  1.9679 -1.1987
   91MOL0     H12012   0.519   4.129   1.212  1.6560 -0.3285  1.7737
   92MOL0     O12013   8.839   5.999   7.424 -0.1557  0.4419  0.3801
   92MOL0     C12014   8.824   6.121   7.399 -0.1319 -0.1289  0.4747
   92MOL0     O12015   8.711   6.197   7.395  0.3252  0.1088  0.7940
   92MOL0     C12016   8.582   6.150   7.394 -0.2230 -0.1515  0.7842
   92MOL0     C12017   8.482   6.184   7.295 -0.4108  0.4011  0.3962
   92MOL0     C12018   8.348   6.158   7.320  0.4686  0.5501  0.9114
   92MOL0     C12019   8.291   6.095   7.433 -0.4963 -0.0581  0.1310
   92MOL0     O12020   8.155   6.061   7.448 -0.3340 -0.2927 -0.1583
   92MOL0     C12021   8.066   6.114   7.346  0.0660 -0.1925 -0.4157
   92MOL0     C12022   7.929   6.089   7.401 -0.1777  0.7140 -0.0240
   92MOL0     C12023   7.804   6.129   7.319 -0.3035  0.2794 -0.7559
   92MOL0     C12024   7.665   6.080   7.382  0.1435  0.7904  0.1529
   92MOL0     C12025   7.566   6.058   7.271  0.9235  0.7944  0.7496
   92MOL0     C12026   7.541   6.179   7.184 -0.2248 -0.4478  0.1521
   92MOL0     C12027   7.416   6.167   7.100  0.2093  0.2807  0.1355
   92MOL0     C12028   7.456   6.125   6.960 -0.5239 -0.3387  0.2806
   92MOL0     N12029   7.345   6.073   6.881 -0.4974  0.8248  0.1454
   92MOL0     C12030   7.343   5.941   6.829 -0.9586  0.5308  0.0398
   92MOL0     C12031   7.233   5.943   6.751  0.0905  0.8953 -0.2554
   92MOL0     C12032   7.191   5.837   6.660  1.6149  0.4228 -0.4126
   92MOL0     C12033   7.040   5.805   6.702 -0.4744  0.3141  0.7842
   92MOL0     C12034   7.005   5.670   6.625  0.5346 -0.4492  0.0484
   92MOL0     C12035   6.857   5.654   6.600  0.0849  1.1300 -0.4024
   92MOL0     O12036   6.803   5.764   6.534  0.0724 -0.0889  0.0600
   92MOL0     C12037   6.678   5.808   6.574  0.7620  0.7727 -0.6518
   92MOL0     C12038   6.663   5.899   6.672  0.2515  0.2877  0.0252
   92MOL0     C12039   6.536   5.944   6.708  0.4379 -0.3177  0.2556
   92MOL0     C12040   6.421   5.896   6.648  1.1980 -0.1056 -0.7138
   92MOL0     C12041   6.281   5.937   6.683  0.5652 -0.9479 -0.1291
   92MOL0     O12042   6.183   5.907   6.586  0.1833 -0.1618  0.4394
   92MOL0     C12043   6.055   5.919   6.620 -1.0445 -0.8631 -0.5180
   92MOL0     C12044   5.970   5.822   6.682  0.0725  0.5163  0.6683
   92MOL0     C12045   5.838   5.854   6.708  0.0511 -1.1403 -0.4956
   92MOL0     C12046   5.783   5.980   6.696  0.4693  0.0052  0.1909
   92MOL0     O12047   5.653   6.004   6.722  0.1821  0.1575  0.1617
   92MOL0     C12048   5.607   6.135   6.720 -0.7799  0.1032  0.9709
   92MOL0     C12049   5.453   6.130   6.736 -0.9644  0.0664 -0.3682
   92MOL0     C12050   5.418   6.036   6.856  0.0806  0.3756  0.0441
   92MOL0     C12051   5.270   6.037   6.904 -0.5135  0.2478 -1.0825
   92MOL0     C12052   5.254   5.954   7.028 -0.5899 -0.5984 -0.8111
   92MOL0     C12053   5.224   6.039   7.160 -0.1626 -0.3836  0.5838
   92MOL0     C12054   5.104   5.973   7.237  0.4111 -0.2797 -0.6235
   92MOL0     C12055   5.108   5.822   7.269 -1.0898  0.9353 -0.9785
   92MOL0    Cl12056   5.030   5.789   7.423 -0.4202 -0.3636  0.0869
   92MOL0     C12057   5.873   6.072   6.640 -0.1918  0.0930 -0.2663
   92MOL0     C12058   6.006   6.051   6.605 -0.4384  0.3003  0.0134
   92MOL0     O12059   6.264   5.994   6.791 -0.3567  0.3473  0.1365
   92MOL0     C12060   6.438   5.798   6.541 -0.1971 -0.5069 -0.2381
   92MOL0     C12061   6.570   5.761   6.513  1.1183 -1.3975 -0.1682
   92MOL0     N12062   7.172   6.066   6.767 -0.0372  0.0968 -0.0823
   92MOL0     N12063   7.241   6.148   6.831 -0.6322 -0.9050  0.6053
   92MOL0     C12064   8.389   6.052   7.518  0.1638  0.9844 -0.2898
   92MOL0     C12065   8.528   6.081   7.502  0.1063  0.2373 -0.9083
   92MOL0     C12066   8.954   6.182   7.360  0.2203  0.7150 -0.4897
   92MOL0     C12067   8.966   6.320   7.358 -0.8814  0.0230  0.1121
   92MOL0     C12068   9.093   6.375   7.325 -0.7656 -0.7312  0.1762
   92MOL0     C12069   9.208   6.302   7.308 -0.0551  0.5579 -0.7714
   92MOL0     O12070   9.336   6.361   7.301  0.4289 -0.1781 -0.0204
   92MOL0     C12071   9.452   6.284   7.295 -0.5999  0.3720 -0.4957
   92MOL0     C12072   9.500   6.246   7.429  0.8358  0.1017 -0.1978
   92MOL0     C12073   9.630   6.158   7.425  0.0014  0.3935 -0.1060
   92MOL0     C12074   9.768   6.226   7.404  0.0192  0.1284 -0.1046
   92MOL0     C12075   9.806   6.321   7.505 -0.3048 -0.1370  0.5804
   92MOL0     C12076   9.831   6.426   7.562  0.3644  0.3297 -0.0408
   92MOL0     C12077   9.188   6.166   7.312  0.6536 -0.3451 -0.1868
   92MOL0     C12078   9.063   6.102   7.333 -0.2251  0.1683 -0.2443
   92MOL0     H12079   8.510   6.230   7.201  0.7296  1.4463  1.2260
   92MOL0     H12080   8.287   6.210   7.247  0.4845  0.7113  1.0120
   92MOL0     H12081   8.088   6.059   7.254  2.5099 -2.5166  1.4155
   92MOL0     H12082   8.079   6.221   7.326  4.1159 -0.0632  1.8445
   92MOL0     H12083   7.926   6.150   7.492 -0.8124 -0.7958  1.0000
   92MOL0     H12084   7.911   5.988   7.438 -1.5289  0.0348 -2.3467
   92MOL0     H12085   7.824   6.081   7.222 -0.5803  2.4320 -1.9516
   92MOL0     H12086   7.798   6.238   7.315 -0.5259  0.5179  2.9787
   92MOL0     H12087   7.672   5.982   7.432 -1.5664 -0.4134 -1.8273
   92MOL0     H12088   7.630   6.147   7.461  2.8484  3.1919 -0.5187
   92MOL0     H12089   7.464   6.038   7.306  1.6077  0.4389  2.6487
   92MOL0     H12090   7.590   5.972   7.207  1.8623  1.8875 -0.4173
   92MOL0     H12091   7.631   6.186   7.122 -1.7991  1.9714 -2.0895
   92MOL0     H12092   7.525   6.263   7.253  0.6251  0.4756 -0.7511
   92MOL0     H12093   7.343   6.097   7.142 -0.9323  1.2344 -0.2212
   92MOL0     H12094   7.373   6.267   7.092 -2.1300 -0.4779  1.9453
   92MOL0     H12095   7.532   6.047   6.962  1.8943  1.8550 -0.7766
   92MOL0     H12096   7.497   6.208   6.902 -0.9607  0.9462  1.7381
   92MOL0     H12097   7.420   5.865   6.836 -1.0737 -0.0573 -3.5805
   92MOL0     H12098   7.246   5.742   6.664  0.2335 -0.4232 -0.9219
   92MOL0     H12099   7.180   5.889   6.564 -3.4660  1.8564  0.6388
   92MOL0     H12100   6.976   5.889   6.673 -2.4291 -0.4710  2.5170
   92MOL0     H12101   7.026   5.788   6.809  0.7785 -2.4692  0.5878
   92MOL0     H12102   7.062   5.666   6.532  0.0743  3.7544 -0.5882
   92MOL0     H12103   7.036   5.583   6.684  0.7766 -1.4374 -1.4993
   92MOL0     H12104   6.799   5.631   6.690 -1.6495 -3.7230 -2.4307
   92MOL0     H12105   6.837   5.564   6.541  2.1670  0.8941 -0.8080
   92MOL0     H12106   6.750   5.942   6.720 -0.5091 -0.9725  2.7288
   92MOL0     H12107   6.522   6.033   6.768 -0.7138 -0.8710  0.8392
   92MOL0     H12108   6.005   5.722   6.707  3.5697  1.6399  0.7473
   92MOL0     H12109   5.778   5.770   6.741  1.1771 -2.3923 -1.5502
   92MOL0     H12110   5.640   6.189   6.631  0.0609 -0.4426  0.9429
   92MOL0     H12111   5.663   6.185   6.800  3.9051 -1.0915 -1.2271
   92MOL0     H12112   5.422   6.091   6.639  0.7647  3.0888 -2.2804
   92MOL0     H12113   5.401   6.221   6.764  0.1632  0.4726  0.5048
   92MOL0     H12114   5.487   6.064   6.936  2.2572 -1.3326 -1.1400
   92MOL0     H12115   5.445   5.933   6.833  1.1155  0.6267  0.0715
   92MOL0     H12116   5.257   6.143   6.931 -1.0571  0.0769 -0.6695
   92MOL0     H12117   5.189   6.030   6.832 -1.6812  1.4540  0.0619
   92MOL0     H12118   5.351   5.906   7.039 -0.0931  0.6015  0.2920
   92MOL0     H12119   5.175   5.880   7.010 -2.7039  1.3217  0.0177
   92MOL0     H12120   5.202   6.144   7.135  0.1439 -0.7846 -1.5806
   92MOL0     H12121   5.319   6.040   7.214 -0.1179  0.1826  0.5013
   92MOL0     H12122   5.095   6.027   7.332 -1.0851 -0.5848 -0.5773
   92MOL0     H12123   5.008   5.994   7.190 -1.2507 -1.3906  2.0585
   92MOL0     H12124   5.208   5.778   7.272 -1.5119 -0.0225 -0.8290
   92MOL0     H12125   5.059   5.766   7.189 -0.1432 -1.6656  0.1576
   92MOL0     H12126   5.843   6.173   6.615 -1.9027  0.2654  2.2069
   92MOL0     H12127   6.069   6.117   6.547  1.5586 -2.9163 -1.7796
   92MOL0     H12128   6.355   5.748   6.492 -0.8164  0.7083 -0.4695
   92MOL0     H12129   6.585   5.690   6.432  0.6934  1.2625 -2.7474
   92MOL0     H12130   8.353   6.001   7.607  0.5289  1.4410  0.1283
   92MOL0     H12131   8.588   6.060   7.590  1.3970 -0.6892 -1.9662
   92MOL0     H12132   8.880   6.382   7.381 -0.2761  1.7977 -2.1691
   92MOL0     H12133   9.094   6.483   7.331 -0.6267 -0.7478  0.4675
   92MOL0     H12134   9.536   6.342   7.255 -0.9863  0.5072 -1.1359
   92MOL0     H12135   9.428   6.200   7.229 -0.8774 -0.6368  0.8501
   92MOL0     H12136   9.509   6.332   7.495 -1.4845 -0.3429  0.7792
   92MOL0     H12137   9.421   6.190   7.480  1.1962  2.5821  3.4060
   92MOL0     H12138   9.617   6.078   7.351  0.4339 -1.6805  1.9236
   92MOL0     H12139   9.635   6.095   7.514 -2.7713 -0.3506 -0.3745
   92MOL0     H12140   9.849   6.154   7.393  0.1029  0.3376 -0.8776
   92MOL0     H12141   9.767   6.277   7.307 -1.2527  1.0637  0.3741
   92MOL0     H12142   9.844   6.510   7.628 -3.7644  1.3214 -0.2069
   92MOL0     H12143   9.267   6.092   7.308  0.2359 -0.8536  0.7693
   92MOL0     H12144   9.053   5.994   7.327  1.0134  0.1272 -2.5855
   93MOL0     O12145  10.521   6.178   0.284 -0.0436 -0.2948  0.1250
   93MOL0     C12146  10.504   6.217   0.166  0.2294 -0.2053  0.3942
   93MOL0     O12147  10.602   6.222   0.067  0.1887  0.3401  0.1295
   93MOL0     C12148  10.725   6.170   0.111 -0.0272 -0.2344 -0.2662
   93MOL0     C12149  10.764   6.040   0.081  0.7591  0.5009 -0.3352
   93MOL0     C12150  10.892   5.998   0.113  0.3479 -0.0514 -0.7405
   93MOL0     C12151  10.985   6.085   0.174  0.0727  0.8360  0.0033
   93MOL0     O12152  11.105   6.036   0.213 -0.2886  0.0129  0.3130
   93MOL0     C12153  11.219   6.103   0.162  0.3723  0.5756 -1.2483
   93MOL0     C12154  11.344   6.039   0.218  0.0998  0.4865 -0.4369
   93MOL0     C12155  11.453   6.026   0.103 -0.0687 -0.6118  0.2953
   93MOL0     C12156  11.565   5.918   0.132 -0.6919 -0.2186  1.0356
   93MOL0     C12157  11.672   5.910   0.026  0.3995 -0.3672 -0.8337
   93MOL0     C12158  11.774   6.029   0.046 -0.6802  0.6467  0.0653
   93MOL0     C12159  11.926   5.970   0.027  0.0986  0.1256  0.0764
   93MOL0     C12160  12.023   6.087   0.049  0.1427 -0.2111  0.4416
   93MOL0     N12161  12.035   6.165  -0.082 -0.7549  0.6147  0.7238
   93MOL0     C12162  12.131   6.123  -0.178 -0.0843 -0.9022  0.1938
   93MOL0     C12163  12.091   6.188  -0.290 -0.8249  0.9509  0.5710
   93MOL0     C12164  12.153   6.170  -0.425  0.0493  0.6591 -0.9431
   93MOL0     C12165  12.068   6.047  -0.486 -0.0037  0.2093 -0.5697
   93MOL0     C12166  12.073   5.898  -0.417  0.5327 -0.4563  0.8624
   93MOL0     C12167  12.217   5.848  -0.386  0.3226 -0.9820  0.0374
   93MOL0     O12168  12.223   5.748  -0.281  0.1326  0.2715  0.4319
   93MOL0     C12169  12.350   5.697  -0.257 -0.4904  1.5424 -0.6126
   93MOL0     C12170  12.473   5.737  -0.319 -0.2400  0.0739 -0.2772
   93MOL0     C12171  12.594   5.687  -0.277  0.0823 -0.1389  0.1645
   93MOL0     C12172  12.597   5.583  -0.183  0.7270 -1.1905 -0.4081
   93MOL0     C12173  12.727   5.532  -0.135 -0.1399 -0.0001  0.7684
   93MOL0     O12174  12.716   5.413  -0.086 -0.0366 -0.1812  0.1241
   93MOL0     C12175  12.836   5.344  -0.077  0.5764 -0.4028 -0.5062
   93MOL0     C12176  12.866   5.285   0.046  0.6035  0.5885 -0.1064
   93MOL0     C12177  12.976   5.213   0.067  0.1409 -0.1688 -0.1962
   93MOL0     C12178  13.061   5.182  -0.039  0.1167  0.6415 -0.6894
   93MOL0     O12179  13.180   5.115  -0.011 -0.0830  0.2052 -0.7282
   93MOL0     C12180  13.255   5.057  -0.112 -0.5929 -0.5537 -0.0067
   93MOL0     C12181  13.194   4.935  -0.194  0.1598 -0.1628  0.5669
   93MOL0     C12182  13.252   4.921  -0.336  1.3505 -0.3373  0.5015
   93MOL0     C12183  13.381   4.843  -0.342  0.6041  0.4298  0.0480
   93MOL0     C12184  13.454   4.867  -0.475 -0.3903  0.1360  0.5455
   93MOL0     C12185  13.567   4.772  -0.505  0.0827  0.1036 -0.1812
   93MOL0     C12186  13.688   4.798  -0.422  0.3149  0.1473  0.3587
   93MOL0     C12187  13.800   4.698  -0.445  0.1241  0.6227 -0.7244
   93MOL0    Cl12188  13.785   4.555  -0.332  0.7031 -0.0731 -0.2741
   93MOL0     C12189  13.028   5.225  -0.172  0.4289  0.4091 -0.1901
   93MOL0     C12190  12.921   5.321  -0.184  0.3038 -0.2029 -0.5449
   93MOL0     O12191  12.829   5.601  -0.146  0.9853 -0.1450  0.1932
   93MOL0     C12192  12.477   5.528  -0.135 -0.6317  0.3519 -0.4172
   93MOL0     C12193  12.356   5.595  -0.159 -0.0616 -0.2711  1.0588
   93MOL0     N12194  11.994   6.279  -0.259  0.4729  0.7114  0.6814
   93MOL0     N12195  11.954   6.267  -0.130 -0.3404  0.1336  0.7608
   93MOL0     C12196  10.942   6.209   0.207  0.4648 -0.8018 -0.6620
   93MOL0     C12197  10.812   6.254   0.183 -0.3368 -0.0134 -0.1454
   93MOL0     C12198  10.365   6.273   0.151  0.7248 -0.7438  0.3747
   93MOL0     C12199  10.322   6.306   0.017 -0.4924  1.1620 -0.1400
   93MOL0     C12200  10.188   6.355  -0.003  0.6261 -0.0065 -0.3098
   93MOL0     C12201  10.099   6.376   0.101  0.6141 -0.8739  0.1844
   93MOL0     O12202   9.972   6.435   0.094 -0.5437 -0.9334 -0.3570
   93MOL0     C12203   9.942   6.496  -0.036  0.7994  0.8511  0.6385
   93MOL0     C12204   9.897   6.377  -0.132  0.0213 -0.5229  0.8796
   93MOL0     C12205   9.759   6.333  -0.081 -0.2052 -0.1359 -0.3334
   93MOL0     C12206   9.768   6.217   0.028  0.3337 -0.0638 -0.6224
   93MOL0     C12207   9.639   6.176   0.066 -0.1721  0.3153 -0.1622
   93MOL0     C12208   9.525   6.135   0.113 -0.8828  0.3667 -0.9360
   93MOL0     C12209  10.148   6.345   0.225  0.1375 -1.1285  0.3385
   93MOL0     C12210  10.273   6.289   0.254  0.8077  0.7264 -0.2483
   93MOL0     H12211  10.691   5.979   0.029  0.5948 -1.0991  1.6280
   93MOL0     H12212  10.918   5.895   0.094 -1.3386 -0.8220  0.7162
   93MOL0     H12213  11.213   6.209   0.187 -3.7346  0.1496  0.3428
   93MOL0     H12214  11.214   6.103   0.053  0.7898  1.8285 -1.2777
   93MOL0     H12215  11.322   5.937   0.251  0.4407 -0.2111 -2.2750
   93MOL0     H12216  11.382   6.093   0.305 -1.4988 -2.1724  2.1130
   93MOL0     H12217  11.504   6.120   0.082 -0.4519  0.1973  2.6505
   93MOL0     H12218  11.403   5.988   0.014 -0.2601  0.6655 -0.1609
   93MOL0     H12219  11.606   5.932   0.233 -2.3005 -0.5792  1.7681
   93MOL0     H12220  11.520   5.820   0.148  0.0548 -0.7063  0.2575
   93MOL0     H12221  11.637   5.898  -0.077 -0.8024 -0.0628 -0.4764
   93MOL0     H12222  11.722   5.815   0.042  0.8006 -0.3218 -1.7535
   93MOL0     H12223  11.764   6.072   0.147 -0.8109  2.3490 -0.6295
   93MOL0     H12224  11.749   6.111  -0.022 -2.8837  1.4142  1.6809
   93MOL0     H12225  11.947   5.889   0.097 -2.9521 -2.9891 -2.2666
   93MOL0     H12226  11.938   5.927  -0.073 -2.3253  2.1226 -1.1798
   93MOL0     H12227  12.117   6.056   0.096  0.8424  1.1033 -0.0218
   93MOL0     H12228  11.976   6.157   0.118  1.4967  0.2289  0.9378
   93MOL0     H12229  12.209   6.048  -0.170 -0.6039 -1.3165  1.6923
   93MOL0     H12230  12.256   6.147  -0.396  0.0070  2.0438  0.4390
   93MOL0     H12231  12.145   6.268  -0.471  1.6566  1.2120 -0.1464
   93MOL0     H12232  12.102   6.046  -0.590 -0.5351  0.5204 -0.7505
   93MOL0     H12233  11.965   6.084  -0.491 -0.4249 -0.6137  1.1845
   93MOL0     H12234  12.012   5.907  -0.327 -1.8945  0.3194 -0.7606
   93MOL0     H12235  12.012   5.827  -0.474 -1.0333  0.7142  1.0234
   93MOL0     H12236  12.276   5.932  -0.348 -0.5122  0.6893 -2.1370
   93MOL0     H12237  12.265   5.821  -0.481 -2.1087 -0.4814 -1.4232
   93MOL0     H12238  12.474   5.794  -0.411 -1.3004 -1.1703 -1.0912
   93MOL0     H12239  12.687   5.730  -0.314  0.5878  0.3965  1.9410
   93MOL0     H12240  12.793   5.298   0.124  1.1187 -1.8537  0.8611
   93MOL0     H12241  13.007   5.182   0.167  1.7478  2.8955  0.3774
   93MOL0     H12242  13.345   5.016  -0.063  0.4984 -1.1535 -2.3551
   93MOL0     H12243  13.282   5.133  -0.185 -0.8496 -1.6304 -1.2592
   93MOL0     H12244  13.086   4.948  -0.198  0.2528  0.5565  0.3440
   93MOL0     H12245  13.208   4.839  -0.143 -0.7240  0.6080  2.3666
   93MOL0     H12246  13.256   5.019  -0.384  0.5968 -1.3657 -1.8135
   93MOL0     H12247  13.184   4.862  -0.399  0.7192  0.7545  0.1351
   93MOL0     H12248  13.432   4.892  -0.258  0.8239 -0.1465  0.2601
   93MOL0     H12249  13.369   4.735  -0.326  0.3419 -0.3588 -4.3146
   93MOL0     H12250  13.500   4.966  -0.481  0.3864 -0.2785 -0.8426
   93MOL0     H12251  13.382   4.856  -0.557  0.0954 -1.2944  0.2755
   93MOL0     H12252  13.597   4.783  -0.609  0.5931  1.3547  0.0773
   93MOL0     H12253  13.544   4.668  -0.480  3.3245 -0.4381  1.0341
   93MOL0     H12254  13.725   4.900  -0.439  1.6295 -0.3936 -0.1122
   93MOL0     H12255  13.655   4.791  -0.317 -0.0687  3.8937  0.6354
   93MOL0     H12256  13.900   4.742  -0.443 -0.5966  2.3408 -0.6644
   93MOL0     H12257  13.796   4.659  -0.547 -1.6706 -0.8039 -0.1689
   93MOL0     H12258  13.091   5.205  -0.259 -1.0630  0.6311 -1.3682
   93MOL0     H12259  12.905   5.362  -0.283  2.6171  2.8777  0.2243
   93MOL0     H12260  12.486   5.458  -0.052  1.6996 -1.7243 -2.2580
   93MOL0     H12261  12.265   5.563  -0.111 -0.5138  0.5247  0.7571
   93MOL0     H12262  10.999   6.288   0.255  1.8416 -2.1421  0.0084
   93MOL0     H12263  10.780   6.352   0.217  1.7816 -0.1927  2.6880
   93MOL0     H12264  10.398   6.291  -0.060 -0.1239  0.8529  0.2752
   93MOL0     H12265  10.166   6.372  -0.108  6.0622 -0.2078 -1.7986
   93MOL0     H12266  10.032   6.551  -0.066 -0.0733  1.5074 -0.9068
   93MOL0     H12267   9.867   6.575  -0.026 -0.7132 -0.4679  0.1408
   93MOL0     H12268   9.890   6.424  -0.230  2.3166  0.3733  1.0773
   93MOL0     H12269   9.972   6.299  -0.139 -1.2279 -1.5974 -1.9550
   93MOL0     H12270   9.699   6.306  -0.169  1.5457 -3.7900 -0.6061
   93MOL0     H12271   9.709   6.420  -0.039 -0.2428 -1.3860  2.4498
   93MOL0     H12272   9.826   6.130  -0.005  0.3060 -0.2562 -0.1622
   93MOL0     H12273   9.817   6.262   0.114 -0.4509  0.7942 -0.6027
   93MOL0     H12274   9.440   6.101   0.169  0.8036 -1.1219  0.9041
   93MOL0     H12275  10.082   6.369   0.308 -0.5431  0.5871 -0.6360
   93MOL0     H12276  10.301   6.272   0.357  4.1964  1.7575 -0.8808
   94MOL0     O12277   9.771   0.157   4.293  0.8055 -0.4115  0.5248
   94MOL0     C12278   9.770   0.259   4.220  0.4147 -0.0399  0.8874
   94MOL0     O12279   9.876   0.316   4.166 -0.1907  0.2429 -1.3473
   94MOL0     C12280  10.005   0.266   4.178  0.1727 -0.5407  0.4920
   94MOL0     C12281  10.104   0.360   4.134  0.1586  0.0659 -0.6560
   94MOL0     C12282  10.240   0.320   4.123 -0.2840  0.0784 -0.6440
   94MOL0     C12283  10.281   0.187   4.158  0.0355  0.2756 -0.0538
   94MOL0     O12284  10.420   0.173   4.164  0.4405 -0.2821  0.8933
   94MOL0     C12285  10.478   0.089   4.263  0.0744 -0.4994 -0.5825
   94MOL0     C12286  10.547  -0.045   4.205  0.6385 -0.5418 -0.6713
   94MOL0     C12287  10.658  -0.020   4.096 -0.9841  0.1659 -0.6150
   94MOL0     C12288  10.790   0.028   4.173 -0.3471 -0.8542  0.1467
   94MOL0     C12289  10.869  -0.093   4.221 -0.2029  0.9317  0.2804
   94MOL0     C12290  10.981  -0.044   4.313  0.7635 -0.8210 -0.1510
   94MOL0     C12291  11.034  -0.146   4.408  0.3214 -0.0349 -0.0521
   94MOL0     C12292  10.950  -0.172   4.531  0.6501 -0.1358  0.1498
   94MOL0     N12293  11.002  -0.091   4.644 -0.6795 -0.4744 -0.0162
   94MOL0     C12294  11.113  -0.146   4.719  0.9522 -0.4059 -0.7997
   94MOL0     C12295  11.174  -0.036   4.772  0.3179  1.3025 -0.7628
   94MOL0     C12296  11.307  -0.018   4.842  0.7962  0.2809  0.3906
   94MOL0     C12297  11.305   0.083   4.954 -0.8728  0.1100 -0.5113
   94MOL0     C12298  11.447   0.152   4.969  0.5801  0.2642  0.2523
   94MOL0     C12299  11.462   0.301   4.957 -0.1365 -0.6976  0.4262
   94MOL0     O12300  11.380   0.362   5.060 -0.1091  0.3072 -0.3348
   94MOL0     C12301  11.272   0.449   5.021 -0.2641 -0.9475 -0.0424
   94MOL0     C12302  11.201   0.507   5.127  0.6001  0.7701  0.3191
   94MOL0     C12303  11.105   0.600   5.106  1.2980  0.6041  0.9716
   94MOL0     C12304  11.069   0.643   4.975  0.4211 -0.4343  0.7696
   94MOL0     C12305  10.992   0.764   4.947  0.4717 -0.2760  0.4723
   94MOL0     O12306  10.925   0.805   5.071 -0.0963  0.2478 -0.3814
   94MOL0     C12307  10.847   0.919   5.096  0.1701 -0.1016 -1.2875
   94MOL0     C12308  10.791   0.941   5.225  0.4849  0.7648  0.2939
   94MOL0     C12309  10.730   1.064   5.262  0.9502 -0.2156  0.3403
   94MOL0     C12310  10.711   1.166   5.163 -0.6338  0.2943  1.1841
   94MOL0     O12311  10.670   1.291   5.214  0.3850  0.0880 -0.4655
   94MOL0     C12312  10.627   1.380   5.119  1.0805 -0.2919 -0.5903
   94MOL0     C12313  10.527   1.464   5.189 -0.7048  0.4084  0.5574
   94MOL0     C12314  10.468   1.562   5.087  0.3999 -1.1234  0.2159
   94MOL0     C12315  10.383   1.671   5.154 -0.8705  0.0072  0.4241
   94MOL0     C12316  10.334   1.786   5.071  0.9766  0.2864 -0.6347
   94MOL0     C12317  10.289   1.887   5.176 -1.0325  0.2387 -0.9243
   94MOL0     C12318  10.223   2.009   5.104 -0.6362  0.5364  0.6021
   94MOL0     C12319  10.151   2.099   5.194  0.9142  0.0256  0.5152
   94MOL0    Cl12320  10.062   2.214   5.090  0.2193  0.1679 -0.1057
   94MOL0     C12321  10.755   1.140   5.029 -0.1347  0.5229 -0.5659
   94MOL0     C12322  10.814   1.015   5.001  0.3618 -0.6245 -0.3037
   94MOL0     O12323  10.991   0.823   4.836  0.4073 -0.4557  0.3095
   94MOL0     C12324  11.142   0.582   4.870 -1.1351 -0.5055  0.3264
   94MOL0     C12325  11.237   0.477   4.888  0.6503 -0.1149 -0.2276
   94MOL0     N12326  11.099   0.076   4.734 -0.6406 -0.5126 -0.3594
   94MOL0     N12327  11.000   0.042   4.661  0.6074  0.0909  0.1589
   94MOL0     C12328  10.187   0.093   4.197  0.2109  1.0529 -1.4631
   94MOL0     C12329  10.051   0.135   4.210  0.3512 -0.7230 -0.0537
   94MOL0     C12330   9.640   0.337   4.197 -1.1512 -0.3177  0.1549
   94MOL0     C12331   9.640   0.455   4.115  0.2793  0.3910  0.9800
   94MOL0     C12332   9.520   0.528   4.105  0.3721 -0.0834  0.2665
   94MOL0     C12333   9.409   0.499   4.174 -1.0672 -0.0684 -0.0428
   94MOL0     O12334   9.296   0.563   4.147 -0.5974 -0.0921  0.0315
   94MOL0     C12335   9.299   0.699   4.095  0.9169 -0.4153 -0.1736
   94MOL0     C12336   9.163   0.753   4.114 -0.0780  0.0919  0.3039
   94MOL0     C12337   9.131   0.878   4.032  0.4840  0.9803  0.5330
   94MOL0     C12338   8.998   0.939   4.037  0.3949  0.4746 -0.2055
   94MOL0     C12339   8.899   0.835   4.021 -0.1515 -0.4138 -0.0352
   94MOL0     C12340   8.818   0.754   3.999 -0.1295 -0.4801  0.2685
   94MOL0     C12341   9.414   0.391   4.261 -0.1799  0.2169  0.0619
   94MOL0     C12342   9.523   0.302   4.270 -0.9740 -0.1870 -0.1331
   94MOL0     H12343  10.087   0.463   4.104  0.7724  0.7759  1.2971
   94MOL0     H12344  10.314   0.394   4.096 -2.5948  3.8887  2.3935
   94MOL0     H12345  10.411   0.058   4.343  0.7816  3.2511  1.6913
   94MOL0     H12346  10.549   0.158   4.309  0.6265 -0.0423 -2.0606
   94MOL0     H12347  10.461  -0.104   4.172  0.1982 -0.9772  1.1135
   94MOL0     H12348  10.576  -0.109   4.290 -1.3731  0.5352  0.9171
   94MOL0     H12349  10.629   0.056   4.023  0.5053  0.8883 -0.4968
   94MOL0     H12350  10.675  -0.113   4.040  2.6216  0.0767  0.3633
   94MOL0     H12351  10.859   0.078   4.104  1.3771 -3.8785 -0.4985
   94MOL0     H12352  10.757   0.094   4.254 -1.3115 -3.0736  1.6433
   94MOL0     H12353  10.904  -0.141   4.129 -0.6124  1.3053 -0.0744
   94MOL0     H12354  10.796  -0.157   4.272 -2.2317  1.9185 -1.2518
   94MOL0     H12355  10.947   0.035   4.381 -3.6690 -2.4135 -0.1987
   94MOL0     H12356  11.060  -0.009   4.245 -0.3026 -0.2379 -1.1197
   94MOL0     H12357  11.038  -0.237   4.347 -1.2034  0.0530 -0.3305
   94MOL0     H12358  11.136  -0.119   4.439 -0.6050  1.2472  2.0829
   94MOL0     H12359  10.946  -0.280   4.549 -0.5072 -0.5944 -2.4402
   94MOL0     H12360  10.845  -0.142   4.527  0.3754 -1.0825 -0.1463
   94MOL0     H12361  11.149  -0.248   4.727 -3.5580 -2.0938  1.0256
   94MOL0     H12362  11.387   0.004   4.771  1.9630 -1.7911  0.9619
   94MOL0     H12363  11.329  -0.119   4.878  1.5395  0.2275 -0.2000
   94MOL0     H12364  11.276   0.036   5.049  1.1727  0.1897  0.2056
   94MOL0     H12365  11.228   0.160   4.942 -2.3746 -1.5072 -1.8660
   94MOL0     H12366  11.489   0.114   5.062  0.2899  0.8958  0.6523
   94MOL0     H12367  11.506   0.103   4.891 -2.1591  1.0086 -2.4968
   94MOL0     H12368  11.441   0.346   4.859  0.4483  1.3667  1.1910
   94MOL0     H12369  11.567   0.304   4.988 -0.4052 -2.1787  1.5938
   94MOL0     H12370  11.221   0.476   5.229  0.5587 -2.5067 -0.5749
   94MOL0     H12371  11.062   0.645   5.195 -0.0538 -1.0569  1.1927
   94MOL0     H12372  10.807   0.859   5.295 -0.3251 -0.7440 -1.2072
   94MOL0     H12373  10.714   1.072   5.369 -0.7256  2.1521 -0.0372
   94MOL0     H12374  10.586   1.326   5.033  2.7581 -2.4964 -0.1030
   94MOL0     H12375  10.716   1.433   5.082  1.9030  0.2294  1.9567
   94MOL0     H12376  10.586   1.513   5.268 -1.4885 -2.3949  3.0549
   94MOL0     H12377  10.453   1.396   5.232  2.7986 -3.7839  0.5509
   94MOL0     H12378  10.401   1.514   5.015  0.2189  1.4221 -1.4238
   94MOL0     H12379  10.548   1.615   5.034  0.4569 -0.7179  0.7065
   94MOL0     H12380  10.298   1.629   5.208  0.4833 -3.2102  0.2898
   94MOL0     H12381  10.440   1.720   5.233 -3.0492 -0.7296  2.5723
   94MOL0     H12382  10.250   1.743   5.014  0.6131  0.6183 -0.3529
   94MOL0     H12383  10.409   1.818   4.999  1.0321  1.1098 -0.2167
   94MOL0     H12384  10.376   1.918   5.234 -0.3073 -2.7308 -0.2722
   94MOL0     H12385  10.212   1.845   5.241 -1.1533  0.3652 -0.9827
   94MOL0     H12386  10.302   2.056   5.045  0.3736 -0.5076  1.0629
   94MOL0     H12387  10.149   1.980   5.029  0.3199  1.0531 -0.5787
   94MOL0     H12388  10.221   2.151   5.259  0.4116  0.4335  0.7332
   94MOL0     H12389  10.072   2.051   5.252 -2.4989  2.2526 -1.8842
   94MOL0     H12390  10.766   1.210   4.947  1.2773 -0.2507 -1.0696
   94MOL0     H12391  10.848   1.001   4.899 -0.2537 -1.1595 -0.4407
   94MOL0     H12392  11.139   0.629   4.772  3.5513  1.4369  0.8459
   94MOL0     H12393  11.271   0.419   4.802 -0.0106  2.1798 -2.1752
   94MOL0     H12394  10.212  -0.003   4.240 -0.8044  1.0426 -0.8466
   94MOL0     H12395   9.975   0.073   4.256  0.8453 -0.1741  1.5956
   94MOL0     H12396   9.731   0.479   4.061  0.1716  0.6437  0.9120
   94MOL0     H12397   9.524   0.615   4.040 -0.7847 -0.7342 -0.7097
   94MOL0     H12398   9.326   0.698   3.989 -3.7046  1.1317 -1.6467
   94MOL0     H12399   9.368   0.754   4.159  1.2350 -1.3728  0.3176
   94MOL0     H12400   9.093   0.670   4.098 -0.3569  0.3436  0.2167
   94MOL0     H12401   9.149   0.780   4.219  0.0715  0.7735  0.1485
   94MOL0     H12402   9.135   0.858   3.924  1.7138  2.4977  0.2575
   94MOL0     H12403   9.208   0.952   4.055  0.5683  0.8354  0.7138
   94MOL0     H12404   8.986   0.984   4.136  1.2382 -1.1442  0.6897
   94MOL0     H12405   8.992   1.003   3.949 -0.4796  1.1397  0.3236
   94MOL0     H12406   8.751   0.673   3.976  0.9586 -1.5363  0.7420
   94MOL0     H12407   9.321   0.378   4.315 -0.8192  2.7999 -0.2877
   94MOL0     H12408   9.522   0.210   4.326 -1.7973  0.2158  0.5418
   95MOL0     O12409   0.135   1.659   5.491 -0.0593 -0.6233  0.2169
   95MOL0     C12410   0.235   1.665   5.416  0.2406  0.0026 -0.2709
   95MOL0     O12411   0.231   1.662   5.284 -0.1804 -1.1971  0.5467
   95MOL0     C12412   0.116   1.612   5.226 -0.7134  0.6477 -0.5955
   95MOL0     C12413   0.100   1.473   5.205 -0.7634  0.8362  0.8891
   95MOL0     C12414   0.004   1.419   5.125  0.4398 -0.3092  0.0598
   95MOL0     C12415  -0.095   1.504   5.066  1.0959 -0.2284  0.2926
   95MOL0     O12416  -0.189   1.449   4.979  1.0654 -0.0747 -0.5642
   95MOL0     C12417  -0.213   1.310   4.958  1.0489 -0.3605 -0.5374
   95MOL0     C12418  -0.323   1.303   4.851 -0.9140 -0.3740  0.5695
   95MOL0     C12419  -0.269   1.314   4.713  0.3925  0.2597 -0.3672
   95MOL0     C12420  -0.351   1.227   4.624 -0.0190 -0.7464  0.1238
   95MOL0     C12421  -0.295   1.215   4.483  1.2299  0.0907 -0.7253
   95MOL0     C12422  -0.246   1.337   4.419  0.2665 -0.9743 -0.0244
   95MOL0     C12423  -0.231   1.331   4.272 -0.4146 -0.3391  0.4574
   95MOL0     C12424  -0.148   1.451   4.214  0.2373  0.2808 -0.0964
   95MOL0     N12425  -0.009   1.445   4.255  0.0295 -0.0536  0.2154
   95MOL0     C12426   0.058   1.517   4.339  0.1380  0.0571  0.3149
   95MOL0     C12427   0.190   1.495   4.319  0.8032 -0.1443 -0.4166
   95MOL0     C12428   0.302   1.562   4.387  0.2195  0.6244 -0.0295
   95MOL0     C12429   0.402   1.469   4.459  0.1094 -0.2758 -0.9303
   95MOL0     C12430   0.497   1.410   4.364  0.0038  0.5336  0.0474
   95MOL0     C12431   0.578   1.286   4.414  0.3732 -0.0296  0.9995
   95MOL0     O12432   0.662   1.320   4.525  0.0645 -0.4476  0.9459
   95MOL0     C12433   0.782   1.258   4.529  0.1328 -0.2400 -0.2846
   95MOL0     C12434   0.890   1.330   4.591  0.1650 -0.8431 -0.2142
   95MOL0     C12435   1.017   1.266   4.599 -0.2363 -0.0359 -0.5317
   95MOL0     C12436   1.040   1.134   4.558  0.0491  0.1071 -0.7745
   95MOL0     C12437   1.168   1.059   4.562  0.6124 -0.1519  0.0465
   95MOL0     O12438   1.261   1.113   4.642 -0.4245  0.4587  0.1114
   95MOL0     C12439   1.370   1.041   4.690 -0.0289 -0.5635  0.7796
   95MOL0     C12440   1.439   0.935   4.627  0.2305  0.2543  0.4546
   95MOL0     C12441   1.563   0.888   4.673 -0.6257  0.7142 -0.0732
   95MOL0     C12442   1.607   0.927   4.797  0.7955 -0.8234  0.4839
   95MOL0     O12443   1.732   0.881   4.845  0.4819 -0.0906  0.3336
   95MOL0     C12444   1.807   0.969   4.937  0.4592 -0.1956  0.3382
   95MOL0     C12445   1.934   0.902   4.975 -0.3001 -0.3491 -0.2128
   95MOL0     C12446   2.029   1.015   5.044  0.5103  0.3305  0.2499
   95MOL0     C12447   2.168   0.958   5.072  1.1125 -0.1704 -0.4773
   95MOL0     C12448   2.248   1.043   5.167 -0.4882 -0.0406  0.9128
   95MOL0     C12449   2.402   1.023   5.145  0.8063 -0.5360  0.3293
   95MOL0     C12450   2.445   0.873   5.171  0.0707 -0.5832  0.0793
   95MOL0     C12451   2.445   0.823   5.306 -0.5300  1.4147 -0.2734
   95MOL0    Cl12452   2.368   0.655   5.326  0.0520  0.1083 -0.2276
   95MOL0     C12453   1.537   1.027   4.873  1.6807  0.5445 -0.8813
   95MOL0     C12454   1.419   1.089   4.820  0.2221  0.2797  0.6070
   95MOL0     O12455   1.175   0.953   4.507  0.0731 -0.7895  0.3679
   95MOL0     C12456   0.922   1.066   4.509 -0.4852  0.4439 -0.0519
   95MOL0     C12457   0.800   1.126   4.496 -1.4688 -0.4323 -0.5150
   95MOL0     N12458   0.198   1.400   4.218  0.8011 -0.9567  0.0889
   95MOL0     N12459   0.074   1.381   4.179 -0.5984 -0.1054  0.0127
   95MOL0     C12460  -0.099   1.641   5.099  0.4088  0.2317 -0.4241
   95MOL0     C12461   0.019   1.689   5.162  0.5682 -0.6569  0.1684
   95MOL0     C12462   0.351   1.698   5.494  0.2888 -0.5104  0.9126
   95MOL0     C12463   0.349   1.703   5.636  0.2932 -1.3693 -0.8174
   95MOL0     C12464   0.472   1.733   5.698 -0.2098 -0.2282 -0.3024
   95MOL0     C12465   0.599   1.755   5.636  0.1391 -0.2623 -0.4050
   95MOL0     O12466   0.712   1.761   5.713 -0.0755 -0.3791  0.6117
   95MOL0     C12467   0.719   1.838   5.827  0.6540 -0.0309  0.4996
   95MOL0     C12468   0.866   1.850   5.883  0.4479 -0.7043  0.7946
   95MOL0     C12469   0.950   1.927   5.779 -0.0482 -0.2259  0.1651
   95MOL0     C12470   0.959   2.076   5.827  0.3221 -0.0941  0.3585
   95MOL0     C12471   0.835   2.151   5.809 -0.2836 -0.1741  0.1468
   95MOL0     C12472   0.729   2.206   5.803 -0.0341  0.4132  0.5839
   95MOL0     C12473   0.598   1.747   5.493  0.1250  0.0333  0.1198
   95MOL0     C12474   0.474   1.728   5.429 -0.6100  0.8509  0.3438
   95MOL0     H12475   0.171   1.408   5.254  2.0233  2.6867 -0.4146
   95MOL0     H12476   0.017   1.312   5.113  2.8856  0.0946 -1.6481
   95MOL0     H12477  -0.267   1.274   5.046  3.1401 -0.2738  0.8458
   95MOL0     H12478  -0.130   1.244   4.930 -0.3813 -1.5928 -2.0906
   95MOL0     H12479  -0.400   1.375   4.881 -1.9870  1.1239 -4.7211
   95MOL0     H12480  -0.365   1.203   4.861  2.5389 -1.7732  2.3474
   95MOL0     H12481  -0.164   1.282   4.707 -0.3587 -3.2591  2.1389
   95MOL0     H12482  -0.266   1.417   4.677  1.0003  0.2136 -0.4751
   95MOL0     H12483  -0.354   1.126   4.665 -0.9017  0.2591  2.7500
   95MOL0     H12484  -0.453   1.266   4.622  0.1091 -0.4284 -1.2621
   95MOL0     H12485  -0.377   1.181   4.420  3.3106 -0.0117 -3.5813
   95MOL0     H12486  -0.212   1.145   4.470  2.9133  2.3363 -3.3864
   95MOL0     H12487  -0.157   1.377   4.469  0.4814 -2.1027  0.5178
   95MOL0     H12488  -0.326   1.409   4.443  0.3414 -1.7184  2.8385
   95MOL0     H12489  -0.178   1.238   4.252 -0.4285 -0.6132  1.6395
   95MOL0     H12490  -0.327   1.323   4.220  1.4139 -2.7724 -2.9994
   95MOL0     H12491  -0.182   1.553   4.234  4.5012  1.7953  0.2921
   95MOL0     H12492  -0.148   1.449   4.105 -0.3283  0.1465 -0.0979
   95MOL0     H12493   0.012   1.579   4.416  2.5749  0.9565  1.1347
   95MOL0     H12494   0.262   1.632   4.461 -2.2303 -0.1289 -0.5693
   95MOL0     H12495   0.361   1.627   4.320  1.7492 -0.5209  0.1377
   95MOL0     H12496   0.347   1.390   4.511  0.4587 -0.3562 -0.6822
   95MOL0     H12497   0.465   1.530   4.524  0.9191  2.3346 -3.9543
   95MOL0     H12498   0.444   1.375   4.276 -1.2149  0.9873  0.5802
   95MOL0     H12499   0.561   1.489   4.323 -0.4848  0.1793 -1.4608
   95MOL0     H12500   0.628   1.252   4.323 -1.9472 -0.6769 -0.1145
   95MOL0     H12501   0.513   1.201   4.440  2.6573 -1.9685  0.6798
   95MOL0     H12502   0.880   1.434   4.622 -0.8811 -0.9859 -0.0373
   95MOL0     H12503   1.100   1.320   4.645  0.4956 -1.6240  0.0697
   95MOL0     H12504   1.396   0.901   4.533  0.3382  0.2318  0.4131
   95MOL0     H12505   1.613   0.806   4.623  1.8114  0.9648  1.7842
   95MOL0     H12506   1.760   0.982   5.034  0.2535  0.4877  0.1584
   95MOL0     H12507   1.810   1.069   4.891 -3.7949 -0.4033 -0.7976
   95MOL0     H12508   1.979   0.849   4.890  2.5375  2.0916 -0.3764
   95MOL0     H12509   1.912   0.833   5.057  0.7555 -0.2911  0.1391
   95MOL0     H12510   1.977   1.040   5.137  0.4589  1.1662  0.0053
   95MOL0     H12511   2.030   1.098   4.972  0.8813 -1.1119 -1.4641
   95MOL0     H12512   2.143   0.870   5.132 -1.3725  2.6788  3.1380
   95MOL0     H12513   2.222   0.943   4.978  1.4684  1.7807 -0.6270
   95MOL0     H12514   2.221   1.016   5.270  1.0998 -0.3739  1.2718
   95MOL0     H12515   2.222   1.148   5.153 -2.8883 -0.1921  3.4713
   95MOL0     H12516   2.460   1.084   5.215  1.2626 -1.1678  0.5028
   95MOL0     H12517   2.430   1.044   5.041 -1.7829  1.3363 -0.0953
   95MOL0     H12518   2.402   0.800   5.102 -1.7407  1.2497 -0.8147
   95MOL0     H12519   2.549   0.879   5.138  0.0547  1.9222  0.3190
   95MOL0     H12520   2.386   0.886   5.373 -2.5765  0.1867 -0.8447
   95MOL0     H12521   2.545   0.818   5.352 -1.4936 -1.2420  1.7763
   95MOL0     H12522   1.570   1.055   4.972  4.3500 -0.3365 -1.4364
   95MOL0     H12523   1.372   1.161   4.886 -0.1514  0.0990  0.5375
   95MOL0     H12524   0.930   0.958   4.495 -0.5723 -0.1867  3.7896
   95MOL0     H12525   0.715   1.059   4.488 -0.1028 -3.0208  3.4853
   95MOL0     H12526  -0.175   1.710   5.064 -1.3854 -1.4092  0.0220
   95MOL0     H12527   0.030   1.797   5.174  1.3120 -0.7520  0.4076
   95MOL0     H12528   0.258   1.689   5.693 -0.4322 -0.9825 -1.8516
   95MOL0     H12529   0.466   1.725   5.806  0.5002 -0.3768 -0.2669
   95MOL0     H12530   0.668   1.786   5.909 -0.6854  1.2364  0.5149
   95MOL0     H12531   0.664   1.931   5.807 -3.0835 -2.7708 -3.9612
   95MOL0     H12532   0.865   1.900   5.980  1.0740  1.2418 -0.1560
   95MOL0     H12533   0.894   1.746   5.905 -0.1483 -0.8005  1.1126
   95MOL0     H12534   0.917   1.917   5.675 -0.0532  0.5665  0.0861
   95MOL0     H12535   1.051   1.886   5.781  0.0022 -0.0632  1.3964
   95MOL0     H12536   0.996   2.093   5.928 -0.8209  0.6248  0.6745
   95MOL0     H12537   1.022   2.138   5.762  0.0574 -0.8473 -0.6453
   95MOL0     H12538   0.629   2.245   5.799 -1.1532 -2.2960  0.6292
   95MOL0     H12539   0.690   1.765   5.439  0.3050  0.6710  0.6238
   95MOL0     H12540   0.474   1.732   5.320 -1.7570 -2.8297  0.0687
   96MOL0     O12541   7.092   2.796   9.553  0.4571  0.2039 -0.8010
   96MOL0     C12542   7.116   2.695   9.491 -0.2857  0.2678  0.1247
   96MOL0     O12543   7.021   2.598   9.462  0.5241  0.6933  0.1096
   96MOL0     C12544   6.890   2.634   9.497 -0.6643  0.2664  0.7629
   96MOL0     C12545   6.832   2.588   9.614 -0.0245 -0.3051  0.1085
   96MOL0     C12546   6.701   2.621   9.636  0.4096  0.2542  0.0535
   96MOL0     C12547   6.620   2.681   9.539 -0.7722  0.0586  0.0139
   96MOL0     O12548   6.490   2.708   9.567  0.5659 -0.5153 -0.5780
   96MOL0     C12549   6.400   2.725   9.462 -0.1544  0.8549  0.7118
   96MOL0     C12550   6.259   2.715   9.505  0.0407  0.1213  0.8179
   96MOL0     C12551   6.168   2.753   9.391  0.0208 -0.1568  0.5100
   96MOL0     C12552   6.030   2.753   9.451  0.4597  0.0388 -1.1349
   96MOL0     C12553   5.909   2.761   9.356 -0.5379  0.3567 -0.3432
   96MOL0     C12554   5.853   2.633   9.286  0.3775  0.3716  0.0648
   96MOL0     C12555   5.715   2.656   9.211 -0.5675 -0.5887 -0.1484
   96MOL0     C12556   5.597   2.672   9.316 -0.3004 -0.5592 -0.0218
   96MOL0     N12557   5.474   2.642   9.261 -0.2890  0.5119  0.7940
   96MOL0     C12558   5.391   2.552   9.323 -0.2514  1.1604 -0.0994
   96MOL0     C12559   5.276   2.537   9.247 -0.2353 -0.5916  0.2754
   96MOL0     C12560   5.152   2.451   9.283 -0.4638  0.2048 -0.3566
   96MOL0     C12561   5.016   2.491   9.222  0.7670  0.0398  0.2420
   96MOL0     C12562   4.993   2.428   9.080 -0.0542 -0.7273  0.1409
   96MOL0     C12563   4.853   2.413   9.024 -0.6845  0.2560  0.2184
   96MOL0     O12564   4.771   2.525   9.028  0.4794 -1.1704 -0.1455
   96MOL0     C12565   4.641   2.505   8.980 -0.5231  0.9997 -0.5393
   96MOL0     C12566   4.599   2.568   8.869  0.5929 -0.5505  0.8656
   96MOL0     C12567   4.471   2.545   8.807 -0.0091 -0.6471 -0.7035
   96MOL0     C12568   4.378   2.469   8.875  0.6842 -0.4177 -0.1726
   96MOL0     C12569   4.244   2.435   8.819  0.4716 -0.0226 -0.4312
   96MOL0     O12570   4.147   2.405   8.916  0.4454 -0.4002 -0.7513
   96MOL0     C12571   4.020   2.374   8.883  0.1762  0.5279 -0.7603
   96MOL0     C12572   3.944   2.306   8.980  1.3430  0.5396 -0.2323
   96MOL0     C12573   3.816   2.260   8.954  0.6065  0.1721  0.1516
   96MOL0     C12574   3.759   2.273   8.830  0.8921 -0.5097 -0.9047
   96MOL0     O12575   3.641   2.209   8.811 -0.4709 -0.1208  1.4061
   96MOL0     C12576   3.605   2.160   8.672  0.0174 -0.2986  0.1603
   96MOL0     C12577   3.529   2.268   8.585  0.4407 -0.1361  0.2101
   96MOL0     C12578   3.402   2.326   8.648  0.1012 -0.0190  0.6652
   96MOL0     C12579   3.316   2.408   8.548  0.5591 -0.0174 -0.2085
   96MOL0     C12580   3.186   2.458   8.605 -0.0217 -0.1478  0.0353
   96MOL0     C12581   3.131   2.571   8.517  0.5070 -0.5708 -0.0426
   96MOL0     C12582   3.006   2.630   8.586  0.3301  0.6154 -0.1196
   96MOL0     C12583   2.936   2.739   8.496 -0.0369 -0.8845  0.2016
   96MOL0    Cl12584   2.834   2.667   8.374  0.2334  0.3309 -0.5412
   96MOL0     C12585   3.815   2.361   8.745 -0.5025  0.2252 -0.5730
   96MOL0     C12586   3.946   2.406   8.763  0.9108 -0.2390  0.4943
   96MOL0     O12587   4.228   2.440   8.699  0.4156 -0.1220 -0.5150
   96MOL0     C12588   4.423   2.413   8.998  0.0043  0.6129 -0.3177
   96MOL0     C12589   4.551   2.422   9.050 -0.9572 -0.5315 -0.2188
   96MOL0     N12590   5.289   2.637   9.150 -0.9531 -0.1601  0.0067
   96MOL0     N12591   5.408   2.695   9.159  0.2598  0.4883  0.2176
   96MOL0     C12592   6.687   2.745   9.428  0.4486  0.1458 -0.6410
   96MOL0     C12593   6.824   2.722   9.418  0.5309 -0.3937  0.7027
   96MOL0     C12594   7.260   2.662   9.441  0.9585  0.4617 -0.2758
   96MOL0     C12595   7.366   2.752   9.464 -0.5273  0.6581  1.0063
   96MOL0     C12596   7.498   2.722   9.441  0.6709  0.0251 -0.1455
   96MOL0     C12597   7.526   2.607   9.363 -0.2401  0.4889  0.3888
   96MOL0     O12598   7.651   2.590   9.315  0.0931 -0.6977  0.0560
   96MOL0     C12599   7.701   2.458   9.293 -0.0891 -1.2637  0.1866
   96MOL0     C12600   7.846   2.458   9.272 -0.1445  0.7207  0.1854
   96MOL0     C12601   7.918   2.516   9.391 -0.2711 -0.5340  1.0870
   96MOL0     C12602   8.064   2.506   9.372  0.1799  0.1336  0.1354
   96MOL0     C12603   8.139   2.554   9.490  0.2655  0.0223 -0.4360
   96MOL0     C12604   8.202   2.604   9.576 -0.3799 -0.0823  0.6569
   96MOL0     C12605   7.427   2.517   9.327  0.6268  0.5783 -0.6216
   96MOL0     C12606   7.290   2.531   9.384 -0.1253 -0.0239  0.4312
   96MOL0     H12607   6.895   2.527   9.679 -0.6944 -0.9488  0.1650
   96MOL0     H12608   6.658   2.571   9.722 -0.5225 -1.8107 -1.5086
   96MOL0     H12609   6.425   2.665   9.375  1.1712  0.1963  1.5196
   96MOL0     H12610   6.411   2.828   9.427  1.2385  0.2055 -0.8681
   96MOL0     H12611   6.242   2.780   9.592 -0.0126 -1.1781  1.8096
   96MOL0     H12612   6.253   2.611   9.540 -0.8904 -1.2990 -3.0881
   96MOL0     H12613   6.162   2.685   9.305 -2.1321 -0.3479  0.7497
   96MOL0     H12614   6.191   2.853   9.353  0.4729 -0.7915 -0.9728
   96MOL0     H12615   6.007   2.668   9.514  0.4191 -1.0929 -2.6156
   96MOL0     H12616   6.029   2.841   9.516 -4.1407  0.7592 -1.8439
   96MOL0     H12617   5.935   2.835   9.281  2.0381  0.0179  0.1077
   96MOL0     H12618   5.826   2.802   9.414  0.2932  0.5260  0.7761
   96MOL0     H12619   5.848   2.552   9.359  0.6979  2.5437  2.6348
   96MOL0     H12620   5.928   2.607   9.211 -0.1548  0.0003 -0.3448
   96MOL0     H12621   5.723   2.748   9.152  0.8769  0.7463  1.9953
   96MOL0     H12622   5.697   2.566   9.152  0.1930 -0.6979 -0.2157
   96MOL0     H12623   5.595   2.775   9.352 -1.1357 -1.0491  1.4096
   96MOL0     H12624   5.616   2.610   9.405  0.8130  0.9250  0.8181
   96MOL0     H12625   5.404   2.517   9.424  0.2335  2.2919  0.2450
   96MOL0     H12626   5.151   2.469   9.391  0.1193 -0.5052 -0.2209
   96MOL0     H12627   5.178   2.345   9.271 -0.4135  0.0429  1.0289
   96MOL0     H12628   5.019   2.600   9.212  0.4975 -0.0116 -0.4933
   96MOL0     H12629   4.926   2.465   9.280  1.1992  1.1939  1.4723
   96MOL0     H12630   5.037   2.500   9.009 -2.1732  1.4964  0.9434
   96MOL0     H12631   5.045   2.333   9.069  2.5043  0.7468 -1.6891
   96MOL0     H12632   4.815   2.327   9.080 -2.3676 -0.6889 -2.2335
   96MOL0     H12633   4.849   2.385   8.918 -1.8609 -0.0236  0.3259
   96MOL0     H12634   4.676   2.625   8.817  0.9614 -1.6035  0.2216
   96MOL0     H12635   4.444   2.600   8.718 -1.9612 -3.0103 -1.6911
   96MOL0     H12636   3.983   2.289   9.079 -3.1717  0.1485  1.6989
   96MOL0     H12637   3.753   2.207   9.024 -0.0358 -0.1500 -0.6525
   96MOL0     H12638   3.538   2.074   8.675 -0.3699 -0.0665 -1.1302
   96MOL0     H12639   3.693   2.143   8.610  0.6090  1.3763  0.4747
   96MOL0     H12640   3.510   2.217   8.490 -1.3323  2.4261 -0.9269
   96MOL0     H12641   3.594   2.353   8.566 -0.1786  1.0439  2.8456
   96MOL0     H12642   3.421   2.383   8.739 -0.8482 -0.7163  1.3139
   96MOL0     H12643   3.339   2.248   8.691  1.2004  0.1437  2.6848
   96MOL0     H12644   3.371   2.495   8.512 -1.7392  0.7885 -2.0111
   96MOL0     H12645   3.301   2.345   8.460  1.2548  0.1335 -0.4478
   96MOL0     H12646   3.201   2.497   8.706 -2.9368 -0.7536  0.7850
   96MOL0     H12647   3.115   2.375   8.609 -4.3012  3.0567 -1.8529
   96MOL0     H12648   3.106   2.544   8.414  0.8747  3.5232 -1.4044
   96MOL0     H12649   3.201   2.655   8.518 -1.4338  1.2100 -2.3170
   96MOL0     H12650   2.935   2.550   8.606  0.6261 -0.1747 -2.0557
   96MOL0     H12651   3.048   2.666   8.681  0.2359 -0.3729  0.3067
   96MOL0     H12652   3.006   2.806   8.445 -0.4329 -1.3643 -1.0141
   96MOL0     H12653   2.878   2.808   8.558  0.4279 -0.3847  0.0866
   96MOL0     H12654   3.768   2.383   8.649  1.0207 -0.2918 -1.4734
   96MOL0     H12655   3.990   2.465   8.684  0.8378 -1.3193 -0.3775
   96MOL0     H12656   4.353   2.362   9.063  0.7090 -0.6074 -0.4863
   96MOL0     H12657   4.580   2.384   9.147 -2.6333  1.9992  1.3925
   96MOL0     H12658   6.627   2.792   9.351  0.5315 -2.1711 -2.2418
   96MOL0     H12659   6.880   2.765   9.335 -0.7802  0.1462  0.0759
   96MOL0     H12660   7.339   2.846   9.511  0.2136  1.3734  0.0417
   96MOL0     H12661   7.562   2.803   9.474 -0.7582  0.8094  0.8156
   96MOL0     H12662   7.643   2.424   9.206 -2.6469  0.4659  1.0860
   96MOL0     H12663   7.683   2.394   9.380 -1.2240 -2.0435 -0.5768
   96MOL0     H12664   7.875   2.355   9.252 -0.4603  1.0396 -2.2544
   96MOL0     H12665   7.868   2.516   9.182  0.8940  0.9471  0.5667
   96MOL0     H12666   7.893   2.462   9.483 -1.0828 -2.3275 -0.1428
   96MOL0     H12667   7.877   2.616   9.404  0.7906 -0.1658  1.7480
   96MOL0     H12668   8.072   2.397   9.360 -1.6890 -0.3333  2.3137
   96MOL0     H12669   8.096   2.550   9.277 -3.4020 -0.2632 -1.4067
   96MOL0     H12670   8.258   2.658   9.650  0.7387 -0.3071 -0.0102
   96MOL0     H12671   7.448   2.433   9.261 -1.8255  0.3715 -1.2329
   96MOL0     H12672   7.221   2.450   9.362 -0.4967  0.8298 -1.7447
   97MOL0     O12673  11.218   6.861   8.554  0.0016 -0.0631  0.3544
   97MOL0     C12674  11.296   6.779   8.612  0.4170  0.0659  0.3635
   97MOL0     O12675  11.261   6.671   8.686  0.1596 -0.0828  0.4909
   97MOL0     C12676  11.135   6.616   8.681  0.8210  0.4559 -0.2752
   97MOL0     C12677  11.014   6.680   8.697  0.0102  0.1639  0.4889
   97MOL0     C12678  10.892   6.617   8.693 -0.2622 -0.3656 -0.4354
   97MOL0     C12679  10.892   6.476   8.686 -0.1465  0.2444  0.7153
   97MOL0     O12680  10.780   6.406   8.674  0.2401  0.4364 -0.2020
   97MOL0     C12681  10.655   6.458   8.724 -0.7275  0.1013 -0.5639
   97MOL0     C12682  10.577   6.337   8.781 -0.2943 -0.1803  0.2151
   97MOL0     C12683  10.437   6.393   8.793 -0.0780 -0.5277 -0.1617
   97MOL0     C12684  10.332   6.294   8.836 -1.1945 -0.1024 -0.7205
   97MOL0     C12685  10.185   6.333   8.873  0.3800 -0.0166  0.7223
   97MOL0     C12686  10.120   6.404   8.750  0.5448  0.1283  0.6424
   97MOL0     C12687   9.969   6.437   8.773 -1.1231 -0.1872  0.6755
   97MOL0     C12688   9.928   6.544   8.672 -0.2594 -0.8595 -0.7377
   97MOL0     N12689   9.780   6.554   8.659  0.2818 -0.3314  0.5005
   97MOL0     C12690   9.702   6.459   8.588 -0.0584  0.1284 -0.5474
   97MOL0     C12691   9.581   6.474   8.643 -0.8996 -0.3934  0.1357
   97MOL0     C12692   9.461   6.403   8.587 -1.0168  0.5847  0.7175
   97MOL0     C12693   9.325   6.474   8.577 -0.2608 -0.5436  0.0479
   97MOL0     C12694   9.209   6.374   8.613 -0.7896  1.1322 -0.0570
   97MOL0     C12695   9.076   6.448   8.564  0.7954  0.1285 -0.5646
   97MOL0     O12696   9.062   6.569   8.631  0.4798 -0.1162 -0.7562
   97MOL0     C12697   8.945   6.638   8.628  0.4278  0.4189 -0.6489
   97MOL0     C12698   8.820   6.579   8.593 -0.0627  0.3359 -0.1558
   97MOL0     C12699   8.708   6.672   8.584  0.3919  0.3615  0.4828
   97MOL0     C12700   8.710   6.802   8.631 -0.4308  0.3501  1.4033
   97MOL0     C12701   8.586   6.885   8.630 -0.2496  0.5715  1.2514
   97MOL0     O12702   8.468   6.819   8.611  0.0519 -0.4725 -0.0572
   97MOL0     C12703   8.348   6.888   8.598 -0.1465 -0.4567 -0.8878
   97MOL0     C12704   8.240   6.836   8.660  0.9085 -0.5839 -0.3011
   97MOL0     C12705   8.110   6.880   8.644  0.1385  0.0807 -0.7216
   97MOL0     C12706   8.085   6.989   8.566  0.5377  0.0761 -0.4259
   97MOL0     O12707   7.961   7.051   8.556 -0.1471  0.2563 -0.5323
   97MOL0     C12708   7.855   7.003   8.644 -0.0354 -0.7677 -0.3840
   97MOL0     C12709   7.729   7.074   8.615 -0.3431 -0.0397  0.0842
   97MOL0     C12710   7.693   7.198   8.682  0.0390  0.2422  0.6633
   97MOL0     C12711   7.583   7.269   8.608 -0.9475 -0.2219 -0.4264
   97MOL0     C12712   7.465   7.181   8.559 -0.0397 -0.2976 -0.2042
   97MOL0     C12713   7.476   7.130   8.407 -0.6863 -0.6272  0.0340
   97MOL0     C12714   7.344   7.096   8.342  0.7893  0.0560 -0.8428
   97MOL0     C12715   7.296   6.951   8.379 -0.3477 -0.2634 -0.3122
   97MOL0    Cl12716   7.184   6.943   8.517 -0.3893 -0.5149  0.3930
   97MOL0     C12717   8.183   7.048   8.503 -0.3231  0.3584 -0.4952
   97MOL0     C12718   8.315   7.002   8.519 -0.6551  0.4392 -0.0012
   97MOL0     O12719   8.606   7.006   8.616  0.8868 -0.2478  0.3154
   97MOL0     C12720   8.838   6.843   8.674 -0.2581 -0.8678  0.1671
   97MOL0     C12721   8.952   6.773   8.670  0.9784  1.3001  0.0807
   97MOL0     N12722   9.588   6.573   8.736  0.1830 -0.3434  0.6848
   97MOL0     N12723   9.708   6.619   8.748 -0.2722 -0.0068 -0.6191
   97MOL0     C12724  11.009   6.409   8.662 -0.4668  0.6016 -0.0722
   97MOL0     C12725  11.131   6.483   8.675 -0.1365  0.4991  0.9352
   97MOL0     C12726  11.434   6.816   8.604 -0.1926  0.2203 -1.3997
   97MOL0     C12727  11.532   6.731   8.653 -0.7583  0.2846  0.2127
   97MOL0     C12728  11.665   6.763   8.642 -0.2300 -0.3773  0.4041
   97MOL0     C12729  11.705   6.888   8.579 -0.4976  0.3061 -0.5956
   97MOL0     O12730  11.839   6.916   8.584  0.6899  0.0387  0.0279
   97MOL0     C12731  11.880   7.046   8.550 -0.3582 -0.1159 -0.2601
   97MOL0     C12732  12.038   7.041   8.547  0.3087  0.1332 -1.0005
   97MOL0     C12733  12.107   7.176   8.537 -0.5384  0.0116  0.0641
   97MOL0     C12734  12.117   7.239   8.401 -1.6367 -0.0795  0.0759
   97MOL0     C12735  11.991   7.291   8.344  0.0981  0.1715 -0.0739
   97MOL0     C12736  11.883   7.335   8.325  0.7856  0.8008 -0.2789
   97MOL0     C12737  11.605   6.967   8.521  0.2287 -0.4331 -0.4236
   97MOL0     C12738  11.472   6.925   8.535  0.2620 -0.0063 -0.1791
   97MOL0     H12739  11.008   6.788   8.707 -3.1579  0.0456  0.7498
   97MOL0     H12740  10.806   6.682   8.692 -0.0308  0.2222 -5.0591
   97MOL0     H12741  10.603   6.492   8.634 -0.3911 -0.5727 -1.0193
   97MOL0     H12742  10.656   6.545   8.791  2.0446  1.4385 -2.1616
   97MOL0     H12743  10.625   6.304   8.874 -0.0667 -1.6424 -0.3965
   97MOL0     H12744  10.568   6.253   8.712 -1.0083 -1.5533  1.8986
   97MOL0     H12745  10.406   6.438   8.698  2.4072  1.3018 -0.2043
   97MOL0     H12746  10.443   6.477   8.862 -2.8495 -0.5763  0.2493
   97MOL0     H12747  10.334   6.218   8.756  0.8905  0.1817 -1.0089
   97MOL0     H12748  10.370   6.242   8.924  2.5996 -0.6297 -2.4605
   97MOL0     H12749  10.180   6.406   8.955 -0.3376 -3.0969  3.6477
   97MOL0     H12750  10.133   6.239   8.895 -0.0916  0.0882  0.0865
   97MOL0     H12751  10.122   6.352   8.654 -1.0609  0.5281  0.3759
   97MOL0     H12752  10.173   6.500   8.740 -2.3332  1.7887  0.2480
   97MOL0     H12753   9.925   6.338   8.762  1.7634 -1.6834  1.4429
   97MOL0     H12754   9.943   6.463   8.876  0.2912 -1.0632  1.2964
   97MOL0     H12755   9.970   6.535   8.572 -1.0788 -0.5647 -1.1170
   97MOL0     H12756   9.963   6.638   8.716 -0.4846  0.2189 -2.7680
   97MOL0     H12757   9.736   6.394   8.508  0.1512  0.0741 -0.4163
   97MOL0     H12758   9.464   6.301   8.628  4.4879 -0.7799 -2.0276
   97MOL0     H12759   9.483   6.376   8.484  0.6864  1.9796  0.6686
   97MOL0     H12760   9.329   6.508   8.473  1.0796  0.9258  0.5489
   97MOL0     H12761   9.325   6.568   8.632  1.2953 -0.4009 -0.1384
   97MOL0     H12762   9.215   6.281   8.556 -2.9678  1.3221 -0.6709
   97MOL0     H12763   9.202   6.353   8.720 -2.8990  1.6673 -0.0555
   97MOL0     H12764   8.993   6.380   8.585  0.6977  1.0463  2.4476
   97MOL0     H12765   9.080   6.462   8.456  1.4159  0.6498 -0.4792
   97MOL0     H12766   8.810   6.479   8.552 -0.5150  0.7064 -0.9647
   97MOL0     H12767   8.617   6.628   8.546  1.5884 -1.1488 -0.8010
   97MOL0     H12768   8.272   6.742   8.704  0.3381 -0.4642  0.4007
   97MOL0     H12769   8.035   6.834   8.708  1.7063 -1.3775  0.1486
   97MOL0     H12770   7.882   7.011   8.750 -2.3785  0.0596  0.1998
   97MOL0     H12771   7.841   6.896   8.623 -1.5822 -1.2110  2.4665
   97MOL0     H12772   7.648   7.007   8.645  0.8630 -1.2908  0.6552
   97MOL0     H12773   7.726   7.087   8.506  2.3473  1.2997  0.0767
   97MOL0     H12774   7.783   7.260   8.683  0.7357 -0.4048 -3.4470
   97MOL0     H12775   7.674   7.163   8.784 -1.3203 -1.9073 -0.2386
   97MOL0     H12776   7.553   7.345   8.681  0.8215 -1.0050  1.1885
   97MOL0     H12777   7.637   7.331   8.535 -1.2630  0.3562 -0.1810
   97MOL0     H12778   7.372   7.238   8.568 -0.7528 -1.1132 -1.9425
   97MOL0     H12779   7.456   7.091   8.619  2.7102 -1.1559 -0.9155
   97MOL0     H12780   7.549   7.048   8.397  3.2957  2.7759 -2.2760
   97MOL0     H12781   7.515   7.216   8.352 -2.7620  1.9400  2.2997
   97MOL0     H12782   7.264   7.167   8.366 -0.1487 -0.0738 -3.2943
   97MOL0     H12783   7.353   7.104   8.233 -1.8709  0.3021 -1.1203
   97MOL0     H12784   7.388   6.893   8.390  1.7723  2.4994 -2.1991
   97MOL0     H12785   7.239   6.909   8.295  1.5742 -3.9641 -0.0029
   97MOL0     H12786   8.157   7.130   8.436 -1.0578 -1.3381 -2.4038
   97MOL0     H12787   8.395   7.059   8.472 -2.4355  3.1610  0.0743
   97MOL0     H12788   8.832   6.939   8.724 -1.8958 -0.6376 -0.4199
   97MOL0     H12789   9.042   6.814   8.716  0.9219  2.4732 -0.7939
   97MOL0     H12790  11.010   6.301   8.646  0.2489  0.6889 -0.6878
   97MOL0     H12791  11.220   6.426   8.650 -1.5145 -0.6164 -1.8032
   97MOL0     H12792  11.506   6.635   8.697 -2.2379  0.7450  0.3927
   97MOL0     H12793  11.745   6.700   8.681  1.3821  0.5573 -1.2189
   97MOL0     H12794  11.841   7.105   8.634  2.1984  0.1174  0.8626
   97MOL0     H12795  11.838   7.095   8.462 -3.6504  2.3631  2.4116
   97MOL0     H12796  12.073   7.002   8.643  0.6501  0.3133 -1.0517
   97MOL0     H12797  12.073   6.978   8.465  3.2786 -0.0826  0.3120
   97MOL0     H12798  12.210   7.171   8.573 -0.5504 -2.2612 -0.0837
   97MOL0     H12799  12.060   7.243   8.610 -0.7854 -1.3936  1.2277
   97MOL0     H12800  12.195   7.314   8.386  0.1722 -1.7331  0.7210
   97MOL0     H12801  12.155   7.157   8.339  0.2611  1.6750 -1.2263
   97MOL0     H12802  11.780   7.361   8.310 -0.7387 -2.3782  3.0640
   97MOL0     H12803  11.616   7.068   8.482 -0.3071  0.2345  1.0767
   97MOL0     H12804  11.402   6.990   8.485 -0.2526 -0.3448  0.0879
   98MOL0     O12805   3.401   8.810   7.209  0.7945  0.3076  0.5268
   98MOL0     C12806   3.351   8.893   7.133  0.2935  0.6484  0.4426
   98MOL0     O12807   3.407   8.945   7.024 -0.2365 -0.0519 -0.5968
   98MOL0     C12808   3.522   8.890   6.968  0.0319 -0.5732 -0.4353
   98MOL0     C12809   3.513   8.866   6.831 -0.8695 -0.2253  0.4318
   98MOL0     C12810   3.612   8.788   6.767  0.2648  0.5321  0.9134
   98MOL0     C12811   3.722   8.740   6.845 -0.3502  0.3234  0.1151
   98MOL0     O12812   3.828   8.676   6.783 -0.4374 -0.6207 -0.0619
   98MOL0     C12813   3.916   8.765   6.713  0.7282 -0.5902  0.8820
   98MOL0     C12814   3.998   8.870   6.802 -0.1411 -0.2802  0.2642
   98MOL0     C12815   4.069   8.982   6.710 -0.5401 -0.1009 -0.4431
   98MOL0     C12816   4.124   9.090   6.809  0.4302  0.0533  0.1095
   98MOL0     C12817   4.165   9.219   6.723  0.4472 -0.1616  0.7048
   98MOL0     C12818   4.243   9.192   6.589  0.7775  0.2476 -0.3697
   98MOL0     C12819   4.368   9.112   6.609 -0.2794  0.3179 -0.6870
   98MOL0     C12820   4.412   9.049   6.475 -0.4064 -0.6202  0.7688
   98MOL0     N12821   4.558   9.044   6.465  0.0098  0.0125 -0.3389
   98MOL0     C12822   4.646   9.098   6.382  0.4789 -0.5625 -0.3089
   98MOL0     C12823   4.773   9.046   6.407  0.0461 -0.3007  0.8328
   98MOL0     C12824   4.890   9.081   6.329  0.0962 -0.1630  0.7423
   98MOL0     C12825   5.025   9.075   6.412  0.2989 -0.8258  0.3574
   98MOL0     C12826   5.144   9.080   6.318 -0.3071  0.4201 -0.0561
   98MOL0     C12827   5.262   9.112   6.406 -0.0382  0.6106 -0.6648
   98MOL0     O12828   5.366   9.166   6.329  0.7109  0.2003  0.2211
   98MOL0     C12829   5.474   9.226   6.374  0.6407 -0.6818 -1.2188
   98MOL0     C12830   5.574   9.250   6.284 -0.2825 -0.6171 -0.2388
   98MOL0     C12831   5.681   9.337   6.319 -0.3315  0.3434  1.2258
   98MOL0     C12832   5.703   9.376   6.448 -0.3690 -0.1889 -0.6568
   98MOL0     C12833   5.825   9.451   6.494  0.7805  0.2851 -0.3229
   98MOL0     O12834   5.903   9.502   6.397  0.1879 -0.1241 -0.5036
   98MOL0     C12835   6.023   9.555   6.447  0.2252 -0.9296 -0.1231
   98MOL0     C12836   6.048   9.692   6.424  0.2645  0.5406 -0.6100
   98MOL0     C12837   6.156   9.766   6.476  0.2041  1.2536  0.2809
   98MOL0     C12838   6.249   9.700   6.550  0.1301  0.1960 -0.2481
   98MOL0     O12839   6.358   9.764   6.597 -0.0743 -0.2579  0.6148
   98MOL0     C12840   6.490   9.715   6.557 -0.1143 -0.4316  0.6610
   98MOL0     C12841   6.565   9.799   6.458  0.1220 -0.3061  0.4729
   98MOL0     C12842   6.716   9.759   6.453  0.6998  1.0242  0.5114
   98MOL0     C12843   6.796   9.785   6.573  0.1259  1.1198  0.0964
   98MOL0     C12844   6.798   9.942   6.623  1.2686  1.3357  0.9345
   98MOL0     C12845   6.856   9.954   6.763 -0.6232 -0.1811  0.4327
   98MOL0     C12846   7.000   9.992   6.798  0.0405  0.0483 -0.0120
   98MOL0     C12847   7.069  10.069   6.691  0.3632  0.1823  0.3367
   98MOL0    Cl12848   7.222  10.131   6.753  0.1583 -0.0716 -0.3065
   98MOL0     C12849   6.238   9.556   6.574  0.5226 -0.2256 -0.0841
   98MOL0     C12850   6.121   9.487   6.522  0.0275  0.1423 -0.5872
   98MOL0     O12851   5.847   9.425   6.612 -0.9548  0.3582  0.6529
   98MOL0     C12852   5.603   9.340   6.540  0.4162 -0.4922  0.4648
   98MOL0     C12853   5.495   9.261   6.508  0.5070  0.2396 -0.1424
   98MOL0     N12854   4.755   8.960   6.508 -0.6767  0.4566  0.0557
   98MOL0     N12855   4.627   8.956   6.540 -0.2895 -0.5599 -0.0961
   98MOL0     C12856   3.729   8.777   6.978 -0.4298 -0.5260  0.0707
   98MOL0     C12857   3.630   8.851   7.038 -0.3477 -0.6894 -0.3303
   98MOL0     C12858   3.212   8.927   7.144  0.4785 -0.6570  0.6914
   98MOL0     C12859   3.164   9.059   7.102 -0.8113 -0.9112  0.3043
   98MOL0     C12860   3.028   9.088   7.106 -0.1687 -1.0618  0.3845
   98MOL0     C12861   2.929   8.996   7.146 -0.3946 -0.3945  0.8158
   98MOL0     O12862   2.803   9.048   7.153  0.0071 -0.4414  0.3779
   98MOL0     C12863   2.687   8.959   7.137 -0.1373  0.5627  0.0221
   98MOL0     C12864   2.560   9.040   7.114  0.8232  0.0919 -0.9955
   98MOL0     C12865   2.428   8.966   7.142 -0.6583  0.4554 -0.1016
   98MOL0     C12866   2.313   9.012   7.055  0.3105  0.0710  0.7788
   98MOL0     C12867   2.308   9.156   7.032  1.0951  0.2889 -0.9192
   98MOL0     C12868   2.283   9.266   6.992  0.2845 -0.6410  0.0067
   98MOL0     C12869   2.975   8.874   7.187 -0.1034 -0.6121 -0.1030
   98MOL0     C12870   3.114   8.845   7.205 -0.8030  0.9116  0.8115
   98MOL0     H12871   3.425   8.901   6.778 -1.5242 -3.6009 -0.9472
   98MOL0     H12872   3.603   8.772   6.660  0.8545  2.6702  0.4958
   98MOL0     H12873   3.854   8.816   6.638  2.0321 -2.5082 -1.6410
   98MOL0     H12874   3.987   8.701   6.661 -1.3913 -0.4026 -2.6044
   98MOL0     H12875   4.067   8.827   6.874  1.3535  0.0458 -0.9309
   98MOL0     H12876   3.922   8.929   6.855  1.0763  1.1631  0.4902
   98MOL0     H12877   3.988   9.019   6.647 -1.8958  1.6507  2.1207
   98MOL0     H12878   4.146   8.937   6.646 -0.0098 -1.7821  1.2770
   98MOL0     H12879   4.046   9.132   6.873  1.0938  2.0637 -0.3265
   98MOL0     H12880   4.204   9.056   6.876 -1.0362  0.8925  2.4082
   98MOL0     H12881   4.230   9.290   6.775 -0.4874  0.8751  0.4917
   98MOL0     H12882   4.072   9.275   6.708  2.2071  3.3508  1.8338
   98MOL0     H12883   4.258   9.278   6.524 -4.3190 -0.1368 -2.4998
   98MOL0     H12884   4.172   9.140   6.525 -1.7480  0.2262  2.2510
   98MOL0     H12885   4.438   9.183   6.654 -0.5550 -1.8896  3.7823
   98MOL0     H12886   4.355   9.033   6.684 -2.3121 -1.5509 -2.8426
   98MOL0     H12887   4.378   9.109   6.389 -2.2124  0.2453  2.0305
   98MOL0     H12888   4.384   8.944   6.462 -1.5207 -0.2968  0.4782
   98MOL0     H12889   4.622   9.175   6.310 -1.9010  0.6303  1.6318
   98MOL0     H12890   4.875   9.179   6.282 -2.0763 -1.0736 -0.6341
   98MOL0     H12891   4.896   9.011   6.245 -0.5963 -1.3763  1.6733
   98MOL0     H12892   5.028   8.994   6.485 -0.0882 -0.6888  0.5327
   98MOL0     H12893   5.011   9.164   6.474 -0.8245 -0.1822 -0.7606
   98MOL0     H12894   5.150   8.988   6.260  2.5855  1.3452 -1.4242
   98MOL0     H12895   5.126   9.159   6.244  0.7956  0.1666 -0.6159
   98MOL0     H12896   5.300   9.019   6.450 -2.1217 -0.9960 -2.0883
   98MOL0     H12897   5.236   9.185   6.483 -0.4389 -1.3123  1.1210
   98MOL0     H12898   5.544   9.211   6.187 -1.7935 -0.8621  0.3066
   98MOL0     H12899   5.751   9.364   6.240  0.3109  0.5740  1.8715
   98MOL0     H12900   5.978   9.738   6.354 -1.8212  3.4748  3.0484
   98MOL0     H12901   6.155   9.868   6.441 -0.3132  0.4889 -2.1304
   98MOL0     H12902   6.479   9.616   6.511 -1.0519 -0.0704  0.0666
   98MOL0     H12903   6.546   9.716   6.650 -0.9816 -1.8009  1.2474
   98MOL0     H12904   6.567   9.906   6.481  0.7097 -0.3160  0.4840
   98MOL0     H12905   6.517   9.792   6.360  1.8409 -1.6766 -0.3277
   98MOL0     H12906   6.756   9.814   6.367 -1.4890  0.8625 -0.6777
   98MOL0     H12907   6.721   9.654   6.423  0.8433  1.3860 -0.7757
   98MOL0     H12908   6.752   9.722   6.650 -0.4013  1.2064 -0.1307
   98MOL0     H12909   6.898   9.745   6.562 -0.9345 -2.2090  1.3444
   98MOL0     H12910   6.696   9.982   6.624 -0.4662 -2.6512  0.7008
   98MOL0     H12911   6.861  10.003   6.557  0.3538  1.3409  0.0480
   98MOL0     H12912   6.846   9.856   6.809 -0.5826  0.3800  1.6810
   98MOL0     H12913   6.791  10.035   6.798 -0.7057  0.4417 -1.0873
   98MOL0     H12914   6.992  10.049   6.891 -0.3310  1.3000 -0.7917
   98MOL0     H12915   7.070   9.912   6.824  0.9488  0.8795  0.1691
   98MOL0     H12916   7.007  10.152   6.656 -3.3386 -3.2581 -2.1032
   98MOL0     H12917   7.085   9.995   6.612 -0.4621 -0.8543  1.1119
   98MOL0     H12918   6.312   9.500   6.630  0.7202 -1.6202 -1.6382
   98MOL0     H12919   6.092   9.386   6.546 -3.0869  1.4077  1.6380
   98MOL0     H12920   5.608   9.360   6.647  1.4455 -0.1265  0.3562
   98MOL0     H12921   5.420   9.245   6.584  1.3003  1.8100  1.0325
   98MOL0     H12922   3.812   8.743   7.040 -2.5189 -1.5974  2.4845
   98MOL0     H12923   3.628   8.873   7.145  0.8519 -0.5034 -0.3374
   98MOL0     H12924   3.241   9.123   7.060 -1.1652 -0.5231  0.2354
   98MOL0     H12925   2.986   9.181   7.068  1.4314 -0.5889 -0.3205
   98MOL0     H12926   2.675   8.900   7.228  1.7636  2.2918  1.4841
   98MOL0     H12927   2.705   8.899   7.047 -0.1848  1.3660 -0.5294
   98MOL0     H12928   2.567   9.105   7.202  0.4089 -2.3987  1.0002
   98MOL0     H12929   2.548   9.098   7.022 -2.7291 -3.0631 -2.7936
   98MOL0     H12930   2.403   8.964   7.249  0.4796 -1.8915  0.1805
   98MOL0     H12931   2.449   8.862   7.117  0.7006  1.1934 -2.2287
   98MOL0     H12932   2.331   8.969   6.956 -0.7324  2.0169 -0.3130
   98MOL0     H12933   2.214   8.985   7.092 -0.3377  0.7160 -0.4001
   98MOL0     H12934   2.272   9.368   6.961 -1.4222 -1.0235 -0.7617
   98MOL0     H12935   2.911   8.791   7.217  1.7145 -3.3537 -3.1596
   98MOL0     H12936   3.129   8.742   7.236 -3.8269  0.1786  0.2005
   99MOL0     O12937   5.163   4.995   1.717 -0.0852  0.5814  0.0826
   99MOL0     C12938   5.110   4.908   1.789  0.8733 -0.0861 -0.1005
   99MOL0     O12939   4.991   4.913   1.856 -0.4826  0.5037 -0.2866
   99MOL0     C12940   4.898   5.007   1.826 -0.5332  0.1265  0.7865
   99MOL0     C12941   4.830   5.083   1.923 -0.0433 -0.1425 -0.1972
   99MOL0     C12942   4.730   5.173   1.888  0.3622  0.0370  0.3508
   99MOL0     C12943   4.690   5.189   1.756  0.0649  0.0999  0.5985
   99MOL0     O12944   4.581   5.273   1.723  0.3498  0.2258  0.0164
   99MOL0     C12945   4.463   5.216   1.664 -0.2361 -0.9298  0.6069
   99MOL0     C12946   4.359   5.324   1.684 -0.4423  0.4063  1.4815
   99MOL0     C12947   4.247   5.311   1.577  0.5999 -0.1508 -0.1081
   99MOL0     C12948   4.190   5.178   1.555  0.4612  0.1320  0.1891
   99MOL0     C12949   4.042   5.185   1.516  1.4268 -0.4591 -0.6449
   99MOL0     C12950   4.002   5.065   1.434  0.0086 -0.0113 -0.0791
   99MOL0     C12951   3.871   5.059   1.380 -0.0179  0.1536 -0.7904
   99MOL0     C12952   3.833   5.190   1.302  0.0506  0.0430 -0.3654
   99MOL0     N12953   3.688   5.199   1.262  0.2018 -0.0135  0.1977
   99MOL0     C12954   3.642   5.284   1.163 -0.0476 -1.2218 -0.1051
   99MOL0     C12955   3.512   5.244   1.127 -0.8380 -0.0213  0.1250
   99MOL0     C12956   3.426   5.315   1.032  0.1895  0.4871  0.4608
   99MOL0     C12957   3.286   5.330   1.086 -0.0169  0.6022  0.4998
   99MOL0     C12958   3.203   5.393   0.968 -0.6472 -0.0627 -0.4176
   99MOL0     C12959   3.067   5.440   1.017  0.7850 -0.2527  0.4344
   99MOL0     O12960   2.982   5.338   1.074  0.5545  0.0980  0.1896
   99MOL0     C12961   2.871   5.289   1.003 -0.6388  0.3560 -0.3375
   99MOL0     C12962   2.747   5.303   1.061  0.8366  0.3952 -0.2776
   99MOL0     C12963   2.628   5.266   0.985  0.0119  0.0949  0.1854
   99MOL0     C12964   2.635   5.228   0.851 -0.7172 -0.1957  0.8706
   99MOL0     C12965   2.513   5.187   0.774  0.3095 -0.4195 -0.6255
   99MOL0     O12966   2.543   5.147   0.644  0.8945 -0.1540  0.2596
   99MOL0     C12967   2.434   5.097   0.575  0.6791  0.8904  0.2382
   99MOL0     C12968   2.425   4.959   0.537  0.0680 -0.7210  0.2282
   99MOL0     C12969   2.317   4.911   0.467  1.1692  1.1773  0.4707
   99MOL0     C12970   2.212   4.990   0.423 -0.3721  0.2367 -0.2461
   99MOL0     O12971   2.116   4.922   0.364  0.4997  0.4864 -0.6230
   99MOL0     C12972   2.016   4.999   0.302  0.3429  0.6831 -0.3016
   99MOL0     C12973   1.900   4.914   0.245  0.3707 -0.8108  0.0492
   99MOL0     C12974   1.814   4.852   0.354 -0.0623  0.4906 -0.3312
   99MOL0     C12975   1.709   4.775   0.282 -0.3752  0.2086  0.4673
   99MOL0     C12976   1.593   4.870   0.268 -0.4488  0.6633  0.5290
   99MOL0     C12977   1.511   4.896   0.399 -0.2162  0.3751  0.3053
   99MOL0     C12978   1.423   4.780   0.435  0.6512 -0.1938  0.8383
   99MOL0     C12979   1.331   4.818   0.543 -0.4364  0.6817 -0.1973
   99MOL0    Cl12980   1.434   4.828   0.686 -0.0487  0.0642  0.0999
   99MOL0     C12981   2.218   5.128   0.464  0.9940 -0.0688  0.4926
   99MOL0     C12982   2.323   5.176   0.541  1.0296 -0.4018  0.5028
   99MOL0     O12983   2.399   5.191   0.823 -0.0017  0.8192 -0.2695
   99MOL0     C12984   2.763   5.218   0.796  0.2380 -0.6917  0.5178
   99MOL0     C12985   2.877   5.241   0.875  0.0374  0.3594 -0.5399
   99MOL0     N12986   3.490   5.132   1.200  0.4099 -0.3752  0.0621
   99MOL0     N12987   3.587   5.109   1.275  1.1008 -0.0539  0.5673
   99MOL0     C12988   4.753   5.117   1.657  0.1986 -0.5234  0.6943
   99MOL0     C12989   4.859   5.030   1.689  0.2705  0.5274  0.5491
   99MOL0     C12990   5.195   4.785   1.814 -0.5948 -0.5482 -0.3618
   99MOL0     C12991   5.326   4.781   1.751 -0.2481 -0.0628  0.1245
   99MOL0     C12992   5.417   4.686   1.775 -0.3364  0.1138 -0.4298
   99MOL0     C12993   5.389   4.580   1.862  0.6359  0.1077 -0.2335
   99MOL0     O12994   5.472   4.479   1.897  0.0188 -0.3387  0.2478
   99MOL0     C12995   5.599   4.471   1.825  0.5585  1.3178  0.4305
   99MOL0     C12996   5.588   4.382   1.688  0.0421 -0.4700  0.4772
   99MOL0     C12997   5.514   4.251   1.669  0.2373  0.5942  0.2605
   99MOL0     C12998   5.556   4.134   1.763  0.2203  0.4712  0.7400
   99MOL0     C12999   5.668   4.054   1.704 -0.5847  1.3924  0.5291
   99MOL0     C13000   5.748   3.982   1.653 -0.1511  0.1508 -0.3436
   99MOL0     C13001   5.261   4.575   1.923  0.8472 -0.7343 -0.7849
   99MOL0     C13002   5.166   4.686   1.911 -0.7398  0.3556  1.0483
   99MOL0     H13003   4.856   5.090   2.028 -0.1383  2.0957 -0.2736
   99MOL0     H13004   4.676   5.236   1.958 -0.9833  1.2355 -1.6515
   99MOL0     H13005   4.439   5.115   1.700  1.0880 -2.3143 -2.0526
   99MOL0     H13006   4.481   5.204   1.556  2.5516 -0.5407  0.9547
   99MOL0     H13007   4.406   5.421   1.667 -2.5586  1.3029  0.3042
   99MOL0     H13008   4.323   5.326   1.788  0.4444 -2.1571  1.9304
   99MOL0     H13009   4.279   5.342   1.477 -1.8829 -0.8370 -1.1880
   99MOL0     H13010   4.158   5.369   1.602 -0.0694  0.8251 -4.0544
   99MOL0     H13011   4.247   5.129   1.475 -2.0754 -0.0610 -1.6144
   99MOL0     H13012   4.191   5.120   1.648  0.8615  1.4933  1.0763
   99MOL0     H13013   4.031   5.280   1.463  0.1731 -0.7105 -0.8838
   99MOL0     H13014   3.977   5.185   1.604  0.3581  0.1965 -1.4003
   99MOL0     H13015   4.028   4.975   1.490  0.9517  0.4446  0.2277
   99MOL0     H13016   4.066   5.059   1.345  1.5346 -1.6772  1.0700
   99MOL0     H13017   3.866   4.967   1.321  1.3373 -1.1390  0.9885
   99MOL0     H13018   3.800   5.062   1.463  1.3774  1.1374  0.4010
   99MOL0     H13019   3.895   5.191   1.212  1.3191  0.4566  0.4854
   99MOL0     H13020   3.852   5.271   1.373  0.6163 -0.7833  0.4530
   99MOL0     H13021   3.703   5.363   1.119  3.5984 -4.1332 -0.8229
   99MOL0     H13022   3.420   5.250   0.944 -1.1755 -1.3032  1.8106
   99MOL0     H13023   3.472   5.411   1.007  2.4744 -0.5631  0.3164
   99MOL0     H13024   3.281   5.380   1.183 -0.3824 -0.3213  0.9738
   99MOL0     H13025   3.228   5.238   1.098 -2.5255  2.3558  2.9429
   99MOL0     H13026   3.261   5.472   0.920 -0.1322  0.2596  0.7055
   99MOL0     H13027   3.186   5.312   0.897 -1.4371 -0.5277  0.2768
   99MOL0     H13028   3.013   5.494   0.938 -0.3531 -1.3739  0.4202
   99MOL0     H13029   3.093   5.511   1.096  1.2236  0.0699  0.0067
   99MOL0     H13030   2.744   5.336   1.165  1.4644 -1.5011  0.4057
   99MOL0     H13031   2.535   5.261   1.040 -1.2483 -1.7535 -1.9754
   99MOL0     H13032   2.498   4.884   0.566  1.7087  0.9699  0.7249
   99MOL0     H13033   2.301   4.807   0.444  4.6097  0.7814 -0.6667
   99MOL0     H13034   2.049   5.062   0.219 -3.6868  4.1038  0.3278
   99MOL0     H13035   1.989   5.072   0.378  3.5808  1.8011 -0.0742
   99MOL0     H13036   1.947   4.837   0.184  1.8962  0.4051 -0.3765
   99MOL0     H13037   1.843   4.980   0.180  1.8243  1.6732  1.1473
   99MOL0     H13038   1.776   4.936   0.414  2.1280  3.3235 -2.5769
   99MOL0     H13039   1.884   4.787   0.407  1.9620  0.5462 -2.7591
   99MOL0     H13040   1.745   4.731   0.188 -0.2333 -2.0172  1.5018
   99MOL0     H13041   1.681   4.690   0.345  3.5900 -1.7239 -0.0183
   99MOL0     H13042   1.527   4.841   0.186  0.0437 -1.3645  0.8076
   99MOL0     H13043   1.637   4.967   0.243  1.3274 -0.5517 -1.4187
   99MOL0     H13044   1.448   4.982   0.374 -0.6455  0.0576  0.2907
   99MOL0     H13045   1.583   4.921   0.478 -0.2063 -0.9649  0.7410
   99MOL0     H13046   1.355   4.757   0.352  2.2674  3.4643 -1.7812
   99MOL0     H13047   1.489   4.695   0.454  2.7077  0.3300 -2.9546
   99MOL0     H13048   1.260   4.736   0.558 -0.3817  0.8964  1.4199
   99MOL0     H13049   1.263   4.904   0.547  0.4349  1.4109 -0.6669
   99MOL0     H13050   2.147   5.197   0.420 -1.4747 -1.6425  1.7673
   99MOL0     H13051   2.315   5.279   0.576  2.9252  1.4472 -3.7183
   99MOL0     H13052   2.774   5.177   0.696  1.2886  1.9658 -0.5542
   99MOL0     H13053   2.974   5.220   0.831  0.1148 -0.8535  0.1714
   99MOL0     H13054   4.712   5.111   1.557 -1.3161 -3.8532  1.3693
   99MOL0     H13055   4.887   4.974   1.600 -2.9567 -0.0383 -0.2677
   99MOL0     H13056   5.361   4.860   1.686  2.1613 -0.9615  0.2476
   99MOL0     H13057   5.517   4.679   1.733  0.3767 -1.7107  1.4367
   99MOL0     H13058   5.659   4.399   1.881  0.1312  0.1163 -0.5893
   99MOL0     H13059   5.650   4.568   1.829  0.8883  1.1114  3.5487
   99MOL0     H13060   5.547   4.449   1.612  0.7389  0.6150  1.0351
   99MOL0     H13061   5.691   4.369   1.653  0.4688 -0.9950  1.8437
   99MOL0     H13062   5.486   4.217   1.568 -1.5687 -2.7569  1.7005
   99MOL0     H13063   5.413   4.280   1.699  0.6226  3.3605 -0.8120
   99MOL0     H13064   5.581   4.168   1.864  0.0797  1.5676  0.4200
   99MOL0     H13065   5.468   4.071   1.781  1.1478 -1.5585 -1.3123
   99MOL0     H13066   5.818   3.934   1.587  0.3470  4.4528 -3.3823
   99MOL0     H13067   5.239   4.493   1.990  0.9267 -0.1047  0.0338
   99MOL0     H13068   5.072   4.677   1.965 -1.8161 -2.9078 -1.0391
  100MOL0     O13069   4.723   4.714   3.648 -0.1074 -0.4467 -0.8290
  100MOL0     C13070   4.690   4.820   3.706  0.4660  0.1915 -0.5380
  100MOL0     O13071   4.763   4.891   3.799  0.0345  0.6947 -0.3391
  100MOL0     C13072   4.877   4.832   3.844 -0.9582 -0.4092  0.4915
  100MOL0     C13073   4.993   4.832   3.770 -0.3453  0.2978 -0.3772
  100MOL0     C13074   5.101   4.764   3.817 -0.1237 -0.0998  0.4156
  100MOL0     C13075   5.103   4.688   3.934 -0.0662 -0.0697 -0.4377
  100MOL0     O13076   5.214   4.623   3.961  0.6886  0.7228 -0.4095
  100MOL0     C13077   5.219   4.555   4.087 -0.5367  0.8303  0.0297
  100MOL0     C13078   5.356   4.484   4.113  1.1194 -0.3991 -0.3669
  100MOL0     C13079   5.478   4.576   4.135 -0.5116  0.0330  0.1634
  100MOL0     C13080   5.602   4.484   4.135 -0.2683 -0.4390 -0.3241
  100MOL0     C13081   5.734   4.548   4.180  0.5395 -1.0155 -0.8135
  100MOL0     C13082   5.848   4.460   4.127  0.3960  0.4034 -0.6976
  100MOL0     C13083   5.976   4.534   4.116 -0.1518  0.1235 -0.1227
  100MOL0     C13084   6.105   4.453   4.106 -0.3993  0.5631 -0.3219
  100MOL0     N13085   6.108   4.364   3.988  0.6743 -0.7615  0.7296
  100MOL0     C13086   6.179   4.393   3.871 -0.1828  0.6547 -0.1618
  100MOL0     C13087   6.177   4.281   3.797  0.1275  0.4997  0.7669
  100MOL0     C13088   6.228   4.275   3.655  0.3976  0.6548 -0.0297
  100MOL0     C13089   6.374   4.215   3.642  0.8627  0.3708 -0.6104
  100MOL0     C13090   6.372   4.076   3.708 -0.6800 -0.9624 -0.3980
  100MOL0     C13091   6.469   3.985   3.641 -0.5831 -0.4786  0.0835
  100MOL0     O13092   6.599   4.029   3.676 -0.0436 -0.0565 -0.0124
  100MOL0     C13093   6.709   3.979   3.609 -0.4183 -1.1041 -0.0913
  100MOL0     C13094   6.706   3.866   3.511  0.5329 -0.1292 -0.2067
  100MOL0     C13095   6.822   3.832   3.449  0.3303  0.4451 -0.5428
  100MOL0     C13096   6.943   3.888   3.482 -0.5142  0.0126 -0.2076
  100MOL0     C13097   7.068   3.828   3.433  0.9586  0.8454  0.1116
  100MOL0     O13098   7.077   3.698   3.399 -0.0493  0.0779  0.3891
  100MOL0     C13099   7.186   3.661   3.329  0.2264 -0.1120 -0.4774
  100MOL0     C13100   7.282   3.570   3.377 -0.5398  0.6679  0.0844
  100MOL0     C13101   7.383   3.525   3.288  0.3096  0.6331 -0.6019
  100MOL0     C13102   7.416   3.580   3.164  0.5077  0.4076 -0.0062
  100MOL0     O13103   7.514   3.520   3.094  0.4874  0.8304 -0.0086
  100MOL0     C13104   7.557   3.566   2.970  0.3395  0.1687  0.2776
  100MOL0     C13105   7.693   3.501   2.945 -0.5129 -0.2058 -0.5210
  100MOL0     C13106   7.693   3.352   2.926 -0.0242  0.2480  0.3413
  100MOL0     C13107   7.835   3.302   2.891  0.1856 -0.3957 -0.4261
  100MOL0     C13108   7.868   3.153   2.918 -0.6131 -0.2656  0.5796
  100MOL0     C13109   7.780   3.056   2.832  0.2529 -1.0510 -0.6884
  100MOL0     C13110   7.867   2.928   2.806 -0.4582  0.1741 -0.7526
  100MOL0     C13111   7.768   2.810   2.788  0.5694 -0.1282 -0.3405
  100MOL0    Cl13112   7.703   2.847   2.628  0.2480  0.1006 -0.3666
  100MOL0     C13113   7.316   3.665   3.122  0.1792  0.5709 -0.5220
  100MOL0     C13114   7.210   3.712   3.196  0.3020  0.9265  0.1614
  100MOL0     O13115   7.162   3.902   3.418  0.0991 -0.0587  0.7260
  100MOL0     C13116   6.952   3.999   3.569 -0.1510  0.7682  1.6410
  100MOL0     C13117   6.838   4.040   3.628  0.4339  0.0469 -0.9343
  100MOL0     N13118   6.119   4.183   3.879  0.0212  0.1195  0.3083
  100MOL0     N13119   6.063   4.232   3.982  0.3616 -0.3092  0.3471
  100MOL0     C13120   4.979   4.685   4.009  1.1212  0.3469 -0.7277
  100MOL0     C13121   4.869   4.761   3.964  0.0191  0.5149  0.3739
  100MOL0     C13122   4.558   4.875   3.674 -0.7704  0.0898  1.0376
  100MOL0     C13123   4.518   5.010   3.692 -0.4536 -0.1236 -0.5532
  100MOL0     C13124   4.390   5.054   3.684  0.1285 -0.0746 -0.1944
  100MOL0     C13125   4.290   4.957   3.654 -0.5348 -0.0670  0.5247
  100MOL0     O13126   4.153   4.998   3.648 -0.3527  0.5652  0.3462
  100MOL0     C13127   4.075   4.974   3.771  0.1057 -0.1685  0.4292
  100MOL0     C13128   3.933   4.986   3.731  0.1670  0.0169 -0.4607
  100MOL0     C13129   3.836   4.933   3.848 -1.0710 -0.4989 -0.4299
  100MOL0     C13130   3.688   4.896   3.804 -0.6206 -0.3650  0.0943
  100MOL0     C13131   3.621   5.006   3.733  0.8728 -0.1372  0.1122
  100MOL0     C13132   3.567   5.106   3.697  1.2521  0.0060  0.6879
  100MOL0     C13133   4.326   4.831   3.602 -0.2695  0.3949 -0.5610
  100MOL0     C13134   4.463   4.795   3.614  0.3452 -0.2227  0.2784
  100MOL0     H13135   5.007   4.877   3.672  2.0555 -0.4266 -0.4304
  100MOL0     H13136   5.191   4.775   3.757 -0.3326 -0.9173 -0.0593
  100MOL0     H13137   5.135   4.486   4.092  0.0949  0.1185  1.6233
  100MOL0     H13138   5.205   4.634   4.161 -0.2648  0.4322  0.5080
  100MOL0     H13139   5.375   4.417   4.029 -0.3517 -2.4266  0.8429
  100MOL0     H13140   5.345   4.414   4.197  0.0077  0.5277  0.3052
  100MOL0     H13141   5.471   4.627   4.232 -0.8605 -2.8158  1.7469
  100MOL0     H13142   5.476   4.650   4.055 -3.2892 -0.4351 -0.3092
  100MOL0     H13143   5.581   4.400   4.202  2.7884 -1.8668 -0.9697
  100MOL0     H13144   5.612   4.448   4.032 -1.7275  2.0053 -1.4037
  100MOL0     H13145   5.735   4.557   4.289  1.9234  3.5267 -0.9976
  100MOL0     H13146   5.737   4.647   4.135  0.1786  0.3765  2.0259
  100MOL0     H13147   5.832   4.423   4.026 -0.6075 -0.6790 -0.1645
  100MOL0     H13148   5.854   4.378   4.200  1.0888 -0.3157 -1.5427
  100MOL0     H13149   5.975   4.592   4.023  2.1763 -1.0602 -0.9689
  100MOL0     H13150   5.993   4.601   4.201  0.6786  0.5241 -0.5867
  100MOL0     H13151   6.130   4.387   4.190  1.1955  0.8744 -0.5208
  100MOL0     H13152   6.187   4.527   4.108  0.0426  0.1877  3.8423
  100MOL0     H13153   6.234   4.481   3.839 -0.5170  0.1973 -2.1637
  100MOL0     H13154   6.252   4.375   3.617 -0.7667  0.6385 -0.8276
  100MOL0     H13155   6.159   4.214   3.596 -3.6274  1.4270  3.4070
  100MOL0     H13156   6.448   4.277   3.694  0.9678 -0.3024  0.0589
  100MOL0     H13157   6.405   4.213   3.537 -2.8489 -0.6453 -1.8426
  100MOL0     H13158   6.399   4.077   3.813  0.6731  1.6626 -0.6853
  100MOL0     H13159   6.267   4.045   3.699 -0.9558  0.3899 -3.5099
  100MOL0     H13160   6.465   3.972   3.533 -0.3081 -1.8590  0.2245
  100MOL0     H13161   6.460   3.882   3.678 -2.1928 -0.7145 -0.8802
  100MOL0     H13162   6.615   3.811   3.488 -1.1567  1.6474  1.7031
  100MOL0     H13163   6.815   3.756   3.372 -0.4607 -0.6638  0.5976
  100MOL0     H13164   7.269   3.524   3.475 -0.1575  2.1237  0.8584
  100MOL0     H13165   7.445   3.442   3.319 -2.8493 -1.0033  1.7827
  100MOL0     H13166   7.562   3.675   2.977  0.0709  0.0936  2.1533
  100MOL0     H13167   7.497   3.539   2.883  1.4579 -1.5395 -0.0025
  100MOL0     H13168   7.762   3.518   3.027 -2.5978  3.0712  0.7408
  100MOL0     H13169   7.729   3.545   2.852 -1.0098 -2.7463 -2.0363
  100MOL0     H13170   7.630   3.334   2.838  0.0978  0.7396  0.1535
  100MOL0     H13171   7.655   3.300   3.014 -1.8416  2.7859  1.1667
  100MOL0     H13172   7.840   3.334   2.786  2.4034 -1.1127 -0.5988
  100MOL0     H13173   7.908   3.365   2.943  0.4342 -1.1586  0.1613
  100MOL0     H13174   7.871   3.129   3.024  1.5219  1.4198  0.9819
  100MOL0     H13175   7.969   3.139   2.878 -0.2526  0.1556  1.3305
  100MOL0     H13176   7.752   3.103   2.737 -0.9176 -2.1421 -0.9126
  100MOL0     H13177   7.690   3.040   2.893  1.5399  1.3918  2.1073
  100MOL0     H13178   7.927   2.930   2.714 -0.2314 -0.3596 -0.6240
  100MOL0     H13179   7.931   2.904   2.891 -1.5937  1.3873  0.4815
  100MOL0     H13180   7.684   2.799   2.857  1.8938 -0.9792  1.2119
  100MOL0     H13181   7.819   2.713   2.783  0.3265 -0.2947  0.3905
  100MOL0     H13182   7.340   3.730   3.038  0.9115  4.8720  2.6763
  100MOL0     H13183   7.150   3.789   3.149 -0.3239  0.2637 -0.1471
  100MOL0     H13184   7.048   4.048   3.580  1.9638 -1.8872 -2.3607
  100MOL0     H13185   6.849   4.131   3.686 -1.0059 -0.6060  0.4303
  100MOL0     H13186   4.958   4.626   4.097  0.2035  1.3197 -0.2786
  100MOL0     H13187   4.776   4.761   4.019 -2.3491  3.3802 -3.2275
  100MOL0     H13188   4.596   5.081   3.718  0.1178 -1.4299  1.5924
  100MOL0     H13189   4.367   5.151   3.727  2.1190 -1.7041  5.3643
  100MOL0     H13190   4.111   5.040   3.852 -1.5404 -1.0682  1.9619
  100MOL0     H13191   4.093   4.870   3.799  0.4890  0.2381  1.7882
  100MOL0     H13192   3.895   5.087   3.716 -3.9826 -0.6345  3.4373
  100MOL0     H13193   3.922   4.920   3.644  2.8946 -2.0804  0.6365
  100MOL0     H13194   3.839   5.004   3.931 -2.0766  0.0354 -0.8304
  100MOL0     H13195   3.882   4.841   3.885 -2.2465 -0.9334 -0.0144
  100MOL0     H13196   3.688   4.810   3.736 -0.0496  1.1114 -1.8448
  100MOL0     H13197   3.629   4.888   3.896  0.0887  2.2179  0.8395
  100MOL0     H13198   3.541   5.195   3.642  1.2132 -0.4377 -0.0294
  100MOL0     H13199   4.252   4.774   3.546 -0.2402  1.1339 -1.3836
  100MOL0     H13200   4.492   4.695   3.581 -1.1985 -0.3980 -0.6772
  101MOL0     O13201   3.531   1.669   0.361 -0.1487  0.7291  0.2557
  101MOL0     C13202   3.553   1.780   0.345 -0.1257  0.0870  0.3787
  101MOL0     O13203   3.451   1.870   0.327  0.0871 -0.2778 -0.1118
  101MOL0     C13204   3.321   1.859   0.381  0.3581  0.2727 -0.7308
  101MOL0     C13205   3.234   1.750   0.361 -0.1507 -0.7726 -1.1265
  101MOL0     C13206   3.111   1.762   0.418 -0.0052  0.6565  0.6257
  101MOL0     C13207   3.065   1.864   0.502  0.0008  0.2598  0.1813
  101MOL0     O13208   2.935   1.872   0.542  0.7210  1.2170 -0.6111
  101MOL0     C13209   2.860   1.749   0.543 -0.4949  0.2535 -0.3493
  101MOL0     C13210   2.747   1.756   0.636 -0.0278  0.6173  0.3857
  101MOL0     C13211   2.642   1.858   0.591  0.3894  0.0607  0.1869
  101MOL0     C13212   2.532   1.880   0.693 -0.3711  0.3798 -0.7980
  101MOL0     C13213   2.409   1.929   0.619  1.5949 -0.1369 -0.3617
  101MOL0     C13214   2.292   1.942   0.726 -0.1773  1.5597  0.0708
  101MOL0     C13215   2.228   1.803   0.760  0.5905 -0.7166 -0.2937
  101MOL0     C13216   2.186   1.788   0.909  0.6067  0.6308 -0.0613
  101MOL0     N13217   2.063   1.855   0.936 -0.1452  0.1670  1.0127
  101MOL0     C13218   1.958   1.797   1.002 -0.5391  0.0626  0.6378
  101MOL0     C13219   1.857   1.883   0.996 -0.3387 -0.3436 -0.0054
  101MOL0     C13220   1.708   1.884   1.021 -0.2946  0.4252  0.8637
  101MOL0     C13221   1.631   1.830   0.902 -1.0462  0.0480 -0.1350
  101MOL0     C13222   1.487   1.874   0.903  0.4801  0.0421 -0.1217
  101MOL0     C13223   1.425   1.790   0.786 -0.4301  0.3224 -0.4700
  101MOL0     O13224   1.366   1.668   0.841  0.8487  0.3557  0.3756
  101MOL0     C13225   1.260   1.612   0.775  0.3037 -0.1783 -0.7428
  101MOL0     C13226   1.210   1.645   0.644 -0.2547  0.3424 -0.1903
  101MOL0     C13227   1.101   1.581   0.586  0.2609  0.0667 -0.2843
  101MOL0     C13228   1.039   1.478   0.660  1.3586  0.4919 -0.1700
  101MOL0     C13229   0.920   1.414   0.593  0.1640  0.6945 -0.7894
  101MOL0     O13230   0.823   1.358   0.680 -0.5049 -0.2724 -0.0070
  101MOL0     C13231   0.707   1.310   0.619  0.2498  0.6636 -0.1508
  101MOL0     C13232   0.588   1.333   0.688  0.4383  0.2529  0.1581
  101MOL0     C13233   0.467   1.279   0.640  0.7894  0.4235  0.3467
  101MOL0     C13234   0.468   1.175   0.547 -0.1874  0.8160 -0.0226
  101MOL0     O13235   0.347   1.121   0.524  1.4669 -0.1026  0.3507
  101MOL0     C13236   0.323   1.062   0.392 -0.7815 -0.1991  0.1689
  101MOL0     C13237   0.211   0.957   0.398  0.3546  0.2879 -1.0995
  101MOL0     C13238   0.080   1.032   0.442 -0.1050  0.3536  0.6682
  101MOL0     C13239   0.018   1.103   0.316  0.4810  0.3743  0.5800
  101MOL0     C13240  -0.140   1.092   0.309  0.6079  0.4591  0.8949
  101MOL0     C13241  -0.196   1.125   0.166  0.6894 -0.0398  0.0632
  101MOL0     C13242  -0.342   1.081   0.151  0.6531 -0.2441  0.1185
  101MOL0     C13243  -0.437   1.133   0.263 -0.1473 -0.1464 -0.1506
  101MOL0    Cl13244  -0.468   1.322   0.273 -0.0685 -0.0751  0.3401
  101MOL0     C13245   0.592   1.128   0.507  0.5045  0.0979 -0.3164
  101MOL0     C13246   0.711   1.196   0.534 -0.1039 -0.6157  1.2758
  101MOL0     O13247   0.923   1.415   0.471 -0.4742  0.1952 -0.3275
  101MOL0     C13248   1.084   1.441   0.790  0.5304  0.0112 -0.7365
  101MOL0     C13249   1.191   1.515   0.844 -0.6090 -0.1626 -0.3125
  101MOL0     N13250   1.899   1.994   0.928 -0.9347  0.3640 -0.3516
  101MOL0     N13251   2.018   1.974   0.889 -0.5548  0.0434 -0.9872
  101MOL0     C13252   3.152   1.977   0.512 -0.0594 -0.4910  0.3812
  101MOL0     C13253   3.278   1.972   0.459 -0.2344 -0.6808  0.1064
  101MOL0     C13254   3.689   1.828   0.337 -0.0444  0.5706 -0.9245
  101MOL0     C13255   3.710   1.967   0.337  0.2005 -0.2805  0.0567
  101MOL0     C13256   3.838   2.014   0.319 -0.1345 -0.8219  0.4679
  101MOL0     C13257   3.946   1.940   0.307 -0.3661 -0.7220 -0.2410
  101MOL0     O13258   4.071   2.003   0.285 -0.7194  0.5491  0.5036
  101MOL0     C13259   4.192   1.918   0.302 -0.6546  0.5059 -0.7567
  101MOL0     C13260   4.301   2.023   0.308  0.2359 -0.3515 -0.0915
  101MOL0     C13261   4.432   1.973   0.354 -0.9055 -0.7841  0.8775
  101MOL0     C13262   4.519   1.896   0.249 -0.2773  0.3085 -0.5163
  101MOL0     C13263   4.496   1.750   0.244 -0.6336 -0.7149 -0.0109
  101MOL0     C13264   4.463   1.631   0.258  0.0375 -0.8811  0.4509
  101MOL0     C13265   3.924   1.804   0.325 -0.1784  0.0712  0.9347
  101MOL0     C13266   3.803   1.740   0.338  0.5743  0.0893 -0.1837
  101MOL0     H13267   3.263   1.665   0.300 -0.4386 -0.7160 -1.3427
  101MOL0     H13268   3.055   1.671   0.399 -0.1641  0.6886  0.9461
  101MOL0     H13269   2.915   1.656   0.555  0.6823  1.1440  1.8083
  101MOL0     H13270   2.820   1.747   0.441  0.7372  3.3267 -1.0283
  101MOL0     H13271   2.774   1.779   0.739  0.1072  2.5763 -0.0530
  101MOL0     H13272   2.691   1.662   0.636 -0.9900  1.1173  2.9465
  101MOL0     H13273   2.599   1.824   0.496 -0.6042 -2.5015  1.4442
  101MOL0     H13274   2.688   1.956   0.575  1.8065 -0.8421 -1.7573
  101MOL0     H13275   2.517   1.790   0.754  1.2651  1.2533  0.9800
  101MOL0     H13276   2.570   1.947   0.770 -0.1205 -2.1974  1.4904
  101MOL0     H13277   2.377   1.870   0.533 -2.8317  0.9938  0.2702
  101MOL0     H13278   2.430   2.026   0.573  1.8279 -0.1793 -0.3476
  101MOL0     H13279   2.213   2.010   0.693 -0.4265  2.3782  2.1588
  101MOL0     H13280   2.337   1.986   0.816 -1.2547  2.3609  0.2460
  101MOL0     H13281   2.142   1.781   0.697  0.1800 -1.9334  0.6458
  101MOL0     H13282   2.286   1.713   0.736 -0.8161 -1.8042  0.2783
  101MOL0     H13283   2.249   1.822   0.991 -1.4175  3.2125  0.5474
  101MOL0     H13284   2.167   1.682   0.931  1.2270  0.7418  1.1204
  101MOL0     H13285   1.956   1.695   1.037 -2.3079 -0.5167 -0.9609
  101MOL0     H13286   1.683   1.990   1.036 -1.5086  0.2973 -0.0780
  101MOL0     H13287   1.680   1.819   1.104 -2.3958 -1.3448 -1.1024
  101MOL0     H13288   1.636   1.721   0.893  1.0976 -0.0692  1.6430
  101MOL0     H13289   1.685   1.867   0.814  0.0250  5.9810  2.5174
  101MOL0     H13290   1.435   1.850   0.996  1.1546  0.0246  0.2568
  101MOL0     H13291   1.487   1.978   0.868  0.9063  0.7895  1.9636
  101MOL0     H13292   1.495   1.761   0.708  1.6705  1.0356  1.0495
  101MOL0     H13293   1.359   1.861   0.735  3.1535  4.0632 -0.3892
  101MOL0     H13294   1.274   1.713   0.589  1.5155 -0.6767  0.5234
  101MOL0     H13295   1.070   1.600   0.484 -1.4848 -3.7153 -0.6249
  101MOL0     H13296   0.588   1.377   0.787 -1.7190 -2.6139  1.5953
  101MOL0     H13297   0.370   1.297   0.686  0.4390 -2.2717  0.8167
  101MOL0     H13298   0.418   1.023   0.354 -0.8407 -1.3386  1.1421
  101MOL0     H13299   0.282   1.129   0.317 -1.7308 -0.8531  0.0946
  101MOL0     H13300   0.227   0.883   0.476 -0.5139 -1.2881 -2.3427
  101MOL0     H13301   0.195   0.911   0.300 -2.7167  1.7826 -1.4152
  101MOL0     H13302   0.092   1.107   0.520 -0.5560  0.9813  0.1398
  101MOL0     H13303   0.018   0.957   0.493  0.7493  0.8575  2.5279
  101MOL0     H13304   0.058   1.203   0.299  3.3947 -0.5783  1.1692
  101MOL0     H13305   0.055   1.049   0.228 -1.3197 -1.3935  0.8275
  101MOL0     H13306  -0.178   1.167   0.379 -2.0957  0.2064 -0.1583
  101MOL0     H13307  -0.170   0.994   0.346 -0.9053  1.7737  3.3873
  101MOL0     H13308  -0.146   1.071   0.085 -1.1659 -0.8928 -0.5637
  101MOL0     H13309  -0.173   1.230   0.148 -0.8930  0.1488 -1.1072
  101MOL0     H13310  -0.366   1.106   0.048  1.7506  3.3507  0.5516
  101MOL0     H13311  -0.347   0.973   0.166 -1.5661 -0.1453  0.3869
  101MOL0     H13312  -0.390   1.083   0.348  1.3483 -1.9064 -1.9025
  101MOL0     H13313  -0.540   1.102   0.244 -0.8542  1.3695  1.0490
  101MOL0     H13314   0.604   1.033   0.455  0.0800  0.1136 -0.4526
  101MOL0     H13315   0.805   1.159   0.495 -1.7689 -4.2098  0.1907
  101MOL0     H13316   1.023   1.373   0.848  1.0933  1.5232  1.8343
  101MOL0     H13317   1.232   1.500   0.944 -0.3890 -2.0180 -0.6330
  101MOL0     H13318   3.130   2.073   0.558  0.8112  0.4713 -1.1293
  101MOL0     H13319   3.353   2.050   0.467 -2.3699  1.5308 -0.5230
  101MOL0     H13320   3.626   2.036   0.331  0.0671 -0.3629  0.8854
  101MOL0     H13321   3.843   2.114   0.280 -1.9361 -1.2528 -1.0020
  101MOL0     H13322   4.221   1.853   0.220  1.0114 -1.8730  1.5437
  101MOL0     H13323   4.183   1.866   0.398 -0.1664 -0.7492 -1.3748
  101MOL0     H13324   4.311   2.060   0.206 -1.3420 -0.3628 -0.2675
  101MOL0     H13325   4.269   2.098   0.381 -0.3036 -0.2687 -0.4052
  101MOL0     H13326   4.445   1.922   0.449  5.6939 -1.3324  0.1247
  101MOL0     H13327   4.497   2.061   0.357 -2.6632  0.9703 -3.4834
  101MOL0     H13328   4.505   1.940   0.150  0.2482 -3.7066 -2.5809
  101MOL0     H13329   4.624   1.916   0.276 -0.3158  1.1596 -0.9475
  101MOL0     H13330   4.423   1.536   0.287  0.5713 -0.2159  3.6903
  101MOL0     H13331   4.009   1.738   0.313  0.2828  0.9594 -0.9914
  101MOL0     H13332   3.784   1.634   0.346 -1.1597 -0.0005 -3.7093
  102MOL0     O13333   5.705   6.449   1.175 -0.9400 -0.2554  0.1684
  102MOL0     C13334   5.702   6.393   1.283 -0.1262  0.8034  0.3719
  102MOL0     O13335   5.796   6.303   1.315 -0.8234 -0.3054 -0.2377
  102MOL0     C13336   5.891   6.268   1.223 -1.0947 -0.2665 -1.4065
  102MOL0     C13337   5.929   6.136   1.227  0.4186 -0.6188 -0.5912
  102MOL0     C13338   6.049   6.086   1.162  0.1453  0.5737 -0.8627
  102MOL0     C13339   6.137   6.175   1.100 -0.3847 -0.1671 -0.8194
  102MOL0     O13340   6.254   6.145   1.039  0.2298  0.1268  0.6405
  102MOL0     C13341   6.328   6.034   1.085 -0.2002 -1.0333  0.1492
  102MOL0     C13342   6.447   6.015   0.995  0.1362  0.4056  0.3118
  102MOL0     C13343   6.562   5.948   1.067 -0.2060 -0.1434 -0.1048
  102MOL0     C13344   6.681   5.926   0.969 -1.0895  0.5020 -1.0761
  102MOL0     C13345   6.807   5.881   1.044  0.0289 -0.4128  0.6278
  102MOL0     C13346   6.895   6.001   1.089 -0.0664 -0.5045 -0.0627
  102MOL0     C13347   6.988   5.957   1.206 -0.2142  0.1912 -0.1088
  102MOL0     C13348   6.939   5.975   1.351  0.2582 -0.7135 -0.0955
  102MOL0     N13349   6.832   5.889   1.381  0.2280 -0.0777  0.0687
  102MOL0     C13350   6.845   5.755   1.419  0.8293 -1.1239 -0.0257
  102MOL0     C13351   6.719   5.716   1.450 -0.4137 -1.1151 -0.3972
  102MOL0     C13352   6.672   5.577   1.475 -0.0529 -0.6550 -0.2397
  102MOL0     C13353   6.526   5.561   1.493 -0.8827 -0.8093 -0.1609
  102MOL0     C13354   6.491   5.622   1.632 -1.1853 -0.1795 -0.9461
  102MOL0     C13355   6.350   5.584   1.662  0.8336 -0.3548 -0.9247
  102MOL0     O13356   6.322   5.619   1.796  0.0580  0.7464  0.2769
  102MOL0     C13357   6.200   5.668   1.834 -0.8550 -0.2700 -0.5234
  102MOL0     C13358   6.204   5.752   1.949  0.0921 -0.2960 -0.3052
  102MOL0     C13359   6.084   5.815   1.987 -0.0356  0.2440 -0.4334
  102MOL0     C13360   5.961   5.793   1.925 -0.1763  0.0752  0.4033
  102MOL0     C13361   5.837   5.866   1.967  0.0695 -1.2426 -0.2250
  102MOL0     O13362   5.730   5.844   1.878  0.1117  0.0637 -0.7051
  102MOL0     C13363   5.609   5.880   1.923  0.1628  0.6940 -0.6412
  102MOL0     C13364   5.525   5.797   2.006 -0.1933  0.0497 -0.0809
  102MOL0     C13365   5.401   5.842   2.051  0.8556 -0.2077 -0.6207
  102MOL0     C13366   5.368   5.976   2.037  0.5267 -0.1505 -0.4873
  102MOL0     O13367   5.255   6.021   2.103  0.5839  0.0304  0.0514
  102MOL0     C13368   5.212   6.154   2.082  0.0341  0.4412 -1.1742
  102MOL0     C13369   5.074   6.158   2.144 -0.3364  1.3319 -0.1223
  102MOL0     C13370   5.008   6.291   2.126 -0.4946 -0.0362  0.9630
  102MOL0     C13371   4.881   6.285   2.211 -0.4916  0.0949  0.4825
  102MOL0     C13372   4.823   6.427   2.226  1.3395  0.3868 -0.9058
  102MOL0     C13373   4.692   6.443   2.152  0.5124 -0.5630  0.1804
  102MOL0     C13374   4.645   6.592   2.177 -0.1249  0.0940 -0.0169
  102MOL0     C13375   4.526   6.623   2.099 -0.2208 -0.7329  0.2732
  102MOL0    Cl13376   4.377   6.574   2.183 -0.2217 -0.0660  0.1105
  102MOL0     C13377   5.456   6.057   1.968  0.0477 -0.7057 -0.0714
  102MOL0     C13378   5.572   6.008   1.909  0.7090  0.2178 -0.3628
  102MOL0     O13379   5.840   5.939   2.073  0.3464  0.1054 -0.0275
  102MOL0     C13380   5.959   5.705   1.820  0.1259 -0.5154  0.6050
  102MOL0     C13381   6.074   5.653   1.766  0.1073  0.6125 -0.4556
  102MOL0     N13382   6.634   5.825   1.427 -0.7310 -0.7613 -0.0271
  102MOL0     N13383   6.699   5.929   1.373 -0.4172  0.3811  0.2900
  102MOL0     C13384   6.091   6.312   1.093  0.3837 -0.7041  0.7263
  102MOL0     C13385   5.974   6.357   1.155 -0.3971 -0.6836 -0.6440
  102MOL0     C13386   5.596   6.424   1.377 -0.2328 -0.8200  0.0633
  102MOL0     C13387   5.508   6.528   1.351  0.3802  0.3772 -0.6542
  102MOL0     C13388   5.404   6.556   1.450 -0.6076 -1.0779  0.3895
  102MOL0     C13389   5.401   6.482   1.567  1.6784  0.5169  1.3484
  102MOL0     O13390   5.308   6.498   1.660  0.2244 -0.0369 -0.3614
  102MOL0     C13391   5.283   6.640   1.692  0.5751  0.1467 -0.4797
  102MOL0     C13392   5.178   6.656   1.807 -0.2358  0.5006 -0.5278
  102MOL0     C13393   5.035   6.617   1.761  0.3633 -0.0536  0.3212
  102MOL0     C13394   4.926   6.656   1.863 -0.1201  0.9614  0.1011
  102MOL0     C13395   4.798   6.601   1.813 -0.0234  0.0517 -0.2658
  102MOL0     C13396   4.699   6.531   1.795 -0.3186  0.1838  0.2534
  102MOL0     C13397   5.496   6.389   1.595  0.1401 -0.5391 -0.1222
  102MOL0     C13398   5.596   6.365   1.501 -0.5241 -0.8036 -1.2180
  102MOL0     H13399   5.860   6.070   1.278  0.7717 -0.6653 -0.1646
  102MOL0     H13400   6.084   5.983   1.166  2.4554  1.3466  0.3487
  102MOL0     H13401   6.271   5.941   1.076  2.6259 -2.7020 -1.8729
  102MOL0     H13402   6.372   6.042   1.185 -0.0934  0.5418  0.0132
  102MOL0     H13403   6.459   6.116   0.955  0.1087  1.0159  1.7645
  102MOL0     H13404   6.421   5.946   0.915  1.0190 -0.5370  0.8267
  102MOL0     H13405   6.528   5.860   1.122  0.7147 -1.2193 -1.2177
  102MOL0     H13406   6.579   6.023   1.145 -2.0202  0.2631 -0.0477
  102MOL0     H13407   6.652   5.851   0.894  0.3204  0.5646 -1.7096
  102MOL0     H13408   6.705   6.017   0.913  0.6538  1.0663  0.5027
  102MOL0     H13409   6.853   5.808   0.977 -2.0175 -2.2045  1.0778
  102MOL0     H13410   6.768   5.827   1.130  1.1072 -0.9909  0.7744
  102MOL0     H13411   6.831   6.085   1.120 -0.4048 -1.2096  1.1930
  102MOL0     H13412   6.954   6.010   0.997  1.6064  0.1672  1.0471
  102MOL0     H13413   7.014   5.851   1.202 -1.3854 -0.1048 -0.2874
  102MOL0     H13414   7.082   6.010   1.191 -0.4441  0.7605  0.4032
  102MOL0     H13415   6.919   6.077   1.385 -0.5249 -1.2725  1.2106
  102MOL0     H13416   7.021   5.935   1.412 -0.4966 -0.2619  1.2574
  102MOL0     H13417   6.934   5.693   1.423  1.2461 -0.5128  0.4223
  102MOL0     H13418   6.716   5.539   1.568  1.6692  1.5822 -0.0824
  102MOL0     H13419   6.704   5.515   1.391 -0.0090  0.2485 -0.8921
  102MOL0     H13420   6.509   5.454   1.476  0.7228 -0.9886 -0.7689
  102MOL0     H13421   6.466   5.610   1.415 -0.6902  1.4286  1.0236
  102MOL0     H13422   6.555   5.578   1.709 -0.2803 -0.5064 -1.8645
  102MOL0     H13423   6.508   5.729   1.620 -2.0913 -0.2183 -3.2029
  102MOL0     H13424   6.345   5.474   1.659 -1.0675 -0.3752  0.4739
  102MOL0     H13425   6.283   5.629   1.589  2.2033  0.1858 -1.8946
  102MOL0     H13426   6.298   5.776   1.997  1.0853 -1.4601 -1.5577
  102MOL0     H13427   6.097   5.880   2.073 -1.7568 -0.1989  0.1876
  102MOL0     H13428   5.550   5.695   2.036 -3.4405 -1.0601 -0.7609
  102MOL0     H13429   5.336   5.772   2.103  0.0251 -0.2945 -1.7320
  102MOL0     H13430   5.211   6.165   1.973  2.1059 -0.8511 -1.3793
  102MOL0     H13431   5.273   6.233   2.127 -0.6398  0.0606  0.5115
  102MOL0     H13432   5.069   6.129   2.249 -1.1888  1.9727  0.0257
  102MOL0     H13433   5.015   6.083   2.090  0.7460  1.9856 -2.3244
  102MOL0     H13434   4.984   6.313   2.021 -2.3701 -0.1884  1.3130
  102MOL0     H13435   5.082   6.367   2.154  1.9186 -1.0751 -2.0918
  102MOL0     H13436   4.803   6.224   2.164 -1.0504  2.4172 -1.8567
  102MOL0     H13437   4.906   6.244   2.310  1.1954  2.0165  0.9240
  102MOL0     H13438   4.886   6.510   2.192 -2.3362  2.5748 -3.0763
  102MOL0     H13439   4.805   6.440   2.334  2.8075 -0.1917 -0.5634
  102MOL0     H13440   4.620   6.373   2.195 -1.9555  0.9630 -1.1804
  102MOL0     H13441   4.711   6.415   2.048 -1.1338 -0.7032 -0.1052
  102MOL0     H13442   4.628   6.602   2.285  1.2186  0.7655  0.1605
  102MOL0     H13443   4.732   6.657   2.160 -0.1145  0.2552  0.6122
  102MOL0     H13444   4.529   6.573   2.002 -1.0947 -1.2613  0.5082
  102MOL0     H13445   4.512   6.729   2.078  1.4110 -0.6236 -0.4442
  102MOL0     H13446   5.427   6.156   1.936 -1.5242  0.5110  4.4673
  102MOL0     H13447   5.641   6.077   1.862  1.0794  0.0549 -0.0655
  102MOL0     H13448   5.870   5.661   1.775  1.3286 -0.7690 -1.6497
  102MOL0     H13449   6.050   5.593   1.678  0.3842  0.6452 -0.5547
  102MOL0     H13450   6.148   6.395   1.052 -0.0457 -0.4368  0.6639
  102MOL0     H13451   5.962   6.462   1.175  0.4940 -0.9218  1.3332
  102MOL0     H13452   5.504   6.565   1.249 -3.1751 -5.0633 -3.0159
  102MOL0     H13453   5.329   6.632   1.427  2.2120  1.7419 -0.2735
  102MOL0     H13454   5.257   6.699   1.604 -2.5037 -0.3889 -0.0516
  102MOL0     H13455   5.373   6.664   1.749 -0.5623 -0.5872  1.7695
  102MOL0     H13456   5.212   6.588   1.885 -0.3601  1.0668  0.0202
  102MOL0     H13457   5.173   6.751   1.860 -0.5418 -1.4492  3.3121
  102MOL0     H13458   5.037   6.507   1.761  2.5433 -0.0877 -1.0205
  102MOL0     H13459   4.999   6.650   1.664 -0.9586  1.9932  1.4436
  102MOL0     H13460   4.940   6.596   1.954 -1.3943  2.2863  1.2172
  102MOL0     H13461   4.922   6.763   1.885 -1.2127  0.8891  0.3506
  102MOL0     H13462   4.617   6.464   1.779  0.5563 -0.5050 -1.6518
  102MOL0     H13463   5.506   6.342   1.693 -0.8633 -0.1286  0.1914
  102MOL0     H13464   5.674   6.293   1.523 -1.3536 -0.8772  1.9944
  103MOL0     O13465   0.311   8.347   9.574  0.0311  0.5418 -0.2598
  103MOL0     C13466   0.378   8.387   9.480  0.6050  0.6740  0.8081
  103MOL0     O13467   0.326   8.424   9.360  0.5022 -0.1522 -0.1796
  103MOL0     C13468   0.190   8.422   9.342  0.4535 -0.1331  0.5747
  103MOL0     C13469   0.118   8.549   9.326  0.0026  0.1447 -0.0296
  103MOL0     C13470  -0.023   8.546   9.329 -0.4708  0.2081 -0.2086
  103MOL0     C13471  -0.096   8.434   9.324  0.4598  1.0266 -0.1501
  103MOL0     O13472  -0.224   8.466   9.302 -0.0461  0.0267 -0.1730
  103MOL0     C13473  -0.321   8.368   9.309 -0.1150  1.2029 -0.1207
  103MOL0     C13474  -0.334   8.303   9.172 -0.1301  0.3554  0.3981
  103MOL0     C13475  -0.413   8.179   9.176  1.9620 -0.2272  0.0934
  103MOL0     C13476  -0.557   8.208   9.245 -0.0500 -0.5974  0.2439
  103MOL0     C13477  -0.662   8.115   9.175  0.3331 -0.2342 -0.0900
  103MOL0     C13478  -0.809   8.167   9.219 -0.1049  0.6236 -0.1365
  103MOL0     C13479  -0.914   8.065   9.164 -0.8891  0.2713 -0.4500
  103MOL0     C13480  -1.056   8.074   9.229  0.5527  0.4102  0.0263
  103MOL0     N13481  -1.065   7.999   9.355  0.1694 -0.2403  0.0376
  103MOL0     C13482  -1.178   7.923   9.400  0.4618 -0.4592 -0.2462
  103MOL0     C13483  -1.160   7.910   9.534  0.1037 -1.0148  0.2665
  103MOL0     C13484  -1.235   7.821   9.634  0.0291  0.4220  0.9952
  103MOL0     C13485  -1.289   7.909   9.749 -0.2834  0.2543 -0.1182
  103MOL0     C13486  -1.316   7.827   9.878  0.5944  0.0788  0.2601
  103MOL0     C13487  -1.408   7.706   9.849  0.6407  1.0414  0.0180
  103MOL0     O13488  -1.536   7.742   9.783  0.1995 -0.2046 -0.9600
  103MOL0     C13489  -1.571   7.677   9.667 -0.2150  1.2698 -0.5110
  103MOL0     C13490  -1.613   7.754   9.555 -0.1031 -0.0249 -0.1417
  103MOL0     C13491  -1.645   7.688   9.436 -0.9268 -0.0401  0.6858
  103MOL0     C13492  -1.646   7.548   9.430  0.1714  0.3682  0.6892
  103MOL0     C13493  -1.698   7.482   9.312 -0.4799  0.5015 -0.0537
  103MOL0     O13494  -1.746   7.567   9.212 -0.8391 -0.5515  0.2919
  103MOL0     C13495  -1.810   7.527   9.094  0.1096  0.3228  0.7186
  103MOL0     C13496  -1.783   7.402   9.023 -0.0597 -1.0459 -0.3316
  103MOL0     C13497  -1.851   7.371   8.908  0.1496 -0.8006 -0.0939
  103MOL0     C13498  -1.947   7.458   8.854  1.3551 -0.1598 -0.0844
  103MOL0     O13499  -2.042   7.431   8.753 -0.0538 -0.2801 -0.9768
  103MOL0     C13500  -2.004   7.337   8.651 -0.1386  0.0373  0.1760
  103MOL0     C13501  -2.017   7.382   8.509 -0.2215  0.4789  0.2666
  103MOL0     C13502  -1.903   7.487   8.478  0.7628 -0.0436 -0.3810
  103MOL0     C13503  -1.872   7.499   8.328 -0.3583  0.0354  0.2359
  103MOL0     C13504  -1.800   7.630   8.296  0.7271 -0.6647 -0.5375
  103MOL0     C13505  -1.685   7.676   8.385  0.4315  0.6153  0.2112
  103MOL0     C13506  -1.556   7.593   8.367  0.1933 -0.9463 -0.2466
  103MOL0     C13507  -1.457   7.634   8.478  1.3616  0.1014  0.2338
  103MOL0    Cl13508  -1.422   7.799   8.449  0.2193  0.1824  0.1609
  103MOL0     C13509  -1.974   7.575   8.924 -1.1217 -0.2016 -0.2738
  103MOL0     C13510  -1.906   7.610   9.040  0.4377  1.1227 -0.8700
  103MOL0     O13511  -1.712   7.360   9.301 -0.7596 -0.4810  0.1040
  103MOL0     C13512  -1.605   7.473   9.543 -0.2826  0.0557  0.4802
  103MOL0     C13513  -1.561   7.540   9.653  0.1600  0.3963 -0.9063
  103MOL0     N13514  -1.053   7.980   9.573 -1.2801  0.0024  0.5313
  103MOL0     N13515  -1.005   8.039   9.468  0.1414  0.4413  0.0910
  103MOL0     C13516  -0.030   8.313   9.337  0.4141  0.8035  0.4420
  103MOL0     C13517   0.109   8.303   9.334  0.6284 -0.2492  0.8264
  103MOL0     C13518   0.514   8.423   9.511  0.6273  0.1903 -0.2785
  103MOL0     C13519   0.580   8.396   9.637 -0.6444  0.0197  0.1955
  103MOL0     C13520   0.715   8.431   9.657 -0.3253  0.1474 -0.2455
  103MOL0     C13521   0.792   8.482   9.552 -0.3313 -0.5062 -0.1966
  103MOL0     O13522   0.927   8.517   9.554 -0.2018 -0.3929 -0.0511
  103MOL0     C13523   1.001   8.471   9.671  0.9115 -0.0350  0.4836
  103MOL0     C13524   0.995   8.571   9.785 -0.2417  0.3195  0.0902
  103MOL0     C13525   1.054   8.708   9.740 -1.4501  0.5767 -0.8248
  103MOL0     C13526   1.200   8.716   9.679 -1.3437 -0.2667 -0.3815
  103MOL0     C13527   1.298   8.643   9.766 -0.1840 -0.6944  0.8004
  103MOL0     C13528   1.385   8.601   9.839 -0.0298 -0.3108  0.2667
  103MOL0     C13529   0.728   8.499   9.432 -0.5460  0.1994  0.0448
  103MOL0     C13530   0.586   8.479   9.412 -0.7919 -0.5806 -0.3065
  103MOL0     H13531   0.173   8.641   9.312 -1.4361  1.2730  1.4481
  103MOL0     H13532  -0.078   8.638   9.310  1.5696  1.2541 -1.5140
  103MOL0     H13533  -0.419   8.411   9.332 -0.9771  1.5449 -3.7914
  103MOL0     H13534  -0.298   8.291   9.383  0.6428 -0.3802 -1.9116
  103MOL0     H13535  -0.232   8.283   9.139  0.4488  2.1607  0.9255
  103MOL0     H13536  -0.386   8.370   9.103  1.0955  1.4038  0.4406
  103MOL0     H13537  -0.364   8.097   9.230 -0.9151 -1.7956  0.5157
  103MOL0     H13538  -0.418   8.137   9.075  1.0242 -0.4359  0.2142
  103MOL0     H13539  -0.558   8.198   9.353 -3.6868  0.8374  0.4694
  103MOL0     H13540  -0.582   8.312   9.219  1.6794 -0.0887  0.4342
  103MOL0     H13541  -0.648   8.010   9.200  1.3833 -0.1644 -0.3311
  103MOL0     H13542  -0.647   8.110   9.067 -3.1761  1.0452 -0.7693
  103MOL0     H13543  -0.823   8.272   9.191 -0.6479  1.0710  1.6603
  103MOL0     H13544  -0.824   8.169   9.327  0.3635 -0.2266 -0.0452
  103MOL0     H13545  -0.917   8.075   9.055  1.4624  0.6111 -0.5454
  103MOL0     H13546  -0.878   7.966   9.193 -0.3352  1.1800  2.3609
  103MOL0     H13547  -1.137   8.040   9.164 -0.5220 -2.2327  2.5464
  103MOL0     H13548  -1.081   8.176   9.257  0.1898 -0.4389  3.1756
  103MOL0     H13549  -1.259   7.881   9.342 -1.2522  1.9899  0.2019
  103MOL0     H13550  -1.165   7.747   9.675 -2.1864 -2.7260 -0.5092
  103MOL0     H13551  -1.310   7.764   9.579  1.0570  1.1194 -1.2292
  103MOL0     H13552  -1.380   7.960   9.716  0.9300  3.1237  0.6962
  103MOL0     H13553  -1.207   7.978   9.771  0.2477  0.3575 -2.2535
  103MOL0     H13554  -1.216   7.800   9.914  0.5320 -2.8683 -1.4244
  103MOL0     H13555  -1.361   7.894   9.952  2.7342 -1.2385  2.9621
  103MOL0     H13556  -1.429   7.657   9.944  0.5070  1.7191  0.3389
  103MOL0     H13557  -1.356   7.637   9.781 -1.0013 -0.5361  0.2652
  103MOL0     H13558  -1.606   7.861   9.574  2.4619 -0.3289  1.2156
  103MOL0     H13559  -1.660   7.751   9.348 -0.7017 -0.7442  0.1318
  103MOL0     H13560  -1.721   7.323   9.066 -3.8171 -3.9335  0.2770
  103MOL0     H13561  -1.846   7.274   8.859 -1.8730 -0.3984 -1.1951
  103MOL0     H13562  -2.083   7.264   8.669 -2.1945  2.2372  0.5320
  103MOL0     H13563  -1.907   7.289   8.666  0.1766 -0.5711 -2.9319
  103MOL0     H13564  -2.115   7.430   8.507 -1.1342 -1.2175  1.4816
  103MOL0     H13565  -2.012   7.297   8.440  3.1526  2.6870 -2.5806
  103MOL0     H13566  -1.812   7.460   8.532  0.8396 -3.3813 -1.9034
  103MOL0     H13567  -1.937   7.584   8.514  0.3542 -0.2127 -0.2985
  103MOL0     H13568  -1.828   7.410   8.283 -1.6929  0.2735 -1.6686
  103MOL0     H13569  -1.969   7.499   8.277  0.4708 -0.8962 -1.4467
  103MOL0     H13570  -1.868   7.715   8.293 -0.4703 -1.4936  1.3088
  103MOL0     H13571  -1.762   7.617   8.194  1.1302 -0.6549 -0.3919
  103MOL0     H13572  -1.722   7.677   8.488 -0.2258  0.9477 -0.0247
  103MOL0     H13573  -1.664   7.780   8.358  1.7695 -0.0496 -1.5279
  103MOL0     H13574  -1.585   7.488   8.371 -0.3870 -0.7460  1.1235
  103MOL0     H13575  -1.513   7.616   8.269  2.8123  0.1213  1.0655
  103MOL0     H13576  -1.372   7.568   8.456 -0.2604 -2.5357  1.3948
  103MOL0     H13577  -1.481   7.610   8.582  3.3702 -1.3120  0.4266
  103MOL0     H13578  -2.056   7.644   8.906 -0.8844 -0.0751 -0.9223
  103MOL0     H13579  -1.920   7.699   9.101  3.1538  1.3013 -0.4097
  103MOL0     H13580  -1.627   7.367   9.536 -0.5339  0.2115 -2.0701
  103MOL0     H13581  -1.548   7.476   9.740 -0.2092 -0.6304 -1.6042
  103MOL0     H13582  -0.088   8.222   9.349 -1.3809  1.7359 -0.7043
  103MOL0     H13583   0.156   8.206   9.348 -0.4060 -1.8549 -4.5400
  103MOL0     H13584   0.526   8.351   9.720 -3.3968  4.6511  1.2910
  103MOL0     H13585   0.762   8.424   9.754 -0.1071  2.3361 -0.1370
  103MOL0     H13586   1.100   8.469   9.626  0.3882 -0.4182 -0.6878
  103MOL0     H13587   0.982   8.368   9.705  0.5500 -0.4439 -0.9169
  103MOL0     H13588   0.893   8.589   9.819  0.8134 -0.7800  4.5320
  103MOL0     H13589   1.041   8.534   9.877 -0.5058 -1.3758 -0.4378
  103MOL0     H13590   1.050   8.760   9.836 -0.4416  2.9397 -1.9862
  103MOL0     H13591   0.980   8.751   9.672 -4.5850 -0.4677  1.6490
  103MOL0     H13592   1.203   8.685   9.574 -0.0668  0.6951 -0.6492
  103MOL0     H13593   1.224   8.823   9.673  2.8859 -1.1264 -2.1874
  103MOL0     H13594   1.465   8.576   9.906  1.3255  2.8309  0.0211
  103MOL0     H13595   0.777   8.538   9.343 -2.0000 -0.7373 -1.2420
  103MOL0     H13596   0.530   8.506   9.322 -1.7376  0.0260  0.4387
  104MOL0     O13597   0.336   4.265   3.981  0.3533 -0.1031  0.3475
  104MOL0     C13598   0.265   4.168   3.956  0.3152 -0.1809 -0.0225
  104MOL0     O13599   0.126   4.168   3.918  0.1320  0.1359  0.5081
  104MOL0     C13600   0.049   4.278   3.922 -0.4463  0.5515 -0.2118
  104MOL0     C13601  -0.060   4.278   3.836 -0.3499 -0.9387 -0.1191
  104MOL0     C13602  -0.158   4.386   3.848 -0.0936  0.1388 -0.4070
  104MOL0     C13603  -0.141   4.501   3.928 -0.0121  0.7538  0.2732
  104MOL0     O13604  -0.213   4.617   3.913 -0.2557  0.0117  0.1353
  104MOL0     C13605  -0.344   4.597   3.864 -0.1229 -0.3164  0.5513
  104MOL0     C13606  -0.437   4.684   3.952 -0.8265 -0.3536 -0.2770
  104MOL0     C13607  -0.581   4.656   3.923 -0.1650 -0.2512  0.6019
  104MOL0     C13608  -0.684   4.749   4.001 -0.3383  0.5455  0.9225
  104MOL0     C13609  -0.819   4.691   3.992  0.5769 -0.0664  0.1430
  104MOL0     C13610  -0.874   4.697   3.842 -0.1610 -0.6456 -0.2664
  104MOL0     C13611  -0.993   4.615   3.821  0.4867 -0.3504 -0.0047
  104MOL0     C13612  -1.126   4.655   3.888  0.3862  0.3348  0.6819
  104MOL0     N13613  -1.184   4.773   3.824  0.5710  0.4004 -0.3294
  104MOL0     C13614  -1.159   4.900   3.869 -0.6483 -0.1564 -0.7712
  104MOL0     C13615  -1.219   4.974   3.768 -1.0613 -0.3326 -0.1811
  104MOL0     C13616  -1.237   5.125   3.762 -0.0916 -0.4180 -0.4298
  104MOL0     C13617  -1.178   5.195   3.642 -0.1164 -0.2351  0.9279
  104MOL0     C13618  -1.025   5.161   3.631 -0.2478  0.5342 -1.0083
  104MOL0     C13619  -0.958   5.285   3.574 -0.1373  1.0434 -0.0745
  104MOL0     O13620  -0.815   5.266   3.556 -0.4282 -0.0360  0.1891
  104MOL0     C13621  -0.731   5.325   3.460  0.8500 -0.0829  0.1039
  104MOL0     C13622  -0.604   5.275   3.456 -0.6793 -0.0140  0.1031
  104MOL0     C13623  -0.512   5.334   3.369  0.5345 -0.1130 -0.8718
  104MOL0     C13624  -0.554   5.438   3.285 -0.2393 -0.1688  0.8043
  104MOL0     C13625  -0.457   5.509   3.190 -0.8255  1.0610 -0.5672
  104MOL0     O13626  -0.505   5.620   3.136 -0.4997 -0.1087  0.9498
  104MOL0     C13627  -0.440   5.670   3.027 -0.3693  0.5785  0.0650
  104MOL0     C13628  -0.484   5.653   2.893 -0.1425  0.2610 -0.2229
  104MOL0     C13629  -0.442   5.731   2.795 -0.0489 -0.9817  0.3224
  104MOL0     C13630  -0.346   5.831   2.816 -0.3861 -0.1578  0.5499
  104MOL0     O13631  -0.300   5.892   2.697 -0.5146  0.5673  0.2035
  104MOL0     C13632  -0.251   6.020   2.714 -0.2663  0.2212  1.0325
  104MOL0     C13633  -0.357   6.126   2.722 -0.3466  0.0883 -0.1286
  104MOL0     C13634  -0.452   6.131   2.592  0.2882 -0.2588 -0.5062
  104MOL0     C13635  -0.592   6.204   2.618 -0.4317  0.9351 -0.5004
  104MOL0     C13636  -0.588   6.364   2.613 -0.0514  1.1209 -0.8201
  104MOL0     C13637  -0.719   6.428   2.671  0.1398 -0.1505  0.5104
  104MOL0     C13638  -0.741   6.570   2.623 -0.0002  0.1752  0.0337
  104MOL0     C13639  -0.826   6.580   2.493  0.5653 -0.5275  0.5236
  104MOL0    Cl13640  -0.849   6.757   2.440  0.6675 -0.1517  0.1164
  104MOL0     C13641  -0.292   5.851   2.945  0.8211 -0.4037  0.9504
  104MOL0     C13642  -0.343   5.768   3.052  0.0112 -0.0974  0.0011
  104MOL0     O13643  -0.348   5.448   3.167 -1.3390  0.0188 -0.0517
  104MOL0     C13644  -0.692   5.477   3.278  0.3776 -0.6067  0.8134
  104MOL0     C13645  -0.778   5.430   3.372 -0.3182  0.9707  0.0238
  104MOL0     N13646  -1.263   4.892   3.668 -0.7332 -0.1195  0.2785
  104MOL0     N13647  -1.246   4.775   3.703  0.2386  0.0274 -0.5040
  104MOL0     C13648  -0.030   4.504   4.017 -0.6238 -0.5877  0.4707
  104MOL0     C13649   0.055   4.386   4.029  1.1074  0.5137  0.9514
  104MOL0     C13650   0.323   4.041   3.991  0.6091  0.5417 -1.0772
  104MOL0     C13651   0.457   4.017   3.958  0.4777  0.2978 -0.0653
  104MOL0     C13652   0.511   3.894   3.988 -0.6336 -0.3490  0.1060
  104MOL0     C13653   0.438   3.790   4.046 -0.7234 -0.1154 -0.0640
  104MOL0     O13654   0.512   3.685   4.087 -1.3048  0.6646 -0.0333
  104MOL0     C13655   0.449   3.566   4.127  0.0241  0.3494 -0.4408
  104MOL0     C13656   0.409   3.574   4.268  0.0775  0.0378  0.1364
  104MOL0     C13657   0.329   3.449   4.305 -0.6300  0.1372 -0.2555
  104MOL0     C13658   0.318   3.430   4.463 -0.0573  0.1188 -0.0393
  104MOL0     C13659   0.434   3.365   4.537 -0.2140 -0.4252 -0.7660
  104MOL0     C13660   0.526   3.313   4.602 -0.6156  0.3159 -0.1213
  104MOL0     C13661   0.297   3.811   4.063  0.5455 -0.5840  0.6933
  104MOL0     C13662   0.240   3.931   4.039 -0.2507 -0.2287 -0.0986
  104MOL0     H13663  -0.066   4.205   3.757 -1.9203 -0.9265 -0.0389
  104MOL0     H13664  -0.238   4.377   3.775 -0.7688  2.0675  0.0530
  104MOL0     H13665  -0.378   4.494   3.878  0.2625 -0.4698  0.3811
  104MOL0     H13666  -0.334   4.624   3.758 -0.6586  2.6894  1.1696
  104MOL0     H13667  -0.407   4.788   3.944 -2.7126  0.6243  3.4304
  104MOL0     H13668  -0.422   4.658   4.057 -5.3352  1.0132  0.9133
  104MOL0     H13669  -0.606   4.554   3.954 -0.2693  0.8130  4.6781
  104MOL0     H13670  -0.600   4.671   3.816 -0.9033 -0.3104  0.7145
  104MOL0     H13671  -0.646   4.768   4.102  0.9206  2.3252  0.1823
  104MOL0     H13672  -0.693   4.846   3.951 -2.7914  1.0835  2.2513
  104MOL0     H13673  -0.889   4.739   4.061  1.6661  0.2688  1.0556
  104MOL0     H13674  -0.826   4.588   4.030 -1.6398 -0.0569 -0.1371
  104MOL0     H13675  -0.796   4.664   3.774  1.2289  2.6296 -0.4863
  104MOL0     H13676  -0.888   4.800   3.808  3.0050 -0.1873 -0.4860
  104MOL0     H13677  -1.026   4.624   3.717 -0.0086  2.0495  0.3053
  104MOL0     H13678  -0.962   4.510   3.817  3.3240  0.3274  1.4561
  104MOL0     H13679  -1.138   4.673   3.995  2.5442  1.5086  0.7858
  104MOL0     H13680  -1.197   4.574   3.872  2.4748 -1.3518 -0.5987
  104MOL0     H13681  -1.117   4.936   3.962 -3.4196  1.4756 -0.0135
  104MOL0     H13682  -1.188   5.168   3.850  0.1327  0.4909 -0.9907
  104MOL0     H13683  -1.343   5.149   3.751  0.2146  0.4359 -1.7594
  104MOL0     H13684  -1.170   5.298   3.679  3.3356 -0.2348  0.5366
  104MOL0     H13685  -1.237   5.184   3.551  2.3231 -2.2805 -0.5404
  104MOL0     H13686  -0.981   5.142   3.730 -2.9357 -2.6957 -0.2431
  104MOL0     H13687  -1.020   5.071   3.569  1.8565  0.4575 -0.8080
  104MOL0     H13688  -0.974   5.364   3.648  1.8225  0.7087  0.7608
  104MOL0     H13689  -1.002   5.316   3.479  0.2298  1.2964 -0.1628
  104MOL0     H13690  -0.571   5.189   3.514 -0.6203 -1.3737 -1.8630
  104MOL0     H13691  -0.410   5.300   3.385  1.0377  2.4369  2.4929
  104MOL0     H13692  -0.560   5.579   2.871 -1.8104  2.4347 -2.2982
  104MOL0     H13693  -0.493   5.758   2.703  4.8463  2.6143 -1.7688
  104MOL0     H13694  -0.194   6.040   2.623 -3.2507  0.3456 -0.9557
  104MOL0     H13695  -0.181   6.027   2.797 -0.3294  1.9750  0.9688
  104MOL0     H13696  -0.304   6.220   2.744 -2.2454  1.1141  0.3150
  104MOL0     H13697  -0.431   6.102   2.798 -0.1999 -1.7984 -0.5457
  104MOL0     H13698  -0.476   6.029   2.559  2.0112 -0.9841  0.3105
  104MOL0     H13699  -0.402   6.181   2.509  0.5921 -1.3797 -1.0202
  104MOL0     H13700  -0.656   6.169   2.537  1.5284 -0.3860 -1.5658
  104MOL0     H13701  -0.640   6.178   2.712 -0.9539  4.8141  0.4973
  104MOL0     H13702  -0.581   6.394   2.508 -1.7585  1.5961 -0.8260
  104MOL0     H13703  -0.498   6.395   2.667  0.4311  4.7560 -3.3695
  104MOL0     H13704  -0.707   6.426   2.780  2.6102 -1.0442  0.2887
  104MOL0     H13705  -0.802   6.364   2.639 -0.5526  1.7121 -1.7170
  104MOL0     H13706  -0.801   6.623   2.697 -0.2902  0.0529 -0.1099
  104MOL0     H13707  -0.645   6.620   2.610  1.7222 -3.3041 -2.3345
  104MOL0     H13708  -0.924   6.534   2.507  0.0026  0.7579  0.9112
  104MOL0     H13709  -0.766   6.523   2.421 -1.5136 -1.0274 -0.9286
  104MOL0     H13710  -0.218   5.927   2.967  0.0330  0.6423  0.0326
  104MOL0     H13711  -0.294   5.787   3.147 -2.1299 -0.7961  1.3120
  104MOL0     H13712  -0.720   5.553   3.205  2.0220 -0.0619  0.6869
  104MOL0     H13713  -0.881   5.461   3.363  0.6852  4.7169  0.0471
  104MOL0     H13714  -0.019   4.596   4.074 -1.7023  1.7101 -2.7104
  104MOL0     H13715   0.145   4.402   4.088  1.6076  2.3696 -0.2428
  104MOL0     H13716   0.526   4.098   3.934 -0.0739 -0.0381 -3.2097
  104MOL0     H13717   0.618   3.875   3.991 -0.5024  0.4532  1.8557
  104MOL0     H13718   0.512   3.480   4.101 -1.0505 -0.4805 -0.3698
  104MOL0     H13719   0.362   3.549   4.063 -0.8007 -0.1560  0.7815
  104MOL0     H13720   0.497   3.593   4.330  1.0065 -1.4828 -0.6556
  104MOL0     H13721   0.342   3.661   4.266  0.1819  0.1427  0.9338
  104MOL0     H13722   0.376   3.360   4.262 -1.3763  0.0485 -0.9128
  104MOL0     H13723   0.224   3.445   4.275 -0.8583 -0.4786  0.5646
  104MOL0     H13724   0.312   3.530   4.507  0.7514  0.1426  0.0255
  104MOL0     H13725   0.231   3.372   4.495 -1.1568  0.8415 -1.6030
  104MOL0     H13726   0.601   3.265   4.662  1.0710  2.5422 -0.3059
  104MOL0     H13727   0.237   3.726   4.094  0.3213 -0.4733  0.5728
  104MOL0     H13728   0.133   3.949   4.047  0.0220  0.9762  1.2794
  105MOL0     O13729   9.739   3.211   9.480 -0.2806  0.4735  0.1741
  105MOL0     C13730   9.819   3.117   9.488 -0.6595  1.1941 -1.9605
  105MOL0     O13731   9.902   3.071   9.387  0.0586  0.5672 -0.3731
  105MOL0     C13732   9.913   3.142   9.265 -1.0248 -0.5493 -0.5351
  105MOL0     C13733   9.814   3.125   9.175  0.4435  0.3575 -0.3277
  105MOL0     C13734   9.828   3.191   9.051 -0.0348  0.2575 -0.2345
  105MOL0     C13735   9.935   3.276   9.027 -0.1977 -0.5966  0.2370
  105MOL0     O13736   9.929   3.328   8.900 -0.5440 -0.1686 -0.3145
  105MOL0     C13737  10.011   3.450   8.875  0.2392 -0.7007  0.8440
  105MOL0     C13738   9.949   3.514   8.745 -0.4373  0.7725 -0.4287
  105MOL0     C13739   9.977   3.413   8.624  0.0578 -0.2741 -0.2210
  105MOL0     C13740   9.947   3.490   8.497  0.0947  0.4427 -0.4822
  105MOL0     C13741   9.938   3.422   8.363  0.3316 -0.9736  0.0929
  105MOL0     C13742  10.083   3.382   8.305  0.1711  0.0390  0.6998
  105MOL0     C13743  10.093   3.368   8.158  0.5143  0.1939  0.0837
  105MOL0     C13744   9.990   3.269   8.101 -0.3003 -0.0867 -0.9473
  105MOL0     N13745  10.022   3.224   7.964  1.0033  0.7341  0.3692
  105MOL0     C13746   9.932   3.138   7.888 -0.6106 -0.0585  1.2122
  105MOL0     C13747  10.003   3.111   7.776 -0.4115 -0.5303  0.3998
  105MOL0     C13748   9.962   3.041   7.650  0.4111 -0.2436  0.5298
  105MOL0     C13749   9.827   2.961   7.665 -0.1903 -0.3196 -0.0253
  105MOL0     C13750   9.711   3.042   7.612  0.9758 -0.0944 -0.1411
  105MOL0     C13751   9.587   2.965   7.611 -0.6517  0.5418 -0.0745
  105MOL0     O13752   9.571   2.884   7.500 -0.9096 -0.3677  0.7197
  105MOL0     C13753   9.449   2.829   7.488  0.1670  1.5802  0.5168
  105MOL0     C13754   9.341   2.840   7.578 -0.9290 -0.8886  0.3069
  105MOL0     C13755   9.230   2.765   7.567  0.1782 -0.9233  0.9771
  105MOL0     C13756   9.203   2.688   7.456 -0.2563 -1.5179  0.4512
  105MOL0     C13757   9.079   2.612   7.442  0.8049  0.5532 -0.2340
  105MOL0     O13758   8.972   2.626   7.537  0.7045  1.0183  0.0309
  105MOL0     C13759   8.854   2.569   7.498 -0.5776 -0.1985  0.4496
  105MOL0     C13760   8.776   2.634   7.405  0.2033  0.1475  0.2839
  105MOL0     C13761   8.646   2.587   7.379 -0.0292 -0.3723  0.2535
  105MOL0     C13762   8.602   2.467   7.440 -0.3852 -1.3835 -0.6289
  105MOL0     O13763   8.477   2.427   7.399  0.2827 -0.4049  0.5069
  105MOL0     C13764   8.405   2.312   7.459 -0.6699  0.4544 -0.2135
  105MOL0     C13765   8.455   2.172   7.395  0.2018 -1.1346 -0.0954
  105MOL0     C13766   8.445   2.168   7.247  0.1677  0.9337  0.9116
  105MOL0     C13767   8.473   2.027   7.175  0.8984 -0.2807 -0.2433
  105MOL0     C13768   8.439   2.040   7.024  0.3072  0.0844 -0.1062
  105MOL0     C13769   8.421   1.909   6.940 -0.5002  0.0653 -0.5446
  105MOL0     C13770   8.460   1.928   6.790  0.3532  0.7622 -0.5196
  105MOL0     C13771   8.375   2.046   6.728  0.5254 -0.0311  0.3651
  105MOL0    Cl13772   8.206   1.991   6.692 -0.1987  0.5725  0.0064
  105MOL0     C13773   8.683   2.399   7.528  0.6792 -0.3728  0.7211
  105MOL0     C13774   8.798   2.457   7.564 -0.5162  0.7731  1.0742
  105MOL0     O13775   9.079   2.533   7.348 -0.5519  0.5974  0.8043
  105MOL0     C13776   9.305   2.687   7.355 -0.7832 -0.3730  0.1073
  105MOL0     C13777   9.432   2.746   7.381 -1.3874  0.1075  0.4721
  105MOL0     N13778  10.133   3.162   7.788 -0.2136  0.2361 -0.1857
  105MOL0     N13779  10.141   3.221   7.905 -0.5865 -0.0344 -0.0202
  105MOL0     C13780  10.028   3.306   9.128  0.1226 -0.9775  0.0112
  105MOL0     C13781  10.015   3.237   9.253 -0.8941  0.0341  0.1919
  105MOL0     C13782   9.798   3.033   9.603  1.0710  0.0869 -0.7313
  105MOL0     C13783   9.700   3.063   9.700  0.2482 -0.0635 -0.2620
  105MOL0     C13784   9.670   2.977   9.812 -0.6351  0.1746  0.2177
  105MOL0     C13785   9.756   2.878   9.839  0.0868  0.8914  0.0926
  105MOL0     O13786   9.735   2.799   9.947  0.3903 -0.4127 -0.0983
  105MOL0     C13787   9.854   2.746  10.013  0.1987  0.3302 -0.3856
  105MOL0     C13788   9.821   2.692  10.153  0.2303 -0.4097  0.4619
  105MOL0     C13789   9.816   2.815  10.253 -0.1167  0.4652  0.2779
  105MOL0     C13790   9.735   2.791  10.385 -0.6198  0.3156  0.4053
  105MOL0     C13791   9.817   2.766  10.503  0.2275  0.8351  0.2982
  105MOL0     C13792   9.878   2.732  10.604  0.6955  0.6482 -0.1852
  105MOL0     C13793   9.851   2.840   9.746  0.1487 -0.1818  0.5720
  105MOL0     C13794   9.872   2.917   9.625 -0.4203 -0.2073  0.4074
  105MOL0     H13795   9.725   3.068   9.197 -1.4514  2.5135 -1.8835
  105MOL0     H13796   9.751   3.166   8.979 -0.7995  1.7206  0.0454
  105MOL0     H13797  10.113   3.416   8.857 -0.2615 -0.7320 -2.4986
  105MOL0     H13798  10.024   3.520   8.958  1.4478  2.2383 -1.6599
  105MOL0     H13799  10.009   3.605   8.734  1.9315 -0.7344 -0.5897
  105MOL0     H13800   9.848   3.556   8.757 -1.4095 -2.1317  4.3142
  105MOL0     H13801   9.908   3.329   8.632 -0.3911  0.1236  0.2192
  105MOL0     H13802  10.074   3.362   8.620 -0.2883 -1.0475 -5.9512
  105MOL0     H13803   9.855   3.548   8.508 -0.2199 -0.0538 -0.4907
  105MOL0     H13804  10.021   3.571   8.500 -1.0733  1.7015  4.7773
  105MOL0     H13805   9.901   3.498   8.294  1.4164 -2.1734 -1.9015
  105MOL0     H13806   9.866   3.341   8.350 -0.7249 -0.3101  1.5230
  105MOL0     H13807  10.111   3.292   8.361 -0.4384 -0.6703 -0.1159
  105MOL0     H13808  10.163   3.448   8.340  0.0065 -0.9541  3.1734
  105MOL0     H13809  10.065   3.456   8.099  0.1880 -1.3974 -2.2954
  105MOL0     H13810  10.194   3.342   8.125 -0.2298 -0.6234 -1.6773
  105MOL0     H13811   9.892   3.318   8.101  0.0161  0.7144 -3.5724
  105MOL0     H13812   9.977   3.181   8.164 -1.5692  1.0829  0.4819
  105MOL0     H13813   9.834   3.111   7.926 -0.2911  0.9697  2.8973
  105MOL0     H13814  10.038   2.972   7.610 -0.8054 -1.0020 -0.5543
  105MOL0     H13815   9.946   3.122   7.578 -1.8701  1.0405  2.3425
  105MOL0     H13816   9.814   2.937   7.771  5.0314 -1.5195  0.6038
  105MOL0     H13817   9.841   2.865   7.615  0.4974  0.0024 -0.4654
  105MOL0     H13818   9.709   3.134   7.671  2.0163 -0.3923  0.3883
  105MOL0     H13819   9.732   3.077   7.511 -1.1657  2.6835  0.2387
  105MOL0     H13820   9.499   3.030   7.615 -0.7593  0.4462 -0.6981
  105MOL0     H13821   9.598   2.890   7.689  1.4283 -0.7779 -1.5188
  105MOL0     H13822   9.343   2.906   7.665 -1.2735  1.6676 -1.5111
  105MOL0     H13823   9.153   2.768   7.643  0.4078 -3.2598  1.3870
  105MOL0     H13824   8.803   2.735   7.374 -0.4344  0.1193 -0.3976
  105MOL0     H13825   8.578   2.648   7.320 -0.1500  1.5495  2.2533
  105MOL0     H13826   8.303   2.318   7.420  0.4719 -0.0036 -3.7116
  105MOL0     H13827   8.413   2.315   7.568 -1.5224  0.5050 -0.1453
  105MOL0     H13828   8.399   2.090   7.439  0.5620 -1.1344  0.3718
  105MOL0     H13829   8.556   2.150   7.430 -0.1470  0.4159  2.0286
  105MOL0     H13830   8.515   2.242   7.205 -0.7507  1.9616  1.1459
  105MOL0     H13831   8.349   2.206   7.212  1.6792  2.9831 -1.3763
  105MOL0     H13832   8.570   1.979   7.192  1.1080 -0.5982 -2.1201
  105MOL0     H13833   8.404   1.962   7.229  1.3810 -0.5330  0.0754
  105MOL0     H13834   8.509   2.110   6.977 -1.6740  1.9524 -0.4096
  105MOL0     H13835   8.341   2.087   7.018  0.3160 -0.1002 -2.5160
  105MOL0     H13836   8.320   1.868   6.943 -0.4910  0.1218  0.9709
  105MOL0     H13837   8.484   1.836   6.990 -1.8375 -0.2800  0.7095
  105MOL0     H13838   8.567   1.951   6.790  0.7608 -0.9573 -0.1330
  105MOL0     H13839   8.449   1.834   6.735 -0.2374  1.0755 -0.9507
  105MOL0     H13840   8.426   2.070   6.634  1.7150 -0.5691  0.8504
  105MOL0     H13841   8.369   2.130   6.797  0.7473  0.7367 -0.5306
  105MOL0     H13842   8.638   2.313   7.577 -5.7264  2.9055  1.6622
  105MOL0     H13843   8.849   2.418   7.651  0.7342 -1.1072 -0.4262
  105MOL0     H13844   9.287   2.630   7.264 -1.4784 -1.1489  0.7156
  105MOL0     H13845   9.515   2.730   7.312 -2.0504 -4.8201  0.4431
  105MOL0     H13846  10.112   3.371   9.107  0.5107 -1.2322  0.7592
  105MOL0     H13847  10.084   3.233   9.336 -2.9117 -0.6828  1.9345
  105MOL0     H13848   9.626   3.140   9.684 -1.0028 -1.6747 -2.8870
  105MOL0     H13849   9.594   2.998   9.886 -0.2159 -1.2510  1.1008
  105MOL0     H13850   9.940   2.812  10.026  0.5854 -0.0727 -0.8307
  105MOL0     H13851   9.891   2.655   9.965  1.3786  0.0607  0.9701
  105MOL0     H13852   9.727   2.635  10.157  0.0281 -0.0836  0.3868
  105MOL0     H13853   9.901   2.626  10.187  0.2457 -0.5608  0.1403
  105MOL0     H13854   9.760   2.894  10.201 -0.1972 -0.4194 -1.0281
  105MOL0     H13855   9.913   2.857  10.281 -0.6392  1.3089  0.8714
  105MOL0     H13856   9.693   2.890  10.405 -0.7274  1.0575 -2.9087
  105MOL0     H13857   9.647   2.727  10.371 -1.5448  0.3617  4.6901
  105MOL0     H13858   9.946   2.710  10.684  0.4667 -0.4145 -0.2582
  105MOL0     H13859   9.907   2.749   9.763  2.0093  0.5331 -1.2602
  105MOL0     H13860   9.943   2.887   9.548 -1.4842 -2.1173  0.1105
  106MOL0     O13861  11.239   1.858   8.068 -0.2648 -0.4283  0.5108
  106MOL0     C13862  11.331   1.786   8.109  0.1035 -0.0439  0.5591
  106MOL0     O13863  11.344   1.655   8.088 -0.0385  0.7665 -1.2665
  106MOL0     C13864  11.234   1.581   8.090  0.2869 -0.2557  0.1898
  106MOL0     C13865  11.202   1.482   8.186 -0.7104 -1.1239  0.4690
  106MOL0     C13866  11.101   1.392   8.179  0.8795 -0.4758  0.3847
  106MOL0     C13867  11.009   1.405   8.074  0.0201  0.0331 -0.4261
  106MOL0     O13868  10.918   1.308   8.073 -0.8546 -0.1215 -0.3768
  106MOL0     C13869  10.796   1.321   8.000  0.7104  0.0899 -0.3100
  106MOL0     C13870  10.682   1.251   8.067  0.6531  0.3160 -1.2123
  106MOL0     C13871  10.552   1.338   8.054 -0.8294  1.0669 -0.6943
  106MOL0     C13872  10.429   1.270   8.117  0.0595  0.2805 -0.4554
  106MOL0     C13873  10.305   1.298   8.046 -1.3379  0.8420  0.7118
  106MOL0     C13874  10.270   1.443   8.047  0.4624  0.4181  0.1231
  106MOL0     C13875  10.123   1.460   8.008  1.7764 -0.6598 -0.1945
  106MOL0     C13876  10.033   1.510   8.118 -0.5400 -0.7860  0.0905
  106MOL0     N13877   9.890   1.529   8.069  0.1947 -0.5913  0.5687
  106MOL0     C13878   9.829   1.422   8.001 -0.0276 -0.1984  0.1553
  106MOL0     C13879   9.704   1.475   7.966  0.1603 -0.9256 -0.1869
  106MOL0     C13880   9.592   1.396   7.900 -0.6576  0.0551  0.0748
  106MOL0     C13881   9.508   1.310   7.983 -0.6857 -0.6595 -0.5289
  106MOL0     C13882   9.411   1.390   8.077 -0.4119  0.1916 -0.4128
  106MOL0     C13883   9.318   1.476   8.013  0.0384  0.5460  0.6028
  106MOL0     O13884   9.233   1.396   7.925 -0.3495  0.5748 -0.1401
  106MOL0     C13885   9.101   1.426   7.912 -0.2920 -0.3037 -0.2770
  106MOL0     C13886   9.004   1.330   7.891 -0.6911 -0.1736  0.1430
  106MOL0     C13887   8.866   1.352   7.881 -0.2324  0.4717  0.3686
  106MOL0     C13888   8.817   1.479   7.897  0.7502  0.4947  0.6400
  106MOL0     C13889   8.669   1.501   7.881 -0.2863 -0.7962 -0.1930
  106MOL0     O13890   8.586   1.399   7.849 -0.2602 -0.3155 -0.2581
  106MOL0     C13891   8.458   1.425   7.847 -0.4779 -0.0693  0.7839
  106MOL0     C13892   8.391   1.469   7.728 -0.8701 -0.5230  0.7235
  106MOL0     C13893   8.252   1.504   7.730 -0.2254 -1.1513 -0.1864
  106MOL0     C13894   8.179   1.492   7.849  0.0798 -0.4845  0.2137
  106MOL0     O13895   8.043   1.527   7.852  0.1643  0.5371  0.2860
  106MOL0     C13896   7.991   1.577   7.974  0.2910  1.5799  1.3685
  106MOL0     C13897   7.941   1.457   8.059  0.3927  0.3554 -0.1181
  106MOL0     C13898   7.942   1.496   8.208 -0.3736  0.7199  0.0477
  106MOL0     C13899   7.849   1.419   8.308 -0.0283 -0.5522 -0.1573
  106MOL0     C13900   7.861   1.268   8.305 -1.4411 -0.7391 -0.5859
  106MOL0     C13901   8.002   1.223   8.355  0.0745  0.3848  0.4237
  106MOL0     C13902   8.012   1.072   8.378  0.1577 -0.0609 -0.1073
  106MOL0     C13903   8.157   1.036   8.401 -0.3224  0.0694 -0.8344
  106MOL0    Cl13904   8.185   0.857   8.439  0.2487 -0.2486  0.1171
  106MOL0     C13905   8.249   1.457   7.974 -0.4467  0.4276  0.4643
  106MOL0     C13906   8.389   1.433   7.970  0.9139 -0.8251 -0.3127
  106MOL0     O13907   8.639   1.618   7.891 -0.0098 -0.1714 -0.3095
  106MOL0     C13908   8.907   1.582   7.911  0.0776  0.7746 -0.5124
  106MOL0     C13909   9.050   1.558   7.925  0.1444  0.0360 -0.1050
  106MOL0     N13910   9.694   1.607   8.013 -0.1545  0.2613 -0.3690
  106MOL0     N13911   9.801   1.637   8.081  0.4609  0.3758  0.4506
  106MOL0     C13912  11.035   1.492   7.973 -0.0859  0.0721  1.2527
  106MOL0     C13913  11.151   1.571   7.971  0.0005 -0.0324  0.4187
  106MOL0     C13914  11.462   1.848   8.151  0.1032 -0.1009 -0.5965
  106MOL0     C13915  11.487   1.985   8.122  0.0830  0.1598  0.0920
  106MOL0     C13916  11.607   2.044   8.144 -0.5642 -0.9656  0.2061
  106MOL0     C13917  11.708   1.973   8.213  0.3394 -0.1669  0.5129
  106MOL0     O13918  11.817   2.040   8.251  0.2408  0.4185 -0.3687
  106MOL0     C13919  11.903   1.974   8.351 -0.4652  0.0872  0.0309
  106MOL0     C13920  12.022   2.055   8.411  0.8726  0.2706 -0.5228
  106MOL0     C13921  11.964   2.180   8.488 -0.1673  0.6290 -0.1801
  106MOL0     C13922  12.033   2.206   8.623  0.1906  1.2642 -0.6515
  106MOL0     C13923  12.175   2.195   8.626 -0.8185 -0.0700  0.4968
  106MOL0     C13924  12.295   2.210   8.654  0.3851 -0.6051 -0.2398
  106MOL0     C13925  11.683   1.832   8.234 -0.2803 -0.1175 -0.0657
  106MOL0     C13926  11.568   1.770   8.200  0.3517 -0.2841 -0.0186
  106MOL0     H13927  11.263   1.479   8.276  0.0349 -0.6923 -0.0143
  106MOL0     H13928  11.091   1.310   8.250  1.3519 -2.4539 -1.7151
  106MOL0     H13929  10.815   1.273   7.904  1.9153  0.5127 -0.2910
  106MOL0     H13930  10.772   1.428   7.991  2.1999  0.7132  2.2175
  106MOL0     H13931  10.705   1.231   8.172  0.1465 -2.3774 -1.5377
  106MOL0     H13932  10.673   1.155   8.015  1.4069  0.6946 -2.0764
  106MOL0     H13933  10.532   1.350   7.947  1.0421 -1.3833 -1.4209
  106MOL0     H13934  10.560   1.434   8.105 -1.2691  0.2421  0.9871
  106MOL0     H13935  10.441   1.162   8.104 -0.4057  0.1148  0.4621
  106MOL0     H13936  10.425   1.287   8.224  0.7691  0.3871 -0.4384
  106MOL0     H13937  10.231   1.242   8.104  1.5048 -1.3388  2.5078
  106MOL0     H13938  10.310   1.250   7.948 -3.1709  1.6182  0.1868
  106MOL0     H13939  10.335   1.506   7.986 -2.3411  2.7610 -0.6824
  106MOL0     H13940  10.277   1.494   8.144  0.4356  2.6506 -0.9980
  106MOL0     H13941  10.124   1.533   7.926 -5.9660  0.5760  0.1123
  106MOL0     H13942  10.081   1.367   7.970 -3.9437  1.8065 -0.9900
  106MOL0     H13943  10.061   1.614   8.136 -4.2103  0.2281  0.8251
  106MOL0     H13944  10.038   1.438   8.200  1.2849  1.5962  2.2326
  106MOL0     H13945   9.863   1.319   7.995 -3.1590 -1.3682  0.6589
  106MOL0     H13946   9.641   1.343   7.818 -2.2256  0.2749 -1.0510
  106MOL0     H13947   9.521   1.459   7.846  0.2692  1.0192 -0.0476
  106MOL0     H13948   9.575   1.252   8.048  0.9755 -0.2974 -1.8616
  106MOL0     H13949   9.456   1.238   7.919  0.3260  2.1787 -4.9552
  106MOL0     H13950   9.353   1.310   8.125 -0.9644 -0.9311 -2.7593
  106MOL0     H13951   9.471   1.439   8.154  0.5914 -3.5276  1.4292
  106MOL0     H13952   9.365   1.565   7.969 -0.2955  0.5619  0.2803
  106MOL0     H13953   9.245   1.514   8.085 -0.2752  1.0606  0.0131
  106MOL0     H13954   9.041   1.228   7.889 -1.1719 -0.3753  1.1924
  106MOL0     H13955   8.813   1.259   7.868 -0.7194  0.6559  0.9997
  106MOL0     H13956   8.445   1.480   7.634 -2.5768  1.6409 -0.0818
  106MOL0     H13957   8.199   1.545   7.645  0.6951  0.3358 -0.0892
  106MOL0     H13958   7.905   1.641   7.951  0.7045  1.7983  0.4041
  106MOL0     H13959   8.064   1.643   8.021  0.0181  1.1420  2.4334
  106MOL0     H13960   8.006   1.371   8.039 -2.2948 -1.5757 -1.1344
  106MOL0     H13961   7.839   1.426   8.033 -0.1261 -0.1488  2.3236
  106MOL0     H13962   7.904   1.598   8.214 -0.5909  0.5426  2.4191
  106MOL0     H13963   8.040   1.505   8.254 -0.8689  4.0505  0.6840
  106MOL0     H13964   7.851   1.454   8.411  2.0782  3.9267 -1.4727
  106MOL0     H13965   7.745   1.439   8.279 -1.4543 -4.0728  1.9096
  106MOL0     H13966   7.847   1.232   8.202 -1.4050  0.6001 -1.0764
  106MOL0     H13967   7.788   1.213   8.365 -2.0644 -1.0419 -1.6008
  106MOL0     H13968   8.039   1.274   8.445  3.5159  0.0479 -0.6446
  106MOL0     H13969   8.075   1.258   8.282 -0.1342  3.4931  1.5625
  106MOL0     H13970   7.953   1.052   8.468  0.5623  0.2585  0.2349
  106MOL0     H13971   7.970   1.029   8.287  0.3643 -1.9323  0.6364
  106MOL0     H13972   8.197   1.095   8.484 -0.4144 -2.9345  1.4945
  106MOL0     H13973   8.211   1.065   8.310 -0.6732  1.7354 -0.5397
  106MOL0     H13974   8.194   1.451   8.068 -1.5507  0.7422 -0.1535
  106MOL0     H13975   8.433   1.407   8.066  1.0908 -2.3554 -0.7826
  106MOL0     H13976   8.864   1.682   7.913 -2.3002 -0.2030  1.0561
  106MOL0     H13977   9.115   1.642   7.947 -0.3844  0.3808  0.1678
  106MOL0     H13978  10.965   1.490   7.889 -1.8711 -0.3312  2.6976
  106MOL0     H13979  11.178   1.647   7.898  2.7088  0.6344  1.9570
  106MOL0     H13980  11.403   2.041   8.082 -0.0236 -1.8476 -2.9186
  106MOL0     H13981  11.618   2.152   8.140  0.0965 -0.9240  2.1076
  106MOL0     H13982  11.944   1.886   8.301 -0.1691 -0.4131  1.1233
  106MOL0     H13983  11.851   1.939   8.441 -1.1902 -0.9340 -0.7652
  106MOL0     H13984  12.088   1.991   8.470 -1.6178 -1.1667  0.9049
  106MOL0     H13985  12.076   2.087   8.321  1.1571 -0.1547 -0.5026
  106MOL0     H13986  11.860   2.175   8.520  0.1778  5.3202  2.4585
  106MOL0     H13987  11.989   2.272   8.435 -1.6157  1.5864  0.7505
  106MOL0     H13988  12.019   2.310   8.655 -1.9994  0.3175  1.8094
  106MOL0     H13989  11.993   2.139   8.700  1.4411  1.6651  0.3749
  106MOL0     H13990  12.396   2.235   8.682 -0.1125  0.9932  0.2063
  106MOL0     H13991  11.758   1.770   8.281  0.8330  2.0192  1.1069
  106MOL0     H13992  11.558   1.662   8.202 -0.4242 -0.2500 -1.2100
  107MOL0     O13993   4.970   4.942   5.781  0.7547  0.4766  0.3313
  107MOL0     C13994   4.945   4.845   5.711 -0.4671 -0.2861 -0.2339
  107MOL0     O13995   5.035   4.770   5.644 -0.4434 -0.2024 -0.4702
  107MOL0     C13996   5.170   4.811   5.637  0.2665  0.7594 -0.0493
  107MOL0     C13997   5.265   4.709   5.597 -0.1842 -0.7077 -0.2023
  107MOL0     C13998   5.403   4.741   5.584  0.4383 -0.3002 -0.6540
  107MOL0     C13999   5.457   4.875   5.594 -0.3781 -0.3686 -0.3145
  107MOL0     O14000   5.586   4.904   5.546 -0.0488  0.8387 -0.0173
  107MOL0     C14001   5.674   4.797   5.574 -0.0189  0.5507  0.0648
  107MOL0     C14002   5.819   4.849   5.593 -0.5637 -0.0948  0.5832
  107MOL0     C14003   5.919   4.743   5.583  0.4527  0.5985 -1.2452
  107MOL0     C14004   6.071   4.791   5.579  0.5269  0.4924 -0.3987
  107MOL0     C14005   6.167   4.664   5.589 -1.1430 -0.0713  0.3628
  107MOL0     C14006   6.304   4.689   5.526  0.9165  0.5117 -0.1104
  107MOL0     C14007   6.376   4.811   5.589 -0.2830 -0.4661  0.2372
  107MOL0     C14008   6.517   4.831   5.523  0.0855 -0.6047 -0.0301
  107MOL0     N14009   6.574   4.958   5.587  0.8091  0.6456  0.1411
  107MOL0     C14010   6.572   5.079   5.527  0.7769  0.5270 -0.6192
  107MOL0     C14011   6.631   5.160   5.624 -0.1101  0.1906 -1.2423
  107MOL0     C14012   6.644   5.303   5.599 -0.4121 -0.6508 -0.5902
  107MOL0     C14013   6.724   5.330   5.463 -1.1432 -0.0095  0.2269
  107MOL0     C14014   6.794   5.467   5.459 -0.0857  0.1296  0.6588
  107MOL0     C14015   6.915   5.469   5.559 -0.6942 -0.7358  0.3752
  107MOL0     O14016   7.029   5.411   5.498 -0.4435  0.4231 -0.1203
  107MOL0     C14017   7.147   5.421   5.565 -0.2443  0.2365  0.6249
  107MOL0     C14018   7.172   5.440   5.699  0.4347  0.0178 -0.1573
  107MOL0     C14019   7.299   5.459   5.748 -0.0193 -0.6530 -0.7718
  107MOL0     C14020   7.412   5.446   5.667 -0.3507  0.2934  0.2988
  107MOL0     C14021   7.554   5.474   5.715  0.2769 -0.6036  0.2962
  107MOL0     O14022   7.572   5.538   5.837  0.0455  0.1271  0.7372
  107MOL0     C14023   7.694   5.594   5.860  0.2537  1.1250 -1.0121
  107MOL0     C14024   7.706   5.730   5.858 -0.1887  0.2031  0.6447
  107MOL0     C14025   7.820   5.797   5.890 -0.5093 -0.3690 -0.6002
  107MOL0     C14026   7.934   5.720   5.923  0.0721 -0.7040 -1.5742
  107MOL0     O14027   8.057   5.768   5.956 -0.5226 -0.1735  1.0126
  107MOL0     C14028   8.080   5.908   5.935  0.0079  0.9385 -0.1259
  107MOL0     C14029   8.206   5.964   6.011 -0.4215 -0.3043 -0.1771
  107MOL0     C14030   8.333   5.877   6.006  0.1839  0.3966  0.0187
  107MOL0     C14031   8.442   5.946   6.097  0.0503 -0.1897  0.3189
  107MOL0     C14032   8.582   5.880   6.078  0.1249  0.2131 -0.3047
  107MOL0     C14033   8.693   5.935   6.159  0.5617 -0.5831 -1.1080
  107MOL0     C14034   8.833   5.944   6.093 -0.0692  0.0584 -0.4661
  107MOL0     C14035   8.945   6.008   6.175  0.4544  0.1956 -1.1404
  107MOL0    Cl14036   9.091   6.033   6.068  0.2972  0.0216  0.2013
  107MOL0     C14037   7.930   5.579   5.911  1.0425  0.7245  0.3931
  107MOL0     C14038   7.804   5.517   5.876 -0.5342  1.2718  0.0194
  107MOL0     O14039   7.643   5.433   5.644 -0.5551 -0.4017  0.2007
  107MOL0     C14040   7.396   5.425   5.528  0.1155  0.3998 -0.7270
  107MOL0     C14041   7.264   5.413   5.481  0.2995  0.4044  0.5046
  107MOL0     N14042   6.658   5.085   5.741  0.0689  0.1447  0.4598
  107MOL0     N14043   6.619   4.964   5.715 -0.1646  0.2485  0.1914
  107MOL0     C14044   5.363   4.970   5.641  0.4867 -0.1896 -0.6872
  107MOL0     C14045   5.227   4.942   5.665 -0.2324  0.5454 -0.5137
  107MOL0     C14046   4.797   4.802   5.697  0.0110  0.9934 -0.4055
  107MOL0     C14047   4.765   4.676   5.646  0.9324 -1.0953  0.4910
  107MOL0     C14048   4.634   4.633   5.646 -0.6385  0.5487  0.3646
  107MOL0     C14049   4.533   4.701   5.720  0.6319 -0.3720  0.6360
  107MOL0     O14050   4.410   4.644   5.725  0.3874 -0.0087 -1.0333
  107MOL0     C14051   4.327   4.647   5.842 -0.3532  0.7377  0.7193
  107MOL0     C14052   4.302   4.499   5.888  0.2611 -1.0213 -0.1337
  107MOL0     C14053   4.276   4.383   5.788  0.1437  0.4289 -0.3542
  107MOL0     C14054   4.192   4.273   5.866  0.0422  0.0466 -0.5284
  107MOL0     C14055   4.145   4.166   5.767  0.2849 -0.3955 -0.4669
  107MOL0     C14056   4.094   4.081   5.701 -0.1116 -0.1914 -0.7998
  107MOL0     C14057   4.559   4.817   5.778 -1.5110 -0.5973 -0.0681
  107MOL0     C14058   4.692   4.872   5.765  0.3343  0.7101 -0.3305
  107MOL0     H14059   5.235   4.607   5.575 -1.1526 -0.0853 -1.9648
  107MOL0     H14060   5.466   4.655   5.563 -0.8813 -1.7865  1.1528
  107MOL0     H14061   5.666   4.726   5.491 -1.3526  1.7270 -0.8696
  107MOL0     H14062   5.643   4.756   5.670 -1.1310 -0.9776 -0.8968
  107MOL0     H14063   5.815   4.902   5.689 -6.9941  0.1523  0.6086
  107MOL0     H14064   5.839   4.926   5.518  1.1160 -1.1596 -0.1062
  107MOL0     H14065   5.910   4.675   5.498 -0.3485 -1.7031  0.5806
  107MOL0     H14066   5.905   4.680   5.671  0.0312 -1.6975 -2.8690
  107MOL0     H14067   6.086   4.832   5.479 -1.8609  0.7361 -0.7161
  107MOL0     H14068   6.094   4.863   5.658 -1.3569  1.1124 -0.3705
  107MOL0     H14069   6.124   4.582   5.531 -1.3325  0.3962 -0.1652
  107MOL0     H14070   6.187   4.640   5.694  3.6177 -2.9419 -0.9306
  107MOL0     H14071   6.277   4.713   5.423  0.2964  5.3140  0.9094
  107MOL0     H14072   6.368   4.603   5.546  3.8397  2.8690  1.6242
  107MOL0     H14073   6.315   4.901   5.576 -1.7458 -1.5705 -0.8484
  107MOL0     H14074   6.385   4.788   5.696 -2.7560 -1.8539  0.2230
  107MOL0     H14075   6.515   4.838   5.414  1.0296 -2.4124 -0.1906
  107MOL0     H14076   6.571   4.739   5.547  0.0162 -0.1973  1.8139
  107MOL0     H14077   6.529   5.113   5.433  1.9203  1.6286 -0.7743
  107MOL0     H14078   6.689   5.347   5.688 -3.5923  1.7505  0.0356
  107MOL0     H14079   6.546   5.353   5.597 -0.2839 -0.3952 -0.5538
  107MOL0     H14080   6.647   5.325   5.386 -0.7088  2.7485 -0.4970
  107MOL0     H14081   6.804   5.258   5.443  1.1350  2.6218 -0.9282
  107MOL0     H14082   6.831   5.498   5.361  2.0593  1.5629  1.8136
  107MOL0     H14083   6.723   5.543   5.493  0.2849  1.1899 -0.8451
  107MOL0     H14084   6.892   5.408   5.647  1.4774 -2.6031 -0.2311
  107MOL0     H14085   6.941   5.571   5.591  1.4386 -1.0033 -0.3203
  107MOL0     H14086   7.082   5.438   5.759  1.3599 -1.3876  1.2679
  107MOL0     H14087   7.316   5.482   5.853 -0.2844 -0.7178 -0.7157
  107MOL0     H14088   7.616   5.778   5.820 -1.6489 -2.8270 -0.1010
  107MOL0     H14089   7.807   5.903   5.869 -1.7276  0.1285  2.2228
  107MOL0     H14090   8.003   5.980   5.966  2.1426  2.5267  1.8230
  107MOL0     H14091   8.091   5.911   5.826 -0.8064  2.0628 -0.1964
  107MOL0     H14092   8.179   5.988   6.114 -0.5488  1.4021 -0.5707
  107MOL0     H14093   8.230   6.060   5.963 -1.0693  0.9494  1.8905
  107MOL0     H14094   8.357   5.875   5.899 -0.4792  1.4826 -0.1739
  107MOL0     H14095   8.301   5.775   6.031 -0.8484  0.5046 -0.7527
  107MOL0     H14096   8.439   6.053   6.078 -0.2963 -0.2275  0.1516
  107MOL0     H14097   8.417   5.943   6.203  1.6368  0.4124  0.7387
  107MOL0     H14098   8.605   5.888   5.971  3.1809  0.9683  0.3156
  107MOL0     H14099   8.574   5.776   6.109 -0.6290  0.6031  0.8654
  107MOL0     H14100   8.697   5.889   6.258 -1.2224  1.8728  0.2331
  107MOL0     H14101   8.663   6.034   6.197  2.6075 -1.3924  3.2855
  107MOL0     H14102   8.861   5.841   6.071 -1.5321 -1.1215  2.5599
  107MOL0     H14103   8.814   6.002   6.002 -0.7610 -0.4367 -0.6450
  107MOL0     H14104   8.969   5.957   6.269  2.1811  3.9164  0.6808
  107MOL0     H14105   8.913   6.109   6.205  0.4741  0.5075 -2.1338
  107MOL0     H14106   8.027   5.533   5.928  0.7183  1.3238  5.0894
  107MOL0     H14107   7.782   5.411   5.863  3.3651  0.5633 -2.4652
  107MOL0     H14108   7.480   5.417   5.459  0.5254 -1.6651 -0.0534
  107MOL0     H14109   7.249   5.407   5.374  1.4170  1.6540  0.2425
  107MOL0     H14110   5.390   5.074   5.657 -1.2995 -0.1244  3.0095
  107MOL0     H14111   5.170   5.027   5.701 -0.5755 -0.2017  0.7658
  107MOL0     H14112   4.847   4.623   5.598  0.6781  0.4163 -1.7324
  107MOL0     H14113   4.605   4.549   5.585  2.0988  0.0646 -0.3884
  107MOL0     H14114   4.237   4.708   5.829 -0.9159  0.0999  1.4883
  107MOL0     H14115   4.388   4.690   5.923  0.8543  0.0404  0.2083
  107MOL0     H14116   4.395   4.460   5.931  0.4775 -3.3990 -2.5592
  107MOL0     H14117   4.226   4.507   5.966 -1.5263  4.1743 -1.9700
  107MOL0     H14118   4.374   4.343   5.761 -0.4344  0.1219 -2.1518
  107MOL0     H14119   4.224   4.421   5.700 -0.3479  1.6099  0.4114
  107MOL0     H14120   4.244   4.228   5.951  1.7721  1.0261 -1.0233
  107MOL0     H14121   4.107   4.321   5.915  1.2838 -0.2038  2.0217
  107MOL0     H14122   4.044   4.018   5.630  1.3730  0.0621 -2.1391
  107MOL0     H14123   4.482   4.876   5.827  0.5662  1.1117  1.3209
  107MOL0     H14124   4.710   4.965   5.819 -2.0955 -0.8465  3.6895
  108MOL0     O14125   8.389   3.567   2.909 -0.6258  0.0363  0.5009
  108MOL0     C14126   8.309   3.649   2.867  0.5295 -0.0023  0.4518
  108MOL0     O14127   8.309   3.715   2.752 -0.2539 -0.2218 -0.1711
  108MOL0     C14128   8.426   3.734   2.680 -0.0039  0.1221 -0.0348
  108MOL0     C14129   8.550   3.754   2.743  0.3479  0.4214 -0.3766
  108MOL0     C14130   8.667   3.770   2.672  0.2114 -0.1782  0.7058
  108MOL0     C14131   8.662   3.780   2.529 -0.4180 -0.4757  0.5449
  108MOL0     O14132   8.772   3.794   2.444 -0.0881  0.0605 -1.4395
  108MOL0     C14133   8.898   3.734   2.483  0.4549  0.5707  0.3826
  108MOL0     C14134   8.968   3.688   2.352  0.0565 -0.0929  0.6727
  108MOL0     C14135   8.878   3.601   2.268  0.6498  0.4228  0.4270
  108MOL0     C14136   8.893   3.633   2.107 -0.4197  0.0538  0.9264
  108MOL0     C14137   8.799   3.544   2.015  0.2047 -0.4089 -0.6559
  108MOL0     C14138   8.656   3.532   2.063  0.9249  0.1320  0.1571
  108MOL0     C14139   8.583   3.421   1.979 -0.6019  0.3054  0.1343
  108MOL0     C14140   8.429   3.423   1.991 -0.0665  0.1748 -1.0010
  108MOL0     N14141   8.352   3.332   1.903 -0.2784 -0.9275 -0.1655
  108MOL0     C14142   8.353   3.197   1.897  1.0629  0.3864  0.2100
  108MOL0     C14143   8.276   3.157   1.796  0.0469 -0.0876 -0.3177
  108MOL0     C14144   8.230   3.021   1.777  1.0546 -0.7622  1.5938
  108MOL0     C14145   8.080   3.017   1.753  1.0627  0.1363 -0.5038
  108MOL0     C14146   8.028   2.867   1.730 -0.6802  0.0775  0.0881
  108MOL0     C14147   7.885   2.870   1.700  0.4017  0.2535  0.3552
  108MOL0     O14148   7.810   2.906   1.815 -0.3169  0.2557 -0.0746
  108MOL0     C14149   7.678   2.881   1.797 -0.6414 -0.4698 -0.0328
  108MOL0     C14150   7.611   2.893   1.671 -1.2603 -1.0621  0.2372
  108MOL0     C14151   7.468   2.875   1.670 -0.0207  0.0840  0.7484
  108MOL0     C14152   7.384   2.864   1.781 -0.0612  0.4763  0.3595
  108MOL0     C14153   7.235   2.853   1.753  1.2677  0.1117 -0.1639
  108MOL0     O14154   7.154   2.833   1.859  0.2834 -0.5092 -0.7389
  108MOL0     C14155   7.025   2.801   1.836 -0.5229  0.3255  0.3087
  108MOL0     C14156   6.933   2.899   1.816 -0.9867  0.2971  0.1474
  108MOL0     C14157   6.798   2.873   1.787 -0.4422  0.5686  0.5376
  108MOL0     C14158   6.744   2.751   1.788 -0.3565  0.2864 -0.2373
  108MOL0     O14159   6.609   2.712   1.771  0.2909  0.3869 -0.3790
  108MOL0     C14160   6.516   2.799   1.702  0.2001  0.3626 -0.8384
  108MOL0     C14161   6.373   2.743   1.701  0.5060 -1.0786  0.0018
  108MOL0     C14162   6.354   2.599   1.641  1.1614 -0.1291  0.1841
  108MOL0     C14163   6.205   2.571   1.628  0.3029 -0.2587  0.1635
  108MOL0     C14164   6.187   2.422   1.567 -0.2979 -0.6370  0.7445
  108MOL0     C14165   6.041   2.363   1.579  0.2142 -0.0938 -0.1367
  108MOL0     C14166   6.025   2.249   1.475 -0.3626 -0.3411  0.8313
  108MOL0     C14167   5.941   2.286   1.354 -0.1537 -0.3239 -0.4517
  108MOL0    Cl14168   5.920   2.151   1.239 -0.5883 -0.1090 -0.3281
  108MOL0     C14169   6.838   2.650   1.812 -0.7024 -0.3208 -0.2237
  108MOL0     C14170   6.977   2.667   1.834 -0.0604  0.6543 -0.1131
  108MOL0     O14171   7.190   2.866   1.640  0.3391 -0.4834 -0.6509
  108MOL0     C14172   7.455   2.851   1.902 -0.2794 -0.4632 -0.3979
  108MOL0     C14173   7.594   2.864   1.914 -0.5376 -0.1215  0.7390
  108MOL0     N14174   8.238   3.273   1.726  0.1360  0.2867  0.0010
  108MOL0     N14175   8.282   3.378   1.791 -0.8055 -0.1739 -0.2724
  108MOL0     C14176   8.531   3.783   2.466  0.3904 -0.1240 -0.6790
  108MOL0     C14177   8.414   3.751   2.542  0.0310  0.4458 -1.4515
  108MOL0     C14178   8.188   3.671   2.957 -0.0818  0.6362  0.0135
  108MOL0     C14179   8.147   3.582   3.058  0.0624 -0.8743 -0.5519
  108MOL0     C14180   8.026   3.591   3.131  0.0181 -0.4831 -1.4766
  108MOL0     C14181   7.940   3.692   3.104  0.8757 -0.4693  0.1932
  108MOL0     O14182   7.829   3.705   3.189  0.0939  0.2698  0.1887
  108MOL0     C14183   7.750   3.827   3.184 -0.1439  0.2583 -0.3529
  108MOL0     C14184   7.707   3.871   3.332 -0.3083 -0.3950 -0.5583
  108MOL0     C14185   7.615   3.987   3.323  0.0593  0.7420 -0.7301
  108MOL0     C14186   7.572   4.041   3.457  0.4352 -0.7326 -0.1006
  108MOL0     C14187   7.679   4.067   3.554 -0.2331  0.0668 -0.6257
  108MOL0     C14188   7.772   4.090   3.633  0.1643  0.2211 -0.4780
  108MOL0     C14189   7.980   3.789   3.007 -0.7485 -0.7641  0.9935
  108MOL0     C14190   8.098   3.780   2.934 -0.0838 -0.0787 -0.0686
  108MOL0     H14191   8.556   3.748   2.852  1.0800  2.4199 -0.2673
  108MOL0     H14192   8.762   3.767   2.725  0.2476 -1.7152  0.6111
  108MOL0     H14193   8.870   3.647   2.544  1.2247  0.0879  0.0718
  108MOL0     H14194   8.966   3.799   2.539  2.2133 -0.4196 -0.4895
  108MOL0     H14195   9.055   3.628   2.381  0.6461  0.1604 -0.4768
  108MOL0     H14196   9.012   3.777   2.307  0.0812  0.0756  1.0286
  108MOL0     H14197   8.774   3.629   2.291  0.6051  0.8274 -0.2347
  108MOL0     H14198   8.883   3.496   2.297  2.9301  0.4838  0.4020
  108MOL0     H14199   8.856   3.735   2.094 -1.9935 -0.7488 -1.7237
  108MOL0     H14200   8.997   3.616   2.079 -0.6753  0.3357 -0.2594
  108MOL0     H14201   8.837   3.443   2.033  0.8068  0.0451  0.7524
  108MOL0     H14202   8.802   3.567   1.908  2.1722 -0.2992 -0.6175
  108MOL0     H14203   8.605   3.628   2.048  0.1680 -0.5372 -2.0221
  108MOL0     H14204   8.630   3.521   2.169 -0.8469 -1.9400 -0.4314
  108MOL0     H14205   8.605   3.416   1.872  0.5953 -0.8618  0.4116
  108MOL0     H14206   8.622   3.325   2.013  2.2867  1.1145 -0.6467
  108MOL0     H14207   8.410   3.527   1.963 -0.6212 -0.2852 -2.3870
  108MOL0     H14208   8.401   3.401   2.095 -0.5552 -0.6774 -1.3057
  108MOL0     H14209   8.394   3.115   1.955  0.8188  0.6161  0.7114
  108MOL0     H14210   8.265   2.958   1.859  3.3691 -0.4283  0.9344
  108MOL0     H14211   8.274   2.982   1.685 -0.4525 -0.1127  0.5610
  108MOL0     H14212   8.035   3.072   1.670  1.3456  2.5840  0.8906
  108MOL0     H14213   8.025   3.055   1.839 -0.9563 -0.0340 -1.6321
  108MOL0     H14214   8.086   2.834   1.643  2.6918 -0.3835  2.3098
  108MOL0     H14215   8.044   2.801   1.816 -1.7851  1.5918  1.4944
  108MOL0     H14216   7.849   2.773   1.662 -1.0068  0.3845  1.2661
  108MOL0     H14217   7.877   2.940   1.617  1.4423  0.9238  0.8078
  108MOL0     H14218   7.666   2.909   1.579 -0.4032 -0.5062  0.8309
  108MOL0     H14219   7.418   2.872   1.574  0.8118 -1.6753  0.3455
  108MOL0     H14220   6.964   3.003   1.824 -1.2945  0.3885  0.1466
  108MOL0     H14221   6.729   2.957   1.786  0.4221  1.3019  0.8321
  108MOL0     H14222   6.557   2.794   1.601 -1.7059 -1.5970 -1.6024
  108MOL0     H14223   6.512   2.902   1.739 -1.9572 -0.4995  1.6534
  108MOL0     H14224   6.310   2.809   1.640  1.6268 -1.7101 -1.8991
  108MOL0     H14225   6.328   2.741   1.801  2.5773  1.1693  1.0975
  108MOL0     H14226   6.404   2.523   1.703  0.7306 -0.5943 -0.0356
  108MOL0     H14227   6.390   2.591   1.538  1.2757 -1.2722  0.3001
  108MOL0     H14228   6.152   2.572   1.724  0.5416 -2.4670  0.3542
  108MOL0     H14229   6.165   2.655   1.571  2.2515  1.4514  1.1681
  108MOL0     H14230   6.252   2.359   1.628 -1.2207 -0.7261  1.6596
  108MOL0     H14231   6.230   2.431   1.467  1.4008  1.2688  1.5775
  108MOL0     H14232   5.968   2.439   1.551  0.6731 -0.2450 -1.9049
  108MOL0     H14233   6.018   2.334   1.682  0.7269  0.7047  0.2188
  108MOL0     H14234   6.120   2.201   1.453 -0.3594  1.0613 -2.9800
  108MOL0     H14235   5.963   2.185   1.538 -2.2556 -0.8313 -1.3511
  108MOL0     H14236   5.983   2.370   1.297  0.2518 -0.5019 -0.4238
  108MOL0     H14237   5.839   2.314   1.381 -0.1635  0.2879 -1.0646
  108MOL0     H14238   6.798   2.551   1.827  0.8166 -0.7113  1.6895
  108MOL0     H14239   7.053   2.592   1.852 -0.5652 -0.2660 -1.6716
  108MOL0     H14240   7.410   2.855   2.000  0.3479 -3.8815  0.1797
  108MOL0     H14241   7.651   2.860   2.007 -3.5915 -0.2199  2.7508
  108MOL0     H14242   8.515   3.790   2.359  1.2223  1.4159 -0.7226
  108MOL0     H14243   8.315   3.741   2.497 -1.1388  0.6982  0.9035
  108MOL0     H14244   8.193   3.486   3.081  3.0892  0.5525 -0.2004
  108MOL0     H14245   8.006   3.515   3.206 -2.3654  1.7091  0.3128
  108MOL0     H14246   7.661   3.805   3.123  0.4948 -0.3208 -1.1037
  108MOL0     H14247   7.808   3.908   3.139 -1.4189  2.3412  1.5838
  108MOL0     H14248   7.668   3.778   3.374 -0.3402  0.0297  0.3759
  108MOL0     H14249   7.795   3.898   3.391 -1.1705 -0.9426  1.0405
  108MOL0     H14250   7.523   3.964   3.269  0.2210  5.4209 -3.6542
  108MOL0     H14251   7.660   4.071   3.268  3.0830  0.3662  0.9353
  108MOL0     H14252   7.516   4.133   3.436  0.4961  0.7404  4.8339
  108MOL0     H14253   7.498   3.972   3.500 -1.3783  0.9114 -0.4826
  108MOL0     H14254   7.848   4.108   3.706 -1.0104  2.3099  0.3117
  108MOL0     H14255   7.919   3.873   2.976  0.3911 -0.4889 -0.6402
  108MOL0     H14256   8.128   3.863   2.872  0.8737 -2.0303 -2.3901
  109MOL0     O14257   8.059   8.415   5.969  0.0457  0.1959  0.6393
  109MOL0     C14258   8.099   8.386   5.860 -0.1857  0.8542 -0.1769
  109MOL0     O14259   8.030   8.361   5.756 -0.2851  0.5769  0.4399
  109MOL0     C14260   7.901   8.336   5.771 -0.1370  0.2805  0.1562
  109MOL0     C14261   7.809   8.396   5.687  0.1896 -0.1026 -0.0652
  109MOL0     C14262   7.669   8.365   5.698  0.5559 -0.7738 -0.3233
  109MOL0     C14263   7.621   8.272   5.790  0.6449 -0.6134  0.1334
  109MOL0     O14264   7.491   8.249   5.808  0.5369 -0.5421 -0.4022
  109MOL0     C14265   7.449   8.118   5.793  0.4694  0.1920  0.4484
  109MOL0     C14266   7.301   8.134   5.746 -0.4059  0.1737  0.0561
  109MOL0     C14267   7.242   7.995   5.710 -0.4937 -0.1499  0.7081
  109MOL0     C14268   7.084   7.998   5.699 -0.0541 -0.7238 -0.6781
  109MOL0     C14269   7.040   7.981   5.844  0.8910  0.0950  0.8090
  109MOL0     C14270   6.888   7.966   5.822 -0.7326 -1.1209  0.8365
  109MOL0     C14271   6.814   7.933   5.954  0.1290 -0.4864  0.5193
  109MOL0     C14272   6.660   7.920   5.934  0.3238  0.4346  0.9842
  109MOL0     N14273   6.619   7.832   5.825 -0.8005  0.8683 -0.5966
  109MOL0     C14274   6.630   7.692   5.825  0.1508 -0.0311  0.1899
  109MOL0     C14275   6.601   7.650   5.695 -0.7966  0.3979  0.3077
  109MOL0     C14276   6.582   7.507   5.636  0.0036 -0.3802 -0.2067
  109MOL0     C14277   6.727   7.443   5.618 -0.9253 -0.3539  0.4842
  109MOL0     C14278   6.834   7.514   5.525 -0.1831 -0.1556 -1.4075
  109MOL0     C14279   6.772   7.544   5.397  0.0631  0.7807  0.8249
  109MOL0     O14280   6.716   7.428   5.327 -0.0549 -0.9174 -0.0486
  109MOL0     C14281   6.785   7.374   5.219  0.4051  0.1761  0.4047
  109MOL0     C14282   6.730   7.271   5.138  0.4112 -0.3542 -0.3375
  109MOL0     C14283   6.802   7.205   5.038  0.0421 -0.4641  1.2742
  109MOL0     C14284   6.940   7.231   5.031 -0.6738  0.2646  0.3085
  109MOL0     C14285   7.026   7.168   4.918  0.4834 -0.3216 -0.2363
  109MOL0     O14286   7.158   7.213   4.911 -0.6608  0.0849 -1.4187
  109MOL0     C14287   7.249   7.150   4.832 -0.2049 -0.0277  0.1894
  109MOL0     C14288   7.329   7.235   4.755 -0.3246 -0.7298  0.1913
  109MOL0     C14289   7.431   7.186   4.678 -0.8032 -0.0093  0.0163
  109MOL0     C14290   7.461   7.047   4.670 -0.0922 -1.0192 -0.5784
  109MOL0     O14291   7.559   6.979   4.599  0.1374 -0.5562 -0.2124
  109MOL0     C14292   7.610   7.061   4.492 -0.5617 -0.7750  0.1371
  109MOL0     C14293   7.683   6.953   4.409  0.0482  0.4373 -0.2875
  109MOL0     C14294   7.759   7.008   4.292 -0.3628  0.6410  0.0111
  109MOL0     C14295   7.842   6.895   4.223  0.4236 -1.1187  0.4003
  109MOL0     C14296   7.894   6.940   4.093 -0.3153 -0.5295 -0.4808
  109MOL0     C14297   7.902   6.816   4.000 -0.2339 -0.1998  0.2526
  109MOL0     C14298   8.017   6.718   4.043  0.5791 -0.1139 -0.4316
  109MOL0     C14299   8.033   6.603   3.949 -0.7435 -0.6401  0.8903
  109MOL0    Cl14300   8.205   6.549   3.934  0.1164 -0.0678 -0.2159
  109MOL0     C14301   7.375   6.968   4.751 -0.2256  0.0921  0.9644
  109MOL0     C14302   7.267   7.011   4.830 -0.0596  0.0055  0.3421
  109MOL0     O14303   6.971   7.091   4.840  0.0841  0.4460  0.1702
  109MOL0     C14304   6.996   7.331   5.115 -0.4045 -0.7624  0.6578
  109MOL0     C14305   6.923   7.390   5.218 -0.6858  0.0325 -0.3356
  109MOL0     N14306   6.582   7.763   5.624 -0.2882  0.0218  0.8565
  109MOL0     N14307   6.592   7.871   5.700  0.1348 -0.4539  0.5083
  109MOL0     C14308   7.707   8.226   5.885 -0.5062  0.6197 -1.1367
  109MOL0     C14309   7.848   8.255   5.872 -0.1762 -0.1541 -0.0686
  109MOL0     C14310   8.250   8.391   5.851 -0.1347  0.2529 -0.5662
  109MOL0     C14311   8.320   8.430   5.736  0.7711  0.0174 -1.0203
  109MOL0     C14312   8.465   8.424   5.730  0.1455 -0.1513  0.3696
  109MOL0     C14313   8.543   8.395   5.843  0.6103 -0.1840  0.5599
  109MOL0     O14314   8.674   8.421   5.843  0.4305 -0.0445  0.0106
  109MOL0     C14315   8.740   8.412   5.970  0.0963  0.7107 -1.4105
  109MOL0     C14316   8.886   8.466   5.962 -0.3090 -0.5248 -0.1342
  109MOL0     C14317   8.963   8.479   6.097 -0.2433  0.0125  0.5489
  109MOL0     C14318   8.919   8.594   6.174  0.0208 -0.5356 -0.1786
  109MOL0     C14319   9.031   8.635   6.265 -0.2410 -0.6541 -0.1979
  109MOL0     C14320   9.123   8.664   6.337  0.3914  0.2008 -1.1841
  109MOL0     C14321   8.471   8.342   5.946  0.1606 -0.3715 -0.0041
  109MOL0     C14322   8.330   8.339   5.954 -0.0809 -0.2964  0.4079
  109MOL0     H14323   7.831   8.464   5.606  1.4348 -1.9221 -1.3157
  109MOL0     H14324   7.606   8.406   5.620 -0.0114 -1.4866 -0.2543
  109MOL0     H14325   7.447   8.070   5.892 -2.2662  0.8456  0.7984
  109MOL0     H14326   7.510   8.057   5.727 -1.0257 -2.3459  1.2811
  109MOL0     H14327   7.290   8.210   5.668 -0.5228 -2.4622 -2.7085
  109MOL0     H14328   7.252   8.163   5.839  0.3224  1.0842  0.1724
  109MOL0     H14329   7.266   7.927   5.792 -0.4825  1.3647  2.0119
  109MOL0     H14330   7.282   7.958   5.615  0.5882  4.0479 -0.6799
  109MOL0     H14331   7.048   8.094   5.659 -1.8118 -1.5711 -1.2488
  109MOL0     H14332   7.049   7.913   5.640 -0.7008  1.1861 -3.2343
  109MOL0     H14333   7.076   8.054   5.917  0.0388  0.6801  0.6464
  109MOL0     H14334   7.076   7.881   5.871  0.3119 -0.4341 -0.3371
  109MOL0     H14335   6.865   7.891   5.745  1.3884  0.8181 -1.8990
  109MOL0     H14336   6.846   8.063   5.792  1.5568 -0.4192 -0.3024
  109MOL0     H14337   6.853   7.846   6.008  0.6219 -0.1606  0.6946
  109MOL0     H14338   6.824   8.022   6.017 -1.6337  0.6152 -0.6682
  109MOL0     H14339   6.614   8.017   5.912  0.1526  1.0138  3.5843
  109MOL0     H14340   6.606   7.877   6.019 -1.3419 -0.2121 -0.3233
  109MOL0     H14341   6.650   7.625   5.908 -1.2130 -0.1190  0.4822
  109MOL0     H14342   6.537   7.521   5.538 -1.5944 -1.0603  0.3945
  109MOL0     H14343   6.520   7.446   5.703 -0.3370  3.2053  3.1129
  109MOL0     H14344   6.718   7.343   5.574 -2.4163  0.4649 -1.1907
  109MOL0     H14345   6.751   7.425   5.724 -2.6046 -2.9663  0.5227
  109MOL0     H14346   6.853   7.610   5.574 -1.0652 -0.7928  0.2566
  109MOL0     H14347   6.918   7.444   5.515 -0.4908 -0.7019 -0.3245
  109MOL0     H14348   6.848   7.591   5.334 -0.8981  1.8112  0.3868
  109MOL0     H14349   6.682   7.607   5.401 -1.2231 -0.8362 -0.9311
  109MOL0     H14350   6.627   7.237   5.143 -0.2353  1.2219 -1.7840
  109MOL0     H14351   6.759   7.118   4.991  3.5687 -3.1965  2.5820
  109MOL0     H14352   7.312   7.341   4.742  2.2329 -0.1560  1.0467
  109MOL0     H14353   7.490   7.262   4.629 -1.8162  0.0072 -1.2181
  109MOL0     H14354   7.678   7.130   4.543 -0.5762 -0.0904 -0.7539
  109MOL0     H14355   7.533   7.114   4.435  0.8512 -0.9879 -2.0856
  109MOL0     H14356   7.599   6.895   4.372 -1.7438  2.3821  0.5421
  109MOL0     H14357   7.751   6.896   4.473 -1.1407 -1.1612 -0.4010
  109MOL0     H14358   7.827   7.084   4.330  0.1007 -1.2179  3.2186
  109MOL0     H14359   7.686   7.058   4.226 -0.9355  0.1726  0.2749
  109MOL0     H14360   7.935   6.874   4.277 -0.1573 -1.2769  1.3754
  109MOL0     H14361   7.785   6.803   4.209  1.4689 -1.5667 -1.1562
  109MOL0     H14362   7.986   6.996   4.110  0.2905 -2.1028  1.9043
  109MOL0     H14363   7.820   7.004   4.043  0.9110  1.2569 -0.0941
  109MOL0     H14364   7.926   6.859   3.903 -3.3682  0.3750 -0.3592
  109MOL0     H14365   7.817   6.750   3.983  0.1914 -0.1020 -2.7026
  109MOL0     H14366   8.112   6.772   4.049  1.6392 -1.9014 -0.3068
  109MOL0     H14367   7.992   6.670   4.138  0.5965  0.2627 -0.2368
  109MOL0     H14368   7.997   6.627   3.849 -0.0380 -0.5079  0.6645
  109MOL0     H14369   7.979   6.515   3.986 -1.8103 -0.3009  0.1689
  109MOL0     H14370   7.392   6.861   4.747  1.6447  0.3888 -0.0511
  109MOL0     H14371   7.204   6.938   4.878  1.1318 -1.0794  0.3254
  109MOL0     H14372   7.099   7.358   5.098 -1.2661  1.9521 -0.9327
  109MOL0     H14373   6.977   7.452   5.288 -1.4886 -2.4267  2.7043
  109MOL0     H14374   7.654   8.172   5.963 -0.0079  0.5142 -0.8613
  109MOL0     H14375   7.925   8.220   5.940  0.3195  2.7089  1.0053
  109MOL0     H14376   8.267   8.456   5.644  0.7352  1.3023 -0.6517
  109MOL0     H14377   8.519   8.459   5.643 -0.9969 -0.2789 -0.3992
  109MOL0     H14378   8.745   8.307   6.001 -2.3978  1.2510  1.1624
  109MOL0     H14379   8.680   8.457   6.049  0.0073 -0.7168 -0.6387
  109MOL0     H14380   8.948   8.410   5.892 -0.4023 -0.3674 -0.3465
  109MOL0     H14381   8.886   8.565   5.914 -2.4835  0.8780  2.4480
  109MOL0     H14382   9.065   8.490   6.060 -0.0725  1.1371  1.3038
  109MOL0     H14383   8.955   8.388   6.156 -0.9282  1.2592  2.4669
  109MOL0     H14384   8.900   8.680   6.109  1.0433 -2.8202 -3.8038
  109MOL0     H14385   8.834   8.571   6.239  0.4052 -3.9927 -0.7049
  109MOL0     H14386   9.219   8.680   6.383  0.4680 -0.4975 -1.0783
  109MOL0     H14387   8.519   8.317   6.040 -1.2507  1.6437  1.3276
  109MOL0     H14388   8.272   8.301   6.037 -0.5833 -3.0322 -1.0907
  110MOL0     O14389   6.943   6.137   7.706 -0.4680 -0.6727 -0.1267
  110MOL0     C14390   6.984   6.130   7.591  0.2557  0.5205  0.7873
  110MOL0     O14391   6.949   6.034   7.498 -0.0846 -0.0893  0.2581
  110MOL0     C14392   6.860   5.942   7.540  0.0245  0.3658 -0.2018
  110MOL0     C14393   6.894   5.837   7.626 -0.4114  0.0287 -0.3722
  110MOL0     C14394   6.802   5.735   7.656 -0.2359 -0.5219  0.4458
  110MOL0     C14395   6.670   5.743   7.611 -0.4573  0.1846 -0.8855
  110MOL0     O14396   6.572   5.648   7.625  0.4813  0.1012 -0.0834
  110MOL0     C14397   6.613   5.522   7.671  0.5034  0.6365  0.5680
  110MOL0     C14398   6.490   5.437   7.657 -0.2739  0.1865 -0.0982
  110MOL0     C14399   6.385   5.461   7.766  1.1439 -0.1244 -0.4255
  110MOL0     C14400   6.289   5.588   7.738 -0.3091  0.0808  0.3960
  110MOL0     C14401   6.154   5.549   7.798 -0.3569  0.0063 -0.1901
  110MOL0     C14402   6.062   5.682   7.808  0.0900  0.1666  0.3985
  110MOL0     C14403   5.911   5.673   7.833 -0.2785 -0.0789  0.3946
  110MOL0     C14404   5.884   5.665   7.979  0.4152  0.0953  0.2716
  110MOL0     N14405   5.735   5.677   8.008 -0.2722  0.5633  0.2748
  110MOL0     C14406   5.646   5.568   8.008  0.4630 -0.3209 -0.4550
  110MOL0     C14407   5.527   5.629   8.031 -0.3046 -0.2371 -0.5279
  110MOL0     C14408   5.387   5.560   8.054  0.5598  0.3704  0.5386
  110MOL0     C14409   5.260   5.639   8.072 -0.7939  0.5245  0.5427
  110MOL0     C14410   5.132   5.563   8.116  0.2832 -0.7810 -0.3979
  110MOL0     C14411   5.004   5.644   8.089  0.1392 -0.8926  0.1478
  110MOL0     O14412   4.893   5.580   8.149 -0.1746 -0.1605  0.1084
  110MOL0     C14413   4.793   5.651   8.192  0.0434 -0.3388  0.0446
  110MOL0     C14414   4.701   5.565   8.265 -0.0268 -0.0795 -0.4392
  110MOL0     C14415   4.576   5.623   8.310 -0.1718  0.2268  0.3770
  110MOL0     C14416   4.545   5.756   8.284  0.1381 -0.5316  0.1804
  110MOL0     C14417   4.422   5.807   8.337 -0.1618  0.1817 -0.0380
  110MOL0     O14418   4.400   5.940   8.325  0.0717  0.7284 -0.2959
  110MOL0     C14419   4.327   6.002   8.424 -0.4570 -0.3701 -0.1445
  110MOL0     C14420   4.187   6.020   8.414 -0.4342 -0.5724  0.7734
  110MOL0     C14421   4.123   6.080   8.523  0.9434 -0.3180  0.0544
  110MOL0     C14422   4.192   6.138   8.632 -0.3880  0.0436  0.5583
  110MOL0     O14423   4.144   6.219   8.727  0.5023 -0.2876 -0.3010
  110MOL0     C14424   3.999   6.252   8.740  0.2276 -0.1249  0.6561
  110MOL0     C14425   3.961   6.367   8.834  0.1037  0.6929 -0.1371
  110MOL0     C14426   4.023   6.498   8.778 -0.0678 -0.6006  0.7431
  110MOL0     C14427   4.011   6.615   8.871 -0.1991  0.3828  1.1837
  110MOL0     C14428   4.068   6.600   9.017  0.3203  0.3406 -0.3006
  110MOL0     C14429   4.115   6.743   9.069 -0.5683  0.3219 -0.1620
  110MOL0     C14430   4.090   6.767   9.219 -0.8493  0.2016  0.0039
  110MOL0     C14431   4.125   6.914   9.255  0.1722 -0.8366 -0.2908
  110MOL0    Cl14432   4.295   6.935   9.236 -0.0066  0.7391  0.1241
  110MOL0     C14433   4.327   6.116   8.636  0.0035 -0.0270 -0.4008
  110MOL0     C14434   4.394   6.050   8.534 -0.9746  0.4833  0.1112
  110MOL0     O14435   4.362   5.730   8.410  0.3641 -0.2628  0.1692
  110MOL0     C14436   4.634   5.834   8.203  0.0069 -0.6120  0.0154
  110MOL0     C14437   4.747   5.775   8.143 -0.5129 -0.2636 -0.0955
  110MOL0     N14438   5.547   5.770   8.029 -0.5456  0.5914  1.1195
  110MOL0     N14439   5.675   5.802   8.022  0.1898  0.5599  1.1084
  110MOL0     C14440   6.637   5.855   7.543 -0.1883  0.3163  0.4937
  110MOL0     C14441   6.726   5.950   7.501  0.0187  0.7082  0.2773
  110MOL0     C14442   7.078   6.234   7.557  0.4218 -0.8460  0.0283
  110MOL0     C14443   7.176   6.211   7.461  0.2562 -0.2921  0.2567
  110MOL0     C14444   7.267   6.311   7.421 -0.0017 -0.5176  0.7313
  110MOL0     C14445   7.238   6.445   7.469 -0.4353 -0.1366  0.4306
  110MOL0     O14446   7.299   6.559   7.420 -0.0853  0.2568  1.0991
  110MOL0     C14447   7.352   6.558   7.281  0.3493 -0.4675  0.2704
  110MOL0     C14448   7.238   6.608   7.187 -0.7542  1.1501 -0.8481
  110MOL0     C14449   7.261   6.613   7.035 -0.3576 -0.3987 -0.3999
  110MOL0     C14450   7.320   6.749   6.994 -0.5328 -0.1876 -0.0687
  110MOL0     C14451   7.461   6.743   7.040  0.1120  0.2621 -0.2469
  110MOL0     C14452   7.577   6.732   7.060 -0.7770  0.0162  0.1032
  110MOL0     C14453   7.134   6.465   7.569  0.0651  0.2549  0.0949
  110MOL0     C14454   7.050   6.358   7.606  0.1853  0.1012 -0.5902
  110MOL0     H14455   6.998   5.822   7.655  0.9224  1.5688 -3.7273
  110MOL0     H14456   6.837   5.643   7.701 -2.9960 -2.1585 -0.5172
  110MOL0     H14457   6.657   5.519   7.771 -2.7047 -0.6699  2.0631
  110MOL0     H14458   6.679   5.463   7.607 -1.1454  0.6896 -1.2804
  110MOL0     H14459   6.516   5.331   7.660 -1.2927 -0.0799 -0.3993
  110MOL0     H14460   6.454   5.462   7.557 -0.1237  1.3462  0.1220
  110MOL0     H14461   6.433   5.471   7.864  1.4689 -0.2700 -0.5708
  110MOL0     H14462   6.326   5.370   7.778 -2.0278  1.6949 -0.9620
  110MOL0     H14463   6.328   5.682   7.777  0.1264 -0.3817  1.1007
  110MOL0     H14464   6.279   5.588   7.629  0.3213  0.9032  0.3258
  110MOL0     H14465   6.169   5.493   7.891  3.3930  0.3864 -0.3996
  110MOL0     H14466   6.113   5.470   7.734  0.7370  0.0183 -0.9210
  110MOL0     H14467   6.071   5.725   7.708  2.2480 -0.5561  0.2120
  110MOL0     H14468   6.111   5.747   7.881 -0.5678  1.3682 -0.1990
  110MOL0     H14469   5.858   5.759   7.792 -0.3993 -0.3200  0.0447
  110MOL0     H14470   5.878   5.578   7.790  0.9081 -1.0418  1.4734
  110MOL0     H14471   5.930   5.754   8.023 -1.1851  1.0141  0.1437
  110MOL0     H14472   5.929   5.579   8.030  0.1147 -0.2338 -0.0131
  110MOL0     H14473   5.664   5.461   8.015  5.7096  0.3907  1.7889
  110MOL0     H14474   5.390   5.507   8.150 -1.4601 -1.3869 -0.3135
  110MOL0     H14475   5.365   5.500   7.966 -0.0511  1.9130 -0.4044
  110MOL0     H14476   5.250   5.708   7.987 -2.6006 -3.4197 -2.7966
  110MOL0     H14477   5.287   5.702   8.157  3.2051  0.0888 -0.2203
  110MOL0     H14478   5.122   5.474   8.053 -1.8906 -1.0812  0.2861
  110MOL0     H14479   5.133   5.527   8.219  3.9790 -0.9161 -0.3349
  110MOL0     H14480   4.984   5.660   7.983  2.1571 -0.1986 -0.1733
  110MOL0     H14481   5.023   5.746   8.124  2.4137 -0.1063 -2.9978
  110MOL0     H14482   4.722   5.460   8.280 -1.4212 -0.4042 -0.6511
  110MOL0     H14483   4.505   5.549   8.347 -2.2667 -0.2773 -3.8953
  110MOL0     H14484   4.124   5.988   8.331 -1.3306  1.4909  0.6156
  110MOL0     H14485   4.014   6.087   8.519  0.8603 -1.6927 -1.1958
  110MOL0     H14486   3.949   6.161   8.776  0.1165 -0.4602 -0.3042
  110MOL0     H14487   3.946   6.258   8.644  3.0965 -1.5321 -1.1557
  110MOL0     H14488   3.990   6.349   8.937  1.2307 -0.3323 -0.6134
  110MOL0     H14489   3.852   6.372   8.839  0.1714  3.1376  0.1164
  110MOL0     H14490   3.981   6.513   8.679  0.5034  1.0387  0.7065
  110MOL0     H14491   4.132   6.496   8.765  0.1701  1.2649  1.8852
  110MOL0     H14492   4.065   6.699   8.828 -0.7416 -0.0033 -0.3289
  110MOL0     H14493   3.903   6.636   8.872 -0.2825  0.6558 -1.8916
  110MOL0     H14494   4.155   6.535   9.005 -0.9101 -1.2211 -1.1269
  110MOL0     H14495   3.982   6.564   9.073 -0.3968  0.8713 -1.0495
  110MOL0     H14496   4.054   6.817   9.016  0.4361 -0.0996 -1.9826
  110MOL0     H14497   4.219   6.756   9.041 -0.7435 -1.2390 -1.7093
  110MOL0     H14498   3.987   6.748   9.251 -1.5475  0.5865 -1.8797
  110MOL0     H14499   4.152   6.701   9.280 -0.7229  2.5007  2.6246
  110MOL0     H14500   4.087   6.948   9.352 -0.1291 -3.6173  0.6548
  110MOL0     H14501   4.077   6.983   9.184  1.5225  2.8748  2.0881
  110MOL0     H14502   4.386   6.155   8.719 -0.0626  2.9201 -1.6059
  110MOL0     H14503   4.502   6.050   8.531 -0.9136  0.7103  1.7773
  110MOL0     H14504   4.620   5.938   8.177  1.1749 -0.8460 -1.7237
  110MOL0     H14505   4.805   5.823   8.065  0.1371  2.2609  1.8218
  110MOL0     H14506   6.537   5.858   7.500  0.4314  1.5886 -0.9639
  110MOL0     H14507   6.686   6.039   7.453 -0.7822 -0.6864 -1.7884
  110MOL0     H14508   7.182   6.109   7.425  1.3393 -0.2283  0.2171
  110MOL0     H14509   7.339   6.288   7.342 -2.6930 -1.5268 -1.5983
  110MOL0     H14510   7.388   6.463   7.243  1.3197 -0.1825  0.4335
  110MOL0     H14511   7.435   6.630   7.272  0.4947 -0.7845 -1.1497
  110MOL0     H14512   7.154   6.539   7.197  0.6642 -0.5843 -0.3786
  110MOL0     H14513   7.193   6.702   7.219 -3.3579 -0.4330  0.4723
  110MOL0     H14514   7.162   6.600   6.990 -0.3165  4.8458 -2.7248
  110MOL0     H14515   7.333   6.543   6.992 -2.1275 -2.0735 -0.8219
  110MOL0     H14516   7.313   6.771   6.887  1.9944 -0.7135 -0.4091
  110MOL0     H14517   7.270   6.838   7.033  1.9700  2.2562 -2.0133
  110MOL0     H14518   7.683   6.733   7.076  0.1987 -1.7093 -4.6365
  110MOL0     H14519   7.113   6.564   7.610  0.8394 -0.2103  1.6872
  110MOL0     H14520   6.963   6.373   7.669 -1.4391 -2.1599 -2.1643
  111MOL0     O14521   7.333   6.242   4.632  0.1191 -0.3241  0.0984
  111MOL0     C14522   7.377   6.127   4.633 -0.5057 -0.5489 -0.8012
  111MOL0     O14523   7.307   6.014   4.677  0.2620 -0.0720 -0.1998
  111MOL0     C14524   7.168   6.014   4.692 -1.0176 -0.2420  0.6385
  111MOL0     C14525   7.082   6.107   4.637 -0.3261 -0.3030 -0.8166
  111MOL0     C14526   6.944   6.083   4.639  0.5496  0.0364  0.5327
  111MOL0     C14527   6.893   5.962   4.686  0.6243  0.2334 -0.3209
  111MOL0     O14528   6.765   5.917   4.700 -0.7800  0.3757  0.2165
  111MOL0     C14529   6.675   5.962   4.608  1.0228  0.0421 -0.6001
  111MOL0     C14530   6.551   5.871   4.607  0.7174 -0.3349  0.2183
  111MOL0     C14531   6.435   5.900   4.709  0.3375  0.0838  0.1827
  111MOL0     C14532   6.381   6.036   4.672  0.7289  0.6254 -0.2268
  111MOL0     C14533   6.242   6.058   4.737  0.1961  0.2552 -0.1383
  111MOL0     C14534   6.149   6.153   4.638 -0.1795  0.8163  0.0116
  111MOL0     C14535   6.015   6.177   4.677  0.0017 -0.2024  0.5480
  111MOL0     C14536   5.999   6.275   4.788  0.0425 -0.5007  0.5053
  111MOL0     N14537   5.857   6.295   4.822  0.7850  0.0853 -0.0770
  111MOL0     C14538   5.757   6.206   4.857  0.4257  0.1963  0.8566
  111MOL0     C14539   5.650   6.288   4.899 -0.5224 -0.1754  0.1706
  111MOL0     C14540   5.520   6.233   4.941  0.0584 -0.1693 -0.6446
  111MOL0     C14541   5.476   6.277   5.085 -0.0941  0.5495 -0.5541
  111MOL0     C14542   5.347   6.191   5.108 -0.9131  0.6747 -0.3215
  111MOL0     C14543   5.274   6.263   5.230 -0.1245 -0.6478 -0.5253
  111MOL0     O14544   5.132   6.233   5.223 -1.0894 -0.3247 -1.0419
  111MOL0     C14545   5.096   6.116   5.286 -0.0686 -0.8866  0.0352
  111MOL0     C14546   4.958   6.095   5.304 -0.6001  0.4824  0.1449
  111MOL0     C14547   4.906   5.983   5.372  0.4078 -0.2292 -0.5847
  111MOL0     C14548   4.998   5.896   5.441  0.5242  0.4507  0.0107
  111MOL0     C14549   4.956   5.790   5.523 -0.0797 -0.1253  0.2464
  111MOL0     O14550   5.010   5.665   5.519  0.2692 -0.7967 -0.1725
  111MOL0     C14551   4.922   5.560   5.525  1.0281 -0.4199  0.3973
  111MOL0     C14552   4.948   5.458   5.618 -0.9270  0.1569 -0.4743
  111MOL0     C14553   4.851   5.355   5.638  0.1498  0.5394  1.0183
  111MOL0     C14554   4.748   5.337   5.549  0.2167 -0.0939 -0.3537
  111MOL0     O14555   4.689   5.218   5.563  0.0297  0.4629 -0.3179
  111MOL0     C14556   4.559   5.210   5.506 -0.8014  0.4112 -0.1997
  111MOL0     C14557   4.474   5.092   5.568 -0.0215  1.0156  0.0603
  111MOL0     C14558   4.327   5.083   5.517  0.8471 -0.0792 -0.3879
  111MOL0     C14559   4.248   4.968   5.569 -0.9660 -0.3511  0.7268
  111MOL0     C14560   4.112   4.974   5.508 -0.0401  0.3181  0.2498
  111MOL0     C14561   4.028   4.847   5.556  0.2774  1.0094  0.5122
  111MOL0     C14562   3.900   4.857   5.483  0.4783 -0.2961  0.3837
  111MOL0     C14563   3.822   4.741   5.525  0.1596  0.5193 -0.2804
  111MOL0    Cl14564   3.665   4.731   5.441  0.1274  0.1950 -0.0556
  111MOL0     C14565   4.723   5.437   5.455  0.2352  0.7723  0.1476
  111MOL0     C14566   4.806   5.545   5.440  0.1529  0.2298  0.1481
  111MOL0     O14567   4.861   5.818   5.594 -0.9311 -0.4719 -0.0213
  111MOL0     C14568   5.136   5.918   5.425  0.3211  0.0429  0.1919
  111MOL0     C14569   5.186   6.018   5.342 -0.3967 -0.0599 -0.8661
  111MOL0     N14570   5.690   6.414   4.866  0.2817  0.3100  0.4557
  111MOL0     N14571   5.801   6.421   4.815  0.0512  0.4441  0.1520
  111MOL0     C14572   6.983   5.869   4.738 -0.1140  0.1307  0.6832
  111MOL0     C14573   7.118   5.900   4.743 -0.6386  0.8282 -0.0170
  111MOL0     C14574   7.526   6.109   4.607 -0.3604 -0.5210 -0.3786
  111MOL0     C14575   7.600   6.207   4.535  0.2578  0.1711  0.0341
  111MOL0     C14576   7.730   6.203   4.499 -0.0635 -0.3604  0.1460
  111MOL0     C14577   7.804   6.084   4.522 -0.2699  0.1477 -0.2042
  111MOL0     O14578   7.935   6.096   4.480 -0.2226  0.6923 -1.1952
  111MOL0     C14579   8.028   5.985   4.504 -0.4165  0.1690 -0.1129
  111MOL0     C14580   8.142   5.999   4.392  0.1044  0.1240  0.5003
  111MOL0     C14581   8.220   6.131   4.413  0.3443 -0.7432  0.1373
  111MOL0     C14582   8.350   6.142   4.331 -0.1847  0.0403 -0.3774
  111MOL0     C14583   8.319   6.171   4.189  0.2488  0.3594 -0.0120
  111MOL0     C14584   8.263   6.188   4.077  0.0960  0.0711 -0.4298
  111MOL0     C14585   7.739   5.976   4.590  0.2332 -0.0182 -0.7459
  111MOL0     C14586   7.604   5.984   4.621  0.9580 -0.4354  0.2383
  111MOL0     H14587   7.109   6.192   4.575 -2.5308  0.1512 -1.2524
  111MOL0     H14588   6.876   6.157   4.598  1.2976  0.1139 -0.6186
  111MOL0     H14589   6.709   5.949   4.505  1.5339 -0.6389 -0.3572
  111MOL0     H14590   6.647   6.064   4.634 -0.4428 -1.2303  3.6921
  111MOL0     H14591   6.578   5.766   4.624 -0.7940 -0.6606  0.8121
  111MOL0     H14592   6.514   5.873   4.504 -1.7378  0.0195  1.0285
  111MOL0     H14593   6.485   5.897   4.806  2.0738 -0.3501 -0.6795
  111MOL0     H14594   6.350   5.830   4.710 -0.0534  0.5588  1.2138
  111MOL0     H14595   6.454   6.113   4.697  1.7321 -0.8749  1.7667
  111MOL0     H14596   6.365   6.032   4.563 -2.5918 -2.3516  0.1780
  111MOL0     H14597   6.261   6.117   4.827 -1.6968 -1.4025  1.4455
  111MOL0     H14598   6.180   5.970   4.757  0.8991 -0.2148  0.0035
  111MOL0     H14599   6.141   6.090   4.549  1.4458  0.0403  0.3757
  111MOL0     H14600   6.202   6.246   4.616 -0.9691  1.0970 -0.7356
  111MOL0     H14601   5.958   6.201   4.587  1.3226 -0.2116 -0.3147
  111MOL0     H14602   5.971   6.087   4.720  0.3316 -0.5184  0.2357
  111MOL0     H14603   6.040   6.374   4.766 -0.1317 -0.6814 -0.7528
  111MOL0     H14604   6.064   6.237   4.867 -1.2557 -3.2201  0.3686
  111MOL0     H14605   5.768   6.100   4.878  0.3680 -0.0103 -0.1040
  111MOL0     H14606   5.518   6.124   4.948 -2.1602 -0.0616  2.3525
  111MOL0     H14607   5.436   6.239   4.872  1.0910  1.7219 -1.8017
  111MOL0     H14608   5.448   6.381   5.070 -1.0821  0.1308 -1.7854
  111MOL0     H14609   5.556   6.260   5.157  0.4205  0.6072 -1.1108
  111MOL0     H14610   5.278   6.199   5.024 -2.1911  2.3780  0.7991
  111MOL0     H14611   5.350   6.084   5.130 -0.0939  0.5325 -1.0441
  111MOL0     H14612   5.291   6.371   5.221  1.2203 -0.7390  0.4917
  111MOL0     H14613   5.310   6.223   5.325 -5.5593 -2.7761  0.9681
  111MOL0     H14614   4.892   6.165   5.253 -0.7216 -0.2756 -0.7684
  111MOL0     H14615   4.799   5.970   5.377  0.1286  1.7660 -0.3303
  111MOL0     H14616   5.037   5.455   5.680  0.3084  1.7918 -2.0715
  111MOL0     H14617   4.867   5.283   5.718  0.2433  1.1267  1.5413
  111MOL0     H14618   4.567   5.194   5.398 -1.6692 -0.3028 -0.1779
  111MOL0     H14619   4.495   5.296   5.527 -1.0312  0.2786 -0.3479
  111MOL0     H14620   4.469   5.114   5.675 -0.4472 -2.2840  0.8401
  111MOL0     H14621   4.526   4.998   5.547 -2.4113 -0.6862  1.2062
  111MOL0     H14622   4.336   5.079   5.408  0.7360 -0.5011 -0.3812
  111MOL0     H14623   4.278   5.175   5.552  2.7335  0.4887  0.9478
  111MOL0     H14624   4.299   4.873   5.550 -3.7204 -1.7161 -0.4290
  111MOL0     H14625   4.248   4.990   5.676  0.7524  0.3211  0.6119
  111MOL0     H14626   4.126   4.978   5.400  2.2209 -1.0683  0.4152
  111MOL0     H14627   4.069   5.071   5.536  1.0842  0.6900  0.7337
  111MOL0     H14628   4.007   4.847   5.664 -5.8542 -2.4058 -0.2092
  111MOL0     H14629   4.088   4.760   5.532  0.9660  1.9607 -1.3833
  111MOL0     H14630   3.839   4.948   5.493 -0.3106 -0.6613 -0.8107
  111MOL0     H14631   3.921   4.851   5.376 -1.1653  0.7072 -0.0370
  111MOL0     H14632   3.801   4.743   5.632 -3.5902  0.2207 -0.8730
  111MOL0     H14633   3.880   4.651   5.501  1.3579  0.8012  1.4273
  111MOL0     H14634   4.646   5.433   5.378  0.2351 -1.1573  0.2186
  111MOL0     H14635   4.782   5.621   5.366  4.4849 -0.2226 -2.0011
  111MOL0     H14636   5.204   5.849   5.475  0.1445  1.1985  2.1310
  111MOL0     H14637   5.294   6.010   5.340 -0.3044  0.8285  0.0502
  111MOL0     H14638   6.937   5.774   4.764  0.5989 -1.6437 -3.6403
  111MOL0     H14639   7.191   5.831   4.783  1.0245  2.2096 -0.5575
  111MOL0     H14640   7.552   6.300   4.504  0.6856 -0.1674 -1.8097
  111MOL0     H14641   7.782   6.280   4.443  1.3147 -0.0724  1.7205
  111MOL0     H14642   7.973   5.892   4.488 -5.1597  2.8429 -1.3125
  111MOL0     H14643   8.077   6.003   4.600  1.7314  0.3038 -1.1735
  111MOL0     H14644   8.208   5.912   4.380  0.5593  0.7447 -2.3454
  111MOL0     H14645   8.084   6.000   4.299 -0.0241 -0.8944  0.5496
  111MOL0     H14646   8.249   6.153   4.516 -0.5895 -2.0395  0.7042
  111MOL0     H14647   8.152   6.210   4.380  2.1705  0.4874 -0.8760
  111MOL0     H14648   8.424   6.215   4.367  0.8565 -1.0320 -0.2859
  111MOL0     H14649   8.402   6.046   4.327 -0.5499 -0.1212 -2.3285
  111MOL0     H14650   8.212   6.181   3.983 -1.8262 -2.9045  0.7136
  111MOL0     H14651   7.791   5.883   4.606 -0.9145 -0.2371  2.3342
  111MOL0     H14652   7.548   5.903   4.665 -1.0813  0.5988 -0.3081
  112MOL0     O14653   2.907   7.530   9.399  0.8232 -0.2207 -0.2536
  112MOL0     C14654   3.015   7.489   9.443  0.4978 -0.5948 -0.4520
  112MOL0     O14655   3.047   7.363   9.500  0.4324 -0.0023 -0.3488
  112MOL0     C14656   2.936   7.281   9.518  0.5994  0.3811 -0.9348
  112MOL0     C14657   2.885   7.210   9.408  0.3193 -0.1829  0.1811
  112MOL0     C14658   2.759   7.142   9.403  0.2005 -0.0106 -0.9186
  112MOL0     C14659   2.689   7.127   9.526  0.5879  0.5250 -0.4821
  112MOL0     O14660   2.567   7.062   9.519 -0.3059 -0.4833 -0.9899
  112MOL0     C14661   2.483   7.046   9.632 -0.3026  0.2851 -0.0752
  112MOL0     C14662   2.343   6.996   9.607  0.2935 -0.3857  1.1049
  112MOL0     C14663   2.336   6.859   9.543 -0.2247 -0.1207  1.0632
  112MOL0     C14664   2.185   6.854   9.499  1.1756  0.8260  0.2627
  112MOL0     C14665   2.163   6.740   9.413  1.2673  0.3888  1.7001
  112MOL0     C14666   2.006   6.715   9.395 -0.5707 -0.6368 -0.2214
  112MOL0     C14667   1.957   6.585   9.330  0.4823 -1.0658 -0.4911
  112MOL0     C14668   1.994   6.568   9.179 -0.5015 -0.7657 -0.1745
  112MOL0     N14669   1.899   6.627   9.085  0.1744  0.6163 -0.1501
  112MOL0     C14670   1.779   6.577   9.055 -0.8258 -0.2558  0.5901
  112MOL0     C14671   1.721   6.657   8.963  0.6394  0.5038 -0.2723
  112MOL0     C14672   1.596   6.622   8.884  0.9046 -0.5881 -0.9438
  112MOL0     C14673   1.464   6.630   8.971 -0.3109  0.3940  0.7467
  112MOL0     C14674   1.345   6.585   8.886 -0.1023 -1.0347 -0.6824
  112MOL0     C14675   1.216   6.592   8.972  0.6122  0.3878  0.0378
  112MOL0     O14676   1.215   6.490   9.073 -0.0614 -0.2451 -0.1067
  112MOL0     C14677   1.105   6.405   9.091  0.1583 -0.2032  0.4815
  112MOL0     C14678   1.077   6.370   9.219  0.3777 -0.5032 -0.1381
  112MOL0     C14679   0.960   6.286   9.248 -0.7701 -0.8773  0.2189
  112MOL0     C14680   0.872   6.239   9.146 -0.4533 -0.6739 -0.1071
  112MOL0     C14681   0.757   6.157   9.180 -0.0566  0.0037 -0.3776
  112MOL0     O14682   0.719   6.151   9.310 -0.1388 -0.3727 -0.0101
  112MOL0     C14683   0.600   6.088   9.345 -0.7378 -0.0597  0.3627
  112MOL0     C14684   0.473   6.126   9.293 -0.2001 -1.0043 -0.2891
  112MOL0     C14685   0.354   6.063   9.335  0.0243  1.0006  0.6600
  112MOL0     C14686   0.355   5.963   9.434  0.7229  0.0412  0.7386
  112MOL0     O14687   0.243   5.884   9.460  0.3590 -0.1851  0.6883
  112MOL0     C14688   0.111   5.907   9.392  0.2620  0.6931  0.3157
  112MOL0     C14689   0.000   5.836   9.471  0.0979 -0.6664  0.3448
  112MOL0     C14690  -0.048   5.923   9.588  0.0063 -0.0832 -0.6645
  112MOL0     C14691  -0.130   5.838   9.693 -0.0208 -0.4518 -0.3548
  112MOL0     C14692  -0.184   5.918   9.822  0.6072 -0.3374  0.2600
  112MOL0     C14693  -0.062   5.955   9.904  0.0640 -0.1537  0.7422
  112MOL0     C14694  -0.093   5.960  10.057 -0.3244  0.5099  0.2731
  112MOL0     C14695   0.028   6.023  10.141 -0.0796 -0.3962 -0.4217
  112MOL0    Cl14696   0.183   5.957  10.095 -0.3148  0.3748  0.2914
  112MOL0     C14697   0.485   5.928   9.491  0.6968  0.6005 -0.5121
  112MOL0     C14698   0.605   5.988   9.441  0.3252 -0.0122  0.3651
  112MOL0     O14699   0.697   6.096   9.092  1.0256 -0.1795  1.0869
  112MOL0     C14700   0.908   6.282   9.014  0.6282  0.3463  0.8138
  112MOL0     C14701   1.023   6.358   8.989  1.0197 -0.2987  0.3871
  112MOL0     N14702   1.810   6.755   8.937  0.6835 -0.0445  0.4623
  112MOL0     N14703   1.916   6.727   8.993 -0.0545 -0.0940  0.1081
  112MOL0     C14704   2.741   7.193   9.642  1.0765 -0.5295  0.5037
  112MOL0     C14705   2.863   7.268   9.640 -0.0367  0.3851  0.1421
  112MOL0     C14706   3.118   7.593   9.437 -0.4525 -0.2237  0.1871
  112MOL0     C14707   3.122   7.699   9.341 -0.1636  0.3614 -0.3749
  112MOL0     C14708   3.216   7.794   9.343  0.0473 -0.2954  0.1845
  112MOL0     C14709   3.320   7.782   9.437 -0.5353  0.2908  0.3895
  112MOL0     O14710   3.423   7.873   9.448  0.1790 -0.6722  0.0201
  112MOL0     C14711   3.435   7.984   9.361 -1.0393 -0.4239  0.4345
  112MOL0     C14712   3.494   7.934   9.235 -0.3273  0.4922  0.5785
  112MOL0     C14713   3.603   7.823   9.264 -0.2634  0.7204  0.8437
  112MOL0     C14714   3.697   7.786   9.148 -0.0796  0.0163  0.4835
  112MOL0     C14715   3.771   7.914   9.121  1.1166 -0.0220  0.6333
  112MOL0     C14716   3.827   8.020   9.083 -0.3501 -0.4741  0.4283
  112MOL0     C14717   3.325   7.681   9.520  0.2239  0.4583 -1.5208
  112MOL0     C14718   3.225   7.584   9.528 -0.9443  0.5356 -0.0281
  112MOL0     H14719   2.932   7.217   9.310 -1.1456  1.6917 -0.4567
  112MOL0     H14720   2.729   7.094   9.310  1.6006  0.2073 -1.5117
  112MOL0     H14721   2.482   7.139   9.689  0.3620  0.2825 -0.0561
  112MOL0     H14722   2.540   6.969   9.685  3.4076  1.4248 -2.0201
  112MOL0     H14723   2.295   7.070   9.543 -0.5058 -3.5774 -2.3684
  112MOL0     H14724   2.290   7.003   9.702  1.7294 -1.0870  1.9956
  112MOL0     H14725   2.349   6.778   9.615 -0.7147 -1.9125 -0.7568
  112MOL0     H14726   2.404   6.849   9.458 -1.0718  1.5721  0.1326
  112MOL0     H14727   2.120   6.844   9.587 -0.4141  2.0532 -0.7285
  112MOL0     H14728   2.159   6.946   9.447  1.2939  1.1479  0.7638
  112MOL0     H14729   2.200   6.651   9.465 -1.4726 -1.1635  1.2390
  112MOL0     H14730   2.209   6.751   9.315  1.4219  1.8981  1.9192
  112MOL0     H14731   1.976   6.797   9.329  0.8924  0.0228 -0.1142
  112MOL0     H14732   1.955   6.733   9.490  1.4138 -0.3557  0.8539
  112MOL0     H14733   2.004   6.500   9.380  1.5644 -2.2228 -3.2259
  112MOL0     H14734   1.849   6.589   9.344  0.6969  2.8469  1.3501
  112MOL0     H14735   1.982   6.462   9.155 -4.1758 -0.1693 -1.5734
  112MOL0     H14736   2.097   6.597   9.158 -0.0824 -1.3910  0.9113
  112MOL0     H14737   1.749   6.478   9.089  0.7421 -1.4394 -1.2544
  112MOL0     H14738   1.607   6.522   8.842  0.3363 -1.6887  1.3827
  112MOL0     H14739   1.587   6.695   8.803  2.1840 -1.4496 -1.9102
  112MOL0     H14740   1.444   6.733   9.002 -0.7444 -0.0877  2.1393
  112MOL0     H14741   1.474   6.562   9.055  0.6675 -3.0747 -1.9678
  112MOL0     H14742   1.334   6.634   8.788  0.8578  0.5894 -0.0092
  112MOL0     H14743   1.353   6.480   8.858  0.1631 -1.5341  1.1456
  112MOL0     H14744   1.128   6.573   8.910  0.5377 -2.1066  0.8109
  112MOL0     H14745   1.219   6.688   9.023 -2.1593  0.4051  0.2820
  112MOL0     H14746   1.142   6.384   9.305 -0.8509 -0.5133  0.8241
  112MOL0     H14747   0.936   6.254   9.349 -1.2906 -2.2370 -0.3118
  112MOL0     H14748   0.459   6.183   9.201 -3.5790 -2.4368 -0.8293
  112MOL0     H14749   0.257   6.077   9.288  1.7856  0.3572 -3.7088
  112MOL0     H14750   0.120   5.857   9.296 -0.8029  1.0206  0.0396
  112MOL0     H14751   0.082   6.011   9.374 -1.1171  0.2062 -0.3611
  112MOL0     H14752   0.033   5.734   9.494 -0.6671 -1.4495 -1.8163
  112MOL0     H14753  -0.079   5.814   9.400  1.5224  2.6493 -2.5999
  112MOL0     H14754  -0.109   6.003   9.544  0.3121  1.0007  0.7709
  112MOL0     H14755   0.031   5.974   9.644 -1.3597 -0.1125  1.4048
  112MOL0     H14756  -0.224   5.802   9.650 -1.5559  0.1218  2.2968
  112MOL0     H14757  -0.069   5.749   9.713 -2.9466 -3.2645 -2.7147
  112MOL0     H14758  -0.261   5.857   9.870 -1.5790 -0.6049 -3.1611
  112MOL0     H14759  -0.232   6.012   9.791  0.8382 -0.1453  0.4804
  112MOL0     H14760  -0.027   6.055   9.876 -1.5778  0.0183 -0.9538
  112MOL0     H14761   0.022   5.888   9.886  0.3674 -0.2456  2.3749
  112MOL0     H14762  -0.184   6.013  10.085 -0.8323 -0.3627  0.3020
  112MOL0     H14763  -0.097   5.857  10.091 -1.6013  0.5297  0.2373
  112MOL0     H14764   0.017   5.999  10.247  1.1055  1.9959  0.2957
  112MOL0     H14765   0.020   6.129  10.116 -1.0279 -0.0111  1.3639
  112MOL0     H14766   0.503   5.877   9.585 -3.1020  0.4570  0.2774
  112MOL0     H14767   0.706   5.965   9.472  1.0485 -0.6698 -2.2284
  112MOL0     H14768   0.843   6.252   8.933 -0.2400  0.6028  1.3894
  112MOL0     H14769   1.031   6.374   8.882 -2.4618 -0.7127 -0.0660
  112MOL0     H14770   2.693   7.165   9.735  2.5317 -2.0934  0.8276
  112MOL0     H14771   2.897   7.307   9.735  2.0292  3.2371 -1.6382
  112MOL0     H14772   3.044   7.716   9.267 -0.8344 -2.7188 -0.4989
  112MOL0     H14773   3.201   7.875   9.272 -3.6711 -0.5632  0.4528
  112MOL0     H14774   3.513   8.049   9.401 -1.6200  1.1666 -0.9127
  112MOL0     H14775   3.345   8.045   9.344 -3.6841 -3.8647  0.9342
  112MOL0     H14776   3.424   7.887   9.166  0.6835  1.7239 -1.3647
  112MOL0     H14777   3.539   8.022   9.189  3.3438 -1.3144  0.3668
  112MOL0     H14778   3.558   7.731   9.301  0.2298 -0.5940 -1.6042
  112MOL0     H14779   3.668   7.861   9.343 -0.9372 -0.8495  2.2108
  112MOL0     H14780   3.767   7.707   9.176  2.0223  1.4432 -0.4146
  112MOL0     H14781   3.635   7.755   9.065 -0.1892 -0.1994  0.6459
  112MOL0     H14782   3.874   8.115   9.068 -1.0458 -0.1503  0.2563
  112MOL0     H14783   3.413   7.682   9.583 -1.2821 -0.5455  0.7204
  112MOL0     H14784   3.216   7.500   9.595  2.4914  1.1657  1.4346
  113MOL0     O14785  10.535   0.070   7.233  0.1268  0.2591  0.1066
  113MOL0     C14786  10.537  -0.035   7.170  0.6326  0.9586  0.2593
  113MOL0     O14787  10.643  -0.094   7.106  0.0298 -0.4771  0.4830
  113MOL0     C14788  10.765  -0.047   7.151  0.2308  0.8860 -0.7640
  113MOL0     C14789  10.799   0.075   7.089 -0.5929  0.4111 -0.0468
  113MOL0     C14790  10.928   0.124   7.096  1.4216 -0.0200  0.1355
  113MOL0     C14791  11.023   0.069   7.181  0.6321  0.0187 -0.0753
  113MOL0     O14792  11.142   0.128   7.189 -0.6291 -0.6667 -0.2261
  113MOL0     C14793  11.239   0.090   7.288  0.2583  0.9772 -0.5744
  113MOL0     C14794  11.377   0.167   7.281 -0.0192 -0.8535 -0.3820
  113MOL0     C14795  11.470   0.126   7.389 -0.2817 -0.0619 -0.9819
  113MOL0     C14796  11.603   0.198   7.375  0.8490 -0.0579  0.0560
  113MOL0     C14797  11.675   0.214   7.511 -0.3819  0.5412  0.2776
  113MOL0     C14798  11.803   0.287   7.485  0.7633 -0.3663 -0.6791
  113MOL0     C14799  11.862   0.329   7.621 -0.7054  0.2548 -0.2089
  113MOL0     C14800  11.999   0.398   7.590 -0.0318  0.2318  0.0162
  113MOL0     N14801  12.114   0.299   7.602  0.1113 -0.4567  0.1798
  113MOL0     C14802  12.165   0.224   7.498 -0.2010  0.4479 -0.4876
  113MOL0     C14803  12.244   0.131   7.556  0.2886 -0.1038 -0.6655
  113MOL0     C14804  12.289   0.012   7.488 -0.0569 -0.3779 -0.0954
  113MOL0     C14805  12.171  -0.080   7.460 -0.3985 -0.6255  0.1022
  113MOL0     C14806  12.099  -0.113   7.587  0.2797  0.1583 -0.5203
  113MOL0     C14807  11.976  -0.205   7.556  0.0831  1.0142 -0.4478
  113MOL0     O14808  11.855  -0.165   7.624 -0.3568  0.7217  0.1529
  113MOL0     C14809  11.731  -0.230   7.612 -0.2131 -1.1012  0.6337
  113MOL0     C14810  11.711  -0.341   7.530  0.3381 -0.2941 -0.3375
  113MOL0     C14811  11.589  -0.405   7.544  0.4935  0.5220  0.3128
  113MOL0     C14812  11.484  -0.359   7.620  0.4622 -0.7333  0.1027
  113MOL0     C14813  11.347  -0.431   7.631  0.5202 -0.5515 -0.6287
  113MOL0     O14814  11.261  -0.399   7.729 -0.3338  0.4771  0.0309
  113MOL0     C14815  11.132  -0.444   7.728  0.1190 -0.7551  0.0408
  113MOL0     C14816  11.060  -0.446   7.852  0.6147  0.5491  0.1815
  113MOL0     C14817  10.933  -0.508   7.853  0.4953 -0.0300  0.3727
  113MOL0     C14818  10.867  -0.549   7.746  0.2820 -0.1484  0.0468
  113MOL0     O14819  10.742  -0.600   7.751  0.2336 -0.5671  0.6386
  113MOL0     C14820  10.651  -0.574   7.858  0.4332 -0.4484  0.2498
  113MOL0     C14821  10.503  -0.595   7.809  0.5863  0.1040 -1.1654
  113MOL0     C14822  10.400  -0.548   7.901  0.5897  0.0886  0.4999
  113MOL0     C14823  10.253  -0.540   7.846  0.3156 -0.1325  0.5580
  113MOL0     C14824  10.159  -0.472   7.951 -0.4323 -0.0968  0.3036
  113MOL0     C14825  10.020  -0.517   7.916  0.1558 -0.5317  0.6850
  113MOL0     C14826   9.899  -0.437   7.981 -0.2991 -0.3001 -0.4622
  113MOL0     C14827   9.777  -0.532   7.977 -0.4359  0.1295 -0.1963
  113MOL0    Cl14828   9.607  -0.447   7.997  0.2911  0.2859  0.3942
  113MOL0     C14829  10.933  -0.534   7.621 -0.4414  0.1977  1.4480
  113MOL0     C14830  11.061  -0.486   7.611  0.0543  0.2435 -0.2502
  113MOL0     O14831  11.340  -0.533   7.569  0.7522 -0.1053  0.4832
  113MOL0     C14832  11.509  -0.243   7.700 -0.3969 -0.3969  0.1920
  113MOL0     C14833  11.631  -0.184   7.692 -0.2038  0.1184 -0.3666
  113MOL0     N14834  12.254   0.160   7.691 -0.3761 -0.8486  0.2412
  113MOL0     N14835  12.182   0.262   7.710 -0.2390 -0.6931 -1.1510
  113MOL0     C14836  10.978  -0.042   7.258  0.7823 -0.7271 -0.2120
  113MOL0     C14837  10.853  -0.108   7.241 -0.4046 -0.2250 -0.1371
  113MOL0     C14838  10.401  -0.103   7.151 -0.2375 -0.7053  0.1085
  113MOL0     C14839  10.278  -0.037   7.163  0.7282  0.1638 -0.5359
  113MOL0     C14840  10.153  -0.108   7.151 -0.2451 -0.2557 -0.3516
  113MOL0     C14841  10.159  -0.239   7.115 -0.1102  0.3845 -0.6024
  113MOL0     O14842  10.044  -0.309   7.100  0.2375  0.4447  0.0054
  113MOL0     C14843  10.036  -0.452   7.078  1.6575  0.0443 -0.4123
  113MOL0     C14844   9.909  -0.494   7.008 -0.1694  0.2469 -0.5244
  113MOL0     C14845   9.783  -0.468   7.093 -0.5290  0.4667  0.1965
  113MOL0     C14846   9.661  -0.521   7.017 -0.2584  0.3325 -0.5469
  113MOL0     C14847   9.533  -0.491   7.075 -0.1151  0.5063 -0.6478
  113MOL0     C14848   9.417  -0.469   7.102  0.7417 -0.1451 -0.6806
  113MOL0     C14849  10.282  -0.306   7.098  0.3315 -0.3624 -0.4224
  113MOL0     C14850  10.400  -0.237   7.116  0.0434  0.4077  0.0314
  113MOL0     H14851  10.736   0.127   7.018  1.6111  0.0397 -2.4063
  113MOL0     H14852  10.951   0.212   7.037 -2.6095  0.3815 -1.1235
  113MOL0     H14853  11.262  -0.013   7.260  1.7818  1.2477 -0.3750
  113MOL0     H14854  11.192   0.098   7.387 -0.8291 -0.8748 -0.8944
  113MOL0     H14855  11.359   0.275   7.283 -0.0147 -0.8332  1.9956
  113MOL0     H14856  11.427   0.141   7.188  1.8365 -3.5682  1.2399
  113MOL0     H14857  11.481   0.018   7.405 -5.0349 -0.6587 -0.1506
  113MOL0     H14858  11.425   0.155   7.484 -1.7901  2.1185 -2.2473
  113MOL0     H14859  11.663   0.147   7.299  0.9485 -1.7505  1.2216
  113MOL0     H14860  11.570   0.290   7.325 -1.3406 -0.0525  1.3541
  113MOL0     H14861  11.694   0.120   7.563  1.7847  1.3313  1.0137
  113MOL0     H14862  11.606   0.281   7.565 -1.4588 -1.1317  1.0803
  113MOL0     H14863  11.773   0.373   7.424 -2.1247 -0.5043  0.3909
  113MOL0     H14864  11.872   0.219   7.434  3.5350 -0.7176  3.0854
  113MOL0     H14865  11.804   0.395   7.686  3.1390  1.1094  2.7915
  113MOL0     H14866  11.871   0.234   7.675 -3.0774  0.4422  0.6057
  113MOL0     H14867  12.013   0.476   7.665  0.2540 -1.4792  1.8583
  113MOL0     H14868  11.996   0.438   7.489 -1.3128 -0.1597 -0.1161
  113MOL0     H14869  12.127   0.216   7.397 -0.5759 -0.2053 -0.2976
  113MOL0     H14870  12.352  -0.052   7.549 -2.0799 -0.8170  1.6705
  113MOL0     H14871  12.342   0.046   7.398  1.0295  0.3054  0.7898
  113MOL0     H14872  12.210  -0.175   7.421  2.1516  1.4247 -2.7620
  113MOL0     H14873  12.097  -0.033   7.395 -0.2551  1.6728  1.5054
  113MOL0     H14874  12.169  -0.170   7.648 -0.4221  0.8703  1.0147
  113MOL0     H14875  12.067  -0.030   7.650  1.3010  0.1297  0.0522
  113MOL0     H14876  11.997  -0.310   7.574  3.5958  2.0248  2.3146
  113MOL0     H14877  11.955  -0.203   7.448  1.0042 -1.6608 -0.7419
  113MOL0     H14878  11.777  -0.394   7.462 -1.5707 -3.7487  0.3040
  113MOL0     H14879  11.562  -0.489   7.480  1.9971  1.0955 -1.1114
  113MOL0     H14880  11.110  -0.411   7.941  2.4054  0.0361 -0.5703
  113MOL0     H14881  10.878  -0.518   7.946 -0.6621  1.2375 -0.1251
  113MOL0     H14882  10.669  -0.469   7.884  0.6420 -0.4632  0.1576
  113MOL0     H14883  10.667  -0.638   7.945  0.2921  0.4942  0.9895
  113MOL0     H14884  10.476  -0.699   7.792 -2.8623  0.2326  2.2884
  113MOL0     H14885  10.493  -0.531   7.720  1.2198 -0.3900 -1.5997
  113MOL0     H14886  10.425  -0.446   7.933  0.8681  0.5539 -1.0807
  113MOL0     H14887  10.395  -0.607   7.993 -2.1591  0.1678  0.4689
  113MOL0     H14888  10.254  -0.498   7.745  2.3358  1.1031  1.0271
  113MOL0     H14889  10.224  -0.644   7.829  0.0173  0.1391 -0.7210
  113MOL0     H14890  10.166  -0.363   7.957  3.0046 -0.2379  0.7337
  113MOL0     H14891  10.180  -0.512   8.050  2.2242 -0.4565 -0.3298
  113MOL0     H14892  10.017  -0.625   7.936  1.7331 -1.2558 -2.3706
  113MOL0     H14893  10.010  -0.514   7.807 -2.2235 -1.4012  0.8182
  113MOL0     H14894   9.918  -0.413   8.086  0.8912  0.0857 -0.7506
  113MOL0     H14895   9.888  -0.357   7.907  0.4307 -2.1441 -2.6550
  113MOL0     H14896   9.774  -0.608   8.056 -0.4948  0.1758 -0.1537
  113MOL0     H14897   9.782  -0.597   7.890  0.3428  2.9740 -2.4347
  113MOL0     H14898  10.877  -0.558   7.530  3.0884 -0.9630 -0.5933
  113MOL0     H14899  11.106  -0.475   7.512  0.6640  3.8358  0.2625
  113MOL0     H14900  11.438  -0.206   7.773  0.3809  1.2049  0.1893
  113MOL0     H14901  11.640  -0.097   7.756 -0.2054  0.0258 -0.2392
  113MOL0     H14902  11.052  -0.077   7.330  1.7278  1.5430  0.0204
  113MOL0     H14903  10.842  -0.198   7.300  1.2478 -0.7264 -0.5255
  113MOL0     H14904  10.270   0.072   7.167 -2.5598  0.0858 -1.9190
  113MOL0     H14905  10.064  -0.049   7.172  1.8222  2.7654  0.5594
  113MOL0     H14906  10.028  -0.502   7.175  0.7435  0.5023 -0.2383
  113MOL0     H14907  10.120  -0.503   7.030  1.7724 -0.9448  0.7860
  113MOL0     H14908   9.906  -0.448   6.909 -1.0429  1.9762  0.2715
  113MOL0     H14909   9.924  -0.600   6.986 -1.7159 -0.0812 -0.0855
  113MOL0     H14910   9.765  -0.362   7.113 -0.5948  0.5500 -0.3024
  113MOL0     H14911   9.797  -0.500   7.197 -0.0641  2.3151  0.7464
  113MOL0     H14912   9.668  -0.465   6.923 -0.7744  1.7559  0.2359
  113MOL0     H14913   9.679  -0.629   7.018  0.1266  0.3948 -0.4552
  113MOL0     H14914   9.317  -0.446   7.133  1.4489  2.0989  0.1184
  113MOL0     H14915  10.289  -0.414   7.089  1.4884 -0.2744 -0.7479
  113MOL0     H14916  10.490  -0.295   7.097 -1.7306 -2.3871 -0.3343
  114MOL0     O14917   3.129   0.866   8.692 -0.1883  0.2924 -0.2826
  114MOL0     C14918   3.031   0.922   8.742 -2.1150 -0.8641 -0.9710
  114MOL0     O14919   2.909   0.870   8.749 -0.0236  0.7969 -0.2398
  114MOL0     C14920   2.881   0.757   8.682 -0.7888 -0.6181  0.3096
  114MOL0     C14921   2.957   0.630   8.690  0.0930  0.0589 -0.3267
  114MOL0     C14922   2.918   0.515   8.613  0.8329 -0.5688 -0.0951
  114MOL0     C14923   2.819   0.529   8.517 -0.6195  0.4463 -0.3298
  114MOL0     O14924   2.806   0.421   8.432 -0.1607  0.1252  0.0293
  114MOL0     C14925   2.739   0.435   8.302  0.4335 -0.2432 -0.8894
  114MOL0     C14926   2.637   0.322   8.285 -1.3081 -0.1353  0.0715
  114MOL0     C14927   2.509   0.333   8.376 -0.2903  0.2938 -0.2130
  114MOL0     C14928   2.400   0.442   8.352  0.4869 -0.4155  0.7140
  114MOL0     C14929   2.315   0.440   8.479  0.2265 -0.4172  0.3110
  114MOL0     C14930   2.358   0.560   8.563 -0.8102 -0.7971 -1.0676
  114MOL0     C14931   2.277   0.571   8.695 -0.5588 -0.5653  1.0221
  114MOL0     C14932   2.311   0.692   8.769  0.5343  0.7736  0.0072
  114MOL0     N14933   2.202   0.716   8.869 -0.8188  0.3012 -0.0747
  114MOL0     C14934   2.219   0.698   9.006 -0.0175 -0.5380 -0.2091
  114MOL0     C14935   2.102   0.748   9.058  0.5785 -0.7846 -0.3686
  114MOL0     C14936   2.064   0.783   9.198 -0.7380  0.0483 -0.4982
  114MOL0     C14937   1.946   0.886   9.192  1.3088  0.6713  0.0914
  114MOL0     C14938   1.907   0.926   9.331 -0.3791  0.7044 -0.0391
  114MOL0     C14939   1.778   1.009   9.332  0.3108 -0.1066  0.7523
  114MOL0     O14940   1.655   0.928   9.326  0.5243 -0.0049 -0.4476
  114MOL0     C14941   1.533   0.990   9.292 -0.6180  0.1475 -0.0746
  114MOL0     C14942   1.436   0.902   9.249 -0.9661  0.5015 -0.4745
  114MOL0     C14943   1.304   0.939   9.221 -0.2224 -0.1304  0.2559
  114MOL0     C14944   1.275   1.079   9.228 -0.1989  0.0574 -0.7198
  114MOL0     C14945   1.132   1.124   9.189  0.3318  0.3581 -0.1835
  114MOL0     O14946   1.034   1.034   9.143  0.0076 -0.8471 -0.2301
  114MOL0     C14947   0.907   1.068   9.104  0.6024  0.8370 -0.6913
  114MOL0     C14948   0.845   1.192   9.068 -0.1406  0.4030  0.3053
  114MOL0     C14949   0.716   1.195   9.007 -0.9314 -0.0230 -0.4217
  114MOL0     C14950   0.635   1.079   8.997  0.5810  1.2052 -0.2005
  114MOL0     O14951   0.514   1.068   8.930 -0.0531  0.1674 -0.1628
  114MOL0     C14952   0.407   1.136   9.004  0.3088  0.1107  0.1678
  114MOL0     C14953   0.301   1.046   9.056  0.0025 -0.1607  0.5344
  114MOL0     C14954   0.167   1.128   9.057 -0.2207  0.7295  0.7203
  114MOL0     C14955   0.052   1.039   9.113 -0.3918 -0.2982  0.4422
  114MOL0     C14956  -0.066   1.125   9.098 -0.3072  0.4144 -0.1810
  114MOL0     C14957  -0.196   1.060   9.150 -0.9538  0.1022 -0.4552
  114MOL0     C14958  -0.321   1.152   9.125  0.0107 -0.3340  0.0187
  114MOL0     C14959  -0.422   1.131   9.232  1.0451 -0.3954 -0.0939
  114MOL0    Cl14960  -0.505   0.969   9.209 -0.0841  0.7091 -0.3609
  114MOL0     C14961   0.692   0.958   9.040  0.6897  0.0992 -0.5397
  114MOL0     C14962   0.823   0.956   9.092 -0.5143  0.2249 -0.0078
  114MOL0     O14963   1.126   1.246   9.212  0.3082 -0.0471 -0.8193
  114MOL0     C14964   1.376   1.168   9.275 -0.2544 -0.6071 -0.7421
  114MOL0     C14965   1.502   1.127   9.306  0.1142 -0.1314 -0.5225
  114MOL0     N14966   2.016   0.781   8.945 -0.3330  0.1774  0.3960
  114MOL0     N14967   2.077   0.765   8.832 -0.1471  0.4868 -0.0941
  114MOL0     C14968   2.750   0.655   8.506  0.1074  0.3468 -0.4133
  114MOL0     C14969   2.785   0.759   8.591 -0.1758 -0.3973 -0.1262
  114MOL0     C14970   3.046   1.062   8.794 -0.1621  0.1624  0.1930
  114MOL0     C14971   2.930   1.129   8.840  0.7196 -0.0968 -0.6344
  114MOL0     C14972   2.933   1.252   8.904  0.1134  0.9515  0.0224
  114MOL0     C14973   3.055   1.322   8.909 -0.3351  0.3892 -0.5162
  114MOL0     O14974   3.099   1.431   8.978  0.0074 -0.5052  0.5118
  114MOL0     C14975   2.995   1.498   9.046 -0.2313 -0.7170 -0.1781
  114MOL0     C14976   3.046   1.626   9.112 -0.1595  0.2139  0.6042
  114MOL0     C14977   3.114   1.709   8.999 -0.5182 -0.7656 -0.4228
  114MOL0     C14978   3.119   1.861   9.030 -0.1311 -0.1021  0.7788
  114MOL0     C14979   3.239   1.913   8.973 -1.0000  0.2068  0.6799
  114MOL0     C14980   3.345   1.940   8.916 -0.4517 -0.3381 -0.1304
  114MOL0     C14981   3.172   1.261   8.853 -0.0706 -0.4791  0.2437
  114MOL0     C14982   3.168   1.133   8.799  0.3313  0.1411 -0.6511
  114MOL0     H14983   3.048   0.622   8.748 -0.0515 -0.9137 -0.2098
  114MOL0     H14984   2.978   0.426   8.624 -0.0967 -1.0507  1.3897
  114MOL0     H14985   2.813   0.423   8.223  1.6579 -2.0059  0.4391
  114MOL0     H14986   2.695   0.535   8.294  1.0113  0.1663  0.6805
  114MOL0     H14987   2.688   0.227   8.304 -1.2227  0.2296  1.8476
  114MOL0     H14988   2.599   0.323   8.182 -0.9883  0.0034 -0.0475
  114MOL0     H14989   2.538   0.328   8.481 -0.6437 -0.3895 -0.1394
  114MOL0     H14990   2.462   0.234   8.372  1.5458 -0.6868  1.2228
  114MOL0     H14991   2.438   0.543   8.336  0.8847 -0.9562 -2.5851
  114MOL0     H14992   2.338   0.410   8.267  0.1620 -2.0996  1.5418
  114MOL0     H14993   2.326   0.339   8.520 -0.2564 -0.4375  0.3928
  114MOL0     H14994   2.210   0.461   8.458  0.4061  1.2921  0.9684
  114MOL0     H14995   2.346   0.655   8.510 -3.7981 -0.4974 -0.0581
  114MOL0     H14996   2.462   0.553   8.595 -1.1814 -0.1008  0.3543
  114MOL0     H14997   2.173   0.563   8.661 -0.4333 -3.2067  1.0513
  114MOL0     H14998   2.284   0.485   8.762  0.3271 -0.7129  0.7575
  114MOL0     H14999   2.320   0.778   8.701  1.9948  0.5052 -0.1856
  114MOL0     H15000   2.408   0.691   8.820  2.3115 -0.4711 -3.0810
  114MOL0     H15001   2.310   0.658   9.050  2.2159  1.7524 -2.4653
  114MOL0     H15002   2.146   0.823   9.258 -0.2336 -1.6595  0.0074
  114MOL0     H15003   2.045   0.688   9.248  0.4190 -1.1045 -2.1413
  114MOL0     H15004   1.860   0.835   9.147  0.1283 -2.0405  4.7102
  114MOL0     H15005   1.961   0.982   9.141  1.9455  0.0383 -0.9474
  114MOL0     H15006   1.886   0.836   9.390  0.5336  0.9565  0.6891
  114MOL0     H15007   1.993   0.979   9.373  1.3186 -2.1716  0.4516
  114MOL0     H15008   1.775   1.074   9.244 -0.6975 -0.7246  0.3051
  114MOL0     H15009   1.780   1.081   9.414  5.7232  3.5494 -1.9761
  114MOL0     H15010   1.456   0.796   9.236 -0.7022  0.4560  0.2664
  114MOL0     H15011   1.238   0.858   9.193 -1.3721  1.1551 -0.8831
  114MOL0     H15012   0.904   1.284   9.070  0.0347  0.2803  1.1713
  114MOL0     H15013   0.675   1.291   8.975 -0.6519  0.4364  0.5540
  114MOL0     H15014   0.359   1.192   8.923  0.4992 -1.9066 -1.4112
  114MOL0     H15015   0.444   1.195   9.088 -2.0005 -3.3730  4.0361
  114MOL0     H15016   0.331   1.014   9.156  1.4663 -5.7001 -1.3493
  114MOL0     H15017   0.295   0.961   8.988 -1.2342  0.8398 -0.6722
  114MOL0     H15018   0.139   1.156   8.955 -1.4406 -1.5783  0.3492
  114MOL0     H15019   0.198   1.218   9.112  0.7395  0.8642 -0.0128
  114MOL0     H15020   0.034   0.953   9.047 -0.8385 -0.2150  0.4553
  114MOL0     H15021   0.069   1.001   9.214  1.0825  2.0923  1.1766
  114MOL0     H15022  -0.081   1.149   8.993 -0.7793  1.1385  0.0483
  114MOL0     H15023  -0.043   1.215   9.155 -0.1950 -0.8034  1.7856
  114MOL0     H15024  -0.172   1.046   9.256  1.1648  0.2727 -0.8732
  114MOL0     H15025  -0.202   0.966   9.095  0.3561  0.5818 -1.4452
  114MOL0     H15026  -0.291   1.257   9.115 -0.6275 -0.2065 -0.6918
  114MOL0     H15027  -0.357   1.126   9.024 -0.4004 -1.5385  0.4573
  114MOL0     H15028  -0.499   1.207   9.236 -2.6901 -3.8868  3.2918
  114MOL0     H15029  -0.377   1.127   9.332  1.2808  2.3411 -0.0173
  114MOL0     H15030   0.650   0.858   9.031 -2.0116  1.2104 -1.1347
  114MOL0     H15031   0.848   0.864   9.143  0.4309  1.2807  1.5242
  114MOL0     H15032   1.344   1.269   9.298 -2.2443 -1.5732  1.1559
  114MOL0     H15033   1.567   1.195   9.361 -1.4329 -1.9086  3.9469
  114MOL0     H15034   2.670   0.671   8.435  0.2037  1.4193 -0.2973
  114MOL0     H15035   2.725   0.848   8.575 -0.7012 -1.3098 -5.1535
  114MOL0     H15036   2.831   1.085   8.849  0.7142  0.1852  0.8821
  114MOL0     H15037   2.840   1.286   8.949  0.7146  0.7473  1.4927
  114MOL0     H15038   2.943   1.430   9.114  2.2109 -0.4856  2.1000
  114MOL0     H15039   2.925   1.523   8.965  0.7911 -1.0663 -1.1880
  114MOL0     H15040   2.960   1.683   9.149 -1.3186 -1.2160  0.2606
  114MOL0     H15041   3.112   1.594   9.193  0.0807 -0.9457 -0.0173
  114MOL0     H15042   3.068   1.701   8.900 -1.3310  0.4361 -0.1605
  114MOL0     H15043   3.218   1.678   8.991 -0.8152 -1.9350  0.0835
  114MOL0     H15044   3.023   1.909   9.008 -0.0807 -0.9204 -1.4468
  114MOL0     H15045   3.130   1.879   9.137 -1.3406  1.9057  0.6101
  114MOL0     H15046   3.434   1.964   8.860 -1.0571 -2.0948 -1.9807
  114MOL0     H15047   3.272   1.297   8.873 -0.3522  0.3581  0.1574
  114MOL0     H15048   3.257   1.084   8.761  0.0280 -2.0068  1.2228
  115MOL0     O15049   0.965   8.524  11.016  0.7141  0.2204  0.6085
  115MOL0     C15050   0.973   8.454  11.121  0.1137  0.0612  0.5579
  115MOL0     O15051   0.871   8.382  11.179 -0.3118  1.0146 -0.5276
  115MOL0     C15052   0.748   8.370  11.127  0.6409  0.5992 -0.3077
  115MOL0     C15053   0.643   8.347  11.217  0.1098 -0.7041 -0.0215
  115MOL0     C15054   0.514   8.340  11.190 -0.6153 -0.4374  0.8821
  115MOL0     C15055   0.483   8.327  11.049  0.8396 -0.3007 -0.1133
  115MOL0     O15056   0.358   8.298  10.992 -0.7048 -0.1167 -0.1021
  115MOL0     C15057   0.237   8.318  11.062 -0.7441  0.1093 -0.4070
  115MOL0     C15058   0.181   8.184  11.098  0.3393 -0.1719  0.3740
  115MOL0     C15059   0.036   8.209  11.143 -0.8198  0.0894 -0.0043
  115MOL0     C15060  -0.016   8.101  11.236  0.7112  0.7000 -0.2165
  115MOL0     C15061  -0.170   8.102  11.273  0.7742  0.3477  0.9233
  115MOL0     C15062  -0.202   8.231  11.335 -0.2403  0.0461 -0.1155
  115MOL0     C15063  -0.353   8.232  11.362  0.7448 -0.3652  0.3672
  115MOL0     C15064  -0.394   8.131  11.467  0.2606  0.1268  0.7353
  115MOL0     N15065  -0.538   8.132  11.492  0.8484 -0.1112  0.6462
  115MOL0     C15066  -0.606   8.218  11.577  0.1128 -0.6588 -0.0628
  115MOL0     C15067  -0.739   8.179  11.566  0.4697 -0.3830  0.4110
  115MOL0     C15068  -0.861   8.263  11.608 -0.5354  0.4080 -0.7866
  115MOL0     C15069  -0.939   8.174  11.711 -0.3167 -0.2697  1.3982
  115MOL0     C15070  -1.083   8.230  11.739 -0.9975 -0.1607  0.1514
  115MOL0     C15071  -1.149   8.135  11.833  0.3953 -0.3223  0.0814
  115MOL0     O15072  -1.288   8.162  11.822  0.5751  0.3063 -0.3698
  115MOL0     C15073  -1.372   8.080  11.892 -0.4351  0.6976  0.4705
  115MOL0     C15074  -1.355   8.037  12.021  0.0288 -0.0008  0.2904
  115MOL0     C15075  -1.464   7.986  12.087 -0.2809  0.1174 -0.8962
  115MOL0     C15076  -1.583   7.964  12.017  0.9491  0.3777  0.3989
  115MOL0     C15077  -1.698   7.906  12.081  0.2478  1.0758 -0.2119
  115MOL0     O15078  -1.811   7.900  12.004 -0.0400 -0.0466  0.1086
  115MOL0     C15079  -1.930   7.867  12.075 -0.9819 -1.1072 -0.2128
  115MOL0     C15080  -2.018   7.970  12.104  1.0079  0.7219  0.2242
  115MOL0     C15081  -2.137   7.930  12.171 -0.9479 -0.2399  0.1160
  115MOL0     C15082  -2.162   7.799  12.213 -0.4057 -0.0389 -0.0063
  115MOL0     O15083  -2.281   7.766  12.263  0.3769  0.2517  1.1176
  115MOL0     C15084  -2.315   7.803  12.402 -1.1709  0.1059  0.0229
  115MOL0     C15085  -2.441   7.724  12.447  0.3419 -1.0283 -0.2325
  115MOL0     C15086  -2.564   7.727  12.347  0.1597  0.4051 -0.7157
  115MOL0     C15087  -2.633   7.872  12.357 -0.1623 -1.0360 -0.2469
  115MOL0     C15088  -2.707   7.879  12.491 -0.7198  1.2937  0.4369
  115MOL0     C15089  -2.824   7.979  12.477  0.4725  0.7220  0.2848
  115MOL0     C15090  -2.845   8.052  12.610  0.3444 -0.5213  0.3926
  115MOL0     C15091  -2.930   8.180  12.576 -0.7303  0.1025 -1.0389
  115MOL0    Cl15092  -3.091   8.119  12.531 -0.3944  0.3525 -0.2054
  115MOL0     C15093  -2.061   7.706  12.191  0.1508  0.8301 -0.2576
  115MOL0     C15094  -1.949   7.741  12.117 -0.6470 -0.2712  0.9283
  115MOL0     O15095  -1.690   7.872  12.200  0.2205  0.1006 -0.2786
  115MOL0     C15096  -1.590   7.991  11.883  0.7957  0.3980  0.0801
  115MOL0     C15097  -1.488   8.052  11.815 -0.7475 -0.3789 -0.0093
  115MOL0     N15098  -0.747   8.076  11.477  0.9311  0.6519 -0.6669
  115MOL0     N15099  -0.629   8.049  11.429  0.1126  0.7359  0.4139
  115MOL0     C15100   0.579   8.341  10.954 -1.1852  0.5616  0.9286
  115MOL0     C15101   0.712   8.368  10.991  0.8008  0.2862  0.6639
  115MOL0     C15102   1.104   8.429  11.185 -0.0271 -0.5324  0.3003
  115MOL0     C15103   1.220   8.437  11.104  0.9480 -0.0396  0.4392
  115MOL0     C15104   1.336   8.393  11.158  0.7187 -0.0535  0.2210
  115MOL0     C15105   1.351   8.370  11.292 -0.5401  1.1221  0.4199
  115MOL0     O15106   1.474   8.326  11.346  0.7929 -0.2635  0.1763
  115MOL0     C15107   1.570   8.434  11.364 -0.7298  0.7859 -0.5949
  115MOL0     C15108   1.695   8.364  11.408 -0.8392  0.6129  1.2112
  115MOL0     C15109   1.677   8.283  11.539 -0.1286 -0.7106 -0.5153
  115MOL0     C15110   1.808   8.224  11.588  0.1879 -0.5000  0.3435
  115MOL0     C15111   1.849   8.111  11.497  0.6263 -0.5701 -0.2183
  115MOL0     C15112   1.905   8.022  11.440  1.1628  0.4675 -1.7823
  115MOL0     C15113   1.232   8.368  11.374 -1.2098  0.2568  0.0806
  115MOL0     C15114   1.110   8.398  11.323  0.0762  1.3776  0.3565
  115MOL0     H15115   0.659   8.342  11.325 -3.1616 -0.9035  0.5672
  115MOL0     H15116   0.430   8.346  11.257 -1.4700 -0.7946 -0.1334
  115MOL0     H15117   0.162   8.375  11.005 -2.0571 -1.6801 -0.5723
  115MOL0     H15118   0.252   8.378  11.152 -1.4567 -0.5312  0.1548
  115MOL0     H15119   0.250   8.143  11.173  1.8532  1.8365  0.1870
  115MOL0     H15120   0.186   8.123  11.007  1.0714  0.9590 -0.3733
  115MOL0     H15121  -0.029   8.221  11.056 -1.0760 -1.6198 -0.0833
  115MOL0     H15122   0.024   8.304  11.195 -3.0230  0.5065 -1.1737
  115MOL0     H15123   0.006   8.001  11.198 -1.4013 -1.0786  2.8371
  115MOL0     H15124   0.051   8.099  11.322  2.1214 -3.0309 -1.1818
  115MOL0     H15125  -0.198   8.016  11.335 -1.3128 -1.4219 -2.2276
  115MOL0     H15126  -0.230   8.090  11.183 -0.8290 -2.0230  2.2024
  115MOL0     H15127  -0.186   8.316  11.269  3.5779  0.1153  0.6834
  115MOL0     H15128  -0.133   8.247  11.419  0.0313 -2.2057  0.1689
  115MOL0     H15129  -0.377   8.327  11.411  1.9098 -0.4255  1.0977
  115MOL0     H15130  -0.406   8.220  11.267  2.7276  0.5307 -0.9031
  115MOL0     H15131  -0.344   8.157  11.561 -0.1361  2.5504  0.3204
  115MOL0     H15132  -0.370   8.030  11.431  2.5356  0.9433 -0.2678
  115MOL0     H15133  -0.569   8.307  11.626  1.0283 -0.0965 -1.6925
  115MOL0     H15134  -0.926   8.297  11.528 -2.1345  0.4093  0.4565
  115MOL0     H15135  -0.834   8.357  11.656 -5.1010  0.5154  2.2082
  115MOL0     H15136  -0.883   8.160  11.804  2.6810 -1.8006 -0.4829
  115MOL0     H15137  -0.947   8.072  11.670 -1.9618  0.3734 -0.0127
  115MOL0     H15138  -1.065   8.326  11.788  2.3010 -1.4924  1.8893
  115MOL0     H15139  -1.129   8.235  11.640 -0.6106 -0.6804 -0.0597
  115MOL0     H15140  -1.111   8.171  11.929  3.8854  0.8567 -1.5782
  115MOL0     H15141  -1.124   8.029  11.818  1.7798 -0.0270  0.1938
  115MOL0     H15142  -1.264   8.050  12.078  0.4280 -2.4335  0.3253
  115MOL0     H15143  -1.456   7.949  12.189  1.8721 -1.3570 -1.5588
  115MOL0     H15144  -2.017   8.074  12.075 -0.2670  0.1924 -1.9459
  115MOL0     H15145  -2.214   7.999  12.203 -1.0001 -0.1479 -0.2101
  115MOL0     H15146  -2.323   7.910  12.424  0.7138  0.4209 -0.6768
  115MOL0     H15147  -2.227   7.780  12.462 -0.1750  0.6680 -1.1633
  115MOL0     H15148  -2.456   7.751  12.552  0.5885 -1.5956 -0.0471
  115MOL0     H15149  -2.418   7.617  12.447  2.8997 -0.5598  0.0170
  115MOL0     H15150  -2.631   7.640  12.356  0.5599 -0.6797 -5.3208
  115MOL0     H15151  -2.529   7.704  12.246 -1.2175 -3.6615 -0.4474
  115MOL0     H15152  -2.564   7.957  12.357  1.3801 -2.0479  3.7183
  115MOL0     H15153  -2.715   7.875  12.285 -0.8551  1.5599  0.5416
  115MOL0     H15154  -2.634   7.925  12.558  0.4374  0.6165 -0.3288
  115MOL0     H15155  -2.732   7.778  12.525 -1.7996  0.1130 -3.3329
  115MOL0     H15156  -2.909   7.926  12.433  0.3947  2.0415 -1.2281
  115MOL0     H15157  -2.782   8.050  12.406  1.5579  1.1055  1.2808
  115MOL0     H15158  -2.886   7.982  12.683 -0.7575  0.9766  1.2500
  115MOL0     H15159  -2.748   8.085  12.650  0.0397  0.7667  0.0872
  115MOL0     H15160  -2.891   8.241  12.494  1.0440 -3.3232 -2.9967
  115MOL0     H15161  -2.944   8.233  12.670 -0.2707  1.9777 -1.9711
  115MOL0     H15162  -2.077   7.600  12.204  1.3185  0.7937  1.0717
  115MOL0     H15163  -1.874   7.671  12.083  1.1807  0.7949  2.5101
  115MOL0     H15164  -1.673   7.954  11.823 -1.7724 -0.6566  3.9029
  115MOL0     H15165  -1.502   8.087  11.713  1.9517 -1.7521 -0.9499
  115MOL0     H15166   0.548   8.330  10.850  0.3409 -1.7595  0.6376
  115MOL0     H15167   0.791   8.371  10.917  0.8136  0.7599  0.6877
  115MOL0     H15168   1.213   8.470  11.001  1.7140 -0.6588  0.1776
  115MOL0     H15169   1.409   8.399  11.077  1.1718 -3.3868  0.2579
  115MOL0     H15170   1.556   8.514  11.438 -0.1825  0.0821  0.2914
  115MOL0     H15171   1.588   8.487  11.270 -1.0959 -1.6582 -2.1256
  115MOL0     H15172   1.732   8.299  11.329  0.2354  2.1328  0.4166
  115MOL0     H15173   1.762   8.450  11.414 -0.4467  0.7402 -2.7241
  115MOL0     H15174   1.607   8.200  11.523  1.7539 -2.3784 -0.4811
  115MOL0     H15175   1.633   8.348  11.616  0.0723 -0.1578 -0.8615
  115MOL0     H15176   1.880   8.301  11.617  0.3925 -1.0499  1.3570
  115MOL0     H15177   1.797   8.181  11.688  1.9615 -0.5728  0.5511
  115MOL0     H15178   1.938   7.938  11.383  1.1303 -0.9101  0.1283
  115MOL0     H15179   1.245   8.356  11.482 -1.1365  1.9056  0.2843
  115MOL0     H15180   1.033   8.393  11.399  0.5461 -2.2120  0.7492
  116MOL0     O15181   8.563   5.386   0.807 -0.2246 -0.4091 -0.0347
  116MOL0     C15182   8.658   5.334   0.865 -0.0532 -0.4217  1.3475
  116MOL0     O15183   8.654   5.218   0.924 -0.2271 -0.2413 -0.1325
  116MOL0     C15184   8.532   5.154   0.922 -0.9276 -1.0664  0.1625
  116MOL0     C15185   8.505   5.039   0.848 -0.1072 -0.0446  0.5295
  116MOL0     C15186   8.388   4.962   0.866 -0.4417  0.1068 -0.5150
  116MOL0     C15187   8.295   4.998   0.955  0.3978  0.3624  0.5554
  116MOL0     O15188   8.179   4.931   0.981  0.5866 -0.0544  0.1295
  116MOL0     C15189   8.113   4.860   0.875  0.9197 -0.6082  1.0246
  116MOL0     C15190   8.060   4.960   0.767  0.8799  0.4287 -0.0857
  116MOL0     C15191   7.935   5.031   0.826 -0.1765 -0.4498  0.0130
  116MOL0     C15192   7.881   5.126   0.718  0.1877  0.1297 -0.1367
  116MOL0     C15193   7.802   5.242   0.792  0.3811  0.4860 -0.5246
  116MOL0     C15194   7.710   5.307   0.692 -0.2391  0.7017  0.3347
  116MOL0     C15195   7.626   5.425   0.748  0.0578  0.2937  0.4041
  116MOL0     C15196   7.702   5.550   0.788 -0.1732  0.0797  0.4739
  116MOL0     N15197   7.639   5.680   0.774  0.1949 -0.8583 -1.4561
  116MOL0     C15198   7.541   5.728   0.864  0.0526  0.0630  0.8475
  116MOL0     C15199   7.493   5.842   0.806 -0.5178 -0.1621 -0.2557
  116MOL0     C15200   7.383   5.933   0.851 -0.1320  0.1561 -0.0562
  116MOL0     C15201   7.236   5.872   0.885 -0.6016  0.3777  0.3795
  116MOL0     C15202   7.186   5.790   0.767  0.4084 -0.5006  0.0819
  116MOL0     C15203   7.144   5.885   0.648 -0.2540  0.2806 -0.2553
  116MOL0     O15204   7.037   5.971   0.697 -0.2847 -0.3858  0.1126
  116MOL0     C15205   6.982   6.055   0.607  0.6383  0.6042  0.2434
  116MOL0     C15206   6.891   6.149   0.662 -0.0970 -0.9832  0.2819
  116MOL0     C15207   6.822   6.237   0.586  0.4414 -0.0431  0.3921
  116MOL0     C15208   6.817   6.230   0.448  0.9310  0.6700 -0.3867
  116MOL0     C15209   6.723   6.312   0.367 -0.7620  0.3109 -0.7155
  116MOL0     O15210   6.720   6.271   0.232 -0.0015  0.0048 -0.4302
  116MOL0     C15211   6.625   6.310   0.145  0.7243 -0.4515 -0.3991
  116MOL0     C15212   6.490   6.335   0.191 -0.8010 -0.6473 -0.0179
  116MOL0     C15213   6.400   6.366   0.090  0.2245 -0.1491 -0.4416
  116MOL0     C15214   6.432   6.371  -0.045  1.7041 -0.3034  0.4339
  116MOL0     O15215   6.318   6.375  -0.129  0.1831  0.4381  0.5229
  116MOL0     C15216   6.302   6.269  -0.226  0.5898  0.9579 -0.0458
  116MOL0     C15217   6.162   6.287  -0.289  0.1623 -0.2653  1.3534
  116MOL0     C15218   6.050   6.223  -0.204  1.0030 -0.1886  0.0020
  116MOL0     C15219   5.922   6.203  -0.279  0.7378 -0.6559 -0.3914
  116MOL0     C15220   5.912   6.085  -0.379  0.0106  0.9494 -0.1509
  116MOL0     C15221   5.759   6.041  -0.408  0.2544  0.3717  0.3557
  116MOL0     C15222   5.772   5.935  -0.523 -1.4196  0.3653  0.7897
  116MOL0     C15223   5.633   5.877  -0.539  1.2187 -0.3339 -0.8830
  116MOL0    Cl15224   5.631   5.730  -0.639 -0.1295  0.4666 -0.3059
  116MOL0     C15225   6.562   6.339  -0.081 -0.4978 -0.0483 -0.1396
  116MOL0     C15226   6.657   6.305   0.018 -1.3968  0.1476  1.0299
  116MOL0     O15227   6.645   6.388   0.417 -0.1861 -0.4448 -0.3065
  116MOL0     C15228   6.904   6.141   0.391 -0.1402  0.7408  0.3160
  116MOL0     C15229   6.985   6.052   0.466 -1.6417  0.0715 -0.7441
  116MOL0     N15230   7.558   5.863   0.689 -0.9963  0.9300 -0.1336
  116MOL0     N15231   7.629   5.760   0.660 -1.2041  0.1169  0.7906
  116MOL0     C15232   8.329   5.105   1.044 -0.1008 -0.5054  0.8037
  116MOL0     C15233   8.439   5.191   1.016  0.5738  0.1385 -0.8535
  116MOL0     C15234   8.778   5.419   0.873  0.4280 -0.0550  0.5949
  116MOL0     C15235   8.770   5.554   0.817  0.7710 -0.7776 -0.0203
  116MOL0     C15236   8.876   5.646   0.818  0.1630  0.0564 -0.1024
  116MOL0     C15237   9.002   5.595   0.857  0.5816  0.0937 -0.1029
  116MOL0     O15238   9.103   5.692   0.851  0.1946 -1.0007 -0.2427
  116MOL0     C15239   9.238   5.654   0.851  0.2147 -0.7028 -0.6975
  116MOL0     C15240   9.294   5.599   0.713 -0.2187  0.5352 -0.1475
  116MOL0     C15241   9.442   5.547   0.727 -0.4715  0.1827 -0.2315
  116MOL0     C15242   9.506   5.484   0.605 -0.3825  0.1978  0.2382
  116MOL0     C15243   9.649   5.499   0.600 -0.1547 -0.4392  0.8278
  116MOL0     C15244   9.773   5.495   0.619  0.2031  0.8707  0.1559
  116MOL0     C15245   9.019   5.464   0.894 -0.0966 -0.7851  0.2254
  116MOL0     C15246   8.907   5.376   0.902  0.1385 -0.6691  0.4254
  116MOL0     H15247   8.576   5.013   0.770 -1.5995  2.1293 -1.6802
  116MOL0     H15248   8.367   4.880   0.798  0.4369  0.8985 -1.7904
  116MOL0     H15249   8.029   4.797   0.907 -0.6854 -0.7526 -2.8008
  116MOL0     H15250   8.191   4.798   0.829  0.8160 -0.3710  0.5157
  116MOL0     H15251   8.023   4.902   0.683 -1.2951  2.3464 -0.5716
  116MOL0     H15252   8.141   5.026   0.734  1.2526 -0.0776 -0.1918
  116MOL0     H15253   7.962   5.091   0.913 -0.7080  1.6667 -1.2130
  116MOL0     H15254   7.865   4.951   0.854 -0.2564 -1.0070 -1.6517
  116MOL0     H15255   7.962   5.159   0.652 -1.5898 -0.8701 -3.0010
  116MOL0     H15256   7.818   5.065   0.654 -3.3164 -0.5496  3.5525
  116MOL0     H15257   7.866   5.322   0.830  1.8832 -1.4754  1.3807
  116MOL0     H15258   7.742   5.205   0.876  1.7807 -1.5154 -0.3191
  116MOL0     H15259   7.639   5.227   0.669  1.0705 -0.6131  0.7318
  116MOL0     H15260   7.761   5.341   0.601 -0.5110  0.9836  0.2837
  116MOL0     H15261   7.550   5.463   0.679 -0.3223 -1.4619 -0.1957
  116MOL0     H15262   7.563   5.386   0.828 -1.6777  0.3538 -0.8733
  116MOL0     H15263   7.774   5.548   0.706 -1.0921  0.7122 -0.3828
  116MOL0     H15264   7.756   5.535   0.882  0.7896  0.4086 -0.0122
  116MOL0     H15265   7.514   5.676   0.955 -2.2640 -1.3170 -0.5373
  116MOL0     H15266   7.374   6.014   0.779 -2.1594 -1.1218 -1.3438
  116MOL0     H15267   7.414   5.967   0.950  1.4337 -3.4228  0.8524
  116MOL0     H15268   7.156   5.946   0.902 -0.0014  0.6393  2.2655
  116MOL0     H15269   7.244   5.821   0.981  0.1421  1.2464  0.7968
  116MOL0     H15270   7.257   5.713   0.737 -2.7890 -1.9899 -5.1276
  116MOL0     H15271   7.094   5.739   0.800  0.8110 -0.0483  2.0306
  116MOL0     H15272   7.102   5.841   0.558 -3.0733  1.1805  0.5240
  116MOL0     H15273   7.234   5.940   0.621  0.0414  0.5937  1.2425
  116MOL0     H15274   6.868   6.151   0.768  1.0635  1.5362  0.5544
  116MOL0     H15275   6.747   6.298   0.635 -0.1915 -1.6754  1.5348
  116MOL0     H15276   6.459   6.320   0.293  2.6676 -0.4870  1.1844
  116MOL0     H15277   6.296   6.365   0.121  0.2684  2.1535 -0.0050
  116MOL0     H15278   6.310   6.166  -0.191 -0.2254  0.2172 -1.9245
  116MOL0     H15279   6.372   6.291  -0.308  0.6561 -0.5377 -0.4193
  116MOL0     H15280   6.167   6.223  -0.377  2.0541 -0.4735  1.5789
  116MOL0     H15281   6.138   6.388  -0.324 -3.0988 -1.0659  0.9723
  116MOL0     H15282   6.034   6.300  -0.128  2.1342 -1.0071  1.1088
  116MOL0     H15283   6.081   6.129  -0.158 -0.2494 -1.2219 -1.1839
  116MOL0     H15284   5.837   6.186  -0.212 -0.6542  1.7435 -1.3941
  116MOL0     H15285   5.909   6.304  -0.321  1.8115  0.3648  1.6303
  116MOL0     H15286   5.953   5.991  -0.340 -2.2408 -0.0201  0.0521
  116MOL0     H15287   5.963   6.117  -0.470  2.4064  1.3791  1.2499
  116MOL0     H15288   5.712   6.125  -0.460 -0.2146 -0.4313 -0.5457
  116MOL0     H15289   5.717   6.010  -0.312  0.8333 -0.4408  0.3587
  116MOL0     H15290   5.812   5.978  -0.615  0.8889 -1.0198  1.0713
  116MOL0     H15291   5.832   5.848  -0.494 -0.9362  0.7205  0.8611
  116MOL0     H15292   5.586   5.959  -0.595  1.7415  4.9572  5.2200
  116MOL0     H15293   5.586   5.849  -0.444  1.1144 -1.5922 -1.2844
  116MOL0     H15294   6.591   6.344  -0.185  3.3880 -1.5030  0.7349
  116MOL0     H15295   6.756   6.268  -0.007 -1.3142 -0.3718  2.0521
  116MOL0     H15296   6.907   6.136   0.283 -0.5928  0.5197  0.3119
  116MOL0     H15297   7.046   5.988   0.404  1.8777  0.9255  1.5297
  116MOL0     H15298   8.261   5.103   1.128 -2.6670 -0.6787 -1.1650
  116MOL0     H15299   8.446   5.262   1.098 -2.6999 -0.0044 -0.3338
  116MOL0     H15300   8.683   5.605   0.777  4.1440  2.9553 -3.3747
  116MOL0     H15301   8.862   5.750   0.789 -1.1822  0.5533  2.1416
  116MOL0     H15302   9.268   5.591   0.935  1.3120  2.0272  1.0743
  116MOL0     H15303   9.292   5.747   0.868 -0.2043 -0.3815 -1.0915
  116MOL0     H15304   9.229   5.521   0.674  0.8643 -2.0093  2.7326
  116MOL0     H15305   9.296   5.687   0.648 -2.0636  0.9025  0.2140
  116MOL0     H15306   9.451   5.465   0.799  3.6495 -1.3719 -2.2163
  116MOL0     H15307   9.502   5.636   0.747 -0.6889  0.1309  0.7060
  116MOL0     H15308   9.477   5.381   0.582  0.6828  0.2282 -1.4564
  116MOL0     H15309   9.467   5.543   0.521 -0.3966 -0.2911 -0.1076
  116MOL0     H15310   9.877   5.478   0.635  0.1441  1.0537  0.7558
  116MOL0     H15311   9.110   5.415   0.925  0.1368 -0.0829  0.6680
  116MOL0     H15312   8.915   5.274   0.939  1.1438 -0.4367  0.8778
  117MOL0     O15313   6.520   1.266   4.319  0.6789 -0.5494  0.1282
  117MOL0     C15314   6.487   1.309   4.209 -0.4370  0.5096  0.2855
  117MOL0     O15315   6.361   1.319   4.164 -0.2576 -0.1693  0.0499
  117MOL0     C15316   6.256   1.265   4.239 -0.5389  0.6960  0.4932
  117MOL0     C15317   6.132   1.280   4.169 -0.7932  0.1337 -0.4328
  117MOL0     C15318   6.009   1.236   4.221 -0.3167  0.4769  0.8243
  117MOL0     C15319   6.008   1.166   4.347 -0.1735 -0.9993  0.2986
  117MOL0     O15320   5.904   1.115   4.409  0.3102  0.2587  0.1714
  117MOL0     C15321   5.802   1.223   4.429  0.9894 -0.0925 -1.0144
  117MOL0     C15322   5.673   1.167   4.486 -0.6720 -0.5059 -0.4151
  117MOL0     C15323   5.587   1.291   4.524 -0.0922 -0.1256  0.5241
  117MOL0     C15324   5.449   1.243   4.559  0.5076  0.1137  0.3137
  117MOL0     C15325   5.349   1.360   4.585 -0.4871 -0.2549  1.5088
  117MOL0     C15326   5.280   1.420   4.453  0.4612  0.7393  0.3782
  117MOL0     C15327   5.159   1.348   4.406 -0.4127  0.4103  0.6695
  117MOL0     C15328   5.023   1.378   4.477 -0.0531  0.3864  0.0397
  117MOL0     N15329   4.993   1.516   4.463 -0.6238 -0.1803  0.1796
  117MOL0     C15330   4.898   1.563   4.378 -0.2632  0.5700  0.0416
  117MOL0     C15331   4.871   1.695   4.404  0.2736 -1.1746  0.3650
  117MOL0     C15332   4.773   1.794   4.330 -0.1760 -0.0011  0.3578
  117MOL0     C15333   4.632   1.828   4.384  0.1311  0.3611 -0.0046
  117MOL0     C15334   4.556   1.919   4.289 -0.3715 -0.7874 -0.1211
  117MOL0     C15335   4.409   1.950   4.333 -1.2119  0.5198  0.4990
  117MOL0     O15336   4.320   1.829   4.322 -0.6850  0.3990 -0.7985
  117MOL0     C15337   4.195   1.837   4.395 -1.1050  0.1201  0.1416
  117MOL0     C15338   4.180   1.883   4.526  0.2385 -0.3651 -0.1734
  117MOL0     C15339   4.048   1.879   4.580 -0.4958  0.4475  0.4579
  117MOL0     C15340   3.947   1.828   4.499 -0.2817  0.5090 -0.3491
  117MOL0     C15341   3.807   1.823   4.540 -0.2270 -0.4681 -0.3758
  117MOL0     O15342   3.719   1.758   4.465  0.0142 -0.6360 -0.2402
  117MOL0     C15343   3.582   1.755   4.496 -0.1733 -0.7069  1.1106
  117MOL0     C15344   3.508   1.795   4.384  0.4585 -0.0588 -0.7767
  117MOL0     C15345   3.371   1.795   4.401 -0.4501  0.2624 -0.4346
  117MOL0     C15346   3.315   1.775   4.529 -0.0458  0.2770  0.0091
  117MOL0     O15347   3.176   1.770   4.525 -0.4832  0.7324 -0.8405
  117MOL0     C15348   3.116   1.807   4.649 -0.1234  0.8515  0.4586
  117MOL0     C15349   2.965   1.834   4.643 -0.6175 -0.0312  0.2393
  117MOL0     C15350   2.920   1.894   4.771 -0.1086  0.4208 -0.1008
  117MOL0     C15351   2.771   1.908   4.776  0.2000  0.4644  0.0773
  117MOL0     C15352   2.730   1.953   4.918 -0.4205  0.2731  1.1560
  117MOL0     C15353   2.579   1.980   4.913 -0.6794  0.9429  1.4689
  117MOL0     C15354   2.512   2.011   5.043  0.8341 -0.2713 -0.5913
  117MOL0     C15355   2.364   2.043   5.020 -0.2948 -0.2435 -0.3323
  117MOL0    Cl15356   2.294   2.131   5.159  0.0796 -0.4008 -0.0838
  117MOL0     C15357   3.393   1.734   4.634  0.0968 -0.2711  0.2941
  117MOL0     C15358   3.528   1.722   4.622  0.2155 -0.0189 -0.3195
  117MOL0     O15359   3.786   1.862   4.651 -0.3893 -0.6443  0.1013
  117MOL0     C15360   3.972   1.774   4.375 -0.8705  0.3165 -0.1217
  117MOL0     C15361   4.101   1.779   4.319  0.1793 -0.1980 -0.2937
  117MOL0     N15362   4.949   1.723   4.516 -0.2300 -0.5609 -0.7094
  117MOL0     N15363   5.017   1.615   4.560 -1.2729 -0.0040 -0.1998
  117MOL0     C15364   6.132   1.151   4.412 -0.3039  0.2781 -0.1397
  117MOL0     C15365   6.251   1.203   4.361  0.7370 -0.6004 -1.1837
  117MOL0     C15366   6.592   1.328   4.105 -0.5665 -0.1079 -0.4011
  117MOL0     C15367   6.552   1.367   3.974 -0.6491 -0.4624 -0.1972
  117MOL0     C15368   6.654   1.403   3.883  0.4839  0.5924 -0.2702
  117MOL0     C15369   6.791   1.398   3.905  1.0339 -0.1923  0.2416
  117MOL0     O15370   6.872   1.442   3.804  0.2183  0.9296  0.0756
  117MOL0     C15371   6.990   1.496   3.857  0.4897  0.5044  0.0449
  117MOL0     C15372   7.036   1.577   3.741  0.5754 -0.9910  0.1780
  117MOL0     C15373   6.938   1.690   3.710  0.9428  0.2147  0.6213
  117MOL0     C15374   7.005   1.794   3.618 -0.3538 -0.2671 -0.4413
  117MOL0     C15375   6.892   1.876   3.569 -0.2854 -0.8407 -0.6608
  117MOL0     C15376   6.796   1.948   3.535  0.2209 -0.4088  0.0453
  117MOL0     C15377   6.826   1.372   4.039 -1.4811 -0.0605  0.2879
  117MOL0     C15378   6.732   1.333   4.131  0.4802 -0.3421 -0.1203
  117MOL0     H15379   6.125   1.330   4.073  0.4299 -0.0744 -0.6559
  117MOL0     H15380   5.924   1.263   4.159  0.2835  1.1602  0.2780
  117MOL0     H15381   5.778   1.283   4.342 -2.2105  2.8264  1.5811
  117MOL0     H15382   5.837   1.293   4.506 -1.2263  2.2563 -2.0016
  117MOL0     H15383   5.696   1.114   4.579  0.2229  2.5315  1.2351
  117MOL0     H15384   5.630   1.096   4.414 -2.0643 -1.3418  1.1813
  117MOL0     H15385   5.569   1.367   4.447  0.5614 -0.7502 -0.2686
  117MOL0     H15386   5.642   1.334   4.608  1.0078  0.0353 -0.2561
  117MOL0     H15387   5.412   1.189   4.471  1.3842  0.2111 -0.1223
  117MOL0     H15388   5.478   1.178   4.642  2.7642  2.5231  1.5104
  117MOL0     H15389   5.401   1.441   4.638  3.5468 -1.0700 -0.7836
  117MOL0     H15390   5.270   1.319   4.649 -1.7971 -1.6702 -0.8922
  117MOL0     H15391   5.352   1.408   4.371 -0.1110  1.4377 -0.2315
  117MOL0     H15392   5.253   1.525   4.468 -1.4195  0.0994  1.8266
  117MOL0     H15393   5.128   1.368   4.302 -0.0070  0.0442  0.4744
  117MOL0     H15394   5.178   1.240   4.406  1.5038  0.5879 -2.6507
  117MOL0     H15395   5.024   1.362   4.585  1.9985 -0.1449 -0.0176
  117MOL0     H15396   4.934   1.322   4.446 -2.5468  2.5331  2.7460
  117MOL0     H15397   4.852   1.513   4.294 -0.0065 -1.6830  1.1616
  117MOL0     H15398   4.756   1.744   4.234  3.0600 -2.7427  1.0188
  117MOL0     H15399   4.829   1.885   4.307 -1.8778  0.3451 -3.0262
  117MOL0     H15400   4.640   1.870   4.485  1.1515  1.3358 -0.4766
  117MOL0     H15401   4.576   1.736   4.405  1.7919 -0.8033 -0.3857
  117MOL0     H15402   4.616   2.009   4.305 -1.3366 -0.1976  0.2387
  117MOL0     H15403   4.555   1.892   4.183  0.1922  1.3554 -0.7349
  117MOL0     H15404   4.382   2.022   4.255 -1.7817 -1.1430 -0.9079
  117MOL0     H15405   4.415   1.995   4.433  2.7808 -0.7079  1.0210
  117MOL0     H15406   4.266   1.929   4.573 -0.5150  1.3409 -0.3701
  117MOL0     H15407   4.038   1.915   4.681  0.9402  0.8431  0.4776
  117MOL0     H15408   3.547   1.822   4.286 -2.8096  0.1817 -2.1187
  117MOL0     H15409   3.303   1.810   4.317 -2.9931  0.3258  1.5261
  117MOL0     H15410   3.173   1.895   4.679  3.6048 -0.5073 -1.9149
  117MOL0     H15411   3.127   1.733   4.728 -1.7047  0.8010  0.6688
  117MOL0     H15412   2.904   1.747   4.622 -1.4698  0.6475 -0.1335
  117MOL0     H15413   2.945   1.911   4.568  2.4630  2.1722  1.4488
  117MOL0     H15414   2.957   1.996   4.776 -1.0383  0.9657 -2.6198
  117MOL0     H15415   2.966   1.832   4.848 -0.2247 -2.7596 -2.3888
  117MOL0     H15416   2.745   1.969   4.689  3.2332 -0.1723 -1.4028
  117MOL0     H15417   2.718   1.815   4.755  0.5392  0.2820  0.0188
  117MOL0     H15418   2.764   2.051   4.951 -2.8608  1.5450  0.1335
  117MOL0     H15419   2.756   1.873   4.989 -0.7489  0.8439  1.9266
  117MOL0     H15420   2.538   1.888   4.871  1.9605  0.8996 -1.2926
  117MOL0     H15421   2.564   2.055   4.835 -1.0732  3.2327  3.6306
  117MOL0     H15422   2.523   1.922   5.105 -2.1371  0.3238  0.9744
  117MOL0     H15423   2.572   2.086   5.096  1.2931 -2.4405  2.1960
  117MOL0     H15424   2.309   1.951   5.003  0.3162 -0.4981 -0.9936
  117MOL0     H15425   2.348   2.113   4.937  3.2588  0.3026 -0.7007
  117MOL0     H15426   3.348   1.701   4.727  1.3481 -1.0502  0.6341
  117MOL0     H15427   3.594   1.698   4.704  2.6761 -1.5190 -2.5766
  117MOL0     H15428   3.911   1.707   4.316  2.6769 -1.8680 -1.6811
  117MOL0     H15429   4.131   1.740   4.223  0.8693  0.0390 -0.1753
  117MOL0     H15430   6.137   1.107   4.511 -1.6699  0.0464 -0.1572
  117MOL0     H15431   6.333   1.195   4.431 -2.4357  0.8464  3.0955
  117MOL0     H15432   6.449   1.379   3.945 -0.4176  0.0003 -0.8394
  117MOL0     H15433   6.620   1.437   3.786  1.2404 -2.3359 -1.6410
  117MOL0     H15434   7.057   1.414   3.886  1.5351  0.3454 -2.5702
  117MOL0     H15435   6.970   1.562   3.942 -0.0963 -1.9251  1.9156
  117MOL0     H15436   7.138   1.617   3.746 -0.0012  1.0613 -2.4449
  117MOL0     H15437   7.053   1.507   3.658 -2.0040 -2.4755  0.7882
  117MOL0     H15438   6.898   1.745   3.796  2.3014  1.7623  0.3309
  117MOL0     H15439   6.851   1.644   3.663  1.6439  1.6987 -2.3691
  117MOL0     H15440   7.071   1.861   3.673 -2.0867  0.3566  0.9726
  117MOL0     H15441   7.056   1.746   3.534 -3.6190 -2.3321 -1.4603
  117MOL0     H15442   6.708   2.003   3.508 -1.1104 -2.0138  0.8904
  117MOL0     H15443   6.930   1.368   4.071 -2.5257 -4.1847  4.3840
  117MOL0     H15444   6.753   1.298   4.231  0.3371  0.6130  0.2583
  118MOL0     O15445   4.440   6.613   5.510  0.5544 -0.0221  0.1846
  118MOL0     C15446   4.537   6.679   5.472  0.3333  0.5278  0.2384
  118MOL0     O15447   4.553   6.812   5.496 -0.3115 -0.4238  0.1733
  118MOL0     C15448   4.447   6.877   5.552 -0.6511  0.0061  0.1760
  118MOL0     C15449   4.323   6.877   5.495 -0.7155  0.4857 -1.0067
  118MOL0     C15450   4.214   6.925   5.573 -0.1399  0.1135  0.7085
  118MOL0     C15451   4.231   6.978   5.697  0.7909  0.4679  0.2952
  118MOL0     O15452   4.134   7.029   5.775  0.3442 -1.1504 -0.1895
  118MOL0     C15453   4.019   7.076   5.711  0.4455 -0.9092  0.2310
  118MOL0     C15454   3.955   7.187   5.785 -0.2120 -0.4746  0.1920
  118MOL0     C15455   4.034   7.319   5.780 -0.3502 -1.4022  0.2346
  118MOL0     C15456   3.983   7.438   5.867 -0.4905  0.5426  0.5011
  118MOL0     C15457   3.843   7.481   5.840  0.2749  0.3397 -0.0639
  118MOL0     C15458   3.821   7.558   5.712 -0.4623  0.0985  0.0749
  118MOL0     C15459   3.672   7.575   5.677  0.3961  0.5895 -0.2640
  118MOL0     C15460   3.606   7.684   5.762  0.6591  0.0562 -0.2127
  118MOL0     N15461   3.641   7.827   5.728 -0.1034 -0.0539  0.8810
  118MOL0     C15462   3.608   7.882   5.614  0.0641 -0.7378  0.0318
  118MOL0     C15463   3.650   8.012   5.624  0.9175 -0.2659 -0.7524
  118MOL0     C15464   3.625   8.119   5.528 -1.0745  0.9883  0.3113
  118MOL0     C15465   3.469   8.122   5.496  0.2562 -0.1939  0.7264
  118MOL0     C15466   3.446   8.037   5.364 -0.5565 -0.4814  0.6281
  118MOL0     C15467   3.312   7.967   5.369 -0.0693 -0.2998 -0.4210
  118MOL0     O15468   3.320   7.859   5.468  0.0641 -0.4842  0.9814
  118MOL0     C15469   3.199   7.811   5.512 -0.1894 -0.4121 -0.8938
  118MOL0     C15470   3.134   7.842   5.639 -1.4258  0.4957  0.0723
  118MOL0     C15471   3.009   7.798   5.673  0.2508 -0.1065 -0.4215
  118MOL0     C15472   2.940   7.718   5.578  0.8505 -0.9627  0.5217
  118MOL0     C15473   2.812   7.659   5.618 -0.5174 -0.0260 -0.2489
  118MOL0     O15474   2.796   7.648   5.756 -0.5193  0.1191  0.3118
  118MOL0     C15475   2.672   7.594   5.789  0.1908  0.0101  0.4550
  118MOL0     C15476   2.550   7.667   5.789  0.5624 -0.2989 -1.0103
  118MOL0     C15477   2.433   7.608   5.842 -0.4786 -0.0692 -0.0493
  118MOL0     C15478   2.435   7.477   5.897 -0.2371  0.2939 -0.3715
  118MOL0     O15479   2.336   7.422   5.969 -0.3124  0.6641 -0.2594
  118MOL0     C15480   2.233   7.508   6.017  0.5429  0.6630  0.3164
  118MOL0     C15481   2.131   7.418   6.094 -0.9434  0.5354  0.1011
  118MOL0     C15482   2.190   7.320   6.199 -0.0766  1.0834 -0.4148
  118MOL0     C15483   2.085   7.217   6.239 -0.5615  0.6175 -0.1081
  118MOL0     C15484   2.148   7.113   6.339  0.1476  0.8166 -0.0577
  118MOL0     C15485   2.047   7.010   6.378  0.2262  0.0493  0.6530
  118MOL0     C15486   2.106   6.929   6.495 -0.3103 -0.1197 -0.5990
  118MOL0     C15487   2.022   6.806   6.532 -0.1250 -0.0962  0.1788
  118MOL0    Cl15488   2.125   6.677   6.592  0.3059  0.2040 -0.7606
  118MOL0     C15489   2.551   7.409   5.887 -0.7890 -0.6586  0.2848
  118MOL0     C15490   2.665   7.463   5.831  0.3307  0.3311 -0.2035
  118MOL0     O15491   2.729   7.618   5.531  0.7084  0.2798 -1.1720
  118MOL0     C15492   2.996   7.685   5.446 -0.5586  0.1252 -0.0993
  118MOL0     C15493   3.128   7.728   5.431  0.0850 -0.2090  0.1576
  118MOL0     N15494   3.711   8.025   5.746  0.3584  0.8893 -0.3951
  118MOL0     N15495   3.715   7.908   5.806 -0.0931 -0.3966  0.2438
  118MOL0     C15496   4.353   6.969   5.755 -0.0611  0.0223  0.3565
  118MOL0     C15497   4.467   6.927   5.684  0.0082 -0.1862 -0.1250
  118MOL0     C15498   4.635   6.606   5.386  0.1212  0.5899 -1.0191
  118MOL0     C15499   4.756   6.676   5.345  1.0906 -0.0273  0.2405
  118MOL0     C15500   4.846   6.614   5.261 -0.3545  0.1080  0.7208
  118MOL0     C15501   4.809   6.498   5.189 -0.1378 -0.3909  1.1673
  118MOL0     O15502   4.879   6.451   5.077 -0.0362  0.0478 -0.0373
  118MOL0     C15503   4.961   6.540   5.003 -0.3009 -0.1771 -0.0100
  118MOL0     C15504   4.888   6.582   4.874  0.1386  0.4324 -0.4776
  118MOL0     C15505   4.872   6.468   4.777 -0.4880  1.0580 -0.3732
  118MOL0     C15506   4.824   6.504   4.635  0.0984 -0.0997  0.1737
  118MOL0     C15507   4.887   6.409   4.543  1.1071 -0.6101 -0.3498
  118MOL0     C15508   4.932   6.333   4.466  0.2480 -0.9585  0.6311
  118MOL0     C15509   4.687   6.433   5.216 -0.7527 -0.1526 -0.2231
  118MOL0     C15510   4.600   6.479   5.325 -0.1058  0.3759  0.0200
  118MOL0     H15511   4.314   6.839   5.394 -1.2691 -0.5230 -0.5994
  118MOL0     H15512   4.119   6.939   5.523  0.3792  3.3205  0.4337
  118MOL0     H15513   3.953   6.988   5.711 -0.1708 -0.5319  2.7020
  118MOL0     H15514   4.032   7.116   5.610 -3.0939  1.2266  0.4723
  118MOL0     H15515   3.943   7.157   5.889  0.4271 -0.6342  0.2241
  118MOL0     H15516   3.856   7.194   5.741 -0.5968 -0.2306  1.0825
  118MOL0     H15517   4.039   7.359   5.678  2.1859  0.9793  1.1764
  118MOL0     H15518   4.138   7.308   5.811 -0.1476 -0.9872 -0.2806
  118MOL0     H15519   4.002   7.412   5.971  0.5226 -0.8458 -0.0043
  118MOL0     H15520   4.048   7.525   5.849 -1.5874  0.7487 -3.5435
  118MOL0     H15521   3.814   7.545   5.924  1.2543 -0.0448  0.5988
  118MOL0     H15522   3.783   7.390   5.833 -1.1575  1.3739 -1.8792
  118MOL0     H15523   3.871   7.515   5.625  1.5042 -1.1304  1.7248
  118MOL0     H15524   3.878   7.651   5.711  0.6407 -0.5413 -2.2826
  118MOL0     H15525   3.650   7.589   5.571 -3.5421  1.3142  0.5146
  118MOL0     H15526   3.617   7.483   5.699 -0.2079  0.1595 -3.1684
  118MOL0     H15527   3.629   7.663   5.866 -0.7860 -2.5789 -0.3340
  118MOL0     H15528   3.499   7.670   5.742  0.0546  3.1152  0.4078
  118MOL0     H15529   3.559   7.836   5.528 -1.1343 -0.9308  0.7944
  118MOL0     H15530   3.684   8.115   5.436 -0.2859  2.6080  0.7080
  118MOL0     H15531   3.649   8.216   5.572 -1.2374  1.7723 -1.2683
  118MOL0     H15532   3.443   8.222   5.460  2.1233 -1.0081 -3.5078
  118MOL0     H15533   3.409   8.085   5.579  2.6108 -2.0786  1.7138
  118MOL0     H15534   3.446   8.104   5.277  3.0776 -1.4097 -0.2872
  118MOL0     H15535   3.529   7.969   5.342  0.2207  0.4453  0.6421
  118MOL0     H15536   3.283   7.921   5.274 -2.6799 -1.2267  0.7422
  118MOL0     H15537   3.240   8.037   5.411  0.5156  0.6734 -1.0091
  118MOL0     H15538   3.193   7.909   5.701 -0.6107 -0.1349 -0.0037
  118MOL0     H15539   2.962   7.836   5.763  1.5654 -0.2279  0.3492
  118MOL0     H15540   2.539   7.767   5.748 -2.1505 -1.8457 -4.6292
  118MOL0     H15541   2.354   7.681   5.856  0.0071  0.4634 -0.0402
  118MOL0     H15542   2.175   7.557   5.938 -1.1114 -2.2994 -0.4713
  118MOL0     H15543   2.283   7.581   6.081  1.9712 -0.1359  0.1556
  118MOL0     H15544   2.072   7.367   6.018 -0.3005  1.8430 -1.3281
  118MOL0     H15545   2.075   7.501   6.139 -0.3961  1.5690 -1.0680
  118MOL0     H15546   2.210   7.378   6.290  0.2325 -0.8418  0.8228
  118MOL0     H15547   2.286   7.272   6.174  1.1980  3.2882  0.0101
  118MOL0     H15548   2.005   7.262   6.298  1.3391  1.4984  1.9695
  118MOL0     H15549   2.044   7.158   6.157 -0.3194 -2.2513  1.7114
  118MOL0     H15550   2.188   7.169   6.424  1.5022 -4.0176  2.8830
  118MOL0     H15551   2.235   7.068   6.291 -0.8353 -0.0477 -1.0740
  118MOL0     H15552   2.025   6.945   6.292 -1.0664  1.7951 -0.4069
  118MOL0     H15553   1.950   7.052   6.404 -0.6821 -1.5215 -0.0167
  118MOL0     H15554   2.204   6.897   6.457 -1.2053 -0.4085 -2.7891
  118MOL0     H15555   2.114   6.997   6.581  3.8040  2.9118 -2.9707
  118MOL0     H15556   1.956   6.768   6.454  0.5060 -0.7490 -0.0549
  118MOL0     H15557   1.946   6.832   6.606 -1.5299 -0.1488 -1.2126
  118MOL0     H15558   2.560   7.306   5.922  3.0046 -0.0737  1.5517
  118MOL0     H15559   2.753   7.400   5.832  0.7805  0.9462  0.5008
  118MOL0     H15560   2.953   7.623   5.368 -2.1578  1.5404 -0.3898
  118MOL0     H15561   3.172   7.699   5.337  1.5373  0.7831  0.4949
  118MOL0     H15562   4.355   6.989   5.862 -1.6594  0.4003  0.3330
  118MOL0     H15563   4.559   6.919   5.741  1.0551  1.2089 -1.5328
  118MOL0     H15564   4.796   6.772   5.377  2.1263 -0.2658 -0.2718
  118MOL0     H15565   4.936   6.670   5.238 -0.6470  0.7845  1.1891
  118MOL0     H15566   5.053   6.488   4.973 -1.9824 -3.6746  0.3811
  118MOL0     H15567   5.002   6.623   5.061 -0.4928  2.1744 -3.0018
  118MOL0     H15568   4.785   6.610   4.901  0.2394 -1.6866  2.7221
  118MOL0     H15569   4.942   6.667   4.833  1.7268  0.3042  1.2175
  118MOL0     H15570   4.790   6.408   4.817 -0.4327  0.3563 -1.2995
  118MOL0     H15571   4.959   6.403   4.786 -1.2839 -0.1605 -1.2272
  118MOL0     H15572   4.715   6.500   4.627  0.1006 -0.6941  0.3848
  118MOL0     H15573   4.861   6.603   4.607  1.4965 -1.0321 -1.4370
  118MOL0     H15574   4.981   6.262   4.402  0.1518 -1.2779  0.9078
  118MOL0     H15575   4.663   6.343   5.160  0.3413 -0.8174  0.3503
  118MOL0     H15576   4.508   6.427   5.351 -0.7803  1.1179 -0.8424
  119MOL0     O15577   7.406   6.559   0.880  0.0208  0.2781 -0.0193
  119MOL0     C15578   7.391   6.486   0.785 -0.6492 -0.1702 -0.0606
  119MOL0     O15579   7.283   6.482   0.699 -0.1083 -0.1078 -0.6841
  119MOL0     C15580   7.187   6.575   0.732 -0.1314 -0.6892  0.9723
  119MOL0     C15581   7.055   6.528   0.724 -0.2151  0.3242  0.7321
  119MOL0     C15582   6.954   6.618   0.757 -1.0214  0.5253 -0.7262
  119MOL0     C15583   6.977   6.749   0.797  0.3720 -0.9780  0.3236
  119MOL0     O15584   6.873   6.832   0.822 -0.0549  0.2468 -0.2515
  119MOL0     C15585   6.806   6.797   0.943 -0.6353  0.8599 -0.5178
  119MOL0     C15586   6.708   6.905   0.973  0.4693  0.0903  0.0077
  119MOL0     C15587   6.602   6.861   1.072  1.5490  0.4643 -1.0240
  119MOL0     C15588   6.482   6.965   1.069 -0.1645 -0.7348 -0.9212
  119MOL0     C15589   6.356   6.915   1.141 -0.0986 -0.2236  0.4670
  119MOL0     C15590   6.239   7.011   1.108 -1.2104 -0.0217 -0.5788
  119MOL0     C15591   6.135   6.999   1.224 -0.3157 -0.0059  0.4841
  119MOL0     C15592   6.062   6.864   1.238  0.3489  0.3446  0.8980
  119MOL0     N15593   5.988   6.845   1.112  0.3059 -0.1679  0.6162
  119MOL0     C15594   6.047   6.774   1.001  1.4404 -0.0471  0.8097
  119MOL0     C15595   5.941   6.770   0.911 -0.6759 -0.6079 -0.0625
  119MOL0     C15596   5.947   6.712   0.776  0.1142 -0.2695 -0.6362
  119MOL0     C15597   5.934   6.556   0.774 -0.5860  0.1236  0.3900
  119MOL0     C15598   5.791   6.520   0.830  0.3767  0.0751  0.4790
  119MOL0     C15599   5.720   6.394   0.775  0.4412 -0.4291  0.3074
  119MOL0     O15600   5.692   6.422   0.637  0.2138 -0.1692  0.8488
  119MOL0     C15601   5.579   6.373   0.576 -0.4016  0.5091  1.0695
  119MOL0     C15602   5.545   6.431   0.455  1.0254  0.8869  1.1193
  119MOL0     C15603   5.457   6.376   0.356 -0.6090 -0.1237  0.0055
  119MOL0     C15604   5.377   6.273   0.394  0.4480 -0.5396  0.4527
  119MOL0     C15605   5.280   6.215   0.293  0.2761 -0.5776  0.3333
  119MOL0     O15606   5.282   6.262   0.167  0.2181 -0.4342  0.3215
  119MOL0     C15607   5.170   6.279   0.086 -0.4585 -0.3053 -0.1977
  119MOL0     C15608   5.040   6.262   0.134 -0.3970 -0.0932 -0.4562
  119MOL0     C15609   4.935   6.312   0.057 -0.5131  0.9997  0.0979
  119MOL0     C15610   4.953   6.360  -0.069  0.1489 -0.7203  0.5952
  119MOL0     O15611   4.837   6.394  -0.133  0.5554  0.2194 -0.7431
  119MOL0     C15612   4.824   6.325  -0.257  0.1790  0.8492  0.1591
  119MOL0     C15613   4.679   6.307  -0.281  0.3619  0.9321  0.2362
  119MOL0     C15614   4.660   6.267  -0.434  1.0048 -0.0028  0.2243
  119MOL0     C15615   4.517   6.218  -0.463  0.2471  0.4191  0.0913
  119MOL0     C15616   4.505   6.177  -0.610  0.2503 -0.2492  0.2424
  119MOL0     C15617   4.385   6.081  -0.632  0.0910 -0.4730 -0.8827
  119MOL0     C15618   4.261   6.165  -0.617 -0.0588 -0.7056 -1.1003
  119MOL0     C15619   4.136   6.111  -0.690 -1.0048  0.5908 -0.2670
  119MOL0    Cl15620   4.012   6.233  -0.726  0.2685  0.2973 -0.1330
  119MOL0     C15621   5.084   6.373  -0.129  0.7225  1.0527 -0.5894
  119MOL0     C15622   5.192   6.334  -0.043 -0.6851 -0.8936  0.6692
  119MOL0     O15623   5.206   6.125   0.332 -0.3777 -0.1090  0.5918
  119MOL0     C15624   5.378   6.231   0.535 -0.5266  0.7020 -0.1867
  119MOL0     C15625   5.486   6.276   0.619  0.5780 -0.2473  1.0216
  119MOL0     N15626   5.825   6.833   0.964 -0.3074 -0.3723 -0.0103
  119MOL0     N15627   5.853   6.862   1.089 -0.4509  0.1642  0.1395
  119MOL0     C15628   7.106   6.798   0.802 -0.2943 -0.4806 -0.4922
  119MOL0     C15629   7.209   6.717   0.754  0.0428 -1.2739 -0.6715
  119MOL0     C15630   7.506   6.406   0.742 -0.9855 -0.2603 -0.4322
  119MOL0     C15631   7.494   6.278   0.686 -0.1432  0.9490 -0.2873
  119MOL0     C15632   7.603   6.202   0.645  1.1010  0.0044 -0.1106
  119MOL0     C15633   7.731   6.255   0.647 -0.3870 -0.0229  0.5050
  119MOL0     O15634   7.846   6.187   0.612  0.4798 -0.0171 -0.0132
  119MOL0     C15635   7.839   6.051   0.578 -0.0101  0.4749 -0.3437
  119MOL0     C15636   7.990   6.004   0.561 -0.4243 -0.5887  0.6347
  119MOL0     C15637   7.993   5.876   0.469 -0.0505 -0.1120 -0.0999
  119MOL0     C15638   8.138   5.842   0.452 -0.3173  0.0422 -0.3981
  119MOL0     C15639   8.153   5.724   0.360 -0.0408  0.1011  0.5289
  119MOL0     C15640   8.143   5.628   0.288  0.0048 -0.3041 -0.6451
  119MOL0     C15641   7.750   6.382   0.697  0.3711 -0.4034  0.7859
  119MOL0     C15642   7.641   6.458   0.744 -0.5000 -0.2343  0.0739
  119MOL0     H15643   7.027   6.424   0.712  0.4859 -0.0648  2.2343
  119MOL0     H15644   6.857   6.570   0.750 -0.5515 -1.1419  2.4880
  119MOL0     H15645   6.865   6.785   1.034 -0.3151 -0.4399 -0.8741
  119MOL0     H15646   6.744   6.708   0.929  0.8240 -1.1659  4.0241
  119MOL0     H15647   6.656   6.932   0.880  2.3156 -0.0598 -1.1088
  119MOL0     H15648   6.755   7.000   1.000  0.1871  0.2160  0.0631
  119MOL0     H15649   6.629   6.846   1.177 -0.3339  3.0259 -0.0719
  119MOL0     H15650   6.562   6.764   1.043  0.3027  1.3228 -2.3200
  119MOL0     H15651   6.508   7.059   1.118  1.6461 -1.5815 -0.1382
  119MOL0     H15652   6.463   6.996   0.966  0.9257 -2.1161 -1.5668
  119MOL0     H15653   6.382   6.904   1.246  1.6933  0.4460  0.1276
  119MOL0     H15654   6.322   6.814   1.118 -1.5092 -0.0478  1.6343
  119MOL0     H15655   6.192   6.984   1.014 -0.3738  2.9739 -1.9943
  119MOL0     H15656   6.278   7.110   1.081 -2.5855 -0.2981 -4.0631
  119MOL0     H15657   6.190   7.034   1.312 -0.4408 -0.9407  0.9466
  119MOL0     H15658   6.063   7.082   1.219 -1.7536 -1.1183  1.8332
  119MOL0     H15659   5.996   6.875   1.324  1.4253  3.2036  1.4452
  119MOL0     H15660   6.130   6.781   1.261 -0.9875 -0.5892  1.5915
  119MOL0     H15661   6.145   6.733   0.977 -0.4369 -3.8687 -1.1899
  119MOL0     H15662   6.047   6.741   0.741  0.1564  0.8329  0.3407
  119MOL0     H15663   5.886   6.751   0.694  0.1763  3.2096  0.8093
  119MOL0     H15664   6.009   6.505   0.835 -1.9666  0.9901  2.9790
  119MOL0     H15665   5.934   6.523   0.670 -1.5882 -0.0749  0.4355
  119MOL0     H15666   5.792   6.511   0.939 -0.6022  0.6000  0.5478
  119MOL0     H15667   5.733   6.610   0.805  0.2555 -0.1185  0.0460
  119MOL0     H15668   5.631   6.363   0.830  0.2842  1.6396  1.3105
  119MOL0     H15669   5.786   6.308   0.788 -0.5034 -1.1915  0.1057
  119MOL0     H15670   5.601   6.515   0.415 -0.6841  1.2670 -0.6148
  119MOL0     H15671   5.458   6.409   0.252 -2.6392  0.1374  0.0373
  119MOL0     H15672   5.017   6.202   0.222  0.4019  0.6049  0.2473
  119MOL0     H15673   4.836   6.300   0.102 -0.7093  1.3458 -0.2354
  119MOL0     H15674   4.876   6.229  -0.261  1.5368  1.4620  1.8673
  119MOL0     H15675   4.856   6.403  -0.327 -2.7384  1.5162 -0.5931
  119MOL0     H15676   4.617   6.396  -0.263 -0.7775  0.6637 -1.9446
  119MOL0     H15677   4.636   6.230  -0.217  3.5400  0.2379  1.7492
  119MOL0     H15678   4.727   6.191  -0.474  2.3524  0.9207  0.6663
  119MOL0     H15679   4.681   6.368  -0.469  1.3973  0.7505  2.4324
  119MOL0     H15680   4.494   6.136  -0.395  1.1255  0.5190  0.5202
  119MOL0     H15681   4.451   6.304  -0.447  0.1928  0.6778 -1.3957
  119MOL0     H15682   4.589   6.109  -0.628 -0.4418 -1.1701  0.4090
  119MOL0     H15683   4.517   6.265  -0.674  3.3935  1.7735  3.2429
  119MOL0     H15684   4.388   6.003  -0.555  0.5646  0.6912  0.3119
  119MOL0     H15685   4.394   6.042  -0.733  0.6404  1.0013 -1.4284
  119MOL0     H15686   4.228   6.172  -0.513  1.7264 -2.5591 -0.3364
  119MOL0     H15687   4.275   6.265  -0.659  0.1762 -0.7988 -1.2460
  119MOL0     H15688   4.107   6.030  -0.623 -1.0796  2.6452  2.3683
  119MOL0     H15689   4.166   6.082  -0.791 -0.9148 -0.0727 -0.0553
  119MOL0     H15690   5.096   6.427  -0.222  3.7044  2.5555  0.5144
  119MOL0     H15691   5.295   6.340  -0.077 -2.0031 -0.8781 -3.8965
  119MOL0     H15692   5.314   6.155   0.578 -1.3850  1.5664  0.0928
  119MOL0     H15693   5.513   6.235   0.716 -1.8534  0.1865  1.9482
  119MOL0     H15694   7.132   6.900   0.830  0.9202 -1.1704  1.0682
  119MOL0     H15695   7.308   6.759   0.769 -1.3605  1.3882  2.1575
  119MOL0     H15696   7.393   6.241   0.676  0.7546 -1.8083 -0.0353
  119MOL0     H15697   7.580   6.104   0.606 -1.0536  0.6825 -0.6733
  119MOL0     H15698   7.789   6.033   0.483 -2.0362 -2.0711  1.0565
  119MOL0     H15699   7.789   5.987   0.652  0.1223 -2.0096 -2.2773
  119MOL0     H15700   8.054   6.085   0.525 -0.2606 -1.7569 -1.8791
  119MOL0     H15701   8.035   5.993   0.660  0.0519  0.9212  0.6045
  119MOL0     H15702   7.933   5.888   0.378 -0.1507  1.0559  0.0979
  119MOL0     H15703   7.939   5.799   0.525 -0.4336  2.2753  3.1442
  119MOL0     H15704   8.198   5.927   0.418 -1.9471  2.2082  1.8204
  119MOL0     H15705   8.178   5.806   0.547 -0.6688  2.6823  0.8450
  119MOL0     H15706   8.124   5.541   0.227 -1.6698  0.1827 -0.8641
  119MOL0     H15707   7.849   6.426   0.692 -0.2219  0.9102 -4.2326
  119MOL0     H15708   7.662   6.556   0.786  3.3958  0.8451 -3.7322
  120MOL0     O15709   6.559   1.881   8.234  0.1533  0.1195  0.0106
  120MOL0     C15710   6.560   1.812   8.334  0.4584  0.8758  0.4544
  120MOL0     O15711   6.457   1.803   8.426 -0.2351  0.1532 -0.4399
  120MOL0     C15712   6.345   1.880   8.413  0.3034  0.6974  0.0811
  120MOL0     C15713   6.294   1.931   8.532  0.1433 -0.1727 -0.0602
  120MOL0     C15714   6.182   2.020   8.515 -0.2677 -0.7743  0.2747
  120MOL0     C15715   6.119   2.046   8.392  0.7000 -0.3174 -0.3180
  120MOL0     O15716   6.016   2.137   8.388  0.9707  0.1083  0.3804
  120MOL0     C15717   5.988   2.203   8.270  0.4091  0.6927 -0.7400
  120MOL0     C15718   5.849   2.273   8.283 -0.3466 -0.0887  0.8596
  120MOL0     C15719   5.738   2.194   8.235 -0.3806  0.2289  1.0466
  120MOL0     C15720   5.602   2.276   8.264 -0.3672  0.1328  0.8883
  120MOL0     C15721   5.495   2.197   8.185  0.4576  0.4929 -0.0801
  120MOL0     C15722   5.361   2.256   8.226 -0.0247 -0.3200 -0.1148
  120MOL0     C15723   5.261   2.185   8.143  0.1839  0.5612 -0.3584
  120MOL0     C15724   5.136   2.270   8.159 -0.6019 -0.3169  0.4988
  120MOL0     N15725   5.028   2.206   8.073  0.2556 -0.1174 -0.7421
  120MOL0     C15726   4.946   2.278   7.994  0.2460 -0.4313  0.3709
  120MOL0     C15727   4.838   2.189   7.990  0.1269  0.3600  0.0013
  120MOL0     C15728   4.698   2.217   7.932 -0.5852 -0.7011  0.4040
  120MOL0     C15729   4.591   2.264   8.031  0.4895 -1.2159  0.0595
  120MOL0     C15730   4.453   2.291   7.971 -0.0755  0.6056  0.1369
  120MOL0     C15731   4.447   2.426   7.904 -0.0823 -0.1381 -0.1768
  120MOL0     O15732   4.315   2.448   7.858  0.0069  0.3078  0.0557
  120MOL0     C15733   4.272   2.570   7.803 -0.1488  1.9476  0.0121
  120MOL0     C15734   4.138   2.573   7.790  0.2358  0.2566  0.9923
  120MOL0     C15735   4.072   2.680   7.732  0.3817 -0.7604  1.0494
  120MOL0     C15736   4.154   2.793   7.712  0.4900  0.1548  1.1099
  120MOL0     C15737   4.095   2.913   7.656 -0.0119  0.2234  0.1387
  120MOL0     O15738   3.963   2.919   7.671  0.2156  0.2312  0.9403
  120MOL0     C15739   3.877   3.016   7.628  0.0195 -0.1904  0.3373
  120MOL0     C15740   3.910   3.151   7.617 -0.4660  0.2282  0.5816
  120MOL0     C15741   3.809   3.243   7.566 -0.5817 -0.1827 -0.0429
  120MOL0     C15742   3.677   3.203   7.533  0.2756  0.2353 -0.2719
  120MOL0     O15743   3.583   3.294   7.503 -0.0692 -0.2869  0.2531
  120MOL0     C15744   3.471   3.301   7.593 -0.3766  0.2815 -0.7900
  120MOL0     C15745   3.337   3.311   7.516 -0.9435  0.0731  0.4052
  120MOL0     C15746   3.217   3.349   7.598 -0.1512 -0.3038 -0.1584
  120MOL0     C15747   3.169   3.233   7.688 -0.3266 -0.3189  0.0464
  120MOL0     C15748   3.186   3.231   7.842  0.5132  0.2219  0.0241
  120MOL0     C15749   3.123   3.099   7.884  0.5501 -0.5468 -0.3482
  120MOL0     C15750   3.161   3.067   8.034  0.6139 -1.3802  0.1004
  120MOL0     C15751   3.096   2.936   8.071 -0.0729 -0.1720  0.0393
  120MOL0    Cl15752   3.184   2.809   7.980  0.3381  0.1981 -0.0333
  120MOL0     C15753   3.650   3.066   7.551  0.7637 -0.0778 -0.2531
  120MOL0     C15754   3.744   2.979   7.603  0.7921  1.6688 -1.2297
  120MOL0     O15755   4.165   2.997   7.604  0.0917  0.0771  0.4498
  120MOL0     C15756   4.292   2.789   7.723 -1.6927 -0.1335  0.7888
  120MOL0     C15757   4.355   2.674   7.763 -0.6342  0.6195 -0.7813
  120MOL0     N15758   4.872   2.067   8.050  0.4383 -0.4027  0.2457
  120MOL0     N15759   4.977   2.085   8.114 -0.7188  0.1421 -0.5529
  120MOL0     C15760   6.162   1.969   8.290 -0.3790 -0.4188  1.0606
  120MOL0     C15761   6.266   1.894   8.301  0.1355  0.1408  1.8570
  120MOL0     C15762   6.677   1.726   8.356 -0.4665 -0.3640 -0.6837
  120MOL0     C15763   6.703   1.681   8.485 -0.0452 -0.3544 -0.5737
  120MOL0     C15764   6.831   1.628   8.527  0.2864 -0.2061  0.4394
  120MOL0     C15765   6.918   1.593   8.428 -1.5829  0.5199 -0.1836
  120MOL0     O15766   7.051   1.544   8.440  0.7819 -0.5571 -0.6164
  120MOL0     C15767   7.099   1.512   8.572  0.3533 -0.5973 -0.5102
  120MOL0     C15768   7.233   1.433   8.562 -0.1166 -0.8098  0.5268
  120MOL0     C15769   7.321   1.479   8.443  0.5541 -0.5820  1.0196
  120MOL0     C15770   7.444   1.392   8.423 -0.9763  0.5134 -0.8545
  120MOL0     C15771   7.552   1.420   8.528 -0.6885  0.5182 -0.0476
  120MOL0     C15772   7.626   1.441   8.619  0.5006  0.1526 -0.0643
  120MOL0     C15773   6.888   1.616   8.283  0.4614 -0.5543  0.1289
  120MOL0     C15774   6.768   1.695   8.252  0.8714  0.9709 -0.5712
  120MOL0     H15775   6.351   1.901   8.619  4.4269  0.8220 -2.2567
  120MOL0     H15776   6.151   2.094   8.588  0.4571  0.4403 -0.6126
  120MOL0     H15777   5.988   2.143   8.178  0.0290 -0.3187 -0.1029
  120MOL0     H15778   6.070   2.273   8.282 -0.7195  1.5879  2.9686
  120MOL0     H15779   5.845   2.359   8.215  0.1609  0.5330  1.6030
  120MOL0     H15780   5.833   2.310   8.384  0.4252 -1.5364  1.5407
  120MOL0     H15781   5.730   2.097   8.286 -2.3456  0.3041  0.9813
  120MOL0     H15782   5.749   2.174   8.128 -2.7952 -0.4813  0.8623
  120MOL0     H15783   5.571   2.259   8.367 -1.2996 -0.7478  0.4748
  120MOL0     H15784   5.608   2.380   8.229  1.0788 -0.6176 -1.2812
  120MOL0     H15785   5.498   2.090   8.207  2.4148  1.1203  3.5293
  120MOL0     H15786   5.512   2.212   8.078  1.2245  1.1928  0.1232
  120MOL0     H15787   5.358   2.365   8.218  0.9453 -0.3718 -1.5449
  120MOL0     H15788   5.345   2.231   8.331  0.5850  2.7003  0.7654
  120MOL0     H15789   5.291   2.192   8.038  4.0183 -1.2257  0.4521
  120MOL0     H15790   5.242   2.085   8.184 -2.0630  0.6090 -1.1447
  120MOL0     H15791   5.163   2.368   8.121  2.7910 -0.5172  2.0455
  120MOL0     H15792   5.089   2.279   8.258  1.0275 -2.1472  1.5097
  120MOL0     H15793   4.964   2.376   7.952 -0.2271 -0.2254  0.6383
  120MOL0     H15794   4.648   2.136   7.879 -1.5923  0.0296  0.2081
  120MOL0     H15795   4.716   2.295   7.858 -2.0010 -1.6392 -0.9816
  120MOL0     H15796   4.636   2.350   8.081  4.0973 -1.8505 -1.7783
  120MOL0     H15797   4.561   2.190   8.106 -0.6010 -2.6772 -1.7402
  120MOL0     H15798   4.419   2.213   7.902 -2.6403  0.3955  1.5320
  120MOL0     H15799   4.372   2.281   8.044 -0.5743  0.7368 -0.3928
  120MOL0     H15800   4.515   2.432   7.819 -0.2442 -1.6369 -0.4455
  120MOL0     H15801   4.471   2.505   7.977 -2.7552  0.8100 -0.2204
  120MOL0     H15802   4.077   2.486   7.813 -0.7079  0.2099 -1.4033
  120MOL0     H15803   3.965   2.677   7.718  0.2982 -1.7702  1.7612
  120MOL0     H15804   4.011   3.188   7.630 -0.5233  1.6402 -2.2175
  120MOL0     H15805   3.841   3.346   7.559  0.4321 -0.4695  0.1554
  120MOL0     H15806   3.481   3.398   7.643  3.3549 -0.5903  0.5165
  120MOL0     H15807   3.481   3.232   7.678 -0.9036  1.2971  0.1330
  120MOL0     H15808   3.315   3.216   7.466  0.2095  0.2143 -0.4106
  120MOL0     H15809   3.345   3.385   7.436 -3.0312  2.1845  2.0111
  120MOL0     H15810   3.141   3.385   7.529  0.1449  2.7514  0.9593
  120MOL0     H15811   3.235   3.436   7.662 -0.2078 -0.2330 -0.2387
  120MOL0     H15812   3.061   3.222   7.676 -0.9176  0.5796  3.4748
  120MOL0     H15813   3.222   3.144   7.652  1.0398 -0.2698  1.7798
  120MOL0     H15814   3.127   3.314   7.882  0.5444 -0.3148  1.2030
  120MOL0     H15815   3.292   3.243   7.867  1.0664 -1.4190 -1.3437
  120MOL0     H15816   3.158   3.021   7.815 -0.0152 -0.5292 -0.6657
  120MOL0     H15817   3.014   3.114   7.877  0.5667 -0.1538  0.2090
  120MOL0     H15818   3.270   3.067   8.048  1.3972  3.0891 -3.6798
  120MOL0     H15819   3.114   3.140   8.101  0.9420 -2.4391  1.5311
  120MOL0     H15820   2.990   2.922   8.050  0.3934 -0.3853 -2.4836
  120MOL0     H15821   3.108   2.915   8.178 -1.1667  1.7010  0.5685
  120MOL0     H15822   3.551   3.025   7.530  1.0005 -2.2978  2.3686
  120MOL0     H15823   3.728   2.872   7.615  2.8087  1.2491 -1.8551
  120MOL0     H15824   4.355   2.874   7.700 -1.1283 -0.8436 -0.4116
  120MOL0     H15825   4.459   2.669   7.795 -1.0346 -3.8073  0.5023
  120MOL0     H15826   6.116   1.984   8.192  2.0148 -0.8633 -0.2013
  120MOL0     H15827   6.302   1.824   8.226 -0.3192 -2.4661  3.9316
  120MOL0     H15828   6.644   1.712   8.571  0.3812 -1.2176  0.0529
  120MOL0     H15829   6.854   1.615   8.632  2.1673 -0.2694  0.0441
  120MOL0     H15830   7.032   1.468   8.646  1.5147  0.7047  1.3903
  120MOL0     H15831   7.124   1.602   8.628  0.9877  0.2667 -2.1139
  120MOL0     H15832   7.303   1.439   8.646  0.0141  1.3053  0.3026
  120MOL0     H15833   7.205   1.328   8.547  2.5128 -1.6219  0.8684
  120MOL0     H15834   7.345   1.584   8.461 -1.5958 -0.2272  2.1806
  120MOL0     H15835   7.271   1.454   8.349 -0.8787 -1.5817  2.0169
  120MOL0     H15836   7.405   1.290   8.421  1.5721 -0.7300  2.6196
  120MOL0     H15837   7.485   1.407   8.323  1.2113 -1.6440 -0.3940
  120MOL0     H15838   7.672   1.476   8.709 -1.6411 -0.7030  1.4408
  120MOL0     H15839   6.949   1.595   8.196 -3.1503  1.3891 -3.1720
  120MOL0     H15840   6.767   1.739   8.153  2.3485 -0.0178 -1.0725
  121MOL0     O15841   5.329   8.640   9.480 -0.6282  0.5952 -0.8849
  121MOL0     C15842   5.302   8.754   9.517 -0.5515 -0.0878 -0.5054
  121MOL0     O15843   5.180   8.811   9.541 -0.7453 -0.1408  1.3944
  121MOL0     C15844   5.082   8.743   9.473  0.3201 -0.8292  1.0664
  121MOL0     C15845   5.012   8.629   9.510 -0.5644  0.2131 -0.3519
  121MOL0     C15846   4.909   8.580   9.435  0.2305 -0.6455  0.2930
  121MOL0     C15847   4.863   8.638   9.319 -1.0410  0.0485 -0.1920
  121MOL0     O15848   4.763   8.589   9.235  0.5582  0.1209  0.4236
  121MOL0     C15849   4.696   8.465   9.255  0.6567  0.1533 -0.0445
  121MOL0     C15850   4.544   8.494   9.290 -0.1057  0.1433 -0.3582
  121MOL0     C15851   4.520   8.537   9.431  0.2861 -0.3270 -1.0620
  121MOL0     C15852   4.368   8.565   9.453 -1.1267 -0.0126  0.3959
  121MOL0     C15853   4.364   8.640   9.587 -0.4086 -0.9276 -0.2388
  121MOL0     C15854   4.210   8.667   9.620 -0.0100  0.5003  0.1457
  121MOL0     C15855   4.132   8.539   9.669 -0.0913 -0.3234  0.8547
  121MOL0     C15856   3.986   8.558   9.638  0.1299 -0.1389 -0.2784
  121MOL0     N15857   3.936   8.668   9.725  0.2389 -0.5120 -0.3229
  121MOL0     C15858   3.980   8.703   9.848  0.7419 -0.2716  0.2030
  121MOL0     C15859   3.923   8.826   9.869 -0.9038 -0.2376 -0.2585
  121MOL0     C15860   3.944   8.914   9.993 -0.5026 -0.3464 -0.5324
  121MOL0     C15861   3.815   8.996  10.033 -0.3053  0.2341 -0.2260
  121MOL0     C15862   3.696   8.911  10.067  0.7055 -0.0514  0.2843
  121MOL0     C15863   3.583   8.987  10.129  0.1232 -0.6189  1.1802
  121MOL0     O15864   3.459   8.932  10.086 -0.3072  0.5003  1.0871
  121MOL0     C15865   3.340   8.970  10.144  0.7359 -0.0347  0.5222
  121MOL0     C15866   3.224   8.888  10.117  0.0140  0.4418 -0.1752
  121MOL0     C15867   3.091   8.926  10.153 -0.2600  1.2316  0.2975
  121MOL0     C15868   3.065   9.047  10.221 -0.7497  0.3672 -0.2971
  121MOL0     C15869   2.930   9.094  10.268 -0.5539 -0.4545  0.5937
  121MOL0     O15870   2.836   9.007  10.218 -0.2172  0.2299  0.9315
  121MOL0     C15871   2.711   9.058  10.224 -0.1380  0.0574  0.2369
  121MOL0     C15872   2.651   9.090  10.100  1.2352 -1.3526 -0.2410
  121MOL0     C15873   2.527   9.143  10.089 -0.0281 -0.5902 -0.0490
  121MOL0     C15874   2.452   9.155  10.211 -1.4648  0.5293  0.1586
  121MOL0     O15875   2.335   9.226  10.207  1.1475 -0.6634  0.2543
  121MOL0     C15876   2.336   9.338  10.281 -0.4224  0.2586  0.5772
  121MOL0     C15877   2.253   9.455  10.213 -0.7641  0.7037 -0.0067
  121MOL0     C15878   2.271   9.478  10.062  0.4715 -0.2584 -0.9163
  121MOL0     C15879   2.195   9.600  10.002 -0.6579 -0.3418 -0.0160
  121MOL0     C15880   2.042   9.574   9.993 -0.8762  0.2962 -0.0185
  121MOL0     C15881   1.940   9.683   9.934 -0.1143  0.2264 -0.2868
  121MOL0     C15882   1.994   9.720   9.790 -0.0172 -0.0508 -0.2209
  121MOL0     C15883   1.903   9.820   9.724  1.1397 -0.2601 -0.0086
  121MOL0    Cl15884   1.743   9.764   9.645  0.2209  0.1671  0.1699
  121MOL0     C15885   2.509   9.117  10.335 -0.7547 -0.2504 -0.5024
  121MOL0     C15886   2.641   9.081  10.341 -0.2303  1.1005  0.5886
  121MOL0     O15887   2.916   9.195  10.339 -0.4183 -0.5022  0.4439
  121MOL0     C15888   3.187   9.121  10.266 -0.0473  0.3033 -0.0996
  121MOL0     C15889   3.315   9.087  10.218  0.3833 -0.5263 -0.4262
  121MOL0     N15890   3.854   8.865   9.757  0.4361 -0.5947  0.1001
  121MOL0     N15891   3.852   8.769   9.675  0.0076 -0.5743  0.8085
  121MOL0     C15892   4.940   8.748   9.275  0.4071  0.3535 -0.2910
  121MOL0     C15893   5.051   8.805   9.347 -0.9907  0.4227  0.7957
  121MOL0     C15894   5.427   8.842   9.511  1.1703  0.6140 -0.6999
  121MOL0     C15895   5.559   8.797   9.487  0.8041  0.0709 -0.5317
  121MOL0     C15896   5.667   8.880   9.439  0.8584 -0.5224 -0.0785
  121MOL0     C15897   5.646   9.024   9.443  0.0036  0.5884 -0.0627
  121MOL0     O15898   5.749   9.105   9.422 -0.7082 -0.4286  0.3090
  121MOL0     C15899   5.739   9.205   9.322  0.5042 -0.0532  0.5166
  121MOL0     C15900   5.777   9.159   9.175 -0.0959 -0.8507  0.1927
  121MOL0     C15901   5.792   9.274   9.072 -0.0198  0.5820 -0.0963
  121MOL0     C15902   5.765   9.214   8.932 -0.5912 -0.3756 -0.3367
  121MOL0     C15903   5.794   9.313   8.824 -0.7347  0.1447 -0.7060
  121MOL0     C15904   5.826   9.390   8.740 -0.2237  0.7121  0.3787
  121MOL0     C15905   5.514   9.071   9.484  0.0620  0.0728 -0.5405
  121MOL0     C15906   5.409   8.981   9.504 -0.0757 -0.9482 -0.0523
  121MOL0     H15907   5.026   8.586   9.609 -3.5239 -3.5566 -1.3262
  121MOL0     H15908   4.848   8.499   9.476 -0.8012  0.5306  1.1620
  121MOL0     H15909   4.744   8.397   9.326 -0.1033 -0.1949  0.1433
  121MOL0     H15910   4.696   8.410   9.160  0.2944  0.6884 -0.3565
  121MOL0     H15911   4.486   8.402   9.287 -2.6055  1.6228 -0.2522
  121MOL0     H15912   4.504   8.567   9.219 -0.5540  0.8774  0.6353
  121MOL0     H15913   4.583   8.623   9.455  3.7215 -2.8048 -0.5878
  121MOL0     H15914   4.562   8.462   9.499  0.3644 -0.3632 -1.1512
  121MOL0     H15915   4.340   8.639   9.377  0.7258  1.4456  1.0505
  121MOL0     H15916   4.304   8.478   9.435 -0.0245 -0.7905  0.1672
  121MOL0     H15917   4.416   8.734   9.563  1.3651 -2.3344 -2.2841
  121MOL0     H15918   4.414   8.584   9.665 -1.7873  1.7942  2.8473
  121MOL0     H15919   4.169   8.707   9.527 -1.1796  0.9644  0.8348
  121MOL0     H15920   4.198   8.746   9.696  1.8685  2.1045 -1.1408
  121MOL0     H15921   4.179   8.452   9.622 -0.4649  0.0126 -0.1533
  121MOL0     H15922   4.151   8.527   9.776  1.8985  0.2387  0.6105
  121MOL0     H15923   3.941   8.464   9.673  1.2056  0.0892  1.8982
  121MOL0     H15924   3.950   8.571   9.536 -2.7017 -2.2371  0.3193
  121MOL0     H15925   4.031   8.639   9.920  0.1562 -2.5483 -1.3050
  121MOL0     H15926   4.026   8.984   9.974 -0.9477 -0.1674 -1.9535
  121MOL0     H15927   3.971   8.849  10.077  0.3157  0.3321 -0.2565
  121MOL0     H15928   3.788   9.062   9.950 -0.8249  0.5411  0.1804
  121MOL0     H15929   3.836   9.047  10.127 -3.3528 -0.8002  1.1409
  121MOL0     H15930   3.670   8.875   9.967  0.3315  0.3743  0.2234
  121MOL0     H15931   3.722   8.825  10.129  4.4804 -0.1502 -1.1492
  121MOL0     H15932   3.577   9.088  10.086 -1.0438 -0.0819  2.5181
  121MOL0     H15933   3.595   8.986  10.238  0.7413 -1.7886  1.1143
  121MOL0     H15934   3.238   8.788  10.077 -0.2086  0.0011  0.8098
  121MOL0     H15935   3.008   8.862  10.122  0.8899  0.5029 -1.4166
  121MOL0     H15936   2.706   9.082  10.007 -0.4630 -0.1585 -1.3978
  121MOL0     H15937   2.485   9.162   9.991  1.5329  0.9299 -0.4728
  121MOL0     H15938   2.441   9.366  10.297 -0.1627 -0.2736 -0.1299
  121MOL0     H15939   2.301   9.316  10.382  0.1201  0.2275  0.7616
  121MOL0     H15940   2.265   9.543  10.277  3.0339  0.7895 -0.6256
  121MOL0     H15941   2.150   9.418  10.206  0.0188 -1.5252 -0.7456
  121MOL0     H15942   2.227   9.395  10.006 -0.4066  2.0812 -3.9504
  121MOL0     H15943   2.377   9.477  10.032  0.7068  1.5697 -0.2750
  121MOL0     H15944   2.207   9.694  10.057 -1.3748 -0.4855  0.3963
  121MOL0     H15945   2.227   9.622   9.900 -2.8009  0.4413 -0.5613
  121MOL0     H15946   2.002   9.544  10.091  0.9249  0.1808  0.7267
  121MOL0     H15947   2.035   9.491   9.923  2.2356  1.3010 -1.7112
  121MOL0     H15948   1.938   9.773   9.995 -2.4755 -1.1273  1.8562
  121MOL0     H15949   1.835   9.653   9.931 -0.3800  1.1616 -0.7350
  121MOL0     H15950   2.094   9.763   9.793 -0.7172  1.5959  0.7334
  121MOL0     H15951   1.994   9.627   9.733  5.0041 -0.1224 -0.5135
  121MOL0     H15952   1.963   9.865   9.645  0.1470 -0.3087 -0.8146
  121MOL0     H15953   1.881   9.906   9.789 -2.3618  2.1398 -3.8912
  121MOL0     H15954   2.464   9.131  10.433 -0.2350  0.2059 -0.3262
  121MOL0     H15955   2.691   9.059  10.434 -0.0559  0.9994  0.4736
  121MOL0     H15956   3.163   9.201  10.336  0.9874 -0.8421  1.6706
  121MOL0     H15957   3.409   9.135  10.245  0.5298 -1.4290  0.7371
  121MOL0     H15958   4.908   8.788   9.179 -0.0174 -0.3514 -0.4546
  121MOL0     H15959   5.096   8.897   9.311 -0.4371  0.0331  0.4763
  121MOL0     H15960   5.593   8.694   9.490 -0.4223 -0.5455 -3.7977
  121MOL0     H15961   5.767   8.852   9.408  1.8424  2.5083 -0.0037
  121MOL0     H15962   5.804   9.290   9.347  0.7516 -0.7145  2.3079
  121MOL0     H15963   5.635   9.236   9.309  0.9841  0.8376 -1.5540
  121MOL0     H15964   5.878   9.116   9.178  1.2739  2.1423  0.3378
  121MOL0     H15965   5.697   9.096   9.136 -1.0706  1.9365 -2.7113
  121MOL0     H15966   5.891   9.318   9.075  1.0459 -1.6903  2.0722
  121MOL0     H15967   5.711   9.346   9.090 -0.8690  0.6750 -3.5519
  121MOL0     H15968   5.835   9.130   8.924  0.4374  0.5926 -2.0946
  121MOL0     H15969   5.661   9.182   8.927 -1.4837  2.3716 -0.9721
  121MOL0     H15970   5.854   9.458   8.661 -2.1806 -0.1183 -1.1310
  121MOL0     H15971   5.508   9.179   9.485  0.7938  0.1191 -0.4899
  121MOL0     H15972   5.308   9.019   9.508  0.5768  1.2334 -1.7559
  122MOL0     O15973   3.679  11.142   7.008  0.0551 -0.7915  0.5225
  122MOL0     C15974   3.707  11.243   6.952 -0.0473 -0.0364  1.2167
  122MOL0     O15975   3.621  11.300   6.859  0.8571 -0.5585  0.1742
  122MOL0     C15976   3.487  11.280   6.843 -0.0280  0.1169 -0.0987
  122MOL0     C15977   3.422  11.301   6.726 -0.8054  0.3772 -0.0111
  122MOL0     C15978   3.285  11.281   6.714 -0.2776 -0.1984  0.0722
  122MOL0     C15979   3.202  11.249   6.820  0.9277 -0.9629 -0.1555
  122MOL0     O15980   3.072  11.229   6.794  0.7151  0.0762  0.3651
  122MOL0     C15981   2.978  11.305   6.881 -1.1314  0.7841  0.5729
  122MOL0     C15982   2.840  11.245   6.863  0.7561  0.6423 -0.0492
  122MOL0     C15983   2.766  11.328   6.760 -0.0171  0.0055 -0.4002
  122MOL0     C15984   2.618  11.273   6.726 -0.2108  1.1231  0.4972
  122MOL0     C15985   2.551  11.327   6.595 -0.5871 -1.5504 -0.4383
  122MOL0     C15986   2.406  11.292   6.611  0.0141 -0.4692  0.6374
  122MOL0     C15987   2.316  11.343   6.498  0.0415 -1.0164 -0.7963
  122MOL0     C15988   2.193  11.413   6.548 -0.2504  0.1595  0.5245
  122MOL0     N15989   2.067  11.389   6.467 -0.1932  0.2009 -0.5744
  122MOL0     C15990   1.973  11.491   6.456  0.0319 -0.4074 -0.7757
  122MOL0     C15991   1.886  11.444   6.362 -0.2030  0.3252  0.3336
  122MOL0     C15992   1.762  11.513   6.304 -0.6570  1.1762  0.7191
  122MOL0     C15993   1.642  11.507   6.397 -1.3062  0.5299 -0.1595
  122MOL0     C15994   1.661  11.617   6.515 -0.1563 -1.1714 -0.5707
  122MOL0     C15995   1.687  11.764   6.480  0.1390  0.2746  0.2756
  122MOL0     O15996   1.668  11.865   6.579  0.0720  0.0040  0.9779
  122MOL0     C15997   1.548  11.897   6.624  0.2087  0.3804  0.7748
  122MOL0     C15998   1.539  11.962   6.750  0.2835  0.4064  0.0976
  122MOL0     C15999   1.411  11.993   6.799 -0.4970 -0.7762 -0.0279
  122MOL0     C16000   1.296  11.971   6.726  0.5317 -0.6121 -0.6981
  122MOL0     C16001   1.165  11.999   6.782 -0.7295  0.4065  1.0858
  122MOL0     O16002   1.062  11.939   6.713  0.2347 -0.0054 -0.2754
  122MOL0     C16003   0.936  11.948   6.762  0.0353 -0.5176 -0.8028
  122MOL0     C16004   0.838  11.951   6.666 -0.2849 -0.7671  0.1110
  122MOL0     C16005   0.707  11.961   6.701  0.1932 -0.3597 -0.0611
  122MOL0     C16006   0.669  11.956   6.840 -0.2068 -0.6076  0.8516
  122MOL0     O16007   0.533  11.954   6.871 -0.1780  0.4863  0.4793
  122MOL0     C16008   0.478  11.929   7.008 -0.6597 -0.8256  0.3843
  122MOL0     C16009   0.334  11.936   7.015  0.1588 -0.1869 -0.4761
  122MOL0     C16010   0.259  11.803   6.980 -0.1989 -1.6938  0.6339
  122MOL0     C16011   0.103  11.824   6.959 -0.1287 -0.0871  0.3746
  122MOL0     C16012   0.049  11.688   6.912  0.8683 -0.0360  0.0394
  122MOL0     C16013  -0.103  11.681   6.894 -0.0783 -0.1184  0.1484
  122MOL0     C16014  -0.147  11.773   6.776 -0.1329 -0.0050 -0.1504
  122MOL0     C16015  -0.297  11.799   6.763  0.4160  0.4208  0.3100
  122MOL0    Cl16016  -0.369  11.884   6.908  0.0391 -0.7512  0.0461
  122MOL0     C16017   0.773  11.951   6.928 -0.4814  0.6439 -0.0192
  122MOL0     C16018   0.907  11.939   6.896 -0.2887 -0.3730 -0.2867
  122MOL0     O16019   1.155  12.058   6.886  0.3062 -0.3290 -0.3371
  122MOL0     C16020   1.311  11.908   6.606  0.9818 -0.4355 -0.1344
  122MOL0     C16021   1.428  11.865   6.557 -1.0443 -0.0024 -0.3000
  122MOL0     N16022   1.924  11.319   6.324  0.0120  0.2519  0.3172
  122MOL0     N16023   2.031  11.285   6.393  0.1506 -0.0117 -0.2618
  122MOL0     C16024   3.263  11.227   6.941  0.4833 -0.3077 -0.6264
  122MOL0     C16025   3.400  11.245   6.948 -0.4644  0.4120  0.6886
  122MOL0     C16026   3.839  11.306   6.961 -0.3242 -0.3650 -0.5097
  122MOL0     C16027   3.879  11.412   6.873  0.0280  1.1827 -0.8210
  122MOL0     C16028   4.012  11.460   6.871 -0.1903  0.0425 -0.2894
  122MOL0     C16029   4.102  11.410   6.959  0.5119 -0.7445 -0.9381
  122MOL0     O16030   4.223  11.468   6.974  0.0544  0.1630 -0.1501
  122MOL0     C16031   4.270  11.578   6.895  0.6184  0.1854  0.4028
  122MOL0     C16032   4.315  11.537   6.752 -0.2396 -0.2117 -0.2254
  122MOL0     C16033   4.370  11.652   6.663  0.4323 -0.0660 -0.6901
  122MOL0     C16034   4.256  11.742   6.611  0.1726 -0.3221 -0.2021
  122MOL0     C16035   4.183  11.664   6.514 -0.4203  0.0247  0.0845
  122MOL0     C16036   4.144  11.581   6.430  0.0528 -0.9446 -0.0495
  122MOL0     C16037   4.057  11.315   7.055 -0.1283 -0.6885 -0.3645
  122MOL0     C16038   3.932  11.254   7.052 -0.3571 -1.8073 -0.3356
  122MOL0     H16039   3.491  11.325   6.646 -0.0492 -0.7929  0.2710
  122MOL0     H16040   3.241  11.298   6.616  1.7706 -0.6463 -0.9774
  122MOL0     H16041   2.970  11.412   6.857 -1.2254  1.3077  2.7588
  122MOL0     H16042   2.995  11.283   6.986 -2.6093 -0.4545  0.5847
  122MOL0     H16043   2.785  11.239   6.958  0.4348  0.6608 -0.2330
  122MOL0     H16044   2.839  11.140   6.836 -1.1977  0.6158 -0.0622
  122MOL0     H16045   2.815  11.335   6.662 -0.0330  1.2028 -0.3438
  122MOL0     H16046   2.763  11.433   6.793  2.0956  0.2074 -0.6881
  122MOL0     H16047   2.623  11.165   6.710  4.5257  1.1503  0.4018
  122MOL0     H16048   2.559  11.285   6.818  0.4348  0.7045  0.9698
  122MOL0     H16049   2.587  11.265   6.512 -0.5526 -3.0836  0.6590
  122MOL0     H16050   2.565  11.434   6.581 -0.1317 -1.4579  0.6096
  122MOL0     H16051   2.376  11.325   6.712 -0.5285  1.7441 -0.1733
  122MOL0     H16052   2.395  11.185   6.593 -1.1356  0.0855 -2.6369
  122MOL0     H16053   2.372  11.420   6.444 -3.1058  1.8378 -0.3358
  122MOL0     H16054   2.284  11.272   6.421 -1.0994  1.9726 -3.3092
  122MOL0     H16055   2.199  11.521   6.565 -0.3717 -0.2051  3.4530
  122MOL0     H16056   2.162  11.373   6.645 -0.7271  1.9252  1.1298
  122MOL0     H16057   1.971  11.584   6.510  0.0037 -1.9295  2.0006
  122MOL0     H16058   1.744  11.472   6.204  0.9939  1.5737  0.2180
  122MOL0     H16059   1.779  11.621   6.296 -2.0792  1.2978 -1.4496
  122MOL0     H16060   1.639  11.403   6.432 -0.0039 -0.6129 -3.0295
  122MOL0     H16061   1.552  11.525   6.338 -2.5670  0.2575  1.6189
  122MOL0     H16062   1.564  11.623   6.564  0.9522  2.4951  1.5444
  122MOL0     H16063   1.736  11.591   6.591 -0.3483 -0.1876 -0.0309
  122MOL0     H16064   1.621  11.791   6.397 -1.1186  1.5523  1.6415
  122MOL0     H16065   1.794  11.774   6.456  0.3910 -1.7605  0.3870
  122MOL0     H16066   1.628  12.005   6.795  1.4200 -2.2066  0.5289
  122MOL0     H16067   1.422  12.042   6.895 -0.6752 -0.8144  0.0110
  122MOL0     H16068   0.869  11.936   6.563 -0.1449 -0.3291  0.0896
  122MOL0     H16069   0.638  11.971   6.619  2.1052  1.3343 -1.5462
  122MOL0     H16070   0.525  12.005   7.071  0.9866 -0.6967 -0.9373
  122MOL0     H16071   0.519  11.832   7.036  1.4342 -0.5353 -1.4527
  122MOL0     H16072   0.303  12.021   6.954 -0.3377  2.1930  2.7944
  122MOL0     H16073   0.299  11.961   7.116  1.5551  1.7288 -0.4024
  122MOL0     H16074   0.284  11.726   7.053  1.4114 -1.8165 -0.0170
  122MOL0     H16075   0.301  11.770   6.884  2.4451 -1.3738  1.6247
  122MOL0     H16076   0.062  11.868   7.050 -4.1024 -0.8675 -0.8691
  122MOL0     H16077   0.086  11.898   6.880 -0.4860 -0.2129  0.3315
  122MOL0     H16078   0.071  11.613   6.988  2.0391  0.5783  0.3203
  122MOL0     H16079   0.092  11.660   6.815 -0.1587 -0.0574 -0.4331
  122MOL0     H16080  -0.147  11.725   6.984  0.5917 -0.4277  0.6337
  122MOL0     H16081  -0.143  11.581   6.875  1.4485 -0.7000 -0.1860
  122MOL0     H16082  -0.101  11.872   6.787  2.1569 -1.0354  0.0811
  122MOL0     H16083  -0.114  11.735   6.679 -1.9298 -0.7154 -0.5268
  122MOL0     H16084  -0.354  11.705   6.764 -2.4297  1.9164 -2.8127
  122MOL0     H16085  -0.304  11.857   6.671  1.6627  0.5769  0.3002
  122MOL0     H16086   0.753  11.956   7.034 -0.8225  4.2473 -0.1477
  122MOL0     H16087   0.975  11.936   6.980  0.3008  0.9719 -0.6897
  122MOL0     H16088   1.219  11.905   6.549  1.8864  2.2430 -1.9300
  122MOL0     H16089   1.426  11.805   6.467  2.8701 -0.2589 -0.3912
  122MOL0     H16090   3.219  11.191   7.034 -2.4250 -0.3335 -1.8786
  122MOL0     H16091   3.441  11.212   7.043 -2.2579 -0.0972  1.3329
  122MOL0     H16092   3.818  11.461   6.799  1.9124 -1.8330 -4.7604
  122MOL0     H16093   4.026  11.532   6.790 -1.2687 -0.9911 -1.4392
  122MOL0     H16094   4.355  11.620   6.949 -0.5256 -0.3805  2.7689
  122MOL0     H16095   4.195  11.657   6.899 -0.6840 -0.6632 -3.0608
  122MOL0     H16096   4.400  11.471   6.774  0.4074  0.7734  0.2985
  122MOL0     H16097   4.243  11.477   6.696  1.6607 -2.0833 -0.7992
  122MOL0     H16098   4.426  11.600   6.584 -1.8315 -1.2299 -1.6059
  122MOL0     H16099   4.444  11.710   6.720 -1.6699 -0.3090  2.5463
  122MOL0     H16100   4.193  11.782   6.692  0.3256  0.5329 -0.4960
  122MOL0     H16101   4.296  11.831   6.562 -1.4844  0.4440 -0.2611
  122MOL0     H16102   4.151  11.509   6.351  3.7221 -0.9563  0.1532
  122MOL0     H16103   4.139  11.277   7.116 -0.5451 -0.7749  0.1498
  122MOL0     H16104   3.918  11.182   7.132 -1.5366 -0.3560  0.8478
  123MOL0     O16105   3.724  10.441   9.312  0.6082  0.2159 -0.3970
  123MOL0     C16106   3.744  10.541   9.380  0.2413 -0.2709 -0.5732
  123MOL0     O16107   3.649  10.632   9.427  0.5774  0.5732 -0.2273
  123MOL0     C16108   3.513  10.618   9.399 -0.4413  0.3426 -0.1557
  123MOL0     C16109   3.444  10.531   9.313 -0.3112 -0.2388  0.5852
  123MOL0     C16110   3.303  10.533   9.314 -1.0235  0.5746  0.2956
  123MOL0     C16111   3.228  10.625   9.383 -0.5553 -0.6943 -0.4717
  123MOL0     O16112   3.090  10.620   9.375  0.4575  0.6235 -0.4091
  123MOL0     C16113   3.023  10.747   9.379 -0.4452 -0.3824 -0.4031
  123MOL0     C16114   2.874  10.736   9.371  0.4299  0.1044  1.4168
  123MOL0     C16115   2.802  10.697   9.497 -0.3937 -0.2178  1.2985
  123MOL0     C16116   2.641  10.690   9.470 -0.4083  0.4379 -0.2363
  123MOL0     C16117   2.579  10.632   9.587 -0.1516  0.6839 -0.3664
  123MOL0     C16118   2.432  10.640   9.574  0.4602 -0.4024 -0.0792
  123MOL0     C16119   2.352  10.531   9.670  0.4939  0.0728 -0.0807
  123MOL0     C16120   2.320  10.609   9.798  0.1287  0.1293  0.6407
  123MOL0     N16121   2.214  10.701   9.783 -0.0612  0.2227  1.3681
  123MOL0     C16122   2.129  10.732   9.677 -0.1302  0.3921  1.0582
  123MOL0     C16123   2.039  10.816   9.727 -0.0504  0.3795 -1.3287
  123MOL0     C16124   1.951  10.888   9.634  0.6190  0.1853  0.2508
  123MOL0     C16125   1.835  10.959   9.710  0.4208 -1.0089 -0.8858
  123MOL0     C16126   1.752  11.042   9.615 -0.8295 -0.2032  0.0057
  123MOL0     C16127   1.605  11.075   9.662 -0.8787 -0.2654 -0.3511
  123MOL0     O16128   1.526  10.966   9.720 -0.9153 -0.3785  0.3056
  123MOL0     C16129   1.392  10.991   9.741  0.9958  1.0253  0.4945
  123MOL0     C16130   1.333  11.116   9.749  0.7736  0.3332  0.3225
  123MOL0     C16131   1.191  11.139   9.761  0.0674 -0.1251 -0.4449
  123MOL0     C16132   1.111  11.020   9.774 -0.1321  0.4191  0.1091
  123MOL0     C16133   0.963  11.030   9.796 -0.5867 -0.4495  0.1390
  123MOL0     O16134   0.920  11.141   9.864  0.2133 -0.1950 -0.6150
  123MOL0     C16135   0.785  11.177   9.874  0.7296 -0.3696 -1.5293
  123MOL0     C16136   0.672  11.093   9.857 -0.7800  0.0218 -0.0631
  123MOL0     C16137   0.548  11.145   9.852 -0.0373  0.7783  0.6143
  123MOL0     C16138   0.524  11.277   9.898  0.2540  0.2017 -0.6643
  123MOL0     O16139   0.392  11.321   9.893 -0.5795  0.3019 -1.4497
  123MOL0     C16140   0.344  11.397  10.003  0.1567  0.6215 -0.2398
  123MOL0     C16141   0.192  11.421   9.989  0.5725 -0.0344  0.5158
  123MOL0     C16142   0.170  11.505   9.862  0.3007  0.6183 -0.0731
  123MOL0     C16143   0.024  11.501   9.831 -0.6085 -0.6222  0.2528
  123MOL0     C16144  -0.057  11.600   9.931  0.6394 -0.6170  0.2241
  123MOL0     C16145  -0.175  11.686   9.874 -0.8353  1.0821  0.8838
  123MOL0     C16146  -0.135  11.771   9.754  0.1683 -0.2970 -0.1573
  123MOL0     C16147  -0.262  11.845   9.696 -0.4773  0.3824  0.2678
  123MOL0    Cl16148  -0.348  11.931   9.823  0.2206  0.2398 -0.1514
  123MOL0     C16149   0.629  11.362   9.940 -0.2372  0.9561 -0.1095
  123MOL0     C16150   0.756  11.307   9.920 -0.5023 -0.2332  0.4971
  123MOL0     O16151   0.894  10.947   9.736  0.1922 -0.0806 -0.2951
  123MOL0     C16152   1.177  10.896   9.775  0.2308 -0.6844 -0.0046
  123MOL0     C16153   1.312  10.880   9.759  0.5308 -0.2480 -0.0610
  123MOL0     N16154   2.056  10.828   9.864  0.2084  0.9330 -0.0173
  123MOL0     N16155   2.172  10.771   9.896  0.2354  0.4789  0.4391
  123MOL0     C16156   3.294  10.716   9.458 -0.5652 -0.4170  0.5715
  123MOL0     C16157   3.433  10.700   9.482  0.9356  0.7734  0.3284
  123MOL0     C16158   3.880  10.559   9.436 -0.0336 -0.0020 -0.0829
  123MOL0     C16159   3.996  10.514   9.365  0.1186 -0.2500  0.2578
  123MOL0     C16160   4.119  10.546   9.402 -0.7620 -0.2668  0.0826
  123MOL0     C16161   4.132  10.593   9.534  0.1217  0.2088 -0.0854
  123MOL0     O16162   4.261  10.592   9.575  0.6594  0.0291 -0.0146
  123MOL0     C16163   4.297  10.636   9.714 -0.4336  0.1834 -0.3614
  123MOL0     C16164   4.449  10.640   9.747  0.7190  0.5761 -0.1468
  123MOL0     C16165   4.512  10.501   9.717 -0.2570  0.1615  0.5078
  123MOL0     C16166   4.662  10.509   9.759  0.5087  0.6275  0.1942
  123MOL0     C16167   4.700  10.367   9.759  0.2979  0.3218 -0.2319
  123MOL0     C16168   4.736  10.248   9.773 -0.1741  0.0975 -0.4561
  123MOL0     C16169   4.027  10.644   9.614 -0.4523  0.2743 -0.0643
  123MOL0     C16170   3.902  10.630   9.559 -0.3358  0.0879 -0.2328
  123MOL0     H16171   3.487  10.472   9.232 -3.5050  0.9401 -2.1643
  123MOL0     H16172   3.245  10.463   9.254  1.1002 -1.0972  0.0771
  123MOL0     H16173   3.057  10.812   9.298 -3.1850 -1.2861 -2.3909
  123MOL0     H16174   3.051  10.782   9.479  0.9538 -2.9162  0.1893
  123MOL0     H16175   2.851  10.666   9.290 -2.4169  3.0718 -0.5695
  123MOL0     H16176   2.836  10.834   9.341 -1.6902 -1.2022 -0.4815
  123MOL0     H16177   2.832  10.765   9.577 -2.5186  0.7746  1.3137
  123MOL0     H16178   2.828  10.594   9.522 -1.4904 -0.9104 -0.2356
  123MOL0     H16179   2.611  10.791   9.439 -1.2304 -0.1730 -1.5282
  123MOL0     H16180   2.623  10.621   9.387 -0.9677 -1.9045  1.7229
  123MOL0     H16181   2.609  10.686   9.677  0.9399 -0.8023  0.1971
  123MOL0     H16182   2.614  10.530   9.601 -0.8550  0.2456 -1.6199
  123MOL0     H16183   2.401  10.608   9.474 -0.0895 -1.7018  0.4803
  123MOL0     H16184   2.399  10.741   9.599  0.8497  0.1735 -1.7460
  123MOL0     H16185   2.255  10.500   9.629  0.4571 -0.2575  0.2547
  123MOL0     H16186   2.416  10.445   9.689  1.0197  0.6472  0.8036
  123MOL0     H16187   2.404  10.663   9.842 -2.1986  1.7670  3.4169
  123MOL0     H16188   2.279  10.543   9.875 -3.0701  0.3651 -0.7097
  123MOL0     H16189   2.129  10.697   9.574  2.8443 -0.3426  1.2132
  123MOL0     H16190   1.908  10.818   9.562 -0.5191  1.7601 -0.6641
  123MOL0     H16191   2.007  10.963   9.576 -0.3738  0.2009 -0.7170
  123MOL0     H16192   1.877  11.034   9.778 -1.6087  2.2697 -2.9496
  123MOL0     H16193   1.773  10.891   9.769 -1.1520  0.6235 -0.5646
  123MOL0     H16194   1.797  11.136   9.583  1.1808 -1.3910 -0.8421
  123MOL0     H16195   1.747  10.988   9.520 -3.4959  1.0426 -0.6630
  123MOL0     H16196   1.569  11.119   9.569  2.3111  0.5175 -1.3329
  123MOL0     H16197   1.611  11.160   9.732 -2.6500 -1.6457  1.5927
  123MOL0     H16198   1.405  11.196   9.737  0.2086  0.8849  0.5471
  123MOL0     H16199   1.161  11.244   9.763  1.8315  0.4824  3.0165
  123MOL0     H16200   0.683  10.989   9.827 -1.5131  0.0245 -0.3553
  123MOL0     H16201   0.472  11.074   9.823  1.1384 -0.2455 -0.0815
  123MOL0     H16202   0.393  11.495  10.001 -0.4638  0.9627  0.4955
  123MOL0     H16203   0.363  11.361  10.105 -0.5870 -0.1437 -0.3706
  123MOL0     H16204   0.129  11.463  10.067 -0.9765 -3.6692  1.4562
  123MOL0     H16205   0.145  11.322   9.980  1.1509 -0.4307  1.6278
  123MOL0     H16206   0.222  11.458   9.778  1.7401 -0.6157  1.4431
  123MOL0     H16207   0.211  11.605   9.870  1.2642  0.2385 -0.1387
  123MOL0     H16208   0.006  11.532   9.728  0.8657  2.3534  0.8068
  123MOL0     H16209  -0.012  11.401   9.857 -1.2079 -0.6573 -0.6727
  123MOL0     H16210   0.011  11.674   9.974 -0.3772  1.4200 -1.5085
  123MOL0     H16211  -0.101  11.540  10.011  0.0882  0.3224  0.6323
  123MOL0     H16212  -0.182  11.753   9.960  1.2479  0.9047  1.2484
  123MOL0     H16213  -0.271  11.634   9.868  0.5549 -1.4868 -1.7634
  123MOL0     H16214  -0.065  11.846   9.792 -0.0745 -0.4090  0.5196
  123MOL0     H16215  -0.084  11.713   9.676  2.3801  1.4554 -0.1149
  123MOL0     H16216  -0.334  11.776   9.652 -1.0623 -0.5152  2.4792
  123MOL0     H16217  -0.236  11.917   9.618  1.4735  1.9537  2.2491
  123MOL0     H16218   0.627  11.468   9.960  0.4506  0.5173  2.5790
  123MOL0     H16219   0.835  11.375   9.950 -0.3320 -0.9633  1.7829
  123MOL0     H16220   1.128  10.799   9.782  0.7282 -0.9309  0.1583
  123MOL0     H16221   1.368  10.787   9.753  0.4990 -0.3391  0.8538
  123MOL0     H16222   3.243  10.793   9.515  1.1427  0.8125  0.4844
  123MOL0     H16223   3.477  10.760   9.561  2.2324 -0.6711  0.7607
  123MOL0     H16224   3.986  10.486   9.260 -0.1579  0.0685  0.1963
  123MOL0     H16225   4.204  10.510   9.345  0.6829  1.1036  1.2683
  123MOL0     H16226   4.242  10.565   9.776  1.0557 -2.4746 -1.8797
  123MOL0     H16227   4.259  10.738   9.729 -0.1748  0.4250 -1.2636
  123MOL0     H16228   4.499  10.718   9.689  2.0448  1.7854  2.4373
  123MOL0     H16229   4.458  10.657   9.855  1.1755 -3.9255  0.7032
  123MOL0     H16230   4.522  10.474   9.611  1.6492 -1.6278  1.0603
  123MOL0     H16231   4.451  10.421   9.759  1.6047 -1.7903 -0.2762
  123MOL0     H16232   4.724  10.577   9.701 -0.4242  1.3904  0.0618
  123MOL0     H16233   4.662  10.543   9.863 -1.3915  1.2415  0.0460
  123MOL0     H16234   4.772  10.148   9.790  0.2750  0.0685 -1.5031
  123MOL0     H16235   4.045  10.674   9.717 -0.3827 -1.0200  0.3155
  123MOL0     H16236   3.809  10.639   9.615  0.1329  0.4798  0.4857
  124MOL0     O16237   8.465   1.757   3.558  0.4845 -0.0210  0.0325
  124MOL0     C16238   8.494   1.833   3.655 -0.1510 -0.5982  0.1532
  124MOL0     O16239   8.489   1.976   3.647 -1.1682  0.8672 -0.4229
  124MOL0     C16240   8.406   2.019   3.552 -1.4279  0.0868  0.3351
  124MOL0     C16241   8.267   2.040   3.567 -0.2073 -0.0223  0.3175
  124MOL0     C16242   8.188   2.086   3.459 -0.7151 -0.4043 -0.4540
  124MOL0     C16243   8.242   2.103   3.331  0.4236  0.2524  0.4474
  124MOL0     O16244   8.165   2.154   3.223 -0.1611 -0.0697 -0.1746
  124MOL0     C16245   8.018   2.161   3.249 -0.4652  0.5046 -0.0701
  124MOL0     C16246   7.937   2.196   3.123 -0.0037  0.0784  0.6154
  124MOL0     C16247   7.981   2.336   3.064 -0.4555 -0.0345  0.0106
  124MOL0     C16248   7.890   2.366   2.945 -1.2916 -0.3858  0.0497
  124MOL0     C16249   7.738   2.383   2.980  0.1527 -0.0627  0.8333
  124MOL0     C16250   7.661   2.449   2.867  0.1142  0.5376  0.3771
  124MOL0     C16251   7.535   2.533   2.901  0.6922 -0.2720 -0.0248
  124MOL0     C16252   7.435   2.437   2.961  0.8389 -0.1726 -0.9114
  124MOL0     N16253   7.296   2.491   2.973  0.0992 -0.4001  0.1427
  124MOL0     C16254   7.201   2.525   2.881 -0.4726 -0.8130  0.2701
  124MOL0     C16255   7.125   2.611   2.940 -0.2508  0.1171  0.3458
  124MOL0     C16256   6.992   2.667   2.887  0.3331  0.2793  0.1526
  124MOL0     C16257   7.013   2.743   2.753 -0.4819  0.6513  0.9411
  124MOL0     C16258   6.905   2.848   2.733  0.1797 -0.1774 -0.1074
  124MOL0     C16259   6.760   2.787   2.731 -0.4694  0.9874 -0.0335
  124MOL0     O16260   6.674   2.891   2.771  0.1107 -0.3896 -0.3159
  124MOL0     C16261   6.540   2.874   2.749  0.0516 -0.0095  0.1246
  124MOL0     C16262   6.476   2.746   2.749 -1.7367 -0.3836 -0.5949
  124MOL0     C16263   6.338   2.730   2.732 -0.0534 -0.7762 -0.4663
  124MOL0     C16264   6.256   2.844   2.712 -0.4958 -0.0288  0.8855
  124MOL0     C16265   6.113   2.829   2.674  0.6940  1.1340  0.3279
  124MOL0     O16266   6.059   2.711   2.637 -0.1580 -0.2361  0.4528
  124MOL0     C16267   5.921   2.698   2.615  0.2001  0.0634  0.8052
  124MOL0     C16268   5.859   2.711   2.484  0.8783  0.5909 -0.0743
  124MOL0     C16269   5.715   2.698   2.483  0.5767 -0.5418 -0.0677
  124MOL0     C16270   5.641   2.693   2.596  1.0435  0.6841  0.0227
  124MOL0     O16271   5.508   2.710   2.579  0.9524  1.1449  0.8804
  124MOL0     C16272   5.453   2.847   2.579 -0.2165  0.7477  0.2431
  124MOL0     C16273   5.341   2.862   2.480 -0.3666  0.5089  0.3153
  124MOL0     C16274   5.217   2.759   2.491 -0.4709 -0.8034 -0.7034
  124MOL0     C16275   5.106   2.776   2.388 -0.2270  0.7132  0.2445
  124MOL0     C16276   4.979   2.704   2.434 -0.7894  0.5404  0.0789
  124MOL0     C16277   4.895   2.783   2.527  0.0591  0.0246 -0.8045
  124MOL0     C16278   4.755   2.708   2.537  0.2177 -0.1355  0.7588
  124MOL0     C16279   4.642   2.782   2.597 -0.4079  0.0706  0.8364
  124MOL0    Cl16280   4.604   2.897   2.469  0.5779  0.1268 -0.2169
  124MOL0     C16281   5.701   2.689   2.721  0.6780 -0.6880  0.1538
  124MOL0     C16282   5.841   2.682   2.731 -0.3172  0.1403  0.4905
  124MOL0     O16283   6.044   2.933   2.690 -0.2788  0.5615  0.1618
  124MOL0     C16284   6.324   2.969   2.707  0.2015  0.2987 -0.3319
  124MOL0     C16285   6.460   2.984   2.722 -0.1211  0.1218  0.1091
  124MOL0     N16286   7.171   2.636   3.071 -0.3439  0.3329 -0.0154
  124MOL0     N16287   7.275   2.560   3.092  0.8174  0.4009 -0.3195
  124MOL0     C16288   8.380   2.086   3.315 -0.1601 -0.2318 -0.8889
  124MOL0     C16289   8.456   2.041   3.427 -1.4129  0.1435 -0.0757
  124MOL0     C16290   8.566   1.771   3.774  0.8509  0.8325  0.5377
  124MOL0     C16291   8.666   1.846   3.848  0.6869 -0.2062 -0.6359
  124MOL0     C16292   8.717   1.788   3.969 -0.3988 -0.6897 -0.2992
  124MOL0     C16293   8.682   1.659   4.005  0.3183 -0.5709  1.0524
  124MOL0     O16294   8.731   1.600   4.118 -0.1369 -0.1436 -0.2485
  124MOL0     C16295   8.639   1.547   4.213  0.4496 -0.1355  0.8300
  124MOL0     C16296   8.660   1.612   4.347 -0.5623  0.3570  0.3101
  124MOL0     C16297   8.634   1.762   4.339 -0.2203 -0.6975  0.0200
  124MOL0     C16298   8.629   1.813   4.486  0.3813 -0.9216 -0.4627
  124MOL0     C16299   8.746   1.771   4.570  0.7236  0.1569 -0.2184
  124MOL0     C16300   8.829   1.713   4.644 -0.7737  0.2793  1.0964
  124MOL0     C16301   8.584   1.601   3.927  0.0832  0.4063  0.2765
  124MOL0     C16302   8.527   1.652   3.817  0.2203 -0.3193 -0.3223
  124MOL0     H16303   8.222   2.026   3.665 -0.1059  0.7938  0.4882
  124MOL0     H16304   8.084   2.109   3.480 -0.7220 -0.0829 -0.8215
  124MOL0     H16305   7.994   2.230   3.330  0.6652 -0.4129  1.0919
  124MOL0     H16306   7.986   2.059   3.271  0.5023 -0.0308 -1.0040
  124MOL0     H16307   7.830   2.203   3.145 -0.7391 -3.1064 -1.3823
  124MOL0     H16308   7.954   2.115   3.052  0.7763  0.6544  0.1245
  124MOL0     H16309   8.087   2.339   3.038 -0.2187 -1.5731  0.6758
  124MOL0     H16310   7.979   2.422   3.133  0.8015  2.1318 -2.4573
  124MOL0     H16311   7.926   2.454   2.891  1.2822 -0.7648  0.9873
  124MOL0     H16312   7.896   2.285   2.872  1.4729  1.1465 -1.6327
  124MOL0     H16313   7.725   2.457   3.060 -0.3037  0.7049  0.0703
  124MOL0     H16314   7.697   2.287   3.013  0.3803  0.1773  1.8426
  124MOL0     H16315   7.633   2.367   2.801  0.6386  0.0745  0.7122
  124MOL0     H16316   7.719   2.522   2.810 -1.5670  1.6556  0.0356
  124MOL0     H16317   7.560   2.609   2.975  0.3795  0.5954 -0.7919
  124MOL0     H16318   7.484   2.591   2.824 -1.0051  0.0904  1.3110
  124MOL0     H16319   7.466   2.402   3.060  0.1605 -1.6761 -1.2004
  124MOL0     H16320   7.424   2.352   2.892 -0.4995 -1.9853  1.3791
  124MOL0     H16321   7.174   2.469   2.793 -1.0891 -2.0385  1.2006
  124MOL0     H16322   6.945   2.730   2.964 -1.4431 -3.4857  2.5013
  124MOL0     H16323   6.919   2.585   2.879  1.7529 -1.4298  3.0215
  124MOL0     H16324   7.006   2.673   2.669  2.7006  0.6402  0.5371
  124MOL0     H16325   7.109   2.795   2.744 -0.1767  0.2957  2.0091
  124MOL0     H16326   6.923   2.916   2.817 -0.0053 -1.6910  1.2215
  124MOL0     H16327   6.910   2.899   2.637 -1.9011 -3.3629 -2.0777
  124MOL0     H16328   6.747   2.696   2.790 -1.2654 -0.0064 -1.6440
  124MOL0     H16329   6.730   2.767   2.627 -2.6605  0.5720  0.6264
  124MOL0     H16330   6.538   2.656   2.750 -1.8822 -0.5431 -2.2517
  124MOL0     H16331   6.291   2.633   2.720 -0.7619 -0.7594  1.7147
  124MOL0     H16332   5.913   2.733   2.393  2.9649  0.7082  1.1407
  124MOL0     H16333   5.665   2.702   2.387  0.4326 -0.9698 -0.0146
  124MOL0     H16334   5.534   2.916   2.552 -0.3278  0.4546 -0.9031
  124MOL0     H16335   5.417   2.853   2.682 -1.0657  0.1332 -0.0060
  124MOL0     H16336   5.383   2.836   2.382 -1.7390  0.7021 -0.3323
  124MOL0     H16337   5.313   2.967   2.475  0.8888  0.8496  0.1047
  124MOL0     H16338   5.176   2.780   2.591  0.3361 -0.1695 -0.5001
  124MOL0     H16339   5.260   2.660   2.478 -2.1760 -1.7299  0.2676
  124MOL0     H16340   5.079   2.881   2.372 -0.2391  0.9341  1.5976
  124MOL0     H16341   5.131   2.719   2.298 -1.0923  1.3262 -0.4040
  124MOL0     H16342   5.004   2.604   2.471  2.3953  1.4562  0.7289
  124MOL0     H16343   4.929   2.693   2.338  0.5078  0.4681 -0.6173
  124MOL0     H16344   4.893   2.891   2.508  1.1871  0.6489  2.2076
  124MOL0     H16345   4.937   2.787   2.628  0.4708  1.9473 -1.0055
  124MOL0     H16346   4.721   2.683   2.436  0.3818  2.3701  0.0011
  124MOL0     H16347   4.772   2.617   2.595 -0.1277 -1.0378 -0.5267
  124MOL0     H16348   4.673   2.829   2.691  4.2054 -1.3019  0.2418
  124MOL0     H16349   4.554   2.722   2.622 -0.8101 -1.0360 -2.6758
  124MOL0     H16350   5.640   2.705   2.809  0.7958  3.8805 -0.3587
  124MOL0     H16351   5.894   2.688   2.826 -0.3394 -1.8374  0.6595
  124MOL0     H16352   6.267   3.055   2.675  0.8420  1.1473  0.7342
  124MOL0     H16353   6.512   3.078   2.707 -1.1090  0.1720 -4.5123
  124MOL0     H16354   8.422   2.099   3.216  2.8905  3.4837  0.6588
  124MOL0     H16355   8.559   2.018   3.399 -1.0786  0.3875  0.9095
  124MOL0     H16356   8.693   1.943   3.809  2.6673  0.0516  1.2243
  124MOL0     H16357   8.778   1.845   4.038 -2.2564  0.8862  0.1154
  124MOL0     H16358   8.650   1.439   4.204 -1.3253 -0.1926 -2.3609
  124MOL0     H16359   8.536   1.566   4.181  0.3061 -2.6077 -0.3880
  124MOL0     H16360   8.587   1.567   4.415 -1.1903  0.2594 -0.4222
  124MOL0     H16361   8.765   1.589   4.368 -0.6685 -1.5268 -0.9881
  124MOL0     H16362   8.543   1.789   4.286 -0.9551  0.7554  1.8979
  124MOL0     H16363   8.720   1.811   4.292 -0.0275 -0.5756  0.4887
  124MOL0     H16364   8.623   1.923   4.491  2.7880 -0.7820  3.0860
  124MOL0     H16365   8.536   1.778   4.531 -1.9201  3.8996 -0.7631
  124MOL0     H16366   8.896   1.648   4.695 -1.7238 -0.8930  0.8907
  124MOL0     H16367   8.544   1.501   3.942  0.6775 -0.6844 -3.9890
  124MOL0     H16368   8.454   1.599   3.757  2.0409  0.2356 -3.2326
  125MOL0     O16369   9.729  10.039   0.984 -0.1973 -0.8639 -0.0221
  125MOL0     C16370   9.716   9.920   0.961  0.7594  0.0257 -0.3016
  125MOL0     O16371   9.607   9.861   0.904  0.0826  0.0151  0.1572
  125MOL0     C16372   9.502   9.933   0.853  0.5478 -0.4722  0.0293
  125MOL0     C16373   9.456   9.881   0.736  0.5290  0.3546 -1.5697
  125MOL0     C16374   9.345   9.934   0.673  0.1955 -0.4605 -0.9137
  125MOL0     C16375   9.273  10.041   0.732  0.1469 -0.1103 -0.5987
  125MOL0     O16376   9.155  10.084   0.682 -0.1506 -0.1191  0.3609
  125MOL0     C16377   9.102  10.018   0.564  0.5952 -0.6999  0.2289
  125MOL0     C16378   8.963  10.086   0.550  0.2303  0.2443  0.2413
  125MOL0     C16379   8.981  10.225   0.490 -0.6194  0.3826  0.1105
  125MOL0     C16380   8.866  10.315   0.528 -0.5412  0.2705  0.5244
  125MOL0     C16381   8.721  10.274   0.488 -0.6697  0.8036 -0.7848
  125MOL0     C16382   8.610  10.378   0.537 -0.1440 -0.2504  0.5384
  125MOL0     C16383   8.582  10.496   0.441 -1.4861  1.0613  0.6023
  125MOL0     C16384   8.494  10.471   0.320  0.2740 -0.4499 -0.0488
  125MOL0     N16385   8.545  10.373   0.225 -0.2268 -0.4328  0.5297
  125MOL0     C16386   8.524  10.239   0.227  0.5659  0.6652 -0.7147
  125MOL0     C16387   8.590  10.194   0.118 -0.4761  0.0454 -0.2749
  125MOL0     C16388   8.605  10.045   0.080 -0.5893  0.4386 -0.7678
  125MOL0     C16389   8.708   9.962   0.171  0.6261 -0.2314 -0.4732
  125MOL0     C16390   8.680   9.815   0.156 -0.1708  0.2678 -0.3455
  125MOL0     C16391   8.786   9.712   0.203 -0.7795 -0.3136  0.0454
  125MOL0     O16392   8.777   9.718   0.347  0.6442 -0.0672  0.6186
  125MOL0     C16393   8.874   9.669   0.425 -0.3299 -0.6900 -0.8572
  125MOL0     C16394   8.874   9.705   0.557  0.1818 -0.3759 -0.7360
  125MOL0     C16395   8.983   9.680   0.638 -0.5879 -0.6493 -0.5964
  125MOL0     C16396   9.088   9.595   0.599  1.2618 -0.9777 -0.7155
  125MOL0     C16397   9.185   9.549   0.701  0.0738 -0.4343 -0.2023
  125MOL0     O16398   9.166   9.581   0.832  0.0921 -0.5792 -1.1793
  125MOL0     C16399   9.256   9.520   0.923 -0.5593  0.1631 -0.7448
  125MOL0     C16400   9.383   9.580   0.954 -0.3725 -0.1557 -0.3751
  125MOL0     C16401   9.463   9.516   1.047 -0.5464 -0.8022 -0.2652
  125MOL0     C16402   9.420   9.394   1.122 -0.0099 -0.1450  0.1261
  125MOL0     O16403   9.496   9.339   1.225 -0.1648 -0.1400  0.2492
  125MOL0     C16404   9.601   9.414   1.288  0.2535  0.2794  0.3186
  125MOL0     C16405   9.609   9.347   1.413 -0.3774 -0.5043 -0.6868
  125MOL0     C16406   9.728   9.409   1.497  0.2883  0.0332  0.4513
  125MOL0     C16407   9.769   9.311   1.613 -0.3535  0.7954  0.5388
  125MOL0     C16408   9.691   9.320   1.742  0.4082 -0.1797 -0.6501
  125MOL0     C16409   9.765   9.237   1.848 -0.6555  0.5044 -0.9565
  125MOL0     C16410   9.692   9.107   1.877 -0.3085  0.4773 -0.5126
  125MOL0     C16411   9.766   9.024   1.982 -0.1542 -0.0668 -0.0111
  125MOL0    Cl16412   9.721   9.095   2.143  0.3017 -0.2412 -0.2942
  125MOL0     C16413   9.298   9.336   1.080 -0.6422  0.6835  0.1022
  125MOL0     C16414   9.213   9.399   0.991  0.1985 -0.7861  0.4424
  125MOL0     O16415   9.279   9.490   0.658 -0.5805  0.2319 -0.2403
  125MOL0     C16416   9.080   9.548   0.468  0.0916 -0.3096 -0.4148
  125MOL0     C16417   8.972   9.585   0.385  0.1050  0.6787  0.2040
  125MOL0     N16418   8.656  10.299   0.053  0.2774  1.0915  0.5357
  125MOL0     N16419   8.618  10.403   0.114 -0.2890 -0.3128 -0.5686
  125MOL0     C16420   9.320  10.096   0.858  0.5911  0.4703 -0.7217
  125MOL0     C16421   9.436  10.048   0.916 -1.0628 -0.1596  0.7120
  125MOL0     C16422   9.828   9.845   1.010  0.4801  0.4524  0.2872
  125MOL0     C16423   9.824   9.704   1.000  0.8781 -0.5320  0.1127
  125MOL0     C16424   9.911   9.619   1.061 -0.5246  0.1952 -0.2668
  125MOL0     C16425  10.010   9.672   1.142 -0.3068  1.1201  0.4696
  125MOL0     O16426  10.094   9.583   1.197 -0.4599 -0.1378 -0.3285
  125MOL0     C16427  10.205   9.631   1.267  0.1456  0.0888  0.3655
  125MOL0     C16428  10.163   9.688   1.404 -0.1378 -0.1098 -0.0961
  125MOL0     C16429  10.100   9.580   1.494  0.3943  0.6736 -0.5793
  125MOL0     C16430  10.079   9.614   1.649 -0.6425  0.0453  0.1780
  125MOL0     C16431  10.198   9.653   1.714  0.6951 -0.0720 -0.3413
  125MOL0     C16432  10.290   9.691   1.772 -0.6363  0.3464  0.2900
  125MOL0     C16433  10.022   9.814   1.157 -0.0856 -0.9481 -0.2628
  125MOL0     C16434   9.933   9.898   1.082  0.3178 -0.3717 -0.6372
  125MOL0     H16435   9.515   9.811   0.679  2.3514  2.4343 -2.4000
  125MOL0     H16436   9.311   9.892   0.579 -2.0067  0.9233 -0.8107
  125MOL0     H16437   9.093   9.909   0.566 -0.7563 -0.6381  3.7040
  125MOL0     H16438   9.170  10.038   0.480  3.2149  0.3465  2.4346
  125MOL0     H16439   8.920  10.104   0.649 -0.1765  0.2546  0.0656
  125MOL0     H16440   8.886  10.025   0.500 -0.7812  0.8847  0.9949
  125MOL0     H16441   8.976  10.214   0.381 -2.0780 -0.2057  0.2182
  125MOL0     H16442   9.076  10.275   0.514  1.0688 -1.9525 -1.2070
  125MOL0     H16443   8.867  10.319   0.637  1.8572  1.3624  0.5198
  125MOL0     H16444   8.891  10.409   0.477  1.4634 -0.7930 -0.5974
  125MOL0     H16445   8.699  10.171   0.517 -0.9141  1.0130 -0.2002
  125MOL0     H16446   8.702  10.266   0.380 -4.0178 -0.1657 -0.2499
  125MOL0     H16447   8.620  10.416   0.639 -1.1302  0.2002  0.4889
  125MOL0     H16448   8.518  10.319   0.531  0.3352 -0.9456 -0.0154
  125MOL0     H16449   8.546  10.581   0.499  0.3128  1.3410  1.3844
  125MOL0     H16450   8.682  10.525   0.407 -2.1883  1.9120 -0.8533
  125MOL0     H16451   8.486  10.560   0.257 -0.4369 -0.2166  0.3737
  125MOL0     H16452   8.400  10.445   0.368 -0.2142  2.2788  0.6178
  125MOL0     H16453   8.475  10.184   0.306  0.5252  0.2190 -1.0437
  125MOL0     H16454   8.640  10.051  -0.024 -2.8084  0.9858 -1.5535
  125MOL0     H16455   8.502  10.008   0.074 -1.1171  1.3526  1.7002
  125MOL0     H16456   8.702   9.996   0.275  4.0910 -1.8679  0.4149
  125MOL0     H16457   8.812   9.983   0.143 -0.4875  1.8018 -3.6141
  125MOL0     H16458   8.604   9.797   0.232  1.1735 -2.6017  0.4655
  125MOL0     H16459   8.647   9.789   0.055  1.5000 -1.2297 -0.5653
  125MOL0     H16460   8.879   9.741   0.154 -0.7593 -4.1706 -2.6618
  125MOL0     H16461   8.761   9.614   0.162 -0.6681 -0.3686  0.1127
  125MOL0     H16462   8.783   9.756   0.586  0.0277 -1.2082  0.2987
  125MOL0     H16463   8.975   9.715   0.740 -0.1496 -0.2602 -0.6897
  125MOL0     H16464   9.426   9.667   0.906  2.2820  0.5510  2.9107
  125MOL0     H16465   9.560   9.554   1.076 -0.7231 -1.3177  1.0580
  125MOL0     H16466   9.568   9.517   1.306 -1.7673 -0.7116  3.0011
  125MOL0     H16467   9.693   9.411   1.228  1.0293 -0.5973  1.4969
  125MOL0     H16468   9.621   9.238   1.415 -0.8399 -0.6288  2.9585
  125MOL0     H16469   9.511   9.356   1.460 -0.3245 -0.3068 -0.6122
  125MOL0     H16470   9.706   9.511   1.530  1.5897  0.7214 -0.7237
  125MOL0     H16471   9.810   9.421   1.426  0.4837 -0.0187  0.6679
  125MOL0     H16472   9.771   9.209   1.572 -0.0311  0.8992  0.2855
  125MOL0     H16473   9.871   9.337   1.643  0.5863 -0.0630 -1.6157
  125MOL0     H16474   9.589   9.283   1.729  1.7814 -4.1319 -1.7985
  125MOL0     H16475   9.682   9.423   1.778  2.1454  0.5927 -2.2405
  125MOL0     H16476   9.780   9.281   1.947  1.1549  0.3015 -1.1106
  125MOL0     H16477   9.866   9.213   1.812 -0.2356 -1.8059  1.4667
  125MOL0     H16478   9.592   9.127   1.918 -0.2292  1.6570 -0.8491
  125MOL0     H16479   9.686   9.055   1.782 -2.4868  2.6492 -1.6858
  125MOL0     H16480   9.873   9.017   1.965  0.6237  0.1256  3.8659
  125MOL0     H16481   9.728   8.923   1.966  0.8498 -0.6469  1.1023
  125MOL0     H16482   9.249   9.262   1.143  0.8198  0.9245  1.6194
  125MOL0     H16483   9.116   9.358   0.966 -1.2409  1.7396  1.5513
  125MOL0     H16484   9.145   9.463   0.452 -1.6822 -1.9193  0.4266
  125MOL0     H16485   8.964   9.533   0.290 -0.7854 -0.6555  0.9848
  125MOL0     H16486   9.262  10.174   0.906 -3.2858 -1.3173 -2.0250
  125MOL0     H16487   9.486  10.104   0.994  0.1986 -0.2829  0.0164
  125MOL0     H16488   9.749   9.665   0.932  0.1962 -1.3476  1.2957
  125MOL0     H16489   9.889   9.513   1.066 -0.3380  0.1954  4.1649
  125MOL0     H16490  10.260   9.710   1.215  1.9644  0.5292  2.7886
  125MOL0     H16491  10.271   9.545   1.280  0.9505  0.9410  2.3809
  125MOL0     H16492  10.258   9.708   1.455 -1.4526 -1.4985  3.2203
  125MOL0     H16493  10.103   9.779   1.409  2.6010  1.7340  2.0033
  125MOL0     H16494  10.145   9.483   1.475 -1.9094 -0.2313 -1.8186
  125MOL0     H16495  10.004   9.572   1.442  0.2499  0.6504 -0.3077
  125MOL0     H16496   9.998   9.685   1.667 -0.6984 -0.8056  3.9204
  125MOL0     H16497  10.046   9.523   1.700  1.4549 -0.8693  0.0080
  125MOL0     H16498  10.387   9.727   1.801 -1.9888  1.9335  3.3724
  125MOL0     H16499  10.094   9.864   1.221  0.0594 -0.3861 -0.8511
  125MOL0     H16500   9.953  10.002   1.106  2.5228 -1.0776  0.9944
  126MOL0     O16501  11.273   3.534   0.080 -0.0806  0.7519  0.3640
  126MOL0     C16502  11.317   3.430   0.031  0.7372  0.3258 -0.4449
  126MOL0     O16503  11.443   3.407  -0.022  0.1380  0.5991 -0.4012
  126MOL0     C16504  11.562   3.483  -0.020 -0.5090  0.5951 -0.5664
  126MOL0     C16505  11.585   3.603   0.042  0.0334 -0.3711  0.1424
  126MOL0     C16506  11.715   3.666   0.036  0.5123 -1.0271 -1.0043
  126MOL0     C16507  11.821   3.601  -0.025  0.4117 -0.6284  0.2942
  126MOL0     O16508  11.951   3.648  -0.019 -0.3054 -0.3277  0.2695
  126MOL0     C16509  11.977   3.778   0.036  1.0247  0.4834 -0.1225
  126MOL0     C16510  12.120   3.825   0.002 -0.5933 -0.2822 -0.4136
  126MOL0     C16511  12.133   3.968   0.064  0.8369  0.6337 -0.1066
  126MOL0     C16512  12.281   4.033   0.054  0.7844 -0.0517 -0.4941
  126MOL0     C16513  12.267   4.184   0.095 -0.0676 -0.4966 -0.7919
  126MOL0     C16514  12.392   4.262   0.053  0.5868  0.1088  0.0034
  126MOL0     C16515  12.384   4.413   0.062 -0.3532 -0.6889 -0.4807
  126MOL0     C16516  12.378   4.450   0.211  0.5740 -0.0911 -0.1076
  126MOL0     N16517  12.414   4.597   0.225  0.3031  0.1045 -0.4396
  126MOL0     C16518  12.436   4.694   0.128 -0.4154  0.4202  0.6685
  126MOL0     C16519  12.453   4.806   0.191 -0.9271 -0.1207  0.4142
  126MOL0     C16520  12.504   4.935   0.128 -0.0014 -0.5254  0.2010
  126MOL0     C16521  12.480   5.066   0.201  1.1223 -0.2484  0.3188
  126MOL0     C16522  12.575   5.178   0.172  0.7530  0.4256  0.1084
  126MOL0     C16523  12.513   5.317   0.195  1.1435 -0.6848  0.7934
  126MOL0     O16524  12.380   5.338   0.140 -0.3141 -0.1433 -0.3214
  126MOL0     C16525  12.314   5.436   0.208  0.7976 -0.0928 -0.2672
  126MOL0     C16526  12.373   5.553   0.248  1.1065 -0.1589 -0.2605
  126MOL0     C16527  12.297   5.653   0.311 -0.3860  0.2470  0.7427
  126MOL0     C16528  12.163   5.644   0.337 -0.5507 -0.6797  0.7135
  126MOL0     C16529  12.084   5.769   0.384  0.4544  0.8241 -0.3451
  126MOL0     O16530  12.142   5.888   0.389  0.1190  0.3851  0.3041
  126MOL0     C16531  12.078   5.998   0.433  0.8800 -0.5987  0.6354
  126MOL0     C16532  12.153   6.092   0.499 -0.8771 -0.5738  0.6997
  126MOL0     C16533  12.106   6.223   0.531  0.1817 -0.1987 -0.4626
  126MOL0     C16534  11.972   6.269   0.497 -0.5323  0.6294 -0.4546
  126MOL0     O16535  11.933   6.401   0.515 -0.2503 -0.6254  0.9650
  126MOL0     C16536  11.863   6.458   0.399 -0.4954 -0.0844 -1.0307
  126MOL0     C16537  11.830   6.606   0.422  0.3233  0.6671 -0.4200
  126MOL0     C16538  11.791   6.675   0.294 -0.0842 -0.4431  0.4224
  126MOL0     C16539  11.652   6.634   0.248  0.6547  0.8128 -0.4270
  126MOL0     C16540  11.654   6.562   0.111  1.0025 -0.3622 -0.0209
  126MOL0     C16541  11.516   6.496   0.085 -0.6388  0.8788 -0.5199
  126MOL0     C16542  11.504   6.469  -0.060 -0.3245  0.0409 -0.0806
  126MOL0     C16543  11.387   6.370  -0.071 -0.5677  0.0615 -0.1433
  126MOL0    Cl16544  11.241   6.448  -0.138 -0.0490  0.5558  0.0811
  126MOL0     C16545  11.897   6.171   0.421 -1.1421  0.3154  0.1744
  126MOL0     C16546  11.946   6.037   0.396 -0.6235 -1.3227  0.2954
  126MOL0     O16547  11.963   5.745   0.386  0.1565  0.1723  0.2425
  126MOL0     C16548  12.104   5.524   0.302 -0.1167 -0.1402  0.1124
  126MOL0     C16549  12.172   5.422   0.226 -0.5879 -0.5113 -0.2041
  126MOL0     N16550  12.436   4.789   0.323  0.4246 -0.5968  0.0656
  126MOL0     N16551  12.412   4.659   0.341 -0.5994 -0.4902 -0.4798
  126MOL0     C16552  11.795   3.482  -0.091  0.1820 -0.8164  0.5627
  126MOL0     C16553  11.668   3.424  -0.084  0.0759 -0.6835  0.4723
  126MOL0     C16554  11.212   3.329   0.004 -0.8977 -0.2666  0.4061
  126MOL0     C16555  11.221   3.227  -0.087 -0.2039 -0.0618 -0.3832
  126MOL0     C16556  11.113   3.150  -0.126  0.7495 -0.3224  0.2246
  126MOL0     C16557  10.988   3.158  -0.057  0.0873 -0.1541  0.7709
  126MOL0     O16558  10.877   3.079  -0.094  0.0314 -0.3038  0.3579
  126MOL0     C16559  10.774   3.056   0.001 -0.7100  1.1533 -0.1950
  126MOL0     C16560  10.644   3.116  -0.045 -0.8320  0.3085 -1.1054
  126MOL0     C16561  10.528   3.101   0.056  0.3629  0.5898 -0.8818
  126MOL0     C16562  10.385   3.092  -0.003  0.1761 -0.0324 -0.2835
  126MOL0     C16563  10.279   3.069   0.098  0.1319  0.8074  0.4421
  126MOL0     C16564  10.198   3.070   0.190  0.4635 -0.3990  0.9491
  126MOL0     C16565  10.969   3.265   0.034 -0.7728  0.1943 -0.1560
  126MOL0     C16566  11.086   3.343   0.066 -0.2875 -0.2952 -0.6577
  126MOL0     H16567  11.507   3.655   0.098 -0.1950 -0.8735  0.2939
  126MOL0     H16568  11.733   3.763   0.082  3.2321 -0.9763 -1.9584
  126MOL0     H16569  11.956   3.782   0.143 -0.7958 -1.1659 -0.3755
  126MOL0     H16570  11.906   3.843  -0.016 -3.5560 -2.4734  1.8321
  126MOL0     H16571  12.140   3.829  -0.105  0.9103 -1.4350 -0.2029
  126MOL0     H16572  12.203   3.775   0.053 -0.1872  1.3090  0.5667
  126MOL0     H16573  12.099   3.970   0.168 -0.3956 -0.9121 -0.4358
  126MOL0     H16574  12.063   4.027   0.006  0.9494  0.9883  0.1123
  126MOL0     H16575  12.360   3.993   0.119  1.0336  0.9838 -0.1326
  126MOL0     H16576  12.306   4.019  -0.051 -1.4605 -1.9891 -0.8460
  126MOL0     H16577  12.255   4.187   0.204 -1.5828  2.0161 -0.9427
  126MOL0     H16578  12.178   4.228   0.049  0.3939  0.6216 -0.6447
  126MOL0     H16579  12.412   4.231  -0.050  0.5119  1.9038 -0.5842
  126MOL0     H16580  12.469   4.207   0.110 -0.5984 -1.5258  0.1003
  126MOL0     H16581  12.473   4.451   0.012 -1.4816  2.4253 -0.3804
  126MOL0     H16582  12.301   4.444  -0.002 -0.0932  2.2548  0.4187
  126MOL0     H16583  12.450   4.391   0.268 -1.3971  0.1008  2.7681
  126MOL0     H16584  12.288   4.417   0.264  2.0619 -1.4288  1.7178
  126MOL0     H16585  12.450   4.675   0.022  1.1588 -1.5927  1.1726
  126MOL0     H16586  12.477   4.946   0.023  0.4082 -0.4451  0.1017
  126MOL0     H16587  12.609   4.906   0.120 -0.4860 -1.9734 -5.8811
  126MOL0     H16588  12.485   5.038   0.307 -3.8896 -3.4647  0.0427
  126MOL0     H16589  12.375   5.095   0.191  1.7028  1.5736 -0.9695
  126MOL0     H16590  12.662   5.167   0.238 -0.5102 -2.8084  1.4229
  126MOL0     H16591  12.599   5.176   0.065  0.8255 -1.2378  0.1407
  126MOL0     H16592  12.589   5.391   0.166  0.9618 -1.0281 -0.6412
  126MOL0     H16593  12.506   5.349   0.299 -3.2757  1.5329  0.0522
  126MOL0     H16594  12.478   5.563   0.222  0.1905 -2.0200 -6.1341
  126MOL0     H16595  12.352   5.743   0.336  0.0068  1.1997 -2.9039
  126MOL0     H16596  12.256   6.062   0.518  0.0881  0.5897 -2.2119
  126MOL0     H16597  12.177   6.292   0.575 -0.7477  0.8934 -0.6232
  126MOL0     H16598  11.768   6.403   0.398 -1.2012  0.9896  0.9406
  126MOL0     H16599  11.923   6.445   0.309  0.4981 -1.7102 -0.1769
  126MOL0     H16600  11.922   6.657   0.450  0.1619 -0.4464  2.4272
  126MOL0     H16601  11.749   6.617   0.494 -0.8235 -1.2328 -1.3189
  126MOL0     H16602  11.866   6.650   0.218  0.4469 -0.8460  1.0663
  126MOL0     H16603  11.778   6.780   0.323 -1.6749 -0.0298 -1.5264
  126MOL0     H16604  11.612   6.563   0.320 -0.0154  3.1921  1.6855
  126MOL0     H16605  11.584   6.720   0.241  0.6139  0.8414  0.2787
  126MOL0     H16606  11.742   6.499   0.093 -0.8514 -2.4556 -2.5248
  126MOL0     H16607  11.666   6.640   0.035  1.9925  1.2458  1.7164
  126MOL0     H16608  11.429   6.560   0.102 -0.6577  0.2974  2.1422
  126MOL0     H16609  11.515   6.407   0.149 -0.6566  1.4755  0.3261
  126MOL0     H16610  11.480   6.564  -0.110 -2.7301 -0.3264  0.2491
  126MOL0     H16611  11.587   6.410  -0.098  0.0871  1.2704 -1.1828
  126MOL0     H16612  11.352   6.317   0.018 -1.8254 -0.6429 -1.0313
  126MOL0     H16613  11.413   6.292  -0.142  3.0913 -1.7558  2.8480
  126MOL0     H16614  11.796   6.186   0.384 -0.6380  1.0263 -0.9431
  126MOL0     H16615  11.885   5.960   0.350 -4.0048  1.0864  0.4095
  126MOL0     H16616  11.996   5.525   0.315 -0.4706  2.4355 -2.1208
  126MOL0     H16617  12.111   5.334   0.206 -3.2295  1.0872  0.2595
  126MOL0     H16618  11.883   3.441  -0.139  0.5891 -0.9127  1.3672
  126MOL0     H16619  11.633   3.330  -0.126 -1.8376  0.7621 -1.3585
  126MOL0     H16620  11.304   3.232  -0.156 -0.4290 -1.4752 -0.7756
  126MOL0     H16621  11.126   3.076  -0.204  2.2336 -2.0126  1.9650
  126MOL0     H16622  10.795   3.084   0.105 -1.2324 -0.3164  0.3284
  126MOL0     H16623  10.767   2.949   0.023 -1.0950  1.4485  1.2627
  126MOL0     H16624  10.658   3.211  -0.096  0.2475 -0.5203 -2.4250
  126MOL0     H16625  10.628   3.047  -0.129  1.8626  2.5568 -3.7069
  126MOL0     H16626  10.516   3.195   0.111  0.0327  0.3742 -0.5808
  126MOL0     H16627  10.546   3.022   0.129  1.1816  2.5551  1.1896
  126MOL0     H16628  10.355   3.183  -0.056 -0.7830 -0.2938 -0.2181
  126MOL0     H16629  10.374   3.018  -0.084 -0.5321  1.6220 -1.7725
  126MOL0     H16630  10.133   3.071   0.275 -2.7916 -1.0312 -1.3381
  126MOL0     H16631  10.873   3.281   0.082 -2.3545 -0.1143 -3.0053
  126MOL0     H16632  11.064   3.429   0.129  1.3213  1.7238 -2.6494
  127MOL0     O16633   3.161  11.116   3.899  0.9496 -0.2939 -0.4106
  127MOL0     C16634   3.132  11.109   3.786 -0.9523  0.6647  0.2973
  127MOL0     O16635   3.052  11.194   3.713 -0.6932 -0.1572 -0.5937
  127MOL0     C16636   3.012  11.311   3.773  0.0882 -0.9678 -0.4545
  127MOL0     C16637   2.878  11.346   3.753 -0.0892 -0.4034  0.5803
  127MOL0     C16638   2.833  11.466   3.802 -0.1766 -0.1270 -0.3390
  127MOL0     C16639   2.914  11.556   3.866 -0.7303 -0.2780 -0.4678
  127MOL0     O16640   2.877  11.679   3.910  0.3435  0.3263 -0.0770
  127MOL0     C16641   2.740  11.727   3.860 -1.1145  0.1111  0.1108
  127MOL0     C16642   2.747  11.882   3.880 -0.2380  1.1644 -0.4872
  127MOL0     C16643   2.767  11.937   4.036 -0.6017 -0.6061  0.3494
  127MOL0     C16644   2.694  11.841   4.140  0.5886  0.3327  0.8286
  127MOL0     C16645   2.685  11.895   4.283  0.2477  0.1030  0.3180
  127MOL0     C16646   2.628  11.788   4.389 -0.3253  0.6605  0.9058
  127MOL0     C16647   2.734  11.720   4.475 -0.8274 -0.3643  0.8167
  127MOL0     C16648   2.805  11.812   4.565 -0.3517 -0.8237 -0.9621
  127MOL0     N16649   2.927  11.761   4.621  0.5799 -0.3659  1.6584
  127MOL0     C16650   3.048  11.822   4.605  0.1238  0.3838  0.5642
  127MOL0     C16651   3.126  11.767   4.694  0.6857 -0.4222 -0.6771
  127MOL0     C16652   3.270  11.818   4.713 -0.0410 -0.8805 -0.0498
  127MOL0     C16653   3.327  11.801   4.855 -0.2850  0.1961  0.6996
  127MOL0     C16654   3.472  11.841   4.860 -0.6372  0.7773 -0.4173
  127MOL0     C16655   3.562  11.734   4.797 -0.5318  0.1192 -0.1477
  127MOL0     O16656   3.700  11.777   4.832  0.1110  0.9712  0.2199
  127MOL0     C16657   3.799  11.688   4.803 -0.6292  0.6831 -1.8547
  127MOL0     C16658   3.805  11.600   4.699 -0.2775  1.2360 -0.9568
  127MOL0     C16659   3.910  11.515   4.687 -0.2799  0.3882  0.3495
  127MOL0     C16660   4.029  11.515   4.769  0.2952 -0.4834 -0.1709
  127MOL0     C16661   4.140  11.418   4.749  0.2010 -0.0268  0.1632
  127MOL0     O16662   4.114  11.300   4.677 -0.1796 -0.0708  0.0954
  127MOL0     C16663   4.211  11.196   4.676 -0.6382  0.4039  0.2269
  127MOL0     C16664   4.177  11.063   4.673  0.0538  0.1024 -0.2584
  127MOL0     C16665   4.265  10.964   4.650  0.1405  0.4253 -0.7195
  127MOL0     C16666   4.396  10.995   4.622 -0.4830 -0.2838  0.0599
  127MOL0     O16667   4.478  10.893   4.631 -0.1663  0.0505  0.5795
  127MOL0     C16668   4.622  10.909   4.596 -0.0587 -0.7876  0.3454
  127MOL0     C16669   4.703  10.778   4.589 -0.3970  0.1863  0.2430
  127MOL0     C16670   4.731  10.687   4.708  0.2684 -0.7208 -1.2943
  127MOL0     C16671   4.615  10.607   4.761 -0.2595 -0.4815  0.5113
  127MOL0     C16672   4.594  10.483   4.674  0.4994 -0.0555  0.8630
  127MOL0     C16673   4.514  10.382   4.756 -0.7803  0.5560 -0.4207
  127MOL0     C16674   4.476  10.256   4.680 -1.0070  1.1752  0.7338
  127MOL0     C16675   4.462  10.140   4.780 -0.0427  0.6488 -0.5771
  127MOL0    Cl16676   4.370  10.216   4.916 -0.2036  0.2351  0.7311
  127MOL0     C16677   4.435  11.132   4.612 -0.0006  0.5931 -0.0860
  127MOL0     C16678   4.341  11.238   4.638  0.4690  0.1999  0.4221
  127MOL0     O16679   4.236  11.443   4.820  0.0404  0.2956 -0.5356
  127MOL0     C16680   4.024  11.609   4.877 -0.5455 -0.6505  0.3718
  127MOL0     C16681   3.919  11.699   4.887 -0.3325 -1.0773  0.5487
  127MOL0     N16682   3.055  11.677   4.770 -0.5833  0.6483  0.5400
  127MOL0     N16683   2.936  11.666   4.725  0.7076  0.5696 -0.3337
  127MOL0     C16684   3.050  11.529   3.880 -0.8328 -0.6271 -0.7906
  127MOL0     C16685   3.100  11.408   3.826  0.2434 -0.4535 -0.4300
  127MOL0     C16686   3.223  11.038   3.693  0.7571  0.3933  0.9004
  127MOL0     C16687   3.193  11.029   3.550 -0.0791  1.4185 -0.3804
  127MOL0     C16688   3.289  10.974   3.457  0.2591  0.6682 -0.2187
  127MOL0     C16689   3.416  10.934   3.503  0.3596 -0.1354  0.2155
  127MOL0     O16690   3.525  10.900   3.426  0.8217  0.0537  0.1691
  127MOL0     C16691   3.505  10.817   3.310 -0.3077 -0.5613 -0.2205
  127MOL0     C16692   3.609  10.848   3.204 -0.1143  0.7860 -0.1985
  127MOL0     C16693   3.753  10.831   3.256  0.5788  0.2818 -0.5426
  127MOL0     C16694   3.852  10.889   3.158 -0.0365 -0.3300 -0.6869
  127MOL0     C16695   3.983  10.838   3.180 -0.6421  0.6019  0.2754
  127MOL0     C16696   4.102  10.804   3.212  0.6369  0.2105  0.3469
  127MOL0     C16697   3.444  10.944   3.641  0.1448 -0.1356 -0.0071
  127MOL0     C16698   3.350  10.998   3.729 -0.5114  1.0969 -1.3385
  127MOL0     H16699   2.813  11.274   3.704  3.5571 -2.1876 -2.1086
  127MOL0     H16700   2.727  11.482   3.786 -0.1380  0.1961 -0.2914
  127MOL0     H16701   2.656  11.678   3.911 -2.5832  3.1017  0.8117
  127MOL0     H16702   2.717  11.700   3.757 -2.3780  0.7482  0.2095
  127MOL0     H16703   2.658  11.924   3.833 -2.0258 -0.5172  1.1990
  127MOL0     H16704   2.831  11.925   3.824 -0.4275 -0.9167 -2.5031
  127MOL0     H16705   2.721  12.037   4.034  0.5680 -0.0646 -0.2281
  127MOL0     H16706   2.873  11.946   4.061  0.2576  2.0487 -3.3742
  127MOL0     H16707   2.594  11.822   4.100  0.6644 -2.8610  1.9362
  127MOL0     H16708   2.745  11.744   4.136 -2.5345 -1.3729 -1.0217
  127MOL0     H16709   2.609  11.973   4.271  1.2345  0.6569 -3.1461
  127MOL0     H16710   2.782  11.930   4.317 -0.4731 -0.2577  3.0273
  127MOL0     H16711   2.573  11.711   4.335  1.4464 -1.5228  2.0731
  127MOL0     H16712   2.552  11.845   4.443 -1.6052  1.0902 -1.2294
  127MOL0     H16713   2.697  11.639   4.538 -0.0379  0.2935  2.1634
  127MOL0     H16714   2.811  11.673   4.412 -2.2454 -1.5466 -0.0985
  127MOL0     H16715   2.740  11.843   4.647  1.9925 -2.3423  1.6344
  127MOL0     H16716   2.837  11.902   4.511  1.3483 -0.9703 -0.2702
  127MOL0     H16717   3.075  11.902   4.537 -2.4129 -0.9842 -2.2886
  127MOL0     H16718   3.274  11.924   4.689 -1.0914 -1.1882 -1.7766
  127MOL0     H16719   3.337  11.767   4.643 -0.3386 -3.5242  1.4667
  127MOL0     H16720   3.320  11.698   4.888 -1.7487  0.0695  0.1134
  127MOL0     H16721   3.267  11.856   4.929  1.9034  3.8259  0.0172
  127MOL0     H16722   3.506  11.932   4.810  0.7659  0.1666 -0.6414
  127MOL0     H16723   3.506  11.847   4.964  0.4902  0.9108 -0.7718
  127MOL0     H16724   3.550  11.731   4.688  0.0608  1.3175 -0.2562
  127MOL0     H16725   3.542  11.635   4.839 -1.1457  0.0315 -0.6284
  127MOL0     H16726   3.722  11.608   4.630 -1.4818  0.5174  0.3590
  127MOL0     H16727   3.906  11.447   4.603  3.0079 -0.8728  1.0774
  127MOL0     H16728   4.078  11.024   4.696  1.4030 -1.6005  3.4589
  127MOL0     H16729   4.237  10.860   4.637 -1.5959  0.6219  1.0676
  127MOL0     H16730   4.674  10.980   4.661  1.1217 -0.4521 -0.9331
  127MOL0     H16731   4.621  10.956   4.497 -0.7280 -1.1735  0.1638
  127MOL0     H16732   4.796  10.803   4.537  0.5466  3.0766  3.0070
  127MOL0     H16733   4.641  10.712   4.528  0.4383 -1.7356  1.3876
  127MOL0     H16734   4.776  10.743   4.790 -0.0749  0.1025 -1.6587
  127MOL0     H16735   4.815  10.620   4.687 -0.0959 -1.0248 -1.8055
  127MOL0     H16736   4.630  10.579   4.866  0.6922 -0.6145  0.3433
  127MOL0     H16737   4.523  10.666   4.765 -0.2674 -0.4843  0.3572
  127MOL0     H16738   4.686  10.447   4.625  0.1404  2.0656 -1.5943
  127MOL0     H16739   4.542  10.515   4.584  0.5721  0.7603  1.0982
  127MOL0     H16740   4.429  10.427   4.809  1.6086 -0.4855  4.9892
  127MOL0     H16741   4.588  10.358   4.833 -0.1190  1.3671 -0.7842
  127MOL0     H16742   4.382  10.262   4.625 -1.0726 -1.8426  0.3750
  127MOL0     H16743   4.554  10.226   4.609 -2.8001 -0.2540 -0.7479
  127MOL0     H16744   4.557  10.109   4.825 -1.2046 -0.9229  0.9789
  127MOL0     H16745   4.415  10.048   4.742  1.3491 -2.3447  4.0499
  127MOL0     H16746   4.539  11.158   4.598  0.4063 -0.5007  0.7608
  127MOL0     H16747   4.362  11.344   4.638  2.3601 -0.1189 -1.1943
  127MOL0     H16748   4.106  11.594   4.948  0.3979  4.1076  0.6483
  127MOL0     H16749   3.927  11.772   4.968  0.9711 -0.7433  0.1410
  127MOL0     H16750   3.107  11.603   3.935 -0.0049  0.4040 -2.9387
  127MOL0     H16751   3.206  11.384   3.836 -0.2295 -2.4613  0.0078
  127MOL0     H16752   3.102  11.076   3.514  1.6187  4.5134 -1.0568
  127MOL0     H16753   3.259  10.968   3.353  0.3979  0.2648 -0.2345
  127MOL0     H16754   3.406  10.836   3.269 -0.7214  0.9137  1.3546
  127MOL0     H16755   3.508  10.711   3.337 -2.9222 -1.0971 -1.7042
  127MOL0     H16756   3.594  10.768   3.130  0.9206  0.5304 -0.1511
  127MOL0     H16757   3.585  10.949   3.170 -0.1964  1.0984  0.7654
  127MOL0     H16758   3.780  10.727   3.275  4.1726  1.5749  2.5696
  127MOL0     H16759   3.762  10.886   3.350  3.2253 -1.6418  0.4294
  127MOL0     H16760   3.831  10.865   3.053  0.3140 -1.6626 -0.4724
  127MOL0     H16761   3.838  10.996   3.171 -0.6171 -0.1524 -2.4457
  127MOL0     H16762   4.204  10.772   3.225  0.8826  1.0035  0.4009
  127MOL0     H16763   3.547  10.921   3.668  0.3199  0.2014 -0.3824
  127MOL0     H16764   3.377  11.000   3.834  3.6348  0.4794 -2.1928
  128MOL0     O16765   4.290   5.343   4.020 -0.0213  0.4963 -0.4772
  128MOL0     C16766   4.300   5.463   4.025 -0.2885 -0.1216  0.2988
  128MOL0     O16767   4.216   5.553   3.955  0.4608 -0.2240  0.0923
  128MOL0     C16768   4.089   5.519   3.918 -0.2691  0.3193  0.4669
  128MOL0     C16769   4.059   5.397   3.854  1.3380  0.2931  0.4133
  128MOL0     C16770   3.927   5.375   3.811 -0.6076  0.2062  0.4202
  128MOL0     C16771   3.829   5.470   3.815  0.1829 -0.3200 -0.6839
  128MOL0     O16772   3.706   5.441   3.755 -0.5853 -0.6446  0.2043
  128MOL0     C16773   3.588   5.524   3.788  0.2206 -1.0059  0.2648
  128MOL0     C16774   3.468   5.458   3.714 -0.0325  0.3686 -0.1490
  128MOL0     C16775   3.477   5.474   3.567 -0.2507 -0.2204  0.7055
  128MOL0     C16776   3.346   5.510   3.499  0.3153 -0.1679 -0.5449
  128MOL0     C16777   3.226   5.411   3.512  0.6744 -0.0231 -0.8118
  128MOL0     C16778   3.108   5.452   3.429  0.4122  0.8179  0.6351
  128MOL0     C16779   2.977   5.380   3.483  0.1097 -0.6165 -0.1102
  128MOL0     C16780   2.907   5.450   3.600  0.0270 -0.5822 -0.1204
  128MOL0     N16781   2.762   5.420   3.620 -0.1584 -0.5777  0.5994
  128MOL0     C16782   2.718   5.302   3.666 -0.6873 -0.9707  0.2989
  128MOL0     C16783   2.581   5.301   3.654 -0.4041 -0.5750 -0.5710
  128MOL0     C16784   2.498   5.186   3.709 -0.2508 -0.6176  0.5846
  128MOL0     C16785   2.394   5.118   3.615 -0.0503 -0.3608  0.6757
  128MOL0     C16786   2.284   5.220   3.592  0.0284  0.2376 -0.3822
  128MOL0     C16787   2.193   5.205   3.713  0.6428  0.3974  0.3785
  128MOL0     O16788   2.128   5.076   3.716 -0.7539 -0.2857 -1.0717
  128MOL0     C16789   1.994   5.069   3.671 -0.4297  0.8628 -0.7309
  128MOL0     C16790   1.926   4.948   3.667 -0.2193  0.2387  0.9289
  128MOL0     C16791   1.814   4.933   3.604  1.8267 -0.2311  0.6936
  128MOL0     C16792   1.736   5.047   3.553  0.2501 -0.3597 -0.1427
  128MOL0     C16793   1.616   5.029   3.474 -0.3859 -0.3180 -0.1034
  128MOL0     O16794   1.576   4.901   3.452 -0.1353 -0.6111 -0.0695
  128MOL0     C16795   1.484   4.875   3.360  1.4827  0.2635  0.2751
  128MOL0     C16796   1.513   4.832   3.231  0.2949  0.8923  0.2877
  128MOL0     C16797   1.419   4.837   3.133  0.0925  0.1225 -0.0790
  128MOL0     C16798   1.289   4.878   3.158 -0.2982  0.0321  0.3126
  128MOL0     O16799   1.193   4.890   3.064 -0.5243 -0.4727  0.3044
  128MOL0     C16800   1.233   4.910   2.928 -0.6605  0.3518  0.6960
  128MOL0     C16801   1.105   4.955   2.849 -1.2590 -0.1360 -0.0242
  128MOL0     C16802   1.014   4.830   2.817 -0.0193 -0.7087  0.6538
  128MOL0     C16803   0.923   4.786   2.931  1.0295  0.0861  0.2958
  128MOL0     C16804   0.824   4.682   2.884 -0.2763  0.4745 -0.2130
  128MOL0     C16805   0.696   4.667   2.957  0.2197 -0.2863 -0.9718
  128MOL0     C16806   0.615   4.556   2.904  0.4466 -0.5122  0.2725
  128MOL0     C16807   0.650   4.429   2.961  0.2045  0.3772  0.1166
  128MOL0    Cl16808   0.585   4.302   2.855 -0.0377 -0.6948 -0.2322
  128MOL0     C16809   1.249   4.893   3.286 -0.1495 -0.1938 -0.6349
  128MOL0     C16810   1.348   4.903   3.381 -0.5657  0.2102 -0.9214
  128MOL0     O16811   1.548   5.127   3.454 -0.8436  0.2845  0.1260
  128MOL0     C16812   1.791   5.175   3.577 -0.5966 -0.8036  0.1369
  128MOL0     C16813   1.915   5.190   3.637  0.1522  0.2971  0.5702
  128MOL0     N16814   2.546   5.415   3.582  0.6070 -0.7724  0.1074
  128MOL0     N16815   2.656   5.477   3.554  0.4270  0.2055  0.1480
  128MOL0     C16816   3.853   5.590   3.889  0.7606  0.4040 -0.6023
  128MOL0     C16817   3.988   5.613   3.930  0.0453 -0.8696 -0.5648
  128MOL0     C16818   4.418   5.512   4.099  0.3981  0.3822 -0.5187
  128MOL0     C16819   4.529   5.428   4.128  0.4717  0.4160  0.8588
  128MOL0     C16820   4.641   5.475   4.186 -0.1614 -0.0679 -0.2560
  128MOL0     C16821   4.651   5.608   4.234  1.0456 -0.2745  0.7331
  128MOL0     O16822   4.755   5.667   4.300 -0.9549 -0.5546  0.0893
  128MOL0     C16823   4.745   5.678   4.440 -0.4600 -0.1112 -0.2921
  128MOL0     C16824   4.777   5.545   4.509  1.3016  0.4044 -0.3236
  128MOL0     C16825   4.913   5.487   4.516 -0.5785 -0.7138  0.1839
  128MOL0     C16826   4.924   5.383   4.624 -0.3371  0.9010 -0.0786
  128MOL0     C16827   5.044   5.295   4.614 -1.5389 -0.5671  1.0801
  128MOL0     C16828   5.132   5.220   4.641 -0.2550 -0.9237 -0.4131
  128MOL0     C16829   4.536   5.694   4.211 -0.9144 -0.1322 -0.0857
  128MOL0     C16830   4.425   5.650   4.139 -1.0643  0.3518  0.4759
  128MOL0     H16831   4.136   5.325   3.828  0.3453  0.4955 -3.7338
  128MOL0     H16832   3.907   5.278   3.767  3.0465 -0.2413 -0.6437
  128MOL0     H16833   3.596   5.626   3.750  1.3904 -0.9523  0.6118
  128MOL0     H16834   3.571   5.521   3.896  1.8647 -0.9563  0.5585
  128MOL0     H16835   3.379   5.512   3.747  0.5277 -0.0805  2.2918
  128MOL0     H16836   3.456   5.356   3.750  1.7399  0.5961  1.2475
  128MOL0     H16837   3.515   5.386   3.514 -0.3064  0.3973 -0.3893
  128MOL0     H16838   3.549   5.551   3.539 -2.0774  1.4004  0.2266
  128MOL0     H16839   3.312   5.602   3.548 -0.0276 -0.3608 -0.4184
  128MOL0     H16840   3.353   5.535   3.393  0.0436 -0.2797 -0.5885
  128MOL0     H16841   3.201   5.408   3.619  1.8340  0.2370 -0.5130
  128MOL0     H16842   3.257   5.312   3.477 -0.4330 -0.9225  0.6378
  128MOL0     H16843   3.124   5.418   3.326 -0.6988 -0.3159  0.8057
  128MOL0     H16844   3.101   5.560   3.421 -0.5058  1.0747  3.7200
  128MOL0     H16845   2.902   5.387   3.404  1.5779  0.8627 -1.4658
  128MOL0     H16846   3.004   5.278   3.508 -0.3794 -0.5522  0.7014
  128MOL0     H16847   2.920   5.558   3.590 -1.9387 -0.4105 -1.5988
  128MOL0     H16848   2.949   5.416   3.694 -1.9109 -4.4401 -0.4366
  128MOL0     H16849   2.776   5.224   3.714  0.7197 -0.4569 -0.5113
  128MOL0     H16850   2.458   5.211   3.808 -1.7966  1.9223 -0.5633
  128MOL0     H16851   2.573   5.110   3.731  0.5737 -0.2035 -0.7314
  128MOL0     H16852   2.351   5.021   3.642  0.8014 -0.7208  0.7753
  128MOL0     H16853   2.436   5.098   3.516 -0.7864 -2.2498  0.7174
  128MOL0     H16854   2.319   5.323   3.587 -0.3436  0.3501 -4.9111
  128MOL0     H16855   2.227   5.195   3.501 -0.4935 -0.3966  0.1018
  128MOL0     H16856   2.119   5.284   3.727 -0.4972 -0.9163  2.3502
  128MOL0     H16857   2.242   5.214   3.810 -0.0347  0.1630  0.7496
  128MOL0     H16858   1.981   4.866   3.712 -2.8470 -1.8465  0.5493
  128MOL0     H16859   1.779   4.831   3.589 -0.2158  0.5503 -0.1059
  128MOL0     H16860   1.613   4.802   3.200 -0.0707 -2.5982  1.9188
  128MOL0     H16861   1.454   4.818   3.033 -1.1392  0.3047 -0.5701
  128MOL0     H16862   1.285   4.821   2.893  1.4266  0.5530  2.9476
  128MOL0     H16863   1.316   4.980   2.912  1.1027 -1.9973 -1.2115
  128MOL0     H16864   1.145   4.993   2.754 -1.2085 -2.8787 -1.1996
  128MOL0     H16865   1.050   5.037   2.895  0.5872 -0.7306  3.5530
  128MOL0     H16866   1.078   4.748   2.783 -0.8785  0.4829 -4.6416
  128MOL0     H16867   0.964   4.862   2.725  2.1489 -0.4710 -0.5116
  128MOL0     H16868   0.968   4.734   3.016 -1.2278 -2.5823  0.0103
  128MOL0     H16869   0.870   4.878   2.957 -1.4040 -0.9434 -0.7138
  128MOL0     H16870   0.871   4.584   2.874 -2.0010 -0.3347 -0.9691
  128MOL0     H16871   0.803   4.705   2.779  6.7719 -0.0135 -2.2124
  128MOL0     H16872   0.648   4.764   2.937 -0.9053 -0.4263  0.8165
  128MOL0     H16873   0.712   4.659   3.064  2.4191 -0.7303 -1.2978
  128MOL0     H16874   0.512   4.573   2.935  0.6216  0.5109  0.3541
  128MOL0     H16875   0.614   4.548   2.795 -3.4427  0.4316  0.0868
  128MOL0     H16876   0.602   4.437   3.059 -2.2736  2.2456 -1.1307
  128MOL0     H16877   0.759   4.423   2.965  0.5213  2.2313 -2.7385
  128MOL0     H16878   1.146   4.917   3.313  0.8815  3.2745  0.6322
  128MOL0     H16879   1.330   4.955   3.474 -0.0043  0.5045 -0.9739
  128MOL0     H16880   1.745   5.259   3.525  0.2817 -0.1737  0.3551
  128MOL0     H16881   1.945   5.294   3.631  1.5642  0.0797  2.6600
  128MOL0     H16882   3.774   5.663   3.901 -1.0604 -1.4639 -0.6291
  128MOL0     H16883   4.012   5.702   3.987  3.0413 -0.6704 -1.9238
  128MOL0     H16884   4.529   5.327   4.089  0.6086 -1.0251  4.2541
  128MOL0     H16885   4.726   5.408   4.194 -0.1040  0.0214 -0.1071
  128MOL0     H16886   4.652   5.720   4.479  0.3553 -1.0835  3.0077
  128MOL0     H16887   4.824   5.742   4.479  1.4288 -2.9138  0.7894
  128MOL0     H16888   4.746   5.557   4.614 -1.9980 -1.2970 -0.9786
  128MOL0     H16889   4.710   5.470   4.466  0.6936  0.2624  0.8024
  128MOL0     H16890   4.983   5.566   4.543 -0.1251 -0.5608 -1.3183
  128MOL0     H16891   4.941   5.455   4.415 -4.4507 -0.1476 -1.2664
  128MOL0     H16892   4.922   5.445   4.715 -1.4413 -0.3894  0.8222
  128MOL0     H16893   4.834   5.322   4.620  0.2857 -0.1423  1.0598
  128MOL0     H16894   5.206   5.154   4.684  1.2390  0.4985 -0.7011
  128MOL0     H16895   4.546   5.798   4.238 -2.1908  0.3972 -1.5408
  128MOL0     H16896   4.338   5.711   4.116 -2.3692 -1.2479  0.9682
  129MOL0     O16897  10.248   8.010   1.462  0.5455 -0.4608  0.2828
  129MOL0     C16898  10.184   8.018   1.567  0.4328  0.3077  0.3356
  129MOL0     O16899  10.218   8.094   1.676 -0.4657 -1.0795 -0.4193
  129MOL0     C16900  10.324   8.180   1.685 -0.1740  0.4008 -0.3067
  129MOL0     C16901  10.417   8.217   1.583 -0.7126  0.8118 -0.5537
  129MOL0     C16902  10.514   8.307   1.612 -0.4737 -0.1094 -0.1457
  129MOL0     C16903  10.548   8.338   1.748  0.2778  1.0486 -0.2742
  129MOL0     O16904  10.661   8.412   1.790  0.5185  0.0413 -0.6874
  129MOL0     C16905  10.724   8.492   1.689 -0.2352 -0.4000 -0.9908
  129MOL0     C16906  10.826   8.419   1.618 -0.8442  0.7832  0.5825
  129MOL0     C16907  10.913   8.518   1.531 -0.3005 -0.9974  0.1042
  129MOL0     C16908  11.029   8.448   1.470 -0.7796 -0.1779  0.0829
  129MOL0     C16909  11.119   8.533   1.378  0.1311  0.1598  0.2294
  129MOL0     C16910  11.159   8.675   1.443  0.0422 -1.2212  0.5032
  129MOL0     C16911  11.252   8.678   1.565  0.3437 -0.2802  0.0031
  129MOL0     C16912  11.311   8.801   1.608 -0.4672  0.7076  0.0301
  129MOL0     N16913  11.399   8.869   1.507  0.0859 -0.0787 -0.2649
  129MOL0     C16914  11.468   8.807   1.403  0.4258 -0.4803 -0.1542
  129MOL0     C16915  11.569   8.897   1.388 -0.1350 -0.7297  1.1061
  129MOL0     C16916  11.681   8.905   1.286  0.1658  0.4065  0.0601
  129MOL0     C16917  11.821   8.913   1.346 -0.5136  0.1782 -1.2017
  129MOL0     C16918  11.927   8.934   1.244  0.6151 -0.1247  0.2016
  129MOL0     C16919  12.059   8.897   1.310  0.0485  0.8133  0.4879
  129MOL0     O16920  12.157   8.904   1.202  0.8451 -0.5572 -0.4200
  129MOL0     C16921  12.279   8.951   1.220  0.8961 -0.3030 -0.0724
  129MOL0     C16922  12.337   8.986   1.340  0.1906 -0.6045 -0.0105
  129MOL0     C16923  12.470   9.020   1.345  0.2350  0.0270  0.1739
  129MOL0     C16924  12.550   9.006   1.229 -0.0477 -1.0711 -0.2611
  129MOL0     C16925  12.694   9.036   1.223  0.6936 -0.0353 -0.0029
  129MOL0     O16926  12.724   9.123   1.121 -0.3304  0.2536 -0.3001
  129MOL0     C16927  12.856   9.169   1.081  0.8020 -0.5736  0.9531
  129MOL0     C16928  12.975   9.117   1.123 -1.1576 -0.4888  0.6097
  129MOL0     C16929  13.098   9.161   1.077  0.8201  0.2267  0.1877
  129MOL0     C16930  13.107   9.263   0.982  0.0784 -0.1046  0.5903
  129MOL0     O16931  13.236   9.312   0.959 -0.5522  0.3024  0.5482
  129MOL0     C16932  13.256   9.454   0.929  0.1633  0.0000  0.2548
  129MOL0     C16933  13.250   9.531   1.064  0.0243 -0.8382  0.1416
  129MOL0     C16934  13.188   9.677   1.065 -1.0016 -0.3142 -0.3389
  129MOL0     C16935  13.284   9.793   1.030 -0.4293  0.2862  0.4923
  129MOL0     C16936  13.219   9.929   1.037  0.5154  0.1047  0.1329
  129MOL0     C16937  13.288  10.041   0.955 -0.2188  0.6381  0.1181
  129MOL0     C16938  13.223  10.174   0.967 -0.4634 -0.1751  0.6839
  129MOL0     C16939  13.231  10.233   1.103 -0.5784 -0.3992 -0.3487
  129MOL0    Cl16940  13.384  10.336   1.111  0.4749 -0.3451  0.3991
  129MOL0     C16941  12.984   9.319   0.935 -0.3235  1.2766 -0.6351
  129MOL0     C16942  12.856   9.278   0.989 -0.5263 -0.5606  0.4019
  129MOL0     O16943  12.778   8.993   1.307  0.3259 -0.3727 -0.6820
  129MOL0     C16944  12.489   8.981   1.103 -0.8535  0.6999 -0.4376
  129MOL0     C16945  12.356   8.949   1.103  0.9037 -0.3173  0.2157
  129MOL0     N16946  11.556   9.003   1.472  0.6376 -0.5209 -0.6569
  129MOL0     N16947  11.454   8.986   1.544  0.1792 -0.2024 -0.8472
  129MOL0     C16948  10.455   8.297   1.844  0.5926  0.1226 -0.6473
  129MOL0     C16949  10.347   8.219   1.817  0.4168 -0.1948  0.1418
  129MOL0     C16950  10.092   7.908   1.579 -0.3292 -0.4179  0.3444
  129MOL0     C16951  10.098   7.800   1.492  0.5846  0.5141 -0.8470
  129MOL0     C16952  10.013   7.688   1.505  0.2882 -0.2563  0.0116
  129MOL0     C16953   9.913   7.697   1.604 -0.4853  0.5087  0.5037
  129MOL0     O16954   9.802   7.617   1.603 -0.3797  0.4808 -0.0644
  129MOL0     C16955   9.702   7.651   1.507  0.7394 -0.5015 -0.5037
  129MOL0     C16956   9.623   7.532   1.459  0.3259  0.1860 -0.3509
  129MOL0     C16957   9.520   7.503   1.566  0.1784  0.1717  0.3830
  129MOL0     C16958   9.432   7.381   1.533  0.3104 -0.0888 -0.1009
  129MOL0     C16959   9.334   7.353   1.645 -0.5622 -1.1250  0.3252
  129MOL0     C16960   9.246   7.327   1.721  0.2789 -0.6454 -0.7820
  129MOL0     C16961   9.902   7.806   1.686  0.2587  0.0973 -0.4649
  129MOL0     C16962   9.991   7.908   1.679 -0.1202 -0.6212  0.4879
  129MOL0     H16963  10.397   8.196   1.478 -2.2772 -0.9923  0.0357
  129MOL0     H16964  10.572   8.335   1.524  0.9873 -0.3646  0.7112
  129MOL0     H16965  10.782   8.573   1.736 -0.0667 -0.8065 -0.4874
  129MOL0     H16966  10.642   8.536   1.631  0.0567  0.4393 -0.7919
  129MOL0     H16967  10.783   8.347   1.547 -0.1483  0.4984  0.4339
  129MOL0     H16968  10.894   8.360   1.681 -0.5905  1.1928  0.6941
  129MOL0     H16969  10.956   8.597   1.593  0.4846 -1.5946  0.3472
  129MOL0     H16970  10.864   8.557   1.442  2.4334 -0.0203 -1.0970
  129MOL0     H16971  11.092   8.392   1.541 -0.5458 -2.1266 -1.5729
  129MOL0     H16972  10.994   8.373   1.399  0.7207  1.2699 -2.3465
  129MOL0     H16973  11.068   8.559   1.284 -1.5193 -0.5457  0.8906
  129MOL0     H16974  11.207   8.472   1.359 -1.9970 -2.6646 -1.3711
  129MOL0     H16975  11.071   8.739   1.455  0.5497  0.3238 -2.8220
  129MOL0     H16976  11.204   8.724   1.357 -1.9838 -1.6454 -0.8907
  129MOL0     H16977  11.184   8.644   1.644 -0.4036  0.7223 -0.1900
  129MOL0     H16978  11.329   8.602   1.548 -0.6753 -0.8944 -2.3063
  129MOL0     H16979  11.353   8.788   1.708  1.2164  0.1766 -0.7106
  129MOL0     H16980  11.243   8.886   1.619  0.4043  1.3735  0.4587
  129MOL0     H16981  11.441   8.714   1.355  1.5349 -0.2703 -1.2218
  129MOL0     H16982  11.673   8.993   1.222 -2.1131  0.7855  0.7783
  129MOL0     H16983  11.663   8.824   1.214 -0.6905  1.7969 -1.3332
  129MOL0     H16984  11.838   8.817   1.395  1.0910  1.7896  1.7465
  129MOL0     H16985  11.836   8.981   1.431 -1.1215 -1.4966  0.3032
  129MOL0     H16986  11.901   8.873   1.157 -3.4330 -0.6431  1.5468
  129MOL0     H16987  11.927   9.036   1.204  0.0828 -0.7175 -1.4068
  129MOL0     H16988  12.047   8.792   1.337 -1.4437  0.3456 -1.7746
  129MOL0     H16989  12.081   8.967   1.391  1.1623 -0.6789  1.5349
  129MOL0     H16990  12.284   8.989   1.435 -1.7640  1.3287 -1.0746
  129MOL0     H16991  12.505   9.055   1.441  3.3422 -2.1648 -0.0335
  129MOL0     H16992  12.983   9.038   1.198  1.4700 -2.1873 -1.2616
  129MOL0     H16993  13.194   9.118   1.104  0.5973  0.2047  0.9478
  129MOL0     H16994  13.177   9.498   0.868  0.3527  1.0375  0.7529
  129MOL0     H16995  13.353   9.466   0.880 -0.4703  0.8111 -0.8390
  129MOL0     H16996  13.348   9.537   1.110  1.7476 -3.0109 -2.8488
  129MOL0     H16997  13.174   9.476   1.120 -1.5506 -0.7939 -1.7997
  129MOL0     H16998  13.160   9.696   1.169 -2.2131  2.2722 -1.0685
  129MOL0     H16999  13.096   9.678   1.006  0.4720  0.1667 -2.7787
  129MOL0     H17000  13.376   9.782   1.087 -0.7148 -1.7769  0.6554
  129MOL0     H17001  13.304   9.775   0.924 -0.2204  0.2595  0.5376
  129MOL0     H17002  13.223   9.953   1.144 -1.6968 -1.8378  0.7113
  129MOL0     H17003  13.114   9.930   1.007  0.3544  2.5345  0.5947
  129MOL0     H17004  13.271  10.014   0.850 -0.3785 -2.0862  0.7682
  129MOL0     H17005  13.396  10.047   0.970 -0.4027  0.9746  1.4513
  129MOL0     H17006  13.267  10.248   0.899 -1.3058  1.5634  1.9712
  129MOL0     H17007  13.116  10.173   0.943 -0.2472  1.0427 -0.4633
  129MOL0     H17008  13.225  10.151   1.175  1.1402 -1.6373 -1.5440
  129MOL0     H17009  13.141  10.293   1.125 -1.5745 -1.6404 -0.9019
  129MOL0     H17010  12.990   9.408   0.872  1.3926 -0.4485 -3.1397
  129MOL0     H17011  12.765   9.334   0.971  0.0535 -0.1028 -1.3022
  129MOL0     H17012  12.551   8.979   1.013 -1.4093  0.6845 -0.8222
  129MOL0     H17013  12.309   8.921   1.009  2.1090 -2.0241  0.0548
  129MOL0     H17014  10.468   8.324   1.948 -0.2419 -1.0494 -0.2138
  129MOL0     H17015  10.271   8.205   1.893 -0.5928  2.0004 -0.3834
  129MOL0     H17016  10.180   7.796   1.421 -0.2247  0.8782 -1.8238
  129MOL0     H17017  10.019   7.607   1.432 -1.7477  0.7690 -1.4224
  129MOL0     H17018   9.747   7.697   1.418 -0.0001 -0.6591 -0.9743
  129MOL0     H17019   9.639   7.730   1.550 -2.2353 -1.8164 -2.1134
  129MOL0     H17020   9.571   7.561   1.368  1.5586  1.2082 -0.7519
  129MOL0     H17021   9.694   7.450   1.442 -1.3724 -1.8262  1.6278
  129MOL0     H17022   9.450   7.586   1.579  1.3030  1.3322 -0.7586
  129MOL0     H17023   9.569   7.481   1.662  1.0277 -1.0478 -0.3040
  129MOL0     H17024   9.375   7.395   1.441 -2.1294 -0.5999  1.2640
  129MOL0     H17025   9.496   7.294   1.516  2.5797  1.3671  0.5506
  129MOL0     H17026   9.158   7.318   1.782  0.4408  0.6323 -0.3153
  129MOL0     H17027   9.831   7.806   1.767  1.2335  0.0227  0.4061
  129MOL0     H17028   9.995   7.980   1.760 -3.6854 -2.0077  2.1378
  130MOL0     O17029   4.457   2.764   9.580 -0.7193 -0.1118  0.5926
  130MOL0     C17030   4.525   2.733   9.480  0.6042 -0.3827 -0.4908
  130MOL0     O17031   4.507   2.647   9.383 -0.2432  0.1016  0.4113
  130MOL0     C17032   4.390   2.574   9.383 -0.4886 -0.8240 -0.7721
  130MOL0     C17033   4.309   2.589   9.274  0.4403  0.1637  0.4391
  130MOL0     C17034   4.198   2.500   9.256 -1.5534 -1.0153  0.1151
  130MOL0     C17035   4.176   2.402   9.349  0.2946  0.8261 -0.0297
  130MOL0     O17036   4.071   2.306   9.319 -0.6367 -0.3862  0.6176
  130MOL0     C17037   3.990   2.270   9.429 -0.1986 -0.0272  0.6546
  130MOL0     C17038   3.865   2.213   9.369  0.2677 -0.9863  0.0411
  130MOL0     C17039   3.778   2.136   9.466 -0.3368 -0.7418 -0.3534
  130MOL0     C17040   3.668   2.042   9.404  0.7446 -0.6313 -0.1704
  130MOL0     C17041   3.563   1.982   9.502 -0.0101  0.2497 -0.1612
  130MOL0     C17042   3.619   1.903   9.615  0.4997  0.2503 -0.3060
  130MOL0     C17043   3.505   1.824   9.690 -1.0882 -0.5399  0.3116
  130MOL0     C17044   3.565   1.742   9.805  0.4887 -0.2997 -0.1362
  130MOL0     N17045   3.474   1.639   9.847 -0.6963 -0.1455  0.1195
  130MOL0     C17046   3.353   1.658   9.911  0.1314  0.6241  0.2302
  130MOL0     C17047   3.289   1.537   9.903 -0.8197  0.2123 -0.0383
  130MOL0     C17048   3.152   1.508   9.980 -0.2114 -0.2045 -0.1150
  130MOL0     C17049   3.029   1.484   9.900  0.3721 -0.1189 -0.3963
  130MOL0     C17050   2.902   1.425   9.973 -0.2275 -0.0717  0.4131
  130MOL0     C17051   2.783   1.412   9.892  0.1832  0.4239 -0.2007
  130MOL0     O17052   2.663   1.399   9.978 -0.0567  0.2607  0.5258
  130MOL0     C17053   2.541   1.395   9.920 -0.1588 -0.0585 -0.0789
  130MOL0     C17054   2.519   1.386   9.787 -0.2880  0.0233  0.3000
  130MOL0     C17055   2.388   1.367   9.749 -0.2095  0.2647  0.0337
  130MOL0     C17056   2.278   1.369   9.832  0.2755  0.4644 -0.6565
  130MOL0     C17057   2.138   1.373   9.787  0.6809  1.2821  0.9217
  130MOL0     O17058   2.122   1.377   9.651  0.4482  0.3491  0.3831
  130MOL0     C17059   1.996   1.397   9.601 -0.3545 -1.5660 -0.1098
  130MOL0     C17060   1.880   1.333   9.634 -0.1749  0.4046 -0.6499
  130MOL0     C17061   1.760   1.367   9.569  0.0448 -0.5198 -0.0592
  130MOL0     C17062   1.753   1.469   9.470 -0.1161  0.5741 -0.8563
  130MOL0     O17063   1.624   1.487   9.423 -0.3292  0.4588 -0.5876
  130MOL0     C17064   1.608   1.552   9.295 -0.6471 -0.1142 -0.4328
  130MOL0     C17065   1.568   1.693   9.309  0.7748 -0.9489 -0.1764
  130MOL0     C17066   1.448   1.709   9.401 -1.3044 -0.8873  0.5189
  130MOL0     C17067   1.383   1.841   9.388 -0.1329 -0.0761 -0.3890
  130MOL0     C17068   1.253   1.846   9.468  0.1224 -0.8500 -0.0916
  130MOL0     C17069   1.131   1.757   9.407 -0.4088 -0.6249  0.2061
  130MOL0     C17070   1.068   1.838   9.287 -0.4601 -0.6061 -0.4702
  130MOL0     C17071   0.945   1.761   9.240  0.4388  0.5760 -0.4121
  130MOL0    Cl17072   0.814   1.777   9.358 -0.0958 -0.1918  0.2838
  130MOL0     C17073   1.878   1.534   9.435  0.3348 -0.2981 -0.7872
  130MOL0     C17074   1.993   1.496   9.509  0.1855 -1.1446  0.5399
  130MOL0     O17075   2.045   1.362   9.868  0.4963  0.6085 -0.0288
  130MOL0     C17076   2.303   1.390   9.967  0.1700 -0.4566  0.2179
  130MOL0     C17077   2.434   1.411  10.007  0.7720  0.0663  0.0568
  130MOL0     N17078   3.368   1.454   9.831  0.7138  0.3652 -0.9820
  130MOL0     N17079   3.476   1.509   9.795 -0.1824 -0.6033 -0.4581
  130MOL0     C17080   4.265   2.394   9.456 -0.6770  0.5006 -0.3654
  130MOL0     C17081   4.373   2.475   9.476 -0.2453 -0.2963  0.2996
  130MOL0     C17082   4.662   2.802   9.468  0.2603 -1.0602 -0.8553
  130MOL0     C17083   4.693   2.921   9.540 -0.2889  0.0114 -0.6715
  130MOL0     C17084   4.820   2.979   9.548 -0.1660  0.0754 -0.5712
  130MOL0     C17085   4.925   2.913   9.478 -0.1025  1.2764  0.0119
  130MOL0     O17086   5.056   2.958   9.477 -0.2412 -0.7078 -0.0845
  130MOL0     C17087   5.170   2.909   9.405  0.4550 -0.2606  0.5651
  130MOL0     C17088   5.166   2.950   9.255  0.0394 -0.1533  0.0187
  130MOL0     C17089   5.128   3.100   9.222  0.1897 -0.1105  0.7121
  130MOL0     C17090   5.225   3.222   9.262 -0.3435 -0.8036  1.5269
  130MOL0     C17091   5.367   3.213   9.204  0.7468  0.2210  0.8536
  130MOL0     C17092   5.470   3.191   9.150 -0.8877  0.6186  0.7812
  130MOL0     C17093   4.890   2.794   9.406 -0.5059  0.4310  0.6646
  130MOL0     C17094   4.765   2.753   9.397  0.6665  0.1142  0.2800
  130MOL0     H17095   4.336   2.668   9.205 -1.4692 -1.6175 -2.6314
  130MOL0     H17096   4.116   2.497   9.184 -1.5498  0.1447  0.0448
  130MOL0     H17097   3.971   2.354   9.496 -0.3818 -1.9175  3.1096
  130MOL0     H17098   4.035   2.189   9.488  0.5716  1.5841  2.3585
  130MOL0     H17099   3.900   2.143   9.293  2.7330 -1.0301  1.1552
  130MOL0     H17100   3.812   2.295   9.317 -1.7230 -1.8968  0.5252
  130MOL0     H17101   3.725   2.217   9.518 -5.2104 -2.9549 -1.2593
  130MOL0     H17102   3.847   2.085   9.534 -0.2764 -0.6625 -0.3555
  130MOL0     H17103   3.607   2.094   9.330 -1.0669 -1.7588  0.4562
  130MOL0     H17104   3.726   1.969   9.346 -0.8265  0.2904 -3.1399
  130MOL0     H17105   3.496   1.926   9.436 -0.0233 -0.7359  0.6636
  130MOL0     H17106   3.503   2.058   9.552  0.6377 -0.0503  1.1292
  130MOL0     H17107   3.672   1.973   9.679  1.9689 -2.2069  1.3479
  130MOL0     H17108   3.689   1.828   9.575  1.4832  0.9570  0.0552
  130MOL0     H17109   3.429   1.894   9.726  0.4967  1.7316 -0.4635
  130MOL0     H17110   3.452   1.765   9.615 -0.3548 -0.2892 -0.4190
  130MOL0     H17111   3.583   1.810   9.889  0.7138  1.1776 -1.3403
  130MOL0     H17112   3.664   1.702   9.780 -0.0540 -0.9738 -1.2770
  130MOL0     H17113   3.303   1.746   9.950 -1.4590  0.0819 -0.5003
  130MOL0     H17114   3.132   1.587  10.053  1.4208  0.1868 -0.0623
  130MOL0     H17115   3.178   1.411  10.023  1.2232  0.3271  0.2670
  130MOL0     H17116   3.051   1.413   9.819 -1.5166 -0.9489 -0.2415
  130MOL0     H17117   3.007   1.582   9.857  1.6850  1.9600  3.2522
  130MOL0     H17118   2.933   1.334  10.026 -0.8597 -1.1349 -0.9805
  130MOL0     H17119   2.879   1.491  10.057  3.5235  1.6585  0.2920
  130MOL0     H17120   2.796   1.327   9.824 -1.7098 -0.5147  0.5529
  130MOL0     H17121   2.775   1.504   9.832 -2.2464  1.2045  1.1412
  130MOL0     H17122   2.597   1.390   9.711 -0.6085 -0.2386 -0.0482
  130MOL0     H17123   2.386   1.346   9.643  3.6967 -0.9881  0.0455
  130MOL0     H17124   1.895   1.242   9.690 -3.8055  1.6082  2.7329
  130MOL0     H17125   1.664   1.323   9.596 -0.6250  1.7320  1.5254
  130MOL0     H17126   1.520   1.501   9.255 -0.8825 -0.7592  0.8455
  130MOL0     H17127   1.698   1.543   9.233 -0.5224 -2.2167 -0.0285
  130MOL0     H17128   1.551   1.732   9.208  0.2605  2.3073  1.0751
  130MOL0     H17129   1.652   1.747   9.353  0.4411 -0.7849  0.2567
  130MOL0     H17130   1.488   1.702   9.502 -2.0927  3.0267  1.2726
  130MOL0     H17131   1.376   1.626   9.393  1.0097 -2.9529 -0.1231
  130MOL0     H17132   1.435   1.929   9.428 -1.8414  0.1573  1.4421
  130MOL0     H17133   1.375   1.863   9.282 -0.9154 -0.8035 -0.4970
  130MOL0     H17134   1.213   1.946   9.489 -1.0561 -0.7842 -2.3582
  130MOL0     H17135   1.278   1.814   9.570 -2.4432 -3.5232 -0.1396
  130MOL0     H17136   1.050   1.752   9.481 -4.3172 -2.0455 -3.7557
  130MOL0     H17137   1.164   1.654   9.386 -0.6286 -0.7745  0.5772
  130MOL0     H17138   1.057   1.945   9.305 -3.1108 -0.8033 -0.5440
  130MOL0     H17139   1.137   1.842   9.202  1.6966  1.0395  1.2460
  130MOL0     H17140   0.961   1.655   9.219  1.1451  0.4637  0.5960
  130MOL0     H17141   0.911   1.815   9.151  1.1337  1.1038 -0.3697
  130MOL0     H17142   1.875   1.603   9.351 -2.4522  1.2837  0.4885
  130MOL0     H17143   2.082   1.554   9.483 -0.4621 -0.1120  0.5642
  130MOL0     H17144   2.214   1.385  10.028  0.0229  2.2136  0.3034
  130MOL0     H17145   2.458   1.458  10.102  0.5597  2.4001 -0.9637
  130MOL0     H17146   4.251   2.312   9.526  0.4812  1.1873  0.7179
  130MOL0     H17147   4.444   2.469   9.558 -2.0878  2.0823  2.2359
  130MOL0     H17148   4.615   2.984   9.579  1.8216  0.6200  3.0146
  130MOL0     H17149   4.844   3.076   9.590  4.6655 -1.1932  0.1248
  130MOL0     H17150   5.187   2.801   9.412  1.5329 -0.3926 -2.5430
  130MOL0     H17151   5.259   2.960   9.443  1.6472 -0.8901 -1.2251
  130MOL0     H17152   5.259   2.910   9.213 -1.8370 -2.9318 -1.8171
  130MOL0     H17153   5.085   2.894   9.207 -0.4480  0.9130 -0.4317
  130MOL0     H17154   5.037   3.137   9.269  0.7162  4.2226 -1.2130
  130MOL0     H17155   5.108   3.093   9.114  0.2610 -0.1705  0.7031
  130MOL0     H17156   5.185   3.316   9.221  2.0814 -0.9195 -1.4490
  130MOL0     H17157   5.238   3.243   9.369 -0.7365  0.6876  1.3154
  130MOL0     H17158   5.563   3.160   9.106 -0.9097  1.7157 -0.0944
  130MOL0     H17159   4.968   2.745   9.348 -0.5315 -1.4443  2.1286
  130MOL0     H17160   4.751   2.668   9.330  1.4458 -0.8227  1.2634
  131MOL0     O17161   9.626   3.032   4.014  0.2874  0.3281  0.4075
  131MOL0     C17162   9.517   2.989   4.051 -0.7822 -0.7929 -0.5713
  131MOL0     O17163   9.406   3.063   4.073  0.4363  0.6168  0.5699
  131MOL0     C17164   9.388   3.202   4.072  0.1338  0.0027  0.3873
  131MOL0     C17165   9.498   3.287   4.096 -1.1281  0.4485 -0.0579
  131MOL0     C17166   9.487   3.422   4.105  0.0308 -0.6269 -0.4810
  131MOL0     C17167   9.361   3.479   4.096  0.1500  0.0504  0.1118
  131MOL0     O17168   9.366   3.610   4.070 -0.6249  0.1445  0.1125
  131MOL0     C17169   9.250   3.696   4.049  0.3947  0.2627 -0.2551
  131MOL0     C17170   9.157   3.690   4.173  0.2125 -0.3568  0.7167
  131MOL0     C17171   9.024   3.769   4.157 -0.4259  1.4412  0.0651
  131MOL0     C17172   9.040   3.887   4.074  0.3876  0.4591  0.0931
  131MOL0     C17173   8.904   3.955   4.077  0.2259  0.6407 -0.3976
  131MOL0     C17174   8.822   3.908   3.953 -0.1270 -0.0995 -0.7471
  131MOL0     C17175   8.690   3.965   3.969  0.2026 -1.2185 -0.1440
  131MOL0     C17176   8.588   3.907   3.867  0.3373  0.5568  0.4651
  131MOL0     N17177   8.451   3.954   3.897 -0.7763  0.3910  0.5485
  131MOL0     C17178   8.379   4.037   3.818  0.6488  0.0136  0.3514
  131MOL0     C17179   8.266   4.058   3.890 -1.1231 -0.6253 -0.7231
  131MOL0     C17180   8.159   4.154   3.850 -0.0881  0.2727 -0.0478
  131MOL0     C17181   8.223   4.288   3.852 -0.0711  0.1322 -0.0413
  131MOL0     C17182   8.142   4.379   3.759 -0.5454 -1.1723 -0.4778
  131MOL0     C17183   8.185   4.360   3.616  0.4386  0.3997 -0.0325
  131MOL0     O17184   8.229   4.495   3.564 -0.2139  0.3138  0.0021
  131MOL0     C17185   8.346   4.507   3.494  0.7505 -0.7647 -0.4454
  131MOL0     C17186   8.432   4.615   3.502  0.5891 -0.6654  0.6885
  131MOL0     C17187   8.558   4.605   3.441  0.7124 -0.1274 -0.4654
  131MOL0     C17188   8.602   4.497   3.373  0.3242  0.4660  0.0905
  131MOL0     C17189   8.743   4.488   3.318  0.5177 -0.6716  0.1995
  131MOL0     O17190   8.824   4.588   3.342  0.0781  0.0593  0.1232
  131MOL0     C17191   8.948   4.601   3.290  0.3196 -0.2067  0.0170
  131MOL0     C17192   8.986   4.661   3.172  0.2943  0.3641  0.1624
  131MOL0     C17193   9.115   4.654   3.129 -0.3951  0.1030  0.1175
  131MOL0     C17194   9.214   4.581   3.199 -0.4493  0.7475 -0.5592
  131MOL0     O17195   9.338   4.570   3.153  0.1216  0.6995 -0.8505
  131MOL0     C17196   9.384   4.625   3.026  0.3393 -0.9149 -0.0199
  131MOL0     C17197   9.530   4.620   3.010 -0.0960 -0.2884 -0.1853
  131MOL0     C17198   9.577   4.674   2.865  0.1962 -1.1684  0.7452
  131MOL0     C17199   9.726   4.677   2.872 -0.2891  0.7654  0.2132
  131MOL0     C17200   9.801   4.692   2.744 -0.1732 -1.2825  0.5351
  131MOL0     C17201   9.957   4.689   2.762  0.5025 -0.2000  0.5910
  131MOL0     C17202  10.015   4.837   2.782 -1.3580  0.2647 -0.7884
  131MOL0     C17203  10.168   4.837   2.817  0.6558 -0.5524  0.5297
  131MOL0    Cl17204  10.197   4.801   2.985  0.5054  0.4000 -0.0949
  131MOL0     C17205   9.177   4.515   3.310  0.2388 -0.6895  0.7271
  131MOL0     C17206   9.052   4.525   3.360 -0.2706 -0.1553 -0.0954
  131MOL0     O17207   8.772   4.392   3.255 -0.1600  0.7301  0.1936
  131MOL0     C17208   8.506   4.398   3.350  0.1587  0.6414 -0.7822
  131MOL0     C17209   8.386   4.403   3.409  1.1329  0.9476 -0.0821
  131MOL0     N17210   8.274   3.974   3.995 -0.6944  0.3067 -0.8899
  131MOL0     N17211   8.379   3.905   3.997  1.0042  1.0129  0.0728
  131MOL0     C17212   9.248   3.395   4.077 -0.9151 -0.4488 -0.2669
  131MOL0     C17213   9.262   3.257   4.071 -0.2275  0.1745  0.1652
  131MOL0     C17214   9.513   2.842   4.070  0.2310 -0.7090  0.2357
  131MOL0     C17215   9.420   2.785   4.160  0.3165 -0.5234 -0.0931
  131MOL0     C17216   9.430   2.643   4.191 -0.5385  0.1282  1.2579
  131MOL0     C17217   9.523   2.557   4.128 -0.4185  0.0812 -0.6346
  131MOL0     O17218   9.526   2.426   4.168 -0.0836 -0.0956  1.0351
  131MOL0     C17219   9.438   2.338   4.093 -0.7661 -0.2901  0.1053
  131MOL0     C17220   9.508   2.283   3.980 -0.1700 -0.2057  0.4118
  131MOL0     C17221   9.431   2.170   3.922  0.0330  0.2413 -0.7445
  131MOL0     C17222   9.509   2.073   3.833 -1.1446 -0.0921 -0.6379
  131MOL0     C17223   9.606   1.990   3.915  0.1309 -0.4752 -0.2350
  131MOL0     C17224   9.685   1.931   3.977 -0.0764  0.7228 -0.1187
  131MOL0     C17225   9.612   2.618   4.032 -0.1630  0.1393  0.1209
  131MOL0     C17226   9.614   2.757   4.012 -0.0805  0.4061  0.6000
  131MOL0     H17227   9.594   3.238   4.107 -0.5463  1.4389 -0.5799
  131MOL0     H17228   9.566   3.494   4.128 -1.1179  0.2039  1.0892
  131MOL0     H17229   9.185   3.651   3.973  0.2153 -1.8032  1.0284
  131MOL0     H17230   9.274   3.799   4.023  2.7913 -0.5149 -1.3446
  131MOL0     H17231   9.204   3.733   4.261  3.3497 -0.4021 -0.8166
  131MOL0     H17232   9.121   3.588   4.190 -0.0630  0.1697  3.7915
  131MOL0     H17233   8.987   3.797   4.256 -2.1846 -0.7091  0.1142
  131MOL0     H17234   8.953   3.704   4.105 -0.0342  0.6398  0.5067
  131MOL0     H17235   9.120   3.934   4.132  0.4247 -2.7808  2.9739
  131MOL0     H17236   9.070   3.870   3.970  2.9564 -2.0616  1.1423
  131MOL0     H17237   8.926   4.062   4.077 -1.0834  0.9297 -0.8347
  131MOL0     H17238   8.852   3.936   4.172 -2.2714 -0.9861 -1.9704
  131MOL0     H17239   8.822   3.799   3.944  0.9944 -0.7374  4.1804
  131MOL0     H17240   8.870   3.956   3.867  1.8311  0.5708  0.6331
  131MOL0     H17241   8.634   3.947   4.061 -1.3275  0.9325 -0.5627
  131MOL0     H17242   8.704   4.074   3.961 -1.4767 -0.9268  0.5372
  131MOL0     H17243   8.595   3.798   3.863  1.1075  0.6002  0.5839
  131MOL0     H17244   8.616   3.932   3.765 -1.7706 -1.7596 -0.7968
  131MOL0     H17245   8.401   4.078   3.720 -0.1378 -0.9034 -0.2300
  131MOL0     H17246   8.076   4.154   3.921  0.6153  0.3048  0.7946
  131MOL0     H17247   8.123   4.121   3.752  0.8382  1.3665 -0.7878
  131MOL0     H17248   8.327   4.285   3.818  0.1116  0.3357  0.4979
  131MOL0     H17249   8.214   4.335   3.950  1.1000  0.8056 -0.2426
  131MOL0     H17250   8.034   4.372   3.772 -0.5139 -0.4183  0.3418
  131MOL0     H17251   8.156   4.484   3.790 -1.4601  0.2081 -4.2335
  131MOL0     H17252   8.092   4.330   3.566 -1.9774  1.3017  3.5078
  131MOL0     H17253   8.260   4.281   3.614 -0.9171 -1.0769  2.1865
  131MOL0     H17254   8.394   4.702   3.555 -2.3572 -2.0679  1.0853
  131MOL0     H17255   8.632   4.682   3.458 -0.0600  0.3560  0.8786
  131MOL0     H17256   8.907   4.703   3.110  0.8004  1.3746  0.1824
  131MOL0     H17257   9.139   4.709   3.039 -1.8408  2.8690  1.2966
  131MOL0     H17258   9.340   4.726   3.021 -1.7092 -1.7187  0.4899
  131MOL0     H17259   9.346   4.563   2.945  1.6161 -0.1567 -1.2317
  131MOL0     H17260   9.560   4.516   3.029 -0.8187 -0.5813 -0.5928
  131MOL0     H17261   9.570   4.681   3.091 -1.5339  0.6909 -0.1749
  131MOL0     H17262   9.532   4.772   2.847  0.4907 -1.5785 -3.0622
  131MOL0     H17263   9.544   4.598   2.793  1.1381 -0.9597  0.0709
  131MOL0     H17264   9.749   4.760   2.941  0.4242  0.8983 -0.1696
  131MOL0     H17265   9.761   4.581   2.912  1.0792  1.2989  0.3590
  131MOL0     H17266   9.760   4.782   2.698 -0.0454 -1.1699  0.6396
  131MOL0     H17267   9.771   4.609   2.680 -2.0682 -0.3437  0.1351
  131MOL0     H17268  10.014   4.631   2.689  0.8580 -0.9650  1.4542
  131MOL0     H17269   9.986   4.630   2.850  1.0431 -0.5914  0.1513
  131MOL0     H17270  10.006   4.896   2.690  0.2061  0.9613 -0.5214
  131MOL0     H17271   9.959   4.895   2.856  0.4311  0.1457  0.7360
  131MOL0     H17272  10.198   4.937   2.784 -4.8638  1.2425 -0.1279
  131MOL0     H17273  10.230   4.762   2.767 -0.9348 -2.9553  1.9266
  131MOL0     H17274   9.258   4.463   3.361 -0.8010 -3.8483 -0.5918
  131MOL0     H17275   9.035   4.479   3.456  3.1019  1.0677  1.2203
  131MOL0     H17276   8.535   4.310   3.293 -0.2832 -1.7033  2.3657
  131MOL0     H17277   8.309   4.329   3.390  2.3635 -0.9634  1.9035
  131MOL0     H17278   9.153   3.438   4.049  0.3275  1.3311 -1.9166
  131MOL0     H17279   9.179   3.192   4.045  2.4363 -2.9989 -1.1149
  131MOL0     H17280   9.336   2.838   4.203 -1.0914 -3.5192  1.1106
  131MOL0     H17281   9.366   2.596   4.265 -1.6158 -2.0740 -0.9490
  131MOL0     H17282   9.346   2.390   4.064 -0.2977  0.9249  0.7366
  131MOL0     H17283   9.408   2.253   4.156 -0.5589 -3.3845 -3.6070
  131MOL0     H17284   9.521   2.355   3.898  0.7642  0.2338  0.9390
  131MOL0     H17285   9.609   2.252   4.006  1.0280  2.7627 -0.2151
  131MOL0     H17286   9.343   2.207   3.869 -0.3461  0.4320  0.0001
  131MOL0     H17287   9.401   2.108   4.007  1.2538 -0.0371 -0.4898
  131MOL0     H17288   9.454   1.996   3.778 -0.2637  0.1533 -1.9118
  131MOL0     H17289   9.557   2.135   3.757 -1.6479  3.2947  1.5902
  131MOL0     H17290   9.768   1.891   4.031  1.3632  0.9926 -2.0188
  131MOL0     H17291   9.684   2.556   3.980 -0.7825  1.1727 -2.0921
  131MOL0     H17292   9.680   2.811   3.945 -3.1138  1.4455 -1.7891
  132MOL0     O17293   6.728   8.284  10.974  0.7106  0.5743  0.0785
  132MOL0     C17294   6.788   8.183  10.962 -0.7029  0.2329 -1.0779
  132MOL0     O17295   6.734   8.062  10.946  0.9132  0.1842  0.0835
  132MOL0     C17296   6.601   8.056  10.912  0.4020  0.5103 -0.4511
  132MOL0     C17297   6.524   8.145  10.832 -0.2672 -0.1315 -1.3155
  132MOL0     C17298   6.383   8.139  10.832  0.4064 -0.7586  0.3147
  132MOL0     C17299   6.313   8.055  10.912 -0.1117  0.5541 -0.5173
  132MOL0     O17300   6.175   8.057  10.912 -0.2999  0.2291 -0.2806
  132MOL0     C17301   6.107   8.174  10.860 -0.0002 -0.1089  0.0187
  132MOL0     C17302   5.950   8.150  10.903 -0.9909  0.2160 -0.2973
  132MOL0     C17303   5.897   8.287  10.948  0.1573  0.5320 -0.8554
  132MOL0     C17304   5.745   8.304  10.926 -0.0145 -0.0721  0.1912
  132MOL0     C17305   5.699   8.430  11.001  0.1254 -0.5136 -1.0235
  132MOL0     C17306   5.724   8.431  11.159 -0.6354 -0.5860 -0.3925
  132MOL0     C17307   5.675   8.565  11.219  0.1099 -0.3670 -0.1818
  132MOL0     C17308   5.711   8.574  11.370 -0.3487  0.0139 -0.3284
  132MOL0     N17309   5.608   8.510  11.452 -0.3629 -0.3237  0.4103
  132MOL0     C17310   5.519   8.579  11.531 -0.3055 -0.2032  0.2414
  132MOL0     C17311   5.423   8.487  11.561 -0.3685 -0.5216 -0.3310
  132MOL0     C17312   5.304   8.526  11.661  0.9525 -0.8471  0.0424
  132MOL0     C17313   5.172   8.474  11.604 -0.6844 -0.1351  1.4789
  132MOL0     C17314   5.107   8.560  11.492 -0.2404  0.6464 -0.5537
  132MOL0     C17315   5.052   8.696  11.546 -0.0647 -0.5798  0.3435
  132MOL0     O17316   4.960   8.754  11.454 -0.6476 -0.3176  0.1851
  132MOL0     C17317   4.837   8.695  11.454 -0.5775 -0.4543  0.3961
  132MOL0     C17318   4.768   8.733  11.342  0.3125  0.3883  0.1533
  132MOL0     C17319   4.645   8.682  11.300  0.7434 -0.2261 -0.8298
  132MOL0     C17320   4.588   8.583  11.375  0.0424  0.0339  0.4784
  132MOL0     C17321   4.462   8.514  11.343  0.4189 -0.4484  0.5361
  132MOL0     O17322   4.401   8.570  11.232  0.1164 -0.3172  0.0031
  132MOL0     C17323   4.298   8.494  11.187 -0.3176  0.1472 -0.3451
  132MOL0     C17324   4.330   8.362  11.133  0.2971  0.1883 -0.0382
  132MOL0     C17325   4.227   8.272  11.102  0.5028  0.3552  0.3355
  132MOL0     C17326   4.095   8.308  11.131  0.7186 -0.0075  0.1113
  132MOL0     O17327   4.003   8.212  11.100  0.2737  0.2439 -0.6594
  132MOL0     C17328   3.873   8.181  11.155 -0.1541 -0.3414  0.1850
  132MOL0     C17329   3.881   8.109  11.299  0.5042  0.9022  0.0049
  132MOL0     C17330   3.973   7.991  11.288  1.1833 -0.0884 -0.4170
  132MOL0     C17331   3.993   7.911  11.422  0.1168 -0.3368  0.4535
  132MOL0     C17332   4.081   7.786  11.399  1.5353  0.1484 -0.8923
  132MOL0     C17333   4.121   7.719  11.530 -0.5628 -1.0528 -0.2160
  132MOL0     C17334   4.159   7.565  11.512 -0.0631 -0.6058 -0.2420
  132MOL0     C17335   4.219   7.516  11.644 -0.3446  0.0658  0.8611
  132MOL0    Cl17336   4.083   7.523  11.762  0.0984  0.2096 -0.1991
  132MOL0     C17337   4.067   8.431  11.181 -0.1096 -0.4272  0.5502
  132MOL0     C17338   4.166   8.525  11.213  0.8210  0.4637 -0.0054
  132MOL0     O17339   4.414   8.428  11.414 -0.4396  0.5903  1.0981
  132MOL0     C17340   4.658   8.554  11.492  0.1143 -0.2169 -0.4985
  132MOL0     C17341   4.782   8.598  11.533 -0.4174 -0.6712  1.1460
  132MOL0     N17342   5.467   8.360  11.517  0.4727 -0.3153  0.0585
  132MOL0     N17343   5.567   8.377  11.443 -0.2014 -0.3577 -0.3011
  132MOL0     C17344   6.387   7.974  10.995  0.0971  0.0155 -0.0100
  132MOL0     C17345   6.532   7.958  10.980 -0.2760 -0.5915 -0.0207
  132MOL0     C17346   6.943   8.185  10.965  0.9035 -0.8510 -0.7044
  132MOL0     C17347   6.998   8.312  11.005 -0.0274  0.0583 -0.1705
  132MOL0     C17348   7.135   8.328  11.013 -0.4755  0.1940  0.3522
  132MOL0     C17349   7.221   8.218  10.991 -1.8224 -0.0158  0.3930
  132MOL0     O17350   7.356   8.228  10.994  0.2591 -0.8300  0.2786
  132MOL0     C17351   7.415   8.352  11.023  0.6627 -0.0956  0.3378
  132MOL0     C17352   7.562   8.351  10.975  0.3102  0.3797 -0.7101
  132MOL0     C17353   7.629   8.481  11.014  0.0734  0.5930  0.0284
  132MOL0     C17354   7.769   8.498  10.951 -0.5162 -0.4271  0.5899
  132MOL0     C17355   7.771   8.488  10.804 -0.9966 -0.7437 -0.0575
  132MOL0     C17356   7.758   8.503  10.683  0.8793  0.8667 -0.4798
  132MOL0     C17357   7.166   8.095  10.948 -0.9287 -0.4686 -0.4617
  132MOL0     C17358   7.030   8.080  10.941  0.6747  0.1206  0.9914
  132MOL0     H17359   6.571   8.214  10.764  1.6031 -2.2117 -2.2312
  132MOL0     H17360   6.344   8.204  10.755  0.5005  0.8828  1.5819
  132MOL0     H17361   6.120   8.203  10.755  2.3301  1.5213  0.6861
  132MOL0     H17362   6.140   8.267  10.905  5.1057 -0.2461 -2.7409
  132MOL0     H17363   5.955   8.080  10.986  1.5203  0.6091 -0.0381
  132MOL0     H17364   5.884   8.116  10.822 -0.7563  0.7751 -0.7347
  132MOL0     H17365   5.942   8.375  10.900 -2.0433  1.2570 -1.6903
  132MOL0     H17366   5.912   8.293  11.056  1.7289 -0.4072 -0.9930
  132MOL0     H17367   5.748   8.322  10.819  3.6660  3.1404  0.6050
  132MOL0     H17368   5.691   8.213  10.955 -1.8328  0.7072 -0.5615
  132MOL0     H17369   5.591   8.441  10.984 -0.0019 -1.8260 -1.2056
  132MOL0     H17370   5.750   8.520  10.966  0.2087 -0.3428 -0.4751
  132MOL0     H17371   5.831   8.438  11.184 -0.8544  1.6001  0.1500
  132MOL0     H17372   5.679   8.344  11.207  1.5434 -1.2432  0.5908
  132MOL0     H17373   5.716   8.653  11.169 -1.8896  0.3210 -0.7331
  132MOL0     H17374   5.566   8.566  11.211 -0.0675 -1.2844  1.5281
  132MOL0     H17375   5.726   8.677  11.405  1.5551 -0.2074 -0.3429
  132MOL0     H17376   5.814   8.537  11.382  0.3273  2.0096  0.4701
  132MOL0     H17377   5.518   8.684  11.559  3.0551 -0.6779  2.8025
  132MOL0     H17378   5.304   8.632  11.687  0.3976 -0.8271 -0.0203
  132MOL0     H17379   5.318   8.479  11.759  1.9323 -0.3554  0.1523
  132MOL0     H17380   5.101   8.456  11.686 -0.2656 -1.7944  1.5140
  132MOL0     H17381   5.193   8.378  11.557 -1.9292  0.9483 -1.5324
  132MOL0     H17382   5.186   8.576  11.418 -0.8100 -1.2792 -1.6350
  132MOL0     H17383   5.028   8.498  11.450 -1.0241  0.2763  1.3396
  132MOL0     H17384   5.137   8.764  11.555 -2.0430  2.6002 -2.5311
  132MOL0     H17385   5.006   8.690  11.645 -0.3906  4.7353  0.8079
  132MOL0     H17386   4.803   8.814  11.281 -1.7653  1.8848  0.8324
  132MOL0     H17387   4.589   8.724  11.217 -0.2101 -5.5344 -3.3379
  132MOL0     H17388   4.431   8.332  11.108 -0.9644 -1.8892 -3.2696
  132MOL0     H17389   4.250   8.185  11.041  0.0275  2.7312 -3.6126
  132MOL0     H17390   3.824   8.117  11.082  1.6459 -2.8750  1.0741
  132MOL0     H17391   3.827   8.279  11.176 -0.1427 -0.8491  2.9715
  132MOL0     H17392   3.781   8.084  11.333  0.8711  1.0255  1.2214
  132MOL0     H17393   3.917   8.178  11.376 -4.7229  0.2358  3.5121
  132MOL0     H17394   4.071   8.028  11.257  1.1486 -1.8324 -2.9237
  132MOL0     H17395   3.927   7.933  11.208 -0.8848  2.0468 -0.9189
  132MOL0     H17396   4.036   7.976  11.499 -3.2341  1.8701  0.6550
  132MOL0     H17397   3.899   7.877  11.465  0.3667 -1.8279 -0.1279
  132MOL0     H17398   4.172   7.823  11.350  2.2366  0.1155  0.3322
  132MOL0     H17399   4.029   7.716  11.333  1.7000 -2.3821  1.4835
  132MOL0     H17400   4.047   7.731  11.610 -0.3205 -1.7042  0.1134
  132MOL0     H17401   4.216   7.762  11.565 -0.7635 -1.1366  0.4432
  132MOL0     H17402   4.071   7.505  11.486  0.7750 -1.4298 -1.3044
  132MOL0     H17403   4.227   7.564  11.426 -0.7140  0.5616 -0.7857
  132MOL0     H17404   4.312   7.566  11.671  0.3675 -1.4042  1.1949
  132MOL0     H17405   4.252   7.415  11.619 -0.2778  0.3112 -0.0988
  132MOL0     H17406   3.971   8.469  11.214  0.6119  0.2934  1.9296
  132MOL0     H17407   4.141   8.616  11.269  2.8791  1.1022 -0.0534
  132MOL0     H17408   4.619   8.471  11.550 -0.4341 -0.3979 -1.1167
  132MOL0     H17409   4.827   8.551  11.620 -0.1816  0.3442  1.5820
  132MOL0     H17410   6.335   7.917  11.071  0.4726  0.1605  0.3580
  132MOL0     H17411   6.594   7.885  11.033 -0.8116 -1.1593 -0.1680
  132MOL0     H17412   6.932   8.393  11.035  0.6336  0.5165  0.0791
  132MOL0     H17413   7.176   8.426  11.033  0.1608 -0.4013  2.0856
  132MOL0     H17414   7.396   8.373  11.129  0.6075 -2.4553  0.8418
  132MOL0     H17415   7.372   8.432  10.962  2.1646 -1.0946 -2.1999
  132MOL0     H17416   7.619   8.270  11.022 -1.2962 -0.5113 -0.2190
  132MOL0     H17417   7.564   8.312  10.873 -0.3313 -3.8639  0.6752
  132MOL0     H17418   7.644   8.479  11.122 -0.0194 -0.3647  0.0293
  132MOL0     H17419   7.573   8.572  10.991 -0.0088  0.8085  1.0492
  132MOL0     H17420   7.812   8.592  10.985  0.2435 -0.8621  0.8592
  132MOL0     H17421   7.837   8.421  10.989  1.0975 -0.1539 -1.5862
  132MOL0     H17422   7.741   8.501  10.577 -0.9057  0.6593 -0.2246
  132MOL0     H17423   7.232   8.017  10.909  0.9351  0.5490  0.4935
  132MOL0     H17424   6.991   7.997  10.882  0.8836  1.7855 -1.6677
  133MOL0     O17425   4.259   8.935   6.222  0.2139  0.8705  0.1235
  133MOL0     C17426   4.261   8.817   6.174  0.2131  0.3836  0.4109
  133MOL0     O17427   4.155   8.736   6.156  0.4548  0.2050  0.5310
  133MOL0     C17428   4.036   8.770   6.217  0.5980  0.0444 -0.7279
  133MOL0     C17429   4.010   8.848   6.336  0.5216 -0.6706 -0.2806
  133MOL0     C17430   3.890   8.897   6.370  1.0311  0.1183 -0.2717
  133MOL0     C17431   3.780   8.857   6.294 -0.7619  0.2456  0.6441
  133MOL0     O17432   3.662   8.889   6.352 -0.4527 -0.4353  0.1889
  133MOL0     C17433   3.554   8.790   6.334 -0.0574 -0.2793  0.3138
  133MOL0     C17434   3.423   8.833   6.394 -0.4111 -0.0490  0.0604
  133MOL0     C17435   3.308   8.738   6.354 -0.4762 -0.1904 -0.1248
  133MOL0     C17436   3.203   8.744   6.460  0.1052 -0.0884 -0.0677
  133MOL0     C17437   3.055   8.693   6.430 -1.0210 -0.9597 -0.2874
  133MOL0     C17438   2.976   8.772   6.333 -0.0451 -1.0640  0.8361
  133MOL0     C17439   2.848   8.699   6.287  0.0295  0.4070  0.4498
  133MOL0     C17440   2.748   8.683   6.399 -1.0793  0.3712 -0.5501
  133MOL0     N17441   2.620   8.635   6.342  0.1842  0.0870  0.0839
  133MOL0     C17442   2.525   8.713   6.283  0.0309  0.5881  0.0590
  133MOL0     C17443   2.446   8.619   6.226 -0.7127  0.2579 -1.6364
  133MOL0     C17444   2.332   8.630   6.126  0.3202 -0.8186  0.0434
  133MOL0     C17445   2.204   8.723   6.152  0.3457 -0.3303  0.3957
  133MOL0     C17446   2.146   8.716   6.296 -0.4333  0.3735  0.5484
  133MOL0     C17447   2.033   8.820   6.301  0.3941  0.6652  0.7282
  133MOL0     O17448   1.973   8.802   6.431 -0.6261  0.0774 -0.4348
  133MOL0     C17449   1.856   8.876   6.464 -0.3373 -0.3534  0.2842
  133MOL0     C17450   1.774   8.811   6.551  0.2408  0.0282 -0.3410
  133MOL0     C17451   1.651   8.873   6.579 -0.3155  0.1479  0.5171
  133MOL0     C17452   1.615   9.007   6.539 -0.5895  0.0816  0.2074
  133MOL0     C17453   1.483   9.058   6.571 -0.3016 -0.6353 -0.1860
  133MOL0     O17454   1.382   8.974   6.614  0.3016  0.0096  0.1651
  133MOL0     C17455   1.250   9.020   6.610 -0.0710  0.7047  1.2965
  133MOL0     C17456   1.193   9.051   6.730  0.4117  1.1544  0.2782
  133MOL0     C17457   1.062   9.107   6.742 -0.1358 -0.0344 -0.7966
  133MOL0     C17458   0.996   9.156   6.628  0.0220  0.2345 -0.5458
  133MOL0     O17459   0.881   9.216   6.618 -0.4594 -0.1076  0.1372
  133MOL0     C17460   0.830   9.307   6.718 -0.2258 -0.7315  0.0027
  133MOL0     C17461   0.689   9.370   6.674  0.5457  0.5743  0.3047
  133MOL0     C17462   0.663   9.508   6.735  0.9237 -0.2314  0.7863
  133MOL0     C17463   0.737   9.624   6.665 -0.2332  0.1734 -0.1153
  133MOL0     C17464   0.690   9.763   6.717  0.1408  0.3999  0.1209
  133MOL0     C17465   0.555   9.808   6.656  0.0943  0.1707  0.4252
  133MOL0     C17466   0.521   9.953   6.706 -0.3099 -0.0881  0.7449
  133MOL0     C17467   0.371   9.976   6.697 -0.1517  0.7024 -1.1031
  133MOL0    Cl17468   0.284   9.873   6.815 -0.7735 -0.1762  0.1868
  133MOL0     C17469   1.070   9.147   6.505 -0.0650 -0.1212 -0.4028
  133MOL0     C17470   1.186   9.063   6.499 -0.1951 -0.3960 -0.5174
  133MOL0     O17471   1.472   9.176   6.545 -0.0471  0.2034 -0.0832
  133MOL0     C17472   1.698   9.064   6.442 -0.6137 -0.2634 -0.3383
  133MOL0     C17473   1.812   8.997   6.409  0.3066 -0.6572 -0.0250
  133MOL0     N17474   2.489   8.488   6.258 -0.1430 -0.6489 -0.4270
  133MOL0     N17475   2.595   8.504   6.332 -0.1792  0.9302  0.1668
  133MOL0     C17476   3.795   8.785   6.172 -0.2444 -0.1835 -1.1688
  133MOL0     C17477   3.922   8.733   6.141 -0.1766  0.3821 -0.9075
  133MOL0     C17478   4.385   8.781   6.104  0.9080  0.1398 -0.4466
  133MOL0     C17479   4.496   8.864   6.110 -0.2592 -0.4248  1.0355
  133MOL0     C17480   4.603   8.843   6.019 -0.2720  0.0339 -0.3235
  133MOL0     C17481   4.610   8.728   5.941  0.6765 -0.2286 -0.1732
  133MOL0     O17482   4.713   8.714   5.855 -0.6560  0.0413  0.4530
  133MOL0     C17483   4.833   8.657   5.906  0.5670 -0.5881 -0.8954
  133MOL0     C17484   4.929   8.619   5.799 -0.3706 -0.2136  0.0847
  133MOL0     C17485   5.013   8.740   5.750 -0.0003 -1.0401 -0.3880
  133MOL0     C17486   5.148   8.706   5.687  0.1972  0.1352  0.0604
  133MOL0     C17487   5.245   8.629   5.761 -0.3069  0.0311 -0.1794
  133MOL0     C17488   5.338   8.571   5.812 -0.4455  0.6976  0.2446
  133MOL0     C17489   4.500   8.641   5.945  0.3660  1.0323  0.4778
  133MOL0     C17490   4.383   8.665   6.016 -0.6067 -1.1994  0.8456
  133MOL0     H17491   4.099   8.884   6.386  1.0810 -0.5366 -1.3497
  133MOL0     H17492   3.867   8.961   6.455 -4.4651 -1.1280 -0.4415
  133MOL0     H17493   3.579   8.688   6.365 -0.7515 -0.8051 -0.7798
  133MOL0     H17494   3.542   8.784   6.226 -0.3412 -1.4472  0.4002
  133MOL0     H17495   3.386   8.928   6.355  1.0907  0.2525 -0.7019
  133MOL0     H17496   3.441   8.840   6.501  1.5154  0.2363 -0.2421
  133MOL0     H17497   3.340   8.634   6.346  2.0316  0.6219 -1.6321
  133MOL0     H17498   3.255   8.777   6.267  0.5276  2.0311  0.1831
  133MOL0     H17499   3.237   8.684   6.545  0.6258 -1.4968 -1.2336
  133MOL0     H17500   3.194   8.850   6.486  1.5775  0.3874 -1.3415
  133MOL0     H17501   3.002   8.699   6.525 -1.1896 -3.0406 -0.1970
  133MOL0     H17502   3.065   8.592   6.391  1.4897 -0.3842 -1.3379
  133MOL0     H17503   3.033   8.810   6.248 -2.9940  1.4645 -0.1699
  133MOL0     H17504   2.949   8.867   6.381  2.2282 -0.1784  0.5035
  133MOL0     H17505   2.800   8.745   6.200 -1.3560 -0.6415  0.6281
  133MOL0     H17506   2.873   8.596   6.261 -0.0714  0.5551 -0.2712
  133MOL0     H17507   2.729   8.773   6.458 -0.6488  0.6062 -0.7645
  133MOL0     H17508   2.787   8.604   6.464 -4.2160 -1.5741 -0.8502
  133MOL0     H17509   2.531   8.820   6.267 -0.7413  0.3689 -2.0648
  133MOL0     H17510   2.296   8.528   6.110  0.2207 -1.0511  1.5846
  133MOL0     H17511   2.394   8.662   6.042  0.0752  1.4174  0.6730
  133MOL0     H17512   2.132   8.699   6.073  1.9104 -1.4518 -0.7575
  133MOL0     H17513   2.246   8.819   6.120  3.7104 -1.5122  0.8506
  133MOL0     H17514   2.101   8.619   6.317 -0.2796 -0.0713 -1.0897
  133MOL0     H17515   2.220   8.745   6.371 -2.1963 -3.7980  4.3885
  133MOL0     H17516   1.964   8.809   6.217  1.0030 -2.6638  0.5312
  133MOL0     H17517   2.084   8.917   6.297  1.7184  0.0253  1.5174
  133MOL0     H17518   1.788   8.711   6.590 -4.3154 -0.0334  1.8742
  133MOL0     H17519   1.578   8.811   6.630 -1.4318  1.0146  0.0077
  133MOL0     H17520   1.238   9.008   6.819  1.4324 -0.2171 -0.8653
  133MOL0     H17521   1.007   9.113   6.835  0.0468 -0.9887 -0.6149
  133MOL0     H17522   0.901   9.388   6.740 -0.5752 -0.3214 -0.3501
  133MOL0     H17523   0.817   9.258   6.815  1.5946  0.5936  0.9709
  133MOL0     H17524   0.610   9.309   6.719  2.2364  0.3299  3.2124
  133MOL0     H17525   0.675   9.371   6.565 -2.4507 -1.2554  0.5425
  133MOL0     H17526   0.670   9.499   6.844 -1.7727 -2.6329  0.9012
  133MOL0     H17527   0.559   9.534   6.714  1.7186  4.4210  1.6936
  133MOL0     H17528   0.846   9.613   6.658 -0.2009 -2.3456  2.4165
  133MOL0     H17529   0.694   9.631   6.565  0.6972  0.5454 -0.5025
  133MOL0     H17530   0.764   9.836   6.681  0.5255 -1.2831 -2.8676
  133MOL0     H17531   0.678   9.754   6.825  2.4277  0.6306  0.4500
  133MOL0     H17532   0.479   9.736   6.688  0.2732  0.4044  1.3955
  133MOL0     H17533   0.543   9.812   6.547 -3.3161  1.3217  0.7110
  133MOL0     H17534   0.563   9.961   6.807  1.7568 -1.8220  0.1015
  133MOL0     H17535   0.564  10.038   6.651  1.1560 -2.1429 -1.4800
  133MOL0     H17536   0.348   9.955   6.592  0.0400  0.1186 -1.0312
  133MOL0     H17537   0.354  10.081   6.721 -0.1631  0.3100  0.7334
  133MOL0     H17538   1.029   9.171   6.408  0.5648 -4.3179 -1.9304
  133MOL0     H17539   1.238   9.040   6.407  2.8765 -1.4000  1.3196
  133MOL0     H17540   1.681   9.167   6.412 -0.3149 -0.5288 -1.4607
  133MOL0     H17541   1.885   9.042   6.342 -0.2763 -1.9580 -1.6027
  133MOL0     H17542   3.704   8.765   6.117 -2.9067 -0.3845  2.9004
  133MOL0     H17543   3.929   8.670   6.053 -2.4324  1.5567 -2.0139
  133MOL0     H17544   4.506   8.953   6.171 -1.2515  0.8419 -0.5626
  133MOL0     H17545   4.693   8.904   6.024 -0.2116  0.0647 -1.4149
  133MOL0     H17546   4.800   8.573   5.968  0.6420  2.1834  3.3265
  133MOL0     H17547   4.873   8.739   5.967 -2.0243  0.0887  0.0294
  133MOL0     H17548   4.995   8.543   5.842 -1.7234 -1.7576 -0.4473
  133MOL0     H17549   4.877   8.567   5.718  0.4150 -2.0413  0.7014
  133MOL0     H17550   5.032   8.805   5.836 -1.7097 -0.2588 -0.5421
  133MOL0     H17551   4.955   8.808   5.686  1.8250 -0.4617 -1.4966
  133MOL0     H17552   5.111   8.652   5.599  0.8626  0.4355 -0.4126
  133MOL0     H17553   5.199   8.797   5.653  0.5809  0.1099  0.5690
  133MOL0     H17554   5.392   8.499   5.869 -1.9792  0.0766  0.9540
  133MOL0     H17555   4.499   8.550   5.886  1.6865  0.2111  1.6693
  133MOL0     H17556   4.291   8.611   5.997 -0.1751 -1.4506 -0.6817
  134MOL0     O17557   7.334   5.589   4.762 -0.1904  0.4253 -0.7793
  134MOL0     C17558   7.396   5.557   4.656  0.2944  0.4434  0.4405
  134MOL0     O17559   7.329   5.517   4.546 -0.8053 -0.1097  0.5804
  134MOL0     C17560   7.195   5.488   4.546  0.5535 -0.8039 -0.1075
  134MOL0     C17561   7.084   5.570   4.589  0.4974 -0.6333  0.0999
  134MOL0     C17562   6.953   5.531   4.583 -0.3235  0.2611  0.2730
  134MOL0     C17563   6.926   5.409   4.516 -0.0807  0.1734  0.3429
  134MOL0     O17564   6.799   5.367   4.481  0.4140 -0.0367 -0.2884
  134MOL0     C17565   6.689   5.414   4.573 -0.0655  0.2948  0.6001
  134MOL0     C17566   6.575   5.310   4.582  0.8388  0.0912  0.1940
  134MOL0     C17567   6.457   5.355   4.663 -0.4594  0.0453  0.8837
  134MOL0     C17568   6.361   5.462   4.597 -0.1975  0.6506  0.6841
  134MOL0     C17569   6.234   5.478   4.678 -0.8381  0.2752 -0.3353
  134MOL0     C17570   6.135   5.602   4.633 -0.5968 -0.0437 -0.1803
  134MOL0     C17571   6.079   5.661   4.761  0.4108 -0.7359 -0.8416
  134MOL0     C17572   5.967   5.760   4.730  0.1038 -0.3998  0.6218
  134MOL0     N17573   5.896   5.801   4.857 -0.8738 -0.2947 -0.4848
  134MOL0     C17574   5.824   5.712   4.931  0.1469  0.0295  0.0650
  134MOL0     C17575   5.796   5.790   5.045  0.2257  0.1348  0.5567
  134MOL0     C17576   5.702   5.764   5.168 -0.7486 -0.0559 -0.4248
  134MOL0     C17577   5.558   5.745   5.134 -0.2550 -0.6147  0.3650
  134MOL0     C17578   5.468   5.708   5.252  0.2502 -0.1172  0.2731
  134MOL0     C17579   5.319   5.709   5.224  0.0834  0.6014 -0.3171
  134MOL0     O17580   5.293   5.599   5.137  0.5359  0.2702  0.2009
  134MOL0     C17581   5.163   5.559   5.094 -0.3081  0.7238  0.5826
  134MOL0     C17582   5.044   5.637   5.115 -0.2831 -0.1558  0.4174
  134MOL0     C17583   4.919   5.597   5.083 -0.3411 -0.5415  0.1140
  134MOL0     C17584   4.906   5.470   5.021 -0.1095 -0.6656 -0.2262
  134MOL0     C17585   4.775   5.410   5.006 -0.0301 -0.0266 -1.0113
  134MOL0     O17586   4.680   5.428   5.109  0.2858  0.4639  0.0534
  134MOL0     C17587   4.566   5.361   5.109  0.2108 -0.2473 -0.4724
  134MOL0     C17588   4.551   5.228   5.062  0.8698  0.1832 -0.2058
  134MOL0     C17589   4.423   5.172   5.057 -0.4705 -0.3117  0.3047
  134MOL0     C17590   4.313   5.241   5.097 -0.1532  0.5346  0.0558
  134MOL0     O17591   4.184   5.187   5.092  0.5851 -0.3115 -0.2408
  134MOL0     C17592   4.168   5.049   5.061  0.5972  0.5329  0.3809
  134MOL0     C17593   4.014   5.009   5.067  0.0994 -0.5092  1.1339
  134MOL0     C17594   3.987   4.866   5.043  0.2879 -0.1665 -0.3367
  134MOL0     C17595   3.849   4.840   4.986  0.7463 -0.3248 -0.0324
  134MOL0     C17596   3.736   4.870   5.079 -0.5263 -0.6223 -0.2396
  134MOL0     C17597   3.596   4.845   5.019  0.3480 -0.2183 -0.6112
  134MOL0     C17598   3.485   4.859   5.126  0.8225 -0.5820  0.3174
  134MOL0     C17599   3.347   4.855   5.055  1.4178 -0.0151  0.0602
  134MOL0    Cl17600   3.214   4.924   5.161  0.2475  0.6892 -0.1334
  134MOL0     C17601   4.331   5.372   5.144  0.6344  0.4654 -0.3725
  134MOL0     C17602   4.457   5.427   5.153  0.3879 -0.1577  0.3882
  134MOL0     O17603   4.748   5.370   4.893 -0.5332 -1.4607 -0.0098
  134MOL0     C17604   5.023   5.397   4.991 -0.2090  0.5626  0.3772
  134MOL0     C17605   5.143   5.441   5.029 -0.3792  0.2424 -0.4448
  134MOL0     N17606   5.859   5.912   5.042 -0.5711  1.2615  0.2974
  134MOL0     N17607   5.924   5.915   4.930  0.4376  0.0994 -0.0302
  134MOL0     C17608   7.028   5.320   4.472  0.5035 -0.1829  0.2663
  134MOL0     C17609   7.165   5.365   4.488 -0.1239  0.5967  0.0621
  134MOL0     C17610   7.547   5.578   4.642  1.4335  1.1764  0.3557
  134MOL0     C17611   7.600   5.595   4.511  0.6944 -0.6232 -0.1339
  134MOL0     C17612   7.737   5.625   4.499 -0.2975 -0.8588 -0.5658
  134MOL0     C17613   7.826   5.616   4.618 -0.1079 -0.3500 -0.4802
  134MOL0     O17614   7.967   5.625   4.599  0.9334  0.2332 -0.0207
  134MOL0     C17615   8.048   5.574   4.699  0.5479  0.1232 -0.3958
  134MOL0     C17616   8.198   5.587   4.658 -0.2863  0.2682 -0.0177
  134MOL0     C17617   8.227   5.523   4.526 -0.9969  0.1904  0.2318
  134MOL0     C17618   8.371   5.488   4.497 -0.1164  0.3888 -0.0221
  134MOL0     C17619   8.464   5.600   4.497  0.2475  0.4212  0.3996
  134MOL0     C17620   8.540   5.686   4.500 -0.3853  0.1305  0.3334
  134MOL0     C17621   7.766   5.607   4.747 -0.7227 -0.5704  0.1343
  134MOL0     C17622   7.628   5.596   4.760 -0.5613  0.4126 -0.8949
  134MOL0     H17623   7.106   5.667   4.632 -0.0267 -0.6165  0.3368
  134MOL0     H17624   6.880   5.611   4.588  0.1935  0.6992  1.1501
  134MOL0     H17625   6.652   5.506   4.526  0.9234  0.1183 -0.5831
  134MOL0     H17626   6.721   5.453   4.670 -0.6970  0.8111  0.6038
  134MOL0     H17627   6.613   5.225   4.641 -1.7556 -0.9430  0.5026
  134MOL0     H17628   6.551   5.273   4.482  2.0601  1.9789 -0.8692
  134MOL0     H17629   6.499   5.393   4.757  1.7912  0.7781 -0.3264
  134MOL0     H17630   6.407   5.262   4.690  2.8852 -1.8803  1.0214
  134MOL0     H17631   6.414   5.557   4.585 -0.1441  0.5630  0.2062
  134MOL0     H17632   6.339   5.422   4.498 -0.4093 -1.5085  1.5561
  134MOL0     H17633   6.261   5.486   4.783 -1.1730 -0.0599 -0.2246
  134MOL0     H17634   6.174   5.387   4.672  2.2275 -2.0010  0.6622
  134MOL0     H17635   6.055   5.570   4.565  0.4091 -0.1381 -1.3551
  134MOL0     H17636   6.172   5.687   4.575 -0.4481  0.1140  0.1444
  134MOL0     H17637   6.054   5.584   4.835 -0.3845  0.5638  0.2878
  134MOL0     H17638   6.167   5.711   4.801 -1.1381  2.0895 -0.6779
  134MOL0     H17639   5.898   5.718   4.657  1.3053  0.8715 -1.3493
  134MOL0     H17640   5.997   5.855   4.686 -1.3553 -1.0519 -2.0524
  134MOL0     H17641   5.774   5.622   4.899 -4.1948  2.2381 -0.1409
  134MOL0     H17642   5.712   5.848   5.238 -1.8463 -1.1022  1.0267
  134MOL0     H17643   5.742   5.683   5.229 -1.4835 -1.9811 -2.3902
  134MOL0     H17644   5.560   5.670   5.055  1.7172  0.4297 -0.6310
  134MOL0     H17645   5.528   5.841   5.093  4.2170 -0.3181 -2.9162
  134MOL0     H17646   5.488   5.610   5.295 -0.6253 -1.0044 -1.2791
  134MOL0     H17647   5.467   5.784   5.331 -0.6891  1.7929 -1.4919
  134MOL0     H17648   5.283   5.807   5.193 -1.4417  0.1004 -0.2040
  134MOL0     H17649   5.261   5.687   5.314 -1.7726  0.1039 -1.5786
  134MOL0     H17650   5.040   5.734   5.165 -0.8533  1.4573 -2.4976
  134MOL0     H17651   4.825   5.648   5.105  1.1109  1.8184  1.2821
  134MOL0     H17652   4.645   5.190   5.023  0.2454 -1.7037  0.0299
  134MOL0     H17653   4.425   5.075   5.009  4.6005 -0.1603 -0.3476
  134MOL0     H17654   4.206   4.992   5.146  2.2459  0.5805 -0.2868
  134MOL0     H17655   4.212   5.018   4.966 -3.1897 -0.7350 -1.1682
  134MOL0     H17656   3.954   5.069   4.998 -2.5143 -3.0025  1.0258
  134MOL0     H17657   3.985   5.042   5.167  1.3755 -1.7877  1.9647
  134MOL0     H17658   4.002   4.801   5.130  2.2505 -2.0676 -1.9709
  134MOL0     H17659   4.070   4.830   4.982  1.1560  0.8135  0.2434
  134MOL0     H17660   3.843   4.900   4.894 -0.2835 -0.4584 -0.0612
  134MOL0     H17661   3.847   4.739   4.946  0.9528 -0.7852  1.0930
  134MOL0     H17662   3.747   4.974   5.112 -1.5204 -0.3783 -0.6261
  134MOL0     H17663   3.773   4.809   5.162  0.9060 -0.1329 -0.4996
  134MOL0     H17664   3.608   4.740   4.992 -0.7362 -0.7737  0.9153
  134MOL0     H17665   3.587   4.915   4.936 -2.6939  1.3670  0.8891
  134MOL0     H17666   3.491   4.787   5.209 -1.9472 -1.6086 -0.2777
  134MOL0     H17667   3.497   4.951   5.184  2.5783 -0.1488 -0.6532
  134MOL0     H17668   3.307   4.754   5.046 -2.6092  1.3051  1.1033
  134MOL0     H17669   3.351   4.908   4.960 -0.4309  0.4073  0.1823
  134MOL0     H17670   4.249   5.432   5.182 -0.9144 -1.3319 -0.7230
  134MOL0     H17671   4.478   5.531   5.175  0.5941  0.1997 -1.3655
  134MOL0     H17672   4.994   5.296   4.964  0.7376  0.6372 -1.0241
  134MOL0     H17673   5.234   5.387   5.002  0.8626  2.3780 -0.8050
  134MOL0     H17674   6.996   5.224   4.432 -2.0398 -0.6364  3.0255
  134MOL0     H17675   7.237   5.290   4.456 -1.3952 -1.0385  0.9313
  134MOL0     H17676   7.529   5.591   4.429  0.3424  0.7786  0.0890
  134MOL0     H17677   7.773   5.655   4.401 -1.3698 -1.8278 -1.2818
  134MOL0     H17678   8.028   5.468   4.718  1.8028  0.0856  0.8875
  134MOL0     H17679   8.031   5.626   4.794 -0.9731  0.4265 -0.8064
  134MOL0     H17680   8.229   5.691   4.654  0.9412 -0.1148 -1.6217
  134MOL0     H17681   8.247   5.539   4.743 -2.5569 -0.5483  0.9224
  134MOL0     H17682   8.196   5.591   4.446  0.5208  0.9913  0.2809
  134MOL0     H17683   8.162   5.435   4.525 -1.3406  0.4112 -2.1524
  134MOL0     H17684   8.411   5.412   4.564 -0.3494 -0.1962 -0.5333
  134MOL0     H17685   8.363   5.448   4.395 -0.9475 -2.8715  1.1841
  134MOL0     H17686   8.607   5.769   4.509 -0.6007  0.0781  3.1167
  134MOL0     H17687   7.825   5.600   4.838  1.8925  0.1224 -1.3801
  134MOL0     H17688   7.583   5.574   4.856 -0.7761 -3.4870 -1.7121
  135MOL0     O17689   7.933   3.534  10.389 -0.9633 -0.4528  0.2887
  135MOL0     C17690   7.849   3.624  10.381 -0.1916  0.7804  0.2038
  135MOL0     O17691   7.735   3.628  10.451 -0.1910  0.2398  0.8435
  135MOL0     C17692   7.707   3.536  10.553 -0.2506 -0.4775  0.6214
  135MOL0     C17693   7.572   3.485  10.555 -0.0386 -0.2394 -0.3658
  135MOL0     C17694   7.534   3.402  10.662 -0.9753  0.7509  0.1024
  135MOL0     C17695   7.632   3.349  10.749  0.1412  0.0291 -0.3351
  135MOL0     O17696   7.573   3.243  10.818  0.2247 -0.1585 -0.0069
  135MOL0     C17697   7.651   3.183  10.923  0.4837 -0.0758  0.0314
  135MOL0     C17698   7.574   3.062  10.987  0.2675  0.0489  0.9539
  135MOL0     C17699   7.453   3.111  11.067 -0.1918 -0.1051  0.7764
  135MOL0     C17700   7.377   2.986  11.111 -0.1584  0.2508 -0.5275
  135MOL0     C17701   7.241   3.011  11.179  0.3425  0.4794  0.1506
  135MOL0     C17702   7.186   2.877  11.223 -0.4014  0.2834  0.6603
  135MOL0     C17703   7.035   2.898  11.240  0.0582  0.0653  0.2043
  135MOL0     C17704   6.964   2.786  11.310  0.9520  0.3014 -0.3367
  135MOL0     N17705   6.976   2.774  11.460 -0.7159  0.0112  0.3711
  135MOL0     C17706   7.085   2.722  11.529 -0.4577 -0.2312 -0.2515
  135MOL0     C17707   7.049   2.720  11.660  0.2137  0.2174 -0.2924
  135MOL0     C17708   7.118   2.675  11.789  0.5415 -1.1067 -0.5877
  135MOL0     C17709   7.194   2.541  11.770 -0.1633  0.1854  1.1448
  135MOL0     C17710   7.306   2.539  11.875 -1.0783 -0.4796 -0.3830
  135MOL0     C17711   7.388   2.408  11.862  0.1004 -0.6023  0.4185
  135MOL0     O17712   7.493   2.401  11.957 -0.0252 -0.6591  0.7539
  135MOL0     C17713   7.615   2.343  11.913 -0.3485 -1.4411  0.3908
  135MOL0     C17714   7.626   2.244  11.819  0.2438 -0.1056  0.1095
  135MOL0     C17715   7.750   2.196  11.790 -0.1571 -0.3278  0.7018
  135MOL0     C17716   7.869   2.248  11.851 -0.4066 -0.3248 -0.6406
  135MOL0     C17717   8.003   2.173  11.837  0.6563 -0.1449  1.4191
  135MOL0     O17718   8.092   2.212  11.928  1.1197  0.1640 -0.2521
  135MOL0     C17719   8.215   2.157  11.925 -0.1254  0.2761  0.1018
  135MOL0     C17720   8.249   2.070  12.027 -0.7448  0.4534 -0.1219
  135MOL0     C17721   8.382   2.011  12.021  0.6059 -1.7241 -0.2329
  135MOL0     C17722   8.474   2.049  11.923 -0.1069  0.8683  0.9491
  135MOL0     O17723   8.595   1.988  11.933  0.7868 -0.4989  0.3822
  135MOL0     C17724   8.710   2.063  11.912 -0.1769 -0.0508  0.5677
  135MOL0     C17725   8.772   2.045  11.766  0.8039  0.1366  0.4679
  135MOL0     C17726   8.922   2.081  11.769  0.3538  0.2228  0.1944
  135MOL0     C17727   8.983   2.081  11.630  0.1767  0.1445 -0.5705
  135MOL0     C17728   9.130   2.125  11.628  1.2012  1.0803 -0.0305
  135MOL0     C17729   9.133   2.280  11.615 -0.8197  0.5310  1.2239
  135MOL0     C17730   9.282   2.327  11.653 -0.5707  0.1164 -0.1251
  135MOL0     C17731   9.283   2.472  11.657  0.7322 -0.1452 -0.3338
  135MOL0    Cl17732   9.460   2.514  11.700  0.9006 -0.6653  0.3742
  135MOL0     C17733   8.434   2.141  11.824 -0.3683 -0.5766  0.8613
  135MOL0     C17734   8.306   2.187  11.821 -0.5448  0.4837  0.4088
  135MOL0     O17735   8.012   2.080  11.762 -0.1193 -0.4265  0.5838
  135MOL0     C17736   7.856   2.340  11.949  0.3008  0.4847 -1.0178
  135MOL0     C17737   7.730   2.402  11.970  0.1561  0.2676 -0.1168
  135MOL0     N17738   6.926   2.777  11.661  0.0330 -0.2414 -0.0003
  135MOL0     N17739   6.890   2.827  11.548  0.0646  0.1257 -1.0185
  135MOL0     C17740   7.761   3.395  10.742 -0.9597 -0.3227 -0.2661
  135MOL0     C17741   7.799   3.492  10.652  0.4742 -0.5623  0.6448
  135MOL0     C17742   7.865   3.730  10.281 -0.5124  1.0730 -0.4328
  135MOL0     C17743   8.001   3.755  10.234 -0.2537 -0.5340  0.0369
  135MOL0     C17744   8.020   3.862  10.146  0.2369 -0.8302 -0.3544
  135MOL0     C17745   7.912   3.939  10.098 -0.3924  0.5718  0.3440
  135MOL0     O17746   7.921   4.037  10.004 -0.3564  0.4870  0.2953
  135MOL0     C17747   8.054   4.057   9.950  1.2333 -0.2749  0.7152
  135MOL0     C17748   8.043   4.169   9.844  0.2504  0.2874  1.2066
  135MOL0     C17749   8.155   4.278   9.846 -0.3408 -0.5263 -0.8269
  135MOL0     C17750   8.118   4.391   9.930 -0.3650  0.2086  0.4348
  135MOL0     C17751   8.015   4.482   9.882  0.7645  0.6601  0.6262
  135MOL0     C17752   7.920   4.558   9.861 -0.7121 -0.3215 -0.2761
  135MOL0     C17753   7.783   3.907  10.138  0.4926 -0.2101  0.0221
  135MOL0     C17754   7.757   3.804  10.233  0.1014 -0.2786  0.3467
  135MOL0     H17755   7.487   3.505  10.490 -0.9490 -1.9513  0.2479
  135MOL0     H17756   7.442   3.344  10.673  2.2176 -4.4691  3.5802
  135MOL0     H17757   7.682   3.259  10.996  1.9644 -1.0582  0.4778
  135MOL0     H17758   7.748   3.149  10.885  0.5111 -0.2097  0.2173
  135MOL0     H17759   7.647   2.998  11.037  3.2797  2.9702  0.6330
  135MOL0     H17760   7.540   3.008  10.898 -1.7388  3.5371 -0.6009
  135MOL0     H17761   7.396   3.183  11.008  0.8865  0.9249  0.9632
  135MOL0     H17762   7.484   3.159  11.160 -0.3112  0.4503  0.5312
  135MOL0     H17763   7.353   2.920  11.027  1.5958  0.4018 -1.1780
  135MOL0     H17764   7.443   2.929  11.178  1.3073  2.5141  0.0456
  135MOL0     H17765   7.186   3.067  11.103 -3.1351 -2.1787  0.4794
  135MOL0     H17766   7.253   3.073  11.268  0.3736 -0.4559  0.8145
  135MOL0     H17767   7.243   2.860  11.315  0.8590  1.4537  0.1259
  135MOL0     H17768   7.200   2.796  11.151 -0.0035  2.1526 -1.4878
  135MOL0     H17769   7.013   2.992  11.292  0.2971  0.9953 -1.3229
  135MOL0     H17770   6.996   2.902  11.138 -0.1719 -0.3646  0.2757
  135MOL0     H17771   6.997   2.689  11.272  2.2652  1.2714 -1.7680
  135MOL0     H17772   6.857   2.792  11.289  0.3877  1.4619  2.4307
  135MOL0     H17773   7.183   2.695  11.491 -0.3616 -2.1976  1.2364
  135MOL0     H17774   7.047   2.664  11.871  2.1734  1.4017  1.3299
  135MOL0     H17775   7.179   2.759  11.824  3.8782 -3.9025  0.9365
  135MOL0     H17776   7.234   2.528  11.669 -1.2041  1.1077  0.5861
  135MOL0     H17777   7.133   2.453  11.792  0.3755 -0.5895 -0.3693
  135MOL0     H17778   7.383   2.617  11.871 -1.9631  0.4357 -0.0270
  135MOL0     H17779   7.266   2.533  11.976  1.2141 -1.3764  0.5342
  135MOL0     H17780   7.427   2.411  11.760 -0.5342  3.1470  0.1322
  135MOL0     H17781   7.316   2.326  11.860 -1.7774  0.8637 -4.2306
  135MOL0     H17782   7.544   2.189  11.773 -0.3435  0.5186  0.4076
  135MOL0     H17783   7.750   2.108  11.727  1.4883 -0.3280  0.6669
  135MOL0     H17784   8.187   2.053  12.115  1.6088 -1.6716  1.2655
  135MOL0     H17785   8.409   1.936  12.094 -0.6705 -1.8031  0.1772
  135MOL0     H17786   8.774   2.006  11.981 -3.1170 -1.6465  2.1633
  135MOL0     H17787   8.713   2.170  11.936 -0.8487 -0.2347  1.5165
  135MOL0     H17788   8.707   2.103  11.699 -0.6432  0.3478  1.9744
  135MOL0     H17789   8.770   1.939  11.741 -2.1662  0.7068 -2.4445
  135MOL0     H17790   8.977   1.998  11.816  3.5677  0.4262 -2.7488
  135MOL0     H17791   8.945   2.182  11.804 -1.5514  0.2607  1.4859
  135MOL0     H17792   8.972   1.975  11.607 -1.5357  0.6074 -2.1143
  135MOL0     H17793   8.924   2.144  11.563 -2.7932 -0.9887  0.8310
  135MOL0     H17794   9.178   2.071  11.546 -0.4626 -1.8814  0.7947
  135MOL0     H17795   9.177   2.099  11.724  1.9397  1.8344 -0.1745
  135MOL0     H17796   9.076   2.337  11.689  0.1095  0.0909  2.3221
  135MOL0     H17797   9.118   2.304  11.510 -0.2953  1.7319  1.4156
  135MOL0     H17798   9.311   2.299  11.754 -1.9288 -3.6354 -0.6494
  135MOL0     H17799   9.358   2.288  11.584 -1.5672 -1.7074 -0.2214
  135MOL0     H17800   9.211   2.512  11.729  0.9918 -0.8011  0.3049
  135MOL0     H17801   9.262   2.522  11.562  1.3818  1.5819  0.3879
  135MOL0     H17802   8.506   2.176  11.750 -2.6465  2.2164 -0.2130
  135MOL0     H17803   8.280   2.249  11.736  4.5263 -0.0975 -1.9773
  135MOL0     H17804   7.945   2.376  11.998  0.7067 -1.9654  0.1550
  135MOL0     H17805   7.728   2.490  12.034 -0.8821 -1.9754  3.1819
  135MOL0     H17806   7.838   3.370  10.813 -2.1385  0.9993  1.5643
  135MOL0     H17807   7.902   3.525  10.648  0.2501  0.1380  0.5693
  135MOL0     H17808   8.075   3.689  10.278  0.8830 -1.4732 -3.0361
  135MOL0     H17809   8.121   3.882  10.113 -0.0276  1.6242  0.0896
  135MOL0     H17810   8.104   3.968   9.910 -0.6661 -0.8902 -0.4305
  135MOL0     H17811   8.126   4.092  10.024  3.7274 -0.1892 -1.6092
  135MOL0     H17812   8.049   4.119   9.747  0.4061 -0.9969  1.8540
  135MOL0     H17813   7.943   4.215   9.849  0.0084  0.1677 -1.3192
  135MOL0     H17814   8.176   4.319   9.747  1.3838  0.6198 -0.0317
  135MOL0     H17815   8.249   4.234   9.881 -1.5365 -0.9415  2.2088
  135MOL0     H17816   8.096   4.357  10.032  2.0679  0.6015  1.1463
  135MOL0     H17817   8.207   4.453   9.942  0.0457  1.0628 -4.8266
  135MOL0     H17818   7.838   4.625   9.843  1.3895  3.4907  2.6578
  135MOL0     H17819   7.699   3.962  10.098 -0.8659 -1.0489  1.6069
  135MOL0     H17820   7.657   3.775  10.264  0.1159 -0.7301 -0.0145
  136MOL0     O17821   9.536  11.134   3.257 -0.6206  0.0400  0.0235
  136MOL0     C17822   9.488  11.147   3.370  0.6428  0.3961 -0.5010
  136MOL0     O17823   9.378  11.082   3.423  0.5525  0.3362 -0.2134
  136MOL0     C17824   9.303  11.005   3.335  0.7365 -0.1590 -0.7648
  136MOL0     C17825   9.322  10.866   3.345 -0.1997 -0.1315  0.4523
  136MOL0     C17826   9.250  10.780   3.259  0.5513 -1.3319 -0.4019
  136MOL0     C17827   9.178  10.837   3.149 -0.4815  0.7370  0.4603
  136MOL0     O17828   9.121  10.761   3.063 -1.0519 -0.3033  0.5239
  136MOL0     C17829   9.179  10.632   3.016 -0.1233  0.2506  0.0224
  136MOL0     C17830   9.072  10.525   3.025 -0.5786 -0.8740  0.4334
  136MOL0     C17831   8.972  10.528   2.913  0.0562  0.0697  0.9687
  136MOL0     C17832   8.877  10.411   2.928 -0.0005  0.0950  0.2437
  136MOL0     C17833   8.741  10.446   2.861  0.7241 -0.1208 -0.0988
  136MOL0     C17834   8.758  10.481   2.711  1.0406 -0.2077 -0.8511
  136MOL0     C17835   8.631  10.567   2.678 -0.8652  0.6352  0.8819
  136MOL0     C17836   8.595  10.581   2.527  0.9785  0.2278 -0.4336
  136MOL0     N17837   8.462  10.526   2.492 -0.4337 -0.2523  1.0200
  136MOL0     C17838   8.344  10.578   2.513  0.3416 -0.6664 -0.0749
  136MOL0     C17839   8.248  10.490   2.485  1.1141 -0.5387 -0.1150
  136MOL0     C17840   8.099  10.518   2.512 -0.3602  0.0441 -0.1780
  136MOL0     C17841   8.066  10.521   2.659  0.0622 -0.5077 -1.0230
  136MOL0     C17842   8.103  10.401   2.740 -1.3880  0.6975 -0.6645
  136MOL0     C17843   7.985  10.318   2.785 -0.3970  0.2653 -1.2398
  136MOL0     O17844   8.020  10.206   2.864 -0.0714 -0.5544  0.4776
  136MOL0     C17845   7.918  10.107   2.865 -0.6353 -0.6372 -0.4173
  136MOL0     C17846   7.778  10.131   2.830 -1.9010 -1.0959  0.7088
  136MOL0     C17847   7.690  10.024   2.837 -0.1160 -0.1498 -0.2697
  136MOL0     C17848   7.722   9.895   2.845 -0.5649 -0.4232 -0.4269
  136MOL0     C17849   7.623   9.793   2.848  1.1507 -0.5967  0.2424
  136MOL0     O17850   7.502   9.827   2.810  0.9229 -0.6376  0.6451
  136MOL0     C17851   7.404   9.738   2.817 -0.5576  0.6557  1.0044
  136MOL0     C17852   7.283   9.770   2.880  0.1124 -0.0784 -0.3808
  136MOL0     C17853   7.165   9.690   2.886 -0.7134 -0.3771  0.2702
  136MOL0     C17854   7.163   9.564   2.831 -0.2001 -0.2828 -0.2272
  136MOL0     O17855   7.060   9.478   2.859  0.0728  0.6877 -0.5895
  136MOL0     C17856   7.055   9.355   2.788 -0.5167 -0.8647  0.6115
  136MOL0     C17857   7.026   9.383   2.639 -0.1723  0.6193 -0.3737
  136MOL0     C17858   7.025   9.254   2.555 -0.3614 -0.1867  0.2288
  136MOL0     C17859   7.017   9.287   2.400  0.6137  0.1348 -0.5626
  136MOL0     C17860   7.153   9.317   2.337 -0.2682 -0.3056  0.6333
  136MOL0     C17861   7.132   9.304   2.188 -1.0427  0.5984 -0.4861
  136MOL0     C17862   7.014   9.389   2.140 -0.0639 -0.6413  0.4239
  136MOL0     C17863   7.039   9.396   1.994 -0.8994 -0.4830 -0.5094
  136MOL0    Cl17864   6.914   9.480   1.904  0.1321 -0.0724 -0.1728
  136MOL0     C17865   7.288   9.520   2.770 -0.1048  0.7062  0.2878
  136MOL0     C17866   7.406   9.605   2.768  0.3468  0.1750  0.0460
  136MOL0     O17867   7.658   9.682   2.886 -0.2043  0.1674 -0.7503
  136MOL0     C17868   7.862   9.868   2.867  0.3042  0.8419  0.3948
  136MOL0     C17869   7.953   9.978   2.887 -0.5391 -0.1973  0.3248
  136MOL0     N17870   8.317  10.379   2.432 -0.4967 -1.0858  0.0789
  136MOL0     N17871   8.442  10.409   2.428 -0.2909  0.8399 -0.7179
  136MOL0     C17872   9.157  10.977   3.143 -0.2343  0.5227 -0.5008
  136MOL0     C17873   9.216  11.064   3.239  0.4245  1.0857  1.0022
  136MOL0     C17874   9.553  11.251   3.459  0.5386  0.1145 -0.1641
  136MOL0     C17875   9.690  11.281   3.461 -0.3953  0.4464 -0.8241
  136MOL0     C17876   9.736  11.370   3.555  0.0848  0.2024  0.3054
  136MOL0     C17877   9.649  11.441   3.647 -1.2301  0.2884  0.0030
  136MOL0     O17878   9.685  11.536   3.735 -0.4279 -0.9655 -0.0475
  136MOL0     C17879   9.826  11.561   3.769 -0.8963 -0.6404  0.4771
  136MOL0     C17880   9.908  11.450   3.829 -1.0719  0.4059  0.2262
  136MOL0     C17881  10.066  11.459   3.797  0.0425 -1.1134  0.0717
  136MOL0     C17882  10.135  11.346   3.864  0.5449 -0.1934 -0.1608
  136MOL0     C17883  10.265  11.311   3.807 -0.3042  0.3838  1.3641
  136MOL0     C17884  10.376  11.295   3.753  0.1038  0.1164  0.4825
  136MOL0     C17885   9.517  11.402   3.650 -0.8702  0.1438 -0.1001
  136MOL0     C17886   9.471  11.311   3.556  0.3211  0.3648  0.5536
  136MOL0     H17887   9.377  10.820   3.427 -0.3170  1.6509  1.5739
  136MOL0     H17888   9.263  10.674   3.280  1.8447 -0.8924  1.1863
  136MOL0     H17889   9.265  10.598   3.075 -1.0070  0.5532  1.5314
  136MOL0     H17890   9.215  10.639   2.913 -0.0132 -1.8331 -0.1260
  136MOL0     H17891   9.019  10.532   3.121 -2.5221  0.8639 -0.6758
  136MOL0     H17892   9.134  10.436   3.014 -0.7347 -1.0684  1.0871
  136MOL0     H17893   9.039  10.536   2.827  1.5186  1.0740  2.1590
  136MOL0     H17894   8.918  10.622   2.924  2.1722  1.1819  2.4284
  136MOL0     H17895   8.921  10.328   2.872  1.1706  2.4637 -2.6036
  136MOL0     H17896   8.868  10.385   3.034 -0.6146 -3.7381 -0.5863
  136MOL0     H17897   8.700  10.539   2.900 -0.0931 -1.0537  1.3496
  136MOL0     H17898   8.664  10.371   2.880 -1.0056  2.0555  2.2471
  136MOL0     H17899   8.748  10.386   2.658 -0.1992 -1.1436  0.9266
  136MOL0     H17900   8.856  10.525   2.691  1.2594  1.0934  2.3991
  136MOL0     H17901   8.547  10.524   2.734  0.1897  0.4384  2.3637
  136MOL0     H17902   8.644  10.667   2.720  1.7076  0.0724  1.5855
  136MOL0     H17903   8.666  10.523   2.467  0.3927  0.5563 -1.4706
  136MOL0     H17904   8.608  10.686   2.503 -0.8085  0.0613 -2.3923
  136MOL0     H17905   8.329  10.676   2.558 -2.3342 -1.6657  1.4517
  136MOL0     H17906   8.033  10.451   2.457 -1.6752  0.1821  1.1800
  136MOL0     H17907   8.081  10.619   2.476 -0.9625  0.4173  1.1089
  136MOL0     H17908   7.959  10.538   2.673  0.2336 -1.7974  3.2746
  136MOL0     H17909   8.117  10.608   2.702  0.5974 -0.8817 -0.8950
  136MOL0     H17910   8.164  10.332   2.679 -2.5816 -1.4555  0.4521
  136MOL0     H17911   8.167  10.431   2.824 -0.9382 -4.1555  1.0955
  136MOL0     H17912   7.938  10.300   2.688 -0.8032  0.0054 -0.9952
  136MOL0     H17913   7.922  10.377   2.853  0.4935 -0.0177 -0.1218
  136MOL0     H17914   7.735  10.227   2.803  0.9079 -0.1483 -0.7818
  136MOL0     H17915   7.582  10.038   2.836 -0.0177  0.6636 -0.3519
  136MOL0     H17916   7.270   9.872   2.915  0.2546  0.0265 -0.6374
  136MOL0     H17917   7.094   9.742   2.949 -3.2010 -3.9887  0.7392
  136MOL0     H17918   6.974   9.295   2.830 -0.4451 -2.4987 -1.4271
  136MOL0     H17919   7.146   9.297   2.803 -1.9408 -2.9446  1.6332
  136MOL0     H17920   7.114   9.433   2.597  0.1155 -2.1452 -3.4906
  136MOL0     H17921   6.935   9.439   2.614  1.7010  3.8283 -0.6274
  136MOL0     H17922   6.940   9.196   2.591 -0.2327 -0.0181  0.8082
  136MOL0     H17923   7.114   9.198   2.585 -2.1569 -3.4312 -0.1170
  136MOL0     H17924   6.974   9.194   2.362  1.6971 -1.2727  1.4238
  136MOL0     H17925   6.940   9.362   2.384  0.3891 -0.7320 -4.4066
  136MOL0     H17926   7.229   9.246   2.370 -2.4539 -1.6058  3.2311
  136MOL0     H17927   7.181   9.419   2.365 -2.5713  0.0512  1.8120
  136MOL0     H17928   7.112   9.199   2.166  0.2921 -0.6405  3.3956
  136MOL0     H17929   7.231   9.337   2.155 -0.4629 -0.2775  0.3260
  136MOL0     H17930   6.924   9.333   2.166  0.6740 -1.0362  2.3436
  136MOL0     H17931   7.021   9.493   2.174  2.2943 -0.4212 -0.5059
  136MOL0     H17932   7.057   9.297   1.952  1.6480 -0.8674  1.2454
  136MOL0     H17933   7.130   9.457   1.990 -2.5012  2.1475  0.4846
  136MOL0     H17934   7.298   9.420   2.728 -0.8017  1.4023 -1.6978
  136MOL0     H17935   7.495   9.566   2.719  0.3159  0.4875 -0.2610
  136MOL0     H17936   7.897   9.766   2.879  1.2387  1.3830  3.3152
  136MOL0     H17937   8.053   9.949   2.916 -0.8850 -2.2603 -0.3213
  136MOL0     H17938   9.098  11.029   3.069 -0.8027  2.7110  1.3766
  136MOL0     H17939   9.182  11.167   3.238  0.0939  1.0116  2.4901
  136MOL0     H17940   9.753  11.230   3.389  2.1802 -1.6722  2.6229
  136MOL0     H17941   9.840  11.402   3.554 -0.0132  0.5335  0.6375
  136MOL0     H17942   9.823  11.643   3.841  0.5532  0.9536 -1.1998
  136MOL0     H17943   9.881  11.609   3.688 -0.5767 -1.2155  0.3418
  136MOL0     H17944   9.905  11.441   3.938  5.3864 -0.0104  0.7587
  136MOL0     H17945   9.868  11.356   3.790 -1.7383  1.2237 -1.1166
  136MOL0     H17946  10.111  11.550   3.836 -1.6974  0.3206 -1.1055
  136MOL0     H17947  10.075  11.462   3.688 -1.2943  1.8096 -0.0518
  136MOL0     H17948  10.138  11.355   3.973 -1.8131 -5.0192  0.5981
  136MOL0     H17949  10.072  11.257   3.860  2.4354 -1.7115  1.4166
  136MOL0     H17950  10.464  11.284   3.692 -2.1029 -1.4366 -2.7290
  136MOL0     H17951   9.451  11.450   3.722  0.0682  4.3605 -1.7339
  136MOL0     H17952   9.366  11.284   3.544  0.2008  1.0498 -0.0151
  137MOL0     O17953   4.320   5.681   5.287 -0.6431 -0.6394 -0.0195
  137MOL0     C17954   4.336   5.796   5.261  1.1177 -0.2158 -1.1608
  137MOL0     O17955   4.299   5.852   5.140 -0.0046  0.7399 -0.3088
  137MOL0     C17956   4.239   5.761   5.053  1.2586  0.7967 -0.5542
  137MOL0     C17957   4.314   5.690   4.952  0.1218 -0.1092  0.2257
  137MOL0     C17958   4.264   5.589   4.866 -0.3324 -1.2057  0.1733
  137MOL0     C17959   4.134   5.548   4.890  0.1588 -0.7407 -0.5956
  137MOL0     O17960   4.081   5.450   4.813  0.6094 -0.4258  0.6793
  137MOL0     C17961   4.155   5.328   4.786 -0.3775  0.2709 -0.0716
  137MOL0     C17962   4.149   5.302   4.635 -0.2341 -0.2803  0.7026
  137MOL0     C17963   4.003   5.292   4.579 -0.9093  0.1017  0.0044
  137MOL0     C17964   3.911   5.177   4.626 -0.1290 -0.5395 -0.1891
  137MOL0     C17965   3.769   5.174   4.570  0.9320  0.0724  0.7246
  137MOL0     C17966   3.675   5.075   4.626 -0.4033 -0.3891  0.0043
  137MOL0     C17967   3.530   5.101   4.600  0.3681 -0.0831 -0.8140
  137MOL0     C17968   3.490   5.050   4.465  0.0153 -0.3871 -0.1132
  137MOL0     N17969   3.341   5.033   4.452 -0.2229 -0.1334  0.2175
  137MOL0     C17970   3.267   4.980   4.344  0.8642  0.4754 -0.0102
  137MOL0     C17971   3.139   5.015   4.365  0.1059  0.6153 -0.5058
  137MOL0     C17972   3.040   4.975   4.264 -1.3198  0.6928 -0.1080
  137MOL0     C17973   2.898   5.040   4.285 -0.8086  0.8059  0.7063
  137MOL0     C17974   2.809   5.041   4.159  0.5049 -0.0263  0.7734
  137MOL0     C17975   2.767   4.895   4.124  0.5206 -0.4787 -0.1123
  137MOL0     O17976   2.701   4.884   3.994 -0.4386 -0.1680 -0.2698
  137MOL0     C17977   2.564   4.869   3.989 -0.4029  0.2133  0.1636
  137MOL0     C17978   2.508   4.747   3.943 -0.4905  0.2540 -0.2984
  137MOL0     C17979   2.375   4.725   3.946  0.6175 -0.3025 -0.4173
  137MOL0     C17980   2.284   4.830   3.985  0.2239 -0.5559 -0.1821
  137MOL0     C17981   2.140   4.828   3.986 -0.8783  1.1529  0.1493
  137MOL0     O17982   2.090   4.711   3.936  0.7746  0.3565  0.3829
  137MOL0     C17983   1.957   4.675   3.915 -0.1586 -0.0377  0.4956
  137MOL0     C17984   1.852   4.748   3.973 -0.0865 -0.1163 -0.7087
  137MOL0     C17985   1.723   4.705   3.944 -0.3497  0.0947 -0.3492
  137MOL0     C17986   1.706   4.601   3.850 -0.6629 -0.1982  0.3863
  137MOL0     O17987   1.569   4.575   3.819  0.0840 -0.1219  0.4103
  137MOL0     C17988   1.527   4.449   3.772 -0.3307 -0.5942 -0.5945
  137MOL0     C17989   1.376   4.441   3.738 -0.2944 -0.7660  0.0762
  137MOL0     C17990   1.359   4.297   3.673 -0.8857 -1.0532 -0.9586
  137MOL0     C17991   1.219   4.228   3.655  0.9805  0.0106  0.2391
  137MOL0     C17992   1.113   4.314   3.586 -0.4438  0.3897 -0.2397
  137MOL0     C17993   1.151   4.371   3.454  0.0023  0.0155  0.5459
  137MOL0     C17994   1.053   4.470   3.400  0.2695  0.2795  0.0497
  137MOL0     C17995   1.085   4.522   3.258 -0.4067  0.0357  0.4526
  137MOL0    Cl17996   1.040   4.387   3.154  0.0605  0.0111 -0.2227
  137MOL0     C17997   1.809   4.530   3.788 -0.1692 -1.4245 -0.0796
  137MOL0     C17998   1.934   4.561   3.838  0.3079 -0.4833  0.2132
  137MOL0     O17999   2.077   4.915   4.043 -0.3064  0.8631  0.9749
  137MOL0     C18000   2.339   4.953   4.026 -0.4190 -0.3714 -0.6253
  137MOL0     C18001   2.472   4.979   4.028 -0.3824  0.0988  1.0519
  137MOL0     N18002   3.126   5.071   4.494  0.0815  0.8307 -0.2761
  137MOL0     N18003   3.248   5.079   4.542 -0.4804 -0.0303  0.8935
  137MOL0     C18004   4.055   5.611   4.985  0.2305 -0.4276 -0.8154
  137MOL0     C18005   4.104   5.718   5.067  0.2931  0.0150  0.6270
  137MOL0     C18006   4.387   5.892   5.355  0.7370 -0.1299  0.0705
  137MOL0     C18007   4.475   5.852   5.456  0.4145 -0.3445 -0.3749
  137MOL0     C18008   4.531   5.947   5.528 -0.1959  0.0847 -0.4420
  137MOL0     C18009   4.485   6.074   5.530  0.2514 -0.5276 -0.0279
  137MOL0     O18010   4.533   6.165   5.621 -0.2027 -0.6811 -0.1865
  137MOL0     C18011   4.651   6.126   5.693  0.0723  1.0254 -0.2452
  137MOL0     C18012   4.715   6.254   5.758  0.7885 -0.4029 -0.0613
  137MOL0     C18013   4.737   6.367   5.660  0.0409 -0.4229 -0.2423
  137MOL0     C18014   4.825   6.340   5.538 -0.1253 -0.4188 -0.2285
  137MOL0     C18015   4.957   6.301   5.571  0.4532  0.5743  0.3333
  137MOL0     C18016   5.070   6.257   5.589  1.1952  0.1433 -0.2926
  137MOL0     C18017   4.385   6.120   5.436  0.9848  0.1585  0.2849
  137MOL0     C18018   4.350   6.031   5.340 -0.5405 -1.9206 -0.6962
  137MOL0     H18019   4.419   5.716   4.950  0.1254  0.3934  2.6858
  137MOL0     H18020   4.329   5.548   4.791  2.0328  0.8774  0.9435
  137MOL0     H18021   4.115   5.238   4.835  0.7930 -3.2130 -4.7455
  137MOL0     H18022   4.257   5.327   4.824 -0.2744  0.6741 -0.3249
  137MOL0     H18023   4.201   5.208   4.614 -0.2953  0.0659 -1.1092
  137MOL0     H18024   4.200   5.381   4.579  0.6489 -0.4160  1.2850
  137MOL0     H18025   4.008   5.282   4.470 -2.9078 -2.5883  0.0309
  137MOL0     H18026   3.955   5.387   4.604 -4.1111 -1.3759  0.0227
  137MOL0     H18027   3.952   5.081   4.592 -0.9371 -0.3579 -1.7789
  137MOL0     H18028   3.914   5.177   4.736  1.9545 -1.4188 -0.2036
  137MOL0     H18029   3.763   5.156   4.462  1.2036 -4.8280  1.2673
  137MOL0     H18030   3.725   5.273   4.580  0.5350 -0.1244  0.9637
  137MOL0     H18031   3.689   5.073   4.734 -2.9968  1.2256  0.4665
  137MOL0     H18032   3.707   4.979   4.584  2.1081  1.2032 -2.0669
  137MOL0     H18033   3.473   5.047   4.676  0.4654 -0.8350 -1.2653
  137MOL0     H18034   3.512   5.209   4.610  0.2291 -0.2972  2.7292
  137MOL0     H18035   3.530   4.952   4.436 -1.9712 -0.1393 -4.4213
  137MOL0     H18036   3.528   5.121   4.391 -1.3626  0.3827 -0.1201
  137MOL0     H18037   3.300   4.921   4.259 -3.2202 -1.5245 -0.4465
  137MOL0     H18038   3.038   4.866   4.250 -0.2478  0.8265 -1.5815
  137MOL0     H18039   3.088   5.001   4.169 -1.5460 -0.2655 -0.5046
  137MOL0     H18040   2.919   5.139   4.325  1.2774  0.8295 -0.3016
  137MOL0     H18041   2.847   4.974   4.356  2.1510  2.0245  4.2912
  137MOL0     H18042   2.719   5.103   4.165  0.4765 -0.0899  1.0423
  137MOL0     H18043   2.863   5.085   4.075 -3.2770  0.8973 -1.3817
  137MOL0     H18044   2.697   4.870   4.205 -0.7003  0.5675 -0.7941
  137MOL0     H18045   2.857   4.833   4.121  3.2542  3.1665 -1.0085
  137MOL0     H18046   2.580   4.666   3.938 -2.4509 -1.5449 -1.3866
  137MOL0     H18047   2.332   4.630   3.917  0.9607 -0.1741 -1.4033
  137MOL0     H18048   1.859   4.834   4.038  2.3342 -0.2923 -0.6386
  137MOL0     H18049   1.634   4.761   3.968  0.7873  1.8329 -0.0057
  137MOL0     H18050   1.547   4.369   3.844  1.5949  0.3354 -0.0184
  137MOL0     H18051   1.575   4.418   3.678  1.6912  1.2387 -0.2557
  137MOL0     H18052   1.349   4.506   3.655 -2.1627 -1.1945  0.3061
  137MOL0     H18053   1.311   4.468   3.821 -1.7151  0.6089 -1.4113
  137MOL0     H18054   1.418   4.225   3.729  0.7600  1.7403  1.1966
  137MOL0     H18055   1.405   4.308   3.574 -2.0147  0.7003 -1.3393
  137MOL0     H18056   1.229   4.134   3.601 -0.4759 -1.5932  2.6090
  137MOL0     H18057   1.178   4.205   3.754 -1.2313 -2.3708 -1.1242
  137MOL0     H18058   1.082   4.397   3.651  1.3948  1.8931 -1.1632
  137MOL0     H18059   1.017   4.263   3.573 -0.5027  0.4474 -0.0416
  137MOL0     H18060   1.159   4.288   3.382  2.8617 -2.3132  3.2884
  137MOL0     H18061   1.252   4.411   3.459 -0.2355  0.4983  4.0758
  137MOL0     H18062   0.953   4.425   3.406  0.0885  0.7216  0.4012
  137MOL0     H18063   1.041   4.555   3.468 -2.4022 -0.1510  0.2306
  137MOL0     H18064   1.192   4.546   3.248 -0.3064 -0.9571 -1.1870
  137MOL0     H18065   1.014   4.601   3.232 -0.5590 -1.0820 -3.0110
  137MOL0     H18066   1.786   4.454   3.713 -2.5394  0.9858 -2.0340
  137MOL0     H18067   2.022   4.503   3.812 -1.0472 -2.9359  0.7669
  137MOL0     H18068   2.276   5.027   4.074 -0.5062 -1.4457  1.0063
  137MOL0     H18069   2.502   5.077   4.063 -1.9846 -0.0956  3.1432
  137MOL0     H18070   3.953   5.576   4.995  0.4745 -0.5785  2.0566
  137MOL0     H18071   4.044   5.771   5.140 -0.7996 -0.8230  0.3596
  137MOL0     H18072   4.492   5.745   5.465  1.8189 -0.0945  0.2312
  137MOL0     H18073   4.598   5.904   5.601  0.8745 -0.8713 -1.9355
  137MOL0     H18074   4.715   6.076   5.620  0.7525  1.2121  0.2101
  137MOL0     H18075   4.631   6.055   5.774  0.5010  0.5243 -0.5720
  137MOL0     H18076   4.648   6.285   5.838  1.4151 -1.7421  1.0272
  137MOL0     H18077   4.812   6.241   5.807  1.2282 -0.1826 -0.8420
  137MOL0     H18078   4.778   6.455   5.711  0.4419 -1.6959  1.7401
  137MOL0     H18079   4.640   6.391   5.614  0.6491  1.7405 -0.5136
  137MOL0     H18080   4.774   6.273   5.468 -0.5354  1.4339 -1.8128
  137MOL0     H18081   4.838   6.435   5.485  2.2878 -0.7570 -0.3688
  137MOL0     H18082   5.168   6.216   5.606  0.9511 -1.5164 -2.5163
  137MOL0     H18083   4.352   6.223   5.434  3.5686  1.0796 -1.7667
  137MOL0     H18084   4.281   6.070   5.266  2.5156  1.4482 -2.0448
  138MOL0     O18085   2.491   9.724   1.979 -0.8238  0.9272  1.2235
  138MOL0     C18086   2.453   9.834   1.998  0.3048 -0.3894 -0.7558
  138MOL0     O18087   2.328   9.872   1.993 -0.0137 -0.8597 -0.1023
  138MOL0     C18088   2.233   9.774   1.961 -0.1151  0.5312 -0.2626
  138MOL0     C18089   2.206   9.677   2.059 -0.1640  0.0630  0.5238
  138MOL0     C18090   2.102   9.575   2.030 -1.0260 -0.1295 -0.6681
  138MOL0     C18091   2.040   9.572   1.902 -0.3076 -0.0827 -0.0524
  138MOL0     O18092   1.941   9.480   1.862  0.1505 -0.2431 -0.2195
  138MOL0     C18093   1.870   9.411   1.955 -0.5973  0.7759  0.6943
  138MOL0     C18094   1.803   9.287   1.891 -0.2620  0.1184 -0.6284
  138MOL0     C18095   1.733   9.199   1.990 -0.4647 -0.1395  0.6124
  138MOL0     C18096   1.586   9.236   2.020 -1.2894 -0.1294 -0.4586
  138MOL0     C18097   1.519   9.147   2.122  0.0816  0.6658 -0.0780
  138MOL0     C18098   1.379   9.172   2.170 -0.2337  0.0874  0.2204
  138MOL0     C18099   1.287   9.181   2.048  0.7902 -0.3772  0.1160
  138MOL0     C18100   1.143   9.182   2.096  0.2348  0.0787  0.1198
  138MOL0     N18101   1.037   9.244   2.004  0.2699 -0.1207  0.0852
  138MOL0     C18102   0.961   9.176   1.914 -0.0910 -0.4208 -0.9423
  138MOL0     C18103   0.869   9.274   1.864  0.1448  0.2892  0.5098
  138MOL0     C18104   0.749   9.262   1.771  0.5890 -0.4136  0.3634
  138MOL0     C18105   0.603   9.244   1.836  0.0593  0.4967 -0.0537
  138MOL0     C18106   0.485   9.232   1.729  0.0509 -0.2356 -0.4423
  138MOL0     C18107   0.351   9.205   1.788 -0.7645  0.8020  0.3076
  138MOL0     O18108   0.358   9.084   1.863  0.5699 -0.1663 -0.0827
  138MOL0     C18109   0.239   9.038   1.912  0.6461  0.5361  0.7515
  138MOL0     C18110   0.100   9.065   1.872 -0.4561  0.1652  1.2116
  138MOL0     C18111  -0.011   9.009   1.938  0.2803 -0.1466 -0.0956
  138MOL0     C18112   0.003   8.913   2.030  0.8274  1.1383  0.0289
  138MOL0     C18113  -0.125   8.853   2.085 -0.1907  0.2349 -0.4250
  138MOL0     O18114  -0.105   8.738   2.151  0.2003  0.5203 -0.6581
  138MOL0     C18115  -0.217   8.672   2.193  0.8634  0.0229 -0.9633
  138MOL0     C18116  -0.292   8.612   2.095  0.4191 -0.5158 -0.6485
  138MOL0     C18117  -0.399   8.533   2.134  0.2924  0.7314  0.3033
  138MOL0     C18118  -0.443   8.511   2.267 -0.4057  0.0497  0.7741
  138MOL0     O18119  -0.542   8.423   2.300 -0.0599 -0.7256 -0.0610
  138MOL0     C18120  -0.536   8.358   2.430  0.3025  0.9523  0.4403
  138MOL0     C18121  -0.659   8.278   2.445 -0.2357  0.2285  0.2963
  138MOL0     C18122  -0.681   8.176   2.335  0.4335 -0.5783 -0.1956
  138MOL0     C18123  -0.831   8.135   2.325 -0.3215  0.2991 -0.6842
  138MOL0     C18124  -0.855   7.998   2.253 -0.4031 -0.4128 -0.9311
  138MOL0     C18125  -0.859   7.998   2.109 -0.0908 -0.5344 -0.1797
  138MOL0     C18126  -0.868   7.865   2.058  0.3621  0.1281  1.1710
  138MOL0     C18127  -0.875   7.846   1.912 -0.2727  0.6646 -0.3491
  138MOL0    Cl18128  -0.716   7.889   1.850 -0.3186 -0.0085  0.1229
  138MOL0     C18129  -0.363   8.571   2.366  0.3963  0.4688  1.2238
  138MOL0     C18130  -0.249   8.651   2.333 -0.4850  0.2957 -0.3678
  138MOL0     O18131  -0.233   8.903   2.061  0.8191 -0.0246  0.1621
  138MOL0     C18132   0.137   8.878   2.073  0.7069  0.7881  0.5746
  138MOL0     C18133   0.245   8.940   2.018  0.9588  1.0721 -0.4434
  138MOL0     N18134   0.905   9.391   1.911 -0.5276 -0.3547 -0.6138
  138MOL0     N18135   1.004   9.375   1.989 -0.3405  0.2249 -0.0395
  138MOL0     C18136   2.086   9.669   1.806  1.0054 -0.5968 -0.8392
  138MOL0     C18137   2.182   9.763   1.830 -0.2572  0.3630  0.0304
  138MOL0     C18138   2.567   9.927   2.007 -0.2396  0.3525 -0.3829
  138MOL0     C18139   2.696   9.878   2.042  1.2239 -0.1054 -1.0195
  138MOL0     C18140   2.809   9.967   2.041  0.2282 -0.1462  0.2228
  138MOL0     C18141   2.788  10.104   2.023  0.3007 -0.0969 -0.2988
  138MOL0     O18142   2.898  10.183   2.041  0.1588  0.2208 -0.8418
  138MOL0     C18143   2.910  10.317   1.991  0.2354  0.4297  0.0314
  138MOL0     C18144   3.029  10.391   2.050  0.5282 -0.0496 -0.2454
  138MOL0     C18145   3.035  10.528   1.994 -1.0700  0.3571 -0.3073
  138MOL0     C18146   3.152  10.604   2.050 -1.1315  0.0359  0.7623
  138MOL0     C18147   3.163  10.744   2.003 -0.8494 -0.1604 -0.2101
  138MOL0     C18148   3.191  10.851   1.956  0.6087 -0.4049  0.7928
  138MOL0     C18149   2.653  10.156   2.000 -0.1484  0.3689 -0.2010
  138MOL0     C18150   2.544  10.062   1.992  0.7642  0.7311 -0.0247
  138MOL0     H18151   2.242   9.675   2.162 -0.2032  0.3533  0.5454
  138MOL0     H18152   2.081   9.493   2.099 -0.5167 -1.3257 -1.8845
  138MOL0     H18153   1.795   9.481   1.993 -1.3085 -0.9066  2.4933
  138MOL0     H18154   1.935   9.372   2.034 -3.3571 -1.7940  1.8747
  138MOL0     H18155   1.873   9.226   1.833 -2.5767 -1.2697 -2.1269
  138MOL0     H18156   1.734   9.311   1.810 -1.7947 -1.9691 -0.0249
  138MOL0     H18157   1.795   9.196   2.081  0.0450  2.2268  0.4098
  138MOL0     H18158   1.735   9.098   1.950 -1.3570 -0.6066  1.6992
  138MOL0     H18159   1.593   9.337   2.061 -1.4317 -0.8603  1.5008
  138MOL0     H18160   1.524   9.252   1.931 -1.3309  2.7818  0.0172
  138MOL0     H18161   1.586   9.137   2.208  0.0882 -2.1929 -0.3470
  138MOL0     H18162   1.524   9.052   2.068  4.8207  1.2696 -1.1533
  138MOL0     H18163   1.372   9.264   2.229 -0.5315  0.3459 -0.2073
  138MOL0     H18164   1.339   9.089   2.229  0.1868 -3.3498 -3.8234
  138MOL0     H18165   1.314   9.270   1.992  0.8454 -0.7607 -0.4752
  138MOL0     H18166   1.297   9.098   1.977  0.1466 -0.0913 -0.3211
  138MOL0     H18167   1.139   9.228   2.195 -0.1973 -2.3152  1.2967
  138MOL0     H18168   1.097   9.086   2.123 -3.3744  2.0134  1.5399
  138MOL0     H18169   0.965   9.068   1.904 -1.5734 -0.5629 -0.1788
  138MOL0     H18170   0.757   9.175   1.705 -1.2934  1.2808 -2.3240
  138MOL0     H18171   0.748   9.354   1.711 -0.8132 -0.4786  0.2416
  138MOL0     H18172   0.599   9.325   1.909  1.6115  1.1257 -0.6230
  138MOL0     H18173   0.618   9.152   1.893  3.1390  1.0756  0.2641
  138MOL0     H18174   0.485   9.329   1.677 -0.9760 -0.4583 -0.8882
  138MOL0     H18175   0.518   9.156   1.658 -0.2085 -0.0998 -0.7087
  138MOL0     H18176   0.274   9.203   1.711 -1.5812 -1.5189  1.1130
  138MOL0     H18177   0.319   9.286   1.854 -3.5437 -0.1789  0.3007
  138MOL0     H18178   0.085   9.135   1.791 -0.5223 -1.4646 -0.2529
  138MOL0     H18179  -0.110   9.048   1.914  0.1268  0.0339  0.7857
  138MOL0     H18180  -0.255   8.613   1.993  2.4992 -3.2563 -0.0725
  138MOL0     H18181  -0.456   8.488   2.053 -2.1705  3.2959  0.4448
  138MOL0     H18182  -0.536   8.425   2.516 -1.1852  0.9347  0.4731
  138MOL0     H18183  -0.449   8.292   2.433 -1.6792 -1.8157  0.4792
  138MOL0     H18184  -0.734   8.356   2.436 -1.3858 -0.9347 -0.6288
  138MOL0     H18185  -0.670   8.240   2.547  1.1906  0.7105  0.6558
  138MOL0     H18186  -0.624   8.085   2.359  0.9992  0.1713  1.4775
  138MOL0     H18187  -0.648   8.213   2.238 -0.7715 -0.1931 -0.4773
  138MOL0     H18188  -0.883   8.132   2.421 -0.8587  0.7346 -0.9585
  138MOL0     H18189  -0.892   8.208   2.271 -2.1218  2.4161  3.7580
  138MOL0     H18190  -0.953   7.972   2.296  1.2066  0.0826  3.6517
  138MOL0     H18191  -0.790   7.916   2.283  2.0860  0.8866 -2.4739
  138MOL0     H18192  -0.766   8.034   2.062  0.0176  0.2916  0.6463
  138MOL0     H18193  -0.944   8.064   2.089  0.9142  0.9824  0.3523
  138MOL0     H18194  -0.778   7.806   2.080 -0.3505 -1.7111 -0.5177
  138MOL0     H18195  -0.953   7.813   2.103  0.5938 -1.3247  0.0359
  138MOL0     H18196  -0.941   7.918   1.863 -0.4831  0.3494 -0.5328
  138MOL0     H18197  -0.895   7.745   1.875  0.9121  0.6919 -1.0976
  138MOL0     H18198  -0.382   8.563   2.473 -2.0307  1.0831  0.8940
  138MOL0     H18199  -0.185   8.690   2.411 -0.4554 -0.7906  0.1652
  138MOL0     H18200   0.135   8.806   2.154 -3.1414 -2.9738 -2.3734
  138MOL0     H18201   0.337   8.914   2.068  0.8947 -1.9598 -1.7329
  138MOL0     H18202   2.022   9.663   1.719  1.5266 -2.0349 -1.1533
  138MOL0     H18203   2.211   9.830   1.751  2.0699  0.0322  0.5226
  138MOL0     H18204   2.718   9.773   2.056  3.1801  0.5211  1.2086
  138MOL0     H18205   2.909   9.928   2.059  1.3886  1.7966 -1.6387
  138MOL0     H18206   2.814  10.364   2.016 -0.5364 -1.8357  1.6950
  138MOL0     H18207   2.929  10.305   1.884 -0.6293 -2.5283  0.0978
  138MOL0     H18208   3.027  10.404   2.158  0.4372 -2.5859  0.1182
  138MOL0     H18209   3.116  10.334   2.015 -0.1194 -0.3971 -1.3721
  138MOL0     H18210   2.944  10.587   2.010 -3.3091 -2.5332 -1.3851
  138MOL0     H18211   3.033  10.522   1.885 -2.2188 -1.1119 -0.2413
  138MOL0     H18212   3.138  10.595   2.158  1.3877  2.8749  1.4617
  138MOL0     H18213   3.244  10.550   2.026 -0.5680  1.7996 -1.3453
  138MOL0     H18214   3.229  10.942   1.915  2.2260 -1.5752 -0.4284
  138MOL0     H18215   2.629  10.262   1.995  1.3604  0.6879 -2.6945
  138MOL0     H18216   2.446  10.107   1.983  1.2849  1.8221 -0.3159
  139MOL0     O18217   4.202   7.901   6.759  0.5803  0.1390  0.1193
  139MOL0     C18218   4.215   7.971   6.658 -0.3282 -0.1269 -0.2058
  139MOL0     O18219   4.122   8.027   6.584  0.1276 -0.1159  0.3865
  139MOL0     C18220   3.990   8.019   6.597 -0.0272  0.5988  0.1857
  139MOL0     C18221   3.920   7.922   6.676  0.1550 -0.6088 -1.1803
  139MOL0     C18222   3.784   7.937   6.708  0.3960 -0.2876 -0.5173
  139MOL0     C18223   3.704   8.031   6.644  0.3324 -0.2127  0.0207
  139MOL0     O18224   3.570   8.055   6.669 -0.2440 -0.1761  0.1975
  139MOL0     C18225   3.497   7.947   6.730 -0.1214  0.2218  0.2005
  139MOL0     C18226   3.351   7.993   6.736  0.0392  1.5575  0.2819
  139MOL0     C18227   3.249   7.882   6.713  0.9297 -0.4512 -0.5345
  139MOL0     C18228   3.108   7.945   6.700  0.0089 -0.2848 -0.7166
  139MOL0     C18229   3.007   7.827   6.677  0.2305  0.0095  0.9859
  139MOL0     C18230   2.870   7.894   6.656  1.8340  0.4186 -0.4242
  139MOL0     C18231   2.758   7.784   6.674 -0.6697  0.3038 -0.0426
  139MOL0     C18232   2.623   7.850   6.688  0.2687  0.0493  0.2545
  139MOL0     N18233   2.523   7.810   6.589  0.2570 -0.0200  0.2855
  139MOL0     C18234   2.528   7.848   6.451 -0.8193  0.6775 -0.1372
  139MOL0     C18235   2.405   7.807   6.401 -0.4237  0.3220  0.0950
  139MOL0     C18236   2.342   7.843   6.269 -0.2700 -0.0595 -0.5685
  139MOL0     C18237   2.250   7.962   6.285  0.3584  0.5634 -0.7313
  139MOL0     C18238   2.307   8.100   6.308 -0.5030  0.3230  0.8911
  139MOL0     C18239   2.404   8.142   6.199 -0.5347 -0.2749 -0.0353
  139MOL0     O18240   2.508   8.051   6.178  0.8309  0.7107  0.3339
  139MOL0     C18241   2.613   8.093   6.098 -1.1935 -0.9516  0.1197
  139MOL0     C18242   2.667   8.229   6.106  0.3008 -0.1476 -0.4590
  139MOL0     C18243   2.791   8.257   6.034 -0.0073  0.8044 -0.6523
  139MOL0     C18244   2.853   8.165   5.942 -0.0949  0.7124  1.0282
  139MOL0     C18245   2.977   8.183   5.869  0.4119 -0.6970 -0.3452
  139MOL0     O18246   3.007   8.317   5.846  0.0852  0.0119 -0.0254
  139MOL0     C18247   3.107   8.361   5.771 -0.6226 -0.1006 -0.3304
  139MOL0     C18248   3.206   8.447   5.828  0.3791 -0.7853  0.7283
  139MOL0     C18249   3.299   8.500   5.745  0.0151 -0.1714  0.7392
  139MOL0     C18250   3.299   8.470   5.604 -0.2155  0.3070 -0.5632
  139MOL0     O18251   3.395   8.518   5.512  0.5346 -0.9729 -0.1974
  139MOL0     C18252   3.468   8.639   5.552  0.1401  0.0257  0.2353
  139MOL0     C18253   3.589   8.679   5.453  0.0667  0.3389 -0.4513
  139MOL0     C18254   3.655   8.550   5.410  0.5301 -0.1353 -0.0618
  139MOL0     C18255   3.763   8.555   5.302 -0.8910  0.6744 -0.1876
  139MOL0     C18256   3.889   8.642   5.326  0.3907 -0.0309 -0.6247
  139MOL0     C18257   3.975   8.650   5.200  0.5460 -0.1380 -0.3973
  139MOL0     C18258   4.102   8.713   5.225  0.1755  0.2272 -0.9001
  139MOL0     C18259   4.165   8.763   5.095  0.2084 -0.4378  0.3512
  139MOL0    Cl18260   4.238   8.629   5.012 -0.6145  0.4295 -0.1080
  139MOL0     C18261   3.210   8.376   5.562 -0.9234 -0.6027 -0.1958
  139MOL0     C18262   3.114   8.316   5.638 -0.3546  0.3427 -0.6376
  139MOL0     O18263   3.044   8.092   5.832 -0.3024 -0.7623 -0.3115
  139MOL0     C18264   2.797   8.035   5.939  0.1965  0.1576 -0.7951
  139MOL0     C18265   2.681   8.002   6.017 -0.3880 -0.4192 -0.2500
  139MOL0     N18266   2.330   7.750   6.505 -1.0459  0.5948 -0.5660
  139MOL0     N18267   2.400   7.748   6.615 -0.5838  0.1678  0.3622
  139MOL0     C18268   3.766   8.111   6.551  0.3494 -0.4152  0.0735
  139MOL0     C18269   3.899   8.104   6.511 -0.0835 -0.0979 -0.4127
  139MOL0     C18270   4.346   8.003   6.619 -0.5505 -0.2736 -0.5230
  139MOL0     C18271   4.456   7.973   6.705  0.4535  0.8905 -0.1831
  139MOL0     C18272   4.595   7.981   6.661  0.0964 -0.7985 -0.0036
  139MOL0     C18273   4.626   8.032   6.534 -0.3501 -0.3491  0.2706
  139MOL0     O18274   4.756   8.055   6.496  0.2625 -0.0043  0.3504
  139MOL0     C18275   4.831   8.135   6.591 -0.3274  0.3213  0.1216
  139MOL0     C18276   4.923   8.228   6.509  0.7487 -0.3945  0.4538
  139MOL0     C18277   5.055   8.166   6.480  0.3657  0.5439 -0.7849
  139MOL0     C18278   5.155   8.269   6.442  0.6681 -0.3861  0.3334
  139MOL0     C18279   5.278   8.215   6.388  0.0141  0.0551  0.4815
  139MOL0     C18280   5.372   8.163   6.329 -0.6685  1.1468  0.2011
  139MOL0     C18281   4.513   8.053   6.447  0.3645 -0.0421 -0.3720
  139MOL0     C18282   4.381   8.059   6.494 -0.5294  0.4405 -0.8838
  139MOL0     H18283   3.971   7.839   6.724  2.3508  1.1894 -0.2352
  139MOL0     H18284   3.744   7.869   6.783  1.3383  2.7086  2.9786
  139MOL0     H18285   3.525   7.929   6.834  1.2334 -4.1316 -0.7382
  139MOL0     H18286   3.512   7.855   6.673  1.7158  0.6913 -0.1391
  139MOL0     H18287   3.346   8.060   6.649 -1.5380  2.5168  1.0792
  139MOL0     H18288   3.332   8.054   6.825  0.6797  1.2838  0.6125
  139MOL0     H18289   3.249   7.809   6.794  3.5724  1.0079  0.9109
  139MOL0     H18290   3.283   7.836   6.620  0.9676  2.7673 -2.2568
  139MOL0     H18291   3.083   8.000   6.791 -0.1014  1.2943 -1.6783
  139MOL0     H18292   3.112   8.020   6.621 -1.6095 -0.0436 -0.5969
  139MOL0     H18293   2.998   7.766   6.767  0.6759 -2.3374 -0.4790
  139MOL0     H18294   3.041   7.758   6.600  0.4015  0.0956  0.9843
  139MOL0     H18295   2.853   7.952   6.565 -4.0500 -2.1801 -1.4737
  139MOL0     H18296   2.858   7.965   6.738  0.1018  0.3981 -0.6233
  139MOL0     H18297   2.763   7.706   6.598  1.6798  0.5947 -0.2637
  139MOL0     H18298   2.780   7.737   6.771 -3.4044  0.3219  0.6756
  139MOL0     H18299   2.639   7.956   6.666  0.1570 -0.5557 -3.2270
  139MOL0     H18300   2.588   7.827   6.789  0.2391 -1.2674 -0.0414
  139MOL0     H18301   2.599   7.912   6.400 -0.1854  1.5994  1.8164
  139MOL0     H18302   2.288   7.754   6.236  0.9548  0.2159 -3.5656
  139MOL0     H18303   2.418   7.853   6.191  2.4642 -4.0684  1.2281
  139MOL0     H18304   2.175   7.947   6.363 -1.3500  3.4955 -1.6630
  139MOL0     H18305   2.186   7.970   6.196 -0.8459 -3.4506 -0.4378
  139MOL0     H18306   2.223   8.169   6.306 -1.4163 -0.6070  3.3276
  139MOL0     H18307   2.357   8.099   6.405  1.0617  0.1555  0.1112
  139MOL0     H18308   2.448   8.231   6.246 -3.9367  2.5556 -1.7441
  139MOL0     H18309   2.336   8.162   6.116 -2.9989 -1.9673  1.4447
  139MOL0     H18310   2.631   8.292   6.187 -0.8530 -1.3828  0.0376
  139MOL0     H18311   2.822   8.360   6.048 -2.4319  1.3417  1.4393
  139MOL0     H18312   3.195   8.486   5.929  1.5922  1.7017 -0.0267
  139MOL0     H18313   3.380   8.560   5.786 -0.5594 -0.5580  2.5340
  139MOL0     H18314   3.521   8.618   5.646  0.1662 -1.4769 -0.0974
  139MOL0     H18315   3.405   8.726   5.573 -1.5353 -0.4958 -2.2526
  139MOL0     H18316   3.660   8.747   5.502  0.6602 -1.2671  1.0367
  139MOL0     H18317   3.545   8.729   5.366 -1.1703  0.1594  0.0524
  139MOL0     H18318   3.588   8.475   5.366  2.1063  0.0303 -3.0169
  139MOL0     H18319   3.697   8.509   5.503 -0.7148  1.9310  1.4817
  139MOL0     H18320   3.797   8.454   5.280  1.9657  0.3586  4.2975
  139MOL0     H18321   3.719   8.590   5.208  1.6153 -1.4567 -2.2990
  139MOL0     H18322   3.958   8.592   5.394 -1.0724  0.7219  1.5027
  139MOL0     H18323   3.861   8.740   5.365 -1.5851  0.8240 -3.7532
  139MOL0     H18324   3.930   8.720   5.129  2.1286  1.1672 -0.1846
  139MOL0     H18325   3.988   8.558   5.142  1.4358  1.0865 -2.2540
  139MOL0     H18326   4.084   8.802   5.286  2.2216  0.7186 -0.9318
  139MOL0     H18327   4.164   8.637   5.273 -1.4166  0.0680  1.0217
  139MOL0     H18328   4.245   8.834   5.114 -1.8714  1.3424  3.3109
  139MOL0     H18329   4.104   8.811   5.017  4.9767 -2.0173 -5.0043
  139MOL0     H18330   3.214   8.352   5.456  0.8932  2.6880 -1.0216
  139MOL0     H18331   3.041   8.247   5.596 -0.2873 -1.1203  1.5246
  139MOL0     H18332   2.834   7.959   5.869 -0.7532 -0.4536 -0.6534
  139MOL0     H18333   2.641   7.901   6.024  2.6542 -1.6380  1.4533
  139MOL0     H18334   3.696   8.172   6.493 -1.0108 -1.0015  1.0397
  139MOL0     H18335   3.950   8.171   6.444  0.9354  0.7313  1.1275
  139MOL0     H18336   4.431   7.930   6.802 -0.2259  0.5585 -0.4962
  139MOL0     H18337   4.673   7.949   6.730 -1.8042 -1.8306  1.7932
  139MOL0     H18338   4.888   8.064   6.653  1.3401 -1.2948 -3.0104
  139MOL0     H18339   4.759   8.196   6.646 -1.8278 -0.8500 -0.4595
  139MOL0     H18340   4.862   8.260   6.424 -0.1197  1.2614  1.6411
  139MOL0     H18341   4.935   8.327   6.556 -2.0044  1.0778 -1.6434
  139MOL0     H18342   5.040   8.093   6.400 -0.8900  0.7700 -0.7806
  139MOL0     H18343   5.106   8.113   6.561  1.8438  1.0383 -1.3686
  139MOL0     H18344   5.107   8.343   6.376 -1.3538 -2.3825 -0.5789
  139MOL0     H18345   5.178   8.314   6.539  1.9732  1.2597 -0.6898
  139MOL0     H18346   5.434   8.099   6.270  0.5741  0.9453  1.6888
  139MOL0     H18347   4.530   8.091   6.347  4.6730  0.4312  0.3609
  139MOL0     H18348   4.303   8.087   6.423 -1.5337  3.1601  1.1165
  140MOL0     O18349   3.020   8.683   9.293 -0.1305 -0.1461  0.5839
  140MOL0     C18350   3.053   8.662   9.180 -0.2340  1.4677 -0.2222
  140MOL0     O18351   3.040   8.535   9.112 -0.0447 -0.0531  0.1037
  140MOL0     C18352   3.014   8.426   9.186  0.7819 -0.8056  0.4553
  140MOL0     C18353   2.883   8.406   9.207  0.0571  0.2925  0.2432
  140MOL0     C18354   2.853   8.283   9.268 -0.0439 -0.1044 -0.0563
  140MOL0     C18355   2.947   8.181   9.296 -0.5131 -0.3071 -0.7479
  140MOL0     O18356   2.905   8.062   9.342 -0.6627 -0.5641  0.0992
  140MOL0     C18357   2.781   8.039   9.397  0.2818 -0.8936  0.3261
  140MOL0     C18358   2.781   7.887   9.423  0.1032 -0.5346 -0.3912
  140MOL0     C18359   2.639   7.852   9.481 -0.4056 -0.9988  0.3655
  140MOL0     C18360   2.634   7.707   9.451  0.9418  0.6121 -0.4145
  140MOL0     C18361   2.503   7.658   9.505  0.0710  0.6056  0.4331
  140MOL0     C18362   2.476   7.512   9.474  0.2300 -0.0915  0.1300
  140MOL0     C18363   2.401   7.482   9.349  0.1990  1.0844  1.0460
  140MOL0     C18364   2.393   7.329   9.312  0.2157  0.3225  0.9548
  140MOL0     N18365   2.261   7.284   9.252  0.6494  0.1352  0.0716
  140MOL0     C18366   2.146   7.214   9.309 -0.0279  0.6739 -0.3528
  140MOL0     C18367   2.059   7.208   9.212 -0.0186  0.8253  1.6194
  140MOL0     C18368   1.917   7.160   9.209 -0.7475  1.3052  1.2234
  140MOL0     C18369   1.882   7.106   9.069  0.6903 -0.0343 -0.3829
  140MOL0     C18370   1.748   7.029   9.078 -0.8274  1.0167  0.6182
  140MOL0     C18371   1.626   7.101   9.124 -0.2667  0.2403  0.4539
  140MOL0     O18372   1.516   7.039   9.060 -0.0214 -0.3388 -0.2968
  140MOL0     C18373   1.390   7.100   9.058 -0.4947 -0.4477  0.2572
  140MOL0     C18374   1.371   7.222   9.122 -0.0495 -0.1351  0.3737
  140MOL0     C18375   1.236   7.265   9.132  0.1035 -0.6067  0.0105
  140MOL0     C18376   1.128   7.184   9.081  0.5020  0.1733 -0.5759
  140MOL0     C18377   0.986   7.228   9.089 -0.9927 -0.0954  0.1020
  140MOL0     O18378   0.889   7.158   9.025 -0.5771  1.2186 -0.5140
  140MOL0     C18379   0.759   7.201   9.016 -0.0119  0.0705 -1.0524
  140MOL0     C18380   0.655   7.116   8.983  0.7564  0.5889 -0.3507
  140MOL0     C18381   0.526   7.156   8.958 -0.0557 -0.2750  0.3108
  140MOL0     C18382   0.490   7.292   8.970 -0.2063 -0.9063  0.6899
  140MOL0     O18383   0.367   7.351   8.948  0.4881 -0.6030 -0.4621
  140MOL0     C18384   0.264   7.278   8.860  0.0944 -0.2231 -0.7088
  140MOL0     C18385   0.127   7.356   8.871  0.3108 -1.0195 -0.3738
  140MOL0     C18386   0.010   7.287   8.782 -0.0362 -0.0761  0.7883
  140MOL0     C18387  -0.140   7.337   8.787 -0.0238 -0.4243  0.7004
  140MOL0     C18388  -0.237   7.244   8.712  0.7637  0.1336 -0.3138
  140MOL0     C18389  -0.387   7.294   8.727 -1.0670 -0.5339 -0.2632
  140MOL0     C18390  -0.483   7.244   8.621  0.1303  0.2944  0.1142
  140MOL0     C18391  -0.600   7.332   8.646 -0.0735  0.8399 -1.2095
  140MOL0    Cl18392  -0.729   7.304   8.527 -0.1665 -0.0322 -0.1466
  140MOL0     C18393   0.592   7.382   9.004 -0.1613 -0.4987 -0.1960
  140MOL0     C18394   0.725   7.341   9.023 -0.1792  0.0057 -0.0558
  140MOL0     O18395   0.963   7.321   9.166  0.0010  1.1646 -0.7832
  140MOL0     C18396   1.160   7.061   9.026 -0.4153 -0.3273 -0.8156
  140MOL0     C18397   1.286   7.013   9.023  0.8725 -0.4197 -0.5932
  140MOL0     N18398   2.118   7.259   9.093 -0.0335  1.0275 -0.1215
  140MOL0     N18399   2.238   7.296   9.117 -0.5974 -0.3270 -0.2289
  140MOL0     C18400   3.086   8.220   9.297 -0.6921 -0.2713  0.9726
  140MOL0     C18401   3.116   8.338   9.234 -0.3656 -0.7144  0.0335
  140MOL0     C18402   3.124   8.760   9.096 -0.8337 -0.2430  0.0938
  140MOL0     C18403   3.145   8.735   8.957  0.4558 -1.5318 -0.3077
  140MOL0     C18404   3.204   8.835   8.880 -0.5028 -0.4183 -0.0694
  140MOL0     C18405   3.237   8.963   8.932 -0.4210  0.2913  0.2422
  140MOL0     O18406   3.291   9.063   8.852  0.3171  0.3817  0.0475
  140MOL0     C18407   3.395   9.017   8.766  0.6000 -0.0902  0.7658
  140MOL0     C18408   3.527   9.101   8.783  0.2817 -0.1470  0.3867
  140MOL0     C18409   3.507   9.248   8.725 -0.1690 -0.0807 -0.2519
  140MOL0     C18410   3.635   9.328   8.732  0.4080 -0.5715 -0.3107
  140MOL0     C18411   3.603   9.458   8.675 -0.4649  0.1817 -0.9732
  140MOL0     C18412   3.574   9.562   8.625 -0.3169 -0.0969  0.0039
  140MOL0     C18413   3.220   8.991   9.068 -0.3608 -0.8312  0.1550
  140MOL0     C18414   3.157   8.888   9.140 -0.3398  0.3143  0.3598
  140MOL0     H18415   2.812   8.476   9.165  0.0986 -0.5396 -1.3088
  140MOL0     H18416   2.745   8.268   9.275 -0.3971  1.1106 -2.2159
  140MOL0     H18417   2.703   8.061   9.323  0.8018  0.5626  0.1824
  140MOL0     H18418   2.751   8.097   9.485 -1.2283 -1.3224  0.1266
  140MOL0     H18419   2.862   7.859   9.491  1.3931  1.7842 -0.8566
  140MOL0     H18420   2.794   7.835   9.328  0.0968  0.6271 -1.0432
  140MOL0     H18421   2.569   7.895   9.408  1.4062 -3.1912 -2.9537
  140MOL0     H18422   2.610   7.887   9.580 -2.2723  1.3706 -0.8928
  140MOL0     H18423   2.640   7.687   9.344 -2.2642  2.2967 -1.0692
  140MOL0     H18424   2.716   7.650   9.494 -1.5522 -2.9665  0.0468
  140MOL0     H18425   2.422   7.718   9.465 -1.4176 -0.2789  1.9897
  140MOL0     H18426   2.485   7.674   9.612 -2.4553 -0.0034  0.1486
  140MOL0     H18427   2.427   7.476   9.565  1.6989 -0.8531  0.6621
  140MOL0     H18428   2.572   7.459   9.468  0.8574  0.3327  3.8971
  140MOL0     H18429   2.298   7.520   9.351 -0.3752 -0.3882  0.4386
  140MOL0     H18430   2.449   7.539   9.268 -2.4985 -2.2981 -3.3913
  140MOL0     H18431   2.397   7.263   9.399 -2.0392 -2.2847 -0.7813
  140MOL0     H18432   2.472   7.293   9.245 -0.2398 -0.1458  0.6643
  140MOL0     H18433   2.145   7.175   9.410  3.0118 -1.1339 -0.8791
  140MOL0     H18434   1.846   7.241   9.227  3.5695  5.9473 -0.2961
  140MOL0     H18435   1.913   7.084   9.287 -0.9162 -1.1893 -1.0582
  140MOL0     H18436   1.956   7.035   9.031  0.3940  0.1490 -1.3273
  140MOL0     H18437   1.860   7.192   9.006 -0.4903 -0.3792 -0.4754
  140MOL0     H18438   1.736   7.004   8.973  2.5750  0.7802  0.1587
  140MOL0     H18439   1.756   6.941   9.142 -2.3904  1.2628  1.1754
  140MOL0     H18440   1.637   7.208   9.104 -2.5814  0.5086  0.2752
  140MOL0     H18441   1.616   7.101   9.233 -0.3948 -0.9397  0.4521
  140MOL0     H18442   1.454   7.287   9.148 -1.3127  1.6422  0.1159
  140MOL0     H18443   1.215   7.366   9.167  2.3427  1.0847 -2.9996
  140MOL0     H18444   0.677   7.010   8.968 -1.8017 -0.0157 -0.3173
  140MOL0     H18445   0.465   7.074   8.921  1.1086 -2.5868  3.1529
  140MOL0     H18446   0.251   7.170   8.877  2.2197 -1.1592 -4.0806
  140MOL0     H18447   0.299   7.278   8.756 -0.5437  0.9065 -0.9349
  140MOL0     H18448   0.148   7.458   8.837  0.0925 -0.3509  1.3916
  140MOL0     H18449   0.095   7.342   8.975 -2.0213  0.0736 -0.8731
  140MOL0     H18450  -0.007   7.182   8.808 -2.6320  0.0187 -0.1539
  140MOL0     H18451   0.042   7.290   8.678 -1.9896 -1.3958  0.0922
  140MOL0     H18452  -0.174   7.369   8.886 -4.3608  1.9607 -1.2798
  140MOL0     H18453  -0.138   7.437   8.742  0.5466 -0.6381  0.2368
  140MOL0     H18454  -0.225   7.153   8.770  1.9359 -1.2987 -2.6617
  140MOL0     H18455  -0.201   7.237   8.609 -3.2910 -0.1010 -1.8726
  140MOL0     H18456  -0.392   7.403   8.722 -1.8645 -0.5784 -0.5441
  140MOL0     H18457  -0.405   7.254   8.828  5.4219 -0.5637  1.3306
  140MOL0     H18458  -0.441   7.238   8.521  3.1166  2.6386  1.0629
  140MOL0     H18459  -0.518   7.142   8.642  1.4266 -0.2672 -0.3764
  140MOL0     H18460  -0.569   7.436   8.648  0.2200  0.7826  1.7380
  140MOL0     H18461  -0.642   7.322   8.747 -4.1390 -0.5981 -2.8084
  140MOL0     H18462   0.581   7.489   9.016  2.5956  0.0362 -1.6230
  140MOL0     H18463   0.795   7.418   9.055  1.0025  0.1091 -2.6451
  140MOL0     H18464   1.077   7.000   8.990 -0.5004 -2.5509  2.6252
  140MOL0     H18465   1.314   6.916   8.984 -0.4616 -0.9049 -0.4226
  140MOL0     H18466   3.159   8.155   9.345 -0.2451 -0.9224 -0.5285
  140MOL0     H18467   3.222   8.356   9.218  0.3477 -3.9779  0.3894
  140MOL0     H18468   3.107   8.640   8.921  0.8909 -1.0562 -2.0920
  140MOL0     H18469   3.231   8.809   8.779 -1.7378  0.6804 -0.7208
  140MOL0     H18470   3.355   9.020   8.664 -1.4169 -1.6191  1.4503
  140MOL0     H18471   3.424   8.912   8.781  2.1469  0.1864 -0.0539
  140MOL0     H18472   3.549   9.115   8.889  1.7483  2.9888 -0.1935
  140MOL0     H18473   3.607   9.046   8.732  1.6255 -0.0235  2.2709
  140MOL0     H18474   3.431   9.300   8.785  2.8309  3.0801  1.1706
  140MOL0     H18475   3.470   9.233   8.623 -2.2487 -1.1979  0.6021
  140MOL0     H18476   3.666   9.342   8.836 -1.8048  2.3400  0.1014
  140MOL0     H18477   3.717   9.274   8.684 -0.2790 -1.6268 -0.3350
  140MOL0     H18478   3.543   9.654   8.581 -1.0568 -1.9949 -3.8241
  140MOL0     H18479   3.266   9.078   9.114  0.0660  0.2601 -2.2372
  140MOL0     H18480   3.130   8.893   9.245 -0.2060 -2.3568  0.5893
  141MOL0     O18481   7.548   4.540   2.817  0.2650 -0.2116 -0.6351
  141MOL0     C18482   7.625   4.508   2.727  0.1853  0.6386  0.3559
  141MOL0     O18483   7.599   4.421   2.633  0.1376  0.7838 -0.2912
  141MOL0     C18484   7.479   4.367   2.621 -0.2529 -0.0716  0.0102
  141MOL0     C18485   7.363   4.356   2.705 -1.5111 -0.0420  0.6553
  141MOL0     C18486   7.245   4.301   2.657 -1.0901 -0.3789 -0.3335
  141MOL0     C18487   7.230   4.245   2.530  0.3956 -0.0323 -0.0267
  141MOL0     O18488   7.106   4.201   2.492  0.9700  0.6524 -0.4391
  141MOL0     C18489   7.074   4.065   2.521 -0.5322 -0.5561 -0.4371
  141MOL0     C18490   6.931   4.037   2.507  0.5573 -0.1339  0.0810
  141MOL0     C18491   6.891   3.894   2.534 -0.2758  0.4677 -0.1759
  141MOL0     C18492   6.757   3.872   2.470  0.7415  1.0874 -0.6729
  141MOL0     C18493   6.638   3.910   2.565 -0.5071 -0.1797 -0.8985
  141MOL0     C18494   6.589   3.789   2.649 -0.9897 -0.7191  0.3361
  141MOL0     C18495   6.478   3.826   2.736  0.9815  0.3830  0.0772
  141MOL0     C18496   6.348   3.752   2.690 -0.6210 -0.2423  0.5740
  141MOL0     N18497   6.271   3.813   2.580  0.0965  0.9762  0.2751
  141MOL0     C18498   6.243   3.941   2.567 -0.5922  0.9600  0.7577
  141MOL0     C18499   6.133   3.963   2.490 -0.8679 -0.0342  0.0838
  141MOL0     C18500   6.078   4.093   2.432 -0.1191 -0.4279 -0.5908
  141MOL0     C18501   5.941   4.120   2.500  0.3781  0.4248  0.0234
  141MOL0     C18502   5.958   4.159   2.645  0.6012  0.0007  0.3300
  141MOL0     C18503   5.814   4.195   2.700 -0.1525 -0.0175  0.2457
  141MOL0     O18504   5.764   4.317   2.643 -0.0081 -0.6347  0.0674
  141MOL0     C18505   5.632   4.324   2.646  0.0918 -0.0421  0.0288
  141MOL0     C18506   5.540   4.228   2.591  0.2162 -0.0994  0.3408
  141MOL0     C18507   5.408   4.249   2.592  0.2781 -0.7232 -0.1041
  141MOL0     C18508   5.354   4.351   2.661  0.9591 -0.8038 -0.4291
  141MOL0     C18509   5.197   4.365   2.660 -0.2870  0.5576  0.0678
  141MOL0     O18510   5.150   4.482   2.694  0.9359 -0.0566  0.1594
  141MOL0     C18511   5.016   4.515   2.685  0.1107 -0.0538  0.1716
  141MOL0     C18512   4.973   4.606   2.775 -0.9323 -0.3820 -0.4625
  141MOL0     C18513   4.847   4.654   2.775  0.8072  0.7296 -0.5563
  141MOL0     C18514   4.742   4.605   2.690  0.2436  0.5606  0.0568
  141MOL0     O18515   4.609   4.634   2.703  0.1116  0.6791  0.2018
  141MOL0     C18516   4.562   4.765   2.743 -0.6065  0.2793  0.4167
  141MOL0     C18517   4.410   4.765   2.751  0.3936 -0.2986 -0.0854
  141MOL0     C18518   4.356   4.910   2.776 -0.1940  0.5222  0.0380
  141MOL0     C18519   4.216   4.928   2.837 -0.8738  0.2905 -0.4785
  141MOL0     C18520   4.169   5.065   2.796  0.1422  0.4709  0.0348
  141MOL0     C18521   4.093   5.063   2.662 -0.1765  0.3167  0.4350
  141MOL0     C18522   3.998   5.183   2.635  0.2407  0.3856 -0.4641
  141MOL0     C18523   3.942   5.177   2.491  0.1679  0.2795 -0.2539
  141MOL0    Cl18524   3.828   5.043   2.476  0.1617  0.3899 -0.3479
  141MOL0     C18525   4.786   4.502   2.601  0.1670 -0.7585 -1.0527
  141MOL0     C18526   4.920   4.470   2.590 -0.0603 -0.0098  0.3701
  141MOL0     O18527   5.126   4.273   2.621  0.2062 -0.4239 -0.5478
  141MOL0     C18528   5.439   4.449   2.707 -0.5049 -0.5027  0.4265
  141MOL0     C18529   5.578   4.439   2.703 -0.1210 -0.6084  0.3767
  141MOL0     N18530   6.094   3.832   2.456  0.3375  0.4624 -0.5890
  141MOL0     N18531   6.172   3.749   2.518 -0.7226  0.8864  0.4732
  141MOL0     C18532   7.337   4.257   2.446 -0.2173  0.1179 -0.0942
  141MOL0     C18533   7.464   4.313   2.491 -0.2337 -0.2978  0.0266
  141MOL0     C18534   7.759   4.567   2.721 -0.3394 -0.4539 -0.4779
  141MOL0     C18535   7.850   4.533   2.612 -0.0776 -0.5545 -0.8700
  141MOL0     C18536   7.974   4.589   2.599 -0.2202 -0.1549  0.9536
  141MOL0     C18537   8.023   4.675   2.695 -0.5294  0.0320 -0.2210
  141MOL0     O18538   8.152   4.714   2.680 -0.2173 -0.0881  0.3411
  141MOL0     C18539   8.203   4.821   2.754 -0.5721  0.0869 -0.5495
  141MOL0     C18540   8.336   4.863   2.688  0.2254  0.1594  0.0307
  141MOL0     C18541   8.309   4.941   2.560 -0.3334  0.1240 -0.2294
  141MOL0     C18542   8.430   5.028   2.525  0.1357  0.2595  0.3260
  141MOL0     C18543   8.552   4.948   2.517 -0.4244 -0.0164 -0.5225
  141MOL0     C18544   8.650   4.879   2.536 -0.3935 -0.2111 -0.5063
  141MOL0     C18545   7.933   4.721   2.789  0.4396 -0.1693 -0.7074
  141MOL0     C18546   7.806   4.674   2.808  0.6301 -0.2961 -0.0577
  141MOL0     H18547   7.365   4.399   2.805 -1.0695  2.2944 -0.3148
  141MOL0     H18548   7.165   4.305   2.730 -0.7375  2.0423 -0.0026
  141MOL0     H18549   7.097   4.046   2.626 -2.1904 -1.5944 -0.2284
  141MOL0     H18550   7.139   4.004   2.458  0.3884 -0.0612  0.0149
  141MOL0     H18551   6.915   4.059   2.401  0.8067 -0.1533  0.0397
  141MOL0     H18552   6.865   4.100   2.567 -0.7046 -0.7427 -0.6131
  141MOL0     H18553   6.905   3.863   2.638 -2.8708 -2.4932 -0.5723
  141MOL0     H18554   6.947   3.823   2.473 -1.1141 -1.6518  1.4161
  141MOL0     H18555   6.741   3.932   2.380 -0.3445 -0.7589 -1.7810
  141MOL0     H18556   6.747   3.766   2.444  1.5469  1.2918 -1.9201
  141MOL0     H18557   6.555   3.948   2.505 -0.6797 -1.3063 -1.4125
  141MOL0     H18558   6.674   3.990   2.630  0.3804 -0.0820 -1.4924
  141MOL0     H18559   6.671   3.747   2.709 -1.1247 -2.2661 -0.5081
  141MOL0     H18560   6.558   3.703   2.589  1.6567 -0.3910 -1.6867
  141MOL0     H18561   6.490   3.796   2.840  0.7142  3.0437  0.9449
  141MOL0     H18562   6.476   3.935   2.742 -1.4338  0.3076  3.4502
  141MOL0     H18563   6.285   3.753   2.779 -2.4710  0.2551 -0.6784
  141MOL0     H18564   6.375   3.650   2.663 -0.2385 -0.0067  0.0586
  141MOL0     H18565   6.300   4.017   2.621  1.9646 -1.1134  1.2216
  141MOL0     H18566   6.062   4.086   2.324 -0.1024  0.5245 -0.6667
  141MOL0     H18567   6.145   4.176   2.454  0.0780 -0.9438  0.8789
  141MOL0     H18568   5.872   4.036   2.481  1.8211 -0.3820 -2.1205
  141MOL0     H18569   5.897   4.206   2.449 -0.2376  0.8402  1.2320
  141MOL0     H18570   5.989   4.070   2.702 -4.1916 -1.8125  0.5640
  141MOL0     H18571   6.024   4.246   2.651  1.8863 -0.8827 -0.3655
  141MOL0     H18572   5.828   4.214   2.807 -0.5261 -1.3534  0.5534
  141MOL0     H18573   5.758   4.103   2.679  2.3422 -0.9141 -3.5730
  141MOL0     H18574   5.578   4.151   2.525 -1.4292  1.3488 -2.4908
  141MOL0     H18575   5.335   4.182   2.548  0.9634 -1.3931 -0.2538
  141MOL0     H18576   5.054   4.638   2.840 -1.1863 -0.5757 -0.0446
  141MOL0     H18577   4.807   4.716   2.855 -1.4444 -0.6384 -0.5271
  141MOL0     H18578   4.599   4.815   2.654 -1.3095 -1.0603 -0.6731
  141MOL0     H18579   4.615   4.796   2.833 -2.5210  2.4725  0.8932
  141MOL0     H18580   4.382   4.695   2.830  0.3089 -3.3042 -2.6058
  141MOL0     H18581   4.370   4.725   2.657  0.9415 -0.3225 -0.3163
  141MOL0     H18582   4.360   4.973   2.686  1.1092  0.1260 -0.2098
  141MOL0     H18583   4.427   4.960   2.842 -1.0967  1.0562  0.6276
  141MOL0     H18584   4.147   4.852   2.801  0.0037 -0.1043 -1.3523
  141MOL0     H18585   4.224   4.921   2.946 -0.8338 -2.5179 -0.6026
  141MOL0     H18586   4.246   5.143   2.788  0.4394  0.0099 -2.5610
  141MOL0     H18587   4.103   5.088   2.880  2.1324  2.1101  1.2510
  141MOL0     H18588   4.027   4.976   2.663  0.7942 -0.4546 -0.7077
  141MOL0     H18589   4.159   5.058   2.575  0.4191  1.6714  0.7805
  141MOL0     H18590   3.910   5.185   2.701  1.2454 -2.3952  1.0997
  141MOL0     H18591   4.046   5.281   2.646 -1.1763  1.3614 -2.3409
  141MOL0     H18592   4.031   5.174   2.427  1.3901  0.8540  1.3418
  141MOL0     H18593   3.895   5.275   2.480  1.4926  0.9910  0.2465
  141MOL0     H18594   4.715   4.467   2.526 -2.6239  1.8021  0.1816
  141MOL0     H18595   4.959   4.399   2.518  1.2907  0.9542  0.1070
  141MOL0     H18596   5.397   4.546   2.733 -1.5075 -0.5870 -0.7519
  141MOL0     H18597   5.643   4.513   2.750 -0.1130  0.3442 -1.0729
  141MOL0     H18598   7.325   4.215   2.346  0.2277 -0.3492  0.0436
  141MOL0     H18599   7.552   4.326   2.428 -1.7940  0.3581 -2.1020
  141MOL0     H18600   7.820   4.456   2.541 -2.5943 -0.3185 -0.1688
  141MOL0     H18601   8.049   4.554   2.528 -0.4687  2.7083 -0.8548
  141MOL0     H18602   8.237   4.792   2.854  0.6571  0.2776 -0.8842
  141MOL0     H18603   8.125   4.897   2.764 -1.1408 -0.4687 -0.7568
  141MOL0     H18604   8.383   4.931   2.760  0.4631 -0.8889  0.8960
  141MOL0     H18605   8.396   4.775   2.660 -4.0948 -2.7363 -1.1948
  141MOL0     H18606   8.221   5.003   2.582 -0.9480 -0.7146 -0.2665
  141MOL0     H18607   8.295   4.878   2.472  3.6368 -1.7859  0.3091
  141MOL0     H18608   8.411   5.078   2.429  1.1132 -0.9298 -0.5340
  141MOL0     H18609   8.455   5.098   2.604  1.9447 -0.7058  0.6603
  141MOL0     H18610   8.739   4.826   2.563  1.4976  3.4104  1.0728
  141MOL0     H18611   7.971   4.788   2.866  0.9205  0.7207 -1.6973
  141MOL0     H18612   7.743   4.710   2.889  0.0222  0.6618 -0.9267
  142MOL0     O18613   7.615   2.741   3.207  0.8636  0.4555  0.1572
  142MOL0     C18614   7.639   2.861   3.192  0.2130 -0.2487 -0.7811
  142MOL0     O18615   7.760   2.919   3.225 -0.9730  0.1143 -0.0901
  142MOL0     C18616   7.863   2.853   3.273  0.6485  0.1713 -0.1159
  142MOL0     C18617   7.899   2.856   3.407  0.4019 -0.0933  0.5911
  142MOL0     C18618   7.999   2.783   3.456 -0.6328  0.3488  0.2036
  142MOL0     C18619   8.065   2.689   3.375  0.3103  0.9195 -0.2055
  142MOL0     O18620   8.174   2.612   3.417  0.4177 -0.4606 -0.2782
  142MOL0     C18621   8.229   2.505   3.335 -0.2716  0.2713 -0.1793
  142MOL0     C18622   8.337   2.437   3.419  0.1810  0.4546 -0.0819
  142MOL0     C18623   8.433   2.545   3.483 -0.2974  0.0115  0.8247
  142MOL0     C18624   8.503   2.634   3.384  0.6096 -0.0570 -0.1878
  142MOL0     C18625   8.597   2.733   3.461 -0.7700  0.0726 -0.0524
  142MOL0     C18626   8.736   2.678   3.466 -1.3048 -0.2694  0.7201
  142MOL0     C18627   8.806   2.707   3.606  0.7008 -0.5678  0.9085
  142MOL0     C18628   8.734   2.633   3.721 -0.4916  0.3672 -0.6584
  142MOL0     N18629   8.804   2.618   3.853  0.0165 -0.3601 -0.2734
  142MOL0     C18630   8.883   2.708   3.922 -0.4525  0.4955 -0.8233
  142MOL0     C18631   8.926   2.628   4.019  0.6501 -0.3754  0.4778
  142MOL0     C18632   9.028   2.678   4.115 -0.1858  0.2440 -0.2243
  142MOL0     C18633   8.994   2.640   4.261  0.3968 -0.7147 -0.7525
  142MOL0     C18634   8.883   2.732   4.320 -0.8212  0.3416 -0.8052
  142MOL0     C18635   8.865   2.708   4.475 -0.1927 -0.7921  0.6683
  142MOL0     O18636   8.839   2.569   4.500  0.4141  0.1603 -0.3432
  142MOL0     C18637   8.705   2.553   4.539  0.1777  0.3559 -0.0608
  142MOL0     C18638   8.602   2.550   4.455 -0.0347 -0.0391 -0.0907
  142MOL0     C18639   8.472   2.562   4.491  0.0040  0.2859  0.2708
  142MOL0     C18640   8.448   2.586   4.623 -1.1718  0.0825  0.2517
  142MOL0     C18641   8.315   2.603   4.680  0.6520 -0.4210  0.1320
  142MOL0     O18642   8.209   2.561   4.597 -0.6964  0.2175 -0.1783
  142MOL0     C18643   8.091   2.537   4.657  0.8922  0.5972  0.4834
  142MOL0     C18644   8.034   2.641   4.720  0.1170 -0.2259 -0.2023
  142MOL0     C18645   7.915   2.621   4.803 -0.8046 -0.3322  0.4250
  142MOL0     C18646   7.852   2.493   4.808 -0.7624 -0.1045 -0.0567
  142MOL0     O18647   7.736   2.463   4.880 -0.2596 -0.3452 -0.3181
  142MOL0     C18648   7.622   2.545   4.857 -0.8064  0.0174 -0.1031
  142MOL0     C18649   7.525   2.532   4.983  0.0822 -0.2953 -0.2581
  142MOL0     C18650   7.444   2.399   4.993 -0.5258  0.0191 -1.1713
  142MOL0     C18651   7.356   2.363   4.879 -0.0478 -0.5446  0.0697
  142MOL0     C18652   7.315   2.222   4.884 -0.4861  0.0295  0.5193
  142MOL0     C18653   7.403   2.117   4.825 -0.3623 -0.0260 -0.2955
  142MOL0     C18654   7.554   2.111   4.856  0.0507  0.3307  0.3622
  142MOL0     C18655   7.611   1.995   4.790  0.0159  0.6373  1.2057
  142MOL0    Cl18656   7.790   2.000   4.789  0.3109 -0.5383 -0.1741
  142MOL0     C18657   7.918   2.390   4.749  0.5935  0.5894  0.6999
  142MOL0     C18658   8.037   2.413   4.673  0.4247  0.8272  0.4800
  142MOL0     O18659   8.307   2.652   4.789  0.3778  1.0114  0.5647
  142MOL0     C18660   8.557   2.590   4.720  0.0726 -0.2053  0.3789
  142MOL0     C18661   8.690   2.566   4.675  0.8353 -0.6528 -0.5837
  142MOL0     N18662   8.879   2.498   4.019 -0.2497  0.4201  1.4267
  142MOL0     N18663   8.812   2.500   3.911  0.0198 -0.1394  0.2981
  142MOL0     C18664   8.032   2.682   3.237 -0.7959  0.3122 -0.5139
  142MOL0     C18665   7.936   2.768   3.192  0.4058  0.1719  0.1947
  142MOL0     C18666   7.527   2.950   3.140 -0.3627 -1.4539  0.2557
  142MOL0     C18667   7.406   2.889   3.097 -0.5109  0.2245 -0.2697
  142MOL0     C18668   7.300   2.965   3.051  1.0970 -1.0731  0.1077
  142MOL0     C18669   7.312   3.108   3.050  0.7166  0.4827  0.2069
  142MOL0     O18670   7.205   3.176   2.992 -0.1932  0.0385  0.2052
  142MOL0     C18671   7.219   3.310   2.961 -0.3401 -0.6089 -0.0812
  142MOL0     C18672   7.103   3.343   2.876  0.7442  0.4420  1.1211
  142MOL0     C18673   6.970   3.347   2.959 -0.7367  0.8404  0.0080
  142MOL0     C18674   6.849   3.356   2.867  0.4740 -0.9033  0.1878
  142MOL0     C18675   6.733   3.320   2.942 -0.3837 -0.2071  0.5157
  142MOL0     C18676   6.640   3.282   3.005  0.7246  0.2735  0.6843
  142MOL0     C18677   7.424   3.170   3.107 -0.5148 -0.3386 -0.5518
  142MOL0     C18678   7.532   3.092   3.149  0.6382  0.3287 -0.2789
  142MOL0     H18679   7.831   2.913   3.469 -1.7756 -1.0050 -0.8532
  142MOL0     H18680   8.017   2.785   3.562  1.0473 -1.4561  0.0032
  142MOL0     H18681   8.271   2.532   3.238 -0.5965 -4.3046 -1.8712
  142MOL0     H18682   8.148   2.434   3.314 -1.3464  0.7730  1.9113
  142MOL0     H18683   8.393   2.369   3.354  1.2094 -0.2667  1.4918
  142MOL0     H18684   8.288   2.384   3.501  0.6363  0.2933  0.0924
  142MOL0     H18685   8.515   2.493   3.534 -0.9032 -2.5643 -0.6186
  142MOL0     H18686   8.374   2.597   3.559 -0.8501  1.4003 -0.5153
  142MOL0     H18687   8.560   2.589   3.303  3.8514 -0.4233  2.1001
  142MOL0     H18688   8.418   2.680   3.333  0.0103 -1.5387 -0.5797
  142MOL0     H18689   8.562   2.753   3.562  2.1484  3.0558  0.5467
  142MOL0     H18690   8.596   2.832   3.415  0.3432  0.7351  1.2717
  142MOL0     H18691   8.798   2.719   3.386 -1.5809 -2.0107 -0.4612
  142MOL0     H18692   8.736   2.568   3.468  0.4376 -0.3008  0.7764
  142MOL0     H18693   8.911   2.675   3.603  0.2872 -2.1511  1.8028
  142MOL0     H18694   8.814   2.814   3.625  0.7139  0.0463 -2.0735
  142MOL0     H18695   8.704   2.535   3.682 -2.4217  0.8028 -0.4072
  142MOL0     H18696   8.639   2.684   3.744 -0.1353  1.2875 -1.1804
  142MOL0     H18697   8.921   2.809   3.910  0.9698  0.4821  2.4731
  142MOL0     H18698   9.039   2.787   4.105 -2.7157  0.9153  2.6518
  142MOL0     H18699   9.124   2.644   4.077 -0.1812  0.1575 -0.1366
  142MOL0     H18700   9.084   2.647   4.322 -0.0811 -2.1658  0.1784
  142MOL0     H18701   8.957   2.537   4.265  0.0637 -0.7106 -2.6393
  142MOL0     H18702   8.916   2.836   4.315 -0.3763  0.1763 -1.4627
  142MOL0     H18703   8.792   2.717   4.261 -0.8334 -1.8194 -0.3362
  142MOL0     H18704   8.784   2.768   4.516 -2.9995 -1.2325 -3.6261
  142MOL0     H18705   8.963   2.737   4.515  0.2906  2.6462 -2.4719
  142MOL0     H18706   8.610   2.549   4.347  0.8641  0.5322 -0.0459
  142MOL0     H18707   8.398   2.574   4.413  0.9189  1.7339 -0.4004
  142MOL0     H18708   8.076   2.741   4.725 -3.8695  1.6931 -0.8256
  142MOL0     H18709   7.882   2.697   4.873  0.6965 -1.6371  2.6724
  142MOL0     H18710   7.573   2.510   4.766 -1.0007 -1.8732  0.6849
  142MOL0     H18711   7.645   2.651   4.843 -3.5792  0.5497 -1.3427
  142MOL0     H18712   7.451   2.610   4.959  0.5405 -0.5371 -2.7846
  142MOL0     H18713   7.572   2.561   5.077  0.4931  0.8821 -0.7964
  142MOL0     H18714   7.393   2.405   5.089 -0.6091 -0.7242 -1.1612
  142MOL0     H18715   7.526   2.327   5.004 -1.5319 -0.8687  1.1457
  142MOL0     H18716   7.269   2.427   4.896 -0.4444  0.1731 -3.7794
  142MOL0     H18717   7.400   2.366   4.778 -1.7036  0.1399 -0.6660
  142MOL0     H18718   7.213   2.222   4.844 -0.4112  2.7571  0.1228
  142MOL0     H18719   7.306   2.199   4.990 -3.2974  1.0527  0.6104
  142MOL0     H18720   7.404   2.122   4.715 -2.4512 -2.1617 -0.4941
  142MOL0     H18721   7.350   2.025   4.848  0.5583 -0.5530 -0.2294
  142MOL0     H18722   7.610   2.201   4.828 -0.1699 -0.2436 -2.1302
  142MOL0     H18723   7.568   2.108   4.964  0.0478 -0.2885  0.3472
  142MOL0     H18724   7.580   1.988   4.685  3.3461 -0.0607  0.1352
  142MOL0     H18725   7.576   1.901   4.833  0.8358 -0.4239 -0.3157
  142MOL0     H18726   7.865   2.297   4.741  2.9514 -0.7024 -1.3805
  142MOL0     H18727   8.100   2.336   4.629 -0.4811  1.5768 -2.3572
  142MOL0     H18728   8.545   2.613   4.825 -0.1577  0.6909  0.1654
  142MOL0     H18729   8.777   2.584   4.737 -0.2906 -0.6897  1.0570
  142MOL0     H18730   8.091   2.624   3.166 -2.6403 -1.4504 -0.6827
  142MOL0     H18731   7.906   2.767   3.087 -0.1534  3.7393  0.2018
  142MOL0     H18732   7.394   2.783   3.119  0.2327  0.4865  1.5736
  142MOL0     H18733   7.215   2.912   3.010  2.6287 -1.6619 -2.5459
  142MOL0     H18734   7.309   3.336   2.906 -0.7533 -1.0902 -1.0185
  142MOL0     H18735   7.216   3.367   3.054 -1.3463 -0.3155 -0.2790
  142MOL0     H18736   7.121   3.439   2.827 -0.8521 -0.4201 -1.3287
  142MOL0     H18737   7.092   3.269   2.797  2.2075  1.0368  0.3343
  142MOL0     H18738   6.971   3.421   3.040  1.7185  0.5499  0.3340
  142MOL0     H18739   6.962   3.248   3.006  3.8478  1.1788  2.0717
  142MOL0     H18740   6.843   3.451   2.814  0.2198 -1.1879 -0.3066
  142MOL0     H18741   6.864   3.276   2.793 -0.8119 -0.0572 -1.0324
  142MOL0     H18742   6.554   3.239   3.053  0.8276 -0.4298  0.2465
  142MOL0     H18743   7.423   3.279   3.115 -0.6262 -0.3585 -0.2846
  142MOL0     H18744   7.611   3.153   3.192  0.2949  0.2320  0.5009
  143MOL0     O18745   2.880   4.119   7.420 -0.3412 -0.3364 -0.4536
  143MOL0     C18746   2.839   4.100   7.310  1.2130  0.7503  0.9801
  143MOL0     O18747   2.910   4.090   7.198  0.5049  0.0873 -0.5854
  143MOL0     C18748   3.040   4.126   7.198  0.0984 -0.6215  0.4701
  143MOL0     C18749   3.086   4.244   7.262  0.4943 -0.0578  1.0242
  143MOL0     C18750   3.221   4.281   7.247  0.5241 -0.0317  0.2863
  143MOL0     C18751   3.319   4.199   7.186  0.2391  0.0579  0.0066
  143MOL0     O18752   3.449   4.232   7.152  0.0121 -0.1801 -0.2346
  143MOL0     C18753   3.479   4.366   7.135  0.0917 -0.1273  0.8404
  143MOL0     C18754   3.634   4.390   7.097  0.0122 -0.2062  0.3709
  143MOL0     C18755   3.674   4.315   6.969  0.7422 -0.2536  0.6614
  143MOL0     C18756   3.821   4.339   6.956  0.7322 -0.2992 -0.1462
  143MOL0     C18757   3.858   4.305   6.814  0.0302  0.4316  0.6730
  143MOL0     C18758   4.012   4.306   6.802 -0.6018  0.1092 -0.4075
  143MOL0     C18759   4.075   4.300   6.659 -0.3054 -0.1275  0.7451
  143MOL0     C18760   3.996   4.222   6.550  0.0211  0.1216  0.5794
  143MOL0     N18761   3.957   4.094   6.587 -0.9495  0.1349 -0.6472
  143MOL0     C18762   4.035   3.985   6.568 -0.5412 -0.8787 -0.4433
  143MOL0     C18763   3.950   3.877   6.560  0.1606 -0.2648  1.2557
  143MOL0     C18764   3.958   3.729   6.534  0.3517  0.3429 -0.1694
  143MOL0     C18765   4.104   3.681   6.516  0.6020 -0.5127  0.7327
  143MOL0     C18766   4.110   3.552   6.430 -0.4509 -0.0189 -0.6809
  143MOL0     C18767   4.256   3.502   6.414 -0.7562  0.4215 -0.4657
  143MOL0     O18768   4.301   3.582   6.295 -0.3429  0.0085 -0.5136
  143MOL0     C18769   4.436   3.567   6.259 -0.7596 -0.4950  1.4219
  143MOL0     C18770   4.539   3.513   6.340 -0.4287 -0.4497 -0.9138
  143MOL0     C18771   4.673   3.525   6.293  0.1823  0.3147 -1.1358
  143MOL0     C18772   4.702   3.595   6.177  0.2108  0.4621  0.2628
  143MOL0     C18773   4.837   3.638   6.136 -0.3074 -0.1354  0.4846
  143MOL0     O18774   4.938   3.591   6.217  0.5423  0.1368 -0.6718
  143MOL0     C18775   5.075   3.598   6.175  0.1910  0.0349  1.1170
  143MOL0     C18776   5.117   3.556   6.053 -0.4354  0.7320  0.0517
  143MOL0     C18777   5.249   3.573   6.008 -0.9068  0.1381 -0.7028
  143MOL0     C18778   5.348   3.611   6.097 -0.6529  0.7258  0.6778
  143MOL0     O18779   5.479   3.616   6.050 -0.2533 -0.2686  0.0398
  143MOL0     C18780   5.571   3.637   6.157 -0.7682  1.2123 -0.4876
  143MOL0     C18781   5.717   3.604   6.116 -0.5273 -0.1351 -0.2843
  143MOL0     C18782   5.819   3.618   6.245 -0.4184 -0.5982 -0.8235
  143MOL0     C18783   5.965   3.600   6.214  0.3365  0.2040  0.2651
  143MOL0     C18784   6.010   3.683   6.103 -0.4200  0.2583 -0.1139
  143MOL0     C18785   6.160   3.734   6.108 -0.1517 -1.1697 -0.3000
  143MOL0     C18786   6.196   3.805   5.975  0.1599  0.2851 -0.3397
  143MOL0     C18787   6.346   3.798   5.949 -0.5792 -0.1514 -0.1815
  143MOL0    Cl18788   6.438   3.912   6.061  0.7552  0.8216  0.5094
  143MOL0     C18789   5.306   3.647   6.227 -0.4253  0.2440  0.6062
  143MOL0     C18790   5.176   3.640   6.265  0.1675 -0.5771  0.6212
  143MOL0     O18791   4.851   3.708   6.035  0.4395  0.0032 -0.2953
  143MOL0     C18792   4.597   3.633   6.097  0.1033  0.6283  0.6502
  143MOL0     C18793   4.468   3.621   6.133  0.4792  1.0999  0.2224
  143MOL0     N18794   3.829   3.916   6.578  0.5895 -0.2869 -0.3081
  143MOL0     N18795   3.831   4.036   6.599 -0.2562  0.4354 -0.1567
  143MOL0     C18796   3.271   4.082   7.125  0.2102 -0.0231  0.1847
  143MOL0     C18797   3.135   4.049   7.129  0.1688  0.5120  0.3325
  143MOL0     C18798   2.698   4.054   7.305 -0.4262 -0.4590  0.4686
  143MOL0     C18799   2.606   4.113   7.390  0.2638  0.4541  0.8318
  143MOL0     C18800   2.474   4.061   7.391 -0.1608 -0.8005  0.3142
  143MOL0     C18801   2.438   3.956   7.307 -0.7915  0.4767  0.3131
  143MOL0     O18802   2.299   3.926   7.313 -0.6836 -0.4243 -0.5105
  143MOL0     C18803   2.254   3.799   7.274  0.4018  0.5606 -0.6714
  143MOL0     C18804   2.138   3.768   7.374  0.9037  0.0593  0.2661
  143MOL0     C18805   2.187   3.736   7.513  0.8341 -0.8795 -0.1521
  143MOL0     C18806   2.063   3.682   7.588 -0.1063 -0.0705 -0.7538
  143MOL0     C18807   2.086   3.670   7.737  0.7200 -0.0800  0.5518
  143MOL0     C18808   2.078   3.665   7.860  0.6070  0.3806  0.5638
  143MOL0     C18809   2.535   3.897   7.217  0.4714  1.4856  0.3454
  143MOL0     C18810   2.666   3.950   7.215  0.7644 -0.2832 -0.1616
  143MOL0     H18811   3.015   4.308   7.313  1.5996  2.1285 -0.0563
  143MOL0     H18812   3.242   4.382   7.279 -1.2475  0.9700 -1.4525
  143MOL0     H18813   3.449   4.429   7.219 -1.7424 -1.3244  1.1478
  143MOL0     H18814   3.423   4.402   7.048 -2.0011 -3.1031  0.8199
  143MOL0     H18815   3.690   4.352   7.182 -1.5018 -1.9473  0.6610
  143MOL0     H18816   3.656   4.497   7.089 -2.4924  0.2894 -0.9889
  143MOL0     H18817   3.612   4.348   6.885 -0.1787 -1.6128  0.7886
  143MOL0     H18818   3.654   4.210   6.989  2.4206 -0.3740  1.9161
  143MOL0     H18819   3.846   4.446   6.959  1.0032 -0.3749  0.5311
  143MOL0     H18820   3.886   4.281   7.022 -1.9287 -2.5365  0.6509
  143MOL0     H18821   3.811   4.376   6.745 -1.5107 -4.3423 -3.7699
  143MOL0     H18822   3.818   4.208   6.785 -0.9015  0.5487  1.4756
  143MOL0     H18823   4.052   4.222   6.860  1.8462  0.8659 -0.9265
  143MOL0     H18824   4.061   4.387   6.857 -1.6902 -0.0718  0.8989
  143MOL0     H18825   4.092   4.404   6.631  1.8344  0.0160  2.2649
  143MOL0     H18826   4.174   4.254   6.669 -0.1260  0.1312  0.1981
  143MOL0     H18827   4.056   4.221   6.459 -1.0405  0.4821 -0.1518
  143MOL0     H18828   3.902   4.270   6.521 -1.2292 -3.0153 -1.0687
  143MOL0     H18829   4.144   3.986   6.561 -0.4858  1.2281  0.0656
  143MOL0     H18830   3.913   3.715   6.436 -1.4440 -0.0262  0.6668
  143MOL0     H18831   3.913   3.663   6.608  2.2290  0.5734  1.2421
  143MOL0     H18832   4.148   3.672   6.616 -0.0025  2.9826  1.4573
  143MOL0     H18833   4.165   3.762   6.473  2.9831 -1.5576  1.9499
  143MOL0     H18834   4.053   3.477   6.486 -0.2158  0.0965 -0.2860
  143MOL0     H18835   4.059   3.554   6.334 -0.5042 -3.1490 -0.8364
  143MOL0     H18836   4.259   3.392   6.414 -0.6507  0.4183  0.1945
  143MOL0     H18837   4.320   3.531   6.497 -1.7191  2.1975 -0.3006
  143MOL0     H18838   4.516   3.478   6.440 -0.7198  1.3551 -0.3151
  143MOL0     H18839   4.758   3.486   6.349  1.3032  1.3888 -2.0123
  143MOL0     H18840   5.048   3.510   5.984  2.8252 -1.0788 -2.2789
  143MOL0     H18841   5.267   3.539   5.907  0.3212  1.3198 -0.9165
  143MOL0     H18842   5.554   3.568   6.240 -1.4483  5.2841  3.0872
  143MOL0     H18843   5.577   3.742   6.186 -2.3599  1.2047 -0.0143
  143MOL0     H18844   5.750   3.663   6.030 -2.9940  0.4792 -0.8888
  143MOL0     H18845   5.721   3.499   6.086 -4.0264 -0.2657 -0.7042
  143MOL0     H18846   5.785   3.550   6.323 -1.1124  0.8531  0.1742
  143MOL0     H18847   5.795   3.718   6.283  1.8549  0.6460 -2.3789
  143MOL0     H18848   6.022   3.638   6.299  0.7788 -0.8631  0.4604
  143MOL0     H18849   5.987   3.495   6.196  1.7392  0.2845  1.4142
  143MOL0     H18850   5.947   3.772   6.107 -1.0886 -0.1945 -0.3943
  143MOL0     H18851   6.001   3.634   6.006 -1.4678  0.7175 -0.2701
  143MOL0     H18852   6.227   3.649   6.121  2.5736  0.6682 -1.4277
  143MOL0     H18853   6.185   3.798   6.194 -1.4341  0.1361 -0.8437
  143MOL0     H18854   6.126   3.770   5.898 -0.2702 -2.6284  1.2127
  143MOL0     H18855   6.175   3.912   5.969 -1.1822  0.0130 -0.7671
  143MOL0     H18856   6.350   3.820   5.842 -2.0795  0.5662 -0.1143
  143MOL0     H18857   6.385   3.696   5.961  0.3783 -0.0181 -1.8887
  143MOL0     H18858   5.374   3.692   6.299 -1.3319  1.9544  0.4227
  143MOL0     H18859   5.152   3.664   6.368 -0.1533  0.6430  0.2786
  143MOL0     H18860   4.607   3.694   6.007 -0.4283  0.9247  0.7913
  143MOL0     H18861   4.383   3.673   6.089 -1.0325  1.2807  3.0855
  143MOL0     H18862   3.345   4.027   7.067 -0.1824  0.6726 -1.0104
  143MOL0     H18863   3.116   3.958   7.074  0.4816  0.1232  0.8570
  143MOL0     H18864   2.643   4.194   7.453 -0.4847  1.4650  0.0162
  143MOL0     H18865   2.397   4.093   7.461  1.2264  2.0999  0.6904
  143MOL0     H18866   2.337   3.730   7.286  2.4283  2.8433 -0.8789
  143MOL0     H18867   2.207   3.794   7.175  2.6081 -0.3383 -1.7460
  143MOL0     H18868   2.069   3.852   7.387 -2.1434 -2.3745  1.0657
  143MOL0     H18869   2.085   3.685   7.326 -0.0125  0.9204 -0.2550
  143MOL0     H18870   2.208   3.821   7.579 -2.7717 -0.5845  0.8069
  143MOL0     H18871   2.265   3.660   7.509  2.0211  0.2636  0.2753
  143MOL0     H18872   1.979   3.752   7.584 -0.1511  0.1061  1.6819
  143MOL0     H18873   2.035   3.583   7.552 -0.1416 -0.1625 -0.4762
  143MOL0     H18874   2.072   3.657   7.967 -4.4662 -2.0617  0.4152
  143MOL0     H18875   2.500   3.818   7.152 -1.6644  1.0838  1.8649
  143MOL0     H18876   2.745   3.896   7.165  1.9789 -0.3477  1.7486
  144MOL0     O18877   9.347   9.411  10.211  0.1243  0.1931  0.3555
  144MOL0     C18878   9.289   9.520  10.229  0.0816 -0.0418 -0.4713
  144MOL0     O18879   9.151   9.548  10.207  0.0388 -0.6976  0.3225
  144MOL0     C18880   9.104   9.489  10.092  0.9423 -0.2245 -0.2515
  144MOL0     C18881   9.074   9.555   9.972  0.0535  0.1916 -0.2483
  144MOL0     C18882   9.004   9.490   9.875  0.2476  0.0804 -0.3290
  144MOL0     C18883   8.965   9.363   9.892 -0.8308  0.4617  0.4784
  144MOL0     O18884   8.890   9.307   9.794 -0.0841  0.5124 -0.3467
  144MOL0     C18885   8.971   9.266   9.679 -0.7863 -0.3638  0.3254
  144MOL0     C18886   9.032   9.132   9.692  0.2176  0.6466 -0.5792
  144MOL0     C18887   8.927   9.020   9.708 -0.0256 -0.1112  0.8788
  144MOL0     C18888   8.980   8.905   9.790 -0.6706  1.2361 -0.3618
  144MOL0     C18889   8.911   8.771   9.743  0.3307  0.8837  0.0211
  144MOL0     C18890   8.769   8.757   9.754  0.0743  0.0251 -0.2942
  144MOL0     C18891   8.704   8.792   9.886 -0.7643  0.6888  0.4268
  144MOL0     C18892   8.712   8.681   9.995 -0.4424 -0.8746  0.3454
  144MOL0     N18893   8.607   8.573   9.967 -0.1173  0.4585  0.0282
  144MOL0     C18894   8.480   8.569  10.021  0.7351  0.0290  0.0931
  144MOL0     C18895   8.417   8.465   9.960  0.2594 -0.0066 -0.6928
  144MOL0     C18896   8.287   8.413   9.991  0.4396 -0.2177  0.1221
  144MOL0     C18897   8.169   8.501   9.925 -0.1469 -0.4321  0.2033
  144MOL0     C18898   8.042   8.422   9.970  0.1140  0.1829 -0.0799
  144MOL0     C18899   7.915   8.465   9.899 -0.4242  0.4247  0.7957
  144MOL0     O18900   7.872   8.601   9.932 -0.6383 -0.3032 -0.8873
  144MOL0     C18901   7.748   8.623   9.874  0.6307 -0.4231  0.0877
  144MOL0     C18902   7.632   8.564   9.922 -1.5568  0.0324  0.3697
  144MOL0     C18903   7.508   8.602   9.862  0.7337  1.3136  0.2282
  144MOL0     C18904   7.499   8.683   9.750  0.5182 -0.3118 -1.0966
  144MOL0     C18905   7.365   8.727   9.698  0.1109  0.3850  0.4864
  144MOL0     O18906   7.264   8.682   9.773 -0.4742  0.2956 -0.0194
  144MOL0     C18907   7.136   8.732   9.740 -0.9550  0.6583  0.5050
  144MOL0     C18908   7.066   8.677   9.630  0.0909  0.5598  0.2826
  144MOL0     C18909   6.934   8.716   9.606  0.0464 -0.7550 -0.3248
  144MOL0     C18910   6.872   8.806   9.692  0.2700  0.2228 -0.4470
  144MOL0     O18911   6.743   8.847   9.668  0.1822 -0.1234 -0.0191
  144MOL0     C18912   6.646   8.741   9.657 -0.1631 -1.2965  0.7499
  144MOL0     C18913   6.602   8.688   9.790 -0.2976  0.6963  0.5531
  144MOL0     C18914   6.517   8.783   9.881  0.5205 -0.7985  0.5627
  144MOL0     C18915   6.372   8.832   9.828  0.2484 -0.3475  0.0965
  144MOL0     C18916   6.284   8.714   9.795 -1.0581  0.0486 -0.3132
  144MOL0     C18917   6.142   8.758   9.755  0.1918  0.8655 -0.1391
  144MOL0     C18918   6.055   8.630   9.719  0.2371 -0.1733  0.2360
  144MOL0     C18919   5.914   8.673   9.673 -0.0295  0.0900 -0.1223
  144MOL0    Cl18920   5.832   8.532   9.606 -0.5798  0.1792  0.1200
  144MOL0     C18921   6.935   8.847   9.806  0.1769  0.7532 -0.9295
  144MOL0     C18922   7.066   8.812   9.829  0.3449 -0.7362  0.0147
  144MOL0     O18923   7.354   8.797   9.596 -0.7349 -0.1249 -0.3034
  144MOL0     C18924   7.617   8.725   9.690  0.0644  0.0839  1.5767
  144MOL0     C18925   7.737   8.702   9.753 -0.0004 -0.2801  0.0640
  144MOL0     N18926   8.505   8.410   9.876 -0.2936  0.1931 -0.1152
  144MOL0     N18927   8.618   8.473   9.876  0.0405 -0.4970 -0.2133
  144MOL0     C18928   8.996   9.298  10.003  0.5684  0.2894 -0.4102
  144MOL0     C18929   9.058   9.361  10.110 -0.2747 -0.0934 -0.3267
  144MOL0     C18930   9.361   9.631  10.298 -0.0624 -0.7271 -0.1164
  144MOL0     C18931   9.294   9.726  10.378 -0.3337  0.2286  0.3127
  144MOL0     C18932   9.371   9.830  10.431 -0.1240 -0.6518 -0.4995
  144MOL0     C18933   9.511   9.843  10.411  1.7112  1.0937  0.1982
  144MOL0     O18934   9.566   9.946  10.483 -0.8933  0.2684  0.0221
  144MOL0     C18935   9.702   9.976  10.437 -0.4551  0.3095 -0.3620
  144MOL0     C18936   9.743  10.099  10.498  0.0698  0.0575 -0.0430
  144MOL0     C18937   9.815  10.069  10.630  0.2450  0.4510  0.7398
  144MOL0     C18938   9.887  10.204  10.683 -0.1753  0.5799 -0.2785
  144MOL0     C18939   9.899  10.205  10.832 -0.0514 -0.6063 -1.1664
  144MOL0     C18940   9.894  10.187  10.954  0.5150  0.3620  0.3139
  144MOL0     C18941   9.573   9.752  10.323 -0.2979  0.7406 -0.2496
  144MOL0     C18942   9.501   9.647  10.273  0.3261 -0.0670  0.5680
  144MOL0     H18943   9.116   9.653   9.955  1.5034  0.0320  1.9873
  144MOL0     H18944   8.981   9.542   9.783  3.5300 -1.9878 -2.5358
  144MOL0     H18945   9.053   9.332   9.650 -0.6021 -0.8250 -0.2291
  144MOL0     H18946   8.905   9.270   9.592  2.6255  0.6868 -2.4367
  144MOL0     H18947   9.097   9.136   9.779 -1.0949 -0.3539  0.5085
  144MOL0     H18948   9.101   9.122   9.608 -1.3776  4.0446 -2.4979
  144MOL0     H18949   8.894   8.990   9.608 -0.6819  0.9504  0.7606
  144MOL0     H18950   8.834   9.050   9.757 -0.2858 -2.9122  2.2917
  144MOL0     H18951   9.087   8.896   9.774 -0.7313  1.7545 -1.1558
  144MOL0     H18952   8.972   8.921   9.897 -2.3016  0.5096 -0.3337
  144MOL0     H18953   8.971   8.690   9.785  0.9196 -0.3317 -2.8794
  144MOL0     H18954   8.936   8.748   9.638  2.3085 -1.3933  0.8908
  144MOL0     H18955   8.742   8.655   9.724 -1.2751  1.2675 -3.8373
  144MOL0     H18956   8.717   8.812   9.674 -2.5055  1.7417  2.3570
  144MOL0     H18957   8.746   8.885   9.924  1.2749 -0.1122  0.2605
  144MOL0     H18958   8.597   8.810   9.874 -0.9235  0.3168  1.2619
  144MOL0     H18959   8.698   8.728  10.092 -1.3037  1.8672 -1.0051
  144MOL0     H18960   8.814   8.643  10.002  0.9857  2.2695 -1.2330
  144MOL0     H18961   8.429   8.633  10.092 -1.4441 -1.1397 -0.3413
  144MOL0     H18962   8.290   8.402  10.100 -1.0581 -2.2666  0.0248
  144MOL0     H18963   8.279   8.310   9.955  1.7808 -1.0350  2.0263
  144MOL0     H18964   8.167   8.496   9.815 -0.8134  0.8808  0.1428
  144MOL0     H18965   8.174   8.607   9.949 -0.5459 -0.1893 -0.7454
  144MOL0     H18966   8.055   8.314   9.961  1.8770  0.3324  0.2300
  144MOL0     H18967   8.027   8.440  10.077  1.6931  1.8597 -0.0889
  144MOL0     H18968   7.836   8.392   9.921 -1.6831  1.8945  1.3235
  144MOL0     H18969   7.937   8.457   9.793  0.6469 -0.9110  1.0921
  144MOL0     H18970   7.637   8.489  10.000 -1.5133  1.2600  1.5773
  144MOL0     H18971   7.420   8.576   9.921  2.5790 -2.3740  1.6557
  144MOL0     H18972   7.129   8.614   9.568 -0.5278 -0.4241  0.6093
  144MOL0     H18973   6.889   8.676   9.516 -1.9048  0.4410  0.0859
  144MOL0     H18974   6.691   8.661   9.597 -0.3662  0.4284 -1.8425
  144MOL0     H18975   6.553   8.786   9.622  1.0132 -0.0870 -1.0071
  144MOL0     H18976   6.685   8.643   9.845 -0.9824 -0.8601  0.3514
  144MOL0     H18977   6.543   8.598   9.770 -0.9668  1.1836  0.3165
  144MOL0     H18978   6.583   8.866   9.909  1.9113 -2.1756  1.5096
  144MOL0     H18979   6.509   8.725   9.973  1.2940  1.5287  2.1839
  144MOL0     H18980   6.309   8.888   9.898 -3.6781 -1.3996 -2.2677
  144MOL0     H18981   6.379   8.883   9.731 -0.7277 -2.6427 -1.2635
  144MOL0     H18982   6.266   8.646   9.879 -1.9449  0.9224  0.2403
  144MOL0     H18983   6.327   8.644   9.723  0.0756  0.8732 -0.4666
  144MOL0     H18984   6.143   8.821   9.666  3.1489 -0.5998 -1.2856
  144MOL0     H18985   6.094   8.801   9.843 -2.7663 -3.1310  0.5282
  144MOL0     H18986   6.098   8.573   9.635 -0.1916 -0.6332  0.3183
  144MOL0     H18987   6.043   8.570   9.810 -3.0783  3.2116  2.3126
  144MOL0     H18988   5.921   8.748   9.593  1.8531  1.1327  0.9587
  144MOL0     H18989   5.858   8.718   9.755  0.9899 -1.1227  1.2902
  144MOL0     H18990   6.891   8.922   9.871  0.2166  2.4818 -2.8148
  144MOL0     H18991   7.116   8.844   9.920  3.0025 -0.9354 -1.2752
  144MOL0     H18992   7.613   8.765   9.589 -0.1546 -0.8934  1.1897
  144MOL0     H18993   7.821   8.752   9.707  0.1304 -0.1694  0.4164
  144MOL0     H18994   8.961   9.196  10.012  2.0551 -0.2845 -0.8027
  144MOL0     H18995   9.064   9.314  10.208  2.7828 -2.5791 -1.5432
  144MOL0     H18996   9.189   9.713  10.404 -0.6727  0.4635 -0.8420
  144MOL0     H18997   9.321   9.891  10.505  1.3420  1.2548 -1.0155
  144MOL0     H18998   9.710   9.996  10.329  1.3442 -1.1005 -0.5547
  144MOL0     H18999   9.759   9.885  10.457  0.3602  1.2662  1.8983
  144MOL0     H19000   9.810  10.163  10.441  1.2235  0.8724  2.0944
  144MOL0     H19001   9.651  10.155  10.518 -1.3291 -1.9132 -0.6157
  144MOL0     H19002   9.891   9.994  10.610 -1.1759 -0.5652 -1.1384
  144MOL0     H19003   9.737  10.023  10.691 -0.0629  1.8508  1.4627
  144MOL0     H19004   9.987  10.201  10.640  0.3344  0.5658  0.8702
  144MOL0     H19005   9.830  10.294  10.655 -1.6759 -1.3349 -4.0880
  144MOL0     H19006   9.872  10.170  11.058 -1.2138 -1.3113 -0.2638
  144MOL0     H19007   9.677   9.752  10.291  0.5484 -1.5650  2.1231
  144MOL0     H19008   9.559   9.572  10.220 -3.1904 -1.7414 -1.2167
  145MOL0     O19009   0.701   3.715   3.046 -0.5936 -0.4807  0.4987
  145MOL0     C19010   0.775   3.786   2.977  0.1039  0.6738  0.5272
  145MOL0     O19011   0.739   3.818   2.848  0.4109  0.3845  0.3294
  145MOL0     C19012   0.615   3.792   2.799  0.1625 -1.4111  0.6029
  145MOL0     C19013   0.569   3.657   2.783  0.7656 -0.6436  0.1725
  145MOL0     C19014   0.450   3.634   2.714 -0.4815 -0.0763  0.5052
  145MOL0     C19015   0.360   3.735   2.693  0.2193  0.0843 -0.0693
  145MOL0     O19016   0.235   3.702   2.647 -0.0472  0.1709  0.3116
  145MOL0     C19017   0.132   3.790   2.698  0.8453  0.7222 -0.5811
  145MOL0     C19018  -0.009   3.722   2.692  0.7620  0.4236  0.4276
  145MOL0     C19019  -0.120   3.830   2.722  0.2370  0.0461  0.5780
  145MOL0     C19020  -0.243   3.747   2.750 -1.1460  0.4712  0.4347
  145MOL0     C19021  -0.367   3.834   2.757 -0.4034 -0.2103  0.6160
  145MOL0     C19022  -0.362   3.923   2.870  0.3016  0.1408 -0.5781
  145MOL0     C19023  -0.493   4.008   2.907  0.1381  0.4773  0.3519
  145MOL0     C19024  -0.538   4.108   2.797  0.1236 -0.3687  0.8006
  145MOL0     N19025  -0.677   4.143   2.803 -0.1701  0.9134  0.3078
  145MOL0     C19026  -0.719   4.241   2.878  0.5295  0.2480  0.8384
  145MOL0     C19027  -0.860   4.241   2.863 -0.1096  0.3236  0.2786
  145MOL0     C19028  -0.953   4.335   2.914 -0.8279  0.2038 -0.1259
  145MOL0     C19029  -1.098   4.277   2.940 -0.0264  0.5848  0.6823
  145MOL0     C19030  -1.178   4.379   3.027  1.0154 -0.1462 -0.5791
  145MOL0     C19031  -1.317   4.337   3.060 -0.0311 -0.7259  1.1801
  145MOL0     O19032  -1.375   4.302   2.934 -0.2759  1.0035 -0.4657
  145MOL0     C19033  -1.505   4.302   2.915  0.4639 -0.0448  0.5701
  145MOL0     C19034  -1.561   4.319   2.787  0.2794 -0.0871 -0.5433
  145MOL0     C19035  -1.708   4.305   2.768 -0.4508 -0.0190 -0.5983
  145MOL0     C19036  -1.795   4.293   2.874  0.2608 -0.6152 -0.6435
  145MOL0     C19037  -1.948   4.301   2.860  1.0753 -0.7288  0.5982
  145MOL0     O19038  -2.023   4.271   2.971 -0.2399 -0.0965 -0.5821
  145MOL0     C19039  -2.154   4.242   2.943 -0.2801 -0.3289  0.3427
  145MOL0     C19040  -2.250   4.331   2.977 -0.8033  0.7255  0.3628
  145MOL0     C19041  -2.388   4.300   2.981  0.3425  0.5232 -0.3609
  145MOL0     C19042  -2.421   4.173   2.934 -0.8160  0.0621  0.1090
  145MOL0     O19043  -2.549   4.132   2.908 -0.1615  0.3959 -0.2825
  145MOL0     C19044  -2.657   4.173   2.994  0.1942 -0.1644  0.7584
  145MOL0     C19045  -2.790   4.116   2.936 -0.1171  0.0004  0.6214
  145MOL0     C19046  -2.904   4.110   3.041 -1.0993 -0.1151 -0.2284
  145MOL0     C19047  -3.030   4.066   2.976  0.0972 -0.1828  0.2710
  145MOL0     C19048  -3.155   4.093   3.060 -0.0203  0.6361 -0.1762
  145MOL0     C19049  -3.150   4.026   3.204 -0.0242  0.0333 -0.2997
  145MOL0     C19050  -3.270   4.076   3.276 -0.4367  0.2437  0.5377
  145MOL0     C19051  -3.305   3.995   3.395 -0.1035  0.7140 -0.4841
  145MOL0    Cl19052  -3.176   3.988   3.515  0.4677 -0.0657 -0.2030
  145MOL0     C19053  -2.330   4.085   2.899 -0.7298  0.0799  0.0015
  145MOL0     C19054  -2.193   4.116   2.903  0.5667 -0.1003  0.5280
  145MOL0     O19055  -1.991   4.339   2.749 -0.0054 -0.4124  0.2931
  145MOL0     C19056  -1.733   4.264   3.000  0.1547 -0.4809  0.8944
  145MOL0     C19057  -1.595   4.275   3.020  1.5305 -0.3218  0.5605
  145MOL0     N19058  -0.883   4.144   2.767 -1.1748 -0.9249  0.0582
  145MOL0     N19059  -0.776   4.083   2.735 -0.0387 -0.2281  0.1523
  145MOL0     C19060   0.400   3.870   2.720 -0.3981 -0.5046  0.6455
  145MOL0     C19061   0.532   3.901   2.766 -0.2781  0.3277  0.4831
  145MOL0     C19062   0.893   3.864   3.030  0.5459  1.0550  0.1612
  145MOL0     C19063   0.944   3.974   2.968 -0.2825  0.3511  1.2694
  145MOL0     C19064   1.052   4.038   3.021 -0.0188 -1.2950  1.0246
  145MOL0     C19065   1.111   4.012   3.144 -0.8223 -0.6386  0.5674
  145MOL0     O19066   1.226   4.068   3.200  0.4423  0.3913 -0.0857
  145MOL0     C19067   1.311   4.136   3.111  0.1536 -0.2693  0.6544
  145MOL0     C19068   1.449   4.107   3.157 -0.5871  0.3048  0.2203
  145MOL0     C19069   1.502   4.227   3.257  0.5697  0.2746 -0.4238
  145MOL0     C19070   1.498   4.366   3.185  0.4522  0.3705  1.7185
  145MOL0     C19071   1.542   4.452   3.295 -0.4741 -0.7067  0.3581
  145MOL0     C19072   1.576   4.534   3.384  0.7306  0.6306  0.2961
  145MOL0     C19073   1.046   3.904   3.211 -0.2373  0.4561 -0.3509
  145MOL0     C19074   0.946   3.831   3.156  0.0055  0.2318 -0.1708
  145MOL0     H19075   0.639   3.582   2.818 -2.4376 -2.7640  2.6303
  145MOL0     H19076   0.428   3.533   2.683  2.1775 -0.4305 -0.4740
  145MOL0     H19077   0.134   3.880   2.636  2.0694 -0.8044 -2.8922
  145MOL0     H19078   0.172   3.810   2.798  0.3496  2.3546 -0.6706
  145MOL0     H19079  -0.008   3.638   2.762  2.2088  1.7282  2.0545
  145MOL0     H19080  -0.026   3.678   2.593 -0.6598  3.1291 -0.6312
  145MOL0     H19081  -0.127   3.907   2.645 -1.9268  1.4779  2.1075
  145MOL0     H19082  -0.085   3.880   2.813  1.1599  0.4701  0.0099
  145MOL0     H19083  -0.275   3.690   2.662 -0.3293  0.1023  0.3666
  145MOL0     H19084  -0.221   3.681   2.835 -1.5183  0.2004  0.3227
  145MOL0     H19085  -0.457   3.774   2.771 -2.0309  2.3941  2.3042
  145MOL0     H19086  -0.382   3.892   2.665  2.7156 -2.4333 -1.4806
  145MOL0     H19087  -0.286   4.000   2.852 -0.0053  0.4345 -0.6362
  145MOL0     H19088  -0.335   3.871   2.962  1.6538  0.1965 -0.9176
  145MOL0     H19089  -0.568   3.933   2.935  1.9776 -2.0824 -1.1096
  145MOL0     H19090  -0.478   4.060   3.002 -1.1947 -0.6863  1.2461
  145MOL0     H19091  -0.516   4.071   2.697 -3.1266  1.0333 -0.5817
  145MOL0     H19092  -0.494   4.208   2.801 -3.2270  1.5158 -2.5148
  145MOL0     H19093  -0.670   4.317   2.938  1.4302  1.9403 -1.8855
  145MOL0     H19094  -0.950   4.424   2.850 -2.1894  0.5900  0.2990
  145MOL0     H19095  -0.921   4.381   3.008 -3.9848  3.2260 -0.3318
  145MOL0     H19096  -1.096   4.189   3.004  0.5803  0.7053  0.8388
  145MOL0     H19097  -1.152   4.254   2.848  0.3286  1.2253  0.3043
  145MOL0     H19098  -1.128   4.410   3.119 -0.1271  0.7905 -0.2412
  145MOL0     H19099  -1.183   4.476   2.976  1.5718 -0.1481 -0.6432
  145MOL0     H19100  -1.363   4.428   3.101  0.2122  0.0082 -0.1161
  145MOL0     H19101  -1.318   4.256   3.134 -1.0097 -2.2184 -0.4031
  145MOL0     H19102  -1.490   4.334   2.706  0.5823  0.9350 -0.0993
  145MOL0     H19103  -1.742   4.319   2.666  0.4336 -1.2757 -1.0884
  145MOL0     H19104  -2.229   4.433   3.007 -0.4170  1.2146 -1.4490
  145MOL0     H19105  -2.454   4.378   3.016 -1.0518 -0.7921  0.0858
  145MOL0     H19106  -2.674   4.280   3.014 -0.1765 -0.4902  2.2387
  145MOL0     H19107  -2.641   4.131   3.093  3.2320 -2.0875 -0.3993
  145MOL0     H19108  -2.777   4.015   2.897 -0.6399  1.0769 -2.6097
  145MOL0     H19109  -2.819   4.166   2.844 -1.4235 -0.2805  0.8703
  145MOL0     H19110  -2.923   4.210   3.081  0.1889 -0.0100  0.1719
  145MOL0     H19111  -2.881   4.037   3.119  1.2977 -1.4258 -2.0079
  145MOL0     H19112  -3.035   4.125   2.884 -0.1282  0.2291  0.5480
  145MOL0     H19113  -3.028   3.958   2.956 -0.6944 -0.4690  1.6000
  145MOL0     H19114  -3.240   4.064   2.998  1.2091  0.0801 -1.6713
  145MOL0     H19115  -3.174   4.199   3.079 -1.5016 -0.1381  3.7725
  145MOL0     H19116  -3.065   4.067   3.260  0.5878 -2.3849  0.6713
  145MOL0     H19117  -3.146   3.917   3.193 -0.7021  0.0143 -0.3957
  145MOL0     H19118  -3.238   4.179   3.293  1.0697  0.5026 -2.9112
  145MOL0     H19119  -3.356   4.070   3.209  0.8831  0.2217 -1.2164
  145MOL0     H19120  -3.326   3.893   3.363  1.1947 -0.2114  1.4191
  145MOL0     H19121  -3.397   4.036   3.438  0.7783  1.3065  0.9203
  145MOL0     H19122  -2.360   3.993   2.849  0.5103  0.5816 -1.7614
  145MOL0     H19123  -2.107   4.054   2.882  0.0221 -0.9161  0.6487
  145MOL0     H19124  -1.783   4.237   3.092 -1.6291 -0.5749 -0.0644
  145MOL0     H19125  -1.570   4.269   3.125 -0.8518  0.9334  1.2753
  145MOL0     H19126   0.341   3.955   2.687  0.4599 -0.6178 -1.2826
  145MOL0     H19127   0.573   4.001   2.761  3.3337 -0.8746  2.5792
  145MOL0     H19128   0.908   4.006   2.871 -2.9671 -0.2297  1.9721
  145MOL0     H19129   1.077   4.124   2.961  1.6433 -1.6232  1.2014
  145MOL0     H19130   1.289   4.242   3.097 -0.6322 -0.3848  0.9669
  145MOL0     H19131   1.312   4.090   3.011 -0.0379  2.6859 -0.8017
  145MOL0     H19132   1.442   4.003   3.192  0.1410  0.2133  0.1118
  145MOL0     H19133   1.517   4.105   3.072 -1.1915 -0.8089 -0.2556
  145MOL0     H19134   1.608   4.208   3.275  0.8189  2.6452  1.1631
  145MOL0     H19135   1.452   4.220   3.354 -0.6162  2.3967 -0.8120
  145MOL0     H19136   1.564   4.369   3.097 -0.6249 -1.3750  0.7989
  145MOL0     H19137   1.399   4.400   3.154  0.1138  1.3870  3.7766
  145MOL0     H19138   1.595   4.620   3.445 -0.8334  1.2628 -0.0573
  145MOL0     H19139   1.068   3.871   3.311  3.5684  5.8211  1.0374
  145MOL0     H19140   0.898   3.750   3.209  3.8840 -2.0201  0.2627
  146MOL0     O19141   2.888   1.485   4.522  0.3503  0.1777 -0.0507
  146MOL0     C19142   2.917   1.370   4.507 -0.0525 -0.2324  0.0898
  146MOL0     O19143   2.836   1.257   4.528  0.2632 -0.6131  0.4300
  146MOL0     C19144   2.698   1.277   4.561 -0.0442  0.1126 -0.3253
  146MOL0     C19145   2.611   1.275   4.454  1.8012  0.6706 -0.3256
  146MOL0     C19146   2.478   1.289   4.489  0.6271 -0.7290  0.7283
  146MOL0     C19147   2.428   1.303   4.623  0.5055  0.2162 -0.7308
  146MOL0     O19148   2.299   1.308   4.658  0.8465  0.7161  0.0839
  146MOL0     C19149   2.199   1.261   4.570  0.6553 -0.0779  0.2487
  146MOL0     C19150   2.074   1.267   4.660  0.5420 -0.8768 -0.4695
  146MOL0     C19151   2.001   1.399   4.670  0.3547 -0.0378 -0.0602
  146MOL0     C19152   1.886   1.400   4.760 -0.0275  0.2781 -0.3618
  146MOL0     C19153   1.804   1.530   4.765 -1.0194 -0.4877  0.1024
  146MOL0     C19154   1.888   1.659   4.802  0.1888 -0.3187 -0.5250
  146MOL0     C19155   1.797   1.779   4.828  0.2003 -0.4437  0.2071
  146MOL0     C19156   1.717   1.848   4.712 -1.3241  0.3477 -0.5993
  146MOL0     N19157   1.666   1.971   4.760 -0.4777 -1.0181  0.1464
  146MOL0     C19158   1.554   1.977   4.842 -0.7735 -0.0868  0.2723
  146MOL0     C19159   1.535   2.109   4.867 -0.0524  0.1269  0.2815
  146MOL0     C19160   1.423   2.167   4.938  0.2539  0.7262  0.5052
  146MOL0     C19161   1.280   2.111   4.897  0.1960  0.4883 -0.4768
  146MOL0     C19162   1.168   2.199   4.943 -0.2999 -0.8759 -0.0108
  146MOL0     C19163   1.027   2.133   4.931  0.4517 -1.0021  0.8957
  146MOL0     O19164   0.990   2.094   4.797 -0.1197 -0.3742 -0.5666
  146MOL0     C19165   0.859   2.109   4.760  0.1138 -0.2236 -1.0752
  146MOL0     C19166   0.835   2.129   4.627  0.3462 -1.4676 -0.0965
  146MOL0     C19167   0.703   2.140   4.571 -0.2056  0.1838 -0.8360
  146MOL0     C19168   0.593   2.121   4.654 -0.8534 -0.8735 -0.5098
  146MOL0     C19169   0.460   2.135   4.594  0.4721  0.4081 -0.2037
  146MOL0     O19170   0.451   2.155   4.463 -0.6258  0.5899  0.9264
  146MOL0     C19171   0.331   2.179   4.412 -0.9088  0.5725  0.1668
  146MOL0     C19172   0.258   2.065   4.362 -0.4651  0.1917 -0.2060
  146MOL0     C19173   0.122   2.087   4.328  0.1700 -0.3769 -0.8088
  146MOL0     C19174   0.068   2.218   4.330 -1.4337  0.2436  0.0155
  146MOL0     O19175  -0.061   2.230   4.277  0.1810  0.4242 -0.2206
  146MOL0     C19176  -0.069   2.344   4.188  0.0609 -0.1189 -0.6735
  146MOL0     C19177  -0.167   2.304   4.075  0.5005 -0.1750 -0.9059
  146MOL0     C19178  -0.187   2.425   3.988  0.5537 -0.7238  0.8964
  146MOL0     C19179  -0.283   2.401   3.865 -0.6619  0.2552  0.5545
  146MOL0     C19180  -0.430   2.394   3.907  0.1893 -0.4224  1.2322
  146MOL0     C19181  -0.488   2.529   3.934 -0.1419  0.2368 -0.3311
  146MOL0     C19182  -0.631   2.525   3.981 -0.7593  0.0336  0.1982
  146MOL0     C19183  -0.666   2.424   4.099  0.3455 -0.5958  0.4959
  146MOL0    Cl19184  -0.707   2.272   4.026  0.0051  0.1963 -0.2329
  146MOL0     C19185   0.146   2.325   4.369 -0.2954 -0.3913  0.7131
  146MOL0     C19186   0.281   2.311   4.402  0.4077  0.2116 -0.9934
  146MOL0     O19187   0.363   2.129   4.671  0.1481 -0.6055 -0.8481
  146MOL0     C19188   0.623   2.097   4.796 -0.5516 -0.2948  0.1791
  146MOL0     C19189   0.746   2.093   4.846 -0.5353 -0.5732 -0.7416
  146MOL0     N19190   1.637   2.178   4.803 -0.7633 -0.3550 -0.2723
  146MOL0     N19191   1.712   2.103   4.730 -0.1199 -0.1260 -0.1075
  146MOL0     C19192   2.517   1.315   4.725  0.2694  0.0950 -0.3572
  146MOL0     C19193   2.656   1.300   4.691 -0.5877 -0.2272  0.3528
  146MOL0     C19194   3.064   1.342   4.491  0.4960 -0.9112 -0.5449
  146MOL0     C19195   3.160   1.449   4.473  0.8412  0.4111  0.2901
  146MOL0     C19196   3.304   1.420   4.471 -0.0786 -0.3073  0.5412
  146MOL0     C19197   3.343   1.285   4.481 -0.5718 -0.7543 -0.6003
  146MOL0     O19198   3.473   1.245   4.505 -0.2267 -0.4257  0.3976
  146MOL0     C19199   3.576   1.336   4.457  0.6667  0.9374 -0.2226
  146MOL0     C19200   3.702   1.266   4.493  0.6745 -0.4139 -0.2181
  146MOL0     C19201   3.828   1.350   4.467  0.3459  0.2311  0.4003
  146MOL0     C19202   3.949   1.312   4.556  0.1696 -0.4132 -0.0195
  146MOL0     C19203   4.060   1.397   4.508  0.2642 -0.2631  0.7497
  146MOL0     C19204   4.159   1.464   4.483  0.0921 -0.7332 -0.0217
  146MOL0     C19205   3.249   1.188   4.496  0.0235  0.1000  0.6986
  146MOL0     C19206   3.114   1.216   4.502 -0.4263 -0.2613 -0.8902
  146MOL0     H19207   2.649   1.248   4.356 -1.3190 -3.0935 -0.7762
  146MOL0     H19208   2.410   1.309   4.407 -0.6946  3.8000  2.6234
  146MOL0     H19209   2.216   1.157   4.543 -0.5770 -0.7087  1.7884
  146MOL0     H19210   2.187   1.310   4.473  0.5734 -0.2357  0.1785
  146MOL0     H19211   2.093   1.222   4.758 -1.1392  1.5997  1.0981
  146MOL0     H19212   1.997   1.199   4.623  1.2390 -3.2389  2.0916
  146MOL0     H19213   1.965   1.438   4.574 -0.1841  3.9324  1.5307
  146MOL0     H19214   2.073   1.468   4.714  2.0720 -1.9811  0.2965
  146MOL0     H19215   1.814   1.319   4.743  1.9632 -2.7179  3.7660
  146MOL0     H19216   1.919   1.392   4.864 -0.4750  2.8765  0.0569
  146MOL0     H19217   1.720   1.512   4.833 -0.5858 -0.2832  0.6995
  146MOL0     H19218   1.770   1.538   4.661 -0.7462 -0.8303 -0.0188
  146MOL0     H19219   1.953   1.668   4.714  1.6608 -2.6400  0.2330
  146MOL0     H19220   1.941   1.626   4.892 -0.8519 -1.7067 -0.3911
  146MOL0     H19221   1.725   1.750   4.905 -1.4683 -2.6257 -2.0425
  146MOL0     H19222   1.859   1.864   4.859 -0.5465 -0.1226  0.8342
  146MOL0     H19223   1.627   1.789   4.691 -1.0893  0.1732 -1.1444
  146MOL0     H19224   1.788   1.860   4.629  0.1796 -0.1958  0.5640
  146MOL0     H19225   1.490   1.896   4.876 -3.5362  0.0950 -3.8254
  146MOL0     H19226   1.424   2.276   4.926  2.8408  0.6574 -0.3834
  146MOL0     H19227   1.434   2.158   5.047  0.5309  2.6422  0.6724
  146MOL0     H19228   1.259   2.013   4.942  3.1389  0.7120  1.7379
  146MOL0     H19229   1.264   2.097   4.790 -0.7208 -0.6020 -0.2152
  146MOL0     H19230   1.191   2.226   5.046  0.1087  1.9658 -0.7529
  146MOL0     H19231   1.167   2.289   4.882 -2.1685 -0.4002  0.6431
  146MOL0     H19232   0.946   2.199   4.965  0.5482  0.5992 -1.6750
  146MOL0     H19233   1.024   2.052   5.004  1.5855  0.2095  2.3279
  146MOL0     H19234   0.916   2.134   4.555 -2.0888 -1.1593 -3.0612
  146MOL0     H19235   0.684   2.152   4.464  0.2226  2.4917 -0.7080
  146MOL0     H19236   0.287   1.961   4.356 -1.0849  0.0978 -2.9487
  146MOL0     H19237   0.060   2.012   4.280 -0.5532 -1.9885  2.3602
  146MOL0     H19238   0.026   2.355   4.135 -0.4657 -0.9380 -1.8417
  146MOL0     H19239  -0.098   2.430   4.249 -4.2930 -1.3667 -0.6712
  146MOL0     H19240  -0.257   2.285   4.134  1.6304  0.8855  1.2735
  146MOL0     H19241  -0.129   2.214   4.026  0.6523 -1.8477  2.1183
  146MOL0     H19242  -0.096   2.454   3.935 -1.8954  1.5080 -2.5311
  146MOL0     H19243  -0.217   2.512   4.048 -0.4832 -0.7360  0.4198
  146MOL0     H19244  -0.263   2.480   3.792 -2.0992 -0.7514 -0.9890
  146MOL0     H19245  -0.253   2.303   3.827  0.2571  0.8446 -0.2705
  146MOL0     H19246  -0.441   2.340   4.001  0.1155 -3.1180 -0.2376
  146MOL0     H19247  -0.488   2.349   3.826  1.6640  0.8008 -0.6099
  146MOL0     H19248  -0.462   2.587   3.846 -0.9586  1.8518  0.4535
  146MOL0     H19249  -0.423   2.561   4.016  1.0346 -0.6833 -0.8722
  146MOL0     H19250  -0.665   2.624   4.014  0.9250  0.7342 -0.0890
  146MOL0     H19251  -0.694   2.509   3.893  0.4254 -3.0089 -0.2270
  146MOL0     H19252  -0.745   2.467   4.161 -0.3298 -2.1955  0.7894
  146MOL0     H19253  -0.574   2.419   4.158  0.1640 -1.0672  0.7465
  146MOL0     H19254   0.105   2.425   4.373 -0.1824 -0.2461 -0.9480
  146MOL0     H19255   0.338   2.398   4.435 -1.8006  0.8429  1.5422
  146MOL0     H19256   0.544   2.100   4.870 -0.3994 -1.6094  0.4046
  146MOL0     H19257   0.773   2.081   4.951  1.5226  1.4653 -0.9356
  146MOL0     H19258   2.478   1.325   4.826 -1.5104 -2.1387 -0.7469
  146MOL0     H19259   2.734   1.288   4.767 -0.8560 -0.6803  0.5599
  146MOL0     H19260   3.125   1.551   4.465 -0.1220 -0.0651 -3.6053
  146MOL0     H19261   3.380   1.498   4.464  1.0287 -1.4373 -0.3759
  146MOL0     H19262   3.569   1.443   4.482 -0.3333  1.6307 -3.1450
  146MOL0     H19263   3.571   1.353   4.349  0.5559  0.8347 -0.2346
  146MOL0     H19264   3.702   1.243   4.600  0.3465  0.7343  0.0361
  146MOL0     H19265   3.694   1.187   4.418  1.1987  1.1154 -1.9492
  146MOL0     H19266   3.814   1.457   4.480  1.5938  0.1942  2.5015
  146MOL0     H19267   3.860   1.339   4.363 -1.0334  0.9282 -0.1253
  146MOL0     H19268   3.934   1.341   4.660  1.0273 -1.2831  0.3634
  146MOL0     H19269   3.983   1.210   4.537 -3.8842 -2.1685  1.2296
  146MOL0     H19270   4.238   1.521   4.438 -2.3636  2.3091 -0.8684
  146MOL0     H19271   3.279   1.084   4.501 -1.2181 -0.2364  1.6247
  146MOL0     H19272   3.045   1.133   4.507  0.1900 -0.8575 -1.8453
  147MOL0     O19273   6.822   8.340   3.129  0.9407 -0.6891 -0.1975
  147MOL0     C19274   6.882   8.437   3.085  0.0392  0.6993  0.8790
  147MOL0     O19275   6.824   8.535   3.005  0.4439 -0.3613  1.2249
  147MOL0     C19276   6.692   8.518   2.983 -0.1401 -0.1706  0.3500
  147MOL0     C19277   6.654   8.489   2.851  0.0863  0.2410 -0.2755
  147MOL0     C19278   6.518   8.468   2.822 -0.1026 -0.5604  0.2401
  147MOL0     C19279   6.419   8.488   2.921 -0.6714 -0.8546 -0.0481
  147MOL0     O19280   6.286   8.473   2.889 -0.1789 -0.9203  0.0419
  147MOL0     C19281   6.262   8.379   2.783 -0.4908  0.4723  0.4943
  147MOL0     C19282   6.119   8.330   2.773  0.5503  1.2317  0.5214
  147MOL0     C19283   6.105   8.198   2.692  0.5057  0.7038 -0.4254
  147MOL0     C19284   5.963   8.134   2.691 -0.3455 -0.3208  0.2993
  147MOL0     C19285   5.941   8.067   2.827  0.8107 -0.1596 -0.3241
  147MOL0     C19286   5.793   8.030   2.848  0.5634  0.5498 -0.9855
  147MOL0     C19287   5.740   7.929   2.756  1.5659 -0.3751 -0.4118
  147MOL0     C19288   5.582   7.920   2.763 -0.3451  0.8509 -0.3443
  147MOL0     N19289   5.508   8.037   2.713 -0.7186  0.2093 -0.0902
  147MOL0     C19290   5.441   8.131   2.781 -0.3624  0.0149  0.4322
  147MOL0     C19291   5.383   8.214   2.693 -1.0783 -0.2554 -0.4871
  147MOL0     C19292   5.285   8.325   2.716  0.1323 -0.3620 -0.3965
  147MOL0     C19293   5.132   8.291   2.703 -0.2157  0.4627  0.6729
  147MOL0     C19294   5.046   8.413   2.708 -0.9078  0.9779  0.2001
  147MOL0     C19295   4.903   8.374   2.748 -0.7990 -0.3111  0.4295
  147MOL0     O19296   4.831   8.496   2.737 -0.3366 -0.5347 -1.1770
  147MOL0     C19297   4.704   8.499   2.784 -0.1237 -0.1899 -0.6262
  147MOL0     C19298   4.633   8.391   2.834 -0.4657  0.1492 -0.7468
  147MOL0     C19299   4.503   8.407   2.891 -0.9062 -0.0546  0.3537
  147MOL0     C19300   4.439   8.539   2.880 -0.9948  0.2018  0.4621
  147MOL0     C19301   4.314   8.564   2.939 -0.3983 -0.2033 -0.7036
  147MOL0     O19302   4.248   8.679   2.907  0.1524 -0.6578 -0.9425
  147MOL0     C19303   4.130   8.720   2.960  0.6805 -0.1320  0.3385
  147MOL0     C19304   4.079   8.838   2.906  0.9222  0.1816 -0.5821
  147MOL0     C19305   3.967   8.899   2.958  0.3510 -0.1799  0.0959
  147MOL0     C19306   3.890   8.836   3.056  0.8102  0.3718 -0.0679
  147MOL0     O19307   3.779   8.889   3.111  1.2913  0.1561 -0.2503
  147MOL0     C19308   3.735   9.022   3.083  0.1663 -0.0242  0.3892
  147MOL0     C19309   3.623   9.048   3.187 -0.0599 -0.0310 -0.8550
  147MOL0     C19310   3.480   9.006   3.156 -0.1831 -0.0875  0.2987
  147MOL0     C19311   3.426   9.091   3.040  0.1144 -0.4571  0.0721
  147MOL0     C19312   3.275   9.072   3.026  0.5028 -0.3385 -0.4793
  147MOL0     C19313   3.199   9.165   3.116 -0.1510 -0.7907 -0.9500
  147MOL0     C19314   3.056   9.182   3.072  0.0829  0.6708  0.4126
  147MOL0     C19315   2.980   9.053   3.094  0.4851 -0.3937  0.2102
  147MOL0    Cl19316   2.810   9.081   3.042  0.4202 -0.0727 -0.1032
  147MOL0     C19317   3.929   8.707   3.099  0.5534  0.0289 -0.5896
  147MOL0     C19318   4.049   8.654   3.059 -0.0026  0.1694  0.5202
  147MOL0     O19319   4.266   8.477   3.014 -0.2681 -0.7001 -0.2774
  147MOL0     C19320   4.505   8.642   2.810 -0.0311 -0.3492 -1.4722
  147MOL0     C19321   4.633   8.619   2.762 -0.9638 -0.3492 -0.3341
  147MOL0     N19322   5.432   8.179   2.569 -0.2301 -1.2217 -0.4741
  147MOL0     N19323   5.499   8.066   2.576 -0.5969 -0.3622 -0.2334
  147MOL0     C19324   6.466   8.522   3.050  0.4192  0.1315  1.0433
  147MOL0     C19325   6.597   8.547   3.079 -0.6968  0.4896  0.3586
  147MOL0     C19326   7.030   8.454   3.127  0.7626  0.4910 -0.1368
  147MOL0     C19327   7.087   8.575   3.087  0.1165 -0.4051  0.5407
  147MOL0     C19328   7.211   8.615   3.137  0.0932  0.0177  0.2956
  147MOL0     C19329   7.288   8.539   3.219  0.8339 -0.2083 -1.1619
  147MOL0     O19330   7.396   8.591   3.285 -0.1778 -0.8434 -0.4175
  147MOL0     C19331   7.400   8.599   3.431  0.4101  0.4241 -0.4616
  147MOL0     C19332   7.466   8.736   3.469  0.3353 -0.5439 -0.2817
  147MOL0     C19333   7.417   8.772   3.612 -0.1397 -0.0212  0.6162
  147MOL0     C19334   7.445   8.922   3.649 -0.3703 -0.0737  0.1039
  147MOL0     C19335   7.338   9.002   3.585  0.4004  0.4169 -0.3426
  147MOL0     C19336   7.260   9.066   3.522 -0.0593  0.4431  0.3554
  147MOL0     C19337   7.240   8.407   3.247 -0.0365  0.7878 -0.7643
  147MOL0     C19338   7.108   8.364   3.207  0.3589 -0.4702  0.1525
  147MOL0     H19339   6.728   8.482   2.772  1.5652 -0.1610  1.0931
  147MOL0     H19340   6.475   8.446   2.725 -0.1645 -1.9921  0.5739
  147MOL0     H19341   6.334   8.298   2.798 -2.8446 -1.4973  1.9143
  147MOL0     H19342   6.280   8.432   2.689 -0.9063  0.9027  0.6516
  147MOL0     H19343   6.049   8.401   2.729 -2.1142 -0.8531  1.1444
  147MOL0     H19344   6.092   8.307   2.876 -1.0989 -0.0376 -0.1529
  147MOL0     H19345   6.162   8.122   2.747 -2.1402  0.0500  1.5619
  147MOL0     H19346   6.152   8.199   2.593  0.6027  0.7301 -0.3796
  147MOL0     H19347   5.884   8.207   2.674  0.9055  2.2628  4.1764
  147MOL0     H19348   5.957   8.058   2.613 -2.8841  0.5791 -0.4738
  147MOL0     H19349   5.967   8.129   2.913 -1.2722 -0.7901  0.8379
  147MOL0     H19350   6.002   7.976   2.826  0.0790 -0.6624 -0.4531
  147MOL0     H19351   5.731   8.120   2.852  0.3890  0.3975  0.0906
  147MOL0     H19352   5.781   7.986   2.947 -0.0034  3.3718  0.2870
  147MOL0     H19353   5.775   7.943   2.653  0.9835 -0.4550 -0.6200
  147MOL0     H19354   5.791   7.840   2.794 -0.7232 -1.0086  1.4072
  147MOL0     H19355   5.556   7.901   2.867  1.1920 -1.1126 -0.2609
  147MOL0     H19356   5.544   7.834   2.706 -2.8795  1.7755 -0.1541
  147MOL0     H19357   5.410   8.123   2.885  0.3763 -3.3100  0.5036
  147MOL0     H19358   5.305   8.412   2.652 -3.7040  0.7971 -0.2314
  147MOL0     H19359   5.311   8.355   2.818  3.6378 -2.9504 -0.3176
  147MOL0     H19360   5.118   8.213   2.778  0.7686  1.5763  2.0679
  147MOL0     H19361   5.109   8.254   2.603  0.2077  0.0201  0.7384
  147MOL0     H19362   5.085   8.488   2.779  1.8992 -0.7017  0.6083
  147MOL0     H19363   5.053   8.463   2.611  1.2888 -0.5914 -0.5386
  147MOL0     H19364   4.909   8.336   2.850 -3.4729  1.7173  1.4702
  147MOL0     H19365   4.858   8.298   2.684  0.2507 -0.0469 -0.6763
  147MOL0     H19366   4.667   8.289   2.818 -1.3115 -0.5250  1.4402
  147MOL0     H19367   4.445   8.327   2.935 -0.6564  0.1396  1.0382
  147MOL0     H19368   4.127   8.897   2.829 -0.7536 -2.1545 -3.6495
  147MOL0     H19369   3.941   8.995   2.913  0.8565  0.4327  1.0855
  147MOL0     H19370   3.700   9.033   2.980  2.1389  0.4503 -0.2781
  147MOL0     H19371   3.808   9.101   3.102  1.3462 -0.5211 -1.7050
  147MOL0     H19372   3.621   9.155   3.210  1.5891 -0.5713  2.2654
  147MOL0     H19373   3.661   9.003   3.279  2.4682 -1.1806 -2.3413
  147MOL0     H19374   3.413   9.004   3.243  1.4361 -1.8965  1.5834
  147MOL0     H19375   3.493   8.904   3.119  1.1383  0.3714 -0.5496
  147MOL0     H19376   3.454   9.196   3.057 -0.3070 -0.2167 -0.6590
  147MOL0     H19377   3.468   9.063   2.943 -2.2877 -0.1821 -1.1360
  147MOL0     H19378   3.248   8.966   3.038  1.1745 -0.3327  1.3982
  147MOL0     H19379   3.248   9.098   2.924  0.5331 -1.8790 -0.9010
  147MOL0     H19380   3.249   9.262   3.110 -2.5952  0.4654 -3.1197
  147MOL0     H19381   3.197   9.131   3.220 -0.5441 -2.1517 -1.3874
  147MOL0     H19382   3.007   9.255   3.137 -0.9240 -2.0242  2.8871
  147MOL0     H19383   3.045   9.212   2.967  1.5387  1.0239  0.3405
  147MOL0     H19384   2.989   9.024   3.199  2.3834 -3.9257 -0.7562
  147MOL0     H19385   3.018   8.972   3.030  0.4271 -0.0133 -0.3159
  147MOL0     H19386   3.865   8.661   3.174 -0.1823  2.7361  0.6030
  147MOL0     H19387   4.075   8.559   3.104  0.3255  0.8023  1.7001
  147MOL0     H19388   4.474   8.746   2.815 -0.8829 -0.6315  2.3751
  147MOL0     H19389   4.689   8.697   2.712 -1.1306 -0.2988 -0.4426
  147MOL0     H19390   6.393   8.522   3.130  0.6204 -1.9017  1.2783
  147MOL0     H19391   6.627   8.578   3.179  2.6148 -0.5918 -0.1857
  147MOL0     H19392   7.041   8.650   3.024  1.1077  0.3536  0.6921
  147MOL0     H19393   7.253   8.709   3.104  3.2443 -1.2559  0.3133
  147MOL0     H19394   7.456   8.519   3.480 -0.5670 -0.9799 -1.5410
  147MOL0     H19395   7.301   8.593   3.477  0.4308 -0.9627 -0.5304
  147MOL0     H19396   7.570   8.710   3.491 -0.5339 -2.5693  1.8561
  147MOL0     H19397   7.447   8.813   3.393 -1.2400 -2.8407 -2.3776
  147MOL0     H19398   7.467   8.698   3.675 -2.1357 -0.4947  1.7498
  147MOL0     H19399   7.310   8.753   3.625 -0.5213  1.7103  0.2182
  147MOL0     H19400   7.436   8.925   3.758 -0.8556  0.4079  0.0537
  147MOL0     H19401   7.545   8.955   3.618  0.9967 -5.1797 -1.9989
  147MOL0     H19402   7.196   9.132   3.467  0.7439  0.9022 -0.0442
  147MOL0     H19403   7.310   8.336   3.289 -2.1308  0.4477  2.4720
  147MOL0     H19404   7.060   8.270   3.233  2.4194 -2.8524 -3.7774
  148MOL0     O19405   9.371   4.969   0.694  0.7481  0.3460 -0.0056
  148MOL0     C19406   9.384   5.040   0.789  0.3554  0.0917 -0.4019
  148MOL0     O19407   9.282   5.060   0.880 -0.2106 -1.1106  0.1853
  148MOL0     C19408   9.162   5.031   0.830  0.0549  1.1223 -0.1043
  148MOL0     C19409   9.117   5.110   0.723 -0.4525 -0.1725 -0.0416
  148MOL0     C19410   9.009   5.071   0.647 -0.1564  0.6282  0.4157
  148MOL0     C19411   8.944   4.950   0.678 -0.8290  0.1309  0.6653
  148MOL0     O19412   8.838   4.910   0.606 -0.0509  0.6643  0.2346
  148MOL0     C19413   8.770   5.015   0.525  0.6913  0.9299  0.1937
  148MOL0     C19414   8.627   4.945   0.489 -0.2808  0.5927  0.1862
  148MOL0     C19415   8.526   5.018   0.403 -0.8127  0.0852 -0.3181
  148MOL0     C19416   8.467   5.146   0.471 -0.4153 -0.4277  0.0712
  148MOL0     C19417   8.385   5.231   0.379  1.1650 -0.4132  0.8045
  148MOL0     C19418   8.322   5.336   0.473 -0.4933 -0.0684 -0.2176
  148MOL0     C19419   8.198   5.282   0.545 -0.2292  0.1373  0.5855
  148MOL0     C19420   8.209   5.313   0.694  0.0505  0.1995  0.1433
  148MOL0     N19421   8.178   5.454   0.722  0.0798 -0.3172  0.4920
  148MOL0     C19422   8.266   5.539   0.780  0.3186  0.5416  0.6424
  148MOL0     C19423   8.180   5.623   0.842  0.0759  0.1552 -0.1941
  148MOL0     C19424   8.222   5.744   0.932 -1.3588  0.3265 -0.0687
  148MOL0     C19425   8.304   5.841   0.833 -0.5513  0.5502 -0.3884
  148MOL0     C19426   8.354   5.963   0.916 -0.3522 -0.3639 -0.3215
  148MOL0     C19427   8.440   6.055   0.838 -0.3580 -0.2750 -1.0945
  148MOL0     O19428   8.553   5.996   0.772 -0.8983 -0.9941  0.7931
  148MOL0     C19429   8.670   5.998   0.847  0.5756 -0.3462 -0.4625
  148MOL0     C19430   8.776   6.001   0.768 -0.2415  0.0580 -0.3696
  148MOL0     C19431   8.907   6.020   0.815 -0.1643  0.5985 -0.0547
  148MOL0     C19432   8.921   6.033   0.955 -1.3668  0.3357  0.3229
  148MOL0     C19433   9.055   6.041   1.012 -0.3932  0.5110  0.0658
  148MOL0     O19434   9.161   6.007   0.927  0.6610  0.6043  0.3099
  148MOL0     C19435   9.297   6.005   0.951  0.2165 -0.7963  0.6474
  148MOL0     C19436   9.370   6.044   1.071  0.7498  0.2636  0.5457
  148MOL0     C19437   9.507   6.047   1.074  0.0155  0.9303  0.0711
  148MOL0     C19438   9.590   6.028   0.966 -0.3119  0.9053  0.2784
  148MOL0     O19439   9.731   6.047   0.987  0.3049  0.6467 -0.0510
  148MOL0     C19440   9.820   6.010   0.885  0.5606  0.0388 -0.9817
  148MOL0     C19441   9.934   5.947   0.967 -0.6855  0.4753  0.7072
  148MOL0     C19442  10.026   5.864   0.883 -0.3513 -0.8377  0.3065
  148MOL0     C19443  10.130   5.797   0.970  0.1697 -0.2453  0.3485
  148MOL0     C19444  10.228   5.719   0.879  0.1518  0.6077 -0.2179
  148MOL0     C19445  10.297   5.609   0.973 -0.5691 -0.0864  0.4563
  148MOL0     C19446  10.371   5.669   1.091  0.7233  0.2206  0.0002
  148MOL0     C19447  10.468   5.776   1.042  0.8464  0.7548 -0.4666
  148MOL0    Cl19448  10.600   5.775   1.173  0.0829  0.0851 -0.0335
  148MOL0     C19449   9.526   5.995   0.844 -0.4864  0.5912 -0.1417
  148MOL0     C19450   9.388   5.989   0.845 -0.5628 -0.0748 -0.2354
  148MOL0     O19451   9.065   6.077   1.128 -1.0179 -0.1638 -0.5390
  148MOL0     C19452   8.798   6.029   1.039  0.0979 -0.8150  0.0383
  148MOL0     C19453   8.676   5.998   0.988  0.3142 -0.1343 -0.2111
  148MOL0     N19454   8.050   5.598   0.797 -0.1846 -0.1093 -0.7561
  148MOL0     N19455   8.049   5.497   0.724 -0.5859 -0.5345  0.1979
  148MOL0     C19456   8.985   4.869   0.786  0.0427 -0.7983 -0.2806
  148MOL0     C19457   9.096   4.908   0.859 -0.2333 -0.1407 -0.7207
  148MOL0     C19458   9.516   5.087   0.828 -0.7116  0.3272  0.4892
  148MOL0     C19459   9.536   5.167   0.943  0.0972  0.1925 -0.5455
  148MOL0     C19460   9.668   5.191   0.989  0.7143  1.1410 -0.8987
  148MOL0     C19461   9.764   5.114   0.928 -0.5197  0.0126  0.1465
  148MOL0     O19462   9.898   5.104   0.968 -0.2763 -0.1626  0.8004
  148MOL0     C19463   9.939   5.221   1.046 -0.7737  0.1782 -0.3105
  148MOL0     C19464  10.076   5.270   1.004 -0.5741  0.1892  0.3052
  148MOL0     C19465  10.084   5.325   0.852 -0.1302 -1.1525  0.3758
  148MOL0     C19466  10.217   5.314   0.776 -0.5172 -0.4761  0.7659
  148MOL0     C19467  10.268   5.180   0.788  0.5604  0.8337 -0.1988
  148MOL0     C19468  10.312   5.063   0.789  0.3237 -0.0572  0.1003
  148MOL0     C19469   9.744   5.050   0.804  0.5608 -0.6972  0.1524
  148MOL0     C19470   9.624   5.050   0.750  0.2774 -0.7630  0.2285
  148MOL0     H19471   9.174   5.198   0.696  0.0328 -0.5518 -0.2672
  148MOL0     H19472   8.989   5.132   0.560  2.5780 -1.6212 -1.9851
  148MOL0     H19473   8.816   5.038   0.429  0.1076  0.9727 -0.0793
  148MOL0     H19474   8.755   5.110   0.576  0.5925  2.5408 -2.6720
  148MOL0     H19475   8.577   4.920   0.583  0.7865 -0.4053  0.5163
  148MOL0     H19476   8.656   4.847   0.450 -1.8328  0.0382  0.3635
  148MOL0     H19477   8.441   4.953   0.381 -0.1002 -0.5977 -1.1446
  148MOL0     H19478   8.575   5.042   0.308 -2.2345 -2.2413 -1.7456
  148MOL0     H19479   8.414   5.098   0.554  2.0997 -1.5615  1.1312
  148MOL0     H19480   8.538   5.201   0.535 -1.0788  0.5740 -0.0269
  148MOL0     H19481   8.312   5.165   0.331  0.3503 -0.9910  2.7561
  148MOL0     H19482   8.447   5.271   0.298  2.1389  0.9404  2.1652
  148MOL0     H19483   8.285   5.427   0.425  3.0173  3.4319  2.9656
  148MOL0     H19484   8.399   5.381   0.537 -1.7670  4.0254 -1.2485
  148MOL0     H19485   8.108   5.330   0.504  1.2072  2.1521 -0.4022
  148MOL0     H19486   8.189   5.177   0.518 -3.5381  0.6067 -0.7105
  148MOL0     H19487   8.309   5.286   0.730  0.2382  3.5936  2.7225
  148MOL0     H19488   8.140   5.253   0.755 -2.9828  0.8543 -2.3864
  148MOL0     H19489   8.373   5.537   0.796  0.0698  1.1721  2.7884
  148MOL0     H19490   8.284   5.719   1.018 -1.6050  0.6008  0.1917
  148MOL0     H19491   8.130   5.790   0.969 -2.9117 -2.3823 -0.2440
  148MOL0     H19492   8.240   5.878   0.752 -2.2783  0.8306  1.0359
  148MOL0     H19493   8.390   5.788   0.791  0.6945  1.8829  0.3706
  148MOL0     H19494   8.275   6.033   0.942  0.2504 -0.0383  0.6500
  148MOL0     H19495   8.410   5.929   1.003 -0.1931  0.2072 -0.2026
  148MOL0     H19496   8.477   6.142   0.893 -0.9526  0.2950 -1.5787
  148MOL0     H19497   8.379   6.099   0.759  0.4314 -3.3338 -3.6181
  148MOL0     H19498   8.760   6.003   0.660  2.2835  2.0211 -0.8070
  148MOL0     H19499   8.994   6.023   0.751  0.7177  0.6846  1.1224
  148MOL0     H19500   9.313   6.082   1.155  0.7417  0.3030  0.5222
  148MOL0     H19501   9.550   6.074   1.170 -0.1620  0.7836  0.1926
  148MOL0     H19502   9.851   6.092   0.819 -3.2953 -0.6531 -4.0386
  148MOL0     H19503   9.779   5.932   0.820  0.1998  1.2786 -2.2916
  148MOL0     H19504   9.885   5.870   1.028  2.9834 -3.9143 -1.3061
  148MOL0     H19505   9.978   6.035   1.015 -1.0934  1.9549 -1.5048
  148MOL0     H19506  10.088   5.935   0.827  0.5886 -1.9571 -0.1304
  148MOL0     H19507   9.969   5.808   0.809  0.1072  2.0137 -2.3905
  148MOL0     H19508  10.180   5.869   1.036 -0.5146 -0.6085  1.2823
  148MOL0     H19509  10.082   5.732   1.044  1.0133  0.2183  1.3383
  148MOL0     H19510  10.300   5.784   0.828  0.4257  0.6394  0.2078
  148MOL0     H19511  10.177   5.663   0.800 -0.8333  1.2194 -0.0392
  148MOL0     H19512  10.367   5.563   0.904  0.2762 -0.3928  1.4924
  148MOL0     H19513  10.229   5.533   1.013 -1.8083  0.0972 -1.2229
  148MOL0     H19514  10.306   5.718   1.164  1.5774  1.7593 -0.2419
  148MOL0     H19515  10.425   5.590   1.144  0.8194 -2.2128 -3.3572
  148MOL0     H19516  10.425   5.876   1.032  2.7365  1.8136  1.1536
  148MOL0     H19517  10.516   5.747   0.949 -0.6005 -0.7164 -0.8153
  148MOL0     H19518   9.587   5.981   0.755  2.4378  2.2126  1.4379
  148MOL0     H19519   9.340   5.956   0.753 -0.9707  0.4084 -0.2023
  148MOL0     H19520   8.807   6.009   1.145 -0.1538 -2.9144 -0.2898
  148MOL0     H19521   8.596   5.996   1.061 -1.5777 -0.6790 -2.1948
  148MOL0     H19522   8.935   4.778   0.818 -0.0044 -0.4767  0.5936
  148MOL0     H19523   9.121   4.837   0.938 -1.9678 -2.7769 -2.3541
  148MOL0     H19524   9.465   5.216   1.009  0.6583 -1.4576  1.3673
  148MOL0     H19525   9.671   5.252   1.078 -1.3237  1.5528 -1.0581
  148MOL0     H19526   9.945   5.188   1.150  1.0899  0.8778 -0.1528
  148MOL0     H19527   9.870   5.305   1.052 -0.8588  0.1599 -0.9774
  148MOL0     H19528  10.112   5.349   1.070  1.2644 -0.5208  0.2423
  148MOL0     H19529  10.148   5.188   1.014 -0.1772  0.4121 -0.5817
  148MOL0     H19530  10.045   5.426   0.861  1.1990 -0.6295  0.5658
  148MOL0     H19531  10.016   5.259   0.797 -0.6514 -0.6556  0.4151
  148MOL0     H19532  10.204   5.337   0.670  1.1600  1.0087  0.8366
  148MOL0     H19533  10.289   5.388   0.812 -1.8078  0.5865  1.2236
  148MOL0     H19534  10.345   4.962   0.796  3.5050  0.9176  0.8520
  148MOL0     H19535   9.825   5.001   0.752  2.3207  0.0533  2.0220
  148MOL0     H19536   9.599   5.014   0.651  1.3440  1.8755 -1.0834
  149MOL0     O19537   9.593   6.056   6.546 -0.2322 -0.1902  0.6978
  149MOL0     C19538   9.590   6.012   6.431  0.1512 -0.4558 -0.9806
  149MOL0     O19539   9.487   6.019   6.343 -0.1892 -0.5070 -0.5272
  149MOL0     C19540   9.376   6.086   6.381  0.4938 -0.4137 -0.6492
  149MOL0     C19541   9.340   6.200   6.307 -0.5335 -0.4606 -0.4895
  149MOL0     C19542   9.224   6.273   6.337  0.4903  0.5893 -0.8439
  149MOL0     C19543   9.130   6.238   6.431  0.0815  0.2517  0.6623
  149MOL0     O19544   9.021   6.316   6.451 -0.2025  0.5271  0.3592
  149MOL0     C19545   8.897   6.247   6.429 -0.8640 -0.1214  0.3257
  149MOL0     C19546   8.781   6.318   6.506 -0.4213 -0.5298  0.5337
  149MOL0     C19547   8.668   6.217   6.505 -0.0882 -0.2853 -0.1650
  149MOL0     C19548   8.534   6.272   6.545  0.5239 -0.8167 -0.1132
  149MOL0     C19549   8.416   6.175   6.503  0.0710 -0.3399  0.1993
  149MOL0     C19550   8.272   6.239   6.501 -0.0073  0.7756 -0.6114
  149MOL0     C19551   8.165   6.169   6.415  0.6411 -0.6850 -0.4878
  149MOL0     C19552   8.024   6.220   6.460 -0.6631 -0.5436  0.0406
  149MOL0     N19553   7.920   6.144   6.394  0.6659  0.3499 -0.5693
  149MOL0     C19554   7.855   6.032   6.442  0.6496  0.2368  0.4662
  149MOL0     C19555   7.763   6.006   6.346  0.1918  1.0671 -0.7389
  149MOL0     C19556   7.666   5.888   6.351  0.5179  0.3579  0.4833
  149MOL0     C19557   7.520   5.919   6.407  0.8435 -0.2193 -0.0620
  149MOL0     C19558   7.441   6.016   6.312 -0.1542  1.4527 -0.8236
  149MOL0     C19559   7.423   5.964   6.173  0.2529  0.0331 -0.2421
  149MOL0     O19560   7.369   5.838   6.178 -1.0120  0.8172  0.2024
  149MOL0     C19561   7.253   5.814   6.115 -0.0923 -0.5316  0.0722
  149MOL0     C19562   7.133   5.834   6.174 -0.6250  1.1419 -1.0860
  149MOL0     C19563   7.012   5.819   6.107  0.0252 -0.1154 -0.2459
  149MOL0     C19564   7.008   5.769   5.981 -0.5040 -0.2700 -0.7362
  149MOL0     C19565   6.866   5.739   5.929 -0.1861  0.6888  0.4642
  149MOL0     O19566   6.755   5.776   5.997  0.0751  0.3824 -0.1894
  149MOL0     C19567   6.625   5.745   5.956 -0.2382 -0.1620 -0.1574
  149MOL0     C19568   6.528   5.738   6.059  0.1693 -0.0197  0.3114
  149MOL0     C19569   6.392   5.733   6.029  1.9025 -1.2741  0.0414
  149MOL0     C19570   6.346   5.736   5.895  0.0513  0.1414  0.0199
  149MOL0     O19571   6.207   5.727   5.874 -0.7422 -0.6640  0.0983
  149MOL0     C19572   6.157   5.714   5.744 -0.1022 -0.4785  0.2588
  149MOL0     C19573   6.016   5.671   5.772  0.2925  0.8548 -0.2684
  149MOL0     C19574   5.955   5.622   5.639  0.4941  0.5965 -0.1575
  149MOL0     C19575   5.803   5.602   5.661  0.0028  0.3418  0.2993
  149MOL0     C19576   5.738   5.548   5.535  0.5944 -0.1248  0.1892
  149MOL0     C19577   5.760   5.394   5.513  0.2620  0.8615 -0.2879
  149MOL0     C19578   5.672   5.349   5.397  0.0605  0.4323 -0.0960
  149MOL0     C19579   5.671   5.194   5.378 -0.0293  0.3588 -0.1529
  149MOL0    Cl19580   5.568   5.166   5.241  0.5331 -0.3897 -0.0538
  149MOL0     C19581   6.448   5.745   5.796  1.2698 -0.2796  0.1351
  149MOL0     C19582   6.576   5.737   5.824  0.4696 -0.2934  0.4551
  149MOL0     O19583   6.872   5.689   5.819  0.1806 -0.4947  0.1421
  149MOL0     C19584   7.128   5.731   5.916 -0.7906  0.5667  0.5451
  149MOL0     C19585   7.253   5.755   5.985  0.4117 -0.9382  0.3304
  149MOL0     N19586   7.763   6.107   6.253 -0.2218 -0.0877  0.2939
  149MOL0     N19587   7.867   6.174   6.275 -0.4186  0.2785  0.2372
  149MOL0     C19588   9.172   6.135   6.517  0.0798  0.3566 -0.2242
  149MOL0     C19589   9.294   6.064   6.491 -0.1523 -0.2412  0.3738
  149MOL0     C19590   9.701   5.940   6.382 -0.3193  0.0934  0.2054
  149MOL0     C19591   9.729   5.905   6.248 -0.1070 -0.2274 -0.5924
  149MOL0     C19592   9.850   5.835   6.205  0.6361  0.0293 -0.5230
  149MOL0     C19593   9.938   5.780   6.306  0.1254  0.4297  0.0665
  149MOL0     O19594  10.027   5.682   6.266 -0.0902  0.3072  0.1011
  149MOL0     C19595  10.114   5.624   6.367  0.4881 -1.3131 -0.7239
  149MOL0     C19596  10.217   5.552   6.285 -0.2015 -1.0092 -0.3398
  149MOL0     C19597  10.314   5.475   6.378 -0.1660 -0.0373  0.0254
  149MOL0     C19598  10.426   5.402   6.303 -0.2684 -0.4074 -0.0294
  149MOL0     C19599  10.558   5.471   6.289  0.2970  0.0062 -0.4106
  149MOL0     C19600  10.669   5.515   6.292  0.2900  1.2612 -0.2307
  149MOL0     C19601   9.901   5.803   6.435 -0.6070  0.2008 -0.7812
  149MOL0     C19602   9.792   5.876   6.472 -0.3060  0.0280  0.0193
  149MOL0     H19603   9.403   6.217   6.220 -2.5715 -1.3246 -2.2088
  149MOL0     H19604   9.195   6.354   6.270  1.3808  2.2444  0.6696
  149MOL0     H19605   8.909   6.140   6.450 -1.0207 -0.7713 -2.4921
  149MOL0     H19606   8.863   6.264   6.327  0.5715  0.9404 -0.0026
  149MOL0     H19607   8.759   6.415   6.461  0.9510  1.0595  3.0720
  149MOL0     H19608   8.810   6.338   6.609  1.7509  1.0640 -0.2920
  149MOL0     H19609   8.692   6.134   6.572 -2.1521 -1.4446 -0.7563
  149MOL0     H19610   8.660   6.172   6.406 -2.7094 -1.6812  0.5928
  149MOL0     H19611   8.532   6.294   6.652  2.0073 -0.8340 -0.0575
  149MOL0     H19612   8.524   6.368   6.495 -0.8194  0.9753  3.2848
  149MOL0     H19613   8.429   6.081   6.557 -1.0400 -1.8905 -2.0891
  149MOL0     H19614   8.429   6.137   6.402 -0.2481  0.1802 -0.0415
  149MOL0     H19615   8.272   6.343   6.465 -2.1245  0.9537 -0.2428
  149MOL0     H19616   8.234   6.242   6.604  0.7681  1.9504 -0.3369
  149MOL0     H19617   8.182   6.185   6.308 -0.4383 -2.3346 -0.9524
  149MOL0     H19618   8.160   6.060   6.425 -1.7473 -0.4620  2.1536
  149MOL0     H19619   8.012   6.326   6.437 -0.5508  0.0229  2.3669
  149MOL0     H19620   8.024   6.214   6.569 -2.0894  0.9087  0.1443
  149MOL0     H19621   7.876   5.968   6.527  2.1940 -0.5909 -0.4955
  149MOL0     H19622   7.701   5.812   6.421 -1.5314 -1.6079 -0.4940
  149MOL0     H19623   7.662   5.847   6.250  3.5726  0.9342  0.0216
  149MOL0     H19624   7.534   5.965   6.505 -0.4212 -0.7084  0.3670
  149MOL0     H19625   7.458   5.829   6.411  3.4724 -2.0930  2.4083
  149MOL0     H19626   7.349   6.030   6.370 -0.0947 -0.6663 -0.1016
  149MOL0     H19627   7.491   6.113   6.316 -0.0098  1.3883 -1.0467
  149MOL0     H19628   7.510   5.964   6.107 -0.6726 -4.7490 -1.7926
  149MOL0     H19629   7.354   6.032   6.122  1.5428  1.2633 -0.4194
  149MOL0     H19630   7.128   5.872   6.275 -3.0254  0.2475 -0.8115
  149MOL0     H19631   6.915   5.838   6.154 -1.1265  2.2577 -3.2206
  149MOL0     H19632   6.569   5.754   6.159 -1.2394  5.5403  0.2852
  149MOL0     H19633   6.307   5.723   6.096  1.2065  2.2838 -0.0910
  149MOL0     H19634   6.214   5.640   5.687  2.4577  2.6608 -1.5572
  149MOL0     H19635   6.159   5.809   5.690  0.8510  0.0595  1.1904
  149MOL0     H19636   5.959   5.760   5.798  0.3829  2.0413 -3.6882
  149MOL0     H19637   6.017   5.595   5.851 -0.3412  1.3234  0.1978
  149MOL0     H19638   6.006   5.532   5.604  2.1135  0.4639  2.2675
  149MOL0     H19639   5.958   5.703   5.566  0.2524  2.6823  2.0169
  149MOL0     H19640   5.773   5.529   5.736 -1.7534 -0.6941 -1.3293
  149MOL0     H19641   5.748   5.692   5.689  1.4306  1.6317 -0.8532
  149MOL0     H19642   5.779   5.610   5.455 -2.2948  0.5246 -0.9205
  149MOL0     H19643   5.630   5.563   5.548  0.5832 -1.7421  2.7765
  149MOL0     H19644   5.737   5.329   5.598  0.4792 -0.2863 -1.0788
  149MOL0     H19645   5.866   5.381   5.493  0.2567 -0.2710  0.3678
  149MOL0     H19646   5.572   5.393   5.408  0.7892  2.3614 -0.7301
  149MOL0     H19647   5.709   5.390   5.302 -2.2790 -0.9605 -1.7194
  149MOL0     H19648   5.628   5.139   5.461 -2.1559 -1.6010 -2.3836
  149MOL0     H19649   5.774   5.158   5.364  1.6352  4.8277 -1.3087
  149MOL0     H19650   6.413   5.749   5.693 -1.6253 -3.0420  0.8444
  149MOL0     H19651   6.645   5.737   5.740 -0.6958 -1.5736 -0.5315
  149MOL0     H19652   7.132   5.682   5.819  0.0811 -0.8254  1.2455
  149MOL0     H19653   7.345   5.735   5.932  0.7810  2.1871 -0.3721
  149MOL0     H19654   9.110   6.124   6.605 -0.5901  2.6223 -0.3407
  149MOL0     H19655   9.334   5.975   6.538  4.8907  2.5772  2.1340
  149MOL0     H19656   9.656   5.927   6.170 -0.0089 -4.0628 -2.0139
  149MOL0     H19657   9.864   5.821   6.098  0.8424  1.7070 -0.7430
  149MOL0     H19658  10.063   5.561   6.442  0.0927  1.1639  1.2062
  149MOL0     H19659  10.162   5.702   6.426 -3.6778  0.6603  0.4750
  149MOL0     H19660  10.174   5.483   6.212  2.7526 -0.5025 -2.7912
  149MOL0     H19661  10.267   5.628   6.224  1.8053 -1.8568  0.1552
  149MOL0     H19662  10.256   5.413   6.447  0.5871  0.9355  1.5859
  149MOL0     H19663  10.365   5.539   6.451 -0.4533 -0.3054  0.4711
  149MOL0     H19664  10.448   5.317   6.368 -0.4355  1.8694  3.1957
  149MOL0     H19665  10.393   5.375   6.202 -0.5580 -1.8997  0.4406
  149MOL0     H19666  10.768   5.558   6.298  0.6362  0.3427  0.9540
  149MOL0     H19667   9.965   5.769   6.515  1.2877  1.8756 -1.4825
  149MOL0     H19668   9.789   5.907   6.576 -2.5030  1.9409 -0.5244
  150MOL0     O19669  10.682   8.282   8.329  0.1830 -0.4060 -0.5348
  150MOL0     C19670  10.639   8.398   8.304 -0.2570 -0.5198  0.1235
  150MOL0     O19671  10.717   8.517   8.291  0.9903  0.2281  0.0983
  150MOL0     C19672  10.847   8.520   8.322 -0.2259  0.0777  0.3087
  150MOL0     C19673  10.902   8.510   8.453 -0.4608  0.8337  0.0820
  150MOL0     C19674  11.045   8.535   8.479  0.2206  0.4174  0.8367
  150MOL0     C19675  11.135   8.552   8.371  1.0517  0.3969  0.3134
  150MOL0     O19676  11.273   8.551   8.392  0.4883  0.8120 -0.2609
  150MOL0     C19677  11.364   8.544   8.278  0.4362 -0.6678  0.3478
  150MOL0     C19678  11.496   8.475   8.320 -0.1212  0.2151  0.7255
  150MOL0     C19679  11.574   8.552   8.426 -0.3570 -0.0732  1.3201
  150MOL0     C19680  11.717   8.513   8.444  0.1467 -0.1786  0.2203
  150MOL0     C19681  11.798   8.549   8.320 -0.2345  0.5010 -0.1917
  150MOL0     C19682  11.943   8.595   8.330 -0.0865  0.0662  0.6018
  150MOL0     C19683  12.029   8.546   8.212 -0.1343 -1.4416  0.1986
  150MOL0     C19684  12.163   8.617   8.209  0.3681  0.3571 -0.3626
  150MOL0     N19685  12.246   8.563   8.316 -0.2369 -0.2429 -0.1053
  150MOL0     C19686  12.247   8.616   8.441  0.3225  0.3349  0.1849
  150MOL0     C19687  12.329   8.544   8.512  0.0165  0.4918  0.6112
  150MOL0     C19688  12.352   8.569   8.664  0.4842  0.7818 -0.0850
  150MOL0     C19689  12.270   8.449   8.738 -0.3738 -1.1003 -0.4981
  150MOL0     C19690  12.125   8.442   8.696 -0.9044 -0.6343  0.1267
  150MOL0     C19691  12.039   8.555   8.752 -0.4432 -0.0150 -0.0963
  150MOL0     O19692  12.034   8.671   8.672 -0.7618  0.3308  0.3308
  150MOL0     C19693  11.926   8.755   8.679  0.4583  1.0990  0.5618
  150MOL0     C19694  11.895   8.846   8.572 -0.1350  0.0250 -0.0968
  150MOL0     C19695  11.769   8.905   8.560  0.1849 -0.4048  0.6171
  150MOL0     C19696  11.679   8.885   8.659  1.2615 -0.1393 -0.2466
  150MOL0     C19697  11.539   8.937   8.650 -0.5043 -0.1225  0.0693
  150MOL0     O19698  11.478   8.958   8.530 -0.5049  0.3990 -0.2750
  150MOL0     C19699  11.346   8.978   8.525  0.7350 -0.4575 -0.3014
  150MOL0     C19700  11.269   8.866   8.497  0.4377  0.0420 -1.0140
  150MOL0     C19701  11.124   8.885   8.478 -0.5151 -0.3285 -0.0591
  150MOL0     C19702  11.071   9.009   8.487 -0.0846 -0.7145  1.3770
  150MOL0     O19703  10.939   9.019   8.446  0.3106  0.1192 -0.2735
  150MOL0     C19704  10.849   9.068   8.545 -0.2489 -0.6336 -0.2850
  150MOL0     C19705  10.708   9.033   8.504  0.0165 -0.1460  0.5326
  150MOL0     C19706  10.661   8.891   8.531 -0.5451 -0.1174  0.0688
  150MOL0     C19707  10.671   8.844   8.687  1.0956 -0.3502  0.1141
  150MOL0     C19708  10.573   8.733   8.715 -0.2214 -0.1572 -0.8337
  150MOL0     C19709  10.632   8.598   8.677 -0.9264  0.9761  0.1553
  150MOL0     C19710  10.538   8.470   8.696 -0.1232 -0.0656 -0.0776
  150MOL0     C19711  10.532   8.432   8.841 -1.3926 -1.0266  0.5104
  150MOL0    Cl19712  10.691   8.415   8.904 -0.4472  0.3372 -0.4966
  150MOL0     C19713  11.156   9.115   8.515  1.0314 -0.7650 -0.5585
  150MOL0     C19714  11.291   9.109   8.538 -0.2296  0.1436 -0.4794
  150MOL0     O19715  11.480   8.934   8.755  0.2604  0.0689  0.2659
  150MOL0     C19716  11.725   8.813   8.774  0.4118 -0.2187  1.0292
  150MOL0     C19717  11.842   8.753   8.787  0.3374  1.0923  0.0707
  150MOL0     N19718  12.388   8.451   8.424 -0.1293 -0.2833 -0.4505
  150MOL0     N19719  12.333   8.456   8.313  0.9806 -0.2452  1.2417
  150MOL0     C19720  11.075   8.556   8.240 -0.0237  0.0491 -0.3882
  150MOL0     C19721  10.936   8.547   8.213 -0.0454 -1.1663  0.2091
  150MOL0     C19722  10.487   8.409   8.303  0.5975  0.4824  0.3298
  150MOL0     C19723  10.431   8.531   8.279  0.0919 -0.2520 -0.3687
  150MOL0     C19724  10.296   8.548   8.280  0.8412 -0.0996  0.9252
  150MOL0     C19725  10.209   8.442   8.314  0.1762  0.0135 -0.5090
  150MOL0     O19726  10.064   8.447   8.318 -0.4969 -0.1373  0.4641
  150MOL0     C19727   9.998   8.543   8.239 -0.3927  0.4425 -0.5273
  150MOL0     C19728  10.009   8.520   8.086 -0.8649  0.5460  0.4368
  150MOL0     C19729   9.904   8.435   8.025  0.2904 -0.8131  0.8779
  150MOL0     C19730   9.794   8.522   7.976 -0.1380 -0.4629  0.3564
  150MOL0     C19731   9.689   8.434   7.932  0.0832 -0.2902  0.4379
  150MOL0     C19732   9.602   8.359   7.887 -0.1197 -0.0934 -0.1574
  150MOL0     C19733  10.268   8.318   8.341  0.2123  0.7503 -0.7017
  150MOL0     C19734  10.404   8.300   8.328  0.2581  0.1293 -0.5654
  150MOL0     H19735  10.833   8.480   8.531 -0.5383 -0.0645 -0.3244
  150MOL0     H19736  11.071   8.525   8.583 -1.1621 -1.5477  1.0452
  150MOL0     H19737  11.376   8.645   8.236 -2.5413 -0.6995 -0.8359
  150MOL0     H19738  11.315   8.480   8.204  0.1672  1.2221 -1.1826
  150MOL0     H19739  11.559   8.445   8.236  2.2289 -0.4627  2.6399
  150MOL0     H19740  11.455   8.380   8.355 -0.4360  0.5741  1.3454
  150MOL0     H19741  11.516   8.546   8.519 -2.7884 -0.7164 -0.1538
  150MOL0     H19742  11.571   8.654   8.388 -2.5762 -0.1504  1.1515
  150MOL0     H19743  11.761   8.561   8.532 -2.1143  2.9298 -0.1964
  150MOL0     H19744  11.719   8.406   8.467 -4.0118  0.2508  3.9390
  150MOL0     H19745  11.744   8.626   8.263  2.0441 -0.1667 -3.4539
  150MOL0     H19746  11.778   8.454   8.270 -4.5067  1.2323 -0.2542
  150MOL0     H19747  11.980   8.552   8.423 -1.4418 -1.2555  0.5699
  150MOL0     H19748  11.949   8.704   8.343  0.6162 -0.1559  2.5061
  150MOL0     H19749  12.038   8.438   8.223 -0.5218 -1.2853  2.4723
  150MOL0     H19750  11.974   8.574   8.121 -0.8094  1.7784  1.4663
  150MOL0     H19751  12.147   8.720   8.243  2.0101  0.6874 -0.5018
  150MOL0     H19752  12.218   8.627   8.116  3.1355 -2.5503  0.7766
  150MOL0     H19753  12.184   8.693   8.485  1.7567  1.4026  0.4632
  150MOL0     H19754  12.315   8.665   8.701  1.6307  1.3755 -0.4091
  150MOL0     H19755  12.457   8.554   8.689  0.6290  0.6676 -0.7384
  150MOL0     H19756  12.268   8.452   8.847  1.3731  1.6135 -0.4716
  150MOL0     H19757  12.308   8.353   8.702  0.5954 -1.0272  0.2893
  150MOL0     H19758  12.108   8.433   8.589 -2.6830 -0.5547  0.3760
  150MOL0     H19759  12.099   8.346   8.742  1.1689 -1.6035 -0.6014
  150MOL0     H19760  12.074   8.571   8.854 -1.3883  0.2035  0.2046
  150MOL0     H19761  11.941   8.510   8.770 -0.7742  1.2448  1.4810
  150MOL0     H19762  11.969   8.878   8.499  3.5620 -0.8273  2.9442
  150MOL0     H19763  11.753   8.955   8.465 -0.3818 -0.9146  0.4410
  150MOL0     H19764  11.304   8.763   8.509 -0.6304  0.0059  3.8368
  150MOL0     H19765  11.056   8.801   8.464 -0.9956 -0.2410  1.5127
  150MOL0     H19766  10.856   9.177   8.542  0.4166 -0.6877 -0.9343
  150MOL0     H19767  10.869   9.038   8.648 -2.2716 -1.1269  0.0070
  150MOL0     H19768  10.687   9.070   8.404  3.1019  0.4066 -0.0105
  150MOL0     H19769  10.642   9.090   8.570  0.1263  1.8486 -0.9909
  150MOL0     H19770  10.716   8.825   8.465 -0.6615  1.1755 -1.3736
  150MOL0     H19771  10.556   8.882   8.503 -0.4069  0.6223 -0.7328
  150MOL0     H19772  10.774   8.821   8.716  1.0841  0.2815  0.6701
  150MOL0     H19773  10.632   8.927   8.746 -2.3186 -1.2034 -0.7242
  150MOL0     H19774  10.477   8.746   8.664 -0.8821  0.1498  0.4555
  150MOL0     H19775  10.556   8.744   8.822 -0.9600 -1.5564 -0.7862
  150MOL0     H19776  10.735   8.576   8.709  0.2029  4.1717 -0.9189
  150MOL0     H19777  10.638   8.603   8.568  0.3898 -0.3811  0.1204
  150MOL0     H19778  10.438   8.503   8.664 -0.5272  0.4008  1.5653
  150MOL0     H19779  10.565   8.391   8.626  0.0502 -0.0013 -0.0846
  150MOL0     H19780  10.485   8.334   8.855 -1.1321 -1.2409 -0.1123
  150MOL0     H19781  10.479   8.509   8.898  1.0099  1.3130 -0.2200
  150MOL0     H19782  11.106   9.210   8.527  1.8672 -0.3797 -0.0297
  150MOL0     H19783  11.334   9.207   8.555 -1.6669  0.5713  0.8723
  150MOL0     H19784  11.664   8.816   8.864 -0.1644  2.4669  0.6485
  150MOL0     H19785  11.859   8.705   8.883 -0.6049 -0.6486 -0.5753
  150MOL0     H19786  11.140   8.577   8.156  0.9357 -1.4141 -0.0493
  150MOL0     H19787  10.898   8.559   8.112 -2.0030  0.6228  1.0921
  150MOL0     H19788  10.489   8.619   8.253  1.7235  0.0487  3.6710
  150MOL0     H19789  10.253   8.639   8.241  3.1297  0.1622 -1.2407
  150MOL0     H19790  10.043   8.640   8.264 -0.1200  0.1590  0.0839
  150MOL0     H19791   9.892   8.536   8.267 -0.9124 -0.3951 -2.5889
  150MOL0     H19792  10.036   8.614   8.037 -1.3221  2.4281  3.4885
  150MOL0     H19793  10.100   8.458   8.086 -0.5046  1.0638 -0.5428
  150MOL0     H19794   9.864   8.360   8.093  1.3336 -1.7398  0.5023
  150MOL0     H19795   9.948   8.382   7.939  0.1073  0.7747 -0.2357
  150MOL0     H19796   9.750   8.581   8.056 -4.1504 -0.9552 -1.2547
  150MOL0     H19797   9.824   8.592   7.898 -0.3638 -0.5335  0.2031
  150MOL0     H19798   9.521   8.294   7.862 -0.4823  0.9653 -1.9594
  150MOL0     H19799  10.213   8.233   8.379  2.3503 -2.0506 -3.3316
  150MOL0     H19800  10.445   8.204   8.358  1.4022 -1.0138 -5.1053
  151MOL0     O19801   9.640   7.162   8.598  0.2970 -0.2247  0.8982
  151MOL0     C19802   9.717   7.088   8.529  0.2878  0.9827  0.2404
  151MOL0     O19803   9.662   6.976   8.461  0.0718  1.0238  0.3028
  151MOL0     C19804   9.524   6.969   8.441  0.3554  0.5437  0.1320
  151MOL0     C19805   9.447   6.873   8.511  0.9828  0.1729 -0.2283
  151MOL0     C19806   9.306   6.869   8.493  0.5592 -1.4529  0.4680
  151MOL0     C19807   9.243   6.971   8.414  0.3433 -0.3089 -0.7492
  151MOL0     O19808   9.108   6.971   8.425  0.3083  0.1623 -0.0431
  151MOL0     C19809   9.031   7.065   8.340  0.7385  0.5842 -1.1885
  151MOL0     C19810   9.023   7.193   8.417 -0.7475 -0.0165 -0.0527
  151MOL0     C19811   8.917   7.200   8.525  0.1186 -0.2522  0.6035
  151MOL0     C19812   8.931   7.329   8.593  0.6163 -0.8639 -0.1738
  151MOL0     C19813   8.802   7.357   8.672 -0.6141 -0.8469  0.7383
  151MOL0     C19814   8.842   7.486   8.747 -0.1672  0.3036  0.0271
  151MOL0     C19815   8.724   7.567   8.791 -0.3560  0.6775  0.8765
  151MOL0     C19816   8.639   7.522   8.909 -0.4727  0.2833 -0.5505
  151MOL0     N19817   8.586   7.645   8.970  0.4619 -0.5767  0.7540
  151MOL0     C19818   8.496   7.722   8.904  0.0892  0.0933  0.3989
  151MOL0     C19819   8.462   7.818   8.993 -0.0128  0.6995  0.0625
  151MOL0     C19820   8.364   7.926   8.970 -0.3639  0.5894 -0.1895
  151MOL0     C19821   8.259   7.944   9.085 -0.0694  0.2166  0.8033
  151MOL0     C19822   8.134   8.027   9.047  0.5489 -0.1384 -1.0181
  151MOL0     C19823   8.026   8.022   9.164  0.6508 -0.3883 -0.6454
  151MOL0     O19824   7.906   8.083   9.104 -0.7213  0.0207 -0.5357
  151MOL0     C19825   7.788   8.073   9.172  1.1959 -1.3338 -0.8086
  151MOL0     C19826   7.768   8.034   9.308 -0.0727 -0.2124  0.4897
  151MOL0     C19827   7.635   8.035   9.369 -0.6292 -0.7595  0.9615
  151MOL0     C19828   7.520   8.084   9.295 -0.0582  0.5117  1.1725
  151MOL0     C19829   7.377   8.075   9.347  0.5461  0.2431 -0.0502
  151MOL0     O19830   7.277   8.100   9.255  0.3146 -0.8624  0.1882
  151MOL0     C19831   7.142   8.088   9.279  0.9313 -0.0761  0.0742
  151MOL0     C19832   7.069   8.062   9.168 -0.1289 -0.5169 -0.0523
  151MOL0     C19833   6.932   8.039   9.167 -0.4518 -0.3926 -0.4200
  151MOL0     C19834   6.869   8.030   9.289  1.2047 -0.2020 -0.2545
  151MOL0     O19835   6.743   7.977   9.303 -0.3130  0.0366 -0.3565
  151MOL0     C19836   6.663   7.965   9.189  0.9475  0.1387 -0.6182
  151MOL0     C19837   6.518   7.953   9.230 -1.2969  0.3846 -0.2689
  151MOL0     C19838   6.425   7.907   9.125  0.7851  0.3495 -0.2606
  151MOL0     C19839   6.459   7.964   8.983  0.2551  0.7994  1.2644
  151MOL0     C19840   6.360   7.918   8.877 -0.3450 -0.7680 -0.4065
  151MOL0     C19841   6.316   7.778   8.870 -0.0163 -1.3951 -0.0342
  151MOL0     C19842   6.417   7.684   8.804 -0.4222 -0.4656  0.5930
  151MOL0     C19843   6.364   7.539   8.799 -0.2367 -0.4843  0.3604
  151MOL0    Cl19844   6.339   7.476   8.958 -0.0521 -0.0696 -0.2276
  151MOL0     C19845   6.933   8.048   9.406 -1.3302 -0.2771  0.3095
  151MOL0     C19846   7.064   8.084   9.394  0.2975  0.4141  0.0518
  151MOL0     O19847   7.358   8.031   9.460 -0.5708  0.6168 -0.4479
  151MOL0     C19848   7.546   8.120   9.157  0.9308  0.6681  0.8289
  151MOL0     C19849   7.672   8.106   9.105  0.3270  0.0240  0.3665
  151MOL0     N19850   8.545   7.800   9.112  0.5056 -0.0835  0.4290
  151MOL0     N19851   8.615   7.693   9.093  0.2822 -0.3235 -0.3633
  151MOL0     C19852   9.323   7.060   8.335  0.2645  0.0894 -0.1314
  151MOL0     C19853   9.461   7.046   8.346 -0.0590  0.2345 -0.0806
  151MOL0     C19854   9.862   7.106   8.528 -0.4975  1.3338 -0.4408
  151MOL0     C19855   9.929   7.230   8.550  0.0360 -0.1593 -0.0037
  151MOL0     C19856  10.064   7.233   8.560  0.2326  0.1293  0.0591
  151MOL0     C19857  10.134   7.119   8.528  0.6405  0.0467  0.2778
  151MOL0     O19858  10.269   7.140   8.526  0.1388  0.1830  0.2845
  151MOL0     C19859  10.349   7.026   8.492  0.3027  0.1823 -1.2558
  151MOL0     C19860  10.374   6.944   8.614 -0.3641 -0.5374 -0.7286
  151MOL0     C19861  10.452   7.026   8.726  0.3880  0.5705  0.0681
  151MOL0     C19862  10.535   6.930   8.814  0.2580 -0.1332 -0.0035
  151MOL0     C19863  10.622   7.005   8.901  0.2752  0.7507  0.1195
  151MOL0     C19864  10.690   7.075   8.971 -0.8168  0.7968 -0.2533
  151MOL0     C19865  10.064   6.995   8.523  0.3206 -1.2936  0.0223
  151MOL0     C19866   9.932   6.990   8.518 -0.8557  0.3444 -0.9112
  151MOL0     H19867   9.493   6.795   8.571  0.7694  0.6089  0.5183
  151MOL0     H19868   9.249   6.792   8.543 -0.5337 -1.6447 -0.9713
  151MOL0     H19869   8.933   7.015   8.336  0.7641  0.2996  0.8123
  151MOL0     H19870   9.077   7.076   8.241  1.6475  3.0296 -0.5376
  151MOL0     H19871   8.992   7.264   8.339 -1.5255  0.7403  0.9110
  151MOL0     H19872   9.124   7.212   8.453 -0.5168 -1.3407  0.0522
  151MOL0     H19873   8.935   7.126   8.603 -0.1615 -0.9329  0.0323
  151MOL0     H19874   8.815   7.188   8.490  0.3171  1.4558 -0.7136
  151MOL0     H19875   9.021   7.336   8.655 -0.7114 -1.3973  1.9284
  151MOL0     H19876   8.935   7.409   8.519 -1.4708  0.5830  1.1923
  151MOL0     H19877   8.781   7.272   8.738  0.8140 -2.4074 -0.7071
  151MOL0     H19878   8.713   7.383   8.613 -0.2656  0.3121  0.7070
  151MOL0     H19879   8.906   7.547   8.683 -0.9177  1.6942  0.5696
  151MOL0     H19880   8.896   7.451   8.836 -2.6624 -0.0563  1.4888
  151MOL0     H19881   8.767   7.665   8.817 -1.6415  0.8394  2.5985
  151MOL0     H19882   8.660   7.587   8.705 -1.2162 -1.0274  1.0836
  151MOL0     H19883   8.698   7.463   8.979 -2.8173 -2.9351 -1.0534
  151MOL0     H19884   8.550   7.461   8.887 -0.9767 -0.0697  2.1680
  151MOL0     H19885   8.453   7.718   8.805 -2.1787  0.4892  1.3116
  151MOL0     H19886   8.308   7.886   8.884  0.1971 -0.6507 -0.0092
  151MOL0     H19887   8.413   8.021   8.947  0.2122 -0.0502 -1.8023
  151MOL0     H19888   8.298   7.994   9.175 -2.0447  1.8009  0.8302
  151MOL0     H19889   8.216   7.847   9.111 -2.5124  1.4610  1.6556
  151MOL0     H19890   8.155   8.133   9.030  0.8494  0.0363  0.3310
  151MOL0     H19891   8.082   7.986   8.960  1.6570  0.3238 -1.9278
  151MOL0     H19892   8.054   8.082   9.251 -0.8631 -2.9094  1.7544
  151MOL0     H19893   8.012   7.917   9.193 -0.3982 -0.2821 -0.7070
  151MOL0     H19894   7.848   7.989   9.368 -0.6259 -1.3562  0.3942
  151MOL0     H19895   7.618   8.011   9.473  0.0410 -3.4672  0.5329
  151MOL0     H19896   7.129   8.049   9.078  1.3613  1.1976  0.6193
  151MOL0     H19897   6.885   8.017   9.071 -1.4268  1.1232 -0.3078
  151MOL0     H19898   6.692   7.878   9.130  1.3211 -0.1268 -0.0576
  151MOL0     H19899   6.687   8.050   9.125  0.6487  0.6163 -0.1085
  151MOL0     H19900   6.484   8.053   9.257 -2.1300  0.8032 -2.6780
  151MOL0     H19901   6.501   7.891   9.319  1.2468 -0.6745 -0.4406
  151MOL0     H19902   6.327   7.950   9.148  0.9609  2.8213 -3.4003
  151MOL0     H19903   6.432   7.798   9.133  0.2168  0.3566  0.3826
  151MOL0     H19904   6.466   8.073   8.991  0.5668  0.8535  0.3546
  151MOL0     H19905   6.561   7.929   8.962 -0.7660 -2.3520  1.0320
  151MOL0     H19906   6.403   7.955   8.783 -1.3560  2.5926  0.3328
  151MOL0     H19907   6.277   7.985   8.900  1.9350  2.6013 -1.2052
  151MOL0     H19908   6.228   7.781   8.805 -0.4439  0.5306  0.6032
  151MOL0     H19909   6.292   7.741   8.970  1.5295 -1.0671  0.4918
  151MOL0     H19910   6.430   7.704   8.697  1.1978 -1.1985  0.6221
  151MOL0     H19911   6.515   7.703   8.850  0.0744 -2.6288  0.5291
  151MOL0     H19912   6.431   7.469   8.749  0.9070  0.6919  0.1782
  151MOL0     H19913   6.265   7.535   8.751 -0.6316 -2.6114  1.2775
  151MOL0     H19914   6.906   8.030   9.510 -4.7883  0.3485 -0.3523
  151MOL0     H19915   7.118   8.115   9.483  1.6309 -0.5132 -0.4015
  151MOL0     H19916   7.465   8.139   9.087  0.1559  0.6163  1.6911
  151MOL0     H19917   7.675   8.136   9.001  0.2358 -1.6618 -0.1579
  151MOL0     H19918   9.287   7.137   8.267  0.6202 -1.8024 -2.6242
  151MOL0     H19919   9.529   7.117   8.300  1.2071  1.0529  2.8124
  151MOL0     H19920   9.875   7.323   8.566  0.6716 -0.0885  2.0352
  151MOL0     H19921  10.115   7.326   8.580 -1.8113  1.2750  0.2909
  151MOL0     H19922  10.442   7.067   8.449  1.4363 -1.7568 -0.7577
  151MOL0     H19923  10.301   6.970   8.411 -1.1281 -0.3860 -0.0608
  151MOL0     H19924  10.286   6.904   8.665  1.5895 -1.5601  2.1132
  151MOL0     H19925  10.436   6.858   8.588  1.0061 -0.1922  1.1891
  151MOL0     H19926  10.379   7.091   8.775  0.8739  0.2456  1.2797
  151MOL0     H19927  10.518   7.088   8.664  0.2312 -0.7816 -1.5078
  151MOL0     H19928  10.473   6.854   8.863 -0.1967 -1.8227 -2.9610
  151MOL0     H19929  10.599   6.871   8.747  1.8079 -0.2115  1.4807
  151MOL0     H19930  10.751   7.142   9.027 -1.1916  2.0099 -1.2708
  151MOL0     H19931  10.120   6.902   8.524 -0.9435 -2.1023  2.1264
  151MOL0     H19932   9.896   6.887   8.508 -1.2213  0.5460 -1.8112
  152MOL0     O19933   0.436   1.862   1.264  0.0083  0.2549  0.4369
  152MOL0     C19934   0.349   1.950   1.254 -0.1536 -0.0995  0.1058
  152MOL0     O19935   0.375   2.091   1.251 -0.2379 -0.5026 -0.2981
  152MOL0     C19936   0.499   2.155   1.257 -0.2430  0.3444 -1.1634
  152MOL0     C19937   0.624   2.090   1.298  0.2795 -0.4287 -0.0300
  152MOL0     C19938   0.748   2.158   1.303 -0.6300  0.1168  0.0413
  152MOL0     C19939   0.745   2.301   1.284 -0.2330  0.2648  0.5961
  152MOL0     O19940   0.861   2.377   1.303  0.3237 -0.0116  0.0255
  152MOL0     C19941   0.873   2.478   1.407 -0.6646 -0.2909  0.1833
  152MOL0     C19942   1.022   2.483   1.447  0.4168 -0.1109 -0.8316
  152MOL0     C19943   1.069   2.353   1.517 -1.2422  0.0968  0.1046
  152MOL0     C19944   1.200   2.376   1.607  0.2191  0.1694  0.1819
  152MOL0     C19945   1.285   2.248   1.627  0.2919  0.1607 -0.2332
  152MOL0     C19946   1.390   2.281   1.728  0.0908 -0.2078 -0.4146
  152MOL0     C19947   1.493   2.169   1.747  0.5050 -0.2621  0.1297
  152MOL0     C19948   1.450   2.056   1.836 -0.0635  0.1108  1.1709
  152MOL0     N19949   1.340   2.084   1.924  0.4416 -0.6126  1.3223
  152MOL0     C19950   1.221   2.020   1.909  0.0953 -0.5458  0.2721
  152MOL0     C19951   1.134   2.076   1.999 -0.4438 -0.0014 -0.3917
  152MOL0     C19952   0.992   2.032   2.018  0.4846 -0.1919  0.4146
  152MOL0     C19953   0.924   1.991   1.883  0.2367 -0.3193 -0.6226
  152MOL0     C19954   0.910   2.103   1.782  1.0743  0.5671  0.2584
  152MOL0     C19955   0.875   2.049   1.645  0.1965  0.3108  0.8708
  152MOL0     O19956   0.759   1.955   1.641 -0.7537 -0.6669  0.2586
  152MOL0     C19957   0.637   2.005   1.643  0.4095  0.4254  0.6994
  152MOL0     C19958   0.608   2.140   1.642  0.8377 -0.2650 -0.5371
  152MOL0     C19959   0.478   2.199   1.651  0.4152  0.0498  0.5909
  152MOL0     C19960   0.371   2.106   1.637 -0.0896 -0.7294  0.1536
  152MOL0     C19961   0.227   2.159   1.624 -0.4718 -1.0525 -0.6199
  152MOL0     O19962   0.126   2.067   1.633 -0.1636 -0.7823  0.0138
  152MOL0     C19963  -0.008   2.103   1.618 -0.7200  0.0911 -0.0647
  152MOL0     C19964  -0.055   2.237   1.628 -0.1937  0.7687 -0.3560
  152MOL0     C19965  -0.188   2.256   1.586 -0.1966 -0.3640 -0.7162
  152MOL0     C19966  -0.277   2.153   1.576  0.6097  0.6481  0.3157
  152MOL0     O19967  -0.406   2.157   1.549  0.7499  0.5271  0.5018
  152MOL0     C19968  -0.449   2.270   1.469 -0.0665  0.0345 -0.3695
  152MOL0     C19969  -0.609   2.257   1.481  0.0049  0.2604  0.4519
  152MOL0     C19970  -0.671   2.377   1.423  0.8233 -0.8413  0.7756
  152MOL0     C19971  -0.823   2.383   1.449 -0.9036 -0.2839  0.8627
  152MOL0     C19972  -0.879   2.522   1.434 -0.5680 -0.0782  0.3133
  152MOL0     C19973  -0.865   2.584   1.289 -0.3769  0.6774  0.6838
  152MOL0     C19974  -0.910   2.735   1.274  0.1920 -0.6771  0.1558
  152MOL0     C19975  -0.902   2.808   1.141  0.5770 -0.8610 -0.2561
  152MOL0    Cl19976  -0.985   2.715   1.017  0.1574  0.3636  0.5240
  152MOL0     C19977  -0.236   2.028   1.580 -0.6699 -1.0722  0.1128
  152MOL0     C19978  -0.098   1.998   1.598 -0.6353 -1.0654 -0.3005
  152MOL0     O19979   0.220   2.277   1.583 -0.6636  0.0733  0.0608
  152MOL0     C19980   0.392   1.968   1.642  0.5296 -0.1012  0.1845
  152MOL0     C19981   0.525   1.926   1.627  1.0270  0.6517 -0.1535
  152MOL0     N19982   1.207   2.181   2.051  0.1694  1.6766 -0.2677
  152MOL0     N19983   1.330   2.190   2.015  1.0060  0.6429  0.6440
  152MOL0     C19984   0.622   2.364   1.250 -0.7037 -0.0811 -0.7475
  152MOL0     C19985   0.506   2.292   1.234 -0.1650 -0.6701  0.8227
  152MOL0     C19986   0.208   1.902   1.264  0.4222 -0.0513 -0.3058
  152MOL0     C19987   0.165   1.764   1.250  0.2087 -0.3374 -0.6186
  152MOL0     C19988   0.029   1.732   1.242 -1.1307  0.3762 -0.0068
  152MOL0     C19989  -0.057   1.838   1.259  0.3772 -0.0094  0.2665
  152MOL0     O19990  -0.188   1.818   1.249 -0.1148 -0.2558  0.6068
  152MOL0     C19991  -0.252   1.700   1.306 -0.2886 -0.4376  0.2188
  152MOL0     C19992  -0.402   1.688   1.265  0.6981 -0.0610 -0.5780
  152MOL0     C19993  -0.476   1.822   1.280  0.3377 -0.8735 -0.2762
  152MOL0     C19994  -0.531   1.838   1.422  0.0499 -0.1697 -1.0999
  152MOL0     C19995  -0.632   1.738   1.453 -0.2779  0.6041  0.5671
  152MOL0     C19996  -0.717   1.658   1.484 -0.2768  0.4083 -0.9687
  152MOL0     C19997  -0.020   1.967   1.286  0.1006 -0.0596 -0.0372
  152MOL0     C19998   0.111   1.998   1.288  0.7284 -0.2274  0.7694
  152MOL0     H19999   0.626   1.983   1.317  1.3647 -0.6155 -1.0558
  152MOL0     H20000   0.839   2.110   1.336 -1.6829 -2.1132 -0.1273
  152MOL0     H20001   0.803   2.466   1.490 -2.1214 -0.6309 -1.0380
  152MOL0     H20002   0.840   2.575   1.368  1.1279 -0.9389 -3.3236
  152MOL0     H20003   1.038   2.562   1.522 -0.9798  2.0167 -2.6286
  152MOL0     H20004   1.082   2.487   1.356 -0.8209  0.1003 -1.6555
  152MOL0     H20005   1.073   2.263   1.455 -0.5318 -1.7315  2.6355
  152MOL0     H20006   0.986   2.330   1.585 -0.3248 -0.7055  0.9978
  152MOL0     H20007   1.262   2.452   1.558  1.1226  0.2054  1.3305
  152MOL0     H20008   1.164   2.419   1.701  0.0121 -0.1658  0.2584
  152MOL0     H20009   1.329   2.216   1.532 -0.9700 -2.0196 -0.1322
  152MOL0     H20010   1.226   2.170   1.675  3.2103 -0.1125  3.3057
  152MOL0     H20011   1.346   2.319   1.821  1.5153 -1.0120  0.6132
  152MOL0     H20012   1.445   2.369   1.693 -0.8675 -0.9660 -4.3260
  152MOL0     H20013   1.509   2.136   1.644  0.0529  1.0452 -0.3832
  152MOL0     H20014   1.589   2.203   1.788 -0.1077  0.8561  0.6629
  152MOL0     H20015   1.538   2.037   1.898 -0.2837 -0.4090  1.3306
  152MOL0     H20016   1.419   1.971   1.775 -1.2121  0.1116  1.7300
  152MOL0     H20017   1.192   1.940   1.841  0.3856 -0.8504  0.5077
  152MOL0     H20018   0.937   2.109   2.074  0.0309 -0.3519  0.1951
  152MOL0     H20019   0.985   1.953   2.093 -1.4020 -0.6716 -0.1961
  152MOL0     H20020   0.820   1.964   1.904 -0.5886  3.3545  0.6438
  152MOL0     H20021   0.968   1.901   1.839  1.7298 -1.5018  2.8781
  152MOL0     H20022   0.830   2.169   1.815 -0.0975 -0.9046  0.4491
  152MOL0     H20023   1.000   2.164   1.769  1.3882 -0.0615 -0.5454
  152MOL0     H20024   0.954   2.007   1.584 -0.8018  0.3172 -0.4678
  152MOL0     H20025   0.857   2.140   1.586  0.5576 -0.0186  0.2516
  152MOL0     H20026   0.686   2.215   1.638  2.8641 -2.2243  0.0927
  152MOL0     H20027   0.471   2.307   1.637 -0.3930 -0.3524 -3.4762
  152MOL0     H20028   0.007   2.320   1.659  1.6192 -1.2543  1.8397
  152MOL0     H20029  -0.228   2.356   1.603 -0.6487 -0.2316 -2.3843
  152MOL0     H20030  -0.414   2.269   1.366 -0.0187  1.0628 -0.3802
  152MOL0     H20031  -0.404   2.366   1.495  2.7089  0.4251 -5.4380
  152MOL0     H20032  -0.643   2.237   1.583 -0.4075  0.4970  0.3619
  152MOL0     H20033  -0.642   2.178   1.414 -2.5886  0.8044  0.9846
  152MOL0     H20034  -0.662   2.382   1.314 -2.0814  0.4318  0.4980
  152MOL0     H20035  -0.625   2.468   1.461  0.4825  1.6095 -3.9507
  152MOL0     H20036  -0.885   2.316   1.389 -0.4227 -0.0779  0.1198
  152MOL0     H20037  -0.831   2.357   1.555 -2.3879  1.8562  1.3493
  152MOL0     H20038  -0.836   2.581   1.515  1.1999 -1.6352  0.5889
  152MOL0     H20039  -0.982   2.508   1.466 -0.3900  1.9261  1.9312
  152MOL0     H20040  -0.910   2.512   1.219  1.2758  2.4420 -2.4106
  152MOL0     H20041  -0.758   2.589   1.272 -0.6334  0.4090 -1.1993
  152MOL0     H20042  -1.014   2.737   1.305 -1.0761  3.5903 -3.2899
  152MOL0     H20043  -0.852   2.796   1.344  0.0216  0.1733 -0.4169
  152MOL0     H20044  -0.795   2.813   1.116  0.6486 -0.5356  0.1026
  152MOL0     H20045  -0.946   2.908   1.149 -2.0234 -1.7359 -2.1646
  152MOL0     H20046  -0.310   1.948   1.573 -1.4272 -0.6571  2.3705
  152MOL0     H20047  -0.065   1.896   1.613  1.7603 -0.4058 -0.5094
  152MOL0     H20048   0.313   1.895   1.651 -0.0347  0.0937 -2.4497
  152MOL0     H20049   0.536   1.818   1.614 -1.6778  0.3046 -0.1426
  152MOL0     H20050   0.617   2.470   1.229  0.9248  0.0479 -0.6204
  152MOL0     H20051   0.413   2.346   1.221  0.9535  1.4324  1.2487
  152MOL0     H20052   0.241   1.688   1.238 -1.1054 -1.9859  0.9864
  152MOL0     H20053   0.007   1.626   1.231  3.1990 -0.5659 -1.6314
  152MOL0     H20054  -0.246   1.711   1.414  1.2506  0.0977  0.1048
  152MOL0     H20055  -0.211   1.600   1.288  2.9500  0.7428  0.3449
  152MOL0     H20056  -0.400   1.656   1.161  0.8538 -0.4757 -0.4465
  152MOL0     H20057  -0.451   1.615   1.330  1.7303 -0.7775 -0.5804
  152MOL0     H20058  -0.550   1.806   1.201  0.8043  0.9823 -1.1477
  152MOL0     H20059  -0.420   1.914   1.266  2.8880 -1.9049  2.2465
  152MOL0     H20060  -0.456   1.821   1.499 -3.6306 -0.7176  2.7101
  152MOL0     H20061  -0.576   1.937   1.434 -2.8794 -1.4027 -1.0613
  152MOL0     H20062  -0.796   1.595   1.521  1.9118 -0.1341  3.3551
  152MOL0     H20063  -0.092   2.044   1.311  0.1766 -0.4052  1.3336
  152MOL0     H20064   0.130   2.097   1.330 -1.7930 -1.0882  4.3865
  153MOL0     O20065   6.388   6.884   5.211 -0.0558  0.2933 -0.6559
  153MOL0     C20066   6.460   6.818   5.284  0.7741  0.5340  0.3319
  153MOL0     O20067   6.419   6.743   5.394 -0.6049  0.8317 -0.1880
  153MOL0     C20068   6.284   6.740   5.430  0.1149  0.1593  0.7653
  153MOL0     C20069   6.267   6.610   5.482  0.5947 -0.3950 -1.3452
  153MOL0     C20070   6.140   6.586   5.534  0.2662  0.3250  0.2189
  153MOL0     C20071   6.036   6.676   5.532  0.0175  0.5947  0.9809
  153MOL0     O20072   5.909   6.664   5.589  0.4357  0.3214 -0.5177
  153MOL0     C20073   5.877   6.528   5.637 -0.1006  0.1243 -0.8038
  153MOL0     C20074   5.728   6.524   5.671  0.6252 -0.7934 -0.2123
  153MOL0     C20075   5.697   6.378   5.723 -0.1055 -1.0824  0.2085
  153MOL0     C20076   5.541   6.382   5.752 -0.4789  0.7966  0.6624
  153MOL0     C20077   5.503   6.235   5.795  0.0847  0.2532 -0.5531
  153MOL0     C20078   5.358   6.241   5.852 -0.4219 -0.0349 -0.0778
  153MOL0     C20079   5.328   6.105   5.900 -0.2325  0.0816 -0.2452
  153MOL0     C20080   5.187   6.071   5.949  0.0176  1.3130 -0.1932
  153MOL0     N20081   5.144   6.151   6.061 -0.4662  0.5390 -0.0539
  153MOL0     C20082   5.112   6.288   6.049 -0.2463  0.2303 -0.7142
  153MOL0     C20083   5.035   6.307   6.159  0.1528  0.6486  0.0200
  153MOL0     C20084   4.955   6.426   6.192  0.3131 -0.0993 -0.4568
  153MOL0     C20085   4.972   6.479   6.340  0.1943 -0.4681  1.0239
  153MOL0     C20086   4.919   6.633   6.331  0.0388  1.2980 -0.0409
  153MOL0     C20087   4.959   6.705   6.457 -0.1812  0.0452 -0.8771
  153MOL0     O20088   4.898   6.838   6.454 -0.7580  0.8261  0.3201
  153MOL0     C20089   4.977   6.948   6.453 -0.6916  0.3460  1.1608
  153MOL0     C20090   4.919   7.067   6.406  0.5033 -1.1651 -0.0929
  153MOL0     C20091   4.985   7.192   6.406 -0.2261  0.1747  0.3283
  153MOL0     C20092   5.124   7.189   6.453  0.0010 -0.3323 -0.3641
  153MOL0     C20093   5.211   7.314   6.449  0.4439  0.0996  0.0007
  153MOL0     O20094   5.168   7.428   6.386  0.3837  0.5586  0.0370
  153MOL0     C20095   5.250   7.534   6.381  0.0660  0.1546 -0.1389
  153MOL0     C20096   5.369   7.516   6.317 -1.3221 -0.2746  0.5224
  153MOL0     C20097   5.462   7.618   6.309 -0.5978  0.3578 -0.1124
  153MOL0     C20098   5.430   7.751   6.358  0.4602  0.3785 -0.2217
  153MOL0     O20099   5.523   7.850   6.351  0.2195 -0.6110 -0.3380
  153MOL0     C20100   5.655   7.806   6.395  0.2547 -0.2830 -0.2954
  153MOL0     C20101   5.757   7.906   6.390 -0.5976  0.6984  0.5666
  153MOL0     C20102   5.748   8.025   6.477 -0.4080 -0.3361 -0.0222
  153MOL0     C20103   5.821   8.003   6.613  0.7244 -0.3166 -0.7598
  153MOL0     C20104   5.804   8.126   6.705 -0.2286 -0.3748  0.3562
  153MOL0     C20105   5.701   8.118   6.816 -0.1845 -1.0561  0.6004
  153MOL0     C20106   5.556   8.106   6.768 -0.4231  0.5582 -0.1892
  153MOL0     C20107   5.463   8.096   6.877  0.8992  0.3881 -0.5214
  153MOL0    Cl20108   5.304   8.075   6.791  0.1097 -0.2298 -0.2834
  153MOL0     C20109   5.304   7.781   6.420 -0.6144 -0.0477  0.6016
  153MOL0     C20110   5.212   7.668   6.423 -0.5386  0.1188 -0.3807
  153MOL0     O20111   5.315   7.305   6.515  0.3042 -0.9215  0.4356
  153MOL0     C20112   5.168   7.070   6.504 -0.3643 -0.4311 -0.3147
  153MOL0     C20113   5.105   6.949   6.505  0.2550  0.5918 -0.9760
  153MOL0     N20114   5.057   6.196   6.247 -0.5385 -0.5590  0.1918
  153MOL0     N20115   5.107   6.097   6.179 -0.3244 -0.0741  1.0020
  153MOL0     C20116   6.058   6.804   5.470  0.6228 -0.8262 -0.3858
  153MOL0     C20117   6.179   6.834   5.412 -0.9449 -0.1028  0.1715
  153MOL0     C20118   6.604   6.809   5.251 -0.9329  1.0348  0.4184
  153MOL0     C20119   6.699   6.757   5.336 -0.2840 -1.3136 -0.1375
  153MOL0     C20120   6.836   6.739   5.302  0.3194  0.0115  1.0139
  153MOL0     C20121   6.872   6.770   5.170 -0.2368 -0.5826  0.0964
  153MOL0     O20122   7.000   6.753   5.111 -0.1704 -0.5124  0.6620
  153MOL0     C20123   7.098   6.690   5.197  0.5734  0.5351  0.6367
  153MOL0     C20124   7.235   6.742   5.146  0.0358  0.4803 -0.1174
  153MOL0     C20125   7.269   6.662   5.017 -0.6478  0.5380  0.6250
  153MOL0     C20126   7.415   6.612   5.028  0.2224 -1.0585 -0.7691
  153MOL0     C20127   7.439   6.524   4.912 -1.1526  1.0296  0.0347
  153MOL0     C20128   7.478   6.447   4.824 -0.4240 -0.4533  1.1053
  153MOL0     C20129   6.782   6.827   5.075 -0.3866 -0.7440 -1.0579
  153MOL0     C20130   6.641   6.832   5.117 -0.4967 -0.5241  0.2978
  153MOL0     H20131   6.339   6.531   5.500  2.8278  0.8243 -4.2036
  153MOL0     H20132   6.136   6.486   5.577 -0.4793  0.3578  0.2407
  153MOL0     H20133   5.931   6.491   5.725 -1.6775  0.0960  0.2031
  153MOL0     H20134   5.889   6.460   5.552  4.6820  0.8297 -0.9366
  153MOL0     H20135   5.671   6.542   5.579  0.5280  1.5381  0.2367
  153MOL0     H20136   5.687   6.592   5.746  1.5926 -2.1178  1.5945
  153MOL0     H20137   5.741   6.363   5.822 -2.4430  0.4496  1.5929
  153MOL0     H20138   5.737   6.305   5.653  2.6365 -1.6196  2.1708
  153MOL0     H20139   5.510   6.465   5.817 -1.2552  1.8558 -0.9781
  153MOL0     H20140   5.481   6.409   5.664  2.8694  2.4155 -1.2965
  153MOL0     H20141   5.572   6.190   5.867  1.4223  3.3931  0.2720
  153MOL0     H20142   5.505   6.167   5.709  1.0004 -0.0283 -0.3251
  153MOL0     H20143   5.283   6.273   5.779 -1.3113  0.1806  0.9171
  153MOL0     H20144   5.362   6.313   5.933  3.4938 -3.1687  2.9331
  153MOL0     H20145   5.355   6.037   5.819  1.3594 -1.9179  1.8302
  153MOL0     H20146   5.400   6.066   5.972 -0.8371 -2.0500 -0.7416
  153MOL0     H20147   5.188   5.970   5.991 -3.1849  0.4767 -1.7801
  153MOL0     H20148   5.116   6.084   5.867 -1.4578  1.9493  1.1411
  153MOL0     H20149   5.133   6.357   5.968  1.0772  0.6604 -0.0245
  153MOL0     H20150   4.849   6.402   6.180  0.2982 -1.9594  2.4578
  153MOL0     H20151   4.986   6.505   6.123  1.7366 -0.0977  0.1435
  153MOL0     H20152   5.078   6.481   6.367  0.6546 -1.0019 -0.6112
  153MOL0     H20153   4.916   6.424   6.415 -0.2223  0.9433  1.7879
  153MOL0     H20154   4.975   6.682   6.251  0.9035  0.3308 -0.0316
  153MOL0     H20155   4.810   6.636   6.325 -0.1056  0.7949  1.8222
  153MOL0     H20156   5.068   6.701   6.465 -0.1441  0.0556 -1.3220
  153MOL0     H20157   4.930   6.658   6.551  2.4259  0.8594  0.4411
  153MOL0     H20158   4.815   7.066   6.376  0.0691  0.6337  1.2212
  153MOL0     H20159   4.944   7.284   6.365 -0.8701 -0.2508 -0.0009
  153MOL0     H20160   5.398   7.421   6.274 -0.0281  0.3951 -0.1548
  153MOL0     H20161   5.560   7.579   6.284 -1.3680 -1.4400 -0.4883
  153MOL0     H20162   5.687   7.719   6.337 -1.3014 -0.3161 -1.1790
  153MOL0     H20163   5.639   7.773   6.497 -0.3374 -0.5688 -0.4748
  153MOL0     H20164   5.773   7.946   6.290 -3.0411  2.2145  0.6854
  153MOL0     H20165   5.851   7.854   6.411  0.7821  1.3187 -3.3578
  153MOL0     H20166   5.640   8.038   6.493 -0.0587  1.7424  0.9395
  153MOL0     H20167   5.792   8.115   6.433 -2.4169  1.7251  1.8722
  153MOL0     H20168   5.788   7.919   6.675  2.0317 -0.7648 -0.6467
  153MOL0     H20169   5.929   7.988   6.613  1.2748  2.3365  3.0673
  153MOL0     H20170   5.782   8.215   6.647  0.2544  0.0295  0.7821
  153MOL0     H20171   5.899   8.154   6.753 -1.8992  4.8906  1.2284
  153MOL0     H20172   5.713   8.209   6.877 -1.3842 -0.6027  0.1766
  153MOL0     H20173   5.735   8.034   6.877  1.5523  0.3970  1.7836
  153MOL0     H20174   5.528   8.189   6.703 -0.3253 -0.7945 -2.0629
  153MOL0     H20175   5.530   8.018   6.707 -4.7816  1.1659  0.4676
  153MOL0     H20176   5.462   8.182   6.945  3.5024 -1.0326  1.4759
  153MOL0     H20177   5.492   8.006   6.931  1.5827  1.3237  0.7121
  153MOL0     H20178   5.286   7.885   6.445  0.2997  0.3592 -0.3583
  153MOL0     H20179   5.110   7.678   6.458 -0.9975 -1.1524 -1.2729
  153MOL0     H20180   5.265   7.077   6.553 -0.5667 -0.2844  0.0706
  153MOL0     H20181   5.148   6.866   6.560  0.9673 -0.3602 -2.8773
  153MOL0     H20182   5.983   6.881   5.480 -0.3899 -1.9696  1.3252
  153MOL0     H20183   6.199   6.927   5.360  3.9701 -1.0349 -0.1350
  153MOL0     H20184   6.684   6.741   5.442  1.5536 -1.3958  0.1426
  153MOL0     H20185   6.909   6.695   5.369  1.7556 -0.4115 -0.7432
  153MOL0     H20186   7.097   6.581   5.196  1.1545  0.5160  1.1937
  153MOL0     H20187   7.095   6.715   5.304 -1.9105 -0.5403  0.8884
  153MOL0     H20188   7.230   6.851   5.133  0.5192  0.3635 -1.3503
  153MOL0     H20189   7.297   6.719   5.233 -0.5433  0.5906  0.3405
  153MOL0     H20190   7.263   6.714   4.921  0.6299 -1.6995 -0.7521
  153MOL0     H20191   7.205   6.574   5.004  0.8235 -0.6013  0.8812
  153MOL0     H20192   7.486   6.695   5.031 -1.4827  0.4340  0.9566
  153MOL0     H20193   7.444   6.558   5.119  2.3496  2.1334  0.6312
  153MOL0     H20194   7.504   6.379   4.745  0.3815  0.3203  0.6981
  153MOL0     H20195   6.806   6.854   4.973 -1.8011 -2.2870 -1.8614
  153MOL0     H20196   6.564   6.859   5.046 -0.6378 -0.0447  0.6269
  154MOL0     O20197   0.609   2.032   6.107 -0.1863  0.5416 -0.2368
  154MOL0     C20198   0.557   1.951   6.181 -0.2416 -0.7839 -0.0334
  154MOL0     O20199   0.620   1.874   6.265 -0.2692  0.1095 -0.1269
  154MOL0     C20200   0.760   1.883   6.268  0.4610  0.1483 -0.2388
  154MOL0     C20201   0.820   1.769   6.308 -0.3291 -0.1143 -0.0179
  154MOL0     C20202   0.962   1.766   6.323  0.9905  0.1464 -0.3795
  154MOL0     C20203   1.040   1.883   6.313  0.1223  0.7011  0.0628
  154MOL0     O20204   1.172   1.908   6.336  0.4764  0.4801 -0.8423
  154MOL0     C20205   1.239   1.794   6.405  0.2328  0.2817  0.4666
  154MOL0     C20206   1.360   1.827   6.494  1.0303 -0.3618 -0.0276
  154MOL0     C20207   1.358   1.936   6.607  0.4860  0.5684 -0.2740
  154MOL0     C20208   1.510   1.962   6.645  0.0795  0.0077  0.4470
  154MOL0     C20209   1.520   2.069   6.758  0.1386 -0.0706 -0.1406
  154MOL0     C20210   1.505   2.012   6.901 -0.5976  0.9290 -0.9592
  154MOL0     C20211   1.512   2.127   7.007  0.9819 -0.3072 -0.6228
  154MOL0     C20212   1.517   2.083   7.153 -0.3203  0.1614 -0.2472
  154MOL0     N20213   1.542   2.199   7.245  0.4952  0.8020  0.1651
  154MOL0     C20214   1.554   2.333   7.223  0.5594  0.7041  0.8315
  154MOL0     C20215   1.586   2.389   7.339  0.1966  0.2667  0.2937
  154MOL0     C20216   1.603   2.543   7.355  0.5898 -0.3395  0.0661
  154MOL0     C20217   1.539   2.586   7.490  0.5274 -0.3621 -0.5322
  154MOL0     C20218   1.384   2.592   7.499 -0.8206 -1.1613 -0.2374
  154MOL0     C20219   1.295   2.480   7.438  0.6859  0.4199  0.3703
  154MOL0     O20220   1.162   2.494   7.494 -0.4652 -0.1300 -0.1559
  154MOL0     C20221   1.061   2.437   7.442  0.4048 -0.7039  0.3844
  154MOL0     C20222   1.069   2.342   7.339 -0.8017 -0.0881 -0.3717
  154MOL0     C20223   0.957   2.297   7.274 -0.2103  0.4374  0.8917
  154MOL0     C20224   0.834   2.346   7.310 -0.6708 -1.0083 -0.1435
  154MOL0     C20225   0.715   2.294   7.260 -0.2209 -0.6774  0.1805
  154MOL0     O20226   0.607   2.373   7.270 -0.0403  0.1780  0.2189
  154MOL0     C20227   0.479   2.348   7.211 -0.1259  0.0548  0.3160
  154MOL0     C20228   0.440   2.228   7.145 -0.7906  0.8289 -0.1431
  154MOL0     C20229   0.309   2.201   7.097 -0.6889  0.0599  0.4567
  154MOL0     C20230   0.219   2.302   7.107  0.5821  0.0202  0.0106
  154MOL0     O20231   0.094   2.267   7.053  0.2998  0.6486 -0.4083
  154MOL0     C20232  -0.006   2.369   7.037 -0.0680 -0.0858  0.1690
  154MOL0     C20233  -0.078   2.318   6.911 -0.5473 -0.9954  0.2030
  154MOL0     C20234  -0.143   2.178   6.911 -0.0316 -0.5431 -0.7702
  154MOL0     C20235  -0.289   2.193   6.869 -0.0059 -0.2899 -0.0400
  154MOL0     C20236  -0.341   2.045   6.876  0.2223 -0.6062 -0.2176
  154MOL0     C20237  -0.497   2.051   6.864 -1.0478  0.0007  0.0643
  154MOL0     C20238  -0.553   1.903   6.890  0.4230  0.4228  0.3874
  154MOL0     C20239  -0.580   1.871   7.036 -0.1254 -0.4461  0.3285
  154MOL0    Cl20240  -0.424   1.794   7.109  0.0750 -0.6527  0.2964
  154MOL0     C20241   0.255   2.420   7.173 -0.3635  0.4471 -0.1263
  154MOL0     C20242   0.382   2.443   7.210 -0.2205 -0.7169 -0.4006
  154MOL0     O20243   0.727   2.198   7.186 -0.1900 -0.4278 -0.1181
  154MOL0     C20244   0.822   2.437   7.418 -0.2690 -0.3835  0.3976
  154MOL0     C20245   0.934   2.481   7.485 -0.5324 -0.6290  0.1019
  154MOL0     N20246   1.588   2.285   7.436  0.1506  0.2144 -0.5100
  154MOL0     N20247   1.556   2.174   7.378 -0.4533 -1.6530  0.9315
  154MOL0     C20248   0.963   2.001   6.295  0.2961  0.3579  0.0962
  154MOL0     C20249   0.829   1.999   6.261 -0.7302 -0.3032 -0.0315
  154MOL0     C20250   0.406   1.938   6.162  0.1761 -0.5158  0.0130
  154MOL0     C20251   0.347   1.988   6.046  0.1055  0.5773  0.1141
  154MOL0     C20252   0.216   1.966   6.017  0.8394  1.0029  0.1408
  154MOL0     C20253   0.129   1.897   6.103  0.2964  0.4814  0.2548
  154MOL0     O20254  -0.005   1.883   6.071 -0.0007  0.3504 -0.0378
  154MOL0     C20255  -0.041   1.779   5.971  0.8949 -0.4587 -0.0703
  154MOL0     C20256  -0.145   1.688   6.043 -0.1554  0.3813 -0.9988
  154MOL0     C20257  -0.113   1.627   6.181  0.3989  0.3786  0.8782
  154MOL0     C20258   0.007   1.537   6.182  0.5854  0.0945 -0.8179
  154MOL0     C20259  -0.009   1.452   6.299 -0.4670 -0.3545 -0.1751
  154MOL0     C20260  -0.037   1.382   6.401  1.1321 -0.2216  0.2576
  154MOL0     C20261   0.191   1.841   6.213 -0.9257  0.4930  0.2168
  154MOL0     C20262   0.325   1.863   6.245 -0.2239  0.8755 -0.4449
  154MOL0     H20263   0.775   1.671   6.315 -0.2961 -0.2913 -1.9023
  154MOL0     H20264   1.005   1.670   6.348 -0.4526 -0.9869 -2.0665
  154MOL0     H20265   1.274   1.717   6.336  1.6304 -1.6912  3.1582
  154MOL0     H20266   1.167   1.736   6.464 -2.7853 -1.0205 -3.9672
  154MOL0     H20267   1.428   1.863   6.416 -0.6782  0.0090 -1.4198
  154MOL0     H20268   1.407   1.736   6.533  1.9286 -0.0584 -0.3671
  154MOL0     H20269   1.304   1.897   6.693  2.8580 -3.4394 -0.3629
  154MOL0     H20270   1.307   2.027   6.575 -2.3713 -1.3930 -1.6684
  154MOL0     H20271   1.540   1.862   6.678 -3.8737 -1.9968 -1.3979
  154MOL0     H20272   1.568   1.985   6.555  1.1685 -2.6463  0.3883
  154MOL0     H20273   1.435   2.135   6.737  1.3694  1.6266 -0.0107
  154MOL0     H20274   1.608   2.133   6.748  0.1947 -0.4428 -2.6925
  154MOL0     H20275   1.583   1.938   6.925 -1.2144  0.5595 -0.0028
  154MOL0     H20276   1.412   1.954   6.911  0.5679 -1.5972 -3.2866
  154MOL0     H20277   1.595   2.193   6.979  3.6397 -3.1227  0.0926
  154MOL0     H20278   1.419   2.185   7.004  1.2022  0.3199  2.1171
  154MOL0     H20279   1.583   1.997   7.168 -1.3902 -0.5775  0.4134
  154MOL0     H20280   1.415   2.051   7.180 -1.0262  1.2992 -1.4647
  154MOL0     H20281   1.546   2.382   7.126  1.6620  0.1891  0.4642
  154MOL0     H20282   1.561   2.600   7.272  2.1601  0.3035 -0.3200
  154MOL0     H20283   1.709   2.570   7.351  0.4407  0.5380 -5.6890
  154MOL0     H20284   1.587   2.683   7.507  2.4766 -0.6611 -3.4520
  154MOL0     H20285   1.587   2.514   7.557 -2.0020 -0.4087  1.3890
  154MOL0     H20286   1.363   2.589   7.607 -2.4249  1.1786 -0.4143
  154MOL0     H20287   1.353   2.693   7.469  0.8996 -1.2477 -2.5330
  154MOL0     H20288   1.334   2.382   7.468  0.2323  0.3076  0.6069
  154MOL0     H20289   1.304   2.486   7.329 -0.6112  1.3756  0.3018
  154MOL0     H20290   1.168   2.303   7.320 -0.6694 -0.2475  0.5874
  154MOL0     H20291   0.968   2.221   7.198  2.1944 -0.0584  1.6184
  154MOL0     H20292   0.500   2.139   7.128 -2.2041 -0.1950  0.0161
  154MOL0     H20293   0.269   2.108   7.059 -2.0158  0.8530 -0.1547
  154MOL0     H20294   0.034   2.470   7.022 -0.3767 -0.3172 -2.9226
  154MOL0     H20295  -0.072   2.367   7.124  0.1421  3.1650  0.5390
  154MOL0     H20296  -0.003   2.314   6.832 -0.4862 -2.6998  0.3100
  154MOL0     H20297  -0.149   2.395   6.878 -2.0479 -3.1488 -1.8731
  154MOL0     H20298  -0.137   2.144   7.015 -0.6186  0.0431 -0.5366
  154MOL0     H20299  -0.091   2.103   6.850 -1.8334 -2.6893  0.1706
  154MOL0     H20300  -0.348   2.255   6.937 -0.5528  1.5348 -2.0696
  154MOL0     H20301  -0.306   2.229   6.767  1.2997 -1.2591 -0.6258
  154MOL0     H20302  -0.312   2.004   6.973 -1.0129 -0.4202  0.2504
  154MOL0     H20303  -0.301   1.973   6.804 -0.8261 -3.2563  1.7170
  154MOL0     H20304  -0.522   2.078   6.761 -0.4086 -1.6040 -0.5303
  154MOL0     H20305  -0.528   2.129   6.935  2.0505  2.0161 -0.6112
  154MOL0     H20306  -0.655   1.907   6.849  1.0886  2.2073 -1.2215
  154MOL0     H20307  -0.480   1.834   6.848  0.1218 -0.8496  1.8632
  154MOL0     H20308  -0.660   1.796   7.040  1.2697 -2.1447 -1.4887
  154MOL0     H20309  -0.601   1.963   7.091  0.5185  0.2958 -0.6387
  154MOL0     H20310   0.186   2.502   7.189 -1.3824 -0.6682  1.4590
  154MOL0     H20311   0.409   2.536   7.258 -2.4474 -0.7156  0.9893
  154MOL0     H20312   0.724   2.477   7.442  0.3285  2.3176 -1.2449
  154MOL0     H20313   0.929   2.555   7.565  1.5063 -1.0797  0.7077
  154MOL0     H20314   1.015   2.095   6.309 -1.7350  1.2460  2.4099
  154MOL0     H20315   0.781   2.094   6.241  2.8501  1.4446 -1.1279
  154MOL0     H20316   0.409   2.042   5.976  0.8837  0.5948  0.7946
  154MOL0     H20317   0.160   2.006   5.933 -0.4469 -1.3905 -0.2478
  154MOL0     H20318   0.046   1.715   5.953 -2.0587 -4.6312 -1.1973
  154MOL0     H20319  -0.087   1.818   5.880  0.1530 -0.9580  0.0798
  154MOL0     H20320  -0.243   1.738   6.051 -2.3421 -3.6149 -0.2657
  154MOL0     H20321  -0.164   1.614   5.964  0.0782  1.3415 -1.9881
  154MOL0     H20322  -0.211   1.582   6.200 -0.1186  1.0998 -0.0053
  154MOL0     H20323  -0.102   1.704   6.257 -2.2126  2.2183 -0.4366
  154MOL0     H20324  -0.001   1.477   6.092  3.1256 -0.9695 -0.4142
  154MOL0     H20325   0.107   1.580   6.191  0.7492 -0.7176  3.8911
  154MOL0     H20326  -0.057   1.324   6.489 -1.9335 -0.5654 -0.5689
  154MOL0     H20327   0.141   1.773   6.281  2.6295 -1.2110  1.3415
  154MOL0     H20328   0.374   1.825   6.334  1.0304 -1.2635 -1.9610
  155MOL0     O20329   7.524   0.911   9.157 -0.2805 -0.0086 -0.6001
  155MOL0     C20330   7.440   0.844   9.211  0.4307 -0.1832  0.1378
  155MOL0     O20331   7.457   0.723   9.268  0.6401 -0.8415  0.4420
  155MOL0     C20332   7.572   0.658   9.269  0.2985  0.5530  0.2949
  155MOL0     C20333   7.552   0.524   9.309 -0.0021 -0.6167 -0.2112
  155MOL0     C20334   7.651   0.426   9.311 -0.7976  0.4691 -0.6881
  155MOL0     C20335   7.779   0.470   9.286  0.3989 -0.4862 -0.1276
  155MOL0     O20336   7.890   0.386   9.302  0.6985 -0.0567 -0.0426
  155MOL0     C20337   7.896   0.249   9.345  0.4336 -0.0219 -0.9933
  155MOL0     C20338   7.909   0.255   9.494 -0.7657 -0.7518 -0.1134
  155MOL0     C20339   8.060   0.271   9.537 -0.1835  0.1502 -0.1058
  155MOL0     C20340   8.065   0.332   9.674  0.0434 -0.5055 -0.3249
  155MOL0     C20341   8.203   0.366   9.725  0.4524  0.5208 -0.2460
  155MOL0     C20342   8.286   0.466   9.646 -0.4473 -0.9074  0.2232
  155MOL0     C20343   8.208   0.587   9.595 -0.4642 -0.0714 -0.8345
  155MOL0     C20344   8.293   0.713   9.563  0.6166 -0.4636  0.8378
  155MOL0     N20345   8.202   0.818   9.524  0.5160  0.4611  0.3786
  155MOL0     C20346   8.130   0.818   9.405 -0.0227  0.2424  0.8073
  155MOL0     C20347   8.068   0.940   9.394 -0.1601  0.3853  0.4821
  155MOL0     C20348   7.970   0.975   9.285  0.1953 -0.3119 -0.1806
  155MOL0     C20349   7.950   1.128   9.241  0.1920 -0.4007  0.4837
  155MOL0     C20350   8.050   1.166   9.129 -0.2810  0.1633  0.1186
  155MOL0     C20351   8.198   1.141   9.153 -0.0771  0.9635  0.2398
  155MOL0     O20352   8.230   1.012   9.104 -0.5883  0.5046 -0.1983
  155MOL0     C20353   8.347   0.946   9.143 -0.6021 -0.9750  0.8072
  155MOL0     C20354   8.462   1.021   9.198 -0.1869  0.4371 -0.0520
  155MOL0     C20355   8.578   0.942   9.236  0.5983  0.5174 -0.1269
  155MOL0     C20356   8.580   0.809   9.212  0.2789 -0.4020 -0.3551
  155MOL0     C20357   8.695   0.737   9.254 -1.4452  0.3978 -0.4717
  155MOL0     O20358   8.755   0.659   9.158 -0.6646 -0.3528  0.2593
  155MOL0     C20359   8.834   0.548   9.184 -0.2726  0.6768 -0.6025
  155MOL0     C20360   8.802   0.430   9.116 -0.2027 -0.3368  0.1831
  155MOL0     C20361   8.873   0.317   9.160 -0.1270  0.7710  0.9363
  155MOL0     C20362   8.971   0.317   9.261  0.6094  0.2538 -0.7687
  155MOL0     O20363   9.021   0.193   9.291 -0.7106  0.5267  0.2478
  155MOL0     C20364   9.039   0.171   9.430  0.5379  0.3510 -0.2450
  155MOL0     C20365   9.078   0.016   9.456 -0.4553  0.1638  0.8757
  155MOL0     C20366   8.945  -0.063   9.472 -0.1136 -1.1001  0.3102
  155MOL0     C20367   8.966  -0.211   9.456  0.5456  0.4308 -0.4219
  155MOL0     C20368   8.849  -0.299   9.497 -0.2577 -0.1090 -0.0817
  155MOL0     C20369   8.717  -0.284   9.411 -0.0482  0.6120 -0.5373
  155MOL0     C20370   8.730  -0.331   9.265  0.0212  0.0104 -0.0747
  155MOL0     C20371   8.808  -0.264   9.156  0.0787 -0.1804  0.8242
  155MOL0    Cl20372   8.760  -0.096   9.140 -0.0842  0.5865 -0.4029
  155MOL0     C20373   9.002   0.440   9.327 -0.1459  0.5630 -0.4006
  155MOL0     C20374   8.938   0.557   9.283  0.4862  0.1107 -0.0849
  155MOL0     O20375   8.737   0.743   9.369 -0.6430 -0.2336  0.3166
  155MOL0     C20376   8.472   0.742   9.150  0.2299  0.9161 -0.4903
  155MOL0     C20377   8.355   0.811   9.120 -0.1348 -0.4250 -0.4793
  155MOL0     N20378   8.087   1.003   9.517  0.0653  0.9902 -0.6496
  155MOL0     N20379   8.185   0.942   9.580  0.2741  0.2780 -0.4825
  155MOL0     C20380   7.805   0.604   9.256 -0.2356  0.6900  0.1458
  155MOL0     C20381   7.702   0.689   9.230 -0.8184  0.0307  0.3510
  155MOL0     C20382   7.305   0.907   9.226  0.0412 -0.4360 -0.0977
  155MOL0     C20383   7.284   1.035   9.183  1.1277 -0.0912  0.4848
  155MOL0     C20384   7.158   1.099   9.200  0.4453  0.3097  0.6502
  155MOL0     C20385   7.044   1.032   9.259 -0.6141  0.0680  0.5314
  155MOL0     O20386   6.915   1.080   9.261 -0.3020 -0.6055  0.0832
  155MOL0     C20387   6.886   1.224   9.243 -0.2203 -0.6853  0.8135
  155MOL0     C20388   6.750   1.270   9.293 -0.0608 -0.2605  0.3167
  155MOL0     C20389   6.715   1.203   9.429 -1.1197 -0.1230  0.7231
  155MOL0     C20390   6.572   1.229   9.467 -0.0634  0.5193  0.6596
  155MOL0     C20391   6.537   1.157   9.590 -0.2476  0.2846  0.6377
  155MOL0     C20392   6.526   1.088   9.687  0.8639  0.0057 -0.2712
  155MOL0     C20393   7.066   0.896   9.287  0.5124 -0.1816 -0.1898
  155MOL0     C20394   7.191   0.834   9.271  0.4463 -0.0449 -0.2975
  155MOL0     H20395   7.446   0.503   9.320 -0.0031 -0.3215  0.3283
  155MOL0     H20396   7.631   0.323   9.339 -2.0633  0.9406  0.2291
  155MOL0     H20397   7.993   0.214   9.307  1.7086  1.0778  1.0606
  155MOL0     H20398   7.814   0.187   9.307  1.3352 -0.3881 -2.4382
  155MOL0     H20399   7.864   0.161   9.529  1.6997 -1.8123  0.4603
  155MOL0     H20400   7.861   0.346   9.529  3.7930  2.6381 -1.6824
  155MOL0     H20401   8.116   0.330   9.464  0.3533 -0.3171 -0.0845
  155MOL0     H20402   8.094   0.167   9.532  0.3315  0.1857  1.9271
  155MOL0     H20403   8.015   0.430   9.668  3.2857  1.2022 -2.1552
  155MOL0     H20404   8.017   0.267   9.748  0.9973  1.1118  1.8177
  155MOL0     H20405   8.264   0.276   9.732 -0.7629 -0.1960  1.6667
  155MOL0     H20406   8.192   0.395   9.830  1.8262 -0.8939  0.3338
  155MOL0     H20407   8.345   0.415   9.569 -2.5638 -2.2445 -0.5856
  155MOL0     H20408   8.354   0.505   9.723 -0.4300  1.5120 -0.9116
  155MOL0     H20409   8.144   0.559   9.510 -0.3230  0.6660 -1.1960
  155MOL0     H20410   8.134   0.626   9.665  0.7012  1.6207 -0.4825
  155MOL0     H20411   8.368   0.688   9.488  0.6379  0.6789  0.4577
  155MOL0     H20412   8.351   0.727   9.655 -1.7697  1.2817  2.2065
  155MOL0     H20413   8.158   0.756   9.320 -0.9898  0.3685  0.3871
  155MOL0     H20414   7.875   0.936   9.321  1.7212 -1.1581  3.3420
  155MOL0     H20415   8.001   0.922   9.195  1.6619  0.1946 -0.0100
  155MOL0     H20416   7.959   1.195   9.327 -0.2918  0.4202 -0.0878
  155MOL0     H20417   7.847   1.145   9.209 -1.3257 -2.2387  3.8806
  155MOL0     H20418   8.019   1.112   9.039  0.1552  2.7503 -1.7025
  155MOL0     H20419   8.049   1.275   9.127  3.0873  0.3107  0.2227
  155MOL0     H20420   8.238   1.152   9.255  0.9638 -3.8521  0.5724
  155MOL0     H20421   8.246   1.207   9.081 -0.7167  1.5268  0.3148
  155MOL0     H20422   8.455   1.127   9.222 -1.3426  0.4865 -0.5573
  155MOL0     H20423   8.667   0.985   9.281 -1.0468  2.6634  1.2977
  155MOL0     H20424   8.723   0.415   9.044 -0.4700 -1.0105  0.6078
  155MOL0     H20425   8.863   0.220   9.112  3.6371  0.2540  0.9032
  155MOL0     H20426   8.952   0.191   9.493 -0.6091 -3.6567 -0.3110
  155MOL0     H20427   9.121   0.239   9.458 -2.0181  3.2248  0.8183
  155MOL0     H20428   9.124   0.004   9.554  0.7413  0.2287  0.3350
  155MOL0     H20429   9.142  -0.027   9.379  1.1800  2.2336  0.9643
  155MOL0     H20430   8.893  -0.025   9.383  0.0584  1.1315  1.0937
  155MOL0     H20431   8.901  -0.030   9.566  0.1366  1.7361 -0.4701
  155MOL0     H20432   9.000  -0.230   9.354  0.4785 -1.5535 -0.1218
  155MOL0     H20433   9.051  -0.237   9.519  1.7713  0.9958 -1.8012
  155MOL0     H20434   8.832  -0.285   9.604  1.5732 -1.6363  0.4728
  155MOL0     H20435   8.888  -0.400   9.479  3.1045  1.1969 -0.9840
  155MOL0     H20436   8.677  -0.182   9.408 -0.9897  0.2861  0.2084
  155MOL0     H20437   8.647  -0.344   9.470 -1.0889 -0.6378 -2.9339
  155MOL0     H20438   8.781  -0.426   9.281  1.8763  0.6827 -1.6625
  155MOL0     H20439   8.629  -0.343   9.222 -0.3243  0.6795  0.5238
  155MOL0     H20440   8.794  -0.314   9.060  2.8971  0.7268 -0.1290
  155MOL0     H20441   8.915  -0.269   9.178  0.5487 -0.2923 -1.2880
  155MOL0     H20442   9.073   0.443   9.409  1.5827 -0.4659 -1.7952
  155MOL0     H20443   8.959   0.654   9.326  2.1567 -0.6427  0.8904
  155MOL0     H20444   8.475   0.634   9.138 -2.2344  0.3421  2.7364
  155MOL0     H20445   8.272   0.750   9.087 -1.5929  0.7599  0.8453
  155MOL0     H20446   7.905   0.636   9.229 -0.9009  1.8618 -1.0212
  155MOL0     H20447   7.738   0.782   9.186  0.6890  0.5364  2.4444
  155MOL0     H20448   7.367   1.096   9.150 -1.0507  0.6879 -4.4989
  155MOL0     H20449   7.148   1.193   9.146 -1.4779 -0.0857  0.2396
  155MOL0     H20450   6.878   1.238   9.135 -0.8587  2.8216  1.1981
  155MOL0     H20451   6.970   1.284   9.278 -0.5405  0.2001  0.1026
  155MOL0     H20452   6.737   1.379   9.291  0.4519 -0.2012 -0.1475
  155MOL0     H20453   6.672   1.231   9.228 -1.5836  1.5551  0.9598
  155MOL0     H20454   6.778   1.257   9.500  0.0462  1.5417 -1.4473
  155MOL0     H20455   6.740   1.097   9.432 -2.0751 -0.3671  0.2852
  155MOL0     H20456   6.553   1.336   9.478  1.3213  0.7665  0.7463
  155MOL0     H20457   6.502   1.179   9.399 -1.5694  0.1734  2.3863
  155MOL0     H20458   6.515   1.015   9.764  0.4486 -0.7299 -1.0035
  155MOL0     H20459   6.983   0.831   9.310  0.2957  0.8494  2.1932
  155MOL0     H20460   7.203   0.729   9.293 -3.6065 -0.1062  2.8215
  156MOL0     O20461  11.043   2.676   3.643  0.2634  0.2677  0.0611
  156MOL0     C20462  11.121   2.751   3.578  0.0972 -0.5601  0.5802
  156MOL0     O20463  11.091   2.828   3.464 -0.0745  0.2433 -0.9778
  156MOL0     C20464  10.966   2.829   3.402 -0.4152 -0.2961  0.2259
  156MOL0     C20465  10.880   2.712   3.403  0.3879  0.1286  0.1819
  156MOL0     C20466  10.765   2.722   3.326  0.1269  0.4371  0.1342
  156MOL0     C20467  10.720   2.836   3.258 -0.5376  0.3352 -0.0169
  156MOL0     O20468  10.600   2.846   3.195  0.3292  0.8300  0.2374
  156MOL0     C20469  10.548   2.973   3.151 -0.1146 -1.2719  0.2147
  156MOL0     C20470  10.414   2.936   3.087  0.4243 -0.8246  0.2277
  156MOL0     C20471  10.322   3.062   3.067 -0.6478 -0.0784 -0.4438
  156MOL0     C20472  10.207   3.020   2.978  0.0826 -0.1921 -0.0116
  156MOL0     C20473  10.113   3.141   2.954 -0.4813  0.2265  0.0481
  156MOL0     C20474  10.173   3.223   2.845 -1.0499 -0.4608 -0.7312
  156MOL0     C20475  10.158   3.174   2.702  1.0974 -0.0610  0.5357
  156MOL0     C20476  10.026   3.172   2.639  0.3560 -0.0209  0.0240
  156MOL0     N20477   9.963   3.303   2.603 -0.2919 -0.1873 -0.7031
  156MOL0     C20478  10.000   3.390   2.501 -0.1316 -0.3529  0.7785
  156MOL0     C20479   9.925   3.500   2.514 -0.0639  0.6439 -0.7190
  156MOL0     C20480   9.932   3.617   2.431  0.0224 -0.3093 -1.2254
  156MOL0     C20481   9.840   3.628   2.310 -0.7777 -0.2879 -0.3675
  156MOL0     C20482   9.879   3.527   2.202  0.4868 -0.1533 -0.0077
  156MOL0     C20483   9.998   3.563   2.118 -0.0661  0.1565  0.9129
  156MOL0     O20484  10.118   3.505   2.172  0.6417 -0.1529 -0.1342
  156MOL0     C20485  10.225   3.484   2.086 -0.3976 -0.2779 -0.1182
  156MOL0     C20486  10.244   3.523   1.957  0.3090 -0.0320  0.1293
  156MOL0     C20487  10.362   3.486   1.885  0.4275 -0.0735  0.0957
  156MOL0     C20488  10.471   3.430   1.959  0.3335  0.8086 -0.3318
  156MOL0     C20489  10.588   3.406   1.885 -0.3174 -0.3428 -0.3928
  156MOL0     O20490  10.615   3.482   1.773 -0.1038 -0.0243 -0.5723
  156MOL0     C20491  10.718   3.440   1.696  0.2801 -0.3879  0.9209
  156MOL0     C20492  10.743   3.317   1.646 -0.2000  0.3373 -0.0718
  156MOL0     C20493  10.841   3.298   1.555 -0.2932  0.3480 -0.5410
  156MOL0     C20494  10.915   3.399   1.496 -0.2406  0.4693 -0.6892
  156MOL0     O20495  11.004   3.394   1.404 -0.2159 -0.7787 -1.4971
  156MOL0     C20496  11.060   3.265   1.349  0.1162 -0.6049 -0.5169
  156MOL0     C20497  11.178   3.303   1.255 -0.3251 -0.6177  0.1153
  156MOL0     C20498  11.213   3.188   1.156  0.5855 -1.9785  0.1542
  156MOL0     C20499  11.318   3.225   1.052  0.4477 -0.0904  0.1005
  156MOL0     C20500  11.312   3.131   0.931 -0.6127 -0.2621 -0.9439
  156MOL0     C20501  11.192   3.125   0.859  0.0798  0.7405  0.2155
  156MOL0     C20502  11.210   3.004   0.763  0.5369  0.1744 -0.0321
  156MOL0     C20503  11.065   2.959   0.711  0.2913  0.6222  0.6003
  156MOL0    Cl20504  11.091   2.828   0.597 -0.3458 -0.5817 -0.3841
  156MOL0     C20505  10.889   3.530   1.535 -1.2417 -0.8137  0.8751
  156MOL0     C20506  10.792   3.546   1.636  0.1932 -0.6234  0.9227
  156MOL0     O20507  10.674   3.323   1.937  0.0392  0.4507  0.4395
  156MOL0     C20508  10.459   3.412   2.100 -0.6129 -0.6544 -0.4212
  156MOL0     C20509  10.337   3.438   2.161 -0.2587  0.2632  0.1447
  156MOL0     N20510   9.840   3.479   2.627 -0.2574  0.7819  0.0485
  156MOL0     N20511   9.865   3.362   2.673 -0.1760 -0.3092 -0.3785
  156MOL0     C20512  10.805   2.957   3.263 -0.0154  1.2262 -0.3449
  156MOL0     C20513  10.918   2.952   3.338 -0.2646  0.5681 -0.2848
  156MOL0     C20514  11.262   2.761   3.633  0.5087 -0.0580  0.3774
  156MOL0     C20515  11.360   2.828   3.555  0.1481  0.9258 -0.1271
  156MOL0     C20516  11.494   2.838   3.595 -0.6305  0.0687  0.7631
  156MOL0     C20517  11.528   2.775   3.719  0.5491  0.2197 -0.4943
  156MOL0     O20518  11.657   2.775   3.759 -0.1944  0.6395  0.0178
  156MOL0     C20519  11.679   2.885   3.845  0.6673 -0.0985 -0.4625
  156MOL0     C20520  11.778   2.849   3.955 -0.3389  0.0069 -0.7673
  156MOL0     C20521  11.914   2.817   3.872 -0.4693  0.7857 -0.8210
  156MOL0     C20522  12.016   2.751   3.975 -0.3500 -0.6365  0.0387
  156MOL0     C20523  12.154   2.762   3.932  0.5576  0.6385 -1.0863
  156MOL0     C20524  12.274   2.785   3.907  0.6262  0.0536 -0.1650
  156MOL0     C20525  11.441   2.687   3.783 -0.9045 -0.7868  0.1955
  156MOL0     C20526  11.307   2.693   3.747  0.5009 -0.2003  0.2173
  156MOL0     H20527  10.911   2.632   3.470  2.2616  1.2909  0.7885
  156MOL0     H20528  10.708   2.630   3.319 -0.4186  0.6591  1.3346
  156MOL0     H20529  10.607   3.019   3.071 -1.1917 -0.9076 -0.3844
  156MOL0     H20530  10.529   3.045   3.232  1.7069 -0.6150  0.1078
  156MOL0     H20531  10.351   2.874   3.151 -3.4432  0.5642 -1.9134
  156MOL0     H20532  10.417   2.880   2.994 -1.5878  1.1255 -1.1066
  156MOL0     H20533  10.381   3.143   3.022 -0.4926  0.6884  1.0842
  156MOL0     H20534  10.283   3.092   3.165  4.0708  1.2222  1.2700
  156MOL0     H20535  10.228   2.969   2.884  1.4863  0.6159 -0.1692
  156MOL0     H20536  10.150   2.951   3.040  1.6447  0.5617  2.4179
  156MOL0     H20537  10.090   3.185   3.051 -2.8243 -1.9635  0.5920
  156MOL0     H20538  10.023   3.103   2.903 -1.2975  2.4075 -0.2262
  156MOL0     H20539  10.278   3.240   2.870 -1.5859  2.1682  0.0944
  156MOL0     H20540  10.136   3.326   2.840 -1.3622 -0.4866  0.7363
  156MOL0     H20541  10.213   3.238   2.633  1.4281  0.8116  1.5849
  156MOL0     H20542  10.198   3.073   2.692 -0.8006 -0.7284 -1.1215
  156MOL0     H20543   9.951   3.118   2.696 -1.8955  1.9659 -0.8913
  156MOL0     H20544  10.040   3.114   2.547  2.7998  2.0253 -1.0362
  156MOL0     H20545  10.077   3.372   2.427  0.8967  0.1329  1.6814
  156MOL0     H20546  10.033   3.648   2.402 -0.5415  2.9151 -0.0642
  156MOL0     H20547   9.898   3.697   2.496  2.3183 -0.1030 -0.1802
  156MOL0     H20548   9.849   3.732   2.278 -3.1857  0.7561  1.9333
  156MOL0     H20549   9.742   3.614   2.356 -1.1427 -1.8079 -1.5218
  156MOL0     H20550   9.893   3.427   2.244 -0.1035 -1.4451 -2.6203
  156MOL0     H20551   9.796   3.520   2.131 -0.9777  1.4270  1.4603
  156MOL0     H20552  10.005   3.670   2.093 -0.0025  0.0180  0.3132
  156MOL0     H20553   9.983   3.518   2.019  2.1952  3.8233 -1.3613
  156MOL0     H20554  10.159   3.571   1.911  0.9165  0.4106 -0.5628
  156MOL0     H20555  10.368   3.506   1.779 -2.4749 -1.2355 -0.4007
  156MOL0     H20556  10.678   3.232   1.667 -2.1283  2.0825  1.4455
  156MOL0     H20557  10.867   3.197   1.524 -1.7484  0.1957 -1.3843
  156MOL0     H20558  10.974   3.232   1.291  1.3897 -3.2604 -1.0468
  156MOL0     H20559  11.088   3.196   1.429 -2.7862  0.3333  1.4652
  156MOL0     H20560  11.269   3.331   1.309 -0.2300  0.0407 -0.3852
  156MOL0     H20561  11.150   3.398   1.211  0.1359  0.6958  2.4825
  156MOL0     H20562  11.115   3.166   1.111  0.7496 -1.3768 -0.5089
  156MOL0     H20563  11.245   3.104   1.218  2.7953 -0.8198  0.6687
  156MOL0     H20564  11.303   3.325   1.012  2.8130  0.5523  0.6584
  156MOL0     H20565  11.414   3.220   1.104  0.5190  0.3532  0.0080
  156MOL0     H20566  11.325   3.029   0.969 -0.9236 -0.4537 -1.3447
  156MOL0     H20567  11.394   3.149   0.860 -0.4771 -0.3980 -0.8228
  156MOL0     H20568  11.177   3.218   0.804  0.0451  0.7422  0.2273
  156MOL0     H20569  11.103   3.124   0.922  0.5992  0.8649  0.9663
  156MOL0     H20570  11.278   3.035   0.684  0.9736 -0.1951  0.1927
  156MOL0     H20571  11.255   2.917   0.812  0.3537 -0.0587 -0.2693
  156MOL0     H20572  11.022   3.048   0.665 -0.8709 -0.9438 -1.4911
  156MOL0     H20573  11.004   2.940   0.800 -0.6120  2.2272  0.3519
  156MOL0     H20574  10.943   3.615   1.495 -1.9241 -1.4421 -1.5389
  156MOL0     H20575  10.780   3.649   1.667  0.8499 -0.1259 -0.3882
  156MOL0     H20576  10.544   3.363   2.145 -0.6701 -3.2982 -2.8910
  156MOL0     H20577  10.319   3.410   2.264  1.1244  1.2807  0.6818
  156MOL0     H20578  10.776   3.059   3.237 -1.6349  1.2053  1.2265
  156MOL0     H20579  10.988   3.033   3.355  1.7854 -0.4876 -2.8533
  156MOL0     H20580  11.335   2.865   3.456  1.2045 -0.7039 -1.0358
  156MOL0     H20581  11.569   2.885   3.531 -2.2231  2.7637  0.7211
  156MOL0     H20582  11.590   2.929   3.891  0.5941 -0.7758  0.0625
  156MOL0     H20583  11.723   2.958   3.776  0.1444 -0.9420 -1.7245
  156MOL0     H20584  11.772   2.936   4.020  0.5445  0.8531 -1.7832
  156MOL0     H20585  11.733   2.762   4.004  0.3681 -1.1245 -2.0264
  156MOL0     H20586  11.958   2.909   3.832 -0.4305  0.6465 -1.1053
  156MOL0     H20587  11.899   2.755   3.783  5.1205 -0.8478 -0.9954
  156MOL0     H20588  11.997   2.798   4.072  3.9921  2.9315 -0.5413
  156MOL0     H20589  11.995   2.644   3.988  0.3985 -0.9161 -0.9595
  156MOL0     H20590  12.372   2.807   3.870  0.4577  0.1430 -0.5548
  156MOL0     H20591  11.480   2.641   3.874  0.7688 -0.2903 -0.2305
  156MOL0     H20592  11.241   2.640   3.816  0.0244  1.7360  1.3043
  157MOL0     O20593   5.549   3.919   2.538  0.6076  0.1359 -0.8783
  157MOL0     C20594   5.545   3.794   2.538  0.4904 -0.5557 -0.9213
  157MOL0     O20595   5.432   3.721   2.523 -0.3357 -0.5332 -0.6130
  157MOL0     C20596   5.308   3.779   2.498 -0.8082  0.5640 -0.4723
  157MOL0     C20597   5.249   3.875   2.586 -0.2005  0.7261 -0.9971
  157MOL0     C20598   5.123   3.935   2.552 -0.0815  0.9394  0.0284
  157MOL0     C20599   5.057   3.904   2.431 -0.0780 -0.8591 -0.8699
  157MOL0     O20600   4.936   3.957   2.397  0.1311 -0.3517  0.2986
  157MOL0     C20601   4.839   3.989   2.509 -0.8767 -0.0862  0.6445
  157MOL0     C20602   4.724   4.073   2.463 -0.4890  0.0183 -0.1439
  157MOL0     C20603   4.628   3.979   2.389 -0.4071 -0.0581  0.3401
  157MOL0     C20604   4.519   4.055   2.328  0.7049 -1.1332 -0.5602
  157MOL0     C20605   4.424   3.948   2.283  0.3489  0.2994  0.9367
  157MOL0     C20606   4.306   4.014   2.204  0.3314 -0.2619 -0.0885
  157MOL0     C20607   4.170   3.927   2.202 -0.4660  0.0593  0.0075
  157MOL0     C20608   4.084   3.982   2.091  0.0970  0.1420  0.3101
  157MOL0     N20609   3.971   3.892   2.086  0.1549 -0.0309  0.4935
  157MOL0     C20610   3.961   3.784   2.005  0.0835  0.9605 -0.1991
  157MOL0     C20611   3.844   3.736   2.043  1.2554  0.3839  0.1816
  157MOL0     C20612   3.801   3.600   1.990 -0.1335 -0.3136 -0.7142
  157MOL0     C20613   3.677   3.613   1.901 -0.3188 -0.6462  0.0908
  157MOL0     C20614   3.600   3.483   1.866 -0.5750 -0.0061 -0.1093
  157MOL0     C20615   3.464   3.512   1.799 -0.9074  0.4905 -0.8712
  157MOL0     O20616   3.433   3.411   1.706  0.2176 -0.6893 -0.2106
  157MOL0     C20617   3.306   3.414   1.666 -0.9419  0.2012  0.5200
  157MOL0     C20618   3.228   3.311   1.720  0.7029 -0.5816 -0.3585
  157MOL0     C20619   3.097   3.301   1.684 -0.6684 -0.9074  0.2633
  157MOL0     C20620   3.044   3.387   1.592 -0.3287  0.2260  1.3480
  157MOL0     C20621   2.898   3.373   1.548  0.1850 -0.8384 -0.1189
  157MOL0     O20622   2.842   3.468   1.467 -0.4480 -0.1611 -0.4523
  157MOL0     C20623   2.717   3.453   1.410  0.2715  0.5334 -0.8572
  157MOL0     C20624   2.679   3.343   1.331 -0.1515  0.4959 -0.1527
  157MOL0     C20625   2.552   3.326   1.276  0.6111 -0.2612 -0.8003
  157MOL0     C20626   2.456   3.421   1.307  1.0481  0.5943  0.5404
  157MOL0     O20627   2.332   3.396   1.259 -0.1593  0.0811  0.4547
  157MOL0     C20628   2.263   3.480   1.178  0.1505 -0.9348 -0.2986
  157MOL0     C20629   2.121   3.413   1.156 -0.2697 -0.2752  0.4866
  157MOL0     C20630   2.029   3.506   1.075  0.8584  0.0206  0.1628
  157MOL0     C20631   1.889   3.440   1.041  0.8688  0.1308 -0.3514
  157MOL0     C20632   1.817   3.538   0.946  0.2295  0.0691 -0.1907
  157MOL0     C20633   1.686   3.472   0.888 -0.1442 -0.3146 -0.0429
  157MOL0     C20634   1.598   3.574   0.837 -0.3187 -0.0685 -0.3106
  157MOL0     C20635   1.449   3.545   0.862 -1.0353  0.3888  0.0679
  157MOL0    Cl20636   1.395   3.384   0.797 -0.5483  0.1513 -0.1908
  157MOL0     C20637   2.481   3.533   1.385  0.6862 -1.3725  0.1270
  157MOL0     C20638   2.613   3.544   1.433 -1.2457  0.0025  0.4754
  157MOL0     O20639   2.843   3.270   1.585  0.5677 -0.0416  0.3307
  157MOL0     C20640   3.123   3.485   1.537 -0.7762  0.5558 -0.0470
  157MOL0     C20641   3.258   3.493   1.566 -0.9522 -0.0870  0.2292
  157MOL0     N20642   3.782   3.820   2.135 -0.0660  0.4305  0.2492
  157MOL0     N20643   3.868   3.909   2.170  0.3184  1.0288 -1.5794
  157MOL0     C20644   5.113   3.803   2.351 -0.1508 -0.7666 -0.2361
  157MOL0     C20645   5.239   3.751   2.376 -0.0547 -0.3401  0.9422
  157MOL0     C20646   5.665   3.718   2.584 -0.3423  0.1100 -0.5795
  157MOL0     C20647   5.772   3.793   2.650 -0.2027  0.9143  1.0309
  157MOL0     C20648   5.880   3.715   2.693 -0.0721 -0.5352 -0.3563
  157MOL0     C20649   5.877   3.574   2.693  0.2965 -0.3779  0.3982
  157MOL0     O20650   5.987   3.515   2.755  0.4359 -0.6576 -1.6037
  157MOL0     C20651   6.009   3.376   2.726  0.6652 -0.6403 -0.6640
  157MOL0     C20652   6.122   3.315   2.809  0.8157 -0.3156  0.8601
  157MOL0     C20653   6.260   3.377   2.791 -0.8960  0.4276  0.7617
  157MOL0     C20654   6.322   3.423   2.923 -0.5161 -0.2585 -0.7489
  157MOL0     C20655   6.236   3.496   3.020  0.8483  0.9759  0.3371
  157MOL0     C20656   6.152   3.546   3.092 -0.3716  0.2244  0.0080
  157MOL0     C20657   5.777   3.505   2.626  0.1735  0.0040 -0.1917
  157MOL0     C20658   5.669   3.574   2.569 -0.6046 -0.5768  0.4391
  157MOL0     H20659   5.304   3.901   2.677  0.1081  0.0102 -0.9750
  157MOL0     H20660   5.082   4.015   2.613 -0.5445  0.5004  0.3069
  157MOL0     H20661   4.887   4.046   2.590  0.6194  0.1423 -0.3512
  157MOL0     H20662   4.798   3.894   2.544  1.8650 -1.6354 -0.0150
  157MOL0     H20663   4.766   4.165   2.421  1.5748  0.7028  3.1044
  157MOL0     H20664   4.660   4.106   2.545 -0.9509 -1.6602  0.2023
  157MOL0     H20665   4.595   3.896   2.452 -2.6671 -0.0418 -0.7264
  157MOL0     H20666   4.682   3.928   2.308  1.7078  2.6197 -0.0476
  157MOL0     H20667   4.471   4.119   2.403  1.7225 -2.5847  1.4235
  157MOL0     H20668   4.559   4.111   2.243 -1.7981 -2.9963 -3.1673
  157MOL0     H20669   4.380   3.889   2.363 -2.5919 -0.0462 -0.8053
  157MOL0     H20670   4.462   3.870   2.216 -3.8937 -2.8194  1.7339
  157MOL0     H20671   4.339   4.020   2.100 -0.9579  2.0869 -0.4463
  157MOL0     H20672   4.288   4.118   2.235 -2.3135 -1.1229  1.6036
  157MOL0     H20673   4.204   3.824   2.184 -3.5700 -1.4998  2.2204
  157MOL0     H20674   4.113   3.939   2.294  1.2221  3.9368  0.7297
  157MOL0     H20675   4.136   3.989   1.995  0.3806  0.0651  0.4571
  157MOL0     H20676   4.053   4.083   2.120 -0.6057 -0.1805  0.6964
  157MOL0     H20677   4.044   3.733   1.956  0.7981  1.7203  0.1970
  157MOL0     H20678   3.776   3.549   2.083 -0.9591  3.3853  1.2739
  157MOL0     H20679   3.877   3.554   1.925 -2.2404 -4.1651 -0.7457
  157MOL0     H20680   3.704   3.664   1.809 -0.5802 -0.1196  0.3005
  157MOL0     H20681   3.610   3.673   1.964  3.4891  2.5493  1.5752
  157MOL0     H20682   3.655   3.432   1.786  0.2681 -0.3224  0.6664
  157MOL0     H20683   3.591   3.421   1.956  1.0547 -1.6883 -1.0394
  157MOL0     H20684   3.462   3.611   1.754 -1.9657  0.8378 -0.0884
  157MOL0     H20685   3.403   3.517   1.890  1.8481  2.1307  1.0396
  157MOL0     H20686   3.267   3.243   1.795 -0.2527 -0.8559 -0.1005
  157MOL0     H20687   3.042   3.217   1.725 -1.2264 -1.4156 -1.4528
  157MOL0     H20688   2.754   3.266   1.315 -0.7608 -0.7313  2.3615
  157MOL0     H20689   2.536   3.240   1.212  3.0942 -1.8971  0.5853
  157MOL0     H20690   2.304   3.485   1.077 -0.9416 -0.2729 -0.7205
  157MOL0     H20691   2.249   3.577   1.228 -2.3823 -0.1012 -2.3865
  157MOL0     H20692   2.068   3.390   1.248 -1.9474  2.0626  0.1804
  157MOL0     H20693   2.132   3.318   1.102 -3.2590 -1.7590  2.2673
  157MOL0     H20694   2.076   3.528   0.979  1.5396 -3.9565 -0.5743
  157MOL0     H20695   2.006   3.602   1.124  2.1736 -1.0847  3.1607
  157MOL0     H20696   1.908   3.345   0.990  2.4044 -0.5428  1.3561
  157MOL0     H20697   1.829   3.418   1.131  0.4107 -0.0529 -0.6981
  157MOL0     H20698   1.879   3.587   0.870 -1.4904  0.0630 -1.6641
  157MOL0     H20699   1.794   3.619   1.016  0.0167  0.9975 -1.2971
  157MOL0     H20700   1.634   3.413   0.964  0.1882 -0.2415  0.2445
  157MOL0     H20701   1.721   3.406   0.808 -1.0056  0.6016 -1.2047
  157MOL0     H20702   1.622   3.670   0.883 -0.7841 -0.2285  0.2796
  157MOL0     H20703   1.614   3.585   0.729 -0.7276  0.1821 -0.3509
  157MOL0     H20704   1.391   3.630   0.825  0.3723  0.8112 -1.2379
  157MOL0     H20705   1.426   3.550   0.969 -0.0916 -0.3523  0.3140
  157MOL0     H20706   2.418   3.616   1.416  1.8140 -0.7635  0.8454
  157MOL0     H20707   2.623   3.630   1.499 -1.3721  0.3741  0.0210
  157MOL0     H20708   3.077   3.553   1.466  0.4664  1.7263  0.2165
  157MOL0     H20709   3.313   3.580   1.532 -1.4507  0.6180  1.1700
  157MOL0     H20710   5.056   3.774   2.264  2.3307 -1.2114 -1.8297
  157MOL0     H20711   5.282   3.676   2.310  0.1474 -0.9525  1.7476
  157MOL0     H20712   5.759   3.900   2.660 -3.7937  0.6647  0.1963
  157MOL0     H20713   5.961   3.764   2.747 -0.4556 -0.0549 -0.2111
  157MOL0     H20714   6.015   3.357   2.618  2.7139  0.5251 -0.8083
  157MOL0     H20715   5.926   3.315   2.764  2.9476 -1.8621  2.8058
  157MOL0     H20716   6.100   3.316   2.916 -1.3954  2.2769  0.4998
  157MOL0     H20717   6.132   3.210   2.781 -2.1241 -0.1190 -1.5022
  157MOL0     H20718   6.254   3.462   2.723 -4.0547 -0.2045  0.0964
  157MOL0     H20719   6.332   3.316   2.735  3.2786  1.6141  4.2562
  157MOL0     H20720   6.358   3.336   2.980  1.2196  3.8053  5.3238
  157MOL0     H20721   6.417   3.475   2.912  0.0223 -1.5971 -3.1550
  157MOL0     H20722   6.083   3.596   3.157  1.9964  3.6331  0.1024
  157MOL0     H20723   5.777   3.397   2.615 -2.2999 -0.3510  2.1960
  157MOL0     H20724   5.586   3.521   2.525  0.5504 -2.5449  0.4985
  158MOL0     O20725   4.863   4.931  10.279 -0.2256 -0.0855  0.2930
  158MOL0     C20726   4.910   5.016  10.205 -0.1124 -1.0068 -0.2479
  158MOL0     O20727   4.898   5.021  10.066  0.4580  0.0817  0.5490
  158MOL0     C20728   4.828   4.921  10.010 -0.6701 -0.1530  0.4625
  158MOL0     C20729   4.690   4.935   9.998 -0.5783 -0.5806 -0.2724
  158MOL0     C20730   4.610   4.834   9.946  0.7801 -0.1567 -0.0369
  158MOL0     C20731   4.665   4.703   9.925 -0.6945  1.0414  0.2606
  158MOL0     O20732   4.603   4.590   9.877  0.5617  0.1715 -0.8390
  158MOL0     C20733   4.474   4.597   9.810 -0.6623  0.9796 -0.0884
  158MOL0     C20734   4.421   4.456   9.776 -1.1673 -0.4795  0.2449
  158MOL0     C20735   4.340   4.440   9.653  0.9386 -0.3764 -0.9443
  158MOL0     C20736   4.424   4.452   9.526 -0.1566  0.1090 -0.0199
  158MOL0     C20737   4.349   4.410   9.395 -0.1530 -0.2531 -0.2184
  158MOL0     C20738   4.310   4.265   9.391  0.5480 -0.2146 -0.5658
  158MOL0     C20739   4.352   4.189   9.262 -0.4062 -0.1913  0.8402
  158MOL0     C20740   4.281   4.229   9.135 -0.1948  0.1232 -0.7124
  158MOL0     N20741   4.136   4.188   9.131 -0.8576  0.0400 -0.0075
  158MOL0     C20742   4.040   4.256   9.057  0.1414  0.1914 -0.0178
  158MOL0     C20743   3.929   4.177   9.090  0.0759 -0.5163 -0.7092
  158MOL0     C20744   3.795   4.203   9.034 -0.5245  0.7044  0.1060
  158MOL0     C20745   3.698   4.302   9.101  0.0839  0.5527 -0.4442
  158MOL0     C20746   3.631   4.240   9.220  0.0249 -0.1013  0.2796
  158MOL0     C20747   3.504   4.317   9.264  1.3457  0.3159  1.2178
  158MOL0     O20748   3.549   4.452   9.300 -0.6016  0.0622 -0.9515
  158MOL0     C20749   3.452   4.534   9.353 -0.1790  0.7010  0.7657
  158MOL0     C20750   3.493   4.648   9.424 -0.7344  0.0177  0.2703
  158MOL0     C20751   3.399   4.738   9.479  0.4502  0.2185 -0.0561
  158MOL0     C20752   3.267   4.735   9.445 -0.7533  0.0828  0.9696
  158MOL0     C20753   3.176   4.834   9.483  0.1550 -0.7546 -0.2788
  158MOL0     O20754   3.039   4.802   9.484 -0.5633  0.6549  0.4577
  158MOL0     C20755   2.940   4.885   9.514 -0.0098  0.2965  0.1115
  158MOL0     C20756   2.829   4.829   9.585 -1.0919  0.5716  0.2397
  158MOL0     C20757   2.730   4.906   9.643 -0.8356 -0.0039 -1.0581
  158MOL0     C20758   2.747   5.043   9.650  0.6921 -0.1886 -0.1111
  158MOL0     O20759   2.650   5.120   9.708 -0.7618 -0.2144  0.1644
  158MOL0     C20760   2.510   5.078   9.716 -0.2776  0.6945  0.8868
  158MOL0     C20761   2.480   5.015   9.859  0.3689 -0.3462 -0.0636
  158MOL0     C20762   2.347   4.948   9.844  0.9367  0.0959  0.3516
  158MOL0     C20763   2.300   4.866   9.972 -0.2421  0.3804  0.7635
  158MOL0     C20764   2.185   4.757   9.946  0.0509 -0.9964 -0.0052
  158MOL0     C20765   2.049   4.823   9.937  0.4450 -0.5129  0.2858
  158MOL0     C20766   1.960   4.709   9.924 -0.6842  0.6813 -0.2179
  158MOL0     C20767   1.815   4.757   9.912 -0.1136  0.1643  0.1670
  158MOL0    Cl20768   1.775   4.905  10.011 -0.1083  0.1977  0.5546
  158MOL0     C20769   2.855   5.105   9.580  0.1579  0.2709 -0.2842
  158MOL0     C20770   2.947   5.024   9.509  0.1306 -0.2514  0.2272
  158MOL0     O20771   3.222   4.947   9.523 -0.1442  0.1321  1.0137
  158MOL0     C20772   3.229   4.620   9.368 -0.0180 -0.6766 -0.9439
  158MOL0     C20773   3.315   4.523   9.321 -0.5942  0.6517 -0.2644
  158MOL0     N20774   3.965   4.077   9.180  0.6952 -0.7166  0.2704
  158MOL0     N20775   4.088   4.072   9.195  0.2975 -0.1704  0.3314
  158MOL0     C20776   4.811   4.694   9.937  0.3936 -0.8065 -0.6570
  158MOL0     C20777   4.890   4.801   9.984 -0.2374  0.1932 -0.3175
  158MOL0     C20778   5.000   5.111  10.271 -0.1838 -0.6587  0.0087
  158MOL0     C20779   5.029   5.235  10.209 -0.1126 -0.5059  0.9714
  158MOL0     C20780   5.113   5.325  10.280  0.2868 -0.7219 -0.2654
  158MOL0     C20781   5.179   5.299  10.402 -0.1438 -0.0278  0.2266
  158MOL0     O20782   5.265   5.392  10.448 -0.0381 -0.1102  0.0604
  158MOL0     C20783   5.353   5.370  10.553  0.2654 -0.2065  0.2787
  158MOL0     C20784   5.474   5.264  10.546  0.1478  0.1349 -0.9769
  158MOL0     C20785   5.551   5.247  10.676 -0.2556 -0.8571  0.5636
  158MOL0     C20786   5.494   5.177  10.794 -0.2663  0.3476  0.8058
  158MOL0     C20787   5.588   5.153  10.900 -0.0069 -0.6709  0.5508
  158MOL0     C20788   5.667   5.127  10.992  0.1737 -0.6439  0.2321
  158MOL0     C20789   5.136   5.177  10.469 -0.7176 -0.1978  0.0948
  158MOL0     C20790   5.045   5.091  10.403  0.0049  0.4254 -1.5017
  158MOL0     H20791   4.640   5.028  10.021 -0.3635 -0.6206  0.3733
  158MOL0     H20792   4.503   4.825   9.955  0.7936 -0.8277 -0.4800
  158MOL0     H20793   4.495   4.649   9.716  2.5498  4.6331  2.3191
  158MOL0     H20794   4.392   4.655   9.854 -2.0844  0.6441 -2.1355
  158MOL0     H20795   4.374   4.419   9.868  0.1195  2.2954  2.1707
  158MOL0     H20796   4.505   4.387   9.766  1.5628  2.4849  0.9338
  158MOL0     H20797   4.260   4.514   9.668 -0.9960 -2.3309 -1.1241
  158MOL0     H20798   4.296   4.340   9.649  0.7107 -0.3304  0.0565
  158MOL0     H20799   4.469   4.552   9.520  0.7429 -0.3633 -3.9174
  158MOL0     H20800   4.509   4.383   9.528 -1.8545 -2.1523 -1.1342
  158MOL0     H20801   4.417   4.443   9.317 -0.2025  0.2111 -0.0667
  158MOL0     H20802   4.256   4.466   9.380  0.9874  2.0399  0.9403
  158MOL0     H20803   4.201   4.258   9.403  0.3305 -1.1030 -2.7023
  158MOL0     H20804   4.358   4.214   9.475 -1.8059  0.9503  1.6177
  158MOL0     H20805   4.456   4.219   9.250 -0.0996 -1.2103  0.8834
  158MOL0     H20806   4.344   4.081   9.274 -2.0371  0.1913  4.8553
  158MOL0     H20807   4.337   4.190   9.050  2.1088 -0.3560  0.9141
  158MOL0     H20808   4.281   4.338   9.133 -0.6666  0.2005  1.0925
  158MOL0     H20809   4.050   4.324   8.973  2.1938  1.6467  1.3106
  158MOL0     H20810   3.752   4.104   9.017  1.9023 -0.8703  2.4365
  158MOL0     H20811   3.818   4.255   8.941  2.9725  0.4066  0.6833
  158MOL0     H20812   3.624   4.332   9.026  0.1786 -0.6377 -1.0364
  158MOL0     H20813   3.744   4.396   9.131  0.0544  1.1219 -2.0830
  158MOL0     H20814   3.595   4.141   9.192  1.8182 -1.3684  2.1718
  158MOL0     H20815   3.702   4.236   9.303 -0.3230  1.9319  0.7298
  158MOL0     H20816   3.458   4.264   9.348 -2.5150  1.1400 -0.1545
  158MOL0     H20817   3.433   4.310   9.181  1.1104 -1.3579  1.5242
  158MOL0     H20818   3.596   4.671   9.452 -0.0823  0.3002 -2.1615
  158MOL0     H20819   3.432   4.828   9.528 -1.5382  3.1275 -3.5061
  158MOL0     H20820   2.828   4.721   9.593  0.7587  0.2581 -2.6601
  158MOL0     H20821   2.637   4.864   9.681 -0.7431  1.7948  1.4364
  158MOL0     H20822   2.497   5.002   9.639  0.4173 -0.9696  2.3420
  158MOL0     H20823   2.458   5.172   9.697  0.4476  0.8833 -0.2886
  158MOL0     H20824   2.485   5.088   9.941 -1.6031  0.1585 -0.3569
  158MOL0     H20825   2.555   4.939   9.882  0.3706 -0.3299 -0.0170
  158MOL0     H20826   2.339   4.892   9.750  0.7124 -0.3127  0.6126
  158MOL0     H20827   2.270   5.025   9.843  0.1584 -0.6391 -1.5550
  158MOL0     H20828   2.390   4.829  10.022 -0.2050 -1.2633 -0.4445
  158MOL0     H20829   2.255   4.939  10.040 -3.9764 -0.7735 -0.1926
  158MOL0     H20830   2.186   4.679  10.022  3.3124  0.2121  1.3992
  158MOL0     H20831   2.206   4.697   9.857  1.3547 -1.1953  0.4037
  158MOL0     H20832   2.050   4.879   9.843  1.0784  0.1618  0.6896
  158MOL0     H20833   2.022   4.874  10.030  1.0981 -0.2934  0.3581
  158MOL0     H20834   1.973   4.654   9.831 -1.8512  0.1095 -0.0621
  158MOL0     H20835   1.961   4.641  10.009 -1.7577  0.2437 -0.5326
  158MOL0     H20836   1.758   4.670   9.945 -0.2700  0.5542  0.9645
  158MOL0     H20837   1.789   4.778   9.808 -1.2290 -0.2252  0.3559
  158MOL0     H20838   2.867   5.213   9.579  1.4115  0.1364 -0.8080
  158MOL0     H20839   3.028   5.065   9.449  0.5969 -2.3973 -0.7153
  158MOL0     H20840   3.127   4.612   9.332 -0.3877  1.6047 -0.5977
  158MOL0     H20841   3.273   4.450   9.252  0.4419  1.5318 -1.9046
  158MOL0     H20842   4.858   4.601   9.905  0.6589 -0.3264 -1.7141
  158MOL0     H20843   4.996   4.783   9.999 -1.0199 -2.4431  3.5703
  158MOL0     H20844   4.993   5.254  10.108  3.0644  1.0357 -0.0053
  158MOL0     H20845   5.151   5.417  10.236  2.7815 -1.2914  0.5326
  158MOL0     H20846   5.288   5.348  10.638 -0.2961  0.4562  0.0308
  158MOL0     H20847   5.400   5.465  10.581  2.5230 -1.0586 -0.4147
  158MOL0     H20848   5.425   5.170  10.521 -3.6908  1.1559  1.8001
  158MOL0     H20849   5.544   5.296  10.468  1.8796 -0.6009  0.2384
  158MOL0     H20850   5.574   5.350  10.706 -1.6326  0.0297 -1.1531
  158MOL0     H20851   5.642   5.195  10.648 -0.2860 -1.3722  1.4113
  158MOL0     H20852   5.416   5.243  10.832 -1.1152  0.5433 -1.1492
  158MOL0     H20853   5.446   5.084  10.763 -2.2192  0.9037  2.0353
  158MOL0     H20854   5.736   5.108  11.071  0.8404  1.8288  0.3569
  158MOL0     H20855   5.172   5.137  10.564 -0.3921 -0.1354 -0.0020
  158MOL0     H20856   5.007   5.005  10.456 -1.2651  1.3405 -0.8739
  159MOL0     O20857   7.120   1.109   4.548 -0.2460  0.6679  0.0536
  159MOL0     C20858   7.128   1.148   4.426  0.3502  0.5851 -0.4713
  159MOL0     O20859   7.214   1.247   4.376 -0.4007 -0.0170 -0.2507
  159MOL0     C20860   7.313   1.316   4.454  0.5936 -0.4592  0.4569
  159MOL0     C20861   7.352   1.445   4.417  0.1990 -0.1291  0.8650
  159MOL0     C20862   7.459   1.508   4.483 -0.1450  0.9115  0.6982
  159MOL0     C20863   7.515   1.457   4.599 -0.6405  0.9471 -0.2376
  159MOL0     O20864   7.604   1.521   4.689 -0.2656  0.9670 -0.9512
  159MOL0     C20865   7.614   1.661   4.687  0.9262  0.9982 -0.2118
  159MOL0     C20866   7.733   1.710   4.610 -0.2661  0.0012  0.1969
  159MOL0     C20867   7.858   1.651   4.672 -0.3553  0.4645  0.0239
  159MOL0     C20868   7.972   1.718   4.599 -0.2466 -0.7182  0.4949
  159MOL0     C20869   8.103   1.675   4.656 -0.2645  0.6855 -0.2045
  159MOL0     C20870   8.216   1.707   4.556  0.5473 -0.0239  0.2617
  159MOL0     C20871   8.220   1.614   4.426 -0.6527  0.0028  0.4155
  159MOL0     C20872   8.253   1.476   4.482  0.3787 -0.3380  0.5021
  159MOL0     N20873   8.301   1.382   4.372  0.8406 -0.3637 -0.0119
  159MOL0     C20874   8.259   1.369   4.237 -0.6317  0.5968 -0.2693
  159MOL0     C20875   8.329   1.262   4.197 -0.8336  0.9432 -0.2404
  159MOL0     C20876   8.300   1.186   4.061  0.2562  0.5195 -0.9105
  159MOL0     C20877   8.336   1.041   4.073  0.6522  1.0514  0.7447
  159MOL0     C20878   8.325   0.966   3.942 -0.2765 -0.3927  0.3596
  159MOL0     C20879   8.380   0.823   3.947  0.1786  0.3180 -0.8939
  159MOL0     O20880   8.367   0.770   3.826  0.3200  0.3175  0.7166
  159MOL0     C20881   8.252   0.716   3.773 -0.0145 -0.0565 -0.9451
  159MOL0     C20882   8.274   0.665   3.647  0.2493  0.9001  0.9638
  159MOL0     C20883   8.180   0.598   3.574 -0.4630 -0.0071  0.0556
  159MOL0     C20884   8.059   0.585   3.629 -0.4658  0.1763 -0.8807
  159MOL0     C20885   7.961   0.514   3.558  0.6341  0.4157 -0.0321
  159MOL0     O20886   7.836   0.559   3.579  0.0984 -0.1998 -0.3620
  159MOL0     C20887   7.719   0.491   3.534 -0.5321  0.8773 -0.8012
  159MOL0     C20888   7.649   0.540   3.424 -0.3201  0.3239  0.0919
  159MOL0     C20889   7.537   0.478   3.373  0.1995  0.7720  0.7247
  159MOL0     C20890   7.488   0.373   3.450  0.5308 -0.0245 -0.0026
  159MOL0     O20891   7.361   0.327   3.420  0.2885  0.3576 -0.1097
  159MOL0     C20892   7.271   0.409   3.488  0.4214  0.0817  0.0131
  159MOL0     C20893   7.132   0.406   3.422 -0.4988 -0.2025  0.5655
  159MOL0     C20894   7.136   0.420   3.268  0.0615  0.8226 -1.2378
  159MOL0     C20895   6.989   0.417   3.216 -0.5976 -1.0601  0.2727
  159MOL0     C20896   6.954   0.270   3.193 -0.5562  0.3286  0.0549
  159MOL0     C20897   6.816   0.278   3.129 -0.3328  0.4046 -0.1581
  159MOL0     C20898   6.783   0.136   3.085 -0.1776  0.6120  0.1764
  159MOL0     C20899   6.741   0.038   3.187 -0.0788  0.0698 -0.3944
  159MOL0    Cl20900   6.588   0.088   3.273 -0.4388  0.3597 -0.1917
  159MOL0     C20901   7.559   0.315   3.556  1.2306  0.0641  0.2518
  159MOL0     C20902   7.679   0.376   3.606  0.1466  0.3062  0.2590
  159MOL0     O20903   7.988   0.423   3.482  0.2704  0.2394  1.1961
  159MOL0     C20904   8.036   0.636   3.761 -0.7697 -0.5355 -0.2233
  159MOL0     C20905   8.133   0.698   3.841 -0.6333  0.2632 -0.9564
  159MOL0     N20906   8.415   1.220   4.298 -0.5855  0.3204  0.5244
  159MOL0     N20907   8.398   1.300   4.395 -0.7065 -0.3823 -0.7795
  159MOL0     C20908   7.477   1.329   4.643 -0.5468  0.1794 -0.0884
  159MOL0     C20909   7.382   1.256   4.558 -0.5393 -0.2272  0.0121
  159MOL0     C20910   7.041   1.096   4.325 -0.6300  1.0391 -0.0178
  159MOL0     C20911   7.085   1.097   4.192  0.4846 -0.8299  0.6445
  159MOL0     C20912   7.009   1.058   4.084 -0.0259  0.2168 -0.4643
  159MOL0     C20913   6.880   1.005   4.101  0.5551 -0.3488  0.5553
  159MOL0     O20914   6.803   0.950   3.999  0.2365 -0.0330 -0.5735
  159MOL0     C20915   6.828   0.982   3.861 -0.6517  0.2816  0.0147
  159MOL0     C20916   6.691   0.993   3.808  0.3909 -0.5966  0.3894
  159MOL0     C20917   6.682   1.008   3.655  0.6559 -1.0480 -0.5222
  159MOL0     C20918   6.536   1.000   3.599 -0.2138  0.7290 -0.4242
  159MOL0     C20919   6.436   1.102   3.643 -0.6923  0.6587 -1.0538
  159MOL0     C20920   6.363   1.189   3.680 -0.6281  0.2551 -1.2754
  159MOL0     C20921   6.836   0.991   4.236  0.6367  0.2996 -0.4691
  159MOL0     C20922   6.915   1.049   4.344  0.4652 -0.5301  0.3290
  159MOL0     H20923   7.306   1.483   4.326 -2.5678 -1.4426  1.6051
  159MOL0     H20924   7.495   1.605   4.452  0.1547  1.5183  2.7801
  159MOL0     H20925   7.631   1.700   4.788 -3.9816  4.0686 -0.2500
  159MOL0     H20926   7.528   1.703   4.635  2.0658  0.6256 -2.5283
  159MOL0     H20927   7.729   1.819   4.623  0.1739 -0.2525  3.2406
  159MOL0     H20928   7.731   1.679   4.505 -3.6849 -0.1823  0.2077
  159MOL0     H20929   7.846   1.543   4.660 -2.3450  0.7456 -0.9854
  159MOL0     H20930   7.862   1.672   4.779  1.2391  1.0796 -0.1364
  159MOL0     H20931   7.966   1.677   4.498  0.8239 -2.9470  1.2678
  159MOL0     H20932   7.963   1.826   4.611 -0.7486 -0.4945 -1.5846
  159MOL0     H20933   8.113   1.571   4.688 -1.4646  0.6328  0.0565
  159MOL0     H20934   8.130   1.730   4.747 -1.3421 -3.7536  3.1635
  159MOL0     H20935   8.317   1.716   4.596  0.6174  3.0433 -0.3602
  159MOL0     H20936   8.209   1.806   4.511  3.3441  0.7871  1.3740
  159MOL0     H20937   8.125   1.614   4.373 -0.2516  3.7038 -0.5969
  159MOL0     H20938   8.306   1.641   4.364 -0.5992 -3.9047 -1.4907
  159MOL0     H20939   8.169   1.432   4.538  1.1158 -0.8463  1.2235
  159MOL0     H20940   8.328   1.494   4.560 -0.5172  0.1854  1.2693
  159MOL0     H20941   8.167   1.406   4.194 -0.7858  4.3756  2.6961
  159MOL0     H20942   8.356   1.224   3.976 -0.3790 -0.4541 -1.7869
  159MOL0     H20943   8.193   1.189   4.038  0.2228 -1.4234 -1.2065
  159MOL0     H20944   8.273   0.996   4.150 -1.0901  0.3603 -0.9911
  159MOL0     H20945   8.442   1.037   4.099  0.3962  3.5853  2.4292
  159MOL0     H20946   8.217   0.957   3.928 -0.0185 -1.2835 -1.3369
  159MOL0     H20947   8.367   1.020   3.856 -2.3854  0.5626 -0.1459
  159MOL0     H20948   8.333   0.768   4.029  0.7024  1.9346  0.5562
  159MOL0     H20949   8.484   0.831   3.979 -0.0139  0.9274 -0.3930
  159MOL0     H20950   8.373   0.662   3.603 -0.1387  0.8834  0.0809
  159MOL0     H20951   8.206   0.561   3.475  0.7576  0.6956  0.0839
  159MOL0     H20952   7.684   0.630   3.375  0.0571  0.0523 -0.1367
  159MOL0     H20953   7.484   0.499   3.280  0.3112 -1.8680 -0.0289
  159MOL0     H20954   7.293   0.516   3.483 -1.9446  0.6460  0.4620
  159MOL0     H20955   7.249   0.367   3.587 -0.1998  1.2959  0.4091
  159MOL0     H20956   7.082   0.489   3.473  0.1808 -0.5046  1.7577
  159MOL0     H20957   7.078   0.314   3.446  2.4838 -1.0492  5.2431
  159MOL0     H20958   7.198   0.339   3.227  2.3411  0.9356  1.6893
  159MOL0     H20959   7.179   0.519   3.250  1.4790  0.1225 -1.8564
  159MOL0     H20960   6.917   0.455   3.288  0.4193 -3.4927  2.7635
  159MOL0     H20961   6.992   0.464   3.117 -0.8374  0.6046  1.0258
  159MOL0     H20962   6.936   0.214   3.286 -0.3479  0.4403  0.1640
  159MOL0     H20963   7.030   0.217   3.134 -1.7778 -1.9833  0.4408
  159MOL0     H20964   6.819   0.344   3.042  0.1836 -0.2587 -0.6528
  159MOL0     H20965   6.738   0.324   3.190 -1.2248  0.7040 -1.5081
  159MOL0     H20966   6.704   0.139   3.010  0.7351  3.8941 -0.8347
  159MOL0     H20967   6.866   0.090   3.031 -0.9830 -0.1873 -0.3983
  159MOL0     H20968   6.821   0.005   3.254  1.6274  0.5521 -2.0985
  159MOL0     H20969   6.721  -0.050   3.126  1.0027  0.0461 -0.7447
  159MOL0     H20970   7.514   0.236   3.615 -1.8175  0.7994 -0.9111
  159MOL0     H20971   7.740   0.343   3.690 -3.0452  0.5763  2.8793
  159MOL0     H20972   7.930   0.639   3.786 -0.7346  4.9698  0.4803
  159MOL0     H20973   8.104   0.732   3.940 -1.7223  1.6288 -1.7099
  159MOL0     H20974   7.521   1.285   4.732  4.0364  1.8217 -1.2946
  159MOL0     H20975   7.366   1.152   4.585 -2.0417 -0.7122 -2.4501
  159MOL0     H20976   7.177   1.147   4.162 -0.9851  2.7249  1.4935
  159MOL0     H20977   7.063   1.058   3.990  0.9845 -1.9511  0.0488
  159MOL0     H20978   6.879   0.894   3.821 -0.7665 -1.0036  2.4875
  159MOL0     H20979   6.876   1.079   3.851 -1.0049  0.6161  1.2989
  159MOL0     H20980   6.635   0.905   3.840  0.3081 -0.4675  0.6023
  159MOL0     H20981   6.649   1.085   3.850  0.0292 -0.9094  0.7172
  159MOL0     H20982   6.737   0.934   3.596 -0.4189 -2.1385 -0.2048
  159MOL0     H20983   6.729   1.106   3.642  3.8553 -2.4905 -0.7496
  159MOL0     H20984   6.546   1.016   3.492 -1.5682  1.0043 -0.5352
  159MOL0     H20985   6.488   0.904   3.622 -0.3868  0.6632 -1.0613
  159MOL0     H20986   6.298   1.271   3.705 -0.3324  0.0300  0.3786
  159MOL0     H20987   6.741   0.941   4.253  0.3287  1.2407  0.6940
  159MOL0     H20988   6.883   1.038   4.447  0.4145  1.5637  0.5771
  160MOL0     O20989   1.240   2.399  11.349 -0.0598 -0.3418 -0.0567
  160MOL0     C20990   1.200   2.344  11.453  0.5511 -0.6635  0.3030
  160MOL0     O20991   1.068   2.308  11.475 -0.5834  0.3407 -0.2844
  160MOL0     C20992   0.971   2.338  11.379 -0.4001  1.0010  0.0937
  160MOL0     C20993   0.994   2.312  11.247  0.7350  0.1401  0.5638
  160MOL0     C20994   0.880   2.326  11.161 -0.7645 -0.0694  0.4045
  160MOL0     C20995   0.753   2.356  11.199  1.1368  0.2881  0.1914
  160MOL0     O20996   0.655   2.353  11.109 -0.2143 -0.1195 -0.0928
  160MOL0     C20997   0.506   2.371  11.125 -0.0111  0.0219  1.2327
  160MOL0     C20998   0.462   2.507  11.157 -0.1557  0.6762  0.1762
  160MOL0     C20999   0.502   2.620  11.065 -0.3012 -1.0945 -0.0593
  160MOL0     C21000   0.422   2.745  11.085 -0.1460  0.4944  0.1678
  160MOL0     C21001   0.453   2.854  10.993 -0.5702 -0.0635 -0.5734
  160MOL0     C21002   0.560   2.949  11.054  0.4105 -0.1192 -0.3255
  160MOL0     C21003   0.639   3.042  10.961 -0.3911 -0.2434  0.7210
  160MOL0     C21004   0.725   2.960  10.865  0.9450 -0.5668  0.3375
  160MOL0     N21005   0.850   2.902  10.933 -0.5214 -0.9637  0.3121
  160MOL0     C21006   0.867   2.772  10.967  0.8271  0.3921  1.1154
  160MOL0     C21007   0.997   2.755  10.991 -0.4951 -0.7619 -0.4140
  160MOL0     C21008   1.082   2.634  11.025 -0.7110 -0.6618  0.6874
  160MOL0     C21009   1.057   2.520  10.935  0.6848 -0.8622 -1.4978
  160MOL0     C21010   1.057   2.557  10.776  0.7539  0.3936 -0.5668
  160MOL0     C21011   0.956   2.473  10.700 -0.1046  0.4527  0.2598
  160MOL0     O21012   0.819   2.519  10.716  0.1639  0.4452  0.3365
  160MOL0     C21013   0.716   2.424  10.719  0.5392 -1.0414 -0.4470
  160MOL0     C21014   0.718   2.297  10.775  0.6710 -0.3234 -0.3758
  160MOL0     C21015   0.597   2.221  10.790  0.2217 -0.1803 -0.3146
  160MOL0     C21016   0.478   2.269  10.733 -0.3403 -0.1790  1.6570
  160MOL0     C21017   0.364   2.179  10.714 -0.3828 -0.0248  0.5476
  160MOL0     O21018   0.384   2.043  10.725  0.2708 -0.6509 -0.5962
  160MOL0     C21019   0.295   1.940  10.700  0.4449 -0.2461  0.1204
  160MOL0     C21020   0.165   1.932  10.751  0.0167  0.2059 -0.3372
  160MOL0     C21021   0.081   1.822  10.724  0.2761  0.1712  0.3029
  160MOL0     C21022   0.133   1.720  10.637 -0.6992 -0.3808 -0.6893
  160MOL0     O21023   0.037   1.643  10.591 -0.0073  0.2530 -0.8195
  160MOL0     C21024   0.076   1.538  10.505 -0.3935  0.5916 -0.1453
  160MOL0     C21025  -0.037   1.436  10.514  0.1106  0.2216 -0.0283
  160MOL0     C21026  -0.174   1.487  10.459 -0.7111 -0.2096 -0.4172
  160MOL0     C21027  -0.282   1.377  10.479  0.6865 -0.0100  0.2965
  160MOL0     C21028  -0.424   1.411  10.430  0.3929  0.1669  0.4770
  160MOL0     C21029  -0.520   1.291  10.454  0.3624 -0.1380 -0.5416
  160MOL0     C21030  -0.671   1.341  10.421  0.2137  0.7778 -0.5766
  160MOL0     C21031  -0.731   1.439  10.524  0.7650  0.1014 -0.0702
  160MOL0    Cl21032  -0.905   1.464  10.493 -0.1474  0.1460 -0.2274
  160MOL0     C21033   0.263   1.728  10.590 -0.8692 -0.6531 -0.6385
  160MOL0     C21034   0.346   1.837  10.622 -0.2462 -0.5506 -0.0332
  160MOL0     O21035   0.258   2.227  10.664 -1.3964 -0.3479 -0.4134
  160MOL0     C21036   0.479   2.397  10.672  0.4503  0.6630  0.2846
  160MOL0     C21037   0.596   2.472  10.686 -0.5946 -0.4450 -0.0698
  160MOL0     N21038   1.057   2.879  10.968 -0.1211 -0.1823  0.3102
  160MOL0     N21039   0.971   2.968  10.936  0.7349  1.0178  0.9221
  160MOL0     C21040   0.727   2.373  11.335 -0.2221  0.2587 -1.1089
  160MOL0     C21041   0.841   2.364  11.420  0.0053 -0.7851  0.6087
  160MOL0     C21042   1.285   2.323  11.572 -0.1747 -0.1000  0.1284
  160MOL0     C21043   1.430   2.351  11.558 -0.2230  0.3401 -0.1501
  160MOL0     C21044   1.507   2.325  11.673 -0.0301 -0.5228 -0.0843
  160MOL0     C21045   1.455   2.263  11.787  0.3598  0.5613 -0.5049
  160MOL0     O21046   1.525   2.253  11.903 -0.4448 -0.4016 -0.1940
  160MOL0     C21047   1.661   2.199  11.895  0.7757 -1.1666 -0.3631
  160MOL0     C21048   1.723   2.173  12.031 -0.9367  0.2507  0.9353
  160MOL0     C21049   1.719   2.271  12.138 -0.6624 -0.0628  0.7725
  160MOL0     C21050   1.818   2.379  12.128 -0.1329 -0.3477 -0.2008
  160MOL0     C21051   1.787   2.461  12.008 -0.6365 -0.1030  0.0545
  160MOL0     C21052   1.759   2.519  11.902 -0.4058  0.0513  0.3959
  160MOL0     C21053   1.324   2.231  11.803  0.1463  0.7765  0.1263
  160MOL0     C21054   1.239   2.262  11.694  0.8651 -0.1731  0.5443
  160MOL0     H21055   1.093   2.282  11.213  1.1278 -0.5242  2.1856
  160MOL0     H21056   0.890   2.302  11.056  0.4704 -1.0696  0.7156
  160MOL0     H21057   0.478   2.298  11.202  0.8455 -2.1204 -0.3702
  160MOL0     H21058   0.444   2.351  11.037 -1.7544  2.0980  1.8995
  160MOL0     H21059   0.494   2.536  11.257 -1.3710  1.0150  0.4887
  160MOL0     H21060   0.353   2.493  11.150  0.0211 -0.0580 -1.4237
  160MOL0     H21061   0.509   2.592  10.960 -2.9211  2.7238 -1.4788
  160MOL0     H21062   0.605   2.651  11.087 -0.9697  0.8156  0.5561
  160MOL0     H21063   0.315   2.727  11.070  0.1558 -0.9834 -0.3482
  160MOL0     H21064   0.434   2.792  11.183  2.6322  2.0784 -0.8177
  160MOL0     H21065   0.358   2.902  10.969 -0.5097  0.4736  0.2186
  160MOL0     H21066   0.485   2.819  10.894 -1.3977 -1.7376 -0.2842
  160MOL0     H21067   0.631   2.893  11.115 -2.4048 -0.8797  2.5650
  160MOL0     H21068   0.495   3.002  11.125  2.3485 -1.8853  3.0146
  160MOL0     H21069   0.574   3.107  10.901 -0.7769 -1.2891 -0.0259
  160MOL0     H21070   0.697   3.118  11.014 -1.6790  0.8541  0.6034
  160MOL0     H21071   0.767   3.031  10.793  3.2938 -0.5041  1.6526
  160MOL0     H21072   0.678   2.871  10.822 -0.0688 -1.6009  3.2961
  160MOL0     H21073   0.793   2.694  10.975  1.1607  0.1843  2.3392
  160MOL0     H21074   1.062   2.594  11.125 -2.7333 -3.0283 -0.5397
  160MOL0     H21075   1.186   2.668  11.019 -1.6192  2.1974 -0.7899
  160MOL0     H21076   0.956   2.488  10.963  0.1241  0.5716 -1.7739
  160MOL0     H21077   1.130   2.441  10.953  0.8631 -1.0137 -2.7602
  160MOL0     H21078   1.045   2.665  10.764 -0.2991  0.2479 -0.9543
  160MOL0     H21079   1.160   2.547  10.743  0.2841 -0.7452 -1.7804
  160MOL0     H21080   0.953   2.366  10.721 -2.7083  1.1184  4.3144
  160MOL0     H21081   0.995   2.472  10.597  0.8838 -2.4247  0.5787
  160MOL0     H21082   0.815   2.266  10.813  1.9036  2.3838 -1.0432
  160MOL0     H21083   0.606   2.127  10.843 -0.3940  0.8464  1.7247
  160MOL0     H21084   0.126   2.015  10.809 -1.4165 -0.0775 -0.8756
  160MOL0     H21085  -0.021   1.817  10.762 -0.4065  1.9861 -1.1478
  160MOL0     H21086   0.174   1.498  10.530  0.0725  0.7381 -1.6638
  160MOL0     H21087   0.075   1.580  10.404  3.0493 -0.8298 -0.9063
  160MOL0     H21088  -0.053   1.405  10.617 -0.5504  1.5788  0.3026
  160MOL0     H21089  -0.000   1.344  10.467 -1.3943 -1.8866  2.6418
  160MOL0     H21090  -0.167   1.504  10.352  0.6292  0.9894 -0.1589
  160MOL0     H21091  -0.202   1.582  10.507 -0.8883 -1.1096  1.3754
  160MOL0     H21092  -0.251   1.290  10.421  4.4676  0.3424  1.5191
  160MOL0     H21093  -0.292   1.348  10.584 -2.1600  1.3073  0.4924
  160MOL0     H21094  -0.422   1.431  10.322  1.2682  0.1673  0.4870
  160MOL0     H21095  -0.468   1.496  10.484 -1.0106 -1.6889  2.4296
  160MOL0     H21096  -0.517   1.257  10.558  1.7238  2.8502  0.5339
  160MOL0     H21097  -0.486   1.208  10.391  0.7456  0.9234 -1.7899
  160MOL0     H21098  -0.679   1.367  10.315 -0.8213  0.7987 -0.5060
  160MOL0     H21099  -0.727   1.247  10.431  2.7874 -0.9755 -1.5889
  160MOL0     H21100  -0.686   1.538  10.515 -0.4297  0.6388 -0.3315
  160MOL0     H21101  -0.721   1.411  10.629 -1.7130  0.8410  0.4185
  160MOL0     H21102   0.307   1.654  10.524 -1.2946 -0.9817 -0.5609
  160MOL0     H21103   0.452   1.825  10.606  0.3011  2.6369  0.5680
  160MOL0     H21104   0.391   2.437  10.624  1.1699  0.4213 -1.3017
  160MOL0     H21105   0.603   2.573  10.646  0.8911 -1.1973 -1.8045
  160MOL0     H21106   0.631   2.403  11.376  0.1256 -1.8841  1.5721
  160MOL0     H21107   0.832   2.363  11.528 -2.9478  2.0325  0.5258
  160MOL0     H21108   1.487   2.405  11.482  0.7857  1.1583  1.1484
  160MOL0     H21109   1.610   2.358  11.665 -0.2547  0.3241  0.4056
  160MOL0     H21110   1.731   2.271  11.851  0.6120 -0.9445 -0.2630
  160MOL0     H21111   1.664   2.105  11.840  0.3689 -0.7067 -1.1897
  160MOL0     H21112   1.668   2.084  12.065 -0.6457 -0.5336 -0.5331
  160MOL0     H21113   1.825   2.138  12.013 -0.6052  1.7878 -0.3760
  160MOL0     H21114   1.736   2.211  12.228  2.7104 -0.2496  0.1538
  160MOL0     H21115   1.624   2.325  12.150  0.1000  1.0703  2.1680
  160MOL0     H21116   1.819   2.442  12.218  0.4944  0.1860 -0.5712
  160MOL0     H21117   1.920   2.340  12.120 -0.7169 -1.9974 -0.0517
  160MOL0     H21118   1.738   2.570  11.810 -0.4315  0.0944  0.4249
  160MOL0     H21119   1.273   2.195  11.892  4.9366  0.1792  2.9820
  160MOL0     H21120   1.135   2.237  11.711 -0.0106  3.1511  0.7920
  161MOL0     O21121  10.151   2.061   9.221 -0.3219 -0.1947  0.0961
  161MOL0     C21122  10.193   2.166   9.249  0.0603 -0.1600 -0.1615
  161MOL0     O21123  10.216   2.208   9.378  0.7023  0.0901 -1.4721
  161MOL0     C21124  10.206   2.121   9.483 -0.1598  1.3469  0.3185
  161MOL0     C21125  10.308   2.030   9.499  0.0217  0.3510  0.1627
  161MOL0     C21126  10.297   1.929   9.593  0.4228 -0.2193  0.5117
  161MOL0     C21127  10.187   1.918   9.685 -0.4979  0.0069 -0.2534
  161MOL0     O21128  10.183   1.829   9.796 -0.1655 -0.0986  0.0433
  161MOL0     C21129  10.063   1.745   9.791  0.4163 -0.1531  0.2694
  161MOL0     C21130  10.065   1.641   9.909 -0.5342 -0.1206  1.5307
  161MOL0     C21131   9.951   1.544   9.920  0.3893 -0.0738  0.3833
  161MOL0     C21132   9.804   1.618   9.944 -0.2339  1.0826 -1.1753
  161MOL0     C21133   9.686   1.515   9.917  0.1473 -0.3185 -0.4887
  161MOL0     C21134   9.679   1.410  10.028 -0.4346 -0.6359  0.0641
  161MOL0     C21135   9.599   1.462  10.148  0.4304  0.1428 -0.1312
  161MOL0     C21136   9.599   1.367  10.269 -0.2485  0.7042  0.0962
  161MOL0     N21137   9.490   1.398  10.364  0.3527 -0.0018 -0.5540
  161MOL0     C21138   9.386   1.324  10.385 -0.5992 -0.0928  0.1316
  161MOL0     C21139   9.305   1.375  10.485 -0.6195  0.4409  0.5563
  161MOL0     C21140   9.174   1.334  10.548  0.1647  0.0886 -0.0183
  161MOL0     C21141   9.118   1.204  10.482  0.5599 -0.6390 -1.2759
  161MOL0     C21142   9.065   1.217  10.336  0.1643 -0.0603 -0.5106
  161MOL0     C21143   8.954   1.322  10.320  0.7570 -0.6553 -0.3663
  161MOL0     O21144   8.916   1.311  10.189  0.4159  0.8044  0.4131
  161MOL0     C21145   8.789   1.329  10.148  0.1107 -0.6802  0.0658
  161MOL0     C21146   8.783   1.376  10.015 -0.3574  1.0990 -0.1947
  161MOL0     C21147   8.659   1.412   9.962 -0.8549 -0.2817 -0.2234
  161MOL0     C21148   8.534   1.398  10.032  0.1935 -0.1375 -0.5546
  161MOL0     C21149   8.401   1.418   9.974 -0.0192 -0.3422  0.0999
  161MOL0     O21150   8.285   1.373  10.039 -0.1980  0.0600  0.9699
  161MOL0     C21151   8.160   1.433  10.007  0.6197 -0.6260 -0.4371
  161MOL0     C21152   8.090   1.397   9.895 -0.5711 -0.4075  0.0972
  161MOL0     C21153   7.969   1.450   9.866  0.4209  0.6279 -0.4029
  161MOL0     C21154   7.901   1.534   9.954 -0.2508  0.6514  0.4020
  161MOL0     O21155   7.774   1.572   9.904  0.0866  0.0569  0.1230
  161MOL0     C21156   7.716   1.692   9.943 -0.0434 -0.2877 -0.5267
  161MOL0     C21157   7.626   1.653  10.065 -0.0676 -0.1147  0.0366
  161MOL0     C21158   7.483   1.649  10.038 -0.1840 -0.4388 -0.1068
  161MOL0     C21159   7.404   1.648  10.163  0.2441  0.0170 -0.7969
  161MOL0     C21160   7.251   1.658  10.131  0.2397 -1.1437 -0.5575
  161MOL0     C21161   7.212   1.798  10.080 -0.2360 -0.2697 -0.0500
  161MOL0     C21162   7.069   1.836  10.106 -0.7960  0.4232  0.0929
  161MOL0     C21163   7.034   1.857  10.251 -0.3195  0.1235 -0.6606
  161MOL0    Cl21164   6.872   1.910  10.274  0.5606 -0.0960  0.2334
  161MOL0     C21165   7.966   1.571  10.065  0.1960  0.1218 -0.0624
  161MOL0     C21166   8.086   1.512  10.095 -0.3044  0.5148 -0.0950
  161MOL0     O21167   8.408   1.490   9.870 -0.0499 -0.8865 -0.1163
  161MOL0     C21168   8.546   1.353  10.166 -0.1350  0.2994  0.5812
  161MOL0     C21169   8.671   1.322  10.225  0.2158 -0.2038 -0.0470
  161MOL0     N21170   9.354   1.510  10.494 -0.0260  0.4968 -0.5691
  161MOL0     N21171   9.470   1.515  10.440  0.3506  0.0693  0.4310
  161MOL0     C21172  10.083   2.019   9.670 -0.4954 -0.3482  0.0989
  161MOL0     C21173  10.093   2.114   9.564  0.3086 -0.1776 -0.5607
  161MOL0     C21174  10.254   2.250   9.137  0.1320 -0.9843 -0.3978
  161MOL0     C21175  10.262   2.221   8.996 -0.0279  0.6480  0.0252
  161MOL0     C21176  10.338   2.293   8.911 -1.2945 -0.1621 -0.2437
  161MOL0     C21177  10.409   2.413   8.947  0.2392  0.0995  0.0195
  161MOL0     O21178  10.471   2.488   8.849  0.0659 -0.0979  0.5067
  161MOL0     C21179  10.541   2.611   8.886  0.0845  0.7977 -0.3918
  161MOL0     C21180  10.585   2.683   8.753  0.0813  0.0877 -0.3104
  161MOL0     C21181  10.736   2.652   8.711  0.0196 -0.2358 -0.9420
  161MOL0     C21182  10.847   2.734   8.784  0.4393 -0.0128  0.8251
  161MOL0     C21183  10.972   2.691   8.726 -0.7411  0.7893 -1.4907
  161MOL0     C21184  11.071   2.644   8.688 -0.1652  0.2304  0.9633
  161MOL0     C21185  10.390   2.454   9.081 -0.2154 -0.0957  0.5449
  161MOL0     C21186  10.327   2.366   9.176 -0.4700 -0.2697 -0.0068
  161MOL0     H21187  10.392   2.041   9.431  0.2885 -1.0155  0.2412
  161MOL0     H21188  10.376   1.854   9.591  2.3327  1.6876 -1.5868
  161MOL0     H21189  10.049   1.697   9.694  0.3546 -0.8780  0.6338
  161MOL0     H21190   9.977   1.810   9.809  0.3646 -0.6468  1.9734
  161MOL0     H21191  10.062   1.700  10.001  1.4302  3.4250 -0.4130
  161MOL0     H21192  10.154   1.578   9.902  1.9372  3.2589 -1.0572
  161MOL0     H21193   9.978   1.484  10.007  0.1638 -1.6294 -0.5805
  161MOL0     H21194   9.943   1.489   9.826 -3.5016  0.6278  0.1659
  161MOL0     H21195   9.796   1.665  10.043 -0.0266 -1.5846  0.2310
  161MOL0     H21196   9.796   1.692   9.864 -0.1819 -1.3502 -3.5872
  161MOL0     H21197   9.698   1.471   9.817 -3.4159 -0.0131 -1.2065
  161MOL0     H21198   9.587   1.562   9.906 -1.0353 -2.4310  0.4913
  161MOL0     H21199   9.782   1.381  10.051 -0.0488 -2.4470 -3.1745
  161MOL0     H21200   9.629   1.318   9.995  0.0322 -0.7162 -0.4353
  161MOL0     H21201   9.631   1.560  10.185  3.0116 -1.9864  3.9539
  161MOL0     H21202   9.498   1.463  10.106 -0.7929  0.5660  2.6429
  161MOL0     H21203   9.697   1.389  10.312 -0.0222  0.4068 -0.2688
  161MOL0     H21204   9.594   1.267  10.226 -0.8014  0.6605  0.2612
  161MOL0     H21205   9.363   1.229  10.338 -1.2784  0.6325 -1.0454
  161MOL0     H21206   9.111   1.423  10.539  0.6689  0.4645  0.0960
  161MOL0     H21207   9.183   1.319  10.656  0.0041 -1.0009 -0.1457
  161MOL0     H21208   9.024   1.175  10.529 -0.3569 -1.3580 -3.4468
  161MOL0     H21209   9.188   1.120  10.494 -0.0728 -1.0124  0.0929
  161MOL0     H21210   9.153   1.242  10.276  1.7101  0.3862  1.7599
  161MOL0     H21211   9.040   1.113  10.316  1.6499 -0.2319 -1.6077
  161MOL0     H21212   8.996   1.419  10.349 -0.4229  0.0415 -0.9058
  161MOL0     H21213   8.875   1.286  10.387  0.1278  1.1781 -0.0805
  161MOL0     H21214   8.871   1.388   9.953  2.3165  1.6309  3.3170
  161MOL0     H21215   8.663   1.458   9.864  0.2516 -1.7867 -0.9144
  161MOL0     H21216   8.139   1.321   9.834 -0.5658 -1.1946  1.0486
  161MOL0     H21217   7.917   1.420   9.776 -0.0358  0.7255 -0.1709
  161MOL0     H21218   7.645   1.721   9.865 -1.7424 -2.8516 -0.0449
  161MOL0     H21219   7.789   1.772   9.952 -0.7336  0.2744  0.2299
  161MOL0     H21220   7.642   1.722  10.148 -0.9661 -1.7244  1.5964
  161MOL0     H21221   7.663   1.556  10.099  0.7343  1.0175  2.5808
  161MOL0     H21222   7.457   1.568   9.969 -0.3049 -0.4484 -0.0525
  161MOL0     H21223   7.455   1.743   9.989 -3.4744  0.3389  2.8476
  161MOL0     H21224   7.435   1.554  10.212  1.3052  1.1237  0.7732
  161MOL0     H21225   7.431   1.722  10.239 -0.3280 -0.1367 -0.4326
  161MOL0     H21226   7.192   1.628  10.218  1.0771  1.7351  1.1360
  161MOL0     H21227   7.231   1.581  10.056  1.8484 -1.4376 -0.7402
  161MOL0     H21228   7.238   1.798   9.974  2.0136 -0.4607  0.4452
  161MOL0     H21229   7.280   1.870  10.127  1.1590 -0.9556 -0.9421
  161MOL0     H21230   7.056   1.929  10.049 -4.4464 -0.8005 -1.4129
  161MOL0     H21231   6.995   1.765  10.068 -1.4549  0.3566  1.4554
  161MOL0     H21232   7.097   1.932  10.298 -2.7750  0.1396  3.0132
  161MOL0     H21233   7.050   1.761  10.301  1.4545 -0.3925 -2.1117
  161MOL0     H21234   7.912   1.641  10.128 -0.1895  0.1186 -0.3837
  161MOL0     H21235   8.131   1.546  10.188  2.0226  1.6964 -1.5615
  161MOL0     H21236   8.453   1.343  10.221  0.1838 -3.0914  0.7106
  161MOL0     H21237   8.677   1.272  10.321  1.2474  0.1370  0.0774
  161MOL0     H21238   9.989   2.016   9.723 -2.2067  3.2593 -2.3493
  161MOL0     H21239  10.008   2.179   9.549  0.0582 -0.5097 -0.6043
  161MOL0     H21240  10.212   2.134   8.955 -2.0138  2.3159 -1.3130
  161MOL0     H21241  10.340   2.256   8.809 -0.9775  0.5318 -0.4956
  161MOL0     H21242  10.627   2.603   8.953 -1.6382 -0.2010  1.7853
  161MOL0     H21243  10.465   2.677   8.928 -0.7540  0.2738 -1.0527
  161MOL0     H21244  10.511   2.677   8.673 -0.8520 -2.3803  0.6415
  161MOL0     H21245  10.589   2.791   8.770 -1.1769  0.8912 -4.3003
  161MOL0     H21246  10.754   2.682   8.607  2.8003  1.2782 -0.1101
  161MOL0     H21247  10.754   2.545   8.723 -0.1168 -0.2081 -0.4814
  161MOL0     H21248  10.829   2.841   8.770 -0.5928 -0.2857 -0.1215
  161MOL0     H21249  10.846   2.705   8.890 -0.6559  1.2038  1.1731
  161MOL0     H21250  11.169   2.614   8.655 -1.8234 -1.6678 -2.9857
  161MOL0     H21251  10.439   2.547   9.108 -0.3221 -0.4995  2.1969
  161MOL0     H21252  10.323   2.403   9.278  0.5180 -0.0489 -0.0312
  162MOL0     O21253   5.669   4.068   8.206  0.1123  0.1317 -0.1683
  162MOL0     C21254   5.569   4.019   8.253  0.2053 -0.2401  0.6966
  162MOL0     O21255   5.535   4.029   8.384 -0.0572  0.3683 -0.0998
  162MOL0     C21256   5.633   4.079   8.472  0.6998 -0.3998  0.0765
  162MOL0     C21257   5.687   4.202   8.474 -0.3372 -0.0780  0.6780
  162MOL0     C21258   5.783   4.249   8.570 -0.5253 -0.4135 -0.0895
  162MOL0     C21259   5.815   4.170   8.679 -0.4826  1.0640  0.3544
  162MOL0     O21260   5.895   4.240   8.772  0.3032  0.1341  0.5263
  162MOL0     C21261   5.923   4.181   8.898 -0.0144  0.3708 -0.0993
  162MOL0     C21262   5.946   4.292   9.001  0.2730  0.5577  0.2136
  162MOL0     C21263   5.824   4.309   9.086 -0.0155  0.4062 -0.3905
  162MOL0     C21264   5.703   4.332   9.022  0.5175 -0.5263  0.5757
  162MOL0     C21265   5.601   4.402   9.125 -0.1643 -0.3157 -0.0864
  162MOL0     C21266   5.559   4.325   9.254 -0.8852 -0.4734  0.5164
  162MOL0     C21267   5.425   4.368   9.326  0.4330  0.4365 -0.5345
  162MOL0     C21268   5.436   4.321   9.478  0.0830  0.0775  0.5103
  162MOL0     N21269   5.308   4.326   9.550 -0.2653 -0.3460 -0.4649
  162MOL0     C21270   5.261   4.433   9.614 -0.6971 -0.1351  1.3965
  162MOL0     C21271   5.140   4.402   9.664 -0.0783  0.2389  0.5176
  162MOL0     C21272   5.063   4.508   9.741 -0.2696  0.1580 -0.3805
  162MOL0     C21273   4.961   4.587   9.654  0.9468  0.6133 -0.6915
  162MOL0     C21274   4.840   4.497   9.640  0.2073 -0.8795 -0.1143
  162MOL0     C21275   4.834   4.417   9.506  0.3501  0.6883 -0.4258
  162MOL0     O21276   4.805   4.510   9.403 -0.5061  0.3780 -0.9690
  162MOL0     C21277   4.887   4.508   9.289  0.9181  0.5274 -0.5295
  162MOL0     C21278   4.836   4.594   9.189 -0.0054  0.8552 -0.6122
  162MOL0     C21279   4.900   4.617   9.070 -1.2995  0.6684  0.7694
  162MOL0     C21280   5.027   4.560   9.043  0.2182  0.5448  0.2388
  162MOL0     C21281   5.105   4.584   8.921  0.0743 -0.1254 -0.0002
  162MOL0     O21282   5.227   4.526   8.904 -0.1832  0.0974 -0.2681
  162MOL0     C21283   5.304   4.546   8.799  0.3942  1.0222 -0.5082
  162MOL0     C21284   5.305   4.641   8.703  0.7291 -0.3468  0.1553
  162MOL0     C21285   5.400   4.643   8.599  0.6599 -0.0061  0.6745
  162MOL0     C21286   5.500   4.548   8.590  0.5890 -0.2277  0.4129
  162MOL0     O21287   5.601   4.555   8.497 -0.9369 -0.1381  0.1700
  162MOL0     C21288   5.569   4.625   8.371 -0.5303 -0.5334  0.2941
  162MOL0     C21289   5.631   4.538   8.257 -0.5717 -0.3387  0.3398
  162MOL0     C21290   5.792   4.538   8.264 -0.2235  0.1980  0.3921
  162MOL0     C21291   5.853   4.424   8.187  0.5991 -0.9621 -0.6736
  162MOL0     C21292   5.990   4.455   8.128 -0.8331 -1.1663  0.0117
  162MOL0     C21293   6.111   4.506   8.225 -0.3653  0.0406 -0.0987
  162MOL0     C21294   6.242   4.519   8.133 -0.7328 -0.1265  0.4637
  162MOL0     C21295   6.361   4.536   8.230  0.2545 -0.5846  0.3022
  162MOL0    Cl21296   6.370   4.702   8.292 -0.1073  0.1415 -0.5274
  162MOL0     C21297   5.498   4.448   8.680 -0.2835  0.6838 -0.0422
  162MOL0     C21298   5.406   4.451   8.786 -0.1352  0.9833  0.8523
  162MOL0     O21299   5.063   4.678   8.846  0.7683 -0.1314 -0.6494
  162MOL0     C21300   5.081   4.476   9.140 -0.3138 -0.3668  0.2414
  162MOL0     C21301   5.016   4.454   9.268  0.9029  0.3087 -0.6566
  162MOL0     N21302   5.114   4.267   9.648  0.1963 -0.2351 -0.3135
  162MOL0     N21303   5.221   4.219   9.585  0.2464  0.4004  0.0305
  162MOL0     C21304   5.760   4.043   8.679  0.1803 -0.4188  1.0298
  162MOL0     C21305   5.667   4.000   8.580 -0.2831  0.8894 -0.8670
  162MOL0     C21306   5.466   3.961   8.159 -0.5808 -0.2024  0.4764
  162MOL0     C21307   5.496   3.953   8.023  1.0244  0.6225 -0.8617
  162MOL0     C21308   5.390   3.903   7.942  0.2541  0.5306  0.4031
  162MOL0     C21309   5.264   3.875   7.998 -0.4776 -0.0383 -0.0111
  162MOL0     O21310   5.153   3.828   7.937  1.1989 -0.2121 -0.4632
  162MOL0     C21311   5.161   3.790   7.792  0.1608 -0.6073 -0.1923
  162MOL0     C21312   5.019   3.810   7.730 -0.4842 -0.3547  0.4119
  162MOL0     C21313   4.895   3.765   7.806 -0.0971  0.0952 -0.4130
  162MOL0     C21314   4.891   3.612   7.800 -1.3472  0.5341  0.5040
  162MOL0     C21315   4.993   3.534   7.874 -0.6872 -0.4981 -0.1951
  162MOL0     C21316   5.073   3.483   7.954 -0.2083  0.5701  0.9263
  162MOL0     C21317   5.242   3.899   8.127 -0.1469  0.5995 -1.2598
  162MOL0     C21318   5.339   3.925   8.215 -0.6460  0.0787 -0.1837
  162MOL0     H21319   5.656   4.265   8.391  1.4233 -2.8134 -2.3328
  162MOL0     H21320   5.832   4.345   8.559  2.3769 -1.8980 -1.4157
  162MOL0     H21321   6.012   4.117   8.899  0.7985  1.3600  2.9288
  162MOL0     H21322   5.845   4.115   8.938 -1.5704  3.5782  2.6425
  162MOL0     H21323   5.966   4.388   8.953  1.2935  0.3326  0.1544
  162MOL0     H21324   6.026   4.257   9.067 -0.0398 -2.5437 -0.8509
  162MOL0     H21325   5.841   4.384   9.164  0.3083 -0.1177  0.0468
  162MOL0     H21326   5.813   4.218   9.145 -0.8316  1.4228  1.0669
  162MOL0     H21327   5.724   4.391   8.932 -1.2318  3.6391  2.6088
  162MOL0     H21328   5.662   4.237   8.986  2.0498 -0.4026 -1.7392
  162MOL0     H21329   5.511   4.424   9.066 -1.4193 -1.4113  1.3216
  162MOL0     H21330   5.642   4.497   9.160  3.6063 -2.2428  1.3533
  162MOL0     H21331   5.635   4.343   9.330 -2.7959 -0.3790  2.5219
  162MOL0     H21332   5.549   4.217   9.242  0.5375 -0.5253 -0.3431
  162MOL0     H21333   5.415   4.477   9.316  3.8830  0.8891 -0.4676
  162MOL0     H21334   5.346   4.305   9.285  0.2785  0.7818 -0.7698
  162MOL0     H21335   5.496   4.401   9.521 -0.3927  1.4636 -1.2752
  162MOL0     H21336   5.482   4.223   9.496 -0.1054  0.3096  2.3648
  162MOL0     H21337   5.312   4.528   9.603  0.3722 -1.0117 -3.4883
  162MOL0     H21338   5.132   4.576   9.790 -0.6802  0.3141 -0.0093
  162MOL0     H21339   5.018   4.460   9.829 -0.0623 -1.7332 -1.2487
  162MOL0     H21340   5.003   4.619   9.558 -2.5080  2.0659 -1.8505
  162MOL0     H21341   4.932   4.672   9.716 -0.2447 -2.0460  2.6974
  162MOL0     H21342   4.839   4.432   9.728 -3.0345  0.5648  1.0663
  162MOL0     H21343   4.754   4.565   9.640  1.3383  0.6216  1.2877
  162MOL0     H21344   4.762   4.335   9.511 -0.1195  1.1472  0.6228
  162MOL0     H21345   4.933   4.370   9.499  0.7271  1.6011 -1.5650
  162MOL0     H21346   4.736   4.634   9.201 -0.6340 -0.1213 -2.2044
  162MOL0     H21347   4.854   4.686   9.000 -4.0590 -1.6375  0.1222
  162MOL0     H21348   5.232   4.721   8.700  0.0970 -0.9447 -2.4662
  162MOL0     H21349   5.384   4.722   8.526 -0.9125 -0.2623  0.7175
  162MOL0     H21350   5.624   4.719   8.368 -0.3337 -0.6848 -1.9308
  162MOL0     H21351   5.464   4.654   8.356 -0.5339 -0.4063  0.5520
  162MOL0     H21352   5.614   4.585   8.159 -0.2186  1.0151  0.8976
  162MOL0     H21353   5.580   4.441   8.255  1.6580 -1.5666 -0.8699
  162MOL0     H21354   5.823   4.498   8.361  2.3919 -0.9827 -0.8328
  162MOL0     H21355   5.843   4.628   8.230  1.1157 -0.7687 -0.2527
  162MOL0     H21356   5.852   4.337   8.253 -3.6726 -0.3691  0.3024
  162MOL0     H21357   5.785   4.403   8.104 -0.8904 -0.4292  0.3715
  162MOL0     H21358   5.978   4.536   8.055 -2.4296 -0.3846  1.0782
  162MOL0     H21359   6.017   4.363   8.076 -0.4049 -0.7734 -0.4709
  162MOL0     H21360   6.116   4.435   8.307  0.9964  0.6700  0.4017
  162MOL0     H21361   6.076   4.603   8.261 -3.3146  0.2383 -2.9596
  162MOL0     H21362   6.259   4.432   8.069  0.8420  0.3488  0.1820
  162MOL0     H21363   6.232   4.608   8.069 -1.6108 -1.1183 -0.8209
  162MOL0     H21364   6.453   4.518   8.172  0.6629  0.8154  0.4798
  162MOL0     H21365   6.364   4.465   8.313  1.0187  0.2382  0.9997
  162MOL0     H21366   5.571   4.368   8.682 -1.5451 -0.5189  3.0808
  162MOL0     H21367   5.412   4.381   8.869 -0.7697  1.6365  1.4607
  162MOL0     H21368   5.178   4.432   9.119 -0.2757 -1.0895  1.7703
  162MOL0     H21369   5.071   4.389   9.336 -2.7170 -2.1897  0.1736
  162MOL0     H21370   5.779   3.971   8.758  0.4651 -3.8400 -1.9003
  162MOL0     H21371   5.615   3.905   8.584  0.1267  0.5324 -2.9246
  162MOL0     H21372   5.594   3.977   7.985  2.9536 -2.1923  1.8983
  162MOL0     H21373   5.405   3.897   7.834  1.5532 -1.1915  0.6311
  162MOL0     H21374   5.176   3.681   7.791  0.3609 -0.6099  1.2232
  162MOL0     H21375   5.231   3.852   7.737 -0.3049  0.2356  0.1382
  162MOL0     H21376   5.014   3.918   7.714 -1.4687 -0.4556 -0.0742
  162MOL0     H21377   5.023   3.768   7.629 -0.5719  2.0877 -0.6583
  162MOL0     H21378   4.810   3.813   7.758 -1.1627 -0.5933  0.7191
  162MOL0     H21379   4.885   3.802   7.909  3.8191 -0.3254  0.2825
  162MOL0     H21380   4.790   3.569   7.810 -0.8598 -1.0066 -0.7521
  162MOL0     H21381   4.899   3.583   7.695  1.2048 -1.7261  1.2311
  162MOL0     H21382   5.141   3.436   8.023 -0.1750  1.0240  1.2025
  162MOL0     H21383   5.145   3.884   8.173  1.0944 -1.7208  0.8435
  162MOL0     H21384   5.322   3.935   8.321  0.5306 -1.0400  0.1308
  163MOL0     O21385   3.774   7.830  10.462 -0.1646 -0.3868 -0.1746
  163MOL0     C21386   3.810   7.899  10.366  0.5317 -1.0172  0.3519
  163MOL0     O21387   3.750   8.014  10.325  1.1403  0.4172  0.2304
  163MOL0     C21388   3.643   8.068  10.396  0.0302 -0.3938 -0.2766
  163MOL0     C21389   3.558   8.004  10.497  0.4678  0.2960 -0.9058
  163MOL0     C21390   3.448   8.075  10.545 -0.4581 -0.4708  0.0760
  163MOL0     C21391   3.417   8.205  10.507 -0.1921  0.1488  0.0534
  163MOL0     O21392   3.304   8.274  10.540 -0.4245  0.1163 -0.0026
  163MOL0     C21393   3.185   8.207  10.550 -0.4511  0.8534  0.8691
  163MOL0     C21394   3.062   8.285  10.507  0.1043  0.8603  0.2131
  163MOL0     C21395   2.946   8.179  10.507  1.1419  0.2299 -0.2546
  163MOL0     C21396   2.813   8.256  10.451 -0.9050  0.7476 -0.6144
  163MOL0     C21397   2.683   8.178  10.466 -0.1923 -0.2709  0.4308
  163MOL0     C21398   2.676   8.051  10.385  0.6710 -0.1401  0.0950
  163MOL0     C21399   2.549   7.966  10.418  0.2922  0.0691  0.2623
  163MOL0     C21400   2.418   8.036  10.374 -1.2742  0.1880 -0.6315
  163MOL0     N21401   2.296   7.956  10.392  0.1245 -0.1421  0.1592
  163MOL0     C21402   2.230   7.960  10.512  0.7632  0.1904  0.8730
  163MOL0     C21403   2.117   7.890  10.501  0.0584 -0.9437 -0.6784
  163MOL0     C21404   2.000   7.860  10.600 -0.3956  0.0682  0.3571
  163MOL0     C21405   1.891   7.955  10.564 -0.7647  0.0024  0.5828
  163MOL0     C21406   1.755   7.909  10.618  0.3122 -0.6223 -0.2153
  163MOL0     C21407   1.638   7.965  10.534  0.9688 -0.0852 -0.0795
  163MOL0     O21408   1.520   7.890  10.573  0.3740 -0.4196 -0.2268
  163MOL0     C21409   1.402   7.912  10.520  0.5069  0.9180  0.6730
  163MOL0     C21410   1.309   7.814  10.552 -0.3798  0.4230 -0.0225
  163MOL0     C21411   1.168   7.838  10.525 -0.8237 -0.5474  0.0815
  163MOL0     C21412   1.129   7.951  10.445  0.2454  0.1738 -1.0512
  163MOL0     C21413   0.990   7.966  10.408 -0.2071 -1.0112  1.6431
  163MOL0     O21414   0.901   7.873  10.460 -0.3216 -0.1227  0.5458
  163MOL0     C21415   0.772   7.880  10.405 -0.7026 -0.2862 -0.5971
  163MOL0     C21416   0.743   7.909  10.275 -0.0482  0.4964  0.2260
  163MOL0     C21417   0.609   7.916  10.220 -0.2014  0.3988 -0.1866
  163MOL0     C21418   0.509   7.874  10.302 -0.1929  0.2179  0.1780
  163MOL0     O21419   0.376   7.873  10.263  0.1402  0.2472 -0.3000
  163MOL0     C21420   0.300   7.746  10.269 -0.3364 -0.3837  0.6388
  163MOL0     C21421   0.153   7.777  10.286  0.5135  0.1519  0.0502
  163MOL0     C21422   0.068   7.653  10.260  0.2617 -0.6114  0.0476
  163MOL0     C21423  -0.056   7.692  10.186  1.1626  0.8000  0.0074
  163MOL0     C21424  -0.162   7.582  10.186  0.7369  0.2322 -0.0004
  163MOL0     C21425  -0.128   7.445  10.124 -0.4348 -0.4915 -0.2228
  163MOL0     C21426  -0.239   7.346  10.145  0.7604  0.7069 -0.3548
  163MOL0     C21427  -0.210   7.195  10.125 -0.0610 -0.7639  0.3593
  163MOL0    Cl21428  -0.354   7.092  10.159 -0.0622  0.4907 -0.2716
  163MOL0     C21429   0.536   7.828  10.433 -0.3075 -0.2714  0.1361
  163MOL0     C21430   0.666   7.833  10.485 -0.4220 -0.7028  0.0857
  163MOL0     O21431   0.974   8.056  10.316 -1.0405  1.0245 -0.6468
  163MOL0     C21432   1.233   8.049  10.403 -0.3352 -0.3467 -0.5472
  163MOL0     C21433   1.368   8.026  10.438  0.0029 -0.4254  0.3766
  163MOL0     N21434   2.118   7.856  10.366  0.2619 -0.2559  0.3609
  163MOL0     N21435   2.223   7.900  10.298 -0.1525  0.2656  0.0782
  163MOL0     C21436   3.497   8.268  10.420 -0.4805  0.8326  0.2641
  163MOL0     C21437   3.613   8.200  10.361  0.0597 -0.5650  0.4405
  163MOL0     C21438   3.926   7.846  10.295  0.3129 -0.5996  0.8917
  163MOL0     C21439   3.994   7.938  10.211 -0.2445 -0.7378 -0.4562
  163MOL0     C21440   4.103   7.903  10.130  1.1448 -0.0157  0.5815
  163MOL0     C21441   4.135   7.762  10.117  0.5132 -0.3053  0.9175
  163MOL0     O21442   4.249   7.717  10.051  0.1697  0.0783 -0.5223
  163MOL0     C21443   4.336   7.810   9.980  0.2510 -0.1708 -0.3378
  163MOL0     C21444   4.441   7.867  10.071  0.2866 -0.9639 -0.1767
  163MOL0     C21445   4.548   7.952   9.990  0.6995  0.2958 -0.5258
  163MOL0     C21446   4.632   8.047  10.079  0.2882 -0.1363 -0.2947
  163MOL0     C21447   4.559   8.138  10.163  0.4140 -0.8756  1.0829
  163MOL0     C21448   4.494   8.212  10.231  0.6865 -0.1459  0.4480
  163MOL0     C21449   4.066   7.665  10.192 -0.0091 -0.5056 -0.6848
  163MOL0     C21450   3.960   7.705  10.278 -0.3396  0.7277  0.3984
  163MOL0     H21451   3.566   7.903  10.538  1.3029 -0.4057 -2.6792
  163MOL0     H21452   3.380   8.003  10.591 -0.6755 -0.7570 -0.6679
  163MOL0     H21453   3.161   8.159  10.645 -2.3088 -0.7216 -0.3121
  163MOL0     H21454   3.188   8.119  10.485  0.1934  0.9567  0.7572
  163MOL0     H21455   3.066   8.329  10.407  2.8478  1.5166  0.5295
  163MOL0     H21456   3.046   8.364  10.580 -2.4735 -2.6276  3.8275
  163MOL0     H21457   2.926   8.132  10.604 -0.5006 -0.6159 -0.9536
  163MOL0     H21458   2.972   8.096  10.441  1.7482 -0.0110  0.2736
  163MOL0     H21459   2.818   8.352  10.504  4.0456  1.5346 -1.9699
  163MOL0     H21460   2.832   8.263  10.344  1.6043 -1.6285 -0.4626
  163MOL0     H21461   2.602   8.246  10.437  0.1999  1.1259  2.3921
  163MOL0     H21462   2.691   8.153  10.572  1.8504 -1.6102  0.0084
  163MOL0     H21463   2.767   7.990  10.393  0.0419 -0.8913  2.5159
  163MOL0     H21464   2.672   8.082  10.280 -1.3049  0.2646  0.2535
  163MOL0     H21465   2.555   7.869  10.368  0.7710 -0.6062  1.6100
  163MOL0     H21466   2.555   7.946  10.525  2.2529 -4.0239 -0.4371
  163MOL0     H21467   2.428   8.074  10.272 -1.3609 -2.7153 -1.7989
  163MOL0     H21468   2.408   8.120  10.444 -0.7841 -1.1694  1.1215
  163MOL0     H21469   2.260   8.019  10.598 -1.0799  0.0545  1.6432
  163MOL0     H21470   2.035   7.891  10.698  0.2301 -0.4867  0.3147
  163MOL0     H21471   1.982   7.752  10.608  2.7423 -0.4794  1.4416
  163MOL0     H21472   1.891   7.966  10.455  1.1699  0.3752  0.5900
  163MOL0     H21473   1.915   8.055  10.603 -0.1819 -0.5812  1.7691
  163MOL0     H21474   1.756   7.800  10.627 -0.7597 -0.4949  2.0185
  163MOL0     H21475   1.743   7.943  10.721  1.0705 -0.1168 -0.2858
  163MOL0     H21476   1.652   7.948  10.427  1.3782  0.4956 -0.1268
  163MOL0     H21477   1.627   8.073  10.549  1.3722  0.4168 -2.8145
  163MOL0     H21478   1.343   7.731  10.613  1.2660  0.4763 -0.8105
  163MOL0     H21479   1.093   7.767  10.557 -1.5789  1.0802  2.1332
  163MOL0     H21480   0.819   7.934  10.201 -1.2415  1.1279 -0.8241
  163MOL0     H21481   0.595   7.939  10.115  0.6134 -2.7530 -1.0876
  163MOL0     H21482   0.347   7.693  10.353  1.0838 -0.2581 -0.0466
  163MOL0     H21483   0.320   7.690  10.177  0.5084 -0.7221  1.0162
  163MOL0     H21484   0.135   7.846  10.203  2.4614 -1.7808 -2.1458
  163MOL0     H21485   0.125   7.814  10.385  0.5877  0.1953  0.0554
  163MOL0     H21486   0.043   7.613  10.358  0.7815  3.1491  1.9055
  163MOL0     H21487   0.126   7.579  10.204  3.0684 -0.2139  2.2186
  163MOL0     H21488  -0.110   7.769  10.241  2.2108 -0.5429  3.1154
  163MOL0     H21489  -0.047   7.713  10.079 -0.9628  1.4203 -0.0796
  163MOL0     H21490  -0.250   7.618  10.132  1.4171  2.1805  0.0806
  163MOL0     H21491  -0.204   7.581  10.287 -0.6808  0.6240 -0.5615
  163MOL0     H21492  -0.042   7.391  10.166  0.2620  0.5541 -0.2706
  163MOL0     H21493  -0.108   7.465  10.018 -2.2947 -2.7656 -1.0995
  163MOL0     H21494  -0.252   7.352  10.253  0.7763 -2.1464 -0.1233
  163MOL0     H21495  -0.332   7.374  10.095  0.4458 -0.4598 -0.4536
  163MOL0     H21496  -0.131   7.168  10.195 -1.4629 -1.2347  1.8021
  163MOL0     H21497  -0.183   7.191  10.019  0.1962  3.9807 -0.0043
  163MOL0     H21498   0.457   7.803  10.503  2.7889 -2.2869  3.2306
  163MOL0     H21499   0.699   7.810  10.586  1.1545 -1.0502 -0.4856
  163MOL0     H21500   1.200   8.137  10.349 -2.3419 -0.0233  1.0931
  163MOL0     H21501   1.439   8.102  10.409  0.1144 -0.9703 -0.8435
  163MOL0     H21502   3.471   8.367  10.387  1.6452  1.6946  0.9888
  163MOL0     H21503   3.668   8.265  10.294  1.6728 -1.4658  0.8386
  163MOL0     H21504   3.963   8.041  10.200 -1.7586 -1.1040  0.1649
  163MOL0     H21505   4.150   7.987  10.080  0.0735  1.6956  2.2822
  163MOL0     H21506   4.286   7.892   9.928 -2.3743 -1.3517  0.1436
  163MOL0     H21507   4.372   7.743   9.902  0.3250  1.1818 -1.4997
  163MOL0     H21508   4.389   7.912  10.156 -2.3590 -1.2388 -1.5574
  163MOL0     H21509   4.501   7.781  10.103  0.2560 -0.1323  2.3430
  163MOL0     H21510   4.483   8.016   9.929 -2.1119  0.2074  2.1101
  163MOL0     H21511   4.613   7.899   9.921 -0.2578  1.3207 -2.2886
  163MOL0     H21512   4.695   7.989  10.148 -1.7082  0.6027  2.3168
  163MOL0     H21513   4.702   8.104  10.018 -1.7018  0.3573 -2.2174
  163MOL0     H21514   4.432   8.269  10.297  0.6828 -0.9520  1.1721
  163MOL0     H21515   4.098   7.562  10.182  1.6286 -0.0118 -0.9190
  163MOL0     H21516   3.900   7.630  10.328 -0.2895  1.9640  2.3993
  164MOL0     O21517   0.401   9.588  10.072  0.2425  0.5263 -0.4637
  164MOL0     C21518   0.478   9.493  10.084  0.2551  0.7016  0.1043
  164MOL0     O21519   0.437   9.366  10.077 -0.6853  0.5762  0.0279
  164MOL0     C21520   0.312   9.336  10.062  0.5439  0.1015 -0.0349
  164MOL0     C21521   0.268   9.256   9.955 -0.1326  0.2651 -0.1290
  164MOL0     C21522   0.134   9.208   9.957  0.7737  0.1065  0.3408
  164MOL0     C21523   0.044   9.236  10.060 -0.5929 -1.2102 -0.1724
  164MOL0     O21524  -0.083   9.193  10.043  0.6406 -0.3002  0.1565
  164MOL0     C21525  -0.178   9.184  10.160  0.7315 -0.0338  0.1531
  164MOL0     C21526  -0.312   9.116  10.134 -0.3502  0.4196  0.4137
  164MOL0     C21527  -0.286   8.967  10.090 -0.2553 -0.1440 -0.4841
  164MOL0     C21528  -0.419   8.903  10.101  0.2801 -0.4164 -0.0479
  164MOL0     C21529  -0.413   8.756  10.048  0.2293  0.6908 -1.2358
  164MOL0     C21530  -0.382   8.672  10.178 -0.8202 -0.2687  0.0315
  164MOL0     C21531  -0.339   8.526  10.152 -0.3984  0.5810  1.1962
  164MOL0     C21532  -0.436   8.436  10.069 -0.8425 -0.3768  0.2562
  164MOL0     N21533  -0.403   8.293  10.078  0.1160 -0.6785  0.5556
  164MOL0     C21534  -0.324   8.225   9.987 -0.1806 -0.8492 -0.3833
  164MOL0     C21535  -0.291   8.108  10.042 -0.4715 -0.4366  0.4393
  164MOL0     C21536  -0.204   7.999   9.991  0.7386  0.6683 -0.0262
  164MOL0     C21537  -0.062   8.020  10.015 -0.1947  0.6684 -0.3025
  164MOL0     C21538  -0.011   8.130   9.928 -0.9221 -0.8292 -0.0443
  164MOL0     C21539   0.140   8.109   9.905 -0.0720  0.2457  0.1984
  164MOL0     O21540   0.221   8.093  10.020  0.2328 -0.4305 -0.1231
  164MOL0     C21541   0.355   8.122  10.016 -0.2491  0.4499 -0.5759
  164MOL0     C21542   0.407   8.198  10.128 -0.0262 -0.2711  0.0344
  164MOL0     C21543   0.540   8.251  10.111  0.4382  0.0749 -0.0268
  164MOL0     C21544   0.624   8.198  10.005 -0.1868  0.6435 -0.2176
  164MOL0     C21545   0.775   8.228  10.011 -0.1767 -0.0765  0.6354
  164MOL0     O21546   0.821   8.306  10.112 -0.5964  0.4732  0.2016
  164MOL0     C21547   0.953   8.337  10.120 -0.0122  0.3002 -0.3900
  164MOL0     C21548   1.055   8.239  10.091  0.1805  0.1832  0.0230
  164MOL0     C21549   1.188   8.275  10.081  1.2676 -0.2392 -0.0620
  164MOL0     C21550   1.220   8.405  10.115 -0.8146  1.1960 -0.8829
  164MOL0     O21551   1.354   8.422  10.119  0.0407  0.5100  0.2943
  164MOL0     C21552   1.403   8.533  10.190 -0.6474 -0.0930  0.6659
  164MOL0     C21553   1.553   8.518  10.183  0.6843  0.4081 -0.5074
  164MOL0     C21554   1.608   8.381  10.224 -0.6153  0.6781  0.5973
  164MOL0     C21555   1.757   8.368  10.186 -0.9867 -0.4561 -0.2192
  164MOL0     C21556   1.832   8.239  10.225 -0.4086 -0.6162 -0.0286
  164MOL0     C21557   1.984   8.259  10.195  0.1905  0.1641 -0.5039
  164MOL0     C21558   2.055   8.318  10.310  0.3114  0.0306  0.5060
  164MOL0     C21559   2.202   8.358  10.258  0.7210  0.6738 -0.3966
  164MOL0    Cl21560   2.303   8.382  10.407  0.2485  0.1697  0.1561
  164MOL0     C21561   1.123   8.500  10.155  0.5235  0.4925 -1.1267
  164MOL0     C21562   0.990   8.468  10.159 -0.3980  1.2331 -0.2725
  164MOL0     O21563   0.834   8.210   9.899 -0.2940  0.1389  0.5712
  164MOL0     C21564   0.570   8.123   9.902  0.0546  0.4629  0.0116
  164MOL0     C21565   0.435   8.091   9.913 -0.6485  0.2274  0.4969
  164MOL0     N21566  -0.347   8.101  10.166  0.7116 -0.3828 -1.2055
  164MOL0     N21567  -0.413   8.210  10.191  0.7818  0.1757 -0.0878
  164MOL0     C21568   0.092   9.314  10.168 -0.0104 -0.7403  0.2344
  164MOL0     C21569   0.222   9.358  10.168 -0.4638 -0.0296  0.3931
  164MOL0     C21570   0.616   9.524  10.106 -0.8815  0.5474 -0.7451
  164MOL0     C21571   0.708   9.423  10.119 -0.1794  0.4103  0.8757
  164MOL0     C21572   0.843   9.453  10.121  0.0331  0.9594 -0.9688
  164MOL0     C21573   0.897   9.582  10.119  0.0210  1.2296 -0.2807
  164MOL0     O21574   1.032   9.605  10.125  0.0324  0.4510  0.4798
  164MOL0     C21575   1.110   9.724  10.077 -0.0393  0.5480 -0.0913
  164MOL0     C21576   1.131   9.798  10.205 -0.1513 -0.4030  0.3709
  164MOL0     C21577   1.219   9.917  10.165  0.6342 -0.0961 -0.2859
  164MOL0     C21578   1.234  10.023  10.275 -0.1588 -0.8541 -0.7309
  164MOL0     C21579   1.273   9.985  10.410 -0.3668 -0.3628  0.2332
  164MOL0     C21580   1.316   9.956  10.519 -0.5928 -0.5645 -0.6784
  164MOL0     C21581   0.810   9.684  10.110  0.4482 -0.3037 -0.6855
  164MOL0     C21582   0.663   9.657  10.096 -0.4144  0.1187  0.3060
  164MOL0     H21583   0.340   9.239   9.875  1.6849  0.0277  1.4776
  164MOL0     H21584   0.096   9.152   9.872 -0.5094  0.4498  0.6722
  164MOL0     H21585  -0.192   9.283  10.202 -1.1452 -0.3513  0.3510
  164MOL0     H21586  -0.136   9.135  10.248 -2.2740 -2.7587  0.2604
  164MOL0     H21587  -0.373   9.163  10.057  1.2995  1.5102 -0.2675
  164MOL0     H21588  -0.373   9.123  10.225 -0.5859  6.8531  0.2036
  164MOL0     H21589  -0.222   8.925  10.168 -0.2745 -0.3884 -0.6008
  164MOL0     H21590  -0.246   8.951   9.990 -2.1090 -3.1409 -0.8797
  164MOL0     H21591  -0.451   8.898  10.205  2.3853 -1.0672  0.5998
  164MOL0     H21592  -0.494   8.953  10.038  1.0295 -1.4020 -1.8037
  164MOL0     H21593  -0.343   8.730   9.968  0.6581 -1.7809 -0.1364
  164MOL0     H21594  -0.510   8.714  10.019  1.6752 -1.7399 -2.9501
  164MOL0     H21595  -0.475   8.670  10.235 -2.5948  0.1420 -2.6896
  164MOL0     H21596  -0.306   8.724  10.236  0.1554 -1.0038 -0.5573
  164MOL0     H21597  -0.243   8.528  10.099 -0.1208 -2.5075  1.4286
  164MOL0     H21598  -0.311   8.485  10.250  2.8595  2.7107  1.3267
  164MOL0     H21599  -0.457   8.482   9.972 -3.8131  2.1190  1.9118
  164MOL0     H21600  -0.534   8.447  10.116 -0.1791  0.1994  1.5667
  164MOL0     H21601  -0.281   8.269   9.898 -2.0832  0.9821 -0.4688
  164MOL0     H21602  -0.227   7.984   9.885 -0.2720  1.9430 -0.0197
  164MOL0     H21603  -0.245   7.916  10.049 -0.8297  0.2725 -1.6071
  164MOL0     H21604  -0.018   7.921  10.003 -1.6160 -0.0568  0.2277
  164MOL0     H21605  -0.049   8.047  10.120 -1.4948  0.2081  0.0043
  164MOL0     H21606  -0.056   8.132   9.828  3.0692  2.7901 -2.1030
  164MOL0     H21607  -0.030   8.229   9.970  0.1436  0.8231 -3.1673
  164MOL0     H21608   0.191   8.175   9.835 -0.0535 -1.7179 -1.7596
  164MOL0     H21609   0.145   8.012   9.854  3.9729  0.9098 -1.0072
  164MOL0     H21610   0.347   8.228  10.213 -0.4029 -3.9994  1.2566
  164MOL0     H21611   0.589   8.314  10.185  1.7706  2.7704 -2.9578
  164MOL0     H21612   1.020   8.143  10.055 -2.0566  0.3825  1.4731
  164MOL0     H21613   1.263   8.207  10.043  0.3978 -0.4667 -1.4210
  164MOL0     H21614   1.369   8.550  10.292 -1.8598  1.9240 -0.0313
  164MOL0     H21615   1.370   8.628  10.149  2.0794  0.0674 -1.4710
  164MOL0     H21616   1.601   8.598  10.240 -1.8836  1.3048  0.5719
  164MOL0     H21617   1.577   8.524  10.077  0.8920  2.1414 -0.3968
  164MOL0     H21618   1.543   8.306  10.178 -0.4692 -0.2365  1.8390
  164MOL0     H21619   1.602   8.367  10.333 -0.8750 -2.9441  0.2493
  164MOL0     H21620   1.757   8.382  10.077  3.3787  4.0721  0.0080
  164MOL0     H21621   1.809   8.455  10.227 -3.4551  0.9162  0.2349
  164MOL0     H21622   1.799   8.163  10.153 -0.3875 -0.2654 -0.4120
  164MOL0     H21623   1.820   8.205  10.328  3.6785 -0.9640  0.4861
  164MOL0     H21624   1.986   8.321  10.105  0.7735  2.6140  1.0918
  164MOL0     H21625   2.015   8.156  10.174  0.9944  0.5518 -1.2769
  164MOL0     H21626   1.997   8.403  10.348  0.0220 -0.2817  0.7739
  164MOL0     H21627   2.056   8.253  10.398  0.2691  0.9668  1.2155
  164MOL0     H21628   2.202   8.451  10.200 -0.1991  3.4388  3.5758
  164MOL0     H21629   2.248   8.282  10.195 -0.4601  0.2780 -0.7903
  164MOL0     H21630   1.149   8.599  10.192  0.8382  0.0173 -0.0457
  164MOL0     H21631   0.919   8.547  10.181 -0.6139  0.7624  0.7585
  164MOL0     H21632   0.626   8.078   9.821 -0.2145  1.4716 -0.7440
  164MOL0     H21633   0.390   8.035   9.831  2.0668 -0.0831 -0.8882
  164MOL0     H21634   0.039   9.348  10.256  1.9748  1.3673  0.7377
  164MOL0     H21635   0.268   9.417  10.247 -1.4272  0.2002  0.7902
  164MOL0     H21636   0.673   9.321  10.107 -0.2366  0.4689  0.5423
  164MOL0     H21637   0.904   9.364  10.121  0.1751  1.0412  0.6341
  164MOL0     H21638   1.050   9.789  10.013  1.8603  1.3887 -1.0973
  164MOL0     H21639   1.202   9.699  10.023 -1.0672  1.3602 -2.3012
  164MOL0     H21640   1.035   9.830  10.245 -0.0807  0.8552 -0.3951
  164MOL0     H21641   1.181   9.747  10.288 -0.4843  1.4614  1.7952
  164MOL0     H21642   1.178   9.966  10.077 -1.7532 -1.9226 -0.2910
  164MOL0     H21643   1.320   9.875  10.156  0.4127 -1.1098  1.4288
  164MOL0     H21644   1.301  10.104  10.244 -0.9450  1.1150  2.2398
  164MOL0     H21645   1.137  10.074  10.272 -0.7761 -1.9949 -0.6972
  164MOL0     H21646   1.353   9.927  10.615 -2.1499 -0.0253  0.1252
  164MOL0     H21647   0.848   9.786  10.114  2.4854 -1.0302 -0.1423
  164MOL0     H21648   0.597   9.737  10.065 -1.9426 -0.9948  0.5415
  165MOL0     O21649  10.072   7.477   9.435 -0.0316  0.7972 -0.4446
  165MOL0     C21650  10.136   7.414   9.348 -0.2854 -0.6076 -0.9980
  165MOL0     O21651  10.124   7.280   9.327 -0.1685 -0.3797  0.0702
  165MOL0     C21652  10.037   7.217   9.411 -0.4040 -0.2185 -0.1616
  165MOL0     C21653   9.903   7.189   9.380  0.7779  0.8581  0.9440
  165MOL0     C21654   9.823   7.118   9.467  0.2295 -0.6684 -0.4659
  165MOL0     C21655   9.870   7.084   9.593 -0.4692  0.7331 -0.0296
  165MOL0     O21656   9.780   7.016   9.676 -0.8850 -0.3880  0.4332
  165MOL0     C21657   9.786   7.035   9.815  0.5409 -0.8684  0.0971
  165MOL0     C21658   9.825   6.903   9.884  0.1752 -1.0431 -0.6766
  165MOL0     C21659   9.692   6.825   9.938  0.1365  0.3354 -0.5117
  165MOL0     C21660   9.727   6.705  10.020 -0.3846 -1.0448 -0.2877
  165MOL0     C21661   9.618   6.683  10.127  0.7166 -0.4352  0.5933
  165MOL0     C21662   9.488   6.643  10.059 -0.5438 -0.6055  0.5639
  165MOL0     C21663   9.389   6.611  10.175 -0.2496 -0.9473  0.6019
  165MOL0     C21664   9.283   6.506  10.116  0.1462 -0.2484 -0.1478
  165MOL0     N21665   9.167   6.483  10.198  0.7182  0.4031  0.8536
  165MOL0     C21666   9.056   6.564  10.207 -0.2547 -0.4144 -0.7579
  165MOL0     C21667   8.984   6.526  10.319  0.3494 -0.3100  0.8965
  165MOL0     C21668   8.861   6.583  10.375 -0.4964  0.1311 -0.2435
  165MOL0     C21669   8.740   6.506  10.341  0.6202 -1.0123 -0.3957
  165MOL0     C21670   8.609   6.583  10.373  0.1166 -0.0292  0.6696
  165MOL0     C21671   8.490   6.504  10.311  0.6887 -0.7629 -0.1520
  165MOL0     O21672   8.378   6.545  10.390 -0.4568 -0.8192 -0.3624
  165MOL0     C21673   8.260   6.518  10.332 -0.1398 -0.2772  0.0387
  165MOL0     C21674   8.139   6.571  10.385 -0.2237  0.0804  0.0182
  165MOL0     C21675   8.018   6.545  10.333 -0.0253 -0.1690  0.2762
  165MOL0     C21676   8.010   6.460  10.219  0.2810  0.0634 -0.2040
  165MOL0     C21677   7.881   6.445  10.147 -0.3040  0.3152  0.0116
  165MOL0     O21678   7.889   6.408  10.009 -0.0081  0.1932  0.4044
  165MOL0     C21679   7.770   6.388   9.934  0.3702 -0.4883  0.0403
  165MOL0     C21680   7.651   6.462   9.939  0.3530 -0.4375  0.1362
  165MOL0     C21681   7.539   6.421   9.864 -0.3052 -1.2910 -0.9028
  165MOL0     C21682   7.535   6.305   9.787  0.2254  0.3692  0.5746
  165MOL0     O21683   7.418   6.249   9.737  0.2479  0.3839 -0.7014
  165MOL0     C21684   7.317   6.346   9.701 -0.0540  0.5820 -0.5900
  165MOL0     C21685   7.209   6.250   9.641  0.8003 -0.3970 -0.6946
  165MOL0     C21686   7.133   6.171   9.744 -0.5850  0.4709 -0.0958
  165MOL0     C21687   7.013   6.099   9.678  0.7581 -0.2337 -0.8558
  165MOL0     C21688   6.964   5.980   9.765 -0.5343 -0.0032  0.3524
  165MOL0     C21689   6.914   6.030   9.897  0.5836  0.0143 -0.4238
  165MOL0     C21690   6.796   6.129   9.896  0.3188 -0.2757  0.0637
  165MOL0     C21691   6.678   6.075   9.818  0.0952  0.4064  0.0802
  165MOL0    Cl21692   6.542   6.188   9.810  0.3301 -0.4374 -0.3716
  165MOL0     C21693   7.647   6.231   9.787  0.7455 -0.0878 -0.5006
  165MOL0     C21694   7.762   6.274   9.857 -0.0330 -0.1099  1.1517
  165MOL0     O21695   7.777   6.478  10.200  0.7415 -0.7234  0.4936
  165MOL0     C21696   8.120   6.406  10.161 -0.3822 -0.5836 -0.0312
  165MOL0     C21697   8.243   6.422  10.225  0.1336 -0.3911 -0.2336
  165MOL0     N21698   9.051   6.424  10.383  1.2896 -0.0529  0.5498
  165MOL0     N21699   9.171   6.411  10.314  0.6900  0.0150 -0.5902
  165MOL0     C21700  10.003   7.121   9.630 -0.2374  0.5534  0.2678
  165MOL0     C21701  10.083   7.181   9.539  0.6095  0.1608  0.0856
  165MOL0     C21702  10.244   7.480   9.272  0.2134  0.8581 -0.2627
  165MOL0     C21703  10.303   7.597   9.322 -0.7329 -0.7865  0.9687
  165MOL0     C21704  10.422   7.651   9.255  0.2530  0.0980 -0.2983
  165MOL0     C21705  10.479   7.594   9.140 -0.2813 -0.1207  0.5095
  165MOL0     O21706  10.589   7.638   9.068  0.6724 -0.1807  0.1166
  165MOL0     C21707  10.689   7.719   9.127  0.3176  0.8305  0.2763
  165MOL0     C21708  10.823   7.663   9.081 -1.3968  0.5793 -0.3790
  165MOL0     C21709  10.935   7.760   9.138  0.1852 -0.2201  0.7471
  165MOL0     C21710  11.077   7.731   9.101 -1.8886 -0.3108  0.8216
  165MOL0     C21711  11.094   7.738   8.949 -0.3496  0.1839 -0.9850
  165MOL0     C21712  11.095   7.744   8.828 -1.0106  0.2219 -0.7360
  165MOL0     C21713  10.397   7.497   9.078 -1.5141 -0.1772  0.7429
  165MOL0     C21714  10.293   7.435   9.145  0.2838 -0.7197 -0.2154
  165MOL0     H21715   9.867   7.214   9.281  2.6605  0.2604  0.0636
  165MOL0     H21716   9.718   7.099   9.447 -0.3025 -0.8230  2.0900
  165MOL0     H21717   9.680   7.053   9.835  0.7149  0.4414 -0.0940
  165MOL0     H21718   9.838   7.130   9.833 -1.5797  0.6906 -1.4552
  165MOL0     H21719   9.890   6.929   9.968 -3.4844 -0.8091  2.3464
  165MOL0     H21720   9.877   6.841   9.810 -0.0488  0.8451 -2.5042
  165MOL0     H21721   9.632   6.797   9.852  2.4234 -2.4883 -1.3441
  165MOL0     H21722   9.640   6.898  10.001 -0.5853 -0.3149 -0.3441
  165MOL0     H21723   9.725   6.618   9.953  2.2303 -1.5670  0.1881
  165MOL0     H21724   9.823   6.707  10.072 -0.4752 -2.4848  0.0003
  165MOL0     H21725   9.607   6.759  10.205 -0.1341 -1.3218  1.3576
  165MOL0     H21726   9.655   6.601  10.188 -1.1438 -1.0149  0.9902
  165MOL0     H21727   9.493   6.560   9.988 -0.8416 -1.8263  1.9230
  165MOL0     H21728   9.448   6.731  10.007 -2.0232 -0.1763  2.3146
  165MOL0     H21729   9.432   6.567  10.266 -2.0889 -5.2357 -0.3401
  165MOL0     H21730   9.341   6.707  10.195  0.4266  0.7166 -4.5286
  165MOL0     H21731   9.340   6.413  10.105  0.2818 -0.4773  2.0366
  165MOL0     H21732   9.249   6.554  10.024 -0.7453  1.6942  1.1434
  165MOL0     H21733   9.028   6.645  10.140 -1.3699 -2.2642 -2.6482
  165MOL0     H21734   8.850   6.685  10.335 -4.8443  0.0850  0.3828
  165MOL0     H21735   8.872   6.606  10.481 -1.0317 -1.1569  0.1028
  165MOL0     H21736   8.742   6.419  10.407  1.7256 -0.1513  0.7769
  165MOL0     H21737   8.743   6.466  10.239  1.6299  1.1452 -1.2877
  165MOL0     H21738   8.594   6.608  10.478  0.0653  0.8448  0.4674
  165MOL0     H21739   8.604   6.683  10.329 -2.0625  0.4952  1.9573
  165MOL0     H21740   8.503   6.397  10.329 -4.5655 -1.5263  0.5422
  165MOL0     H21741   8.478   6.528  10.204 -3.0617 -0.9380  0.1063
  165MOL0     H21742   8.147   6.634  10.474  1.2517  0.6554 -0.4876
  165MOL0     H21743   7.930   6.579  10.387  1.3418  0.5763  2.1030
  165MOL0     H21744   7.640   6.548  10.004  1.2655 -0.9403  0.9901
  165MOL0     H21745   7.452   6.482   9.889  0.1138 -1.8769  2.5566
  165MOL0     H21746   7.348   6.428   9.634 -1.9049  1.6027 -0.2550
  165MOL0     H21747   7.287   6.396   9.794 -0.4195  1.0844 -0.9724
  165MOL0     H21748   7.232   6.194   9.549 -3.8930 -2.2375 -1.0006
  165MOL0     H21749   7.147   6.336   9.614  1.6913  0.2876 -0.6105
  165MOL0     H21750   7.102   6.230   9.830 -1.4218 -0.0959  0.0088
  165MOL0     H21751   7.198   6.093   9.787 -1.9913 -0.7649 -0.1232
  165MOL0     H21752   6.937   6.172   9.652  0.1540 -0.1692  0.9820
  165MOL0     H21753   7.039   6.064   9.578  2.6144  2.9182 -1.6179
  165MOL0     H21754   7.049   5.914   9.782 -0.9372 -0.7120 -0.3038
  165MOL0     H21755   6.887   5.923   9.713 -0.8388 -2.0318  2.8375
  165MOL0     H21756   6.987   6.083   9.960  0.0469  2.0648 -1.4171
  165MOL0     H21757   6.880   5.940   9.949  0.1840 -0.5485 -1.6215
  165MOL0     H21758   6.768   6.146  10.001  1.2574 -1.5904  0.5573
  165MOL0     H21759   6.826   6.231   9.871 -0.2000  0.3907  1.9844
  165MOL0     H21760   6.646   5.981   9.864 -3.0819  0.8450 -0.9585
  165MOL0     H21761   6.708   6.045   9.718 -1.6085 -1.4945  0.0884
  165MOL0     H21762   7.635   6.146   9.721  2.2647  1.0331 -2.3188
  165MOL0     H21763   7.855   6.220   9.839 -0.3544 -0.1705 -0.5143
  165MOL0     H21764   8.106   6.341  10.075 -0.3448  2.6701 -2.6936
  165MOL0     H21765   8.322   6.355  10.192 -0.0453  0.1577 -1.8522
  165MOL0     H21766  10.046   7.098   9.726 -0.1764  1.0283  0.3586
  165MOL0     H21767  10.184   7.209   9.567  1.8672 -3.1667 -0.6568
  165MOL0     H21768  10.279   7.642   9.418  1.2554  0.9552  0.7121
  165MOL0     H21769  10.467   7.733   9.310  0.1740 -0.2764  0.3394
  165MOL0     H21770  10.672   7.737   9.233 -1.0892 -0.1577  0.2428
  165MOL0     H21771  10.678   7.820   9.085 -1.5627  0.5906  0.1087
  165MOL0     H21772  10.844   7.563   9.120 -0.3036  0.4154 -1.3286
  165MOL0     H21773  10.832   7.660   8.972  0.7908  0.6844 -0.2502
  165MOL0     H21774  10.920   7.778   9.245 -4.3222 -0.5519  0.3528
  165MOL0     H21775  10.913   7.857   9.091 -2.1568 -1.2166 -0.3524
  165MOL0     H21776  11.133   7.810   9.152  2.1164 -2.5049  0.2750
  165MOL0     H21777  11.095   7.631   9.143  1.8842 -0.3335 -0.5062
  165MOL0     H21778  11.093   7.745   8.721 -0.1576 -1.0832 -0.7786
  165MOL0     H21779  10.424   7.464   8.978  2.4663 -2.3329  2.2933
  165MOL0     H21780  10.242   7.348   9.102 -2.8077  0.2998  1.0966
  166MOL0     O21781   7.753   5.117   5.048 -0.3147 -0.1658 -0.3819
  166MOL0     C21782   7.687   5.214   5.012  0.5471 -0.7559 -1.1102
  166MOL0     O21783   7.741   5.336   4.972 -0.1713 -0.1881 -0.3586
  166MOL0     C21784   7.873   5.352   4.977  0.3559 -0.0704  1.7960
  166MOL0     C21785   7.921   5.442   5.065 -0.0844 -0.1184  0.1924
  166MOL0     C21786   8.056   5.462   5.073  0.3364 -0.1785 -0.2548
  166MOL0     C21787   8.147   5.402   4.986 -0.1895  0.0236  0.0979
  166MOL0     O21788   8.282   5.430   4.973  0.5773 -1.1960 -0.8823
  166MOL0     C21789   8.343   5.449   5.101  0.3919 -0.5122  0.6454
  166MOL0     C21790   8.491   5.414   5.087 -0.3329 -0.7236  0.4451
  166MOL0     C21791   8.567   5.504   4.993 -0.5532  0.1607  0.2516
  166MOL0     C21792   8.724   5.484   5.010  0.6854 -0.0929 -0.2201
  166MOL0     C21793   8.805   5.571   4.909  0.3464  0.1541  0.4374
  166MOL0     C21794   8.954   5.525   4.937  0.0514 -0.4526 -0.7877
  166MOL0     C21795   9.057   5.639   4.892  0.1547  0.5288 -0.9433
  166MOL0     C21796   9.203   5.595   4.917  0.0592  1.1702  0.7207
  166MOL0     N21797   9.236   5.461   4.864  0.2385  0.4420 -0.0675
  166MOL0     C21798   9.232   5.339   4.932 -0.1150 -0.7804  0.2464
  166MOL0     C21799   9.277   5.247   4.849 -0.6578  0.3701 -0.3051
  166MOL0     C21800   9.276   5.092   4.887  1.0376  0.0835  0.2009
  166MOL0     C21801   9.138   5.028   4.924  0.2685 -0.0511  1.2416
  166MOL0     C21802   9.041   5.055   4.805 -0.3174  0.5755  0.0623
  166MOL0     C21803   8.925   4.963   4.805  0.8203 -0.7404  0.2641
  166MOL0     O21804   8.820   5.003   4.902 -0.3905  0.1867 -0.1171
  166MOL0     C21805   8.695   4.987   4.854  1.1377  0.3934 -0.3916
  166MOL0     C21806   8.645   4.865   4.809  0.0651 -0.7909 -0.0000
  166MOL0     C21807   8.513   4.835   4.796 -0.3847 -0.0019 -0.4572
  166MOL0     C21808   8.416   4.935   4.813  0.1908 -0.6443  0.0332
  166MOL0     C21809   8.274   4.914   4.780 -0.8907 -0.0622 -0.7048
  166MOL0     O21810   8.244   4.806   4.695 -0.1561  0.1851 -0.7162
  166MOL0     C21811   8.112   4.773   4.662  0.0799  0.0796  0.4541
  166MOL0     C21812   8.011   4.767   4.758 -0.0527  0.4502 -0.6795
  166MOL0     C21813   7.896   4.722   4.727  0.0206 -0.3174  0.7611
  166MOL0     C21814   7.851   4.690   4.600 -0.0793 -0.3032 -0.2241
  166MOL0     O21815   7.732   4.640   4.589 -0.2825  0.1141 -0.1364
  166MOL0     C21816   7.691   4.598   4.461  0.1587 -0.2348 -0.0506
  166MOL0     C21817   7.557   4.529   4.481 -0.1395 -0.4589  0.5556
  166MOL0     C21818   7.482   4.519   4.350 -0.0067 -0.4822  0.5295
  166MOL0     C21819   7.350   4.440   4.348 -0.2481  0.5748 -0.9519
  166MOL0     C21820   7.257   4.450   4.469  0.2262 -1.0813  0.7878
  166MOL0     C21821   7.113   4.404   4.422 -1.0390 -0.3661  0.2651
  166MOL0     C21822   7.113   4.249   4.413 -0.3672  0.6809  0.0418
  166MOL0     C21823   6.965   4.204   4.375 -0.2267  0.1818 -0.0745
  166MOL0    Cl21824   6.964   4.029   4.429 -0.7330  0.2929 -0.2086
  166MOL0     C21825   7.951   4.699   4.498  0.2996  0.4149  0.5380
  166MOL0     C21826   8.083   4.733   4.533 -0.0361  0.1566 -0.4437
  166MOL0     O21827   8.186   4.980   4.834 -0.1642  0.1224 -0.0302
  166MOL0     C21828   8.461   5.065   4.867 -0.4026  0.3963  1.0009
  166MOL0     C21829   8.596   5.082   4.898 -0.0056  1.9097  0.4715
  166MOL0     N21830   9.317   5.305   4.726  0.9942  0.3787 -0.1594
  166MOL0     N21831   9.292   5.434   4.741 -0.6720 -0.6021 -0.7580
  166MOL0     C21832   8.090   5.305   4.906  0.2410  0.5135  0.4979
  166MOL0     C21833   7.958   5.269   4.901 -0.1354  0.9444  0.3169
  166MOL0     C21834   7.549   5.184   4.979 -0.7611 -1.3523  0.2243
  166MOL0     C21835   7.497   5.053   4.962 -0.8862  0.2129 -0.0922
  166MOL0     C21836   7.366   5.042   4.918 -0.8081  0.2065  0.6636
  166MOL0     C21837   7.281   5.156   4.913 -0.5570  0.5255  0.5845
  166MOL0     O21838   7.151   5.130   4.868  0.5000  0.5009  0.3283
  166MOL0     C21839   7.068   5.242   4.841  0.4689  0.1542  0.5851
  166MOL0     C21840   6.964   5.259   4.954 -1.5643 -0.2317 -0.2682
  166MOL0     C21841   6.861   5.362   4.913 -0.6918  0.8275  0.4536
  166MOL0     C21842   6.776   5.420   5.012  0.4327 -0.0712  0.0044
  166MOL0     C21843   6.670   5.327   5.059  0.3812  0.0083  0.3711
  166MOL0     C21844   6.582   5.264   5.121  0.5168  0.2939 -0.4515
  166MOL0     C21845   7.325   5.274   4.957  0.6769  0.3201  0.6406
  166MOL0     C21846   7.457   5.288   4.992  0.3089  0.1953 -0.6561
  166MOL0     H21847   7.858   5.490   5.138 -2.5627 -1.5812 -0.8754
  166MOL0     H21848   8.092   5.526   5.152  0.8727 -2.4773  1.4596
  166MOL0     H21849   8.292   5.394   5.181 -0.4117 -2.2251 -0.9766
  166MOL0     H21850   8.332   5.556   5.119  0.1012 -0.7036  1.6419
  166MOL0     H21851   8.505   5.308   5.065 -4.8762 -1.5422  0.5787
  166MOL0     H21852   8.534   5.444   5.183  5.1943 -1.7163 -1.3570
  166MOL0     H21853   8.532   5.606   5.013 -1.3750  0.1279 -0.8779
  166MOL0     H21854   8.536   5.486   4.889  4.3753  0.4982 -1.5100
  166MOL0     H21855   8.751   5.497   5.115  1.8987 -0.5327 -0.4523
  166MOL0     H21856   8.738   5.379   4.984  0.4863 -0.7322  2.0297
  166MOL0     H21857   8.788   5.678   4.922 -0.8170 -0.0927  1.0595
  166MOL0     H21858   8.780   5.543   4.806  2.5572 -2.8098  0.5833
  166MOL0     H21859   8.978   5.427   4.894  0.2482 -0.6479 -0.2530
  166MOL0     H21860   8.973   5.527   5.045 -0.8453 -3.7870 -0.4461
  166MOL0     H21861   9.053   5.672   4.788  2.4811 -0.7685 -1.5334
  166MOL0     H21862   9.042   5.727   4.956  2.6287 -0.3505  1.0365
  166MOL0     H21863   9.222   5.589   5.024  2.0228  0.8476  0.3814
  166MOL0     H21864   9.258   5.671   4.862  0.1064 -0.1808 -1.2086
  166MOL0     H21865   9.205   5.321   5.035 -1.5590  3.0458  0.7049
  166MOL0     H21866   9.347   5.070   4.968  0.1445 -1.1298  0.6813
  166MOL0     H21867   9.311   5.031   4.803  1.8942 -2.8409  2.5293
  166MOL0     H21868   9.099   5.077   5.014 -1.2240 -1.1077  1.2043
  166MOL0     H21869   9.144   4.922   4.947 -3.1935 -0.8497 -0.7729
  166MOL0     H21870   9.004   5.157   4.797 -0.5234  0.4209 -1.1699
  166MOL0     H21871   9.096   5.026   4.715 -1.7071 -0.0001 -0.6447
  166MOL0     H21872   8.948   4.858   4.822 -0.1625 -1.7661 -3.7773
  166MOL0     H21873   8.878   4.957   4.707 -2.2146  0.0751  1.5375
  166MOL0     H21874   8.708   4.778   4.815 -1.2951 -1.8071  0.0296
  166MOL0     H21875   8.489   4.737   4.757 -1.4937 -1.3193  3.1946
  166MOL0     H21876   8.026   4.790   4.862 -1.6553 -1.3642  0.0072
  166MOL0     H21877   7.822   4.718   4.806  0.5204  0.5818  1.2918
  166MOL0     H21878   7.764   4.530   4.415  0.9334  0.7276 -0.2954
  166MOL0     H21879   7.684   4.673   4.381 -0.5649 -1.4770 -1.1852
  166MOL0     H21880   7.500   4.584   4.557  2.3000  1.3703  1.1835
  166MOL0     H21881   7.569   4.426   4.515 -1.1908 -0.9108 -0.3764
  166MOL0     H21882   7.552   4.466   4.284 -0.5055 -0.7855  0.2355
  166MOL0     H21883   7.468   4.619   4.308  2.1719  0.7426  2.5362
  166MOL0     H21884   7.295   4.470   4.259 -1.0078 -0.4817 -0.8615
  166MOL0     H21885   7.371   4.334   4.332  1.1652  0.7114 -0.1708
  166MOL0     H21886   7.251   4.553   4.505  0.5250 -0.1556 -1.6194
  166MOL0     H21887   7.307   4.388   4.545 -2.7051 -0.6017  3.2756
  166MOL0     H21888   7.093   4.451   4.325  0.2731  0.0044  0.1633
  166MOL0     H21889   7.024   4.425   4.483 -2.4281  1.2464 -2.1705
  166MOL0     H21890   7.191   4.206   4.350  1.7558  1.0372  2.2409
  166MOL0     H21891   7.148   4.223   4.514  3.2135  3.5308 -0.2551
  166MOL0     H21892   6.947   4.213   4.268  3.0876  1.9632 -0.5984
  166MOL0     H21893   6.885   4.262   4.422 -0.2832  0.6470 -0.7376
  166MOL0     H21894   7.919   4.681   4.396  1.4840 -1.6830  0.4623
  166MOL0     H21895   8.163   4.736   4.459 -0.5658 -2.5009 -1.2480
  166MOL0     H21896   8.389   5.141   4.895  0.2753  0.8419  1.6047
  166MOL0     H21897   8.633   5.173   4.943  4.6270  2.0788 -2.9778
  166MOL0     H21898   8.150   5.244   4.838 -0.3650  0.2557  0.1897
  166MOL0     H21899   7.911   5.192   4.840  2.2481 -0.2293 -0.1441
  166MOL0     H21900   7.554   4.961   4.966 -0.3866  0.5626  2.0727
  166MOL0     H21901   7.334   4.951   4.868 -0.0497  1.0111 -1.3688
  166MOL0     H21902   7.024   5.225   4.742 -0.6171 -0.0522  1.0879
  166MOL0     H21903   7.131   5.330   4.827 -1.2826  1.0800 -2.4637
  166MOL0     H21904   6.903   5.171   4.974 -1.5124 -0.7052 -2.0195
  166MOL0     H21905   7.016   5.289   5.045 -2.0240  3.0369 -0.9766
  166MOL0     H21906   6.801   5.317   4.833  0.9810 -1.1707  0.2122
  166MOL0     H21907   6.914   5.452   4.881 -1.5938  0.0862 -3.8019
  166MOL0     H21908   6.845   5.439   5.095 -0.4722 -2.2571  1.3319
  166MOL0     H21909   6.750   5.515   4.964 -1.2604 -0.6525 -0.2939
  166MOL0     H21910   6.523   5.186   5.166  1.2221 -0.3723 -0.6453
  166MOL0     H21911   7.267   5.365   4.962  1.0142  0.6312 -0.6528
  166MOL0     H21912   7.496   5.384   5.025  1.5842 -0.9177  1.2369
  167MOL0     O21913   4.499   3.151   6.316  0.8798  0.9055 -0.4334
  167MOL0     C21914   4.499   3.198   6.200 -0.0443  0.6816 -0.3443
  167MOL0     O21915   4.391   3.218   6.119  0.0144  0.6056  0.4371
  167MOL0     C21916   4.265   3.213   6.162 -0.5018 -0.3573  0.0335
  167MOL0     C21917   4.180   3.323   6.135  0.2054  1.1942 -0.0871
  167MOL0     C21918   4.051   3.330   6.183  0.1384  0.1388  0.0280
  167MOL0     C21919   3.997   3.229   6.268 -0.0593  0.4417 -0.1936
  167MOL0     O21920   3.879   3.223   6.338  0.3441 -0.6263 -0.9921
  167MOL0     C21921   3.773   3.275   6.263 -0.2810  0.1753 -0.3786
  167MOL0     C21922   3.646   3.295   6.347  0.0283 -0.0406 -0.0961
  167MOL0     C21923   3.683   3.378   6.473  0.3925 -0.3894  0.4600
  167MOL0     C21924   3.566   3.387   6.571  0.6455 -0.0759 -0.2509
  167MOL0     C21925   3.446   3.461   6.531 -0.2416 -0.3102 -0.0071
  167MOL0     C21926   3.350   3.477   6.651  0.9032  0.6569 -0.4320
  167MOL0     C21927   3.227   3.561   6.619  0.1463 -0.5315  0.0627
  167MOL0     C21928   3.179   3.628   6.745  0.8749  0.0765  0.3648
  167MOL0     N21929   3.256   3.744   6.773  0.9115 -0.7275 -0.6783
  167MOL0     C21930   3.382   3.769   6.738  0.2248  0.0318 -1.0558
  167MOL0     C21931   3.403   3.903   6.762 -0.5405  1.2590  0.1718
  167MOL0     C21932   3.531   3.983   6.730  0.2149 -0.3725  1.0548
  167MOL0     C21933   3.491   4.124   6.677  0.3061  0.4219  0.3736
  167MOL0     C21934   3.382   4.143   6.571 -0.4566  0.2014  0.3418
  167MOL0     C21935   3.409   4.055   6.442 -0.0462 -0.1867 -0.4779
  167MOL0     O21936   3.306   4.080   6.348 -0.5839  0.5430 -0.2499
  167MOL0     C21937   3.181   4.019   6.367 -0.4494  0.0232  0.2907
  167MOL0     C21938   3.163   3.906   6.450 -0.0673  0.8010  0.7925
  167MOL0     C21939   3.036   3.847   6.450 -0.5530 -0.3044  0.6280
  167MOL0     C21940   2.922   3.888   6.384  0.1670 -0.2505 -0.5582
  167MOL0     C21941   2.794   3.815   6.391  0.2476  0.3775  0.5054
  167MOL0     O21942   2.783   3.697   6.473  0.3955 -0.4154  0.0633
  167MOL0     C21943   2.676   3.610   6.471 -0.6693 -0.6257  0.0925
  167MOL0     C21944   2.564   3.612   6.382 -0.2375  0.1633 -1.2217
  167MOL0     C21945   2.451   3.522   6.400 -0.2025  0.1270 -1.2708
  167MOL0     C21946   2.453   3.422   6.502  0.9358  0.4477 -0.2684
  167MOL0     O21947   2.349   3.330   6.527 -0.2334  0.5440 -0.6963
  167MOL0     C21948   2.219   3.341   6.451  0.0864  0.0784 -0.2990
  167MOL0     C21949   2.122   3.231   6.472 -0.6408  0.0929 -0.7903
  167MOL0     C21950   2.044   3.217   6.600  0.8929  0.1159 -0.6411
  167MOL0     C21951   1.907   3.140   6.602  0.4418 -1.3309 -0.1156
  167MOL0     C21952   1.847   3.158   6.738 -0.3260  0.6577 -0.0487
  167MOL0     C21953   1.708   3.091   6.731  0.9075  1.0666 -0.1648
  167MOL0     C21954   1.717   2.937   6.760  0.1759 -0.1333  0.5544
  167MOL0     C21955   1.574   2.883   6.756  0.0547 -0.6842 -0.8024
  167MOL0    Cl21956   1.476   2.960   6.883 -0.3601  0.4148 -0.0849
  167MOL0     C21957   2.570   3.412   6.574  1.3295 -0.0909 -0.0985
  167MOL0     C21958   2.684   3.498   6.555 -0.1121 -0.1429  0.5093
  167MOL0     O21959   2.693   3.861   6.333  0.5371 -0.2253  0.0851
  167MOL0     C21960   2.947   3.993   6.294 -0.9901 -0.8369  0.8007
  167MOL0     C21961   3.082   4.062   6.281  0.7722 -0.3867 -0.2862
  167MOL0     N21962   3.290   3.951   6.829 -0.3972 -0.6740  0.1173
  167MOL0     N21963   3.196   3.855   6.828 -0.3900 -0.0993  0.0266
  167MOL0     C21964   4.079   3.116   6.286  0.2315 -0.5328  0.4623
  167MOL0     C21965   4.215   3.105   6.246  0.9924  0.3355 -1.1917
  167MOL0     C21966   4.629   3.208   6.138  0.0231  0.0163  0.6981
  167MOL0     C21967   4.648   3.299   6.027  0.2480  0.1597 -0.7097
  167MOL0     C21968   4.765   3.309   5.959  0.5486 -0.8485  0.0919
  167MOL0     C21969   4.878   3.229   6.001 -0.4741  0.4465 -0.0272
  167MOL0     O21970   4.991   3.231   5.934 -0.2288  0.2937 -0.2486
  167MOL0     C21971   4.990   3.248   5.794  0.2062  0.1813 -0.5463
  167MOL0     C21972   5.138   3.248   5.757 -0.0092 -0.2663  0.2103
  167MOL0     C21973   5.207   3.115   5.788  0.4034 -0.2609 -0.2911
  167MOL0     C21974   5.361   3.119   5.762 -0.3355 -0.0129 -1.2495
  167MOL0     C21975   5.433   3.213   5.855  0.2983  0.0559  0.6796
  167MOL0     C21976   5.472   3.305   5.922  0.6760  0.3009 -0.2267
  167MOL0     C21977   4.859   3.145   6.106  0.1253 -0.4654  0.1006
  167MOL0     C21978   4.740   3.131   6.173  0.4155  0.2867 -1.7058
  167MOL0     H21979   4.234   3.399   6.079  4.0398  0.6096  2.4176
  167MOL0     H21980   3.998   3.424   6.171  1.1743  0.7571  0.2713
  167MOL0     H21981   3.741   3.200   6.190 -0.7832  2.4244 -2.6142
  167MOL0     H21982   3.797   3.362   6.202  3.3159 -0.7105 -0.4604
  167MOL0     H21983   3.616   3.193   6.373  0.7207 -0.4778 -0.9428
  167MOL0     H21984   3.573   3.344   6.283  1.6733  1.7907 -0.6629
  167MOL0     H21985   3.714   3.478   6.442  0.7495 -0.1475  1.5425
  167MOL0     H21986   3.766   3.337   6.531 -1.0053 -0.5378  2.4581
  167MOL0     H21987   3.530   3.284   6.584 -1.4251  0.5654 -0.6229
  167MOL0     H21988   3.595   3.424   6.670 -2.9830 -1.5178  1.5665
  167MOL0     H21989   3.409   3.403   6.446 -1.0806 -3.2763  2.2154
  167MOL0     H21990   3.479   3.561   6.500 -1.5406 -0.0004 -0.4193
  167MOL0     H21991   3.399   3.514   6.741 -0.6628 -1.0860  1.2171
  167MOL0     H21992   3.310   3.383   6.689  0.8359  1.7562  2.4688
  167MOL0     H21993   3.246   3.632   6.537  2.9544 -3.3168 -1.9559
  167MOL0     H21994   3.145   3.500   6.579  0.7587 -0.9337 -0.6156
  167MOL0     H21995   3.186   3.554   6.826  1.8423 -0.2774 -0.0274
  167MOL0     H21996   3.079   3.666   6.724  1.3143  0.2209 -1.6188
  167MOL0     H21997   3.454   3.718   6.674 -0.3188 -0.4218 -1.3185
  167MOL0     H21998   3.593   3.935   6.654 -0.4273  0.4604 -0.0282
  167MOL0     H21999   3.579   3.989   6.828  0.4196  2.3479  0.8581
  167MOL0     H22000   3.579   4.169   6.630 -0.1529  0.3123 -0.6131
  167MOL0     H22001   3.464   4.173   6.771  2.0252  0.9897  0.6020
  167MOL0     H22002   3.289   4.099   6.608 -0.3556 -0.3045  0.0095
  167MOL0     H22003   3.365   4.248   6.544  0.1587  0.3917  0.6747
  167MOL0     H22004   3.426   3.951   6.471  1.9089  0.3199  0.3865
  167MOL0     H22005   3.506   4.082   6.399 -0.0166 -1.5651 -1.3378
  167MOL0     H22006   3.243   3.854   6.503  0.4033  1.0813  0.3587
  167MOL0     H22007   3.028   3.764   6.520 -4.8411  0.9851  2.0046
  167MOL0     H22008   2.562   3.677   6.295  0.2551 -1.3344 -2.3924
  167MOL0     H22009   2.361   3.521   6.340 -0.9737 -0.3639 -0.1476
  167MOL0     H22010   2.232   3.355   6.343  0.3623  0.9253 -0.1643
  167MOL0     H22011   2.169   3.427   6.495 -2.1004 -1.0226 -0.5044
  167MOL0     H22012   2.171   3.135   6.452 -0.6674  0.2507 -1.6619
  167MOL0     H22013   2.049   3.241   6.391 -0.5720  1.5887 -0.6900
  167MOL0     H22014   2.025   3.318   6.637  0.3905 -1.0886  2.7520
  167MOL0     H22015   2.112   3.172   6.674 -2.8930 -2.4534  1.6059
  167MOL0     H22016   1.840   3.185   6.528 -0.8502 -1.3857  0.9728
  167MOL0     H22017   1.923   3.035   6.580  3.3651 -1.2602  1.2518
  167MOL0     H22018   1.852   3.265   6.759 -1.5280  0.8065 -0.4573
  167MOL0     H22019   1.907   3.103   6.812 -0.0068 -0.6287 -1.2299
  167MOL0     H22020   1.654   3.106   6.638  1.0199 -2.4140 -0.9221
  167MOL0     H22021   1.648   3.133   6.813 -1.7416 -2.2832 -0.1768
  167MOL0     H22022   1.781   2.891   6.684  0.8949  0.6651  0.6697
  167MOL0     H22023   1.755   2.913   6.860  0.7489 -0.0835  0.3475
  167MOL0     H22024   1.572   2.775   6.774 -2.8998 -0.6870 -0.7473
  167MOL0     H22025   1.524   2.905   6.661 -0.1715  1.2518 -0.2740
  167MOL0     H22026   2.566   3.333   6.648 -5.2849  0.3964  0.6534
  167MOL0     H22027   2.776   3.493   6.612  1.3509  0.0711 -1.7169
  167MOL0     H22028   2.871   4.035   6.228 -1.1103  2.7219  2.9218
  167MOL0     H22029   3.083   4.146   6.213 -3.0932  0.4526  0.4448
  167MOL0     H22030   4.028   3.043   6.349 -0.7177 -0.1708  0.1185
  167MOL0     H22031   4.276   3.021   6.278 -0.3686 -0.3844 -0.3664
  167MOL0     H22032   4.567   3.366   6.000  2.8258  2.1774 -4.4061
  167MOL0     H22033   4.776   3.387   5.885  1.1075 -2.3801 -1.5060
  167MOL0     H22034   4.949   3.341   5.753  1.1306  0.9146  0.1584
  167MOL0     H22035   4.935   3.166   5.745 -0.8934  0.3678  0.3312
  167MOL0     H22036   5.154   3.267   5.650 -0.3084 -1.2218 -0.0160
  167MOL0     H22037   5.189   3.332   5.804 -0.3029  1.6371 -2.6387
  167MOL0     H22038   5.166   3.035   5.725  3.9461 -1.0973 -1.7593
  167MOL0     H22039   5.186   3.098   5.894  0.2086  1.3098 -0.0510
  167MOL0     H22040   5.404   3.022   5.789  0.3156  0.9881  1.7331
  167MOL0     H22041   5.384   3.154   5.661 -0.3315 -1.3468 -1.7373
  167MOL0     H22042   5.509   3.384   5.984 -1.2142  1.2855 -0.2922
  167MOL0     H22043   4.943   3.078   6.126  2.2144  1.5441 -1.4075
  167MOL0     H22044   4.738   3.060   6.255  1.7730  2.5600  0.4522
  168MOL0     O22045   3.451   9.944   6.385 -0.6033 -0.1016 -0.3151
  168MOL0     C22046   3.518   9.867   6.324  0.2976 -0.4307  0.8302
  168MOL0     O22047   3.469   9.759   6.252 -0.1743 -0.5109 -0.5764
  168MOL0     C22048   3.331   9.752   6.244 -0.5060  0.4566  0.3273
  168MOL0     C22049   3.265   9.792   6.129 -0.3129  0.4546  0.4635
  168MOL0     C22050   3.125   9.787   6.118  0.1382  0.7358  0.2450
  168MOL0     C22051   3.047   9.744   6.231  0.2678 -0.3558 -0.1205
  168MOL0     O22052   2.906   9.737   6.225  0.3853 -0.0905 -0.2217
  168MOL0     C22053   2.843   9.763   6.107  0.4623 -0.1745 -0.0491
  168MOL0     C22054   2.687   9.764   6.126 -0.7352  0.6233  0.2319
  168MOL0     C22055   2.629   9.618   6.141  0.5615  0.1949 -0.0341
  168MOL0     C22056   2.478   9.619   6.161 -0.3361 -0.2800 -0.3400
  168MOL0     C22057   2.407   9.478   6.154 -0.1713  0.2233  1.0423
  168MOL0     C22058   2.416   9.412   6.014 -0.2246 -0.3241  0.3463
  168MOL0     C22059   2.310   9.307   5.997 -0.2717 -0.2302 -0.5365
  168MOL0     C22060   2.340   9.201   5.882 -0.0219  0.1144  0.6549
  168MOL0     N22061   2.450   9.103   5.913  0.5271 -0.2240 -0.2971
  168MOL0     C22062   2.581   9.118   5.889 -0.6417  0.1279  0.3477
  168MOL0     C22063   2.642   9.034   5.968 -1.0486 -0.1637  0.0599
  168MOL0     C22064   2.783   9.010   5.986  0.6359 -0.1818 -0.2255
  168MOL0     C22065   2.833   8.893   5.898  0.6467  0.6344  0.1047
  168MOL0     C22066   2.978   8.877   5.940  0.6185  0.2011 -0.4073
  168MOL0     C22067   3.045   8.756   5.853  0.0085 -0.0194  0.4220
  168MOL0     O22068   3.183   8.743   5.892 -0.2533 -0.1448  0.5891
  168MOL0     C22069   3.262   8.850   5.867  0.1937  1.4486 -0.0427
  168MOL0     C22070   3.340   8.897   5.969  1.1769  0.8330 -0.5278
  168MOL0     C22071   3.440   8.988   5.950  0.4851  0.6143  1.3492
  168MOL0     C22072   3.470   9.031   5.819 -0.6213  0.0181 -0.7415
  168MOL0     C22073   3.580   9.120   5.775 -0.3782  0.9421 -0.3262
  168MOL0     O22074   3.592   9.151   5.641  0.0473  0.3089  0.6657
  168MOL0     C22075   3.690   9.237   5.606 -1.1006 -0.7388  0.6228
  168MOL0     C22076   3.818   9.188   5.570 -0.6020 -0.2213 -0.4096
  168MOL0     C22077   3.927   9.285   5.550  0.1522  0.2796  1.0751
  168MOL0     C22078   3.900   9.418   5.556  0.0748 -0.7680  0.2359
  168MOL0     O22079   3.996   9.509   5.515 -0.2939 -0.0229  0.0611
  168MOL0     C22080   4.118   9.472   5.445  0.5917 -0.9028  1.2379
  168MOL0     C22081   4.194   9.598   5.461  0.4821  0.4159 -0.5897
  168MOL0     C22082   4.337   9.572   5.436 -0.3912  0.0219  0.4191
  168MOL0     C22083   4.419   9.688   5.476 -0.8014 -0.0613 -0.4906
  168MOL0     C22084   4.560   9.698   5.419  0.3302  0.8276  0.0946
  168MOL0     C22085   4.663   9.636   5.510 -0.1846 -0.3293 -0.2094
  168MOL0     C22086   4.809   9.661   5.466  0.4955  0.9732 -0.8780
  168MOL0     C22087   4.904   9.565   5.534  0.8851  0.3343 -0.2759
  168MOL0    Cl22088   5.074   9.608   5.498  0.1020 -0.1222 -0.2003
  168MOL0     C22089   3.778   9.466   5.579 -0.7996  0.9044 -0.1209
  168MOL0     C22090   3.670   9.377   5.609 -0.1297  0.9909 -0.7092
  168MOL0     O22091   3.661   9.154   5.863 -0.1015  0.6141 -0.2796
  168MOL0     C22092   3.387   8.989   5.721  0.2340  0.8215  0.2408
  168MOL0     C22093   3.283   8.909   5.738 -0.0547  0.4806  0.2509
  168MOL0     N22094   2.545   8.964   6.041 -0.1400  0.3223  0.0256
  168MOL0     N22095   2.433   9.009   6.006 -0.0100 -0.9917 -0.0001
  168MOL0     C22096   3.118   9.705   6.346 -0.5139  1.1265  0.1739
  168MOL0     C22097   3.259   9.698   6.356 -0.8247  1.1284 -0.4348
  168MOL0     C22098   3.668   9.876   6.337  0.4653  0.1407  0.0054
  168MOL0     C22099   3.738  10.000   6.356  0.5968  0.7672  0.1133
  168MOL0     C22100   3.878   9.999   6.342 -0.3952 -1.1631 -0.6399
  168MOL0     C22101   3.952   9.880   6.328  0.3613 -0.1947  0.5918
  168MOL0     O22102   4.087   9.866   6.313 -0.0221 -0.0467  0.0853
  168MOL0     C22103   4.165   9.984   6.323 -0.0771  0.6005 -0.7314
  168MOL0     C22104   4.310   9.980   6.264 -0.1407 -0.1369  0.9775
  168MOL0     C22105   4.379   9.852   6.313 -0.1093  0.4978  0.6702
  168MOL0     C22106   4.521   9.832   6.261 -0.1162 -0.2097 -0.6375
  168MOL0     C22107   4.598   9.946   6.314 -0.5481  0.1971 -0.0027
  168MOL0     C22108   4.673  10.027   6.355 -0.8066  0.3812 -0.2011
  168MOL0     C22109   3.883   9.760   6.314  0.3098 -0.0032 -0.1133
  168MOL0     C22110   3.738   9.760   6.312 -0.1148  0.2915  1.0345
  168MOL0     H22111   3.322   9.827   6.043 -1.5223  2.6142  0.4536
  168MOL0     H22112   3.074   9.808   6.025  1.6924 -3.3700 -1.8003
  168MOL0     H22113   2.874   9.677   6.045  0.5817 -1.2895  1.5079
  168MOL0     H22114   2.870   9.861   6.066 -0.0635  0.8376  1.9331
  168MOL0     H22115   2.643   9.824   6.047 -0.3719  0.6214  0.0256
  168MOL0     H22116   2.664   9.828   6.212 -1.2061  0.7100  0.0417
  168MOL0     H22117   2.668   9.573   6.233  1.3677  0.1850 -0.3655
  168MOL0     H22118   2.662   9.554   6.059  2.1802 -2.2982  2.3754
  168MOL0     H22119   2.460   9.663   6.259  0.1764  0.1860 -0.4477
  168MOL0     H22120   2.427   9.688   6.094  0.0687 -0.4657 -0.8532
  168MOL0     H22121   2.299   9.494   6.149 -0.0362  0.7799 -0.5650
  168MOL0     H22122   2.445   9.401   6.222  1.2540 -0.3088 -0.2744
  168MOL0     H22123   2.514   9.379   5.978 -1.3587 -0.2474 -3.1621
  168MOL0     H22124   2.381   9.481   5.937 -1.6414 -1.3656  0.0040
  168MOL0     H22125   2.286   9.257   6.092 -1.5547  1.2596 -0.0330
  168MOL0     H22126   2.219   9.357   5.963 -0.6073 -1.4122 -1.4454
  168MOL0     H22127   2.360   9.252   5.788  2.9004  0.1213  1.1944
  168MOL0     H22128   2.254   9.140   5.855  0.8761 -0.3190 -1.3691
  168MOL0     H22129   2.630   9.188   5.821 -1.7324  2.2594  1.6433
  168MOL0     H22130   2.783   8.996   6.095 -1.0884 -0.7847 -0.2635
  168MOL0     H22131   2.840   9.099   5.960  0.0118  0.5981  0.9499
  168MOL0     H22132   2.839   8.917   5.792 -2.1884  0.0482 -0.2695
  168MOL0     H22133   2.775   8.802   5.911 -3.0767  2.5082 -1.8999
  168MOL0     H22134   3.032   8.970   5.923  1.3027  0.6374  3.3629
  168MOL0     H22135   2.994   8.853   6.045  2.0907 -1.8010 -1.0267
  168MOL0     H22136   3.029   8.775   5.746 -0.4942  0.7364  0.6222
  168MOL0     H22137   3.011   8.659   5.890  2.4327 -0.9873  0.2489
  168MOL0     H22138   3.333   8.845   6.063 -0.0203  0.8704 -0.5825
  168MOL0     H22139   3.518   9.021   6.019 -0.2731  1.4311  1.8340
  168MOL0     H22140   3.837   9.081   5.570 -1.1050 -0.3175  0.5897
  168MOL0     H22141   4.023   9.236   5.539  0.9829  1.6580  1.8801
  168MOL0     H22142   4.104   9.440   5.341  4.0821 -1.2439  0.7463
  168MOL0     H22143   4.179   9.391   5.487  1.8120 -0.2165  0.8338
  168MOL0     H22144   4.178   9.640   5.561 -0.0445  2.9328 -1.6483
  168MOL0     H22145   4.155   9.678   5.396 -0.5696  1.0514  0.7742
  168MOL0     H22146   4.353   9.558   5.328 -3.1597 -0.5125 -0.0008
  168MOL0     H22147   4.374   9.484   5.489 -2.0159 -1.5839 -0.9579
  168MOL0     H22148   4.371   9.781   5.442 -1.3438  0.1718  0.8358
  168MOL0     H22149   4.424   9.705   5.584  0.8536 -4.5697  0.3650
  168MOL0     H22150   4.571   9.805   5.403 -2.1878  1.1948  0.3259
  168MOL0     H22151   4.581   9.640   5.329  2.4183 -0.5933  1.3971
  168MOL0     H22152   4.646   9.528   5.519 -0.5302 -0.1025  2.8945
  168MOL0     H22153   4.656   9.677   5.611 -1.7190  0.1033 -0.4688
  168MOL0     H22154   4.821   9.655   5.358  3.7713 -2.6260 -0.5589
  168MOL0     H22155   4.832   9.764   5.495  0.8128  0.8378 -0.6364
  168MOL0     H22156   4.860   9.471   5.500 -1.2177  1.7967 -1.8679
  168MOL0     H22157   4.887   9.554   5.642 -0.3768 -2.1492 -0.6511
  168MOL0     H22158   3.771   9.574   5.580  3.2096  1.3426 -1.7254
  168MOL0     H22159   3.579   9.419   5.651  0.8063 -0.6432  3.4398
  168MOL0     H22160   3.400   9.027   5.621  0.1269  3.0778  1.0348
  168MOL0     H22161   3.243   8.895   5.638  5.4769 -1.6030 -2.0833
  168MOL0     H22162   3.057   9.679   6.432 -0.3813  2.6154  0.7392
  168MOL0     H22163   3.304   9.667   6.449 -2.6940  2.0252  0.8219
  168MOL0     H22164   3.679  10.089   6.373  0.7675  0.6827  1.2245
  168MOL0     H22165   3.926  10.096   6.346 -0.2750 -1.2335  3.1990
  168MOL0     H22166   4.166  10.010   6.429 -0.5651 -0.2446 -0.5130
  168MOL0     H22167   4.111  10.058   6.263 -1.9228 -0.9643 -1.1180
  168MOL0     H22168   4.314   9.971   6.155  3.5241 -0.7316  1.0304
  168MOL0     H22169   4.363  10.071   6.290  0.6750 -0.4178  0.3420
  168MOL0     H22170   4.317   9.763   6.298  1.6133 -0.4328 -1.2690
  168MOL0     H22171   4.390   9.865   6.421  0.7117  4.5276  0.2450
  168MOL0     H22172   4.558   9.742   6.310  0.7831  1.2548  1.5049
  168MOL0     H22173   4.531   9.814   6.153 -0.7244  1.2269 -0.9633
  168MOL0     H22174   4.728  10.104   6.404 -1.6960  0.5198  0.5947
  168MOL0     H22175   3.940   9.671   6.289  0.9158  1.1121 -3.3207
  168MOL0     H22176   3.693   9.664   6.286 -2.2633  0.5480  3.4131
  169MOL0     O22177   5.025   4.898   6.707  0.5840  0.2722  0.0807
  169MOL0     C22178   5.054   4.869   6.591  0.8342  0.7548 -0.2215
  169MOL0     O22179   4.968   4.800   6.512 -0.3279 -0.5572  0.1220
  169MOL0     C22180   4.842   4.769   6.569 -1.0523  0.7694  0.2342
  169MOL0     C22181   4.727   4.837   6.543  0.5001  0.4194 -0.3067
  169MOL0     C22182   4.610   4.796   6.602  0.3447 -0.4657 -0.3092
  169MOL0     C22183   4.593   4.679   6.680  0.5237  0.5377 -0.0617
  169MOL0     O22184   4.472   4.623   6.728  0.2676 -0.4565 -0.8394
  169MOL0     C22185   4.360   4.706   6.685  0.8858  0.6672  0.0460
  169MOL0     C22186   4.243   4.638   6.745  0.6374  0.5515 -0.1293
  169MOL0     C22187   4.120   4.736   6.732 -0.3428  0.1443 -0.2112
  169MOL0     C22188   3.989   4.665   6.765  1.0738  0.9741  0.0541
  169MOL0     C22189   3.875   4.766   6.779 -0.5157 -0.0526 -0.6258
  169MOL0     C22190   3.736   4.704   6.749 -0.4474  0.2377  0.0210
  169MOL0     C22191   3.716   4.655   6.609 -0.1962 -0.1109  0.4160
  169MOL0     C22192   3.575   4.627   6.571 -0.1560  0.7034 -0.6950
  169MOL0     N22193   3.551   4.569   6.442 -0.1300 -0.5139  0.3992
  169MOL0     C22194   3.462   4.620   6.350 -0.3505  0.2150  0.5994
  169MOL0     C22195   3.470   4.537   6.240  0.2048  0.1033 -0.7823
  169MOL0     C22196   3.406   4.554   6.109 -0.9051 -0.8582 -0.6685
  169MOL0     C22197   3.397   4.705   6.058  0.4030  0.6296 -0.1144
  169MOL0     C22198   3.308   4.698   5.928  0.2461  0.6209 -1.0679
  169MOL0     C22199   3.181   4.611   5.947 -0.5204 -1.0733  0.1532
  169MOL0     O22200   3.095   4.666   6.051  0.7133 -0.2809 -0.1659
  169MOL0     C22201   3.017   4.583   6.118  0.8408 -0.2924 -0.4316
  169MOL0     C22202   2.967   4.469   6.053  0.1236  0.5478  0.5143
  169MOL0     C22203   2.861   4.395   6.105  0.8559  1.1837 -0.4609
  169MOL0     C22204   2.813   4.421   6.238  0.7385  0.4245  0.6362
  169MOL0     C22205   2.702   4.344   6.291 -0.9133  0.6756 -0.4309
  169MOL0     O22206   2.681   4.222   6.229  0.0327 -0.6939  0.5873
  169MOL0     C22207   2.575   4.144   6.287 -0.2296 -0.4479  0.0802
  169MOL0     C22208   2.549   4.110   6.419 -0.0679  0.1375  0.1302
  169MOL0     C22209   2.427   4.047   6.456 -0.4087 -0.4787 -0.2411
  169MOL0     C22210   2.343   4.006   6.358  0.3984 -0.0771 -0.2006
  169MOL0     O22211   2.245   3.917   6.374  0.7114  0.1586  0.7176
  169MOL0     C22212   2.208   3.860   6.500  0.3075  0.0128 -1.0402
  169MOL0     C22213   2.101   3.748   6.477 -0.7589  0.2344 -0.3155
  169MOL0     C22214   1.970   3.804   6.423  0.6085  0.0359 -0.1696
  169MOL0     C22215   1.887   3.690   6.366  0.7496 -0.1163 -0.3848
  169MOL0     C22216   1.734   3.719   6.386 -0.6404  0.2030 -0.1662
  169MOL0     C22217   1.643   3.623   6.305  0.6596  0.3341 -0.4596
  169MOL0     C22218   1.600   3.672   6.160 -0.6770  0.2053 -0.2290
  169MOL0     C22219   1.538   3.563   6.078 -0.2210 -0.9123 -0.2437
  169MOL0    Cl22220   1.501   3.636   5.926  0.0367 -0.4778 -0.6411
  169MOL0     C22221   2.374   4.032   6.227  0.4365  0.1655  0.1084
  169MOL0     C22222   2.487   4.100   6.189  0.5476  0.1024 -0.7129
  169MOL0     O22223   2.639   4.391   6.379 -0.5261 -0.4118 -0.0314
  169MOL0     C22224   2.878   4.528   6.308 -0.5006  0.3145  0.2805
  169MOL0     C22225   2.966   4.618   6.245 -0.3875 -0.2430 -0.0850
  169MOL0     N22226   3.548   4.427   6.288 -0.8395 -0.3698 -0.0312
  169MOL0     N22227   3.609   4.454   6.395 -0.2605  0.1353 -0.0050
  169MOL0     C22228   4.716   4.606   6.686  1.0520 -0.8132  0.1148
  169MOL0     C22229   4.838   4.648   6.645  0.5985  0.0364  0.5243
  169MOL0     C22230   5.173   4.920   6.531 -0.2020 -0.3519 -1.2370
  169MOL0     C22231   5.235   5.024   6.600  0.1644  0.1112  0.0203
  169MOL0     C22232   5.353   5.080   6.564 -0.3393  0.2436 -0.1220
  169MOL0     C22233   5.421   5.029   6.448 -0.1449 -0.5441  0.4685
  169MOL0     O22234   5.540   5.082   6.410  0.0059  0.1470  0.1066
  169MOL0     C22235   5.637   4.990   6.369  0.0837 -0.2457  0.6926
  169MOL0     C22236   5.770   5.008   6.446  0.1914 -1.1045  0.2040
  169MOL0     C22237   5.775   4.966   6.592  0.7903 -0.3902  1.1430
  169MOL0     C22238   5.921   4.953   6.630 -0.1055  0.1031  0.7484
  169MOL0     C22239   5.910   4.889   6.760 -0.6541  0.7052  0.0315
  169MOL0     C22240   5.908   4.847   6.880 -0.2810  0.1475 -0.0881
  169MOL0     C22241   5.364   4.920   6.383  0.5503 -0.2640  0.4656
  169MOL0     C22242   5.233   4.875   6.423  0.8656 -0.8021  0.4109
  169MOL0     H22243   4.729   4.926   6.482  1.2435  1.8347  1.7047
  169MOL0     H22244   4.532   4.872   6.602 -0.3036 -1.1169 -0.8903
  169MOL0     H22245   4.348   4.708   6.576  2.1188  1.7321 -0.1049
  169MOL0     H22246   4.363   4.812   6.714  1.3104 -0.1039  3.1084
  169MOL0     H22247   4.251   4.611   6.851  1.3502 -3.2087 -0.9864
  169MOL0     H22248   4.214   4.542   6.701  1.0680  0.5381 -0.3907
  169MOL0     H22249   4.109   4.774   6.630 -0.6252  1.1461  0.1815
  169MOL0     H22250   4.125   4.828   6.790 -1.7737  2.4482 -3.4537
  169MOL0     H22251   3.968   4.592   6.686  0.9203  1.4854 -0.3889
  169MOL0     H22252   3.997   4.615   6.862  1.4283 -2.2516 -1.5238
  169MOL0     H22253   3.889   4.849   6.709 -2.8504  1.7427  0.8804
  169MOL0     H22254   3.890   4.797   6.882 -0.1187 -0.7425 -0.4706
  169MOL0     H22255   3.649   4.768   6.768  0.1267  1.7601 -2.0839
  169MOL0     H22256   3.727   4.614   6.811 -2.8664  0.7469  0.4925
  169MOL0     H22257   3.753   4.729   6.538 -0.7615  0.6111  0.8548
  169MOL0     H22258   3.767   4.560   6.592 -1.3105 -1.3115  3.1249
  169MOL0     H22259   3.511   4.715   6.585 -1.1854  0.4068 -3.0018
  169MOL0     H22260   3.535   4.550   6.637 -1.6798  0.8431 -1.4030
  169MOL0     H22261   3.402   4.710   6.357  0.0053  0.3059  3.5331
  169MOL0     H22262   3.305   4.525   6.137 -1.1637  1.5052  1.2013
  169MOL0     H22263   3.447   4.486   6.033  1.5847 -1.3298  0.9581
  169MOL0     H22264   3.500   4.732   6.032 -0.7899  4.0742 -1.9288
  169MOL0     H22265   3.355   4.783   6.122  3.3453  3.5471 -1.4706
  169MOL0     H22266   3.263   4.797   5.918 -4.2239 -1.3112 -3.2727
  169MOL0     H22267   3.370   4.673   5.842  0.2075  0.2191 -0.9834
  169MOL0     H22268   3.199   4.504   5.960 -0.8050 -1.4683 -2.1688
  169MOL0     H22269   3.118   4.613   5.857  1.3219  0.9381 -1.2015
  169MOL0     H22270   2.998   4.439   5.953  2.3527 -0.2983  1.3967
  169MOL0     H22271   2.819   4.320   6.039 -0.1967  2.3775 -1.1905
  169MOL0     H22272   2.604   4.135   6.510 -1.3107 -1.8579  1.5283
  169MOL0     H22273   2.397   4.038   6.559 -1.9841 -0.4813 -0.6732
  169MOL0     H22274   2.170   3.928   6.577 -0.0725 -0.6093 -0.6679
  169MOL0     H22275   2.301   3.808   6.522 -0.2054 -0.7309 -0.5656
  169MOL0     H22276   2.076   3.685   6.562 -2.3471  0.7251 -0.3803
  169MOL0     H22277   2.140   3.679   6.401  0.4916 -1.5475  1.8288
  169MOL0     H22278   1.997   3.874   6.344  3.5910  1.4879  1.9688
  169MOL0     H22279   1.913   3.848   6.506  2.6653  1.0929  0.7392
  169MOL0     H22280   1.900   3.682   6.258  1.2361  0.4347 -0.3671
  169MOL0     H22281   1.903   3.594   6.417  1.7943  0.2696  0.0386
  169MOL0     H22282   1.717   3.823   6.355  1.9914  0.7007 -0.1966
  169MOL0     H22283   1.707   3.712   6.492 -0.5922 -0.2157 -0.1805
  169MOL0     H22284   1.556   3.596   6.365  2.5607 -0.8408  1.9585
  169MOL0     H22285   1.696   3.530   6.285  0.1415  0.3760 -2.1394
  169MOL0     H22286   1.541   3.763   6.147  3.3164  2.8188 -1.5675
  169MOL0     H22287   1.688   3.698   6.102  0.0641  1.5854  1.4207
  169MOL0     H22288   1.455   3.524   6.138 -1.5365 -0.9977 -2.0442
  169MOL0     H22289   1.607   3.479   6.069  0.3942 -0.6150  1.3575
  169MOL0     H22290   2.321   3.997   6.139  1.0984 -1.6294  0.3677
  169MOL0     H22291   2.511   4.120   6.085  0.8402  0.6478 -0.5464
  169MOL0     H22292   2.856   4.547   6.413  1.0246  0.3518  0.6172
  169MOL0     H22293   2.991   4.709   6.298  0.5550  0.8963 -2.3327
  169MOL0     H22294   4.719   4.516   6.747 -1.0944 -0.3386  1.0299
  169MOL0     H22295   4.917   4.576   6.664 -2.2600 -4.0015 -1.4975
  169MOL0     H22296   5.189   5.080   6.681 -1.0657  0.0155 -0.5775
  169MOL0     H22297   5.401   5.161   6.618 -1.4231  0.5206  0.4442
  169MOL0     H22298   5.648   5.009   6.262  1.4189  0.1956  0.8856
  169MOL0     H22299   5.619   4.883   6.381 -0.5280 -0.1484  0.6858
  169MOL0     H22300   5.841   4.938   6.401  1.1167 -0.5277  0.7286
  169MOL0     H22301   5.809   5.107   6.425 -1.2787 -0.6692 -0.6164
  169MOL0     H22302   5.716   4.876   6.609 -0.0865 -0.0075  0.2653
  169MOL0     H22303   5.725   5.047   6.645  1.8677  0.4917  0.8635
  169MOL0     H22304   5.977   4.892   6.559 -1.9200  0.2590 -0.8968
  169MOL0     H22305   5.970   5.050   6.645 -2.3678  0.8648  4.5020
  169MOL0     H22306   5.908   4.823   6.984  0.5174 -1.6817 -0.4702
  169MOL0     H22307   5.411   4.893   6.289  2.6608  0.4951  1.2446
  169MOL0     H22308   5.191   4.787   6.374  3.3941 -2.0781  0.3534
  170MOL0     O22309   3.609   1.623   8.348  0.6742  0.7390 -0.0129
  170MOL0     C22310   3.611   1.725   8.414 -0.1828  0.5596  0.1204
  170MOL0     O22311   3.706   1.745   8.509 -0.5162 -0.4450  0.3301
  170MOL0     C22312   3.813   1.662   8.516 -1.4622  0.5538 -0.5639
  170MOL0     C22313   3.941   1.717   8.520 -0.5190  0.1778  0.4712
  170MOL0     C22314   4.054   1.641   8.524 -0.4052  0.4138 -0.5288
  170MOL0     C22315   4.042   1.504   8.530 -0.1121 -0.4104  0.1648
  170MOL0     O22316   4.146   1.412   8.551  0.3966  0.0479  0.1051
  170MOL0     C22317   4.274   1.444   8.501 -0.7401 -0.3586  0.2083
  170MOL0     C22318   4.376   1.372   8.581  0.2029  0.3693 -0.7032
  170MOL0     C22319   4.446   1.450   8.691 -0.8501 -0.6624 -0.5257
  170MOL0     C22320   4.517   1.568   8.632  0.3986  0.0808  0.0405
  170MOL0     C22321   4.636   1.599   8.727 -0.4359 -0.0658  1.0851
  170MOL0     C22322   4.689   1.738   8.692  0.2998 -0.9095  1.1842
  170MOL0     C22323   4.794   1.796   8.789 -0.0742  0.0612  0.0182
  170MOL0     C22324   4.917   1.712   8.776  0.0118  0.2386  0.3868
  170MOL0     N22325   5.012   1.722   8.892 -0.2884 -1.3088  0.0157
  170MOL0     C22326   5.002   1.672   9.021  0.6885  0.1319 -0.9595
  170MOL0     C22327   5.126   1.700   9.072 -0.0109  0.6132 -0.3329
  170MOL0     C22328   5.183   1.674   9.215 -0.0486  0.6422  0.6498
  170MOL0     C22329   5.302   1.568   9.201 -0.4538 -1.2681  0.1081
  170MOL0     C22330   5.269   1.432   9.146  0.7002 -0.4386  0.5978
  170MOL0     C22331   5.165   1.356   9.241  0.7781  0.3116 -0.4816
  170MOL0     O22332   5.039   1.413   9.224  0.4713 -0.5041  0.0954
  170MOL0     C22333   4.951   1.370   9.125  0.2686 -0.7801 -0.3922
  170MOL0     C22334   4.827   1.334   9.183  0.7705 -0.0720 -0.5358
  170MOL0     C22335   4.724   1.292   9.099 -0.0209  0.4747  0.1758
  170MOL0     C22336   4.746   1.270   8.961  0.6634 -0.6545 -1.0807
  170MOL0     C22337   4.646   1.211   8.864  0.7253  0.3023  0.1932
  170MOL0     O22338   4.540   1.152   8.926 -0.3980  0.6103 -0.6918
  170MOL0     C22339   4.456   1.070   8.857 -0.2538 -0.7138  0.0439
  170MOL0     C22340   4.502   0.965   8.787  0.6048 -0.3493  0.5109
  170MOL0     C22341   4.403   0.891   8.729 -0.4000 -0.2249  0.7396
  170MOL0     C22342   4.268   0.922   8.730 -0.1194 -0.2931  0.3032
  170MOL0     O22343   4.172   0.848   8.675  1.0899  0.8384  0.1092
  170MOL0     C22344   4.197   0.749   8.579 -0.5684  0.0850  0.0223
  170MOL0     C22345   4.186   0.611   8.638 -0.7641  0.2889 -0.2685
  170MOL0     C22346   4.138   0.516   8.527  0.4662  0.1748 -0.3171
  170MOL0     C22347   3.984   0.515   8.491  0.6115 -0.4999  0.0627
  170MOL0     C22348   3.957   0.400   8.383 -0.3740 -0.0581 -0.2081
  170MOL0     C22349   3.809   0.401   8.340  0.2858  0.4694 -0.2797
  170MOL0     C22350   3.787   0.294   8.237 -0.7723 -0.3076  0.0035
  170MOL0     C22351   3.644   0.285   8.207  0.2374 -0.5557 -0.0974
  170MOL0    Cl22352   3.578   0.418   8.119  0.2236 -0.3429  0.3393
  170MOL0     C22353   4.219   1.034   8.798  0.0160 -0.0069  0.7440
  170MOL0     C22354   4.315   1.109   8.866 -0.0739 -0.0821 -0.0957
  170MOL0     O22355   4.673   1.206   8.740 -0.1002 -0.7621 -0.0595
  170MOL0     C22356   4.874   1.288   8.916 -0.3388 -0.6678 -0.7187
  170MOL0     C22357   4.973   1.346   8.996 -1.1549  0.3683  0.1119
  170MOL0     N22358   5.189   1.790   8.990  0.1385 -0.5102  0.1442
  170MOL0     N22359   5.120   1.813   8.884  1.0858  0.1140  0.1345
  170MOL0     C22360   3.913   1.445   8.548 -0.3002 -0.4365 -0.3915
  170MOL0     C22361   3.806   1.529   8.542  0.1907 -0.2027  0.1298
  170MOL0     C22362   3.502   1.822   8.396 -0.0699  0.2231  0.7540
  170MOL0     C22363   3.459   1.869   8.274 -0.2270  0.7488  0.2695
  170MOL0     C22364   3.350   1.951   8.254 -0.1368 -0.4321  0.6344
  170MOL0     C22365   3.273   1.981   8.356  0.4755  0.1620 -0.8527
  170MOL0     O22366   3.160   2.055   8.349  0.2160 -0.3203  0.2777
  170MOL0     C22367   3.092   2.079   8.231  0.9641 -0.4944  0.6168
  170MOL0     C22368   2.950   2.125   8.259  0.2907  0.8377 -0.8212
  170MOL0     C22369   2.946   2.272   8.284 -0.1319 -0.0717 -0.3913
  170MOL0     C22370   2.819   2.326   8.361  0.1214  0.7572  0.4427
  170MOL0     C22371   2.706   2.312   8.271  1.3052 -0.3289 -0.9143
  170MOL0     C22372   2.609   2.300   8.198  0.7338  0.4395  0.0156
  170MOL0     C22373   3.310   1.937   8.483  0.2266  0.0708 -0.6385
  170MOL0     C22374   3.433   1.869   8.511 -0.1637 -0.0615 -0.3934
  170MOL0     H22375   3.959   1.824   8.517  1.0300  0.0505  2.9381
  170MOL0     H22376   4.153   1.682   8.510  0.1156 -0.0671  1.4237
  170MOL0     H22377   4.296   1.551   8.496  1.9790 -0.9011 -1.2390
  170MOL0     H22378   4.279   1.418   8.395  1.0047 -0.8439  0.3884
  170MOL0     H22379   4.454   1.337   8.513 -0.2864 -4.7443  0.9455
  170MOL0     H22380   4.337   1.275   8.612  1.3705  0.3871  0.9733
  170MOL0     H22381   4.517   1.391   8.750 -0.3807  0.4877  0.0933
  170MOL0     H22382   4.371   1.482   8.764 -0.9108  1.5183 -1.4761
  170MOL0     H22383   4.558   1.552   8.532 -1.8816  1.0191 -1.1474
  170MOL0     H22384   4.444   1.650   8.619 -0.6205 -0.6336  1.0788
  170MOL0     H22385   4.708   1.518   8.713 -1.4896 -0.7414 -0.8353
  170MOL0     H22386   4.595   1.604   8.828 -4.6476 -2.0131 -0.2998
  170MOL0     H22387   4.596   1.795   8.686 -0.8240 -2.7186  0.4646
  170MOL0     H22388   4.735   1.738   8.593  0.0098  1.4534  0.9957
  170MOL0     H22389   4.816   1.899   8.761 -0.4759  0.5546  1.4423
  170MOL0     H22390   4.746   1.805   8.887 -2.7794 -1.3858 -1.0440
  170MOL0     H22391   4.961   1.737   8.680 -2.0269 -4.5207 -2.1330
  170MOL0     H22392   4.894   1.606   8.761 -0.8586  0.5926 -0.9205
  170MOL0     H22393   4.923   1.620   9.073  1.9335 -0.0429  0.8513
  170MOL0     H22394   5.105   1.643   9.284  0.7209 -2.6022  0.2236
  170MOL0     H22395   5.211   1.776   9.243 -1.7275  0.7275  2.1736
  170MOL0     H22396   5.337   1.560   9.304 -1.3982  3.2252  1.0252
  170MOL0     H22397   5.385   1.611   9.145 -0.7341 -1.7116 -0.6623
  170MOL0     H22398   5.240   1.441   9.041 -0.8103  1.0077  1.0817
  170MOL0     H22399   5.361   1.378   9.166 -1.2034 -3.7153  1.1945
  170MOL0     H22400   5.186   1.355   9.349 -5.2472 -1.3233  1.1147
  170MOL0     H22401   5.163   1.251   9.209 -2.4094  0.3780 -0.8419
  170MOL0     H22402   4.819   1.326   9.291 -2.1998 -3.5183 -0.8291
  170MOL0     H22403   4.628   1.291   9.149  1.4233 -0.4938  3.2026
  170MOL0     H22404   4.608   0.946   8.776  0.5334 -0.4350 -0.0535
  170MOL0     H22405   4.439   0.799   8.683  3.3672  0.9397  1.0255
  170MOL0     H22406   4.297   0.759   8.536 -0.6449  1.0573  0.0537
  170MOL0     H22407   4.125   0.769   8.500 -2.4588 -0.9885  1.3764
  170MOL0     H22408   4.104   0.607   8.711 -1.3162  0.1904 -0.8883
  170MOL0     H22409   4.279   0.580   8.687 -1.2712  1.7861  1.8139
  170MOL0     H22410   4.174   0.419   8.561  2.0239  0.8580  0.0718
  170MOL0     H22411   4.186   0.526   8.429  0.5118 -2.0055 -0.5557
  170MOL0     H22412   3.930   0.508   8.586  1.7874  0.5075  0.8284
  170MOL0     H22413   3.959   0.613   8.450 -1.3452  0.5109  3.3086
  170MOL0     H22414   3.967   0.305   8.437  2.8069 -0.3415 -1.0993
  170MOL0     H22415   4.026   0.403   8.298  0.0256  0.4041  0.1248
  170MOL0     H22416   3.761   0.494   8.309 -1.9355  0.7902  3.5227
  170MOL0     H22417   3.756   0.385   8.434  1.5385  0.5339  0.4636
  170MOL0     H22418   3.846   0.315   8.148  0.7226 -0.0159  1.0083
  170MOL0     H22419   3.815   0.198   8.282  0.3588 -1.5745 -3.1155
  170MOL0     H22420   3.584   0.267   8.297 -2.2906 -1.9795 -1.9364
  170MOL0     H22421   3.623   0.200   8.141 -2.4348 -0.9887  1.1495
  170MOL0     H22422   4.112   1.034   8.812  0.1103 -3.2169  2.2452
  170MOL0     H22423   4.283   1.189   8.931 -0.6415 -0.8903  0.6529
  170MOL0     H22424   4.895   1.267   8.812 -0.8765 -1.8598 -0.6112
  170MOL0     H22425   5.070   1.365   8.951 -0.1032 -3.3462  0.4651
  170MOL0     H22426   3.900   1.338   8.559 -1.3902 -0.4200 -1.3077
  170MOL0     H22427   3.708   1.490   8.565 -0.5577  2.1150  1.1429
  170MOL0     H22428   3.515   1.844   8.185 -1.2258 -0.0494 -0.1626
  170MOL0     H22429   3.333   1.978   8.150  2.2532 -0.6338  0.1524
  170MOL0     H22430   3.076   1.991   8.168  0.3305  0.4305 -0.5600
  170MOL0     H22431   3.148   2.151   8.172 -0.2751  0.0289  0.0314
  170MOL0     H22432   2.891   2.095   8.172  0.8043 -0.7158 -0.6592
  170MOL0     H22433   2.915   2.076   8.350  1.6169 -0.0893 -0.7657
  170MOL0     H22434   2.945   2.319   8.185  2.3310  1.0947  0.0760
  170MOL0     H22435   3.036   2.300   8.339  1.2561 -2.4417 -1.2878
  170MOL0     H22436   2.792   2.254   8.440 -0.4923 -1.8185 -1.9435
  170MOL0     H22437   2.836   2.428   8.396  4.0560  0.6280 -0.5960
  170MOL0     H22438   2.516   2.298   8.146  1.5052  1.3684 -1.4742
  170MOL0     H22439   3.247   1.951   8.570  0.1798  0.0962 -0.6770
  170MOL0     H22440   3.467   1.844   8.611  0.2741 -2.3835 -1.0694
  171MOL0     O22441  10.779   2.589   6.942 -0.2803  0.5606  0.8579
  171MOL0     C22442  10.771   2.525   7.046 -0.0163 -0.1162 -0.1613
  171MOL0     O22443  10.662   2.451   7.085  0.2212 -0.2212 -0.1577
  171MOL0     C22444  10.534   2.465   7.038  0.3545  0.3264  0.6428
  171MOL0     C22445  10.459   2.565   7.094  0.7961 -0.2869 -0.4243
  171MOL0     C22446  10.330   2.588   7.051  0.2659  0.3570  1.2919
  171MOL0     C22447  10.282   2.512   6.937  0.6132 -0.1576  0.2718
  171MOL0     O22448  10.153   2.540   6.896 -0.4628 -0.3413 -0.0477
  171MOL0     C22449  10.059   2.438   6.941 -0.0545  0.1187 -0.1901
  171MOL0     C22450   9.917   2.484   6.893 -1.0870  1.0370 -0.8316
  171MOL0     C22451   9.809   2.382   6.936 -0.6770  0.3396  0.0821
  171MOL0     C22452   9.665   2.430   6.915  0.2101  0.7695 -0.2715
  171MOL0     C22453   9.553   2.343   6.978  0.3432 -0.8595  0.5021
  171MOL0     C22454   9.417   2.417   6.957  1.2611  0.1203 -0.0687
  171MOL0     C22455   9.287   2.336   6.995  0.1024  0.5209  0.6807
  171MOL0     C22456   9.171   2.412   7.068  0.3193 -0.1915 -1.0387
  171MOL0     N22457   9.094   2.499   6.979 -0.9301  0.9701 -0.4321
  171MOL0     C22458   9.074   2.631   7.001 -0.8440 -0.0559 -0.2491
  171MOL0     C22459   8.980   2.666   6.911  0.2598 -0.2275  0.6685
  171MOL0     C22460   8.924   2.807   6.918 -0.7299  0.1337  0.0268
  171MOL0     C22461   8.823   2.835   7.029  0.7640 -0.4603 -0.1798
  171MOL0     C22462   8.698   2.745   7.048 -0.2778 -0.0567  0.0459
  171MOL0     C22463   8.609   2.765   6.919  1.2643  1.1085 -0.2091
  171MOL0     O22464   8.564   2.899   6.896  0.5211 -0.2989 -0.2067
  171MOL0     C22465   8.469   2.933   6.803 -0.2237 -0.6637  0.2451
  171MOL0     C22466   8.443   3.073   6.780 -0.4997 -0.0426  0.4678
  171MOL0     C22467   8.333   3.110   6.704 -0.1139  0.2821  0.6946
  171MOL0     C22468   8.245   3.018   6.642 -0.6339 -0.3411  0.3923
  171MOL0     C22469   8.109   3.047   6.583  1.1937  0.4803  0.5897
  171MOL0     O22470   8.026   2.942   6.564 -0.0858  0.3509 -0.1277
  171MOL0     C22471   7.903   2.960   6.517  1.4430  0.6256  0.3690
  171MOL0     C22472   7.870   3.046   6.415  0.3922 -1.0008  1.2030
  171MOL0     C22473   7.735   3.052   6.368 -0.0903  0.0031 -1.0214
  171MOL0     C22474   7.631   2.980   6.439  0.2542  0.1558 -0.1922
  171MOL0     O22475   7.499   2.987   6.404 -0.1013  0.9420 -0.0682
  171MOL0     C22476   7.449   3.058   6.283 -0.4448 -0.5146 -1.2335
  171MOL0     C22477   7.309   3.003   6.244  0.8472  0.5825 -0.4545
  171MOL0     C22478   7.215   2.968   6.363 -0.4721 -0.4536 -0.0997
  171MOL0     C22479   7.090   2.881   6.325 -0.0725 -0.7578  0.1642
  171MOL0     C22480   6.957   2.886   6.408  0.6772  0.0943  0.3044
  171MOL0     C22481   6.896   3.020   6.412  0.6757  0.4440  0.4595
  171MOL0     C22482   6.795   3.029   6.519 -1.0471 -1.5834 -1.0462
  171MOL0     C22483   6.717   3.159   6.508  1.3070 -0.4081 -0.1026
  171MOL0    Cl22484   6.596   3.136   6.377 -0.0526  0.0380  0.2696
  171MOL0     C22485   7.670   2.890   6.539 -0.3211 -0.0880  1.3258
  171MOL0     C22486   7.804   2.882   6.576 -0.4749 -0.8183  0.4492
  171MOL0     O22487   8.082   3.168   6.570 -0.4305  0.1363 -0.3030
  171MOL0     C22488   8.282   2.880   6.658 -0.4906 -0.0649  0.6010
  171MOL0     C22489   8.387   2.839   6.739  0.4722  0.9494  0.3724
  171MOL0     N22490   8.949   2.555   6.835  0.3375  0.2482 -0.0129
  171MOL0     N22491   9.016   2.454   6.878  0.3925 -0.1563 -0.4434
  171MOL0     C22492  10.361   2.414   6.885 -0.0667  0.2592 -1.0263
  171MOL0     C22493  10.489   2.393   6.931 -0.7423  0.7615  0.2684
  171MOL0     C22494  10.888   2.538   7.134 -0.4837 -0.5704 -0.4868
  171MOL0     C22495  10.997   2.615   7.093  0.9421  0.9039 -0.1164
  171MOL0     C22496  11.103   2.630   7.180 -0.8102  0.6230  0.0914
  171MOL0     C22497  11.111   2.565   7.304  0.2078 -0.7090  0.3981
  171MOL0     O22498  11.233   2.599   7.367  0.3453 -0.0011 -0.3307
  171MOL0     C22499  11.254   2.532   7.489  0.1319 -0.1081  0.9346
  171MOL0     C22500  11.402   2.546   7.525 -0.3023 -0.1982  0.5809
  171MOL0     C22501  11.423   2.691   7.583  0.5966 -0.3532  0.1586
  171MOL0     C22502  11.571   2.717   7.635  0.4433  0.1961  0.9897
  171MOL0     C22503  11.611   2.851   7.659 -0.2786 -0.1432  0.1749
  171MOL0     C22504  11.666   2.953   7.710 -0.1151  0.3519  0.1728
  171MOL0     C22505  11.001   2.487   7.345 -0.1075  0.0729  0.4883
  171MOL0     C22506  10.886   2.473   7.259 -0.2612  0.6075 -0.6912
  171MOL0     H22507  10.500   2.624   7.175 -0.3467 -0.5022  0.3342
  171MOL0     H22508  10.266   2.661   7.098 -0.6901  0.8673 -0.6869
  171MOL0     H22509  10.057   2.417   7.048  2.0635 -1.5721 -0.3853
  171MOL0     H22510  10.087   2.346   6.888  1.8905  1.0698 -0.9097
  171MOL0     H22511   9.929   2.481   6.784 -2.5599  0.7134 -1.0070
  171MOL0     H22512   9.896   2.586   6.929 -0.7514  0.0745  2.3643
  171MOL0     H22513   9.823   2.367   7.043  0.4293 -0.0559 -0.1071
  171MOL0     H22514   9.828   2.292   6.876  0.4995  1.3359 -1.1058
  171MOL0     H22515   9.660   2.529   6.961  2.3364  1.2401 -0.9414
  171MOL0     H22516   9.654   2.445   6.807 -0.2579 -0.7348 -0.4600
  171MOL0     H22517   9.575   2.322   7.083 -2.3184  1.6158  1.6879
  171MOL0     H22518   9.556   2.252   6.917 -1.4425  0.0766 -1.1058
  171MOL0     H22519   9.407   2.438   6.850 -0.1556 -2.5008 -0.5541
  171MOL0     H22520   9.426   2.509   7.016  2.1469  0.6420 -0.9781
  171MOL0     H22521   9.249   2.287   6.905 -0.9785 -0.3518  1.5848
  171MOL0     H22522   9.317   2.253   7.061 -3.0888 -1.9271 -0.6911
  171MOL0     H22523   9.215   2.458   7.158  0.1876  1.6920 -1.8860
  171MOL0     H22524   9.102   2.340   7.114  2.0333  0.5626  3.2743
  171MOL0     H22525   9.131   2.692   7.071 -1.6410  1.4747 -0.8816
  171MOL0     H22526   8.878   2.820   6.820 -0.5426 -0.7307 -0.1861
  171MOL0     H22527   9.006   2.878   6.935  1.3721 -2.6245  2.4096
  171MOL0     H22528   8.787   2.937   7.010 -0.4914 -0.6724  0.9233
  171MOL0     H22529   8.869   2.840   7.128 -0.7047 -0.7003  0.5455
  171MOL0     H22530   8.742   2.645   7.058  2.3441  0.8535 -1.3259
  171MOL0     H22531   8.643   2.775   7.137  1.5945  1.1190  0.8708
  171MOL0     H22532   8.518   2.709   6.942  1.2193  1.0732 -0.4716
  171MOL0     H22533   8.657   2.726   6.829  0.4521  0.1586 -0.2537
  171MOL0     H22534   8.505   3.146   6.831  3.1893 -1.9231 -0.9812
  171MOL0     H22535   8.304   3.214   6.715  2.0509  0.9813  0.2991
  171MOL0     H22536   7.946   3.109   6.369 -1.5754 -0.6833 -1.9538
  171MOL0     H22537   7.694   3.129   6.303 -0.1066  2.3764  1.6278
  171MOL0     H22538   7.518   3.051   6.199 -0.0065  2.9513 -1.3176
  171MOL0     H22539   7.449   3.166   6.303  3.3221 -0.0658 -2.8133
  171MOL0     H22540   7.327   2.924   6.170  0.6114 -0.5616  0.6838
  171MOL0     H22541   7.259   3.081   6.185  1.4222  0.4213 -1.1729
  171MOL0     H22542   7.179   3.056   6.417 -0.4651 -1.1284  1.0387
  171MOL0     H22543   7.261   2.914   6.446 -0.2998  1.7386  1.3102
  171MOL0     H22544   7.059   2.910   6.224  1.6897  3.5109  0.6212
  171MOL0     H22545   7.129   2.780   6.338 -2.0805 -1.8339 -1.5866
  171MOL0     H22546   6.977   2.859   6.512  0.9806 -1.0689 -0.0451
  171MOL0     H22547   6.880   2.818   6.370 -0.9654  0.6845  2.3700
  171MOL0     H22548   6.851   3.041   6.315 -0.6155  1.6523  1.2848
  171MOL0     H22549   6.975   3.096   6.422  0.5237  0.7615 -0.6425
  171MOL0     H22550   6.721   2.949   6.509 -2.9438 -0.0267 -0.1630
  171MOL0     H22551   6.847   3.024   6.615  2.9349  0.0182 -2.9044
  171MOL0     H22552   6.784   3.240   6.481 -0.6093  1.9755  1.8164
  171MOL0     H22553   6.664   3.197   6.596 -0.7396 -2.2247 -0.4594
  171MOL0     H22554   7.594   2.834   6.593 -2.4637 -2.5439 -3.5423
  171MOL0     H22555   7.849   2.810   6.643  3.2937  1.1466  0.2993
  171MOL0     H22556   8.222   2.807   6.605  0.1359  0.1630 -0.4286
  171MOL0     H22557   8.397   2.733   6.758 -0.6264  0.9881  1.2976
  171MOL0     H22558  10.318   2.364   6.799  0.7051  1.3310 -2.0661
  171MOL0     H22559  10.553   2.312   6.897  0.5159  2.3363 -1.2581
  171MOL0     H22560  11.014   2.672   7.003  1.6092 -0.6091 -0.9837
  171MOL0     H22561  11.187   2.695   7.160 -0.3142  0.6140  1.9531
  171MOL0     H22562  11.236   2.425   7.476 -1.0946  0.0344  1.3337
  171MOL0     H22563  11.199   2.576   7.573  2.5437 -1.0773  3.1856
  171MOL0     H22564  11.427   2.475   7.604 -2.1264 -2.5476 -0.8552
  171MOL0     H22565  11.460   2.517   7.436 -0.9809  0.5016 -0.1062
  171MOL0     H22566  11.349   2.708   7.661  1.0988 -1.4114  0.9033
  171MOL0     H22567  11.406   2.764   7.503 -1.1943 -1.6976 -0.7516
  171MOL0     H22568  11.588   2.649   7.719 -0.4266 -2.1782 -0.6290
  171MOL0     H22569  11.635   2.679   7.555  0.8050  0.0847  1.3295
  171MOL0     H22570  11.707   3.040   7.756 -2.0235  1.1525  0.4526
  171MOL0     H22571  11.008   2.436   7.440  3.0862  1.6545  1.2530
  171MOL0     H22572  10.809   2.400   7.280  1.1473 -0.9663 -0.8045
  172MOL0     O22573   0.216   0.623   2.357 -0.6689 -0.3700  0.2735
  172MOL0     C22574   0.233   0.737   2.405  0.3526 -0.2376 -0.6761
  172MOL0     O22575   0.154   0.848   2.400 -0.1586  0.8131  0.1029
  172MOL0     C22576   0.041   0.842   2.323 -0.5342  0.2871 -0.5582
  172MOL0     C22577   0.054   0.880   2.189 -0.1765  0.4319 -1.3914
  172MOL0     C22578  -0.059   0.865   2.109 -0.1547  0.1617  0.8708
  172MOL0     C22579  -0.184   0.812   2.149 -1.0373 -0.2775 -0.6284
  172MOL0     O22580  -0.299   0.794   2.083  0.3091 -0.9069  0.3844
  172MOL0     C22581  -0.294   0.841   1.948  0.0337 -0.3280  0.1844
  172MOL0     C22582  -0.445   0.859   1.914 -0.4661  0.7514  0.2531
  172MOL0     C22583  -0.473   0.818   1.767 -0.1234  0.1586  1.0361
  172MOL0     C22584  -0.619   0.812   1.716  0.0235  0.0021 -0.3011
  172MOL0     C22585  -0.685   0.674   1.727  0.5671 -0.1945  0.6881
  172MOL0     C22586  -0.832   0.678   1.678 -0.4316  0.7756 -1.0274
  172MOL0     C22587  -0.850   0.661   1.522 -0.4076 -0.5226  0.2990
  172MOL0     C22588  -0.992   0.662   1.471  1.4190 -0.0114 -0.4885
  172MOL0     N22589  -0.985   0.615   1.338 -0.1396  0.1097 -1.2953
  172MOL0     C22590  -1.065   0.519   1.288  0.6025  1.0601  0.8690
  172MOL0     C22591  -1.027   0.494   1.162 -0.3185 -0.4728  0.2342
  172MOL0     C22592  -1.063   0.389   1.062 -0.6662  0.2221 -0.8095
  172MOL0     C22593  -1.131   0.265   1.119  0.0061  0.5552 -0.5882
  172MOL0     C22594  -1.111   0.151   1.020  0.2547 -0.2211 -0.5972
  172MOL0     C22595  -1.150   0.018   1.085  0.1479 -0.3354 -0.3840
  172MOL0     O22596  -1.285   0.006   1.128  0.2860  0.1025 -0.2339
  172MOL0     C22597  -1.382  -0.000   1.033  0.4240 -0.0051 -0.5278
  172MOL0     C22598  -1.367  -0.062   0.908  0.4129  0.0798  0.4682
  172MOL0     C22599  -1.470  -0.077   0.812  0.4636 -0.1710  0.1484
  172MOL0     C22600  -1.599  -0.020   0.844 -1.1892  0.5593  0.3284
  172MOL0     C22601  -1.710  -0.011   0.746 -0.1361  0.0574 -0.5426
  172MOL0     O22602  -1.736  -0.125   0.682  0.2749  0.5788  0.2781
  172MOL0     C22603  -1.849  -0.128   0.598 -0.4751 -0.2521  0.7596
  172MOL0     C22604  -1.981  -0.118   0.643  0.6919 -0.3913 -0.5059
  172MOL0     C22605  -2.093  -0.123   0.548 -0.3587 -0.0280  0.0566
  172MOL0     C22606  -2.064  -0.145   0.415 -0.0184  0.5540 -1.0166
  172MOL0     O22607  -2.171  -0.142   0.333 -0.1817 -0.4383 -0.7830
  172MOL0     C22608  -2.161  -0.113   0.194 -0.6136 -0.3722 -0.3032
  172MOL0     C22609  -2.299  -0.150   0.137 -1.4525 -0.0837 -0.3284
  172MOL0     C22610  -2.412  -0.064   0.204 -0.3784 -0.1303 -0.8573
  172MOL0     C22611  -2.544  -0.062   0.124 -0.2689 -0.6803  0.4636
  172MOL0     C22612  -2.591  -0.196   0.068  1.1988 -0.0899 -1.5698
  172MOL0     C22613  -2.658  -0.282   0.167 -0.8443  0.4326 -0.0200
  172MOL0     C22614  -2.731  -0.400   0.096 -0.4012  0.7623 -0.0433
  172MOL0     C22615  -2.624  -0.508   0.057 -0.5478  0.4918 -0.0592
  172MOL0    Cl22616  -2.603  -0.515  -0.120  0.4363 -0.1011  0.3434
  172MOL0     C22617  -1.931  -0.156   0.372 -0.0313 -0.1728  0.0337
  172MOL0     C22618  -1.824  -0.147   0.457 -0.6088  0.4652 -0.9712
  172MOL0     O22619  -1.765   0.098   0.734 -0.3315  0.0588 -0.2399
  172MOL0     C22620  -1.610   0.052   0.960  0.3231 -0.5160 -0.2437
  172MOL0     C22621  -1.508   0.054   1.057  0.4256 -0.2934  0.1630
  172MOL0     N22622  -0.923   0.580   1.142 -0.6105 -0.1912 -0.4871
  172MOL0     N22623  -0.902   0.654   1.242  0.5640  0.3113 -0.7086
  172MOL0     C22624  -0.187   0.776   2.281 -1.0825 -1.2372 -1.1808
  172MOL0     C22625  -0.082   0.792   2.370  0.4797  0.3380  0.1530
  172MOL0     C22626   0.369   0.749   2.469  0.4323 -0.6863  0.3843
  172MOL0     C22627   0.434   0.868   2.482 -0.7975  0.2181 -0.4049
  172MOL0     C22628   0.554   0.875   2.550 -0.8940  0.3500  0.0408
  172MOL0     C22629   0.618   0.761   2.607  0.5861 -0.3868  0.4290
  172MOL0     O22630   0.737   0.775   2.661  0.3733 -1.0165 -0.1118
  172MOL0     C22631   0.786   0.681   2.760  0.8125  0.5402  0.1888
  172MOL0     C22632   0.860   0.742   2.865  0.4962  0.8746  0.2437
  172MOL0     C22633   0.793   0.828   2.979 -0.3980  0.9483  0.5217
  172MOL0     C22634   0.750   0.971   2.935  0.0196  0.2248 -0.2515
  172MOL0     C22635   0.869   1.046   2.890  0.2793  0.3790 -0.8240
  172MOL0     C22636   0.958   1.112   2.846  0.6141  0.3500 -0.4428
  172MOL0     C22637   0.555   0.638   2.580 -0.6670  0.4980 -0.3897
  172MOL0     C22638   0.433   0.635   2.518 -0.4790 -0.0088  0.0246
  172MOL0     H22639   0.154   0.912   2.162  2.0896 -2.3623  2.5187
  172MOL0     H22640  -0.038   0.890   2.006 -1.7886 -2.4298 -0.1847
  172MOL0     H22641  -0.259   0.762   1.881 -1.4733 -0.4222 -0.5121
  172MOL0     H22642  -0.246   0.937   1.930  0.3625 -0.5513 -0.1448
  172MOL0     H22643  -0.487   0.954   1.949 -0.2626  0.1452  2.2796
  172MOL0     H22644  -0.500   0.788   1.977  0.6699  2.3935  3.3404
  172MOL0     H22645  -0.442   0.718   1.735 -0.6095  0.7584 -1.5119
  172MOL0     H22646  -0.427   0.896   1.707 -2.5209  0.3410 -0.6933
  172MOL0     H22647  -0.681   0.878   1.777 -0.3340 -1.0530  0.5200
  172MOL0     H22648  -0.614   0.840   1.610  2.0398  1.4792  0.1266
  172MOL0     H22649  -0.681   0.644   1.832  1.3907 -0.8219  0.4881
  172MOL0     H22650  -0.629   0.591   1.683 -0.8091 -1.1209  0.6034
  172MOL0     H22651  -0.883   0.772   1.702 -0.6647  0.1599  1.0778
  172MOL0     H22652  -0.892   0.603   1.730 -2.0040  2.2637 -0.6250
  172MOL0     H22653  -0.791   0.745   1.484  1.6512 -2.2055 -0.4025
  172MOL0     H22654  -0.812   0.563   1.493 -0.5127 -0.7421  0.8802
  172MOL0     H22655  -1.040   0.761   1.472 -0.0224 -0.6948  0.2283
  172MOL0     H22656  -1.052   0.597   1.534 -0.0489  1.3452 -0.4326
  172MOL0     H22657  -1.143   0.459   1.333  1.4386 -0.2952  0.5600
  172MOL0     H22658  -0.970   0.364   1.011  0.2740  1.5592  0.1721
  172MOL0     H22659  -1.117   0.446   0.986  0.6070  2.6001 -0.0352
  172MOL0     H22660  -1.233   0.299   1.138 -0.7603  0.4768 -3.9538
  172MOL0     H22661  -1.091   0.244   1.219 -0.8304 -0.3068 -0.4199
  172MOL0     H22662  -1.172   0.167   0.931  1.1992 -0.3428 -1.2834
  172MOL0     H22663  -1.013   0.149   0.970 -0.0687 -4.9263 -1.4643
  172MOL0     H22664  -1.107   0.017   1.186 -0.7143 -1.8575  0.0011
  172MOL0     H22665  -1.123  -0.078   1.040  5.4212  0.0501  1.2594
  172MOL0     H22666  -1.273  -0.095   0.865  0.4651  1.2901 -0.3797
  172MOL0     H22667  -1.464  -0.113   0.710  3.9793 -1.5402  0.6959
  172MOL0     H22668  -2.013  -0.103   0.746  0.7079 -0.6869 -0.4561
  172MOL0     H22669  -2.195  -0.113   0.582  0.0181 -1.3802  1.7351
  172MOL0     H22670  -2.086  -0.165   0.133  1.5580  1.4798  0.6339
  172MOL0     H22671  -2.153  -0.004   0.191  0.8729 -0.4605 -0.8769
  172MOL0     H22672  -2.318  -0.256   0.155  1.2818 -1.0812 -2.4476
  172MOL0     H22673  -2.286  -0.131   0.030  1.5580 -0.2359 -0.0922
  172MOL0     H22674  -2.377   0.039   0.221  0.6713 -0.5214 -0.5750
  172MOL0     H22675  -2.431  -0.103   0.304 -2.9118  0.9369 -0.8345
  172MOL0     H22676  -2.623  -0.017   0.185  1.1967  2.5515  0.1942
  172MOL0     H22677  -2.519  -0.003   0.035  2.0117 -0.7711  0.9803
  172MOL0     H22678  -2.505  -0.249   0.025 -0.2037 -1.3958 -2.9082
  172MOL0     H22679  -2.662  -0.174  -0.012 -1.5468  1.3619  1.0616
  172MOL0     H22680  -2.722  -0.213   0.224 -0.6129 -0.5706  1.5116
  172MOL0     H22681  -2.577  -0.321   0.229 -0.4417 -0.1496 -0.8972
  172MOL0     H22682  -2.817  -0.444   0.148  1.6479 -1.3673  1.7337
  172MOL0     H22683  -2.762  -0.364  -0.002  1.4364  0.6745 -0.6922
  172MOL0     H22684  -2.667  -0.605   0.082  0.3580  0.1155  0.0578
  172MOL0     H22685  -2.527  -0.495   0.106 -1.1448 -0.0834  1.3144
  172MOL0     H22686  -1.909  -0.135   0.268 -2.7730  5.4386  0.1908
  172MOL0     H22687  -1.722  -0.144   0.421  0.6333  2.3544  2.2440
  172MOL0     H22688  -1.706   0.095   0.988 -0.0006 -2.4777  2.0176
  172MOL0     H22689  -1.526   0.114   1.145  2.8656 -0.7535  1.0594
  172MOL0     H22690  -0.279   0.735   2.321 -1.0513 -0.2179 -0.0057
  172MOL0     H22691  -0.085   0.765   2.475 -0.2494  4.7927  1.4819
  172MOL0     H22692   0.392   0.957   2.435 -1.1451  1.5693  2.2406
  172MOL0     H22693   0.601   0.973   2.553 -4.6392  2.3815 -0.6555
  172MOL0     H22694   0.844   0.606   2.705 -1.5887 -3.3377  2.4240
  172MOL0     H22695   0.701   0.630   2.806  1.4069  2.6896  3.9998
  172MOL0     H22696   0.908   0.666   2.927  1.6565 -3.3330 -5.0623
  172MOL0     H22697   0.942   0.795   2.815 -0.0904  0.5057 -1.1836
  172MOL0     H22698   0.869   0.834   3.057  2.2488 -2.7574 -1.4410
  172MOL0     H22699   0.703   0.784   3.023 -0.3189 -3.2640 -2.8284
  172MOL0     H22700   0.679   0.977   2.852 -0.9095 -0.5719  0.4488
  172MOL0     H22701   0.713   1.025   3.023 -0.2067  0.1716 -0.3132
  172MOL0     H22702   1.028   1.178   2.800  5.6034 -4.4304 -0.7962
  172MOL0     H22703   0.600   0.549   2.624 -0.8464  1.3729  1.6532
  172MOL0     H22704   0.376   0.543   2.514 -1.2514  0.3358  2.0221
  173MOL0     O22705  10.242   1.490   0.317  0.3340  0.4330  0.4539
  173MOL0     C22706  10.160   1.576   0.322  0.1696 -0.1312 -0.3426
  173MOL0     O22707  10.176   1.714   0.320 -0.1058 -0.3244 -0.6150
  173MOL0     C22708  10.301   1.756   0.284  0.4507 -0.1340 -0.4579
  173MOL0     C22709  10.343   1.857   0.368  0.6863  0.4984  0.4727
  173MOL0     C22710  10.464   1.923   0.341 -0.1885  0.6051 -1.0733
  173MOL0     C22711  10.541   1.886   0.241 -0.1461 -0.3590 -0.2660
  173MOL0     O22712  10.667   1.953   0.233 -0.2367 -0.7539 -0.0968
  173MOL0     C22713  10.769   1.871   0.170 -0.6648 -0.2059  0.1721
  173MOL0     C22714  10.902   1.944   0.220 -0.4315  0.0399 -0.0587
  173MOL0     C22715  11.028   1.855   0.204 -0.1847  1.0228 -0.5325
  173MOL0     C22716  11.149   1.927   0.257  0.5126 -0.2499 -0.3885
  173MOL0     C22717  11.264   1.833   0.273 -0.6658  0.0863 -1.0111
  173MOL0     C22718  11.356   1.872   0.394  0.8243  0.0050  0.4161
  173MOL0     C22719  11.414   2.009   0.369  0.9303  0.2306  0.5966
  173MOL0     C22720  11.521   2.068   0.469  0.9893 -0.2396 -0.1015
  173MOL0     N22721  11.644   1.988   0.469  0.2661 -0.2124 -0.6183
  173MOL0     C22722  11.682   1.882   0.559 -0.7537 -0.0752  0.7538
  173MOL0     C22723  11.800   1.845   0.512  0.1301 -0.2827  0.7897
  173MOL0     C22724  11.873   1.736   0.586 -0.0044 -0.2295  0.1746
  173MOL0     C22725  11.996   1.798   0.647 -1.7724  0.2128 -0.2317
  173MOL0     C22726  12.062   1.672   0.698 -0.0629  0.0429 -0.0282
  173MOL0     C22727  12.194   1.719   0.784  0.0610 -0.2557  0.6060
  173MOL0     O22728  12.165   1.806   0.898  0.0869 -0.4954 -0.6418
  173MOL0     C22729  12.260   1.798   1.002  0.9396  0.0778  0.5678
  173MOL0     C22730  12.393   1.761   0.982 -0.5107 -0.1930  0.3240
  173MOL0     C22731  12.479   1.767   1.094  0.0866 -0.4389  0.1861
  173MOL0     C22732  12.435   1.807   1.217 -0.6273  0.7173  0.1768
  173MOL0     C22733  12.535   1.835   1.333  0.2491  0.6664 -0.2936
  173MOL0     O22734  12.666   1.808   1.310 -0.5709  0.1137  0.2715
  173MOL0     C22735  12.761   1.821   1.409  0.1627  0.0234  0.3470
  173MOL0     C22736  12.851   1.926   1.393  0.2035  0.2690 -0.2392
  173MOL0     C22737  12.951   1.941   1.483  0.5833 -1.4138 -0.4950
  173MOL0     C22738  12.962   1.858   1.597  0.4942  0.4177 -0.0243
  173MOL0     O22739  13.085   1.873   1.657 -0.1259 -0.1206  0.4496
  173MOL0     C22740  13.122   1.796   1.770 -0.6405 -0.6958 -0.4965
  173MOL0     C22741  13.158   1.658   1.730  0.9375  0.1984  0.6768
  173MOL0     C22742  13.241   1.608   1.854  0.3748  0.5653 -0.2442
  173MOL0     C22743  13.297   1.468   1.833 -1.1747 -0.1917  0.3971
  173MOL0     C22744  13.190   1.359   1.821  0.8821  0.3007 -0.3169
  173MOL0     C22745  13.253   1.211   1.811 -0.3324  0.2117 -0.1648
  173MOL0     C22746  13.153   1.113   1.878  0.3747 -0.4209  0.7592
  173MOL0     C22747  13.195   0.966   1.849  0.0086  0.6056  0.0939
  173MOL0    Cl22748  13.056   0.879   1.913  0.4197  0.2420 -0.1931
  173MOL0     C22749  12.865   1.756   1.620 -0.4536  0.7342 -0.4863
  173MOL0     C22750  12.764   1.739   1.517 -1.0811 -0.8580  0.2922
  173MOL0     O22751  12.480   1.867   1.441  0.1929  0.4448  0.4861
  173MOL0     C22752  12.296   1.831   1.233 -0.2369 -0.3445 -0.3664
  173MOL0     C22753  12.213   1.829   1.126  0.2839  0.0417 -0.6264
  173MOL0     N22754  11.831   1.904   0.387  0.6861 -0.4097 -0.3643
  173MOL0     N22755  11.729   1.979   0.368 -0.4375 -0.7890 -0.5762
  173MOL0     C22756  10.507   1.782   0.165  0.5141  0.5100  0.2359
  173MOL0     C22757  10.385   1.711   0.182  0.5008 -0.2485  1.5695
  173MOL0     C22758  10.027   1.522   0.323  0.1194  0.2504  1.0650
  173MOL0     C22759   9.909   1.603   0.308 -0.6209  0.0267  0.7156
  173MOL0     C22760   9.784   1.559   0.318 -0.8215 -0.3758 -0.3241
  173MOL0     C22761   9.765   1.417   0.320 -0.6377  0.2213 -0.6800
  173MOL0     O22762   9.638   1.366   0.335 -0.2113  0.5687  0.0545
  173MOL0     C22763   9.537   1.426   0.247  0.8456 -0.6405  1.2309
  173MOL0     C22764   9.511   1.335   0.120 -0.2050 -0.1228 -0.1600
  173MOL0     C22765   9.469   1.188   0.153  0.0384 -1.7431  0.4320
  173MOL0     C22766   9.315   1.193   0.183  0.8631 -0.2449 -0.2477
  173MOL0     C22767   9.238   1.083   0.124  0.0070 -0.2358  0.1653
  173MOL0     C22768   9.162   0.988   0.094  0.7010 -0.5257 -0.3033
  173MOL0     C22769   9.876   1.332   0.319 -0.2934  0.1981  0.5399
  173MOL0     C22770  10.002   1.386   0.312 -0.6779  1.2895 -0.0295
  173MOL0     H22771  10.281   1.882   0.453  1.1595 -2.7437  1.9098
  173MOL0     H22772  10.484   1.997   0.418 -1.3241 -0.9005  0.7619
  173MOL0     H22773  10.757   1.870   0.061  2.3708 -3.1537 -0.2956
  173MOL0     H22774  10.773   1.767   0.202 -0.3639 -0.5194 -0.8360
  173MOL0     H22775  10.901   1.969   0.326 -0.2475 -0.6947  0.1222
  173MOL0     H22776  10.914   2.031   0.155  0.9115 -0.1653 -0.1227
  173MOL0     H22777  11.041   1.829   0.098 -0.3025 -0.2375 -0.2589
  173MOL0     H22778  11.008   1.762   0.258  1.2986  1.1138  0.2217
  173MOL0     H22779  11.179   2.008   0.189  3.6140 -1.1700 -0.2761
  173MOL0     H22780  11.124   1.965   0.356  3.2372 -3.1054  1.5831
  173MOL0     H22781  11.328   1.831   0.184  1.2300 -0.7640  0.3003
  173MOL0     H22782  11.233   1.731   0.296  0.8517  0.3284  2.8477
  173MOL0     H22783  11.443   1.806   0.405  1.5326  0.4902 -1.7874
  173MOL0     H22784  11.305   1.873   0.491  3.5608 -1.2693  2.0056
  173MOL0     H22785  11.436   2.021   0.263 -2.5468 -3.3546 -0.7963
  173MOL0     H22786  11.335   2.085   0.375  1.5279  0.8466  0.7086
  173MOL0     H22787  11.486   2.065   0.572 -0.0878 -1.6631 -0.4703
  173MOL0     H22788  11.540   2.172   0.444 -3.1493  0.7217 -0.0832
  173MOL0     H22789  11.641   1.851   0.654 -0.5029 -2.8759  0.0254
  173MOL0     H22790  11.891   1.647   0.525 -5.0777 -0.3116 -1.6571
  173MOL0     H22791  11.812   1.695   0.667 -2.1720  0.4670 -1.0371
  173MOL0     H22792  11.970   1.879   0.716 -0.5188  2.0935 -1.8608
  173MOL0     H22793  12.056   1.840   0.566 -0.3116 -3.2351 -1.1278
  173MOL0     H22794  12.005   1.606   0.764 -1.3353  1.9580  0.8797
  173MOL0     H22795  12.082   1.601   0.617 -1.1663 -4.4834  3.2608
  173MOL0     H22796  12.252   1.776   0.710  1.2526 -2.5923 -0.3515
  173MOL0     H22797  12.242   1.627   0.818  0.9825 -1.5260 -3.5642
  173MOL0     H22798  12.428   1.733   0.883  0.1591  0.7957  0.2697
  173MOL0     H22799  12.581   1.737   1.077 -0.3468 -1.3611 -0.9167
  173MOL0     H22800  12.838   1.995   1.310 -2.5993 -1.0052 -0.9902
  173MOL0     H22801  13.037   2.005   1.468  0.2633 -1.0061 -0.5887
  173MOL0     H22802  13.037   1.788   1.839  0.2111 -0.0958  0.6548
  173MOL0     H22803  13.197   1.856   1.820 -0.8168 -1.9243  1.3433
  173MOL0     H22804  13.205   1.655   1.631 -0.4147 -2.0368  0.0409
  173MOL0     H22805  13.064   1.604   1.723  0.6066  0.9670 -1.2966
  173MOL0     H22806  13.172   1.604   1.938 -4.0751  0.8898 -3.4928
  173MOL0     H22807  13.325   1.676   1.872  0.7467 -0.3684  1.7976
  173MOL0     H22808  13.362   1.481   1.746 -0.0646 -0.7112  1.1295
  173MOL0     H22809  13.366   1.439   1.912  0.7769 -2.4119 -1.9191
  173MOL0     H22810  13.115   1.382   1.744 -2.2246 -0.9965  2.0897
  173MOL0     H22811  13.137   1.379   1.915  2.0615  0.7935  0.2719
  173MOL0     H22812  13.350   1.211   1.862 -1.2392  1.4233  1.6700
  173MOL0     H22813  13.269   1.185   1.706 -1.5089  0.6491 -0.4613
  173MOL0     H22814  13.150   1.136   1.984  0.0387  3.2365  0.0925
  173MOL0     H22815  13.047   1.123   1.852  1.1120  1.9448 -2.0120
  173MOL0     H22816  13.276   0.937   1.916 -2.3794 -2.5342  1.9495
  173MOL0     H22817  13.211   0.948   1.743  2.3539  1.9131  0.1647
  173MOL0     H22818  12.872   1.692   1.707  3.0564 -0.5641 -1.5587
  173MOL0     H22819  12.701   1.650   1.522 -2.9270  0.3976  0.1406
  173MOL0     H22820  12.259   1.871   1.327 -2.1487  0.9453 -1.5826
  173MOL0     H22821  12.108   1.858   1.134  0.2758  0.1685 -1.1692
  173MOL0     H22822  10.581   1.756   0.090 -1.1549  0.4560 -1.4398
  173MOL0     H22823  10.359   1.633   0.111  1.3349  1.1664 -0.3770
  173MOL0     H22824   9.935   1.707   0.295  1.0442 -0.3605  0.7206
  173MOL0     H22825   9.703   1.632   0.316  1.6241  2.8218  2.8483
  173MOL0     H22826   9.551   1.529   0.216 -0.9567 -1.1481 -1.6231
  173MOL0     H22827   9.453   1.424   0.318 -0.7974 -3.0257 -0.6050
  173MOL0     H22828   9.434   1.387   0.062  0.9687  0.1095 -1.5574
  173MOL0     H22829   9.599   1.339   0.056 -1.4414 -1.6297 -2.0863
  173MOL0     H22830   9.531   1.143   0.231  1.9086  0.2784  0.1909
  173MOL0     H22831   9.479   1.131   0.060 -1.1567 -2.3358  0.6438
  173MOL0     H22832   9.296   1.199   0.291 -1.5789  0.8075 -0.6563
  173MOL0     H22833   9.277   1.287   0.142  1.1384 -0.1001 -0.1722
  173MOL0     H22834   9.083   0.923   0.065  2.9634 -3.6304 -0.0531
  173MOL0     H22835   9.877   1.224   0.327  2.8353  0.2198  1.6986
  173MOL0     H22836  10.090   1.322   0.312  0.4886  2.6924 -3.5390
  174MOL0     O22837   7.313   3.704   3.721  0.3045 -0.7265 -0.3540
  174MOL0     C22838   7.352   3.592   3.754  0.4636 -0.8884 -0.0617
  174MOL0     O22839   7.287   3.517   3.853  0.1345  0.4853 -0.5044
  174MOL0     C22840   7.150   3.509   3.864  0.8439  0.0119  0.1159
  174MOL0     C22841   7.059   3.477   3.761  0.3867 -1.0505 -0.9396
  174MOL0     C22842   6.921   3.472   3.782  0.6054  0.1970 -0.6879
  174MOL0     C22843   6.870   3.507   3.905 -0.1877 -0.8211 -0.6951
  174MOL0     O22844   6.740   3.539   3.928 -0.4630 -0.5085  0.6012
  174MOL0     C22845   6.661   3.572   3.818  0.9141  0.4674  0.3479
  174MOL0     C22846   6.512   3.588   3.842 -0.2247  0.2176  0.5496
  174MOL0     C22847   6.451   3.701   3.922  0.1551  0.0447 -0.7443
  174MOL0     C22848   6.302   3.670   3.961  0.1505 -0.6148 -0.0651
  174MOL0     C22849   6.237   3.783   4.035 -0.2016 -0.3473 -0.1908
  174MOL0     C22850   6.101   3.757   4.065  0.6603  0.2381  0.0983
  174MOL0     C22851   6.017   3.888   4.081 -0.2865  0.4125  0.3428
  174MOL0     C22852   6.051   3.979   4.208  0.0351  0.1997  0.9329
  174MOL0     N22853   6.019   3.904   4.333  1.0511  0.4509 -0.3345
  174MOL0     C22854   6.105   3.827   4.401  0.5158  0.7126  0.8436
  174MOL0     C22855   6.045   3.799   4.516  0.2446 -0.3293 -0.3804
  174MOL0     C22856   6.132   3.739   4.628  0.0263 -1.5260  0.6543
  174MOL0     C22857   6.080   3.802   4.759 -0.3474 -0.6603  0.5523
  174MOL0     C22858   6.144   3.736   4.882  0.2645 -0.3920  0.0872
  174MOL0     C22859   6.073   3.752   5.016 -0.6669  0.3533  0.0119
  174MOL0     O22860   6.056   3.884   5.063  0.1462 -0.0278  0.9510
  174MOL0     C22861   5.935   3.910   5.122 -0.7816  0.4349 -0.6125
  174MOL0     C22862   5.856   3.994   5.046  0.8408 -0.6876 -0.2228
  174MOL0     C22863   5.728   4.028   5.092 -0.5942 -0.3200  0.7755
  174MOL0     C22864   5.680   3.985   5.217 -0.2381 -0.0028 -0.0648
  174MOL0     C22865   5.534   4.002   5.254  0.2910 -0.4824  0.1053
  174MOL0     O22866   5.460   4.048   5.157 -0.1342  0.1197 -0.4176
  174MOL0     C22867   5.323   4.078   5.153  0.3216  0.8781 -0.5164
  174MOL0     C22868   5.280   4.143   5.044  0.1961  0.0168  0.8896
  174MOL0     C22869   5.141   4.161   5.026  0.1557 -0.1065  0.0727
  174MOL0     C22870   5.047   4.119   5.118 -0.1239  0.0188  0.0341
  174MOL0     O22871   4.909   4.111   5.107  0.1944  1.4178 -0.2324
  174MOL0     C22872   4.842   4.195   5.003 -0.0872 -0.6786 -0.3906
  174MOL0     C22873   4.686   4.186   5.018  1.2722 -0.3323  0.7641
  174MOL0     C22874   4.619   4.117   4.907  0.4463  0.2559  0.0850
  174MOL0     C22875   4.464   4.097   4.949 -1.0584 -0.1554 -0.0196
  174MOL0     C22876   4.377   4.016   4.856  0.6266  0.2570 -0.8688
  174MOL0     C22877   4.236   3.997   4.917  0.2371 -0.2262 -0.6058
  174MOL0     C22878   4.125   3.940   4.821  0.0085 -0.9008 -0.0383
  174MOL0     C22879   4.127   3.800   4.776  0.5522  0.1439  0.7261
  174MOL0    Cl22880   4.131   3.698   4.921  0.6339 -0.0404 -0.1565
  174MOL0     C22881   5.096   4.078   5.238 -0.6440  0.0369  0.2714
  174MOL0     C22882   5.230   4.055   5.256 -0.2241  0.1792  0.1597
  174MOL0     O22883   5.500   3.967   5.368  0.1706  0.3326  0.7718
  174MOL0     C22884   5.767   3.907   5.289 -1.0351  0.6420 -1.0059
  174MOL0     C22885   5.894   3.867   5.248 -0.0975  0.9885  0.6136
  174MOL0     N22886   5.925   3.859   4.517 -0.1929 -0.7773  0.4190
  174MOL0     N22887   5.905   3.915   4.403 -0.3468 -0.7877  1.0000
  174MOL0     C22888   6.954   3.535   4.011  0.4813 -0.3151 -0.5141
  174MOL0     C22889   7.095   3.528   3.989  0.1752  0.8067  0.0235
  174MOL0     C22890   7.478   3.543   3.707 -0.4570  0.2812  0.5482
  174MOL0     C22891   7.578   3.623   3.650 -1.1243  0.4960 -0.8014
  174MOL0     C22892   7.705   3.568   3.622  0.7292 -0.4929  0.7271
  174MOL0     C22893   7.734   3.433   3.638 -0.4088  0.3151 -0.3212
  174MOL0     O22894   7.866   3.394   3.619  0.0915 -1.1574 -0.2421
  174MOL0     C22895   7.885   3.249   3.613 -0.0589  0.2855 -0.5784
  174MOL0     C22896   8.022   3.223   3.568 -1.1467  0.6295  0.1331
  174MOL0     C22897   8.061   3.267   3.422 -0.0690  0.5206 -0.8234
  174MOL0     C22898   7.974   3.226   3.300 -0.5386 -1.3397 -0.7607
  174MOL0     C22899   7.859   3.313   3.286  1.1866  0.2334  0.2171
  174MOL0     C22900   7.762   3.382   3.306 -0.9696 -0.6147  0.2771
  174MOL0     C22901   7.630   3.346   3.674 -0.5117 -1.0943  0.3019
  174MOL0     C22902   7.506   3.410   3.709 -1.2851 -0.2258 -0.7914
  174MOL0     H22903   7.100   3.461   3.662  2.9333 -2.9468  0.3021
  174MOL0     H22904   6.871   3.454   3.687  1.4927  0.4035 -1.2093
  174MOL0     H22905   6.671   3.493   3.743  0.2824 -0.3134  1.0670
  174MOL0     H22906   6.691   3.666   3.772 -1.7924  2.9445  3.1774
  174MOL0     H22907   6.467   3.502   3.893  0.5749  0.0667  1.0093
  174MOL0     H22908   6.476   3.588   3.738 -0.1654 -3.8225  0.3751
  174MOL0     H22909   6.461   3.787   3.855  1.1057  1.1404  0.7443
  174MOL0     H22910   6.501   3.721   4.017 -1.3791  1.6301 -0.2211
  174MOL0     H22911   6.241   3.654   3.872 -0.8929 -0.1544  0.5507
  174MOL0     H22912   6.304   3.576   4.017 -0.5043 -1.8192 -1.9666
  174MOL0     H22913   6.237   3.869   3.967  0.7994  0.0370  0.2709
  174MOL0     H22914   6.295   3.797   4.127  1.2014 -1.9410 -0.7705
  174MOL0     H22915   6.090   3.694   4.154  0.1393 -0.0353 -0.1515
  174MOL0     H22916   6.044   3.702   3.989 -1.6410 -1.7336  2.9971
  174MOL0     H22917   6.030   3.945   3.989  2.2887  0.1803  0.4850
  174MOL0     H22918   5.912   3.862   4.094 -0.1046  0.8819  3.3083
  174MOL0     H22919   5.986   4.064   4.185  1.0884  0.2241 -2.3949
  174MOL0     H22920   6.156   4.007   4.216  0.5568 -1.6983  1.3462
  174MOL0     H22921   6.208   3.814   4.368  1.3500  4.3764  1.6543
  174MOL0     H22922   6.230   3.776   4.597 -0.6498  0.7022  0.9898
  174MOL0     H22923   6.128   3.630   4.625  0.1429 -1.5012 -1.5808
  174MOL0     H22924   5.972   3.786   4.759 -0.5369  0.3695 -0.7171
  174MOL0     H22925   6.099   3.910   4.769  1.8259 -1.0378  0.9898
  174MOL0     H22926   6.152   3.627   4.877 -1.3772 -0.5141 -0.6128
  174MOL0     H22927   6.241   3.782   4.903 -0.2915  0.3308  1.1751
  174MOL0     H22928   6.134   3.699   5.089  1.8679  0.6276 -1.7560
  174MOL0     H22929   5.978   3.698   5.010 -1.2100  1.3053 -0.0681
  174MOL0     H22930   5.890   4.025   4.947  1.3592 -3.6114 -1.0603
  174MOL0     H22931   5.676   4.098   5.026 -0.8656 -2.3720 -1.3232
  174MOL0     H22932   5.355   4.170   4.971  0.6416  3.0597  2.2797
  174MOL0     H22933   5.106   4.210   4.936  1.4483  0.2936 -0.2268
  174MOL0     H22934   4.867   4.152   4.905  2.9305  1.8895 -0.8940
  174MOL0     H22935   4.871   4.300   5.000 -1.4048 -0.2454  0.8536
  174MOL0     H22936   4.640   4.284   5.031 -2.3891 -1.6664 -0.8785
  174MOL0     H22937   4.664   4.132   5.111 -2.0023 -0.0404  0.2813
  174MOL0     H22938   4.658   4.016   4.894  0.9855  0.1167  2.3894
  174MOL0     H22939   4.620   4.168   4.810 -0.3203 -1.2123 -0.7177
  174MOL0     H22940   4.456   4.067   5.054  0.9086  2.2756  0.9407
  174MOL0     H22941   4.426   4.200   4.946  2.2973  1.1940 -0.8405
  174MOL0     H22942   4.420   3.918   4.836 -0.6295  0.1630 -3.6320
  174MOL0     H22943   4.379   4.073   4.763  3.9648  1.8009 -0.0208
  174MOL0     H22944   4.210   4.091   4.967 -3.6578 -0.1113 -2.4722
  174MOL0     H22945   4.234   3.918   4.993 -0.2606 -1.0363 -1.4435
  174MOL0     H22946   4.034   3.950   4.880 -0.2094 -0.8877 -0.3777
  174MOL0     H22947   4.115   4.004   4.733 -0.8462  1.4830  1.6762
  174MOL0     H22948   4.216   3.778   4.716 -0.3653 -0.6531 -0.3973
  174MOL0     H22949   4.037   3.766   4.724 -1.0061  3.1443  1.2437
  174MOL0     H22950   5.028   4.047   5.316 -0.0900 -1.8197  0.0648
  174MOL0     H22951   5.260   4.021   5.355 -0.9915  0.6846  0.5810
  174MOL0     H22952   5.743   3.862   5.385 -2.0850 -1.1589 -2.0546
  174MOL0     H22953   5.963   3.793   5.287 -0.7658 -1.1004 -1.9073
  174MOL0     H22954   6.918   3.559   4.110  0.9252  0.2290 -0.4809
  174MOL0     H22955   7.160   3.561   4.069 -1.0411 -1.4211  2.0258
  174MOL0     H22956   7.554   3.728   3.639 -2.3813  0.4420  1.1593
  174MOL0     H22957   7.789   3.630   3.591  2.9390 -3.0110  1.2462
  174MOL0     H22958   7.822   3.194   3.542  0.2890 -2.9794  1.4504
  174MOL0     H22959   7.856   3.197   3.705 -1.4384  2.9693  0.6390
  174MOL0     H22960   8.086   3.269   3.644  0.2879  0.0718 -0.6991
  174MOL0     H22961   8.040   3.115   3.562  0.7751  0.8000  1.9147
  174MOL0     H22962   8.161   3.229   3.399  2.0599  4.9642 -0.0148
  174MOL0     H22963   8.080   3.374   3.430  0.1848  0.3458  2.8584
  174MOL0     H22964   8.036   3.251   3.213 -1.6390  3.0547 -0.5101
  174MOL0     H22965   7.944   3.121   3.296 -5.7301 -0.1417 -4.0449
  174MOL0     H22966   7.678   3.444   3.331 -0.0431  0.3740  1.0253
  174MOL0     H22967   7.641   3.240   3.694 -0.2380 -0.5025  3.8502
  174MOL0     H22968   7.435   3.334   3.738  4.0570 -4.8374  2.2503
  175MOL0     O22969   3.433   0.915   9.643  0.3957 -0.3080 -0.2835
  175MOL0     C22970   3.520   0.874   9.716 -0.3243 -0.1577 -0.7233
  175MOL0     O22971   3.542   0.741   9.745  0.1893 -0.0485 -0.2949
  175MOL0     C22972   3.446   0.654   9.697  0.6266  0.7044  0.4178
  175MOL0     C22973   3.327   0.626   9.767 -0.5561 -0.4706  0.1449
  175MOL0     C22974   3.230   0.542   9.711 -0.8457  0.8899 -0.5085
  175MOL0     C22975   3.254   0.480   9.594 -0.6489  0.5260  0.7601
  175MOL0     O22976   3.166   0.398   9.527 -0.3028  0.3903  0.3894
  175MOL0     C22977   3.039   0.358   9.571  0.5347  0.8861 -0.0028
  175MOL0     C22978   2.983   0.269   9.467  1.4486  0.3536 -0.0741
  175MOL0     C22979   2.922   0.343   9.346 -0.7037 -0.2514 -0.0542
  175MOL0     C22980   2.862   0.242   9.245  0.2134  0.1431  0.0543
  175MOL0     C22981   2.810   0.285   9.108  0.0014  0.3277  0.3180
  175MOL0     C22982   2.732   0.409   9.103  0.6171 -0.1274  0.1441
  175MOL0     C22983   2.711   0.456   8.956  0.1722 -0.7868  0.1377
  175MOL0     C22984   2.625   0.355   8.871  0.6722 -0.1036 -0.0127
  175MOL0     N22985   2.488   0.338   8.940  0.7608  0.2738 -0.4703
  175MOL0     C22986   2.451   0.225   9.017 -1.1657 -0.1296 -0.5080
  175MOL0     C22987   2.336   0.265   9.078  0.0043  0.2985 -0.0982
  175MOL0     C22988   2.250   0.171   9.162 -0.4945 -0.2173 -0.3576
  175MOL0     C22989   2.317   0.076   9.269  0.9182 -0.2449  0.7410
  175MOL0     C22990   2.226  -0.046   9.316  0.7987 -0.3700 -0.6603
  175MOL0     C22991   2.089   0.003   9.375 -0.6788  0.7895  0.6586
  175MOL0     O22992   1.989   0.060   9.283 -0.1623 -0.4474 -0.0652
  175MOL0     C22993   1.861   0.070   9.327  0.3138 -0.1143  0.0333
  175MOL0     C22994   1.825   0.098   9.465 -0.4979  0.1310  0.2052
  175MOL0     C22995   1.692   0.095   9.503  1.0197 -0.5530  0.2253
  175MOL0     C22996   1.591   0.062   9.421  0.4965 -1.5130  0.2881
  175MOL0     C22997   1.452   0.043   9.460 -0.7190  0.2014 -0.6016
  175MOL0     O22998   1.356   0.063   9.371  1.0453  0.2725 -0.3219
  175MOL0     C22999   1.224   0.023   9.408  0.0359  0.0703 -0.3476
  175MOL0     C23000   1.190  -0.103   9.445  0.3056 -0.1837  0.2604
  175MOL0     C23001   1.062  -0.143   9.452  0.2156 -0.0205 -0.3197
  175MOL0     C23002   0.951  -0.049   9.417  0.4643  0.4042  0.2653
  175MOL0     O23003   0.819  -0.080   9.430 -0.9326  0.3346 -0.4890
  175MOL0     C23004   0.784  -0.195   9.507 -0.0523 -0.3712  0.4971
  175MOL0     C23005   0.641  -0.220   9.455  0.2970 -0.0157 -0.0520
  175MOL0     C23006   0.581  -0.345   9.527  0.7706  0.1665 -0.3692
  175MOL0     C23007   0.429  -0.351   9.533  0.8920  0.6622  0.1466
  175MOL0     C23008   0.388  -0.485   9.600 -0.3219  0.7523 -0.2983
  175MOL0     C23009   0.236  -0.499   9.596  0.8078  0.0309 -0.4211
  175MOL0     C23010   0.176  -0.531   9.449  0.5050  0.9132 -0.2368
  175MOL0     C23011   0.048  -0.606   9.479 -0.2779 -0.2344 -0.5475
  175MOL0    Cl23012  -0.067  -0.513   9.572 -0.2801  0.0289 -0.1226
  175MOL0     C23013   0.990   0.078   9.379 -0.1422  0.0630 -0.2161
  175MOL0     C23014   1.129   0.112   9.376  0.6278  0.4087  1.5534
  175MOL0     O23015   1.432   0.021   9.576 -0.4578 -0.4510 -0.1600
  175MOL0     C23016   1.623   0.040   9.293  0.4624  0.6136  0.3684
  175MOL0     C23017   1.752   0.047   9.247 -0.2338 -0.6342  0.3504
  175MOL0     N23018   2.314   0.399   9.046  0.1866 -0.2139  0.2613
  175MOL0     N23019   2.405   0.434   8.969  0.0457 -0.7253 -0.6838
  175MOL0     C23020   3.362   0.528   9.513  0.6530 -0.5998 -0.4067
  175MOL0     C23021   3.455   0.610   9.569 -0.8580  0.3019 -0.2290
  175MOL0     C23022   3.590   0.967   9.799  0.4698 -0.4087 -0.4714
  175MOL0     C23023   3.687   0.920   9.890 -0.3405  0.2442  0.3951
  175MOL0     C23024   3.745   1.003   9.979  0.2317 -0.3061 -0.8326
  175MOL0     C23025   3.709   1.137   9.980 -0.2187 -0.7103  1.3383
  175MOL0     O23026   3.772   1.220  10.076 -0.0824  0.5973  0.0135
  175MOL0     C23027   3.685   1.318  10.125 -0.7819 -0.5950  0.0148
  175MOL0     C23028   3.732   1.377  10.256  0.4735 -0.4310  1.1639
  175MOL0     C23029   3.869   1.447  10.241 -0.2878  0.5588 -0.1459
  175MOL0     C23030   3.869   1.556  10.344 -0.6854 -0.9871  1.6416
  175MOL0     C23031   4.009   1.613  10.351  0.4533  0.3633  0.1866
  175MOL0     C23032   4.118   1.668  10.342  0.0574 -0.0964 -0.7072
  175MOL0     C23033   3.606   1.183   9.889  0.3146 -0.8358 -0.1559
  175MOL0     C23034   3.550   1.099   9.802 -0.0688  0.0023  0.2058
  175MOL0     H23035   3.321   0.674   9.864 -1.7084 -0.5736  0.1443
  175MOL0     H23036   3.133   0.530   9.759 -0.5803  1.0493  0.0826
  175MOL0     H23037   2.969   0.441   9.587  0.7710  1.5166 -1.9501
  175MOL0     H23038   3.059   0.303   9.664 -1.7766  1.2347  0.7787
  175MOL0     H23039   2.899   0.220   9.519  0.6920  0.3856 -1.2146
  175MOL0     H23040   3.050   0.195   9.422 -0.8426 -0.0577 -3.2491
  175MOL0     H23041   3.008   0.390   9.298  0.8552 -1.7927  1.1010
  175MOL0     H23042   2.852   0.422   9.376  0.1064  0.3546  0.2790
  175MOL0     H23043   2.930   0.160   9.221  0.9926  0.0495  2.3182
  175MOL0     H23044   2.783   0.186   9.296  0.6752  1.4034  2.2770
  175MOL0     H23045   2.750   0.199   9.077  1.6909 -1.2257  1.1220
  175MOL0     H23046   2.903   0.295   9.051  1.3222 -3.2405  1.5387
  175MOL0     H23047   2.791   0.482   9.159 -1.0243  1.2249  0.1978
  175MOL0     H23048   2.638   0.390   9.155 -1.3859  0.4288 -2.9880
  175MOL0     H23049   2.658   0.552   8.959  2.8278  0.7717  2.2410
  175MOL0     H23050   2.807   0.474   8.908 -0.1805 -2.4828 -1.3342
  175MOL0     H23051   2.674   0.260   8.848 -0.3435  0.0730 -3.3628
  175MOL0     H23052   2.615   0.394   8.770  1.1498 -0.8317 -0.3477
  175MOL0     H23053   2.511   0.135   9.023  1.0845  1.3537  0.7987
  175MOL0     H23054   2.191   0.119   9.086 -1.7581  0.2006  0.3141
  175MOL0     H23055   2.181   0.241   9.209 -0.0049  0.8315 -1.1866
  175MOL0     H23056   2.319   0.145   9.353 -2.1403  1.1577 -0.2144
  175MOL0     H23057   2.414   0.040   9.235  0.5623 -1.3468  0.8571
  175MOL0     H23058   2.200  -0.111   9.232 -1.5724  1.2312 -1.2628
  175MOL0     H23059   2.272  -0.109   9.392 -0.7785 -1.0909 -0.2623
  175MOL0     H23060   2.114   0.074   9.454  3.4994  1.2518 -0.8300
  175MOL0     H23061   2.035  -0.086   9.410  0.6775 -1.4443 -2.4224
  175MOL0     H23062   1.902   0.120   9.538 -1.9154  4.1766  0.7222
  175MOL0     H23063   1.664   0.115   9.606  1.6439  2.1476 -0.0619
  175MOL0     H23064   1.273  -0.172   9.458  1.5072  0.8035 -1.7035
  175MOL0     H23065   1.033  -0.241   9.489 -0.1583 -0.0160 -0.5952
  175MOL0     H23066   0.787  -0.164   9.612 -0.5494  1.6245 -0.0319
  175MOL0     H23067   0.839  -0.287   9.488  1.5115  1.3420 -5.2829
  175MOL0     H23068   0.647  -0.237   9.347 -0.8542  1.1854 -0.3241
  175MOL0     H23069   0.594  -0.124   9.477  1.3290  1.3773 -3.2483
  175MOL0     H23070   0.613  -0.329   9.630  2.1256  3.8898 -1.1818
  175MOL0     H23071   0.634  -0.427   9.476 -1.1778  1.5813 -5.2283
  175MOL0     H23072   0.370  -0.277   9.586 -1.6677  0.3783 -2.0668
  175MOL0     H23073   0.389  -0.353   9.431 -2.1418  0.0874  1.2530
  175MOL0     H23074   0.434  -0.490   9.699  2.6581 -2.8696 -1.6436
  175MOL0     H23075   0.432  -0.575   9.557 -0.8945  0.3388 -0.0406
  175MOL0     H23076   0.201  -0.402   9.630  0.7890  0.8587 -2.6333
  175MOL0     H23077   0.206  -0.574   9.670  0.8224 -0.6764 -1.1122
  175MOL0     H23078   0.159  -0.447   9.382 -0.6004  0.6657 -0.2846
  175MOL0     H23079   0.250  -0.602   9.409 -1.0663 -1.7762  1.3402
  175MOL0     H23080   0.054  -0.702   9.530 -1.1799 -0.1118 -0.1981
  175MOL0     H23081   0.003  -0.621   9.380  0.9690  1.3957 -1.3986
  175MOL0     H23082   0.926   0.162   9.356  1.6254  1.8666  1.1093
  175MOL0     H23083   1.161   0.208   9.339  2.2964 -0.4115  0.7318
  175MOL0     H23084   1.544   0.016   9.222 -0.3728  2.0144  0.7916
  175MOL0     H23085   1.762   0.019   9.142 -1.3286 -0.7439  0.2649
  175MOL0     H23086   3.367   0.490   9.412  0.8993 -0.3945 -0.4735
  175MOL0     H23087   3.539   0.635   9.505  3.8167 -5.0665  2.8768
  175MOL0     H23088   3.712   0.814   9.895 -0.8527 -0.1048 -2.6567
  175MOL0     H23089   3.812   0.981  10.062 -0.4779  1.8791  0.3867
  175MOL0     H23090   3.585   1.274  10.132 -1.3375  0.3616 -1.2773
  175MOL0     H23091   3.678   1.393  10.045  4.0588  0.0595 -0.0926
  175MOL0     H23092   3.655   1.439  10.302 -2.9128 -3.6263  0.2150
  175MOL0     H23093   3.744   1.291  10.322  4.9649 -1.3610 -0.4698
  175MOL0     H23094   3.879   1.494  10.142 -2.2190  2.1302  0.3324
  175MOL0     H23095   3.945   1.370  10.258 -1.6193 -0.4831  1.4019
  175MOL0     H23096   3.804   1.642  10.327  0.7349  0.7508  4.2928
  175MOL0     H23097   3.841   1.509  10.438 -0.9567 -2.3496  0.8921
  175MOL0     H23098   4.208   1.724  10.329 -0.0780 -0.0810 -1.6456
  175MOL0     H23099   3.585   1.289   9.881 -1.7333 -1.2272 -0.4907
  175MOL0     H23100   3.464   1.139   9.749  0.0863 -1.5257 -1.2765
  176MOL0     O23101  10.155   3.962   1.361 -0.3159 -0.5535 -0.2758
  176MOL0     C23102  10.102   4.065   1.401 -0.6309  0.8912 -0.0650
  176MOL0     O23103   9.969   4.076   1.435 -0.3258  0.3968 -0.2089
  176MOL0     C23104   9.875   3.976   1.399  0.7811 -1.0175 -0.3570
  176MOL0     C23105   9.781   3.936   1.492 -0.9232 -0.0539 -0.3208
  176MOL0     C23106   9.691   3.837   1.467 -0.4283  0.3435  0.3735
  176MOL0     C23107   9.687   3.771   1.340 -0.6387  0.1408 -0.6334
  176MOL0     O23108   9.603   3.669   1.328  0.4233 -0.4373 -0.1321
  176MOL0     C23109   9.667   3.544   1.302  0.1836 -0.3095  0.0472
  176MOL0     C23110   9.583   3.420   1.341 -0.2914 -0.8589 -0.2542
  176MOL0     C23111   9.610   3.302   1.249 -0.1433  0.1496 -0.2212
  176MOL0     C23112   9.766   3.274   1.259  0.2656  0.1433 -0.6626
  176MOL0     C23113   9.796   3.142   1.195 -0.7712  0.0116 -0.3776
  176MOL0     C23114   9.940   3.108   1.199  0.0931  0.3621 -0.0567
  176MOL0     C23115   9.974   2.997   1.104 -0.3104 -0.0492 -0.7561
  176MOL0     C23116  10.130   2.963   1.103  0.2528 -0.8891  0.0272
  176MOL0     N23117  10.213   3.064   1.041 -0.0769  0.0535  0.1511
  176MOL0     C23118  10.247   3.075   0.912 -0.2239 -0.5846  0.5406
  176MOL0     C23119  10.328   3.184   0.908  0.2622 -0.3390  0.7210
  176MOL0     C23120  10.421   3.212   0.802 -0.0877 -0.2239  0.1230
  176MOL0     C23121  10.565   3.229   0.856  0.4803  0.3513  0.5027
  176MOL0     C23122  10.620   3.105   0.924  0.6980  0.4460  0.0298
  176MOL0     C23123  10.745   3.133   1.002  0.2187 -0.6833  0.3380
  176MOL0     O23124  10.752   3.019   1.088 -0.4535  0.1210  0.2501
  176MOL0     C23125  10.748   3.035   1.224 -0.0110 -0.2744 -0.7390
  176MOL0     C23126  10.852   2.972   1.296  0.9694 -0.1501 -0.4914
  176MOL0     C23127  10.839   2.953   1.438 -0.6928  0.1304  0.1327
  176MOL0     C23128  10.714   2.985   1.499 -0.1869  0.2814  0.2124
  176MOL0     C23129  10.695   2.952   1.646 -0.5054 -0.3792 -0.8000
  176MOL0     O23130  10.818   2.948   1.705  0.2145 -0.6279  0.6891
  176MOL0     C23131  10.834   2.911   1.836 -0.1344 -0.4862  0.4680
  176MOL0     C23132  10.771   2.800   1.894  0.3734 -0.2565 -0.5428
  176MOL0     C23133  10.786   2.768   2.028 -0.2257  0.4931  0.0541
  176MOL0     C23134  10.878   2.852   2.104 -0.1119 -0.8155  1.4583
  176MOL0     O23135  10.902   2.834   2.238  0.0190 -0.1082  0.6125
  176MOL0     C23136  10.807   2.775   2.323  0.1534 -0.9711 -0.5025
  176MOL0     C23137  10.845   2.801   2.466  0.0507  0.0057  0.2845
  176MOL0     C23138  10.993   2.758   2.497 -0.0494 -0.5303  0.5072
  176MOL0     C23139  11.047   2.810   2.626  0.0373 -0.0076  0.3272
  176MOL0     C23140  11.191   2.752   2.644 -0.0487  0.1146  0.4007
  176MOL0     C23141  11.300   2.810   2.542  0.3844  0.2307 -0.3803
  176MOL0     C23142  11.451   2.772   2.566 -0.0913  0.4061  0.0079
  176MOL0     C23143  11.468   2.776   2.712 -0.6429  0.8838 -0.3234
  176MOL0    Cl23144  11.648   2.768   2.760 -0.2995  0.4891  0.3232
  176MOL0     C23145  10.936   2.964   2.037 -0.3410 -0.1229 -0.6245
  176MOL0     C23146  10.914   2.999   1.907 -0.2420 -0.3248  0.1192
  176MOL0     O23147  10.592   2.933   1.706  0.2537  0.4226 -0.0175
  176MOL0     C23148  10.616   3.056   1.422  0.4089 -0.5728 -0.0485
  176MOL0     C23149  10.633   3.083   1.282  0.1738  0.1236 -0.2538
  176MOL0     N23150  10.330   3.250   1.028  0.1524 -0.9671  0.5763
  176MOL0     N23151  10.263   3.171   1.112  0.0727 -0.6350  0.0475
  176MOL0     C23152   9.781   3.815   1.246  0.5123  0.1308  1.0771
  176MOL0     C23153   9.868   3.917   1.270 -0.8926  0.3229  0.2227
  176MOL0     C23154  10.205   4.168   1.445 -0.5144 -0.1297 -1.0828
  176MOL0     C23155  10.348   4.145   1.445  0.1793  0.0249 -0.3161
  176MOL0     C23156  10.447   4.255   1.452 -0.4099  0.0761  0.0825
  176MOL0     C23157  10.401   4.388   1.485  0.6199 -0.0427  0.5845
  176MOL0     O23158  10.493   4.492   1.510 -0.3076  0.4815  0.1121
  176MOL0     C23159  10.536   4.559   1.392 -0.2912  0.0919 -0.1062
  176MOL0     C23160  10.673   4.610   1.409  0.5726 -0.2375 -1.2039
  176MOL0     C23161  10.780   4.500   1.457  1.2817  0.2253 -0.5235
  176MOL0     C23162  10.920   4.550   1.459 -0.2419  0.1540 -0.3184
  176MOL0     C23163  10.947   4.644   1.563 -0.5364  0.4686  0.0448
  176MOL0     C23164  10.953   4.723   1.655  0.0735  0.5487 -0.9778
  176MOL0     C23165  10.268   4.407   1.488  0.7179 -0.1748  0.2374
  176MOL0     C23166  10.171   4.301   1.468  0.6968 -0.3787  0.5075
  176MOL0     H23167   9.769   3.985   1.588 -0.8079 -2.5090  1.0210
  176MOL0     H23168   9.621   3.814   1.547  1.5574  0.2050  2.1538
  176MOL0     H23169   9.758   3.538   1.362  0.7944  0.5428 -0.7780
  176MOL0     H23170   9.700   3.538   1.198 -0.5708  3.8630 -0.6046
  176MOL0     H23171   9.481   3.459   1.339  0.0922  0.1400 -1.0544
  176MOL0     H23172   9.596   3.377   1.441 -0.7470 -1.9516 -0.6524
  176MOL0     H23173   9.581   3.336   1.149  1.5365 -1.1655 -1.1904
  176MOL0     H23174   9.559   3.209   1.276  1.3237 -0.2985  1.1440
  176MOL0     H23175   9.832   3.344   1.208  1.0050  0.5168  0.7527
  176MOL0     H23176   9.798   3.271   1.364 -4.3857 -0.4590  0.9720
  176MOL0     H23177   9.752   3.151   1.095 -1.0889  1.2801 -0.1354
  176MOL0     H23178   9.741   3.058   1.239 -1.6762  0.0471 -1.3898
  176MOL0     H23179   9.959   3.072   1.301  0.8718  3.0189  0.8030
  176MOL0     H23180  10.009   3.188   1.175  1.1929  0.0302  1.7636
  176MOL0     H23181   9.915   2.917   1.150 -0.9752  2.3323  3.0130
  176MOL0     H23182   9.950   3.013   0.999  0.0574 -2.2441 -1.2127
  176MOL0     H23183  10.154   2.866   1.057  3.2119 -0.4865  0.5434
  176MOL0     H23184  10.158   2.952   1.207  1.1260 -2.3674 -0.3354
  176MOL0     H23185  10.250   2.997   0.836  0.8099  2.3982 -2.7306
  176MOL0     H23186  10.389   3.299   0.744 -1.7571  0.8050  2.4330
  176MOL0     H23187  10.419   3.127   0.734  2.2359 -0.5482  0.3828
  176MOL0     H23188  10.555   3.327   0.904 -1.3316  0.8150 -0.6897
  176MOL0     H23189  10.635   3.240   0.773  1.1073  2.9071  1.2877
  176MOL0     H23190  10.548   3.061   0.993 -1.7097  1.2313 -1.8571
  176MOL0     H23191  10.641   3.035   0.842  1.9072  0.9438 -0.1091
  176MOL0     H23192  10.730   3.223   1.064 -1.2645 -0.1817 -0.6869
  176MOL0     H23193  10.827   3.136   0.931 -2.2091 -3.3286 -2.9368
  176MOL0     H23194  10.939   2.936   1.242  2.5979  0.8336  1.3201
  176MOL0     H23195  10.914   2.901   1.497 -1.6147  1.5452  2.7217
  176MOL0     H23196  10.717   2.730   1.831  1.7038 -1.9126  0.0634
  176MOL0     H23197  10.728   2.683   2.062 -1.0057  1.2700  0.7085
  176MOL0     H23198  10.795   2.670   2.295 -1.3392 -0.9686  0.0243
  176MOL0     H23199  10.709   2.822   2.309  1.4565  1.4960 -1.8878
  176MOL0     H23200  10.778   2.746   2.533 -1.2268 -0.0136 -0.9831
  176MOL0     H23201  10.827   2.907   2.487  0.9599  0.9028 -2.9773
  176MOL0     H23202  11.052   2.792   2.412  1.4960 -1.1422  1.3074
  176MOL0     H23203  11.005   2.651   2.516 -1.4531 -0.6287  0.9869
  176MOL0     H23204  11.050   2.919   2.626 -3.6825  0.2114  0.9270
  176MOL0     H23205  10.978   2.772   2.702 -1.0823 -0.6028 -0.9417
  176MOL0     H23206  11.201   2.643   2.647  1.5113  0.2563  2.0448
  176MOL0     H23207  11.221   2.784   2.745  1.1553  0.1434  0.0502
  176MOL0     H23208  11.294   2.918   2.555  0.9411  0.0797  1.2708
  176MOL0     H23209  11.268   2.799   2.437  2.1770  2.1711 -1.1934
  176MOL0     H23210  11.463   2.668   2.535  1.0187  1.0960 -2.1599
  176MOL0     H23211  11.525   2.830   2.509  1.6056 -0.6188  1.0940
  176MOL0     H23212  11.419   2.693   2.763  0.8502  0.2372  0.1087
  176MOL0     H23213  11.423   2.866   2.756 -0.8956  0.9540 -0.7201
  176MOL0     H23214  10.999   3.028   2.098  0.6454 -0.2777 -1.4640
  176MOL0     H23215  10.957   3.088   1.862 -0.8250 -0.2247 -0.2484
  176MOL0     H23216  10.528   3.083   1.478  1.0826  0.0469  0.7337
  176MOL0     H23217  10.540   3.119   1.239 -1.3336 -2.9415  0.1562
  176MOL0     H23218   9.748   3.773   1.151 -1.4156  0.7817  1.4099
  176MOL0     H23219   9.928   3.956   1.190 -1.6525  0.7190 -0.1640
  176MOL0     H23220  10.396   4.054   1.411  1.1681  0.8751 -1.2773
  176MOL0     H23221  10.554   4.247   1.437 -0.4649  1.1982 -1.0585
  176MOL0     H23222  10.468   4.639   1.359  1.9499  1.5325 -1.4413
  176MOL0     H23223  10.528   4.486   1.310 -0.9266 -0.6841  0.6252
  176MOL0     H23224  10.698   4.664   1.317 -2.5812 -1.3765 -2.8687
  176MOL0     H23225  10.665   4.687   1.486 -1.8010 -1.9088  0.3718
  176MOL0     H23226  10.783   4.414   1.390 -1.5486  0.1377 -0.6652
  176MOL0     H23227  10.754   4.465   1.557  2.4514 -0.9515 -0.6057
  176MOL0     H23228  10.979   4.458   1.469 -0.3706  0.0324 -0.6460
  176MOL0     H23229  10.944   4.603   1.366 -0.3048  0.4336 -0.1733
  176MOL0     H23230  10.965   4.778   1.746  0.2764  0.3041 -0.8559
  176MOL0     H23231  10.229   4.505   1.512 -3.3120 -1.0447 -1.9192
  176MOL0     H23232  10.069   4.325   1.494 -0.0342 -1.8485 -0.7867
  177MOL0     O23233   7.341   6.091   1.699 -0.4045 -0.2261  0.5711
  177MOL0     C23234   7.325   6.085   1.578  0.9099 -1.1461 -1.1970
  177MOL0     O23235   7.209   6.114   1.526  0.3337  0.6216 -0.0090
  177MOL0     C23236   7.103   6.147   1.602 -0.4482  0.0526  0.9168
  177MOL0     C23237   6.999   6.058   1.635  0.0473  0.3242 -0.5930
  177MOL0     C23238   6.874   6.100   1.678 -0.8070  1.4108  0.0527
  177MOL0     C23239   6.838   6.237   1.690 -0.6484  0.5542 -0.4478
  177MOL0     O23240   6.709   6.276   1.735  0.0925  0.4134  0.2762
  177MOL0     C23241   6.695   6.412   1.765 -0.3339 -0.3000  0.4281
  177MOL0     C23242   6.558   6.462   1.820  0.0571  0.2344  0.1967
  177MOL0     C23243   6.550   6.609   1.786 -0.2377 -0.7108 -0.3953
  177MOL0     C23244   6.452   6.685   1.874  0.0848 -0.5756  0.7930
  177MOL0     C23245   6.478   6.836   1.837  0.0645  0.3832 -0.3365
  177MOL0     C23246   6.578   6.894   1.945  1.0362  0.5826 -0.0267
  177MOL0     C23247   6.603   7.047   1.931  0.9728  0.4323  0.1756
  177MOL0     C23248   6.652   7.110   2.059  0.0692  0.6045  0.6162
  177MOL0     N23249   6.575   7.105   2.181  0.3589 -0.0221 -0.5362
  177MOL0     C23250   6.458   7.176   2.194 -0.3514 -0.4812 -0.8435
  177MOL0     C23251   6.422   7.148   2.320 -0.8461 -0.2902 -0.7109
  177MOL0     C23252   6.297   7.199   2.386 -0.3131 -0.4565  0.7437
  177MOL0     C23253   6.176   7.126   2.315 -0.6909  0.0750 -0.3547
  177MOL0     C23254   6.032   7.158   2.364 -0.3183  0.5033 -0.1083
  177MOL0     C23255   6.001   7.134   2.515 -0.3876 -0.5507  1.0590
  177MOL0     O23256   6.021   6.994   2.547 -0.1217 -0.6538  0.3016
  177MOL0     C23257   5.979   6.937   2.666  0.5341 -1.1845 -1.0929
  177MOL0     C23258   5.947   6.799   2.683  0.0173  0.1492  0.2430
  177MOL0     C23259   5.907   6.745   2.808  1.1454 -0.0136  0.3812
  177MOL0     C23260   5.880   6.825   2.922  0.5954 -0.3625  0.1230
  177MOL0     C23261   5.820   6.767   3.043 -0.2097  1.7344 -0.0622
  177MOL0     O23262   5.771   6.855   3.144 -0.6195 -0.4455  0.4479
  177MOL0     C23263   5.696   6.796   3.242 -1.1322 -0.0336  0.0493
  177MOL0     C23264   5.565   6.753   3.230 -0.8138 -0.5223  0.2705
  177MOL0     C23265   5.500   6.698   3.340 -0.5223  0.1457 -0.5249
  177MOL0     C23266   5.562   6.688   3.469  0.7271  0.2393  0.3843
  177MOL0     O23267   5.479   6.648   3.574 -0.3243  0.1377  0.2001
  177MOL0     C23268   5.536   6.567   3.682 -0.1783 -0.2057  0.5575
  177MOL0     C23269   5.496   6.423   3.658  1.2628  0.5109 -0.5570
  177MOL0     C23270   5.544   6.325   3.768 -0.3050 -0.3342  0.2557
  177MOL0     C23271   5.697   6.314   3.753  0.5141  0.1320 -0.0335
  177MOL0     C23272   5.777   6.240   3.861 -0.2835  0.1010  0.3109
  177MOL0     C23273   5.929   6.216   3.820  0.0700 -0.6099  0.4290
  177MOL0     C23274   6.001   6.143   3.939 -0.2755  0.0181 -0.2851
  177MOL0     C23275   6.156   6.137   3.904  0.3107 -0.1745  0.5647
  177MOL0    Cl23276   6.225   6.314   3.903  0.2823  0.2643 -0.1338
  177MOL0     C23277   5.695   6.722   3.478  0.9784 -0.2561  0.5348
  177MOL0     C23278   5.763   6.771   3.366  0.7906 -0.2566  0.3572
  177MOL0     O23279   5.788   6.650   3.034  0.2983 -0.4605  0.1217
  177MOL0     C23280   5.905   6.966   2.906  0.3462  0.2115  0.0246
  177MOL0     C23281   5.954   7.016   2.786 -1.3966 -0.3788 -0.1891
  177MOL0     N23282   6.514   7.067   2.384 -0.1025 -0.1230 -0.5725
  177MOL0     N23283   6.603   7.039   2.304 -1.1545 -0.1564  0.6401
  177MOL0     C23284   6.940   6.324   1.644 -0.4169 -0.0838 -0.3034
  177MOL0     C23285   7.063   6.279   1.600  0.9249 -0.3013  0.1866
  177MOL0     C23286   7.435   6.039   1.500  0.5099 -0.0534  1.5001
  177MOL0     C23287   7.566   6.045   1.539 -0.7696 -0.3516 -0.8147
  177MOL0     C23288   7.674   5.983   1.464  0.5363  0.3711 -0.7452
  177MOL0     C23289   7.647   5.915   1.351  0.0193 -0.3774 -0.0269
  177MOL0     O23290   7.765   5.863   1.302 -0.4048  0.2187 -0.1133
  177MOL0     C23291   7.761   5.780   1.191  0.0978 -0.3084 -0.0984
  177MOL0     C23292   7.896   5.698   1.177  0.1263  0.1181  0.4177
  177MOL0     C23293   7.897   5.563   1.251  0.0415  0.1463 -0.1555
  177MOL0     C23294   7.852   5.444   1.165 -0.0505  0.4920 -0.0819
  177MOL0     C23295   7.704   5.428   1.150 -0.0829 -0.2924  0.7124
  177MOL0     C23296   7.588   5.417   1.142  1.4712 -0.1644  0.2646
  177MOL0     C23297   7.515   5.927   1.297  0.1229  1.4921 -0.5001
  177MOL0     C23298   7.408   5.977   1.368 -0.7851  0.0894  0.4080
  177MOL0     H23299   7.022   5.952   1.627 -2.0297 -0.3881  1.5774
  177MOL0     H23300   6.791   6.035   1.703 -0.0938 -0.3071 -1.7393
  177MOL0     H23301   6.714   6.467   1.672 -0.0539  1.7282  1.6214
  177MOL0     H23302   6.775   6.426   1.839  0.8807  0.7126 -0.9861
  177MOL0     H23303   6.550   6.439   1.927 -2.4051  2.1910  0.5286
  177MOL0     H23304   6.475   6.409   1.772 -2.1103  1.8108  1.9972
  177MOL0     H23305   6.526   6.623   1.680 -0.3786 -0.3533 -0.3172
  177MOL0     H23306   6.649   6.650   1.808 -0.8166  1.2570 -1.2125
  177MOL0     H23307   6.348   6.665   1.845  0.0962  0.3352  0.0939
  177MOL0     H23308   6.474   6.663   1.979  3.4308 -0.2575  0.2598
  177MOL0     H23309   6.391   6.902   1.841  0.8393  1.3713  0.8496
  177MOL0     H23310   6.539   6.839   1.746 -2.0390  0.7629 -1.7991
  177MOL0     H23311   6.671   6.837   1.942 -0.3765 -2.0586  1.9468
  177MOL0     H23312   6.542   6.864   2.044  2.0502  0.8499  0.4252
  177MOL0     H23313   6.667   7.086   1.852  1.5177 -2.9403 -1.2250
  177MOL0     H23314   6.506   7.094   1.914  1.1868  0.8732  0.1681
  177MOL0     H23315   6.673   7.215   2.037  2.6659  0.5902  2.5886
  177MOL0     H23316   6.742   7.053   2.086  0.1346  0.0310 -0.7345
  177MOL0     H23317   6.423   7.251   2.125  0.9800  0.3235 -0.6867
  177MOL0     H23318   6.290   7.308   2.389  2.3348 -0.2119  0.5868
  177MOL0     H23319   6.315   7.157   2.486  0.8399 -3.1103 -0.4799
  177MOL0     H23320   6.190   7.019   2.333 -3.3827 -0.6165 -1.7779
  177MOL0     H23321   6.188   7.129   2.207 -1.9974 -1.0452 -0.5596
  177MOL0     H23322   5.996   7.255   2.329  0.0801  0.7413  0.1221
  177MOL0     H23323   5.971   7.094   2.299  2.0232 -0.4843 -1.4666
  177MOL0     H23324   5.899   7.171   2.525 -0.7759 -1.1355 -0.4220
  177MOL0     H23325   6.062   7.206   2.570 -0.7792  1.2162 -0.7084
  177MOL0     H23326   5.969   6.732   2.601 -0.2967 -0.8978  0.9962
  177MOL0     H23327   5.885   6.639   2.815 -0.1636 -0.2006 -3.5874
  177MOL0     H23328   5.514   6.776   3.137  2.3623  0.8491 -1.2627
  177MOL0     H23329   5.404   6.651   3.325 -0.1489 -0.5452 -0.7792
  177MOL0     H23330   5.506   6.609   3.778  2.1566  0.9072  0.8705
  177MOL0     H23331   5.645   6.570   3.690 -0.2417 -1.5649  2.6209
  177MOL0     H23332   5.539   6.393   3.562  1.7385  2.1732 -0.8833
  177MOL0     H23333   5.388   6.414   3.642  1.2843 -1.5013  0.0978
  177MOL0     H23334   5.502   6.225   3.753 -1.0535 -0.2249  1.4802
  177MOL0     H23335   5.515   6.361   3.867 -1.4243  4.6666 -1.6004
  177MOL0     H23336   5.718   6.263   3.659 -3.7616 -2.3109  0.0734
  177MOL0     H23337   5.753   6.408   3.746  1.7498 -0.5941 -0.1674
  177MOL0     H23338   5.735   6.140   3.878  0.9740 -0.2566  1.5113
  177MOL0     H23339   5.763   6.282   3.961 -4.1453 -3.9674  1.8431
  177MOL0     H23340   5.979   6.312   3.806 -1.0213  0.1345  1.4367
  177MOL0     H23341   5.936   6.157   3.728  1.1918 -0.3379  0.3313
  177MOL0     H23342   5.989   6.190   4.037  0.3025 -0.1504 -0.1305
  177MOL0     H23343   5.958   6.045   3.963  0.2487  0.1844  1.4516
  177MOL0     H23344   6.159   6.073   3.815 -1.2948 -3.3464  2.6083
  177MOL0     H23345   6.219   6.097   3.983 -0.1370 -0.2288  0.8990
  177MOL0     H23346   5.750   6.725   3.571  0.3704  2.9705  0.9161
  177MOL0     H23347   5.862   6.811   3.386  0.3230  0.5538  1.1923
  177MOL0     H23348   5.881   7.032   2.988 -0.7862 -0.1642  0.0151
  177MOL0     H23349   5.991   7.117   2.772  1.2267 -1.4987 -2.2504
  177MOL0     H23350   6.915   6.430   1.648  0.0759  0.2062 -2.7556
  177MOL0     H23351   7.116   6.359   1.551 -0.0919 -0.0109 -0.4700
  177MOL0     H23352   7.600   6.083   1.634  0.0474 -2.2582 -0.3037
  177MOL0     H23353   7.766   5.974   1.519 -0.7167 -1.1102  1.2483
  177MOL0     H23354   7.730   5.841   1.105  2.5861  1.7494  0.3234
  177MOL0     H23355   7.678   5.709   1.199 -0.2732  0.1683  0.3595
  177MOL0     H23356   7.929   5.673   1.075 -0.5544 -1.0130  0.4568
  177MOL0     H23357   7.978   5.755   1.221  2.1702 -1.3510 -1.2859
  177MOL0     H23358   7.829   5.567   1.336  0.3365  1.5435  0.0372
  177MOL0     H23359   7.998   5.543   1.290  0.0638 -0.9708 -0.7313
  177MOL0     H23360   7.891   5.453   1.063  2.8103 -1.0554  0.7542
  177MOL0     H23361   7.892   5.353   1.212 -0.3243  1.1512  1.4768
  177MOL0     H23362   7.482   5.397   1.139  0.9155  2.5137 -0.8272
  177MOL0     H23363   7.500   5.885   1.199  1.8702 -1.9746  0.5559
  177MOL0     H23364   7.307   5.974   1.329 -0.0668 -1.1039 -1.4806
  178MOL0     O23365   6.988   5.974  10.873 -0.0534 -0.1936 -0.0399
  178MOL0     C23366   6.997   5.973  10.752  0.5165 -0.3310  0.0902
  178MOL0     O23367   6.903   6.015  10.656  0.9737 -0.4063  0.1807
  178MOL0     C23368   6.799   6.093  10.697  0.0119  0.4194 -0.0755
  178MOL0     C23369   6.771   6.209  10.621  0.6016  0.3057  0.6303
  178MOL0     C23370   6.658   6.289  10.653  0.2561 -0.6914 -0.8592
  178MOL0     C23371   6.577   6.261  10.769 -1.0442  0.4408 -0.8849
  178MOL0     O23372   6.457   6.326  10.793 -0.8133  0.4623 -0.7359
  178MOL0     C23373   6.422   6.452  10.731 -0.2673  0.3564 -0.7391
  178MOL0     C23374   6.289   6.499  10.796  0.3592  0.0492 -0.4362
  178MOL0     C23375   6.236   6.633  10.747  0.1999 -0.3011  0.8032
  178MOL0     C23376   6.095   6.667  10.791  0.9756  0.1890  0.7615
  178MOL0     C23377   5.988   6.556  10.776  0.2536  0.2857  0.1692
  178MOL0     C23378   5.957   6.530  10.629  0.6961 -0.7672 -0.2541
  178MOL0     C23379   5.841   6.438  10.614 -0.4409 -0.1754  1.3651
  178MOL0     C23380   5.851   6.302  10.670  0.7071  0.2042  0.2197
  178MOL0     N23381   5.743   6.219  10.605  0.2522  0.0520  0.1450
  178MOL0     C23382   5.608   6.228  10.645  0.9312  0.4077  0.6209
  178MOL0     C23383   5.536   6.152  10.566  0.6390 -0.1664  1.0751
  178MOL0     C23384   5.390   6.129  10.601  0.0579 -0.5881  0.3871
  178MOL0     C23385   5.287   6.185  10.499  0.4853  0.3275 -0.0503
  178MOL0     C23386   5.295   6.335  10.496 -0.0343  0.2038  0.3107
  178MOL0     C23387   5.164   6.390  10.429  0.6919 -0.0901 -0.1042
  178MOL0     O23388   5.043   6.361  10.508 -0.5313 -0.3576 -0.6829
  178MOL0     C23389   4.923   6.403  10.464  0.3020 -0.3073  0.1738
  178MOL0     C23390   4.898   6.461  10.342  0.3333  0.7154  1.5436
  178MOL0     C23391   4.770   6.515  10.298  0.1667  0.4477  0.2351
  178MOL0     C23392   4.661   6.516  10.393  0.3015  0.2365  0.8489
  178MOL0     C23393   4.527   6.584  10.368 -0.2244 -0.1737 -0.6988
  178MOL0     O23394   4.439   6.601  10.472  0.5306  0.4743 -0.3091
  178MOL0     C23395   4.314   6.659  10.439  1.0634 -0.9876 -0.2632
  178MOL0     C23396   4.271   6.779  10.503  0.6595 -0.5198 -1.0851
  178MOL0     C23397   4.146   6.825  10.483  0.2654  0.3370  0.6753
  178MOL0     C23398   4.052   6.764  10.400  0.3323  0.0716 -0.1580
  178MOL0     O23399   3.914   6.798  10.392 -0.9056 -0.1921 -0.0039
  178MOL0     C23400   3.860   6.928  10.426 -0.4542  0.0342  0.6166
  178MOL0     C23401   3.706   6.941  10.410  0.1475 -0.3179  0.0573
  178MOL0     C23402   3.653   7.075  10.346  0.0188 -0.4721  0.7367
  178MOL0     C23403   3.510   7.116  10.380 -0.2220  0.8729  0.2944
  178MOL0     C23404   3.465   7.224  10.275 -0.4455 -0.1459 -0.8254
  178MOL0     C23405   3.331   7.285  10.337 -0.9394 -1.6846 -0.0315
  178MOL0     C23406   3.300   7.417  10.254  0.3431  1.2930  0.4632
  178MOL0     C23407   3.141   7.435  10.227 -1.0872  0.1285 -0.1499
  178MOL0    Cl23408   3.124   7.485  10.046  0.3085 -0.0100  0.6038
  178MOL0     C23409   4.093   6.639  10.345 -0.0689 -0.2649 -0.1067
  178MOL0     C23410   4.220   6.579  10.366 -0.1506 -0.0445  0.1195
  178MOL0     O23411   4.513   6.624  10.250  0.6181  0.3349  0.6392
  178MOL0     C23412   4.685   6.452  10.521  0.7460  0.0444  0.0383
  178MOL0     C23413   4.814   6.409  10.550 -0.1516 -0.0975 -0.5331
  178MOL0     N23414   5.628   6.093  10.476  0.6556  0.1418 -0.2086
  178MOL0     N23415   5.749   6.131  10.498  0.8293  0.5453  0.4883
  178MOL0     C23416   6.610   6.147  10.844 -0.6649  0.2383  0.3792
  178MOL0     C23417   6.713   6.059  10.802 -0.3662 -0.0037  0.4259
  178MOL0     C23418   7.113   5.902  10.692  1.0869 -0.5256 -0.2632
  178MOL0     C23419   7.115   5.863  10.559 -0.7365 -0.4358 -0.3370
  178MOL0     C23420   7.236   5.815  10.501  0.1392  0.5933 -0.4183
  178MOL0     C23421   7.353   5.799  10.579 -0.5034  0.4919 -0.0027
  178MOL0     O23422   7.468   5.755  10.530 -0.7923  0.9330 -0.2817
  178MOL0     C23423   7.518   5.795  10.403  0.2107  0.7897  0.4090
  178MOL0     C23424   7.648   5.720  10.375  0.0481 -0.7498 -0.5800
  178MOL0     C23425   7.765   5.768  10.471 -0.2692  0.4029  0.1855
  178MOL0     C23426   7.867   5.654  10.499  0.3973 -0.1891 -0.3000
  178MOL0     C23427   7.978   5.718  10.575 -0.0779 -0.4081  0.3456
  178MOL0     C23428   8.057   5.765  10.652 -0.6257 -0.0564  0.1105
  178MOL0     C23429   7.340   5.819  10.720 -0.9458  1.1091  0.6534
  178MOL0     C23430   7.225   5.874  10.767  0.2920 -0.0277  0.3324
  178MOL0     H23431   6.845   6.214  10.542 -1.9747  0.1395 -1.9758
  178MOL0     H23432   6.626   6.375  10.596  0.3809  2.3592  3.2118
  178MOL0     H23433   6.406   6.429  10.625  1.7902  0.8926 -1.2209
  178MOL0     H23434   6.507   6.520  10.741  0.9915 -1.1431 -0.8072
  178MOL0     H23435   6.297   6.489  10.905 -0.7932 -3.6328 -0.5496
  178MOL0     H23436   6.226   6.417  10.760  0.4996 -1.6391  2.7478
  178MOL0     H23437   6.235   6.621  10.638 -1.9900 -0.1176  0.7631
  178MOL0     H23438   6.313   6.707  10.770  0.9055 -0.9605  0.6045
  178MOL0     H23439   6.092   6.703  10.895 -0.7539  1.3323  0.3506
  178MOL0     H23440   6.051   6.753  10.739  0.7092 -0.2252  0.2968
  178MOL0     H23441   5.893   6.582  10.823 -0.8118 -0.6943 -1.3779
  178MOL0     H23442   6.018   6.461  10.822 -0.1182 -0.0536 -0.2830
  178MOL0     H23443   6.049   6.488  10.586  0.7948 -1.5454  0.7014
  178MOL0     H23444   5.929   6.628  10.588 -0.1441 -0.1626  1.6626
  178MOL0     H23445   5.753   6.494  10.649 -1.0396  0.9409 -1.6744
  178MOL0     H23446   5.826   6.430  10.506 -0.2329  1.0252  1.2272
  178MOL0     H23447   5.841   6.288  10.778 -4.8203 -3.9641 -0.4068
  178MOL0     H23448   5.941   6.255  10.628 -0.0593 -0.7925 -0.3307
  178MOL0     H23449   5.565   6.287  10.725  0.6069  1.1097 -0.0550
  178MOL0     H23450   5.384   6.178  10.699  1.9340 -0.4527  0.4585
  178MOL0     H23451   5.381   6.020  10.603  0.9788 -0.7444 -1.9054
  178MOL0     H23452   5.185   6.164  10.531  0.0917  2.3053  0.0982
  178MOL0     H23453   5.299   6.132  10.404 -0.5880 -0.4798  0.2429
  178MOL0     H23454   5.289   6.365  10.601 -1.9202 -2.0546  0.9267
  178MOL0     H23455   5.380   6.379  10.442 -1.2818 -0.1049 -2.0261
  178MOL0     H23456   5.156   6.355  10.326 -1.0078 -1.2104  0.3604
  178MOL0     H23457   5.158   6.499  10.435 -1.6379 -0.2097  0.8874
  178MOL0     H23458   4.979   6.466  10.270  0.0397  0.1118  1.1665
  178MOL0     H23459   4.751   6.556  10.199 -1.1068 -0.5622  0.0356
  178MOL0     H23460   4.330   6.830  10.578 -1.8736  0.0631  0.6594
  178MOL0     H23461   4.125   6.909  10.548  1.7199  1.3979 -0.1775
  178MOL0     H23462   3.892   6.993  10.344 -1.5924  0.4701  0.5004
  178MOL0     H23463   3.895   6.961  10.524 -0.2999 -1.8772  1.2338
  178MOL0     H23464   3.666   6.947  10.511  0.3918  0.4281  0.1135
  178MOL0     H23465   3.660   6.868  10.342 -0.1622  0.4498 -0.5706
  178MOL0     H23466   3.651   7.073  10.236 -3.3506 -0.8530  0.6812
  178MOL0     H23467   3.726   7.151  10.374  2.0149 -1.1728 -2.1065
  178MOL0     H23468   3.445   7.028  10.369 -1.6462  1.8844  0.3961
  178MOL0     H23469   3.504   7.147  10.484  3.2296  3.2963 -0.0542
  178MOL0     H23470   3.460   7.184  10.173  0.4269 -0.4875 -0.7477
  178MOL0     H23471   3.541   7.304  10.274 -1.1068  0.5030 -0.1966
  178MOL0     H23472   3.343   7.322  10.439  1.7912  0.8983 -1.0920
  178MOL0     H23473   3.252   7.212  10.320 -2.8620  0.5386 -1.3047
  178MOL0     H23474   3.348   7.499  10.308  2.4412 -0.3760  1.2922
  178MOL0     H23475   3.349   7.415  10.156 -0.9400  0.9993 -0.1813
  178MOL0     H23476   3.103   7.515  10.292 -1.9752  0.7608 -1.4110
  178MOL0     H23477   3.084   7.344  10.249 -3.0411  1.3010 -0.1674
  178MOL0     H23478   4.024   6.588  10.278 -2.3171  4.0868 -1.4348
  178MOL0     H23479   4.249   6.483  10.325  1.7765 -0.4777  2.2740
  178MOL0     H23480   4.605   6.443  10.594 -0.2782  0.6814 -0.9534
  178MOL0     H23481   4.834   6.380  10.653 -0.9199 -1.2439 -0.6861
  178MOL0     H23482   6.556   6.121  10.935 -1.0181 -0.6755 -0.0840
  178MOL0     H23483   6.740   5.975  10.864 -0.9042 -2.2114 -2.1537
  178MOL0     H23484   7.041   5.881  10.481  0.6371  0.4227 -1.4853
  178MOL0     H23485   7.242   5.797  10.394 -0.5734  2.0734 -0.7299
  178MOL0     H23486   7.540   5.902  10.405  1.0464  0.6307  0.1193
  178MOL0     H23487   7.457   5.774  10.315  0.4771  1.0334  0.1609
  178MOL0     H23488   7.628   5.614  10.393  3.0951 -1.2876  0.1288
  178MOL0     H23489   7.677   5.724  10.270 -0.0429 -0.7823 -0.6080
  178MOL0     H23490   7.726   5.791  10.571 -1.0206 -0.5117  0.1179
  178MOL0     H23491   7.811   5.859  10.432  1.1155  0.1707  1.2293
  178MOL0     H23492   7.825   5.578  10.566  0.5892  0.2086  0.2747
  178MOL0     H23493   7.902   5.616  10.403 -0.4616  1.6470 -1.3858
  178MOL0     H23494   8.131   5.810  10.715 -1.5047  3.4990 -1.1648
  178MOL0     H23495   7.429   5.808  10.780 -1.3516 -2.9687  0.8083
  178MOL0     H23496   7.237   5.898  10.872  0.5551  0.1507  0.2615
  179MOL0     O23497   6.352   5.832   2.249 -0.3298 -0.1361 -0.1865
  179MOL0     C23498   6.382   5.858   2.364 -0.6680 -0.5014 -0.0053
  179MOL0     O23499   6.309   5.842   2.473  0.5138  0.4714  0.6618
  179MOL0     C23500   6.179   5.795   2.474  0.5271 -0.3727  0.6032
  179MOL0     C23501   6.077   5.855   2.391  0.7410  0.3822 -0.5618
  179MOL0     C23502   5.953   5.787   2.398 -0.9822 -0.1308  0.0250
  179MOL0     C23503   5.929   5.673   2.483 -1.4057  0.0167 -0.5187
  179MOL0     O23504   5.805   5.620   2.490  0.6475  0.4995 -0.2874
  179MOL0     C23505   5.739   5.634   2.624 -0.2818 -0.5473 -0.1314
  179MOL0     C23506   5.630   5.745   2.613 -0.7438  0.2669  0.3805
  179MOL0     C23507   5.681   5.887   2.637 -0.5881 -0.0901 -0.0683
  179MOL0     C23508   5.567   5.988   2.609 -0.4921 -0.7279  0.0692
  179MOL0     C23509   5.573   6.035   2.457 -0.2178 -0.2917 -0.2975
  179MOL0     C23510   5.677   6.143   2.442  0.3785  0.4729 -0.4589
  179MOL0     C23511   5.690   6.172   2.297  0.1889 -0.3523 -0.4919
  179MOL0     C23512   5.817   6.259   2.261 -0.1479 -0.0378 -0.1383
  179MOL0     N23513   5.832   6.384   2.336 -0.8812 -0.6232  0.6761
  179MOL0     C23514   5.740   6.483   2.322 -0.2323 -0.3676  0.1595
  179MOL0     C23515   5.753   6.551   2.434 -0.4925  0.9040  0.0281
  179MOL0     C23516   5.658   6.661   2.483  0.7067  0.0605  0.0093
  179MOL0     C23517   5.643   6.771   2.378 -0.1160  0.2013 -0.9459
  179MOL0     C23518   5.781   6.813   2.316  0.4394 -0.0889  0.0810
  179MOL0     C23519   5.759   6.934   2.236  0.1568  0.6145  0.8876
  179MOL0     O23520   5.707   7.042   2.304 -0.3779 -0.4984  0.6738
  179MOL0     C23521   5.663   7.147   2.237  0.3995 -0.1285 -0.0499
  179MOL0     C23522   5.588   7.144   2.123  0.5937  0.0718 -0.8978
  179MOL0     C23523   5.551   7.262   2.053  0.4732  0.3943  1.0235
  179MOL0     C23524   5.598   7.393   2.094  0.7481  0.8500  0.5961
  179MOL0     C23525   5.572   7.517   2.016 -0.2306  0.4854  0.2909
  179MOL0     O23526   5.506   7.496   1.893 -0.5572 -0.1605 -0.3483
  179MOL0     C23527   5.462   7.611   1.821  0.6062  0.3917 -0.8515
  179MOL0     C23528   5.358   7.697   1.871  0.0411  1.0213 -0.1705
  179MOL0     C23529   5.321   7.802   1.790  0.5356 -0.9693  1.1600
  179MOL0     C23530   5.386   7.840   1.671 -0.7188  0.7106  0.0702
  179MOL0     O23531   5.341   7.939   1.590  0.2684 -0.0022  1.1295
  179MOL0     C23532   5.331   8.066   1.657  0.2174 -0.6167  1.0515
  179MOL0     C23533   5.464   8.160   1.631 -0.4008  0.1202 -0.8368
  179MOL0     C23534   5.597   8.093   1.684 -0.5644 -0.3838  0.2947
  179MOL0     C23535   5.714   8.198   1.696  0.2022  0.6035  0.5239
  179MOL0     C23536   5.828   8.122   1.772  0.7885  0.0280  0.1789
  179MOL0     C23537   5.921   8.201   1.860 -0.6162 -0.5593  0.0857
  179MOL0     C23538   6.024   8.300   1.787  0.9261  0.8165  0.7712
  179MOL0     C23539   6.122   8.232   1.693 -0.1610  0.0164  0.5218
  179MOL0    Cl23540   6.201   8.115   1.799 -0.3087  0.2167 -0.0135
  179MOL0     C23541   5.489   7.753   1.625 -0.3404 -0.2098 -0.1626
  179MOL0     C23542   5.517   7.637   1.693 -0.7004 -1.0028 -0.2772
  179MOL0     O23543   5.624   7.623   2.053 -0.3278  0.2870  0.2547
  179MOL0     C23544   5.687   7.385   2.203 -0.3262  0.1453  0.6617
  179MOL0     C23545   5.708   7.277   2.278 -0.6635  0.3610 -0.6858
  179MOL0     N23546   5.846   6.486   2.518  0.2541  0.3708 -0.7705
  179MOL0     N23547   5.902   6.398   2.447 -0.3693 -0.0546 -0.4045
  179MOL0     C23548   6.036   5.623   2.569  0.1843  0.7727  0.4772
  179MOL0     C23549   6.159   5.683   2.555 -0.5012 -0.2670 -0.2691
  179MOL0     C23550   6.510   5.938   2.379  0.1036  1.0166  0.0419
  179MOL0     C23551   6.523   6.025   2.490 -0.1366 -0.1322 -0.6799
  179MOL0     C23552   6.642   6.091   2.519  0.0207 -0.3877 -0.2920
  179MOL0     C23553   6.754   6.064   2.445  0.5430  0.0490  0.6903
  179MOL0     O23554   6.866   6.138   2.470  0.0061  0.5785  0.2399
  179MOL0     C23555   6.983   6.062   2.488 -0.6130 -0.0126  1.1223
  179MOL0     C23556   7.083   6.071   2.373 -0.8452  0.2586 -0.5838
  179MOL0     C23557   7.112   6.220   2.335 -0.9782 -0.5357 -0.6724
  179MOL0     C23558   7.202   6.250   2.220  0.0600 -0.1588 -0.1376
  179MOL0     C23559   7.148   6.221   2.089 -0.9568 -1.1729  0.9913
  179MOL0     C23560   7.110   6.192   1.979  0.8509  0.3349 -0.5384
  179MOL0     C23561   6.743   5.977   2.337  0.3140  0.2042 -0.5523
  179MOL0     C23562   6.627   5.903   2.312 -0.1090  0.0728  0.1706
  179MOL0     H23563   6.086   5.942   2.327  4.1987 -1.2822 -2.6204
  179MOL0     H23564   5.870   5.829   2.342 -0.4933  0.7624 -0.0499
  179MOL0     H23565   5.806   5.645   2.710  0.6633 -1.2635 -0.7477
  179MOL0     H23566   5.687   5.539   2.642  1.0007 -0.9387  1.8725
  179MOL0     H23567   5.562   5.713   2.693  0.5457 -3.5281  0.1310
  179MOL0     H23568   5.578   5.741   2.517  1.4934 -2.1072 -0.8410
  179MOL0     H23569   5.769   5.908   2.576  0.0317  0.9645  1.1307
  179MOL0     H23570   5.722   5.906   2.737 -1.3678 -0.1409  0.2696
  179MOL0     H23571   5.474   5.934   2.625 -0.8408 -1.0164 -2.5538
  179MOL0     H23572   5.560   6.069   2.682  3.2684  1.9064 -2.1126
  179MOL0     H23573   5.476   6.079   2.431 -1.2531 -1.3074  1.6081
  179MOL0     H23574   5.610   5.948   2.402  1.6767 -2.3535  3.7978
  179MOL0     H23575   5.779   6.119   2.474 -0.0434 -0.2715  0.3811
  179MOL0     H23576   5.631   6.227   2.494 -2.7308 -2.6179  2.2170
  179MOL0     H23577   5.692   6.075   2.246 -2.6366  0.4098 -2.2825
  179MOL0     H23578   5.594   6.210   2.262  0.4145 -0.5120 -1.2989
  179MOL0     H23579   5.814   6.277   2.153 -2.5484 -1.6898 -0.4358
  179MOL0     H23580   5.903   6.191   2.258 -0.7839 -0.8465 -2.3206
  179MOL0     H23581   5.658   6.500   2.254 -0.5355 -0.5783  0.4728
  179MOL0     H23582   5.707   6.707   2.569 -0.6691  2.2938 -0.3065
  179MOL0     H23583   5.558   6.627   2.512 -0.2296  0.2448 -2.6583
  179MOL0     H23584   5.597   6.854   2.433  1.8663  1.8016 -1.6011
  179MOL0     H23585   5.574   6.736   2.300 -1.2199  0.6815 -0.2161
  179MOL0     H23586   5.852   6.829   2.398 -0.2896  0.1250  0.6849
  179MOL0     H23587   5.823   6.734   2.253 -1.9767  0.0814 -1.9140
  179MOL0     H23588   5.678   6.903   2.169  0.4133  2.3465 -0.2832
  179MOL0     H23589   5.847   6.963   2.177  0.7897 -0.2909  1.3607
  179MOL0     H23590   5.538   7.055   2.085 -0.8564 -0.2183  1.5280
  179MOL0     H23591   5.491   7.249   1.964  0.6781  0.7558  0.8293
  179MOL0     H23592   5.326   7.675   1.972  0.2486 -0.6953 -0.4493
  179MOL0     H23593   5.238   7.857   1.834 -0.7860 -0.9931 -1.1172
  179MOL0     H23594   5.315   8.060   1.765 -3.2179  1.2545  0.8085
  179MOL0     H23595   5.243   8.121   1.621  0.8271  0.3938  1.0679
  179MOL0     H23596   5.457   8.257   1.681 -2.0578 -0.4601  0.1203
  179MOL0     H23597   5.471   8.176   1.523 -3.6612  0.4002 -1.1121
  179MOL0     H23598   5.611   8.004   1.621 -1.4620 -0.6511  0.4477
  179MOL0     H23599   5.568   8.053   1.782 -1.3285 -2.3331 -0.6570
  179MOL0     H23600   5.764   8.233   1.605  2.1922 -1.0287  0.9298
  179MOL0     H23601   5.683   8.282   1.758  1.7330  1.8685 -0.3495
  179MOL0     H23602   5.888   8.080   1.690 -0.7569  0.1437 -1.0471
  179MOL0     H23603   5.780   8.044   1.833 -2.7694  2.6085  1.0144
  179MOL0     H23604   5.983   8.133   1.919 -1.6796 -2.9363 -1.4078
  179MOL0     H23605   5.852   8.257   1.924  0.2029 -1.2373  1.6204
  179MOL0     H23606   5.967   8.375   1.732  1.5538  4.6077  4.7435
  179MOL0     H23607   6.079   8.350   1.867  2.8508 -1.5057  1.0190
  179MOL0     H23608   6.195   8.292   1.636 -1.5496 -2.3275 -4.2085
  179MOL0     H23609   6.066   8.176   1.619  2.2870 -0.3827 -1.1548
  179MOL0     H23610   5.530   7.751   1.525  0.0149  0.8311 -0.0454
  179MOL0     H23611   5.592   7.567   1.656  2.4870  2.7634 -1.6137
  179MOL0     H23612   5.742   7.471   2.238  2.1432 -1.0832  0.0259
  179MOL0     H23613   5.765   7.279   2.371 -0.9035  0.3825 -0.5406
  179MOL0     H23614   6.037   5.534   2.631  3.3432 -0.5188 -1.1686
  179MOL0     H23615   6.234   5.637   2.619 -0.8889 -0.0128  0.3899
  179MOL0     H23616   6.439   6.056   2.552  1.2707  0.8830  0.8354
  179MOL0     H23617   6.649   6.165   2.598 -0.9523  0.7413 -1.2257
  179MOL0     H23618   6.973   5.955   2.512  5.0206 -0.7915  1.4129
  179MOL0     H23619   7.037   6.090   2.579 -0.8514 -2.3865  2.0675
  179MOL0     H23620   7.175   6.015   2.393 -0.4290 -0.3254 -3.7017
  179MOL0     H23621   7.047   6.013   2.287  2.3170 -1.4249 -0.9001
  179MOL0     H23622   7.151   6.273   2.422  1.1711 -0.9025 -1.3674
  179MOL0     H23623   7.022   6.277   2.312 -2.6696 -0.0868  5.3325
  179MOL0     H23624   7.221   6.358   2.217 -1.0476  0.0330 -0.7416
  179MOL0     H23625   7.298   6.199   2.233 -0.2689 -0.7016  0.1498
  179MOL0     H23626   7.082   6.152   1.884 -1.9376 -1.7763  1.0312
  179MOL0     H23627   6.833   5.958   2.280 -1.7099 -1.8407 -3.3859
  179MOL0     H23628   6.624   5.827   2.235  1.6637 -0.6870  0.8044
  180MOL0     O23629   5.739   0.500   5.441  0.1579  0.1514  0.8627
  180MOL0     C23630   5.724   0.620   5.476  0.2067  0.1093 -0.1990
  180MOL0     O23631   5.788   0.670   5.583  0.4794 -0.3159  0.0491
  180MOL0     C23632   5.912   0.618   5.617  0.0945 -0.8875  0.8156
  180MOL0     C23633   5.930   0.594   5.752 -0.2317  0.3303  0.2916
  180MOL0     C23634   6.059   0.559   5.801 -0.1355 -0.2651  0.4037
  180MOL0     C23635   6.168   0.532   5.714  1.5905  0.3125  0.9024
  180MOL0     O23636   6.293   0.492   5.768  0.4556 -0.0675 -0.0472
  180MOL0     C23637   6.415   0.533   5.704  0.4061  0.1770  0.0642
  180MOL0     C23638   6.525   0.569   5.807 -0.6210 -0.1179 -0.4418
  180MOL0     C23639   6.616   0.451   5.829  0.1415  0.1293  0.4051
  180MOL0     C23640   6.738   0.474   5.913  0.4019 -0.4641  0.9071
  180MOL0     C23641   6.844   0.535   5.827  0.5474 -0.1009 -1.0921
  180MOL0     C23642   6.942   0.432   5.781 -0.1535  0.4987 -0.0998
  180MOL0     C23643   7.052   0.476   5.694 -1.1846 -1.1185 -0.5539
  180MOL0     C23644   7.142   0.367   5.632  0.4550 -0.0641  0.3360
  180MOL0     N23645   7.099   0.337   5.492 -0.1193 -0.6788 -0.3658
  180MOL0     C23646   7.121   0.432   5.387  0.2936  0.1231 -0.4107
  180MOL0     C23647   7.069   0.367   5.279  1.5899 -1.2214  0.4314
  180MOL0     C23648   7.075   0.395   5.128 -0.1166  0.9041 -0.0832
  180MOL0     C23649   7.169   0.289   5.059 -0.6207  0.4703 -0.2463
  180MOL0     C23650   7.313   0.345   5.017 -0.1963 -0.4223 -0.0600
  180MOL0     C23651   7.409   0.378   5.140  0.4093 -0.9737  0.0756
  180MOL0     O23652   7.479   0.268   5.186  0.0685  0.0539  0.2271
  180MOL0     C23653   7.527   0.260   5.319  0.0031  0.2494 -0.0819
  180MOL0     C23654   7.458   0.290   5.443  0.2159  0.1209  0.3472
  180MOL0     C23655   7.522   0.266   5.562 -0.0865 -0.9283  1.2094
  180MOL0     C23656   7.648   0.195   5.564  0.8976 -0.6603 -0.2182
  180MOL0     C23657   7.694   0.135   5.693 -0.4527 -0.0473 -0.6318
  180MOL0     O23658   7.603   0.092   5.792  0.2263 -0.4346  0.9863
  180MOL0     C23659   7.653   0.011   5.890  0.2288  0.1327 -0.6392
  180MOL0     C23660   7.761   0.048   5.977  0.0220  0.2236 -0.2106
  180MOL0     C23661   7.788  -0.046   6.077 -0.7652 -0.4680 -0.5563
  180MOL0     C23662   7.718  -0.166   6.108 -1.3519 -0.0629 -0.5184
  180MOL0     O23663   7.759  -0.239   6.223  1.3230 -0.0959 -0.2676
  180MOL0     C23664   7.703  -0.363   6.245  0.2167 -0.6251  1.1877
  180MOL0     C23665   7.748  -0.407   6.380 -0.7323 -0.7471 -0.4721
  180MOL0     C23666   7.899  -0.432   6.377  0.8697 -0.6321  0.0338
  180MOL0     C23667   7.946  -0.476   6.515  0.3158 -0.0282  0.9987
  180MOL0     C23668   8.098  -0.473   6.537  0.1260  0.1728 -0.3589
  180MOL0     C23669   8.180  -0.551   6.434 -0.6782 -0.2790 -0.0528
  180MOL0     C23670   8.336  -0.543   6.459  0.1769 -0.5213  0.1544
  180MOL0     C23671   8.407  -0.621   6.355 -0.1864 -0.1244 -1.2258
  180MOL0    Cl23672   8.365  -0.570   6.188 -0.4938 -0.1683 -0.1091
  180MOL0     C23673   7.609  -0.193   6.018  0.0027  0.7579 -0.6656
  180MOL0     C23674   7.588  -0.114   5.904  0.8092  0.1237 -0.3432
  180MOL0     O23675   7.817   0.124   5.700  0.3952  0.5719  0.5916
  180MOL0     C23676   7.715   0.186   5.450 -0.1756  0.6379  0.3971
  180MOL0     C23677   7.655   0.207   5.321 -0.5190  0.0998  0.4724
  180MOL0     N23678   6.992   0.266   5.330  0.4029 -0.3822  0.9706
  180MOL0     N23679   7.011   0.249   5.451 -0.1805  0.2708 -0.3796
  180MOL0     C23680   6.141   0.550   5.568 -0.9804 -0.4708  0.5867
  180MOL0     C23681   6.018   0.603   5.524 -0.5583  0.3075  0.3600
  180MOL0     C23682   5.619   0.707   5.421 -0.2556  1.3683 -1.1484
  180MOL0     C23683   5.531   0.657   5.321 -0.5044  1.2723  0.2359
  180MOL0     C23684   5.423   0.730   5.286  0.6231 -0.1891  0.1551
  180MOL0     C23685   5.394   0.859   5.337 -0.6196  0.3236 -0.0873
  180MOL0     O23686   5.290   0.935   5.317 -0.0432 -0.7334  0.0582
  180MOL0     C23687   5.168   0.871   5.264 -0.1460  0.5241 -0.1075
  180MOL0     C23688   5.059   0.970   5.304  0.0651 -1.0012 -0.3042
  180MOL0     C23689   4.917   0.960   5.239 -0.0962 -0.3817  0.1509
  180MOL0     C23690   4.824   0.855   5.291  0.6932  0.0216  0.8502
  180MOL0     C23691   4.694   0.870   5.220  0.2843  0.4440 -0.0075
  180MOL0     C23692   4.587   0.871   5.157 -0.2117 -0.6265 -0.0636
  180MOL0     C23693   5.472   0.899   5.441 -0.6863 -0.5542  0.6512
  180MOL0     C23694   5.578   0.826   5.483  0.7401 -0.1322 -0.5048
  180MOL0     H23695   5.845   0.610   5.817  0.5127  1.4440  1.0183
  180MOL0     H23696   6.079   0.546   5.907 -0.2389  0.7505  0.5565
  180MOL0     H23697   6.403   0.608   5.626  1.9977 -2.0123 -2.4865
  180MOL0     H23698   6.453   0.451   5.642  0.2241 -1.6985  2.2857
  180MOL0     H23699   6.480   0.607   5.899 -0.6784 -0.9598 -0.1170
  180MOL0     H23700   6.581   0.654   5.767 -2.5722  1.7564  0.6076
  180MOL0     H23701   6.648   0.406   5.734  0.4272 -1.2206  1.1028
  180MOL0     H23702   6.548   0.378   5.874  0.8291 -2.1885 -2.0314
  180MOL0     H23703   6.700   0.537   5.994 -0.4151  2.8662 -1.8749
  180MOL0     H23704   6.776   0.387   5.969  2.5882 -0.1045  0.0832
  180MOL0     H23705   6.892   0.605   5.895  0.5650 -1.0388 -0.1269
  180MOL0     H23706   6.794   0.586   5.744 -1.9595  1.1789  1.0768
  180MOL0     H23707   6.889   0.361   5.716  1.6402 -1.0615  0.0348
  180MOL0     H23708   6.980   0.375   5.867 -3.9831 -2.2843  0.0374
  180MOL0     H23709   7.018   0.544   5.615 -0.4584  1.1752  0.9962
  180MOL0     H23710   7.122   0.527   5.762 -1.6630 -0.6277 -0.4254
  180MOL0     H23711   7.145   0.270   5.682  3.2771 -0.5484 -0.6152
  180MOL0     H23712   7.242   0.406   5.652  0.3157  1.1128 -1.0764
  180MOL0     H23713   7.184   0.520   5.376  0.9068 -0.4285 -1.5137
  180MOL0     H23714   7.110   0.498   5.115 -2.2745  1.8612  1.2546
  180MOL0     H23715   6.970   0.387   5.099 -0.5575  2.9037  0.8260
  180MOL0     H23716   7.113   0.258   4.970  0.3705  0.0542 -0.7359
  180MOL0     H23717   7.186   0.193   5.109  2.8595 -0.2885 -2.5507
  180MOL0     H23718   7.366   0.287   4.942  1.3639 -0.6549  1.1691
  180MOL0     H23719   7.289   0.436   4.961  1.5227 -0.3817 -0.7676
  180MOL0     H23720   7.341   0.404   5.222 -0.0022  3.7825 -1.4187
  180MOL0     H23721   7.477   0.458   5.108  1.9294 -2.6548 -1.0791
  180MOL0     H23722   7.355   0.322   5.435  0.2556  0.0267 -0.6929
  180MOL0     H23723   7.474   0.288   5.657 -3.3180 -2.2818  0.0424
  180MOL0     H23724   7.803   0.145   5.956  0.8423 -0.7626 -3.7505
  180MOL0     H23725   7.875  -0.016   6.134 -0.6898  1.7086 -1.7037
  180MOL0     H23726   7.737  -0.428   6.164 -1.6222  1.0720 -1.0947
  180MOL0     H23727   7.594  -0.359   6.232  0.1525  0.4399  1.9131
  180MOL0     H23728   7.699  -0.501   6.406 -0.0511 -0.3564  2.6942
  180MOL0     H23729   7.712  -0.355   6.469 -1.4399 -0.8540 -0.6943
  180MOL0     H23730   7.956  -0.345   6.343 -0.1584  0.3937  0.8480
  180MOL0     H23731   7.924  -0.511   6.306  2.4796  0.2538 -0.4472
  180MOL0     H23732   7.905  -0.410   6.591 -0.4555 -1.1670  1.5973
  180MOL0     H23733   7.910  -0.578   6.534  0.9738 -0.1124  1.8252
  180MOL0     H23734   8.110  -0.516   6.637 -2.0261 -1.1377 -0.5868
  180MOL0     H23735   8.138  -0.372   6.549 -0.5080  0.6312 -1.8639
  180MOL0     H23736   8.155  -0.528   6.330  1.7673  3.6170  0.0366
  180MOL0     H23737   8.153  -0.657   6.441  0.9210 -1.1200 -3.7571
  180MOL0     H23738   8.364  -0.438   6.451  1.5834 -0.5000  3.8782
  180MOL0     H23739   8.368  -0.577   6.557 -3.0332 -1.2433  1.0766
  180MOL0     H23740   8.371  -0.724   6.359 -0.9447  0.0687 -2.5612
  180MOL0     H23741   8.515  -0.617   6.375 -0.2328  0.6027 -1.0608
  180MOL0     H23742   7.536  -0.270   6.042  1.0490  0.3339  1.3882
  180MOL0     H23743   7.500  -0.128   5.842 -1.0575 -2.7795  2.6451
  180MOL0     H23744   7.819   0.158   5.465  0.2510  2.0875  0.2671
  180MOL0     H23745   7.700   0.209   5.222  0.5947 -0.4934  0.9426
  180MOL0     H23746   6.225   0.537   5.501  0.1821  1.5330  1.5535
  180MOL0     H23747   5.992   0.618   5.420 -0.3839  1.8916  0.5043
  180MOL0     H23748   5.554   0.561   5.276  0.2429  1.0885  0.9891
  180MOL0     H23749   5.363   0.686   5.207  5.0521 -0.8778 -3.1631
  180MOL0     H23750   5.158   0.771   5.308  1.5705 -0.8762 -2.6130
  180MOL0     H23751   5.172   0.847   5.157  0.2386 -3.3941  0.6487
  180MOL0     H23752   5.042   0.959   5.412 -0.5922  0.3840 -0.2370
  180MOL0     H23753   5.095   1.070   5.277  1.4424 -1.8620 -1.7885
  180MOL0     H23754   4.923   0.944   5.131  3.7976  0.3215  0.1082
  180MOL0     H23755   4.878   1.062   5.251  1.3608  0.4350 -1.5456
  180MOL0     H23756   4.869   0.755   5.282 -0.1968 -0.3639  0.5574
  180MOL0     H23757   4.819   0.886   5.396 -0.8393  1.7509  0.3131
  180MOL0     H23758   4.498   0.874   5.098  0.0890  1.6437 -0.4904
  180MOL0     H23759   5.443   0.990   5.492  0.8033  0.3031  0.0432
  180MOL0     H23760   5.625   0.873   5.569  2.1713  0.9139 -1.8003
  181MOL0     O23761   5.942   0.037  10.496  0.6616  0.1376  0.9677
  181MOL0     C23762   6.017  -0.056  10.522  0.7541  0.1265 -0.6378
  181MOL0     O23763   6.006  -0.186  10.485  0.5301 -0.1390 -0.5633
  181MOL0     C23764   5.887  -0.217  10.417 -0.3765 -0.9258  0.4440
  181MOL0     C23765   5.763  -0.189  10.461  0.0260  0.8221  1.1499
  181MOL0     C23766   5.640  -0.229  10.401 -0.5480 -0.7619  0.0669
  181MOL0     C23767   5.661  -0.304  10.282 -0.1319 -0.4113  0.3158
  181MOL0     O23768   5.549  -0.332  10.206  0.2593  0.4494  0.8598
  181MOL0     C23769   5.445  -0.239  10.194  0.5401  1.2166  0.2852
  181MOL0     C23770   5.334  -0.318  10.118  0.6779  0.8074  0.1588
  181MOL0     C23771   5.196  -0.260  10.159  0.2905 -0.6847 -0.3682
  181MOL0     C23772   5.067  -0.330  10.129  0.2686  0.1142  0.4251
  181MOL0     C23773   4.958  -0.261  10.203  0.2184 -0.1602 -0.3720
  181MOL0     C23774   4.820  -0.333  10.202  0.5493 -0.1704  0.4298
  181MOL0     C23775   4.751  -0.351  10.065  0.2228  0.2193 -0.3570
  181MOL0     C23776   4.686  -0.221  10.010 -0.2431  0.9257 -0.0039
  181MOL0     N23777   4.621  -0.269   9.882 -0.5109 -0.4915 -0.5984
  181MOL0     C23778   4.492  -0.281   9.868  0.4626 -0.8565  0.1711
  181MOL0     C23779   4.471  -0.324   9.738  0.4511 -0.0247 -0.1473
  181MOL0     C23780   4.349  -0.362   9.661 -0.3256 -0.8107 -0.6122
  181MOL0     C23781   4.265  -0.238   9.637  0.1791 -0.3987  0.1598
  181MOL0     C23782   4.145  -0.295   9.562 -0.2599  0.4940 -0.1367
  181MOL0     C23783   4.057  -0.196   9.508 -0.2884 -0.6327 -0.5072
  181MOL0     O23784   3.968  -0.148   9.606  0.1067  0.3529 -0.8973
  181MOL0     C23785   3.837  -0.137   9.571  0.3180 -0.0450 -0.2038
  181MOL0     C23786   3.772  -0.258   9.534 -0.9700  0.5451 -0.1674
  181MOL0     C23787   3.637  -0.260   9.512 -0.9190  0.3993  0.5715
  181MOL0     C23788   3.567  -0.141   9.519 -0.5840 -0.4592 -0.4466
  181MOL0     C23789   3.418  -0.124   9.486  0.0926 -0.1398 -0.1081
  181MOL0     O23790   3.347  -0.243   9.472 -0.0337 -0.4728 -0.4447
  181MOL0     C23791   3.214  -0.240   9.453  0.2123 -0.2403  0.0931
  181MOL0     C23792   3.172  -0.256   9.326 -0.0213 -0.0635 -1.0281
  181MOL0     C23793   3.029  -0.265   9.295  0.3526  0.3343 -0.6135
  181MOL0     C23794   2.941  -0.263   9.402 -0.7886  1.3914  0.2024
  181MOL0     O23795   2.808  -0.260   9.381 -0.1688 -0.1790  0.7398
  181MOL0     C23796   2.744  -0.139   9.410  0.3651 -0.0951  0.0897
  181MOL0     C23797   2.678  -0.125   9.549 -0.7296  1.2949 -0.2621
  181MOL0     C23798   2.574  -0.014   9.520 -1.0918 -0.3999 -0.5078
  181MOL0     C23799   2.502   0.035   9.648 -0.0560  0.1637 -1.0225
  181MOL0     C23800   2.435  -0.063   9.736  0.2036  0.3338 -0.8152
  181MOL0     C23801   2.337  -0.164   9.660  0.8323  0.5889 -1.3523
  181MOL0     C23802   2.255  -0.260   9.740  0.5041  0.0543 -0.3805
  181MOL0     C23803   2.181  -0.203   9.861  0.4499  0.0526 -0.3663
  181MOL0    Cl23804   2.069  -0.078   9.790 -0.1446  0.2068 -0.2734
  181MOL0     C23805   2.996  -0.254   9.528  1.2877 -0.1021 -0.5280
  181MOL0     C23806   3.125  -0.249   9.560 -0.4865 -0.3806  1.0114
  181MOL0     O23807   3.368  -0.012   9.471  0.5835 -0.4545 -0.3679
  181MOL0     C23808   3.639  -0.019   9.539 -0.7105  0.1086  0.3195
  181MOL0     C23809   3.772  -0.019   9.581  0.0898  0.2769  0.4096
  181MOL0     N23810   4.597  -0.345   9.688 -0.9212 -0.1002 -0.2211
  181MOL0     N23811   4.687  -0.300   9.768  0.0316 -0.7199 -0.7941
  181MOL0     C23812   5.786  -0.343  10.237 -0.7019  0.1994 -0.1291
  181MOL0     C23813   5.899  -0.302  10.312  0.4137  0.0245  0.4647
  181MOL0     C23814   6.130  -0.031  10.615  0.9320  0.6555  0.2046
  181MOL0     C23815   6.173   0.099  10.630 -0.7230  0.0445 -0.7941
  181MOL0     C23816   6.296   0.121  10.712  0.7820 -0.2837 -0.1472
  181MOL0     C23817   6.365   0.016  10.764 -0.8301  0.9247 -0.0561
  181MOL0     O23818   6.481   0.028  10.843  0.4334 -0.0451 -0.2298
  181MOL0     C23819   6.590   0.094  10.787 -0.2691  0.0044 -0.3262
  181MOL0     C23820   6.730   0.068  10.860  0.1169  1.2769  1.4331
  181MOL0     C23821   6.755  -0.072  10.896  0.0869  0.3526 -1.2341
  181MOL0     C23822   6.895  -0.099  10.939 -0.6781  0.2933 -0.0229
  181MOL0     C23823   6.966  -0.170  10.831  0.1504  0.3844  0.0826
  181MOL0     C23824   7.015  -0.233  10.740  0.8294  0.3401  0.2317
  181MOL0     C23825   6.319  -0.112  10.739 -0.5937  0.6629 -0.3781
  181MOL0     C23826   6.209  -0.144  10.670 -0.1547  0.4650  0.2609
  181MOL0     H23827   5.735  -0.126  10.546 -3.8689 -1.2463  1.6533
  181MOL0     H23828   5.542  -0.198  10.438 -0.5907 -2.5057  1.5660
  181MOL0     H23829   5.486  -0.152  10.141  2.0844 -0.4699 -1.4852
  181MOL0     H23830   5.397  -0.213  10.289 -0.1932  0.7265  0.0568
  181MOL0     H23831   5.340  -0.423  10.151  1.6314  1.2580  1.5076
  181MOL0     H23832   5.339  -0.312  10.009 -0.3205  2.1837  0.1609
  181MOL0     H23833   5.186  -0.158  10.120  0.0952  0.5347  2.5752
  181MOL0     H23834   5.205  -0.253  10.268 -1.1818 -2.0677 -0.1307
  181MOL0     H23835   5.058  -0.335  10.020 -0.2323 -0.7655  0.4963
  181MOL0     H23836   5.080  -0.430  10.173 -1.0685 -0.5312 -0.6021
  181MOL0     H23837   4.961  -0.166  10.148 -0.2867 -1.1873 -2.2624
  181MOL0     H23838   4.988  -0.240  10.306  0.2603 -0.1379 -0.3887
  181MOL0     H23839   4.755  -0.275  10.267 -0.9218 -0.4701 -0.7085
  181MOL0     H23840   4.822  -0.434  10.245  0.3025 -1.7380 -2.8333
  181MOL0     H23841   4.825  -0.393   9.996 -0.0026 -0.7243 -0.0421
  181MOL0     H23842   4.672  -0.426  10.074  0.4192  0.0538  0.0156
  181MOL0     H23843   4.754  -0.135  10.008 -1.8660  2.2827  0.6087
  181MOL0     H23844   4.608  -0.199  10.084 -0.4021 -0.2145  0.1831
  181MOL0     H23845   4.410  -0.254   9.934 -1.7749 -3.3015 -1.3490
  181MOL0     H23846   4.299  -0.430   9.729  1.3046 -1.1434  0.2986
  181MOL0     H23847   4.386  -0.413   9.571  4.2032 -1.0256  1.0734
  181MOL0     H23848   4.313  -0.165   9.571 -1.6952 -0.4010 -1.3170
  181MOL0     H23849   4.232  -0.186   9.727 -2.3795 -0.8414 -0.4417
  181MOL0     H23850   4.183  -0.356   9.479 -0.4234 -0.2771  0.3414
  181MOL0     H23851   4.103  -0.356   9.643  2.1680  1.3973  1.9570
  181MOL0     H23852   4.005  -0.231   9.418  1.9502 -0.6847 -1.8723
  181MOL0     H23853   4.120  -0.111   9.481  2.2583 -2.0855  0.5340
  181MOL0     H23854   3.836  -0.346   9.525  2.9802  3.2795 -1.4883
  181MOL0     H23855   3.584  -0.351   9.483 -0.0354  0.0627 -0.0495
  181MOL0     H23856   3.255  -0.260   9.256 -0.8971 -0.6873 -2.0567
  181MOL0     H23857   2.981  -0.270   9.197 -0.8180  0.0004 -0.0415
  181MOL0     H23858   2.667  -0.129   9.334  2.0285 -1.8144 -1.9357
  181MOL0     H23859   2.818  -0.059   9.397  1.0108 -0.8925 -1.3154
  181MOL0     H23860   2.735  -0.088   9.635  0.3810 -1.0102  0.0495
  181MOL0     H23861   2.633  -0.216   9.589  1.4870  0.6585  0.9279
  181MOL0     H23862   2.501  -0.050   9.447 -1.0410  0.8082 -1.1890
  181MOL0     H23863   2.626   0.070   9.473 -0.3661  0.9242  2.4264
  181MOL0     H23864   2.568   0.091   9.714 -1.1528 -1.7844  1.9778
  181MOL0     H23865   2.430   0.113   9.622  0.8309  1.6918  0.8489
  181MOL0     H23866   2.387   0.002   9.810  1.1470  3.1361 -2.5193
  181MOL0     H23867   2.513  -0.131   9.772 -0.0981  1.0490  1.3384
  181MOL0     H23868   2.403  -0.218   9.592 -0.4159 -0.3198 -1.8735
  181MOL0     H23869   2.260  -0.116   9.599 -0.2032 -1.7870 -2.0270
  181MOL0     H23870   2.178  -0.298   9.672 -2.1465  0.8042  1.9958
  181MOL0     H23871   2.305  -0.352   9.773  1.0790  0.8149  0.9725
  181MOL0     H23872   2.252  -0.155   9.928  2.5123 -3.0446 -0.1294
  181MOL0     H23873   2.127  -0.284   9.912 -1.1180  2.0964  1.3950
  181MOL0     H23874   2.925  -0.256   9.610  1.1247 -0.0366 -0.6673
  181MOL0     H23875   3.147  -0.249   9.667 -2.6286 -0.3592  1.5078
  181MOL0     H23876   3.587   0.075   9.551 -2.1296 -0.8550  2.3685
  181MOL0     H23877   3.814   0.081   9.591 -1.6739  1.2393 -1.0060
  181MOL0     H23878   5.803  -0.408  10.152 -0.0341 -0.7988  0.7463
  181MOL0     H23879   5.998  -0.339  10.286  0.0453 -0.1954 -0.7060
  181MOL0     H23880   6.125   0.180  10.577 -0.1195  0.4486 -0.7291
  181MOL0     H23881   6.345   0.217  10.725  0.9167 -0.3670 -0.0473
  181MOL0     H23882   6.568   0.201  10.793 -1.8789 -0.3147 -0.0292
  181MOL0     H23883   6.605   0.057  10.685 -1.4761 -2.1389  0.2222
  181MOL0     H23884   6.802   0.107  10.787 -0.8412  3.1049  1.3979
  181MOL0     H23885   6.752   0.127  10.950  0.5135  2.8063  0.3778
  181MOL0     H23886   6.704  -0.148  10.837 -2.0425 -1.3851  2.4755
  181MOL0     H23887   6.702  -0.081  10.992  0.9772  0.9670 -0.6745
  181MOL0     H23888   6.941  -0.002  10.960 -2.9629  1.2275  1.0641
  181MOL0     H23889   6.896  -0.162  11.028  3.1488  0.3156  0.1251
  181MOL0     H23890   7.042  -0.262  10.640 -2.1214  0.0473 -0.5716
  181MOL0     H23891   6.384  -0.188  10.781 -0.0316  3.2776  4.1148
  181MOL0     H23892   6.191  -0.250  10.656  1.2234  0.3419 -0.8221
  182MOL0     O23893   5.715   5.336   7.808  0.2469 -0.1927 -0.4763
  182MOL0     C23894   5.737   5.366   7.692  0.2380  0.1905 -0.5535
  182MOL0     O23895   5.655   5.423   7.602  0.7547 -0.7229 -0.5453
  182MOL0     C23896   5.528   5.457   7.641 -1.0955 -0.0824 -0.3394
  182MOL0     C23897   5.477   5.584   7.637  0.5012  0.0557 -0.1328
  182MOL0     C23898   5.338   5.605   7.647  0.0116  0.2711 -0.1362
  182MOL0     C23899   5.253   5.498   7.685  0.4394 -1.0147 -0.2091
  182MOL0     O23900   5.118   5.515   7.693  0.3071 -0.2033 -0.7558
  182MOL0     C23901   5.034   5.423   7.761  0.2712  0.6832  0.1213
  182MOL0     C23902   4.894   5.475   7.746  0.6202  0.3136  0.0388
  182MOL0     C23903   4.798   5.394   7.830  0.0025  0.0146 -0.0855
  182MOL0     C23904   4.650   5.442   7.822  0.0937 -0.5034 -0.2931
  182MOL0     C23905   4.546   5.361   7.893  0.2384 -0.1816  0.4022
  182MOL0     C23906   4.422   5.454   7.918  1.2815  0.3855 -0.0541
  182MOL0     C23907   4.307   5.380   7.998 -0.5891 -0.5639 -0.1955
  182MOL0     C23908   4.359   5.346   8.133 -0.1488  0.2696 -0.7707
  182MOL0     N23909   4.236   5.341   8.216  0.6103 -0.0238 -0.0104
  182MOL0     C23910   4.193   5.428   8.308  0.3829  0.0893 -0.1645
  182MOL0     C23911   4.065   5.386   8.348 -0.3519  0.8159  0.6475
  182MOL0     C23912   3.983   5.465   8.448 -0.7537 -0.3992  0.9106
  182MOL0     C23913   3.824   5.462   8.424  0.4901  0.0497  0.4052
  182MOL0     C23914   3.786   5.520   8.285 -0.4586  0.2225  0.2650
  182MOL0     C23915   3.633   5.535   8.255  0.3415 -0.0210  0.4599
  182MOL0     O23916   3.553   5.428   8.298  0.1357  0.8084 -0.7207
  182MOL0     C23917   3.421   5.424   8.254  0.2840 -0.3507 -0.0026
  182MOL0     C23918   3.344   5.533   8.200  0.3968  0.8765 -0.0398
  182MOL0     C23919   3.211   5.518   8.161 -0.4599 -0.1605  0.5793
  182MOL0     C23920   3.145   5.395   8.183  0.2847 -0.9420  0.9674
  182MOL0     C23921   3.004   5.392   8.164 -0.0866  0.2939  1.3071
  182MOL0     O23922   2.943   5.283   8.212  0.1705 -0.4113  0.5796
  182MOL0     C23923   2.814   5.238   8.216 -0.6993  0.2368  0.6388
  182MOL0     C23924   2.783   5.116   8.277 -0.3412 -0.1136  0.2634
  182MOL0     C23925   2.651   5.070   8.302  0.0753 -0.5053  1.4940
  182MOL0     C23926   2.540   5.133   8.250  0.8960  0.0503 -0.0793
  182MOL0     O23927   2.415   5.083   8.279 -0.3473 -0.3483 -0.8160
  182MOL0     C23928   2.305   5.115   8.199  0.3812  0.0591 -0.4731
  182MOL0     C23929   2.180   5.046   8.256  0.1644 -0.2850 -0.2488
  182MOL0     C23930   2.058   5.101   8.180 -0.7226 -0.0245  0.3084
  182MOL0     C23931   1.919   5.060   8.229 -0.3518 -0.2003 -1.5111
  182MOL0     C23932   1.895   4.911   8.228 -0.5507 -0.4738  0.9016
  182MOL0     C23933   1.747   4.873   8.246  0.9228  0.6525 -0.8810
  182MOL0     C23934   1.648   4.897   8.137  0.2842 -0.4368 -0.0924
  182MOL0     C23935   1.510   4.848   8.186  0.2958  0.2792 -0.2828
  182MOL0    Cl23936   1.401   4.864   8.048 -0.2868 -0.1072 -0.2092
  182MOL0     C23937   2.565   5.255   8.190 -0.2152 -0.1807  1.0579
  182MOL0     C23938   2.701   5.306   8.174  0.3882  0.0473 -0.4931
  182MOL0     O23939   2.952   5.475   8.093 -0.1853 -0.2017  0.4041
  182MOL0     C23940   3.211   5.291   8.242  0.1659 -0.2776  0.0732
  182MOL0     C23941   3.348   5.309   8.280  0.0235 -0.0220 -0.9346
  182MOL0     N23942   4.031   5.288   8.258 -0.7223  0.1359 -0.3355
  182MOL0     N23943   4.139   5.251   8.196 -0.6012  0.0669  1.5325
  182MOL0     C23944   5.312   5.368   7.698  0.9797 -0.4104 -0.2472
  182MOL0     C23945   5.445   5.346   7.672  0.3708 -0.1954 -0.0369
  182MOL0     C23946   5.864   5.311   7.655  1.1688  0.7410 -0.5107
  182MOL0     C23947   5.938   5.367   7.548 -0.0112  0.3096 -0.4002
  182MOL0     C23948   6.066   5.315   7.517  0.6591 -0.1645  0.4284
  182MOL0     C23949   6.120   5.211   7.578 -0.4273 -0.6748  0.4584
  182MOL0     O23950   6.242   5.155   7.544  0.1500  0.2296  0.6493
  182MOL0     C23951   6.325   5.184   7.431  0.6700 -0.4251 -0.6150
  182MOL0     C23952   6.294   5.100   7.304 -0.2268 -0.0746 -0.2179
  182MOL0     C23953   6.396   5.116   7.187  0.4150 -0.1409  0.3944
  182MOL0     C23954   6.544   5.112   7.226  0.4876 -0.2932  0.1144
  182MOL0     C23955   6.593   5.243   7.290  0.1539 -0.3755 -0.2232
  182MOL0     C23956   6.632   5.358   7.326 -0.2546 -0.3940  0.6202
  182MOL0     C23957   6.051   5.148   7.681  0.4501  0.2907  0.0096
  182MOL0     C23958   5.933   5.203   7.721  1.0070  0.3609 -0.0161
  182MOL0     H23959   5.536   5.673   7.618 -0.7510  1.0716  0.6043
  182MOL0     H23960   5.308   5.710   7.646  0.3495  0.4580  2.5849
  182MOL0     H23961   5.064   5.410   7.866  2.9597 -1.9359 -0.8375
  182MOL0     H23962   5.031   5.327   7.708  0.6928  0.1738  0.9866
  182MOL0     H23963   4.867   5.457   7.642  1.0758  1.7866 -0.3632
  182MOL0     H23964   4.885   5.583   7.764  0.3204  0.8116 -2.6588
  182MOL0     H23965   4.830   5.380   7.934  2.9904 -0.8262 -1.0176
  182MOL0     H23966   4.797   5.289   7.799  1.4630 -1.4507  4.0571
  182MOL0     H23967   4.650   5.547   7.853 -4.0631 -0.4245  0.0999
  182MOL0     H23968   4.626   5.435   7.716 -3.0786  0.7773  0.2062
  182MOL0     H23969   4.585   5.324   7.988  0.4537  2.2855  1.3472
  182MOL0     H23970   4.521   5.275   7.829  2.0818 -0.2682 -0.2708
  182MOL0     H23971   4.369   5.489   7.829  0.3276 -3.0718 -0.9933
  182MOL0     H23972   4.449   5.540   7.980  0.7090 -0.8796  2.0169
  182MOL0     H23973   4.225   5.449   8.014  0.3134  0.5592 -0.2954
  182MOL0     H23974   4.272   5.285   7.956 -0.5912 -0.9124  0.5693
  182MOL0     H23975   4.415   5.432   8.171 -2.0752  1.1966  0.0837
  182MOL0     H23976   4.414   5.251   8.141 -0.2108  0.2151 -0.9691
  182MOL0     H23977   4.254   5.512   8.339  3.6624 -2.7226  1.7162
  182MOL0     H23978   4.007   5.571   8.438 -0.2073 -0.5516  0.5324
  182MOL0     H23979   4.019   5.432   8.546  3.7454  1.1251  0.0173
  182MOL0     H23980   3.768   5.521   8.498 -2.5221 -0.6540 -1.1602
  182MOL0     H23981   3.796   5.356   8.423  2.7501 -0.6567  2.3390
  182MOL0     H23982   3.831   5.620   8.284 -0.8546  0.4968  2.9888
  182MOL0     H23983   3.820   5.457   8.202  2.0503  0.7459  0.8014
  182MOL0     H23984   3.627   5.548   8.147 -1.1418 -0.4457  0.4746
  182MOL0     H23985   3.581   5.625   8.292 -1.6156  0.1101 -2.3393
  182MOL0     H23986   3.385   5.632   8.183 -2.4669  1.8941 -1.6621
  182MOL0     H23987   3.154   5.606   8.133  1.0643 -0.2083 -3.3211
  182MOL0     H23988   2.863   5.056   8.319 -1.0454 -1.2519  0.0107
  182MOL0     H23989   2.640   4.972   8.346  2.9468 -1.7130 -0.1526
  182MOL0     H23990   2.323   5.077   8.099 -0.2626 -0.3504 -0.4435
  182MOL0     H23991   2.300   5.225   8.199  2.9389  0.2247 -0.3680
  182MOL0     H23992   2.170   5.064   8.364 -1.6191 -0.7654 -0.3044
  182MOL0     H23993   2.200   4.939   8.246 -1.1488 -0.6590  0.8653
  182MOL0     H23994   2.066   5.074   8.074 -2.0280  4.1440 -1.0460
  182MOL0     H23995   2.066   5.210   8.186 -1.7622  0.0332  1.0271
  182MOL0     H23996   1.913   5.087   8.334  1.2082  0.1844 -1.4911
  182MOL0     H23997   1.844   5.106   8.165 -1.0940  0.6953 -0.0326
  182MOL0     H23998   1.940   4.879   8.322  0.1898  2.0684  1.5120
  182MOL0     H23999   1.944   4.861   8.143 -0.4437 -0.0450  0.7054
  182MOL0     H24000   1.710   4.912   8.342 -1.1774 -0.6061 -1.0936
  182MOL0     H24001   1.743   4.765   8.262  1.2262  0.8772  0.9331
  182MOL0     H24002   1.645   5.001   8.104 -2.0214 -0.1310  0.9019
  182MOL0     H24003   1.673   4.832   8.053 -1.9294 -1.5809  0.0589
  182MOL0     H24004   1.484   4.907   8.274 -0.6928  3.0441 -2.2898
  182MOL0     H24005   1.498   4.743   8.214 -1.6877  0.5660  0.1109
  182MOL0     H24006   2.485   5.302   8.134  1.5035  0.7503 -0.7251
  182MOL0     H24007   2.720   5.398   8.119  0.6196  0.4237  0.1963
  182MOL0     H24008   3.166   5.193   8.250  2.0572 -1.3520 -1.6387
  182MOL0     H24009   3.415   5.238   8.328  1.2703  0.6806 -1.5883
  182MOL0     H24010   5.254   5.280   7.720 -0.9641  1.2561  1.7680
  182MOL0     H24011   5.491   5.247   7.670  0.0555 -0.3305 -0.8250
  182MOL0     H24012   5.919   5.451   7.482  3.0807  1.0702 -0.4951
  182MOL0     H24013   6.117   5.367   7.437  2.1833 -1.0596  0.7757
  182MOL0     H24014   6.430   5.160   7.452  0.7703  0.4482 -0.0739
  182MOL0     H24015   6.315   5.291   7.415 -1.4973 -0.2318  1.3805
  182MOL0     H24016   6.316   4.997   7.335  1.8549  0.2419 -0.5171
  182MOL0     H24017   6.189   5.112   7.276 -0.3874 -0.3153  0.2694
  182MOL0     H24018   6.382   5.210   7.133  0.9754  0.2048  0.8345
  182MOL0     H24019   6.396   5.040   7.108  2.8256  3.3586 -3.3968
  182MOL0     H24020   6.556   5.022   7.287  1.4251  0.3601  0.9123
  182MOL0     H24021   6.599   5.092   7.134 -1.7386  1.4474 -1.7127
  182MOL0     H24022   6.664   5.454   7.360  0.9550 -0.8745  0.8786
  182MOL0     H24023   6.107   5.075   7.738  2.0706  1.6762  0.3011
  182MOL0     H24024   5.882   5.167   7.809 -2.2008  2.1662 -0.9915
  183MOL0     O24025  11.243   7.391   6.400  0.7854 -0.1947  0.6802
  183MOL0     C24026  11.219   7.431   6.515 -0.6705  0.2564  0.2959
  183MOL0     O24027  11.320   7.478   6.597  0.1324  0.0423  0.3564
  183MOL0     C24028  11.450   7.466   6.547 -0.2505  0.4288 -0.2366
  183MOL0     C24029  11.503   7.356   6.491  0.7869  0.7255 -0.8099
  183MOL0     C24030  11.638   7.346   6.451 -0.2018 -0.6610 -0.3469
  183MOL0     C24031  11.727   7.451   6.469 -0.0437  0.2903  0.2197
  183MOL0     O24032  11.862   7.451   6.430  1.1721  0.3252 -0.5731
  183MOL0     C24033  11.939   7.334   6.402 -0.5349 -1.4288  0.4294
  183MOL0     C24034  11.970   7.265   6.539  0.7840  0.5010 -0.0153
  183MOL0     C24035  12.055   7.342   6.643  0.3795  0.7982 -0.7152
  183MOL0     C24036  12.192   7.381   6.589  0.8144  0.8412  0.5451
  183MOL0     C24037  12.286   7.261   6.546  0.7083  0.2788  0.4536
  183MOL0     C24038  12.323   7.173   6.667  0.4309  0.0427 -0.5586
  183MOL0     C24039  12.423   7.065   6.615 -0.2111 -0.0501  1.2034
  183MOL0     C24040  12.452   6.955   6.713 -0.0409  0.0042 -0.3660
  183MOL0     N24041  12.334   6.873   6.758  0.1238 -0.4744  0.7966
  183MOL0     C24042  12.230   6.819   6.684  0.1150 -0.0883 -0.1408
  183MOL0     C24043  12.170   6.727   6.763  0.5065 -1.1380  0.4892
  183MOL0     C24044  12.060   6.632   6.718  0.0947 -0.4778 -0.1697
  183MOL0     C24045  11.929   6.682   6.758 -0.3008  0.0074 -0.3132
  183MOL0     C24046  11.823   6.590   6.689 -0.9073 -1.0583  0.8049
  183MOL0     C24047  11.670   6.616   6.701 -1.4253 -0.6906  0.9875
  183MOL0     O24048  11.633   6.655   6.833  0.6335  0.5815  0.1478
  183MOL0     C24049  11.500   6.670   6.854  0.3542 -0.2008  0.2693
  183MOL0     C24050  11.464   6.723   6.980  0.1818  0.0496  1.0542
  183MOL0     C24051  11.335   6.750   7.013  0.6288  0.0087  0.3703
  183MOL0     C24052  11.237   6.721   6.922  0.0544  0.3879 -0.6131
  183MOL0     C24053  11.097   6.749   6.953  0.2950 -0.0106  0.6232
  183MOL0     O24054  11.076   6.796   7.081 -0.2912  0.3553 -0.0790
  183MOL0     C24055  10.958   6.800   7.139 -0.0954  0.7502  0.8220
  183MOL0     C24056  10.865   6.890   7.100 -0.0194 -0.1001 -0.1952
  183MOL0     C24057  10.741   6.902   7.154  0.2305 -0.6563 -0.3275
  183MOL0     C24058  10.707   6.804   7.255  0.5768 -0.5464  0.7381
  183MOL0     O24059  10.578   6.788   7.306  0.0725 -0.6636  0.4858
  183MOL0     C24060  10.484   6.898   7.312  0.5891 -1.1037 -0.4924
  183MOL0     C24061  10.386   6.855   7.427 -0.0507  0.5947  0.5347
  183MOL0     C24062  10.277   6.954   7.472 -0.7417 -0.8539  0.8528
  183MOL0     C24063  10.177   6.993   7.375 -1.4560 -0.9536  0.1758
  183MOL0     C24064  10.084   6.878   7.324 -0.3543  0.2700 -1.1487
  183MOL0     C24065   9.960   6.925   7.269  0.4132 -0.0806  0.3330
  183MOL0     C24066   9.893   6.813   7.187 -0.0169 -0.4018 -0.6190
  183MOL0     C24067   9.839   6.700   7.285  0.2088  0.4317 -0.2379
  183MOL0    Cl24068   9.735   6.757   7.427  0.8401  0.2267 -0.0459
  183MOL0     C24069  10.796   6.699   7.290 -0.3204 -0.3276 -0.7047
  183MOL0     C24070  10.931   6.707   7.241  0.4460  0.6707  0.1393
  183MOL0     O24071  11.008   6.707   6.876  0.1081  0.6949  0.3441
  183MOL0     C24072  11.269   6.670   6.798  0.7467  0.7971 -0.1605
  183MOL0     C24073  11.399   6.642   6.764  0.0026 -1.2735  0.0786
  183MOL0     N24074  12.236   6.728   6.879  0.4533 -0.2272  0.0336
  183MOL0     N24075  12.329   6.817   6.880 -0.8546 -0.3781 -0.3332
  183MOL0     C24076  11.676   7.562   6.534  0.1339  0.2022 -0.8370
  183MOL0     C24077  11.537   7.568   6.575 -0.4641  0.2935 -0.7007
  183MOL0     C24078  11.080   7.448   6.567 -0.3239  0.0409 -0.0552
  183MOL0     C24079  11.061   7.497   6.693  0.9409  0.7062 -0.0301
  183MOL0     C24080  10.929   7.531   6.736 -0.3607 -0.3771 -0.5494
  183MOL0     C24081  10.821   7.530   6.647  0.3117 -0.6587  0.2991
  183MOL0     O24082  10.697   7.571   6.670  0.5925 -0.8017 -0.2011
  183MOL0     C24083  10.658   7.604   6.803 -0.8918  0.2782  0.1101
  183MOL0     C24084  10.513   7.672   6.803  0.7646 -0.4998 -1.0400
  183MOL0     C24085  10.417   7.555   6.804  0.3833  0.9306 -0.1021
  183MOL0     C24086  10.271   7.588   6.759  0.5363 -0.0441 -0.2106
  183MOL0     C24087  10.185   7.474   6.722  0.4236 -0.2353  0.0340
  183MOL0     C24088  10.107   7.386   6.690  0.3222  0.2996 -0.7908
  183MOL0     C24089  10.843   7.484   6.520 -0.0941  0.6706  0.9955
  183MOL0     C24090  10.968   7.433   6.483 -0.6727  0.6692  0.3454
  183MOL0     H24091  11.437   7.271   6.480  1.0916  0.3914 -0.1247
  183MOL0     H24092  11.672   7.254   6.403  1.0227  0.2445 -1.2765
  183MOL0     H24093  12.028   7.373   6.352 -0.3292  0.8276  2.3882
  183MOL0     H24094  11.884   7.265   6.336  0.8399 -0.5028 -1.8057
  183MOL0     H24095  12.012   7.166   6.522  1.1810 -0.3447  4.5072
  183MOL0     H24096  11.876   7.233   6.585  0.9663 -1.2416 -0.8058
  183MOL0     H24097  12.058   7.277   6.731 -0.8477  2.4475  0.6374
  183MOL0     H24098  11.993   7.427   6.672 -1.7828 -0.9779  0.2380
  183MOL0     H24099  12.172   7.457   6.513  2.0960  0.5527 -0.0922
  183MOL0     H24100  12.247   7.432   6.669  0.8454 -0.2739  1.2568
  183MOL0     H24101  12.381   7.295   6.502  1.5216 -2.8013 -0.4031
  183MOL0     H24102  12.233   7.202   6.471 -0.0358 -1.0113  1.9459
  183MOL0     H24103  12.241   7.122   6.720 -0.0389  1.4382  0.1139
  183MOL0     H24104  12.357   7.238   6.749 -0.5664 -0.6743  0.4558
  183MOL0     H24105  12.358   7.017   6.542  0.1461  1.9147 -0.4795
  183MOL0     H24106  12.510   7.105   6.561 -1.6954  1.8422  0.0840
  183MOL0     H24107  12.498   7.003   6.800 -3.7888  1.7332  0.8855
  183MOL0     H24108  12.527   6.891   6.667  1.0856  0.8231  0.2805
  183MOL0     H24109  12.216   6.845   6.579  0.0186  1.8493  0.3079
  183MOL0     H24110  12.086   6.539   6.770  2.1021  0.5539  0.8125
  183MOL0     H24111  12.085   6.601   6.616  2.5293  1.7546 -0.3697
  183MOL0     H24112  11.914   6.787   6.730  0.5964 -0.0391 -0.9927
  183MOL0     H24113  11.907   6.675   6.865 -0.4075  0.3500 -0.3113
  183MOL0     H24114  11.841   6.596   6.581 -2.1211  2.6280  0.6510
  183MOL0     H24115  11.837   6.488   6.726 -2.1399 -1.4448  0.2772
  183MOL0     H24116  11.619   6.530   6.658 -1.1220 -0.4600  0.1591
  183MOL0     H24117  11.648   6.703   6.639  0.5331  2.0440  3.8295
  183MOL0     H24118  11.549   6.749   7.042 -0.3229  1.1239  1.3062
  183MOL0     H24119  11.316   6.804   7.105  0.3118 -0.8821  0.8380
  183MOL0     H24120  10.895   6.965   7.028  1.3869  0.2975  0.7664
  183MOL0     H24121  10.675   6.973   7.105  1.3574  0.5802 -0.1077
  183MOL0     H24122  10.428   6.932   7.224  1.2666  0.4138 -0.3574
  183MOL0     H24123  10.536   6.988   7.345 -1.6707 -0.5170  1.8261
  183MOL0     H24124  10.450   6.833   7.513  1.0308  0.6846 -0.2258
  183MOL0     H24125  10.330   6.763   7.404  0.6493 -0.3764  2.4650
  183MOL0     H24126  10.322   7.049   7.503 -1.4277  0.3957 -1.7274
  183MOL0     H24127  10.230   6.892   7.549 -2.0552 -3.9779 -2.1833
  183MOL0     H24128  10.116   7.070   7.422 -1.4970  0.0091 -1.4077
  183MOL0     H24129  10.222   7.042   7.288 -1.3975  1.6911  1.6089
  183MOL0     H24130  10.063   6.799   7.396  3.1263 -1.9657 -2.3397
  183MOL0     H24131  10.149   6.819   7.258  0.7318 -0.4957  0.5384
  183MOL0     H24132   9.975   7.010   7.202 -2.0676  0.8030  0.7570
  183MOL0     H24133   9.893   6.960   7.349 -0.6777 -2.3862  0.5158
  183MOL0     H24134   9.816   6.865   7.130  0.2102 -0.5297 -1.0480
  183MOL0     H24135   9.960   6.771   7.111 -0.7748 -0.9830 -0.9818
  183MOL0     H24136   9.929   6.660   7.332 -1.1104  1.5173  3.5693
  183MOL0     H24137   9.794   6.618   7.229 -0.9008 -0.9372  2.4844
  183MOL0     H24138  10.767   6.619   7.358 -0.5219  0.6003  0.3161
  183MOL0     H24139  11.012   6.642   7.273  0.3620  0.7048  0.4229
  183MOL0     H24140  11.192   6.630   6.734  0.2838  2.0337 -0.4151
  183MOL0     H24141  11.432   6.588   6.676  2.7175  1.2876 -0.6604
  183MOL0     H24142  11.738   7.650   6.544 -1.3004  1.1078  0.3965
  183MOL0     H24143  11.511   7.658   6.629  1.6163 -0.3862  1.5907
  183MOL0     H24144  11.144   7.498   6.763  1.0493 -1.6597 -0.0442
  183MOL0     H24145  10.907   7.586   6.827 -1.4466  4.5672 -3.4069
  183MOL0     H24146  10.721   7.682   6.846 -2.9643  3.5482 -2.3161
  183MOL0     H24147  10.674   7.514   6.864  2.1763  0.5884 -0.0945
  183MOL0     H24148  10.500   7.714   6.904 -1.2919  2.4735 -2.3965
  183MOL0     H24149  10.509   7.759   6.738 -0.5067  1.8367  1.9054
  183MOL0     H24150  10.403   7.502   6.899 -0.7638  2.3783  0.5845
  183MOL0     H24151  10.445   7.478   6.731 -1.7959 -1.4757  1.4113
  183MOL0     H24152  10.212   7.634   6.840  1.1393 -0.8903  0.7290
  183MOL0     H24153  10.263   7.655   6.673 -4.6399  2.1884  1.5224
  183MOL0     H24154  10.030   7.314   6.671 -0.2387  0.2486  1.4203
  183MOL0     H24155  10.762   7.464   6.450 -2.4807 -1.6898  4.1596
  183MOL0     H24156  10.983   7.413   6.377 -3.8672 -2.2324  0.2782
  184MOL0     O24157  11.201   0.335   3.043 -0.1291 -0.0809 -0.1356
  184MOL0     C24158  11.195   0.435   3.115 -0.3768 -0.0772 -0.5101
  184MOL0     O24159  11.098   0.530   3.118  0.0256 -0.7155  0.4624
  184MOL0     C24160  11.002   0.525   3.021 -0.3392  0.0369  0.7175
  184MOL0     C24161  10.974   0.437   2.910 -0.5616  0.4094  0.3401
  184MOL0     C24162  10.869   0.455   2.820 -0.7622 -0.2123 -0.1422
  184MOL0     C24163  10.786   0.569   2.841  0.2233 -0.5622  0.0269
  184MOL0     O24164  10.680   0.606   2.761  0.5500  0.2938 -0.8054
  184MOL0     C24165  10.676   0.556   2.633 -0.4165  0.3424 -0.4338
  184MOL0     C24166  10.558   0.450   2.628 -0.3736  0.1741 -0.3373
  184MOL0     C24167  10.420   0.526   2.604 -0.0596 -0.6387 -0.5750
  184MOL0     C24168  10.292   0.446   2.651 -0.0221 -0.0407 -0.7969
  184MOL0     C24169  10.157   0.537   2.645 -0.5731  1.2971 -0.2483
  184MOL0     C24170  10.035   0.466   2.583 -0.7811  0.6912 -0.4293
  184MOL0     C24171   9.978   0.362   2.672 -0.5882  0.0291  0.0304
  184MOL0     C24172   9.844   0.310   2.611 -0.0910 -0.1927  0.0276
  184MOL0     N24173   9.855   0.175   2.564 -0.0579 -0.2422  0.0447
  184MOL0     C24174   9.853   0.077   2.656  0.4244  0.2841  0.2697
  184MOL0     C24175   9.884  -0.041   2.583 -0.2221 -1.2008 -0.4426
  184MOL0     C24176   9.895  -0.182   2.639 -0.0395 -0.1429  0.0379
  184MOL0     C24177   9.799  -0.278   2.570 -0.4395  0.1147 -0.1467
  184MOL0     C24178   9.658  -0.270   2.626 -0.0275  0.1577 -0.4690
  184MOL0     C24179   9.566  -0.373   2.555 -0.3634 -0.4648  0.3767
  184MOL0     O24180   9.458  -0.406   2.640 -0.4315  0.7896 -0.1837
  184MOL0     C24181   9.351  -0.478   2.584 -1.3288 -0.6671  0.7287
  184MOL0     C24182   9.343  -0.517   2.448  0.7347  0.2280  0.8554
  184MOL0     C24183   9.213  -0.559   2.405 -1.5537 -0.2423  0.0595
  184MOL0     C24184   9.110  -0.573   2.496  0.6537 -0.1495  0.5946
  184MOL0     C24185   8.974  -0.609   2.441 -1.1784 -0.4982  0.0779
  184MOL0     O24186   8.956  -0.619   2.301 -0.8117  0.7646 -0.3572
  184MOL0     C24187   8.839  -0.677   2.246 -0.6484  0.3954 -0.9287
  184MOL0     C24188   8.847  -0.806   2.184 -0.4803 -0.6331  0.5404
  184MOL0     C24189   8.728  -0.856   2.136  0.1574  0.3767  0.2930
  184MOL0     C24190   8.604  -0.787   2.139 -0.6502  0.3388  0.4357
  184MOL0     O24191   8.508  -0.858   2.077  0.2700 -0.3307  0.3490
  184MOL0     C24192   8.371  -0.812   2.089 -0.5111  0.8343  0.0374
  184MOL0     C24193   8.297  -0.898   1.997 -0.0231 -0.5374  0.3584
  184MOL0     C24194   8.154  -0.920   2.047  0.1033 -0.3316 -0.0385
  184MOL0     C24195   8.054  -0.943   1.933 -1.0036 -0.4179  1.1093
  184MOL0     C24196   7.922  -1.004   1.981 -0.0437 -0.5796  0.7062
  184MOL0     C24197   7.819  -0.991   1.869  1.0105 -0.5321 -0.1194
  184MOL0     C24198   7.677  -1.046   1.895  0.0492  0.2707 -0.1189
  184MOL0     C24199   7.588  -1.023   1.767  0.6345 -0.2459 -0.5903
  184MOL0    Cl24200   7.430  -1.084   1.810  0.0314 -0.0936 -0.0677
  184MOL0     C24201   8.596  -0.668   2.201 -0.0919 -0.1234 -0.3862
  184MOL0     C24202   8.716  -0.615   2.266 -0.9193  0.5891  0.0419
  184MOL0     O24203   8.882  -0.629   2.519  0.1313  0.6246  0.3778
  184MOL0     C24204   9.125  -0.546   2.631 -0.1814 -0.4746  0.0428
  184MOL0     C24205   9.242  -0.490   2.671  0.3178 -0.6520 -0.3688
  184MOL0     N24206   9.887  -0.004   2.449  0.6706  1.1288 -0.0759
  184MOL0     N24207   9.873   0.125   2.435 -0.5719  0.6933 -0.0228
  184MOL0     C24208  10.809   0.658   2.947 -0.8650 -1.1522 -0.0541
  184MOL0     C24209  10.917   0.636   3.028  0.2933 -0.7937 -0.3937
  184MOL0     C24210  11.302   0.444   3.220  0.2922  0.1092  0.4792
  184MOL0     C24211  11.294   0.543   3.320  0.8782  0.3979  0.0908
  184MOL0     C24212  11.385   0.556   3.420 -0.3027  0.6318  0.4905
  184MOL0     C24213  11.493   0.463   3.422  0.3419 -0.3218 -0.5590
  184MOL0     O24214  11.579   0.469   3.535 -0.5191 -0.0278  0.3445
  184MOL0     C24215  11.676   0.361   3.556  0.2111  0.0727 -0.1684
  184MOL0     C24216  11.707   0.378   3.701  0.1288 -0.1639 -0.2893
  184MOL0     C24217  11.827   0.294   3.739 -0.7665 -0.1729 -0.3193
  184MOL0     C24218  11.858   0.314   3.894 -0.7266 -0.4556 -0.0659
  184MOL0     C24219  11.947   0.211   3.930  0.7841 -0.0436 -0.2187
  184MOL0     C24220  12.040   0.134   3.945  0.2444 -0.7870 -0.6734
  184MOL0     C24221  11.511   0.374   3.329  0.1268  0.2369  0.3190
  184MOL0     C24222  11.409   0.358   3.231 -0.1971 -0.5603 -0.0757
  184MOL0     H24223  11.037   0.351   2.887 -0.3210  1.0448 -1.5791
  184MOL0     H24224  10.855   0.382   2.742 -1.6205 -0.1721 -0.0405
  184MOL0     H24225  10.766   0.502   2.601 -1.3554 -0.5940 -1.5768
  184MOL0     H24226  10.659   0.639   2.564 -1.1066  3.7599  3.4353
  184MOL0     H24227  10.566   0.395   2.722  1.3961 -0.0409 -0.5639
  184MOL0     H24228  10.574   0.370   2.556 -1.7018 -1.2339  0.8753
  184MOL0     H24229  10.410   0.557   2.500  2.5814  1.2422 -0.3822
  184MOL0     H24230  10.414   0.611   2.673 -0.7362 -2.4558  1.7587
  184MOL0     H24231  10.274   0.352   2.599 -2.2478 -1.8570  2.8260
  184MOL0     H24232  10.306   0.412   2.754 -2.3269 -0.4999 -0.5974
  184MOL0     H24233  10.183   0.624   2.584  0.7698  1.9350  1.1369
  184MOL0     H24234  10.124   0.579   2.741 -0.0027  1.4059 -0.0963
  184MOL0     H24235  10.078   0.411   2.498 -0.6916 -0.4102  0.3039
  184MOL0     H24236   9.962   0.536   2.542 -1.0211 -0.9664 -3.0823
  184MOL0     H24237  10.051   0.280   2.674 -1.0659 -0.3917  0.8342
  184MOL0     H24238   9.967   0.391   2.777 -2.0527 -0.7735  0.1322
  184MOL0     H24239   9.817   0.370   2.524 -1.2601 -1.0099 -0.1983
  184MOL0     H24240   9.762   0.327   2.681  0.8754  0.2072  1.1053
  184MOL0     H24241   9.835   0.089   2.762  0.5574  1.6810  0.1630
  184MOL0     H24242   9.880  -0.184   2.747  1.9054 -1.4799  0.3378
  184MOL0     H24243   9.999  -0.216   2.635  0.6313  1.2859  2.9621
  184MOL0     H24244   9.838  -0.379   2.585  2.1476  0.7906 -1.5573
  184MOL0     H24245   9.797  -0.251   2.464  0.3351 -0.9137 -0.4497
  184MOL0     H24246   9.667  -0.293   2.732  2.2344 -1.1558 -0.8722
  184MOL0     H24247   9.623  -0.168   2.609  0.0865  0.2691 -0.0283
  184MOL0     H24248   9.609  -0.469   2.525  0.4372  0.4614 -1.6935
  184MOL0     H24249   9.527  -0.330   2.462 -1.5260  0.1360  1.1161
  184MOL0     H24250   9.427  -0.504   2.380 -0.2259  0.8078 -0.2681
  184MOL0     H24251   9.197  -0.572   2.298  0.0330 -2.7141  0.0526
  184MOL0     H24252   8.936  -0.863   2.163 -1.6040 -2.3014  0.0428
  184MOL0     H24253   8.728  -0.940   2.067 -2.3161  1.9388 -1.7814
  184MOL0     H24254   8.351  -0.708   2.064  2.2736  1.5359  0.3383
  184MOL0     H24255   8.343  -0.836   2.192  1.6681 -0.9887  0.2968
  184MOL0     H24256   8.343  -0.996   1.985 -1.7816 -1.2890 -0.4924
  184MOL0     H24257   8.304  -0.848   1.900 -2.6146 -1.3145 -0.3017
  184MOL0     H24258   8.114  -0.837   2.105 -0.9466 -1.0408  0.2874
  184MOL0     H24259   8.160  -1.005   2.116  1.3287 -1.0985 -1.0442
  184MOL0     H24260   8.029  -0.846   1.889  0.8239 -0.6969 -0.6876
  184MOL0     H24261   8.097  -1.009   1.857 -2.3293 -0.2587  0.1798
  184MOL0     H24262   7.892  -0.945   2.068 -2.0165  2.2633 -1.7317
  184MOL0     H24263   7.935  -1.110   2.007 -0.2967 -0.7961 -0.0363
  184MOL0     H24264   7.853  -1.044   1.779  0.6524  0.5253 -0.9052
  184MOL0     H24265   7.796  -0.889   1.836  1.3505 -0.1854  0.6869
  184MOL0     H24266   7.699  -1.152   1.912 -1.1896  0.0567  0.2692
  184MOL0     H24267   7.639  -0.993   1.983  4.1865  1.6882  1.0323
  184MOL0     H24268   7.631  -1.071   1.679 -0.6186  0.1506 -1.4530
  184MOL0     H24269   7.584  -0.915   1.747  2.7530  0.0829  0.4736
  184MOL0     H24270   8.501  -0.616   2.205  0.1918  0.4698 -1.0065
  184MOL0     H24271   8.715  -0.521   2.319 -3.4881  3.4627 -4.3941
  184MOL0     H24272   9.051  -0.566   2.708  2.3952 -1.5664  2.3884
  184MOL0     H24273   9.255  -0.448   2.770  1.0527 -0.8621 -0.3706
  184MOL0     H24274  10.746   0.747   2.947  0.4109  0.0931  5.0963
  184MOL0     H24275  10.935   0.715   3.101 -1.0566  1.5665 -2.4376
  184MOL0     H24276  11.218   0.618   3.305 -1.7536 -2.4854 -2.4788
  184MOL0     H24277  11.386   0.641   3.487  0.0857 -0.6548  2.1848
  184MOL0     H24278  11.759   0.373   3.486 -0.5287  3.2238 -0.6768
  184MOL0     H24279  11.618   0.269   3.542 -1.2729  1.2124 -2.0474
  184MOL0     H24280  11.731   0.482   3.723  2.5451 -0.4606 -1.2030
  184MOL0     H24281  11.627   0.342   3.767  1.9084 -0.0721  2.0803
  184MOL0     H24282  11.911   0.329   3.679 -2.1245  0.7043 -1.7905
  184MOL0     H24283  11.798   0.191   3.720 -1.2312 -0.0900 -0.0814
  184MOL0     H24284  11.896   0.410   3.929  1.3271 -2.6001  4.4736
  184MOL0     H24285  11.766   0.318   3.954 -1.9696  0.8985 -1.9507
  184MOL0     H24286  12.128   0.079   3.971 -0.4793 -0.9460  1.7500
  184MOL0     H24287  11.597   0.309   3.334 -0.5311 -0.6196  0.6879
  184MOL0     H24288  11.428   0.277   3.160  0.7695 -0.8973  0.5450
  185MOL0     O24289   5.352   1.719   8.312 -0.6555  0.6476 -0.0285
  185MOL0     C24290   5.435   1.697   8.227 -0.3091 -0.7863 -0.1495
  185MOL0     O24291   5.409   1.668   8.097  0.2891 -0.1095  0.1144
  185MOL0     C24292   5.270   1.657   8.057 -0.1315  0.3546  0.1560
  185MOL0     C24293   5.225   1.541   7.993 -0.3110  0.4416 -0.1108
  185MOL0     C24294   5.099   1.540   7.932 -0.0551  0.3978  1.4029
  185MOL0     C24295   5.016   1.649   7.940 -0.0787  0.4626  0.3425
  185MOL0     O24296   4.896   1.639   7.879 -0.0148  0.4861 -0.3463
  185MOL0     C24297   4.788   1.731   7.931 -0.0084  0.6746 -0.1039
  185MOL0     C24298   4.658   1.706   7.865  0.0470  0.0101 -0.0435
  185MOL0     C24299   4.546   1.791   7.917  0.3266 -0.4117 -1.2346
  185MOL0     C24300   4.418   1.757   7.846  0.2605 -0.5706  0.6720
  185MOL0     C24301   4.308   1.861   7.880 -0.0289 -0.2604 -0.1353
  185MOL0     C24302   4.179   1.811   7.820  0.0008 -1.1726 -0.9198
  185MOL0     C24303   4.074   1.921   7.790 -0.3811 -0.0278 -0.0735
  185MOL0     C24304   4.029   1.987   7.912 -0.0158  0.4543 -0.1901
  185MOL0     N24305   3.906   2.061   7.881 -0.6015  0.9202 -0.1049
  185MOL0     C24306   3.912   2.172   7.798  0.3645  0.0117  0.7082
  185MOL0     C24307   3.783   2.230   7.810  0.9256  0.8251 -0.0385
  185MOL0     C24308   3.728   2.347   7.735 -0.4721 -0.2398 -0.5206
  185MOL0     C24309   3.579   2.327   7.709  0.4191 -0.2052 -1.0591
  185MOL0     C24310   3.522   2.449   7.635 -1.1067 -0.3869  0.3321
  185MOL0     C24311   3.376   2.411   7.606 -0.2712 -0.3498  0.2225
  185MOL0     O24312   3.313   2.518   7.528 -0.5783 -0.8699 -0.5825
  185MOL0     C24313   3.224   2.482   7.430  0.0204  0.3157  0.4720
  185MOL0     C24314   3.126   2.378   7.448  0.1992 -0.2709  0.2002
  185MOL0     C24315   3.010   2.385   7.364  0.2718  0.1177 -0.1084
  185MOL0     C24316   2.998   2.457   7.240 -0.0526  0.3012 -0.1592
  185MOL0     C24317   2.871   2.443   7.167 -0.5028 -1.4870  0.4588
  185MOL0     O24318   2.852   2.543   7.073 -0.0574 -0.6374 -0.1767
  185MOL0     C24319   2.749   2.515   6.980  0.0974 -0.1710 -0.1115
  185MOL0     C24320   2.778   2.517   6.841  0.4051 -0.3584 -0.3100
  185MOL0     C24321   2.674   2.488   6.744  0.8812  0.5343  0.0697
  185MOL0     C24322   2.546   2.461   6.786  1.1878  1.1361 -0.6750
  185MOL0     O24323   2.442   2.437   6.697  0.8983 -0.7286  0.1181
  185MOL0     C24324   2.304   2.414   6.744 -0.8108  0.5975  0.3672
  185MOL0     C24325   2.206   2.364   6.633 -0.5154  0.5526 -0.2757
  185MOL0     C24326   2.209   2.457   6.521 -0.3999  0.2568  0.1887
  185MOL0     C24327   2.107   2.416   6.409 -0.3361 -0.8960  0.1971
  185MOL0     C24328   1.968   2.419   6.462  0.6051  0.3605 -0.4487
  185MOL0     C24329   1.860   2.371   6.367 -0.0689 -0.0397  0.1390
  185MOL0     C24330   1.867   2.220   6.331  0.2394 -0.9162  0.7073
  185MOL0     C24331   1.775   2.191   6.211  0.2893  0.2671 -1.1974
  185MOL0    Cl24332   1.609   2.252   6.241  0.0705  0.6239  0.6123
  185MOL0     C24333   2.517   2.477   6.921 -0.1776  0.2757  0.2227
  185MOL0     C24334   2.613   2.494   7.022 -0.2520 -0.0561  0.1442
  185MOL0     O24335   2.791   2.355   7.195  0.2469  0.1825 -0.5980
  185MOL0     C24336   3.100   2.547   7.221  0.1883 -0.8615 -0.2987
  185MOL0     C24337   3.214   2.554   7.310  0.3159  0.4246 -0.0258
  185MOL0     N24338   3.715   2.144   7.889  0.8905  0.4045 -0.4888
  185MOL0     N24339   3.784   2.047   7.927  0.0732  0.1449 -0.1799
  185MOL0     C24340   5.059   1.768   8.011 -0.1513  0.2813  0.2931
  185MOL0     C24341   5.187   1.765   8.072 -0.1203  0.7192  0.2147
  185MOL0     C24342   5.573   1.676   8.268 -0.8588  0.7359 -0.0689
  185MOL0     C24343   5.651   1.780   8.308  0.4355  0.8118  0.3747
  185MOL0     C24344   5.783   1.750   8.359 -0.3964  0.3112  0.1184
  185MOL0     C24345   5.833   1.620   8.378  0.2101  0.2654  0.0795
  185MOL0     O24346   5.965   1.599   8.414  0.1173  0.8210 -0.3239
  185MOL0     C24347   6.033   1.680   8.511  0.1899 -0.4895 -0.8078
  185MOL0     C24348   6.138   1.595   8.572  0.4014 -0.0300 -0.5832
  185MOL0     C24349   6.091   1.461   8.636  0.0054 -0.7926  1.0884
  185MOL0     C24350   5.974   1.475   8.732 -0.2406 -0.2426  1.0834
  185MOL0     C24351   5.970   1.376   8.842 -0.3037  0.1053  0.2253
  185MOL0     C24352   5.978   1.296   8.937 -0.0638  0.4132 -0.2709
  185MOL0     C24353   5.756   1.520   8.326  0.5068  0.3605  0.5321
  185MOL0     C24354   5.618   1.542   8.282 -0.5125 -0.0459  0.4542
  185MOL0     H24355   5.289   1.453   7.994 -0.8945 -0.0283 -1.5958
  185MOL0     H24356   5.083   1.453   7.869  0.7203  0.7684  0.6687
  185MOL0     H24357   4.822   1.834   7.917 -0.2543  1.0288  1.6403
  185MOL0     H24358   4.780   1.707   8.038 -0.5178 -0.8190 -0.4510
  185MOL0     H24359   4.641   1.602   7.895 -3.0681  1.1101  2.6864
  185MOL0     H24360   4.666   1.718   7.757 -0.6721  1.0798 -0.0039
  185MOL0     H24361   4.566   1.899   7.924 -1.0283 -0.2182  0.3867
  185MOL0     H24362   4.543   1.775   8.026 -0.4096 -0.6187 -1.2828
  185MOL0     H24363   4.437   1.738   7.740  1.2930 -2.0082  1.0787
  185MOL0     H24364   4.388   1.658   7.882  1.5243 -0.2988  2.6612
  185MOL0     H24365   4.346   1.950   7.829  1.6783 -0.6212  0.4364
  185MOL0     H24366   4.291   1.876   7.988 -2.1887 -0.8851 -0.3396
  185MOL0     H24367   4.146   1.718   7.867  2.8479 -1.9053 -0.1896
  185MOL0     H24368   4.197   1.769   7.721  0.5657 -2.5311 -0.2784
  185MOL0     H24369   4.126   1.985   7.718 -1.1510  2.6626  1.5771
  185MOL0     H24370   3.989   1.874   7.740 -1.1582  1.4954 -0.2589
  185MOL0     H24371   4.108   2.053   7.948  1.0937 -0.8650 -0.1293
  185MOL0     H24372   4.007   1.908   7.984  1.0516  0.9464  0.7001
  185MOL0     H24373   3.991   2.211   7.735  0.0267 -0.3229  0.0725
  185MOL0     H24374   3.778   2.380   7.643 -1.1351  4.0429  0.4606
  185MOL0     H24375   3.741   2.437   7.795 -2.2092 -0.5732  0.3981
  185MOL0     H24376   3.525   2.319   7.804 -2.4291  1.8158 -2.3621
  185MOL0     H24377   3.576   2.244   7.638  0.1799 -0.1315 -1.1329
  185MOL0     H24378   3.519   2.534   7.704 -1.1049  0.6769 -0.9538
  185MOL0     H24379   3.574   2.477   7.543  1.1925 -3.2494  0.6158
  185MOL0     H24380   3.327   2.388   7.701  0.2087 -1.6432  0.1819
  185MOL0     H24381   3.388   2.317   7.552  2.7044 -0.7005  1.3107
  185MOL0     H24382   3.116   2.343   7.550  1.9266  1.6757  1.1191
  185MOL0     H24383   2.928   2.323   7.399  1.9131  0.0289  4.0909
  185MOL0     H24384   2.882   2.531   6.814  0.5685  2.5280  1.3892
  185MOL0     H24385   2.693   2.477   6.637 -0.2739 -1.5369  0.0221
  185MOL0     H24386   2.262   2.505   6.789 -1.3608  1.2666 -1.4311
  185MOL0     H24387   2.303   2.340   6.825 -1.8781  0.0022 -0.1711
  185MOL0     H24388   2.111   2.358   6.686  0.3787  1.0885  1.4543
  185MOL0     H24389   2.240   2.264   6.605 -0.1908  0.1202  1.5732
  185MOL0     H24390   2.313   2.458   6.487  0.0021  0.7188  1.3975
  185MOL0     H24391   2.170   2.554   6.553  1.6999  0.2607  3.1052
  185MOL0     H24392   2.116   2.476   6.319 -1.4307 -1.1845 -0.1248
  185MOL0     H24393   2.132   2.312   6.384 -1.2585 -1.4671  1.4993
  185MOL0     H24394   1.937   2.521   6.486 -1.8189 -0.0116 -1.6100
  185MOL0     H24395   1.961   2.356   6.551  0.2527  2.0080  0.7345
  185MOL0     H24396   1.878   2.427   6.276 -3.1335  3.5585  1.5028
  185MOL0     H24397   1.766   2.395   6.416 -1.3636 -2.5366 -0.9270
  185MOL0     H24398   1.970   2.191   6.310  0.7427  1.2928 -0.1869
  185MOL0     H24399   1.840   2.159   6.418 -1.2213  2.0266  2.4751
  185MOL0     H24400   1.765   2.084   6.195 -1.8198 -0.0447  1.5294
  185MOL0     H24401   1.825   2.234   6.123  0.5897  0.2400 -1.0431
  185MOL0     H24402   2.416   2.461   6.958 -1.3380  2.4029 -1.7678
  185MOL0     H24403   2.590   2.494   7.128 -0.9119 -1.4708  0.0328
  185MOL0     H24404   3.098   2.614   7.136  3.0090  2.0924  1.7388
  185MOL0     H24405   3.272   2.643   7.291 -1.9187  1.3437 -3.3406
  185MOL0     H24406   5.006   1.863   8.006  2.3253  1.7883  0.8893
  185MOL0     H24407   5.223   1.854   8.123 -0.1014 -0.8000  3.0577
  185MOL0     H24408   5.618   1.883   8.319 -0.3676  0.8420 -1.6766
  185MOL0     H24409   5.843   1.839   8.371 -0.7545  0.1616  4.5642
  185MOL0     H24410   5.969   1.728   8.586  0.4218  0.0518 -0.9549
  185MOL0     H24411   6.067   1.766   8.452 -1.2929  0.8830  0.2517
  185MOL0     H24412   6.226   1.591   8.507  1.5480 -0.0916  0.9131
  185MOL0     H24413   6.174   1.659   8.653  3.9288 -0.4986 -1.6022
  185MOL0     H24414   6.172   1.404   8.682 -0.8306 -1.8768  1.2666
  185MOL0     H24415   6.063   1.399   8.550  0.5736 -0.1823  0.4476
  185MOL0     H24416   5.987   1.574   8.777  1.7236 -0.5417  1.2716
  185MOL0     H24417   5.874   1.462   8.689 -0.8315  3.6942  0.8378
  185MOL0     H24418   5.994   1.224   9.014 -0.4806  0.4334 -0.1649
  185MOL0     H24419   5.782   1.415   8.335 -2.1680 -0.3859  0.3654
  185MOL0     H24420   5.549   1.460   8.265  0.2442 -0.6096  0.0351
  186MOL0     O24421   5.538   4.238   0.358 -0.6096  1.0719  0.2809
  186MOL0     C24422   5.555   4.166   0.258  0.0870 -0.1589  0.0442
  186MOL0     O24423   5.479   4.159   0.136 -0.5717 -0.1673 -0.3023
  186MOL0     C24424   5.344   4.168   0.149  0.9072 -0.3457  0.9390
  186MOL0     C24425   5.274   4.260   0.068  0.2048  0.2567  0.1887
  186MOL0     C24426   5.135   4.278   0.082  0.2917  0.3472 -0.5135
  186MOL0     C24427   5.063   4.195   0.176  0.0346  0.3490 -0.5054
  186MOL0     O24428   4.926   4.207   0.193  0.1612 -0.0653  0.6116
  186MOL0     C24429   4.854   4.321   0.124 -0.6233 -0.2899 -0.1917
  186MOL0     C24430   4.727   4.351   0.202  0.3797  0.3005 -0.3795
  186MOL0     C24431   4.607   4.265   0.157  0.6377  1.0406 -0.0068
  186MOL0     C24432   4.542   4.313   0.024  0.5326  1.1583 -0.2353
  186MOL0     C24433   4.429   4.218  -0.014 -0.1163  0.5686 -0.7040
  186MOL0     C24434   4.303   4.216   0.073 -1.1398 -0.1368  0.8187
  186MOL0     C24435   4.214   4.094   0.033  0.1996 -0.3198 -0.2930
  186MOL0     C24436   4.065   4.122   0.079 -0.6914 -1.1327  0.4159
  186MOL0     N24437   3.978   4.004   0.065  0.2470 -0.4832  0.0028
  186MOL0     C24438   4.003   3.883   0.122  0.1429  0.3159 -0.3766
  186MOL0     C24439   3.910   3.805   0.070 -0.1964 -0.1860 -0.6905
  186MOL0     C24440   3.894   3.662   0.102  0.0067  0.0433 -0.6209
  186MOL0     C24441   3.749   3.616   0.110  0.4136 -0.4436 -0.6325
  186MOL0     C24442   3.715   3.574  -0.036 -0.1674  0.4590 -0.1097
  186MOL0     C24443   3.576   3.500  -0.027  0.3259 -0.6371 -0.3727
  186MOL0     O24444   3.589   3.372   0.033  1.1778  0.6213 -0.1575
  186MOL0     C24445   3.494   3.273   0.013  0.5878  0.5348  0.1836
  186MOL0     C24446   3.520   3.141   0.063  0.1212  0.6478 -0.3934
  186MOL0     C24447   3.436   3.035   0.038  0.3036  0.1530  0.2012
  186MOL0     C24448   3.314   3.053  -0.028 -0.5583  0.3364  1.2689
  186MOL0     C24449   3.215   2.939  -0.054 -0.4895 -0.5637  0.8705
  186MOL0     O24450   3.099   2.966  -0.117 -0.0913  0.2097  0.7876
  186MOL0     C24451   2.997   2.883  -0.117  0.4133 -1.5650 -1.2114
  186MOL0     C24452   2.970   2.831  -0.245 -0.7071  0.5464 -0.4549
  186MOL0     C24453   2.851   2.751  -0.274 -0.7043 -0.5698  0.4861
  186MOL0     C24454   2.754   2.746  -0.175 -0.1853 -0.4515  0.4470
  186MOL0     O24455   2.649   2.670  -0.208  0.2505  0.1904  0.1598
  186MOL0     C24456   2.539   2.662  -0.116 -0.7005  0.6818  0.0114
  186MOL0     C24457   2.450   2.561  -0.181 -1.5155 -0.2827 -0.7359
  186MOL0     C24458   2.330   2.545  -0.090 -0.6814  0.6852  0.2119
  186MOL0     C24459   2.253   2.420  -0.132 -0.3581  0.3581  0.3860
  186MOL0     C24460   2.175   2.453  -0.263 -0.5340 -0.1282  0.0661
  186MOL0     C24461   2.076   2.341  -0.288 -0.7477  0.3736  0.1011
  186MOL0     C24462   2.019   2.373  -0.423  0.2485  1.0641 -0.5199
  186MOL0     C24463   1.937   2.251  -0.471 -0.2778  0.2889  0.4220
  186MOL0    Cl24464   1.829   2.303  -0.609 -0.4718 -0.3755  0.1226
  186MOL0     C24465   2.777   2.810  -0.047 -0.1615  0.8129  0.0024
  186MOL0     C24466   2.902   2.873  -0.021  0.6960  0.4636 -0.0364
  186MOL0     O24467   3.252   2.826  -0.013 -0.3985 -0.4361  0.1785
  186MOL0     C24468   3.285   3.188  -0.089 -0.2530 -0.4947  0.3689
  186MOL0     C24469   3.381   3.288  -0.069  0.0675  0.0011 -0.2969
  186MOL0     N24470   3.825   3.883  -0.011  1.0491  1.1065 -0.2412
  186MOL0     N24471   3.872   4.006  -0.022 -0.2661  0.0336  0.8662
  186MOL0     C24472   5.130   4.098   0.249 -0.5253 -0.2271  0.0210
  186MOL0     C24473   5.274   4.086   0.245 -0.1079  0.6612 -0.8807
  186MOL0     C24474   5.684   4.092   0.261 -0.3379 -0.2792  0.6935
  186MOL0     C24475   5.708   3.990   0.172 -0.0587  0.3846 -0.0105
  186MOL0     C24476   5.833   3.918   0.176  0.2537  0.2877  0.1402
  186MOL0     C24477   5.919   3.943   0.284 -0.4186  0.0506  0.0518
  186MOL0     O24478   6.024   3.856   0.295 -0.2086 -0.0442 -0.0843
  186MOL0     C24479   6.149   3.906   0.232 -0.1891 -0.4281 -0.7203
  186MOL0     C24480   6.178   3.817   0.111 -0.3842  0.5360  0.4840
  186MOL0     C24481   6.291   3.870   0.012 -0.4580  0.1281 -1.1002
  186MOL0     C24482   6.241   3.976  -0.085 -0.5658 -0.3108  0.5088
  186MOL0     C24483   6.230   4.119  -0.027 -0.2500  0.1949  0.4259
  186MOL0     C24484   6.206   4.231   0.012  0.3463 -0.4061  0.1295
  186MOL0     C24485   5.889   4.042   0.373  0.2039  0.2655  0.4260
  186MOL0     C24486   5.784   4.127   0.350 -0.2767  0.0597 -0.2902
  186MOL0     H24487   5.339   4.316   0.001 -1.6174  0.2867 -1.6334
  186MOL0     H24488   5.088   4.356   0.024 -0.4275  0.5541  0.3311
  186MOL0     H24489   4.838   4.304   0.017 -1.1478  1.4704 -0.4220
  186MOL0     H24490   4.918   4.409   0.129 -2.4568  1.0587  0.5373
  186MOL0     H24491   4.700   4.457   0.197  0.7821  0.4980  1.0347
  186MOL0     H24492   4.739   4.332   0.309 -0.7802  0.3193 -0.2366
  186MOL0     H24493   4.525   4.277   0.228 -0.8563  0.7704 -1.6101
  186MOL0     H24494   4.632   4.158   0.153 -0.2063  0.8314  0.1785
  186MOL0     H24495   4.496   4.407   0.054 -0.6088  1.3568 -2.4323
  186MOL0     H24496   4.620   4.325  -0.052  1.3398 -0.7057  0.2206
  186MOL0     H24497   4.470   4.117  -0.028 -1.6021  0.2264 -3.0495
  186MOL0     H24498   4.394   4.241  -0.115 -0.7709 -4.1275 -1.7853
  186MOL0     H24499   4.253   4.310   0.048 -1.6841 -0.9473 -1.3619
  186MOL0     H24500   4.324   4.207   0.180  0.3439 -0.5431  0.5071
  186MOL0     H24501   4.220   4.072  -0.074 -3.5519 -1.6968 -0.3616
  186MOL0     H24502   4.254   4.009   0.089 -0.4206  0.2225  1.0053
  186MOL0     H24503   4.018   4.207   0.028  2.0622  0.9484  1.0340
  186MOL0     H24504   4.071   4.154   0.184  0.7788  1.7704 -0.4318
  186MOL0     H24505   4.075   3.846   0.194 -0.9549 -2.4762 -0.5591
  186MOL0     H24506   3.937   3.649   0.202  0.8577 -2.0717 -1.2139
  186MOL0     H24507   3.958   3.611   0.030 -0.0926  1.1069 -1.4804
  186MOL0     H24508   3.690   3.704   0.139  1.0001  0.2518 -1.4920
  186MOL0     H24509   3.747   3.529   0.177  1.8886  0.3148  0.4577
  186MOL0     H24510   3.702   3.669  -0.088 -1.8830  1.2142  1.5849
  186MOL0     H24511   3.788   3.508  -0.084  0.0661  1.5487 -1.3047
  186MOL0     H24512   3.555   3.481  -0.133 -0.4600 -2.3056  0.0355
  186MOL0     H24513   3.504   3.571   0.014  3.1029  2.7653 -0.9820
  186MOL0     H24514   3.603   3.119   0.130 -0.1671  0.8121  0.0237
  186MOL0     H24515   3.469   2.938   0.073  0.6509  0.1128 -0.2322
  186MOL0     H24516   3.046   2.843  -0.321  0.3294  3.2716  0.9022
  186MOL0     H24517   2.842   2.701  -0.370  2.1009  0.1300 -0.2428
  186MOL0     H24518   2.481   2.752  -0.091 -2.4985 -0.8037  1.5254
  186MOL0     H24519   2.578   2.612  -0.027 -1.6551  0.3714  0.2663
  186MOL0     H24520   2.506   2.467  -0.185 -1.2247 -0.1059 -0.8818
  186MOL0     H24521   2.420   2.597  -0.280 -2.1133 -2.0353 -1.2279
  186MOL0     H24522   2.265   2.632  -0.082 -1.9344 -0.1669 -0.2370
  186MOL0     H24523   2.365   2.525   0.012  0.6715 -3.7466 -0.8786
  186MOL0     H24524   2.304   2.325  -0.151 -0.1192  0.2117  1.6765
  186MOL0     H24525   2.190   2.391  -0.047  0.5760 -3.4233 -0.0528
  186MOL0     H24526   2.251   2.455  -0.342  0.3251 -2.0357  0.7914
  186MOL0     H24527   2.121   2.548  -0.253 -2.7357 -1.2238 -0.9178
  186MOL0     H24528   1.999   2.330  -0.211  3.5510 -1.5711  4.6495
  186MOL0     H24529   2.133   2.249  -0.299 -0.3950  0.8635 -3.0287
  186MOL0     H24530   1.961   2.466  -0.426  2.0045  2.2281 -0.7363
  186MOL0     H24531   2.098   2.383  -0.499 -0.6460 -0.0969 -1.6462
  186MOL0     H24532   1.872   2.228  -0.386 -0.3932 -0.3335  0.1700
  186MOL0     H24533   2.002   2.165  -0.490  1.6909  1.5753  1.0395
  186MOL0     H24534   2.706   2.796   0.034  2.3918 -2.8920  1.8837
  186MOL0     H24535   2.922   2.926   0.071 -0.8739 -1.1415  1.2992
  186MOL0     H24536   3.202   3.216  -0.152 -0.8694 -1.3473  0.7775
  186MOL0     H24537   3.359   3.380  -0.122  1.8393  1.4190  1.2914
  186MOL0     H24538   5.070   4.028   0.308 -2.3555  1.3001  0.0748
  186MOL0     H24539   5.332   4.020   0.308 -0.5053  0.9063 -0.2497
  186MOL0     H24540   5.645   3.960   0.088  0.7594  1.1600 -0.9282
  186MOL0     H24541   5.849   3.846   0.096 -3.1661 -1.8910  1.1688
  186MOL0     H24542   6.232   3.902   0.304 -1.5934  1.0343  1.0896
  186MOL0     H24543   6.138   4.012   0.208  2.5092  0.3041  0.8218
  186MOL0     H24544   6.198   3.711   0.127 -2.3855 -0.0876 -0.7480
  186MOL0     H24545   6.088   3.819   0.048 -0.8760 -2.4556  0.9428
  186MOL0     H24546   6.332   3.782  -0.039  1.6061  0.7293 -0.5885
  186MOL0     H24547   6.372   3.911   0.073  0.5463 -1.1641 -1.5102
  186MOL0     H24548   6.304   3.976  -0.174 -3.2901 -0.1224 -1.5373
  186MOL0     H24549   6.140   3.945  -0.114  0.0818 -0.7326 -1.4223
  186MOL0     H24550   6.204   4.328   0.056  1.8089 -0.7056  0.9442
  186MOL0     H24551   5.960   4.061   0.453  0.2722 -0.5348  0.5688
  186MOL0     H24552   5.773   4.202   0.427 -4.0102 -1.7705  1.2357
  187MOL0     O24553   6.712   3.641   7.005 -0.7987  0.0689  0.3193
  187MOL0     C24554   6.590   3.609   6.983  0.5440 -0.6014 -0.5147
  187MOL0     O24555   6.553   3.510   6.904  1.0547 -0.2941  1.2139
  187MOL0     C24556   6.658   3.433   6.854  0.7118 -0.0061 -0.4004
  187MOL0     C24557   6.651   3.297   6.893 -0.7390 -0.0574 -0.0977
  187MOL0     C24558   6.760   3.218   6.838 -0.6978  0.2659  0.2014
  187MOL0     C24559   6.872   3.271   6.772  0.1353 -0.2638  0.3340
  187MOL0     O24560   6.974   3.193   6.745 -0.0858  0.9118  0.2722
  187MOL0     C24561   7.092   3.240   6.692 -0.2951 -0.0873 -0.4916
  187MOL0     C24562   7.200   3.140   6.708 -0.4072  0.2505  0.7807
  187MOL0     C24563   7.219   3.079   6.845 -0.0565 -0.3096 -0.2209
  187MOL0     C24564   7.332   2.970   6.861  0.9986 -0.2338 -0.2200
  187MOL0     C24565   7.400   2.972   7.001  0.4775 -0.1185  0.5621
  187MOL0     C24566   7.325   2.882   7.104 -0.1450 -0.6312 -0.2349
  187MOL0     C24567   7.180   2.918   7.135  0.4715  0.2531 -0.7688
  187MOL0     C24568   7.133   2.868   7.273  0.4589 -1.0968  0.3354
  187MOL0     N24569   7.137   2.719   7.272  0.2768  0.0671  0.9851
  187MOL0     C24570   7.243   2.649   7.301 -1.2147  0.5887  0.5456
  187MOL0     C24571   7.194   2.524   7.310  0.3718  0.4848 -0.0165
  187MOL0     C24572   7.258   2.389   7.342  0.4210 -0.5224  1.4147
  187MOL0     C24573   7.401   2.384   7.363 -0.0897  0.0888 -0.1234
  187MOL0     C24574   7.430   2.279   7.461 -0.7526  0.3677 -0.0011
  187MOL0     C24575   7.577   2.271   7.498 -0.4470 -0.3805 -0.2823
  187MOL0     O24576   7.633   2.396   7.529  0.3367 -0.6160 -0.5335
  187MOL0     C24577   7.760   2.394   7.580 -0.4437 -0.1033  0.0580
  187MOL0     C24578   7.856   2.291   7.582  0.0149 -0.1156 -0.1547
  187MOL0     C24579   7.983   2.316   7.633 -0.1339 -0.2708  0.1325
  187MOL0     C24580   8.022   2.437   7.688 -1.2465 -1.3942  0.0190
  187MOL0     C24581   8.165   2.463   7.734  0.0832  0.5460 -0.2333
  187MOL0     O24582   8.192   2.593   7.743 -0.5370 -0.0698 -0.6449
  187MOL0     C24583   8.319   2.626   7.800 -0.2308 -0.8536  0.6322
  187MOL0     C24584   8.316   2.730   7.896  0.1645 -0.1681 -0.5733
  187MOL0     C24585   8.435   2.790   7.936 -1.5502 -0.2369 -0.3467
  187MOL0     C24586   8.553   2.729   7.909 -0.3060  0.4740 -0.3516
  187MOL0     O24587   8.663   2.792   7.973 -0.5827 -0.2779  0.4360
  187MOL0     C24588   8.792   2.804   7.906 -0.0344 -0.2754  0.9943
  187MOL0     C24589   8.885   2.704   7.968 -0.6174  0.0192 -0.1892
  187MOL0     C24590   9.029   2.724   7.927  0.1221 -1.6178  0.0997
  187MOL0     C24591   9.075   2.867   7.969 -0.3360  0.1893 -0.2511
  187MOL0     C24592   9.228   2.869   7.998 -0.5456  0.1387  0.1519
  187MOL0     C24593   9.266   2.997   8.058 -0.7793 -0.0088 -0.3319
  187MOL0     C24594   9.413   2.996   8.110  0.3583 -0.9070 -0.6979
  187MOL0     C24595   9.520   3.054   8.016  0.0027 -0.5426 -0.6460
  187MOL0    Cl24596   9.668   3.050   8.104 -0.2834 -0.3073  0.5197
  187MOL0     C24597   8.562   2.613   7.827  0.4265  0.6731 -0.0443
  187MOL0     C24598   8.440   2.570   7.767  0.3479  0.7001 -0.9629
  187MOL0     O24599   8.241   2.361   7.752  0.2851 -0.7687 -0.3181
  187MOL0     C24600   7.920   2.538   7.702 -0.7558 -0.1396 -0.0504
  187MOL0     C24601   7.796   2.511   7.650  0.2772 -0.0793  0.3050
  187MOL0     N24602   7.057   2.522   7.294  0.0702  0.0357  0.3096
  187MOL0     N24603   7.022   2.640   7.277 -0.3972  0.3347  0.5824
  187MOL0     C24604   6.859   3.406   6.734  0.4198 -0.3473  0.8811
  187MOL0     C24605   6.754   3.481   6.774 -0.2126 -0.2237 -0.0336
  187MOL0     C24606   6.480   3.697   7.037 -1.0553  1.0793  0.5864
  187MOL0     C24607   6.349   3.697   7.001  0.0171 -0.0851 -0.2798
  187MOL0     C24608   6.255   3.793   7.055  0.7842 -0.8858 -0.0081
  187MOL0     C24609   6.305   3.889   7.153  0.0342 -0.2075 -1.0360
  187MOL0     O24610   6.218   3.977   7.216 -0.2067  0.5954 -0.3083
  187MOL0     C24611   6.215   3.977   7.357  0.7916 -0.0836  0.0270
  187MOL0     C24612   6.133   4.091   7.417  0.8260  0.4749  0.8175
  187MOL0     C24613   6.037   4.046   7.530  0.6116  0.0971  0.2495
  187MOL0     C24614   5.897   4.017   7.479 -0.4255  1.0118 -0.4153
  187MOL0     C24615   5.894   3.905   7.382 -0.8985  0.7394 -0.2901
  187MOL0     C24616   5.882   3.821   7.296  0.0324 -0.6597 -0.3005
  187MOL0     C24617   6.436   3.895   7.181  0.2612 -0.2116  0.0818
  187MOL0     C24618   6.519   3.798   7.129  0.5154 -0.3408 -0.3858
  187MOL0     H24619   6.581   3.251   6.962  0.1928 -2.6758 -0.7831
  187MOL0     H24620   6.771   3.117   6.876 -3.1153  1.3095  4.3078
  187MOL0     H24621   7.135   3.329   6.739  4.0709 -1.6989 -0.9360
  187MOL0     H24622   7.083   3.264   6.585  0.5929 -1.4864 -0.9115
  187MOL0     H24623   7.297   3.173   6.672 -0.3609 -0.5520  0.1306
  187MOL0     H24624   7.179   3.051   6.647  0.0093  0.6560  0.0395
  187MOL0     H24625   7.125   3.033   6.878 -0.1559 -0.0436 -0.1251
  187MOL0     H24626   7.241   3.163   6.912  1.3470  0.8910 -2.1125
  187MOL0     H24627   7.295   2.868   6.848  1.3888 -1.2609  4.7028
  187MOL0     H24628   7.415   2.989   6.792  0.6137  0.8356 -0.4054
  187MOL0     H24629   7.398   3.078   7.027 -2.3582  0.7219 -2.4333
  187MOL0     H24630   7.503   2.936   6.994  0.8540  0.8665  0.8130
  187MOL0     H24631   7.380   2.882   7.198 -1.6819 -0.7197  0.6965
  187MOL0     H24632   7.319   2.776   7.078 -1.4309 -0.8810  0.9604
  187MOL0     H24633   7.184   3.027   7.146  0.2148 -0.0011  3.2524
  187MOL0     H24634   7.112   2.882   7.058 -2.7273  2.4381  0.8124
  187MOL0     H24635   7.031   2.908   7.286  1.9269  2.5660  2.2016
  187MOL0     H24636   7.201   2.898   7.353  1.1947 -0.1585 -0.6076
  187MOL0     H24637   7.345   2.686   7.310  0.6177 -3.9789  1.0659
  187MOL0     H24638   7.225   2.316   7.267  0.6064 -1.0151  1.8077
  187MOL0     H24639   7.214   2.357   7.437  2.4285 -0.9945  2.2265
  187MOL0     H24640   7.437   2.484   7.391 -0.1729  0.2525 -0.5818
  187MOL0     H24641   7.452   2.348   7.273  2.4454  2.5332  0.1650
  187MOL0     H24642   7.376   2.296   7.555 -1.5133 -1.4997 -0.0438
  187MOL0     H24643   7.401   2.179   7.426  0.2306  0.1758 -0.3203
  187MOL0     H24644   7.626   2.228   7.410  0.8152 -0.6235  0.4987
  187MOL0     H24645   7.583   2.198   7.580 -1.3454  0.0668  0.1956
  187MOL0     H24646   7.838   2.195   7.536 -1.8683 -1.1561  2.5373
  187MOL0     H24647   8.060   2.242   7.619 -0.7971 -0.7850 -0.9284
  187MOL0     H24648   8.224   2.788   7.904 -0.7170 -1.7357  1.9872
  187MOL0     H24649   8.433   2.858   8.020 -2.1980 -2.1205  1.2398
  187MOL0     H24650   8.820   2.908   7.922 -1.9528  0.9069 -2.3569
  187MOL0     H24651   8.785   2.791   7.798  2.0787  1.2326  0.6202
  187MOL0     H24652   8.860   2.603   7.936  0.2635 -1.0360  2.2059
  187MOL0     H24653   8.876   2.697   8.077 -0.3489 -1.7750 -0.2547
  187MOL0     H24654   9.044   2.702   7.821 -2.2444 -1.0152 -0.4039
  187MOL0     H24655   9.095   2.645   7.965 -0.7103 -1.7807  1.2223
  187MOL0     H24656   9.053   2.948   7.899 -0.2519 -0.7152 -1.3483
  187MOL0     H24657   9.018   2.901   8.056 -0.6100 -0.8484 -0.0095
  187MOL0     H24658   9.289   2.844   7.911  1.7729  2.5523  0.9311
  187MOL0     H24659   9.252   2.789   8.070  0.4587 -0.9291 -1.3047
  187MOL0     H24660   9.206   3.024   8.145  1.1228  1.2085  0.6790
  187MOL0     H24661   9.268   3.078   7.985  0.5623  1.9262  1.7149
  187MOL0     H24662   9.416   3.057   8.201 -0.9462 -0.4129 -0.9700
  187MOL0     H24663   9.426   2.896   8.152 -0.7630 -1.9051 -2.6044
  187MOL0     H24664   9.509   3.161   7.994  1.3463 -0.2518 -0.0359
  187MOL0     H24665   9.527   2.995   7.925 -0.3446  0.5499 -1.4086
  187MOL0     H24666   8.651   2.562   7.793  0.1900  0.0385  0.2835
  187MOL0     H24667   8.440   2.496   7.688  1.6256 -0.0906 -0.2621
  187MOL0     H24668   7.938   2.628   7.761  1.9870 -1.9458  2.1200
  187MOL0     H24669   7.728   2.593   7.668  1.4332  0.5491  2.0132
  187MOL0     H24670   6.931   3.448   6.665 -1.7180  2.5387  0.2126
  187MOL0     H24671   6.740   3.584   6.742 -0.7458 -0.5514 -0.9037
  187MOL0     H24672   6.312   3.622   6.932 -1.8265  0.5274 -0.0133
  187MOL0     H24673   6.150   3.791   7.027  0.4870  0.1359  0.9744
  187MOL0     H24674   6.319   3.988   7.390  1.3591 -1.9525 -0.9950
  187MOL0     H24675   6.168   3.885   7.393 -0.6610  0.8992  0.7601
  187MOL0     H24676   6.196   4.172   7.455  0.0701  0.9404  1.1041
  187MOL0     H24677   6.069   4.138   7.342  0.0125 -2.7007 -0.6275
  187MOL0     H24678   6.027   4.123   7.608 -1.5375  0.9151 -0.7769
  187MOL0     H24679   6.078   3.968   7.595 -0.8626 -0.4922  0.5082
  187MOL0     H24680   5.826   3.995   7.559  0.2252 -2.6687 -0.6638
  187MOL0     H24681   5.858   4.106   7.429 -2.3663 -0.9050 -2.5131
  187MOL0     H24682   5.864   3.753   7.215 -3.4114  0.3907 -0.5669
  187MOL0     H24683   6.470   3.979   7.242 -2.6345  0.0509  1.5298
  187MOL0     H24684   6.623   3.797   7.158  0.3655  0.0415  0.1998
  188MOL0     O24685   5.460  10.794   2.884  0.0177  0.0688  0.1758
  188MOL0     C24686   5.451  10.838   2.770  0.2457 -0.4911  1.3421
  188MOL0     O24687   5.341  10.819   2.683 -0.2467  0.7087  0.0834
  188MOL0     C24688   5.217  10.773   2.718  0.3943  0.1637  0.9315
  188MOL0     C24689   5.128  10.801   2.623  0.0197 -0.4003  0.0731
  188MOL0     C24690   4.994  10.773   2.633  0.3617 -0.0205 -0.5188
  188MOL0     C24691   4.945  10.704   2.751 -0.3954 -0.1973  0.5034
  188MOL0     O24692   4.814  10.662   2.741 -0.0512 -0.5922  0.2522
  188MOL0     C24693   4.739  10.666   2.861 -0.4858 -0.2037  0.7919
  188MOL0     C24694   4.607  10.587   2.865 -1.1578 -0.6210 -0.1882
  188MOL0     C24695   4.562  10.545   3.001 -0.4492  0.2374  0.1279
  188MOL0     C24696   4.420  10.491   3.013 -0.3638 -0.6926  0.6168
  188MOL0     C24697   4.298  10.579   2.997 -0.0161  0.1203  0.6419
  188MOL0     C24698   4.229  10.554   2.864  0.3406  0.0880  0.0583
  188MOL0     C24699   4.108  10.636   2.839 -1.5179 -0.2972  0.5151
  188MOL0     C24700   4.024  10.617   2.710  0.1441  0.6531 -0.2770
  188MOL0     N24701   3.893  10.680   2.727 -0.7347  0.1120 -0.4401
  188MOL0     C24702   3.865  10.785   2.643 -0.3306  0.1287 -0.1819
  188MOL0     C24703   3.749  10.831   2.689  0.0504  0.4992  1.2732
  188MOL0     C24704   3.692  10.943   2.609 -0.1731 -0.0613  0.6252
  188MOL0     C24705   3.542  10.961   2.629  1.3572  0.9452  0.4273
  188MOL0     C24706   3.510  11.044   2.761  0.1904  0.0901  0.6867
  188MOL0     C24707   3.360  11.075   2.781  0.2817 -0.0898  0.1503
  188MOL0     O24708   3.282  10.955   2.790 -0.0873 -0.9152  0.2078
  188MOL0     C24709   3.174  10.971   2.875  0.3845 -0.9325 -0.1115
  188MOL0     C24710   3.161  10.899   2.994 -0.7556 -0.0582 -0.4740
  188MOL0     C24711   3.051  10.915   3.086  0.1296 -0.0213 -0.0155
  188MOL0     C24712   2.951  11.015   3.063  0.5260  1.1569 -0.0386
  188MOL0     C24713   2.847  11.039   3.163  0.6205 -0.3861  0.2139
  188MOL0     O24714   2.755  11.135   3.131  0.2783 -0.1599  0.3463
  188MOL0     C24715   2.654  11.165   3.218 -0.3988 -0.5621 -0.1337
  188MOL0     C24716   2.626  11.306   3.236 -0.8764  0.9372 -0.5478
  188MOL0     C24717   2.513  11.334   3.323 -0.0780  0.2856  0.0218
  188MOL0     C24718   2.441  11.238   3.385 -0.2998 -0.0653  0.4666
  188MOL0     O24719   2.345  11.290   3.469 -0.0447  0.0544 -0.4315
  188MOL0     C24720   2.264  11.202   3.553 -0.5171  0.4656 -0.8185
  188MOL0     C24721   2.143  11.287   3.616  0.4122  1.2375 -0.8616
  188MOL0     C24722   2.023  11.193   3.653 -0.8256 -0.1115 -0.4067
  188MOL0     C24723   2.061  11.075   3.735 -0.6621  0.4182  0.9421
  188MOL0     C24724   1.952  10.984   3.773 -0.8892  0.1573  0.2722
  188MOL0     C24725   1.903  10.893   3.663 -0.4430  0.0897  0.1871
  188MOL0     C24726   1.984  10.766   3.644  0.3749  0.7066 -0.2469
  188MOL0     C24727   1.904  10.652   3.595 -0.3681 -0.3970 -0.3978
  188MOL0    Cl24728   1.787  10.669   3.459  0.1482 -0.3254  0.1173
  188MOL0     C24729   2.464  11.101   3.359  0.3123 -0.2698  0.2183
  188MOL0     C24730   2.565  11.067   3.270  0.8267 -0.0504  0.2817
  188MOL0     O24731   2.857  10.985   3.271  0.1687 -0.3433 -0.4940
  188MOL0     C24732   2.971  11.102   2.956 -0.2361  0.5514  0.1113
  188MOL0     C24733   3.084  11.085   2.872 -0.5931 -0.4629  0.2004
  188MOL0     N24734   3.707  10.757   2.800  0.3049 -0.3188  0.3652
  188MOL0     N24735   3.799  10.670   2.816  0.0486  0.5734 -0.5184
  188MOL0     C24736   5.032  10.678   2.854 -0.2998  0.7850 -0.4495
  188MOL0     C24737   5.167  10.709   2.836 -0.6831  0.2565  0.1732
  188MOL0     C24738   5.564  10.892   2.705 -0.5795 -0.0641 -0.7984
  188MOL0     C24739   5.692  10.895   2.772 -0.8902 -0.0110  0.7073
  188MOL0     C24740   5.805  10.941   2.701 -0.3409  0.3320  0.4833
  188MOL0     C24741   5.788  10.995   2.574  0.2007 -0.3055  0.3436
  188MOL0     O24742   5.886  11.061   2.494  0.5492 -0.3801  0.3311
  188MOL0     C24743   6.018  11.056   2.548  0.3477 -0.8106  0.1587
  188MOL0     C24744   6.036  11.170   2.659  0.5354 -0.5847  1.0263
  188MOL0     C24745   6.171  11.229   2.647  0.3999 -0.7787 -0.3521
  188MOL0     C24746   6.206  11.334   2.754 -0.2675 -0.8639  0.0800
  188MOL0     C24747   6.349  11.388   2.736  0.2991  0.3147 -0.0121
  188MOL0     C24748   6.457  11.444   2.728 -0.1520  0.1605 -0.5644
  188MOL0     C24749   5.669  10.994   2.506 -0.8196  0.1744 -0.3602
  188MOL0     C24750   5.559  10.935   2.565  0.2604  0.2130 -0.4509
  188MOL0     H24751   5.158  10.865   2.540  0.4486 -1.9605 -1.0254
  188MOL0     H24752   4.916  10.786   2.559 -1.3215 -2.8898  0.5937
  188MOL0     H24753   4.725  10.773   2.880  1.8792  0.0775  1.1560
  188MOL0     H24754   4.800  10.633   2.945  0.9383  0.4856  0.0533
  188MOL0     H24755   4.613  10.496   2.804  3.1627  0.1786 -1.2634
  188MOL0     H24756   4.529  10.645   2.815 -1.8195 -0.1679  1.3060
  188MOL0     H24757   4.585  10.623   3.075  0.5513 -0.0299  0.1114
  188MOL0     H24758   4.624  10.459   3.027 -2.8898 -3.4061 -4.5848
  188MOL0     H24759   4.413  10.399   2.955  1.7433 -2.1325  2.4905
  188MOL0     H24760   4.409  10.449   3.114 -2.3501 -0.5133  0.5181
  188MOL0     H24761   4.319  10.686   3.004 -3.1018  0.9130 -0.7701
  188MOL0     H24762   4.236  10.544   3.079  3.0560 -2.3583  2.1455
  188MOL0     H24763   4.203  10.449   2.855 -2.7930  0.7309  0.4632
  188MOL0     H24764   4.305  10.578   2.789  2.2738  1.1235  2.2289
  188MOL0     H24765   4.042  10.635   2.927  0.1108  0.4552  1.7898
  188MOL0     H24766   4.132  10.742   2.828  4.0696 -1.4586 -1.1642
  188MOL0     H24767   4.017  10.511   2.687  0.6017  0.9951 -2.1490
  188MOL0     H24768   4.075  10.669   2.629  3.7503  0.8770  1.9235
  188MOL0     H24769   3.915  10.821   2.554 -0.0491  1.1567  0.3778
  188MOL0     H24770   3.692  10.929   2.500  2.4300 -2.8270  0.8291
  188MOL0     H24771   3.744  11.036   2.633 -0.0681 -0.2991  1.3357
  188MOL0     H24772   3.502  10.859   2.628  3.1350  0.1963 -1.0698
  188MOL0     H24773   3.492  11.014   2.547 -0.2435  2.7677  2.4672
  188MOL0     H24774   3.534  10.978   2.845 -2.4949 -0.9135  0.7524
  188MOL0     H24775   3.574  11.133   2.763 -0.3092  0.7378 -3.1980
  188MOL0     H24776   3.317  11.121   2.691 -0.7739 -3.1709 -1.0551
  188MOL0     H24777   3.350  11.142   2.866  3.1386  2.6669 -1.4631
  188MOL0     H24778   3.224  10.815   3.021 -3.6267 -3.4483 -3.2717
  188MOL0     H24779   3.059  10.855   3.176  1.5274 -0.9363 -0.7037
  188MOL0     H24780   2.679  11.389   3.191 -0.0026 -0.1603 -1.5905
  188MOL0     H24781   2.459  11.428   3.323  0.9271  0.9820  3.3875
  188MOL0     H24782   2.316  11.152   3.636 -0.3450 -1.4692 -2.0346
  188MOL0     H24783   2.218  11.131   3.485 -1.0764 -0.3894  0.4188
  188MOL0     H24784   2.110  11.366   3.548  0.8068  0.2175 -2.2947
  188MOL0     H24785   2.167  11.338   3.710  0.6935 -1.7533  0.8115
  188MOL0     H24786   1.974  11.151   3.564  0.7492  2.3790 -2.6072
  188MOL0     H24787   1.953  11.257   3.707 -0.9855 -0.4359 -0.2240
  188MOL0     H24788   2.149  11.029   3.688 -1.3405  0.4962 -0.4657
  188MOL0     H24789   2.096  11.102   3.835  0.5205  2.4578  0.0452
  188MOL0     H24790   1.879  11.056   3.810  0.7688  1.1920  1.7149
  188MOL0     H24791   1.973  10.925   3.863 -0.4967  2.3022  1.6680
  188MOL0     H24792   1.913  10.943   3.566  1.4777 -0.6741 -0.0467
  188MOL0     H24793   1.799  10.861   3.673 -0.9090  1.1797 -0.8435
  188MOL0     H24794   2.068  10.793   3.580 -0.9272  1.2820 -1.7668
  188MOL0     H24795   2.034  10.742   3.738  1.8699 -1.6116 -1.5354
  188MOL0     H24796   1.847  10.612   3.680 -2.5618  2.3899 -0.4092
  188MOL0     H24797   1.980  10.577   3.570 -0.9477 -1.1120 -0.0500
  188MOL0     H24798   2.397  11.031   3.409  0.7903 -0.5056  0.5378
  188MOL0     H24799   2.597  10.964   3.258  0.7597  0.1060 -1.5636
  188MOL0     H24800   2.913  11.193   2.940  1.2590  1.4440 -0.4058
  188MOL0     H24801   3.102  11.161   2.796  1.8961 -3.5331 -2.5979
  188MOL0     H24802   5.005  10.637   2.950  0.8190  0.8291 -0.1006
  188MOL0     H24803   5.232  10.676   2.916 -1.8701 -4.6993 -0.5829
  188MOL0     H24804   5.712  10.865   2.875  1.5801  0.8275  0.5512
  188MOL0     H24805   5.899  10.941   2.755 -0.2201 -1.3294  0.3299
  188MOL0     H24806   6.095  11.055   2.470  0.6632  3.2092  0.1925
  188MOL0     H24807   6.031  10.958   2.593 -0.1181 -0.1429  1.8466
  188MOL0     H24808   5.954  11.242   2.648  1.9063  1.1843  1.9298
  188MOL0     H24809   6.011  11.125   2.755 -2.9692 -0.3761  0.3510
  188MOL0     H24810   6.191  11.272   2.549 -1.3644  1.9557  0.3731
  188MOL0     H24811   6.234  11.141   2.659  0.2668 -0.4826  4.3080
  188MOL0     H24812   6.133  11.415   2.746 -0.8907 -0.8142  4.1061
  188MOL0     H24813   6.198  11.293   2.856  0.5882 -0.5348  0.2860
  188MOL0     H24814   6.549  11.498   2.720  0.1052  0.1568  1.6322
  188MOL0     H24815   5.658  11.035   2.406  0.7925 -0.9720 -1.0509
  188MOL0     H24816   5.470  10.942   2.503 -0.4152 -2.1084  0.1651
  189MOL0     O24817   8.735   9.993   8.322 -0.4545  0.1190  0.8094
  189MOL0     C24818   8.785   9.921   8.233  0.1040 -1.1645  0.2252
  189MOL0     O24819   8.727   9.887   8.117 -0.0780  0.1140  0.2772
  189MOL0     C24820   8.605   9.926   8.080 -0.2935  1.2239 -0.1056
  189MOL0     C24821   8.506   9.825   8.087  0.8084 -0.6443  0.4862
  189MOL0     C24822   8.382   9.835   8.031  0.1620  0.1858 -0.4091
  189MOL0     C24823   8.360   9.959   7.966  0.3592  0.5718 -0.4084
  189MOL0     O24824   8.236   9.967   7.904 -0.6147  0.2582  0.7174
  189MOL0     C24825   8.144  10.081   7.933  0.0698  0.2094  0.5195
  189MOL0     C24826   8.164  10.214   7.848 -0.0054  0.3447  0.2316
  189MOL0     C24827   8.060  10.332   7.883 -0.2303 -0.2000  0.3375
  189MOL0     C24828   8.034  10.342   8.029 -0.4096  0.2184 -0.1827
  189MOL0     C24829   7.952  10.467   8.074  0.1877 -0.6305 -0.8861
  189MOL0     C24830   7.811  10.484   8.019  0.1062 -0.2992 -0.1791
  189MOL0     C24831   7.763  10.629   8.026  0.6877 -0.2698  0.4157
  189MOL0     C24832   7.632  10.653   7.947 -0.6347 -0.3616 -0.3307
  189MOL0     N24833   7.533  10.568   8.002  0.1530 -0.3852  0.5718
  189MOL0     C24834   7.477  10.558   8.118  0.7411  0.2189  0.3170
  189MOL0     C24835   7.364  10.490   8.093 -0.1761  0.5052  0.6560
  189MOL0     C24836   7.256  10.463   8.197 -0.4726  0.4436  0.8496
  189MOL0     C24837   7.194  10.588   8.255 -0.2794 -0.3345  0.4864
  189MOL0     C24838   7.046  10.557   8.300 -0.2838 -0.2645 -0.2720
  189MOL0     C24839   7.009  10.662   8.393 -0.4168 -0.6008 -0.1616
  189MOL0     O24840   6.876  10.634   8.447 -0.3389 -0.0382  0.1844
  189MOL0     C24841   6.773  10.720   8.421 -0.5058 -0.5726 -1.0762
  189MOL0     C24842   6.705  10.788   8.527  0.6871  0.0084 -0.8546
  189MOL0     C24843   6.591  10.867   8.487 -1.1070  0.2390 -0.4001
  189MOL0     C24844   6.547  10.877   8.355  0.1071  0.0613  1.6526
  189MOL0     C24845   6.418  10.943   8.334 -0.2209 -0.2886  0.0019
  189MOL0     O24846   6.388  10.986   8.205 -0.0213 -0.2284  0.3569
  189MOL0     C24847   6.255  10.990   8.184  0.3814 -0.3882  0.2712
  189MOL0     C24848   6.173  10.884   8.151 -0.4697 -0.0107  0.6431
  189MOL0     C24849   6.039  10.897   8.112 -0.8208  1.2196  1.2142
  189MOL0     C24850   5.976  11.017   8.114  0.3380  0.0805 -0.6331
  189MOL0     O24851   5.838  11.034   8.108  0.1927 -0.3106  0.6980
  189MOL0     C24852   5.757  10.933   8.051 -0.4636 -0.1637  0.8687
  189MOL0     C24853   5.649  10.981   7.942 -0.3604 -0.2204 -0.8084
  189MOL0     C24854   5.523  11.037   8.010  0.6328  0.5145 -0.1698
  189MOL0     C24855   5.396  11.056   7.918 -0.9626 -0.2103 -0.4035
  189MOL0     C24856   5.326  10.921   7.861 -0.0287 -0.1335 -0.7507
  189MOL0     C24857   5.208  10.978   7.780  0.8791 -0.0382 -0.1373
  189MOL0     C24858   5.106  10.857   7.748 -0.8480 -0.4896  0.3939
  189MOL0     C24859   4.966  10.875   7.805  0.1260 -0.7261  0.1011
  189MOL0    Cl24860   4.904  11.030   7.751  0.1989 -0.3061 -0.0552
  189MOL0     C24861   6.059  11.132   8.146  0.7274 -0.6808 -0.3752
  189MOL0     C24862   6.202  11.122   8.172  0.1985 -0.4278 -0.5865
  189MOL0     O24863   6.338  10.918   8.422  0.2737 -0.4830  0.0537
  189MOL0     C24864   6.621  10.822   8.252 -0.3216  0.8049 -0.3804
  189MOL0     C24865   6.731  10.738   8.295  0.5173 -0.2272  0.3033
  189MOL0     N24866   7.352  10.462   7.958  0.5801  0.2818 -0.3736
  189MOL0     N24867   7.465  10.494   7.906  0.4932 -0.6500  0.6120
  189MOL0     C24868   8.457  10.059   7.944 -0.0860 -0.2811 -0.0422
  189MOL0     C24869   8.584  10.036   7.997 -0.2905  0.2976  0.5216
  189MOL0     C24870   8.924   9.853   8.261 -0.0350  0.0467  0.5037
  189MOL0     C24871   8.988   9.773   8.163  1.0076 -0.7641  0.4360
  189MOL0     C24872   9.108   9.718   8.194  0.1768  0.3927  0.5383
  189MOL0     C24873   9.174   9.739   8.307  0.3600 -0.3424 -1.1043
  189MOL0     O24874   9.314   9.710   8.317  0.4180  0.4245  0.7814
  189MOL0     C24875   9.379   9.710   8.445  0.2371  0.1658 -0.2300
  189MOL0     C24876   9.521   9.665   8.423 -0.6238  0.0831 -0.0770
  189MOL0     C24877   9.602   9.674   8.557  0.5090  0.6476 -0.1489
  189MOL0     C24878   9.684   9.800   8.571  0.7367  0.2507 -0.6980
  189MOL0     C24879   9.609   9.932   8.564  0.0213 -0.6813  0.1375
  189MOL0     C24880   9.570  10.046   8.544 -0.2786  0.1115 -0.2226
  189MOL0     C24881   9.114   9.809   8.409  1.5393 -0.0596  0.4623
  189MOL0     C24882   8.988   9.870   8.385  0.6364 -0.1023  0.2988
  189MOL0     H24883   8.536   9.734   8.137 -2.1316 -1.7594  0.4018
  189MOL0     H24884   8.303   9.760   8.032  0.1318  0.2175  0.5294
  189MOL0     H24885   8.149  10.106   8.039 -0.9821  1.8224  0.2303
  189MOL0     H24886   8.043  10.046   7.908  1.0017 -2.2591 -0.0068
  189MOL0     H24887   8.168  10.193   7.741 -3.1728  0.7558 -0.0426
  189MOL0     H24888   8.265  10.247   7.877  0.8410 -1.7908 -0.0862
  189MOL0     H24889   7.969  10.300   7.833  0.4109 -1.7588  0.1127
  189MOL0     H24890   8.086  10.428   7.837 -1.1351 -1.0936 -2.2761
  189MOL0     H24891   7.981  10.253   8.063 -0.1233  0.2377  0.3402
  189MOL0     H24892   8.126  10.348   8.089 -2.0967 -0.7886  2.6938
  189MOL0     H24893   8.010  10.558   8.056 -2.1792  1.1479 -0.0684
  189MOL0     H24894   7.936  10.467   8.182  1.6934  3.7676 -0.4894
  189MOL0     H24895   7.747  10.426   8.086  1.7545  0.5450  2.2625
  189MOL0     H24896   7.789  10.444   7.920 -3.6045 -1.9571  1.1195
  189MOL0     H24897   7.756  10.666   8.129  1.8932  1.2215 -0.0108
  189MOL0     H24898   7.832  10.699   7.978  0.0537 -0.2238 -0.4468
  189MOL0     H24899   7.655  10.633   7.842 -0.1019  2.6915 -0.9098
  189MOL0     H24900   7.606  10.759   7.944 -1.6616 -0.6192 -2.3067
  189MOL0     H24901   7.517  10.602   8.208  3.5071  1.1975 -1.2805
  189MOL0     H24902   7.294  10.405   8.282 -0.5833 -0.3935  0.3455
  189MOL0     H24903   7.181  10.408   8.140  1.3597 -0.9453 -0.3770
  189MOL0     H24904   7.203  10.677   8.192 -0.2167  0.8800  2.1451
  189MOL0     H24905   7.262  10.613   8.337  0.2948  2.1663 -0.6560
  189MOL0     H24906   6.982  10.555   8.211  0.0780 -1.1918 -0.5173
  189MOL0     H24907   7.033  10.458   8.344 -2.5114  0.4691  0.9092
  189MOL0     H24908   7.015  10.761   8.346  1.3560 -0.5515  0.1153
  189MOL0     H24909   7.084  10.658   8.472 -1.0693 -2.4228  0.4219
  189MOL0     H24910   6.730  10.775   8.632 -1.2259 -2.9949 -0.6482
  189MOL0     H24911   6.543  10.905   8.576  3.2917 -3.1339  3.9908
  189MOL0     H24912   6.229  10.791   8.155  0.5134  0.5905  2.7525
  189MOL0     H24913   5.998  10.798   8.095  0.0858  1.0802 -0.3373
  189MOL0     H24914   5.704  10.886   8.134 -1.3774  1.8952  1.5000
  189MOL0     H24915   5.821  10.866   7.993 -0.7449 -0.1251  0.5090
  189MOL0     H24916   5.620  10.901   7.874 -0.1817 -0.9147 -0.0870
  189MOL0     H24917   5.702  11.049   7.875  1.7510 -0.5531  0.4196
  189MOL0     H24918   5.556  11.134   8.048  1.1230 -0.3141  1.5921
  189MOL0     H24919   5.498  10.975   8.096 -0.9791  3.2391  1.4701
  189MOL0     H24920   5.334  11.111   7.989 -0.2202  2.6336 -1.8067
  189MOL0     H24921   5.429  11.112   7.830 -1.9994  3.1767  1.1823
  189MOL0     H24922   5.293  10.860   7.946  1.9099 -0.9851 -0.5554
  189MOL0     H24923   5.393  10.866   7.795  2.1015 -1.4227  2.2679
  189MOL0     H24924   5.249  11.012   7.684 -0.7308  2.6905  0.0432
  189MOL0     H24925   5.162  11.061   7.833  2.8234  1.4263 -0.6322
  189MOL0     H24926   5.092  10.849   7.640  0.0688 -0.5206  0.2677
  189MOL0     H24927   5.159  10.767   7.780  1.9091  0.7771 -0.3333
  189MOL0     H24928   4.974  10.870   7.914 -0.6174 -0.0740  0.1928
  189MOL0     H24929   4.902  10.794   7.768 -0.4874 -1.3302  2.3126
  189MOL0     H24930   6.008  11.228   8.149  1.8322 -0.0962  1.0921
  189MOL0     H24931   6.263  11.211   8.185 -0.0007 -0.2171 -1.0867
  189MOL0     H24932   6.587  10.827   8.149  1.3692 -1.6060 -1.1587
  189MOL0     H24933   6.772  10.681   8.212  0.8866  1.7264 -0.9113
  189MOL0     H24934   8.447  10.148   7.882  0.0906  0.2731  0.7133
  189MOL0     H24935   8.670  10.097   7.970 -0.9239  0.9364 -0.1138
  189MOL0     H24936   8.945   9.766   8.064 -0.4111  2.2468  0.7341
  189MOL0     H24937   9.135   9.651   8.113 -0.3684 -0.5254  1.0917
  189MOL0     H24938   9.324   9.641   8.510 -1.6620 -1.3004 -3.1685
  189MOL0     H24939   9.382   9.807   8.495 -1.2423  0.1578 -0.0604
  189MOL0     H24940   9.522   9.557   8.402  0.4109  0.0465  0.1162
  189MOL0     H24941   9.561   9.715   8.335 -1.3441 -0.0223 -0.4708
  189MOL0     H24942   9.676   9.594   8.554  0.7456  0.8812 -1.3496
  189MOL0     H24943   9.531   9.659   8.638  0.3465 -3.3595 -0.8435
  189MOL0     H24944   9.740   9.795   8.665 -2.1238 -2.3111  1.0330
  189MOL0     H24945   9.752   9.804   8.485  0.5878  0.7989 -0.7967
  189MOL0     H24946   9.539  10.147   8.530  0.7826  0.6692  1.2224
  189MOL0     H24947   9.146   9.827   8.511  0.0172  0.6372  0.8576
  189MOL0     H24948   8.923   9.935   8.443 -0.4846  2.6321 -3.5845
  190MOL0     O24949   3.944   5.303   5.607 -0.2521 -0.1520  0.0536
  190MOL0     C24950   4.023   5.352   5.527 -1.4452 -0.5604  0.2620
  190MOL0     O24951   4.023   5.345   5.386  0.1125  0.1634 -0.2899
  190MOL0     C24952   3.910   5.313   5.323  0.1315  0.0621 -0.0185
  190MOL0     C24953   3.791   5.245   5.366  0.4121 -0.0313 -0.9057
  190MOL0     C24954   3.681   5.230   5.278 -0.2290 -0.2308  0.8962
  190MOL0     C24955   3.681   5.257   5.138 -0.7317 -0.0284 -0.7184
  190MOL0     O24956   3.576   5.224   5.063  0.0516  0.8978  0.0929
  190MOL0     C24957   3.559   5.292   4.939 -0.7133 -0.6627 -0.2638
  190MOL0     C24958   3.410   5.273   4.894 -0.6726  0.0333 -0.1179
  190MOL0     C24959   3.305   5.331   4.975  0.3564  0.3588 -0.2237
  190MOL0     C24960   3.172   5.271   4.929  0.6713  0.0557  0.8357
  190MOL0     C24961   3.046   5.307   5.009  0.2156 -0.3922 -0.0155
  190MOL0     C24962   2.911   5.260   4.940  0.5357  0.1322  0.4701
  190MOL0     C24963   2.908   5.104   4.929  0.6610 -0.5904 -0.3295
  190MOL0     C24964   2.963   5.055   4.800  0.0122  0.3935  1.0626
  190MOL0     N24965   2.855   5.027   4.711 -0.3441  1.4049 -0.0295
  190MOL0     C24966   2.789   5.116   4.630  0.0365  1.4505 -0.5512
  190MOL0     C24967   2.704   5.035   4.558 -0.0500  0.7537 -0.5919
  190MOL0     C24968   2.610   5.083   4.454 -0.3237 -0.1109  0.7049
  190MOL0     C24969   2.475   5.107   4.513  0.1886  0.1738  0.1224
  190MOL0     C24970   2.371   5.149   4.403 -0.0659  0.1520 -0.1880
  190MOL0     C24971   2.233   5.197   4.461  1.3299 -0.1597  0.2489
  190MOL0     O24972   2.177   5.082   4.521 -0.6202  0.0764 -0.4573
  190MOL0     C24973   2.054   5.101   4.570 -0.0161  1.0643  0.5652
  190MOL0     C24974   1.940   5.148   4.493  0.3912 -0.1497  0.9714
  190MOL0     C24975   1.815   5.171   4.549 -0.3647  0.0367  0.1411
  190MOL0     C24976   1.791   5.143   4.681 -0.1021 -0.6330 -0.0232
  190MOL0     C24977   1.662   5.162   4.743  0.7402 -0.6010 -0.5659
  190MOL0     O24978   1.653   5.099   4.866 -0.6175  0.2633 -0.5737
  190MOL0     C24979   1.539   5.124   4.940 -0.5581 -0.0729 -0.1482
  190MOL0     C24980   1.493   5.250   4.976  0.2903  1.0103  1.2909
  190MOL0     C24981   1.396   5.271   5.077  0.5047  0.1133 -0.2075
  190MOL0     C24982   1.343   5.165   5.145 -0.2830 -0.8320  1.1507
  190MOL0     O24983   1.254   5.174   5.256  0.3274  0.3750  0.5617
  190MOL0     C24984   1.179   5.055   5.299  0.9382 -0.5487  0.4970
  190MOL0     C24985   1.042   5.104   5.350 -0.1418 -0.2052  1.5084
  190MOL0     C24986   1.051   5.172   5.492  0.3879  0.3745  1.0830
  190MOL0     C24987   0.915   5.209   5.542  0.3734  0.4722 -0.0917
  190MOL0     C24988   0.834   5.083   5.577  0.5051  0.0325  0.5338
  190MOL0     C24989   0.701   5.125   5.632 -0.7647 -0.0340 -0.4819
  190MOL0     C24990   0.608   5.176   5.523  0.5275 -0.0913  0.0188
  190MOL0     C24991   0.499   5.265   5.575  0.2519  0.4908 -0.2381
  190MOL0    Cl24992   0.356   5.275   5.471 -0.5077  0.4046 -0.0831
  190MOL0     C24993   1.395   5.038   5.107 -0.4287  1.0007 -0.3682
  190MOL0     C24994   1.489   5.016   5.007  0.3736 -0.8165 -0.5885
  190MOL0     O24995   1.574   5.236   4.698  0.1824 -0.0497  0.5055
  190MOL0     C24996   1.898   5.082   4.750 -0.3629 -0.0290  0.3141
  190MOL0     C24997   2.030   5.077   4.700 -0.6507 -0.1914 -0.4001
  190MOL0     N24998   2.713   4.908   4.611  0.1881  0.4664  0.8161
  190MOL0     N24999   2.807   4.898   4.694 -0.5197  0.0601 -0.0124
  190MOL0     C25000   3.802   5.312   5.096  0.9134  0.2608  0.0262
  190MOL0     C25001   3.914   5.346   5.179  0.0411 -0.5662  0.4970
  190MOL0     C25002   4.142   5.417   5.594 -0.5144 -0.2249 -0.0291
  190MOL0     C25003   4.138   5.452   5.728  0.4340 -0.3057  0.0309
  190MOL0     C25004   4.240   5.529   5.784 -0.1383  0.0673 -0.1284
  190MOL0     C25005   4.356   5.563   5.711 -0.2151  0.6800 -0.1111
  190MOL0     O25006   4.457   5.622   5.784 -0.4686  0.3651 -0.0449
  190MOL0     C25007   4.593   5.603   5.746  0.5928  0.5114  0.0007
  190MOL0     C25008   4.684   5.614   5.861 -0.7579 -0.5188 -0.7954
  190MOL0     C25009   4.697   5.764   5.912  1.1466 -0.5239 -0.1638
  190MOL0     C25010   4.793   5.780   6.018  0.1017 -0.0418  0.7350
  190MOL0     C25011   4.784   5.919   6.066  0.3726  0.1397 -0.2152
  190MOL0     C25012   4.754   6.022   6.117  1.1263  0.6578  0.2338
  190MOL0     C25013   4.369   5.521   5.581  0.0816  0.2922 -0.1758
  190MOL0     C25014   4.262   5.444   5.520  0.9258  0.3435  0.5207
  190MOL0     H25015   3.784   5.203   5.466  0.4679  2.7199  0.3328
  190MOL0     H25016   3.585   5.213   5.324  0.7162  0.4230  3.2384
  190MOL0     H25017   3.616   5.257   4.852  0.1337  0.3625 -0.1505
  190MOL0     H25018   3.580   5.398   4.960 -0.3580 -0.7679 -0.0912
  190MOL0     H25019   3.387   5.167   4.904 -0.5543  0.0859  0.8232
  190MOL0     H25020   3.404   5.307   4.791 -1.3973  2.0018  0.5296
  190MOL0     H25021   3.303   5.440   4.969 -2.7714  0.6689  3.1176
  190MOL0     H25022   3.316   5.310   5.082 -0.7205 -2.0131 -0.5123
  190MOL0     H25023   3.158   5.324   4.834 -1.5782  1.1240  1.6890
  190MOL0     H25024   3.181   5.165   4.906 -0.4596  0.3694 -1.2792
  190MOL0     H25025   3.035   5.416   5.012 -1.8445 -0.5647  0.4987
  190MOL0     H25026   3.052   5.274   5.113  0.7270  0.0569  0.1009
  190MOL0     H25027   2.906   5.301   4.839  5.3070 -0.0469 -0.0794
  190MOL0     H25028   2.831   5.294   5.007  0.4083 -0.4828  0.6353
  190MOL0     H25029   2.951   5.062   5.020  3.4664  1.1951 -0.7443
  190MOL0     H25030   2.804   5.068   4.931  0.9526 -1.5567 -1.3970
  190MOL0     H25031   3.008   4.956   4.817 -1.5810  0.1446  4.7721
  190MOL0     H25032   3.030   5.129   4.755  0.0563 -0.4420 -0.3288
  190MOL0     H25033   2.806   5.223   4.626  0.4705  1.5370  2.0330
  190MOL0     H25034   2.599   5.009   4.374 -0.4193 -0.2947  0.8847
  190MOL0     H25035   2.649   5.173   4.407 -0.6572 -0.2114  0.2306
  190MOL0     H25036   2.481   5.192   4.582  0.3374 -0.9057  1.4770
  190MOL0     H25037   2.443   5.019   4.570  1.0979  1.4980  2.8937
  190MOL0     H25038   2.426   5.233   4.360  1.2809  0.1439  1.4103
  190MOL0     H25039   2.348   5.064   4.338 -0.1016 -1.4974  1.8587
  190MOL0     H25040   2.168   5.228   4.379  1.3388 -0.0765  0.2733
  190MOL0     H25041   2.243   5.275   4.537 -0.4654 -0.5534  0.9403
  190MOL0     H25042   1.940   5.170   4.387  0.0929  1.6806  1.3113
  190MOL0     H25043   1.739   5.215   4.485 -0.5030  0.5390  0.6398
  190MOL0     H25044   1.551   5.334   4.939 -1.0268  1.1548 -0.5853
  190MOL0     H25045   1.368   5.368   5.116 -0.4294 -0.9974  2.0435
  190MOL0     H25046   1.229   5.010   5.385  0.1607 -1.0540  0.6940
  190MOL0     H25047   1.160   4.983   5.218  2.7121  0.9802 -1.3719
  190MOL0     H25048   0.975   5.018   5.345  0.2384 -0.5989  2.8760
  190MOL0     H25049   1.006   5.181   5.280 -3.2627 -1.5544  1.4710
  190MOL0     H25050   1.110   5.263   5.479  1.7855 -0.4277  1.5646
  190MOL0     H25051   1.101   5.099   5.557  1.5113 -1.4480 -1.6377
  190MOL0     H25052   0.935   5.273   5.629 -1.9629 -0.1179  0.9406
  190MOL0     H25053   0.863   5.261   5.461 -0.0246 -2.3627 -1.8015
  190MOL0     H25054   0.880   5.022   5.656  0.0926 -0.1921  0.6039
  190MOL0     H25055   0.819   5.020   5.489 -0.7459  2.1086 -0.8305
  190MOL0     H25056   0.717   5.201   5.710 -1.3947 -2.9582  2.7110
  190MOL0     H25057   0.651   5.045   5.687 -0.2169  0.0825  0.2082
  190MOL0     H25058   0.660   5.226   5.440 -1.3311  1.2319 -0.3932
  190MOL0     H25059   0.564   5.094   5.465 -0.8094  0.6855 -0.0933
  190MOL0     H25060   0.535   5.365   5.598 -0.1845  0.6576 -0.2719
  190MOL0     H25061   0.454   5.222   5.665  1.9921 -4.3405 -1.3232
  190MOL0     H25062   1.363   4.948   5.159  0.1956  1.5499  1.0053
  190MOL0     H25063   1.509   4.913   4.982 -2.4357 -1.6304  0.1067
  190MOL0     H25064   1.887   5.038   4.849  1.6124 -0.9082  0.1694
  190MOL0     H25065   2.112   5.043   4.762 -2.0501 -1.6142  0.7406
  190MOL0     H25066   3.810   5.310   4.988  1.5720 -0.3117  0.0777
  190MOL0     H25067   4.004   5.367   5.123  0.9978  0.7121  2.4191
  190MOL0     H25068   4.051   5.420   5.785  0.0080 -0.3864 -0.6652
  190MOL0     H25069   4.232   5.569   5.884 -0.2096  2.8891 -1.1676
  190MOL0     H25070   4.625   5.672   5.667  4.1037 -0.7446  0.1440
  190MOL0     H25071   4.602   5.499   5.712 -1.0495 -0.0554  1.1847
  190MOL0     H25072   4.662   5.560   5.954 -2.1402  1.3186  0.0173
  190MOL0     H25073   4.779   5.577   5.823 -0.9783  1.0488 -3.0813
  190MOL0     H25074   4.600   5.807   5.942  1.9022  1.7537 -0.7948
  190MOL0     H25075   4.723   5.824   5.824 -2.4840  0.6053 -0.6390
  190MOL0     H25076   4.765   5.715   6.102 -3.2375  1.8741  1.3149
  190MOL0     H25077   4.887   5.758   5.968  0.4775  0.9801  0.9629
  190MOL0     H25078   4.712   6.112   6.158  3.5844  1.7905  0.4000
  190MOL0     H25079   4.461   5.541   5.526  0.1860  1.4434  0.3854
  190MOL0     H25080   4.274   5.394   5.425  0.7835  1.1318  0.0831
  191MOL0     O25081   9.866   9.322   0.365 -0.5349 -0.3291  0.2474
  191MOL0     C25082   9.844   9.412   0.445  0.8312 -1.3497 -0.1909
  191MOL0     O25083   9.728   9.477   0.461  1.0225 -0.2462 -0.2577
  191MOL0     C25084   9.616   9.413   0.408 -0.9845  0.2838  0.3761
  191MOL0     C25085   9.573   9.434   0.270 -0.3197 -0.2616 -0.1916
  191MOL0     C25086   9.482   9.347   0.220 -0.3651 -0.9274 -1.2455
  191MOL0     C25087   9.413   9.248   0.296  0.0762  0.0475  0.7419
  191MOL0     O25088   9.334   9.163   0.226 -0.9279 -0.5519  0.3398
  191MOL0     C25089   9.207   9.125   0.284  0.7441 -0.1906  0.7309
  191MOL0     C25090   9.098   9.132   0.174  0.7774 -0.9038 -0.5310
  191MOL0     C25091   9.087   9.278   0.117 -0.4542 -0.0260 -0.5481
  191MOL0     C25092   8.955   9.324   0.047 -0.3700 -0.8050  0.5229
  191MOL0     C25093   8.972   9.420  -0.062  0.0028  0.2285 -0.2534
  191MOL0     C25094   8.833   9.457  -0.104  0.1345 -0.1395 -0.2292
  191MOL0     C25095   8.842   9.561  -0.214 -0.4357 -0.2787 -0.5307
  191MOL0     C25096   8.889   9.500  -0.346 -0.0086 -0.2783  0.0030
  191MOL0     N25097   8.869   9.604  -0.455 -0.2232 -0.4757 -0.2194
  191MOL0     C25098   8.746   9.640  -0.504  0.5913 -0.1662 -0.4031
  191MOL0     C25099   8.770   9.755  -0.562 -0.2364  0.9299 -0.4531
  191MOL0     C25100   8.678   9.847  -0.620 -0.0561  0.6156  0.1177
  191MOL0     C25101   8.642   9.965  -0.518  0.1783  0.9270 -0.6934
  191MOL0     C25102   8.516   9.923  -0.448  0.1332 -0.0127 -0.6769
  191MOL0     C25103   8.465  10.049  -0.361  0.1922 -0.1398 -0.1360
  191MOL0     O25104   8.450  10.169  -0.436  0.1136  0.6255 -0.1151
  191MOL0     C25105   8.430  10.287  -0.368 -0.4648  0.9006  0.1761
  191MOL0     C25106   8.411  10.385  -0.460 -0.2111  0.3610  0.7851
  191MOL0     C25107   8.387  10.514  -0.412 -0.0005  0.3697 -0.5266
  191MOL0     C25108   8.389  10.549  -0.272 -0.1585  0.4652  0.0867
  191MOL0     C25109   8.358  10.690  -0.222  0.6400 -0.0922  0.4099
  191MOL0     O25110   8.367  10.792  -0.318 -0.5857  0.2678  0.0118
  191MOL0     C25111   8.341  10.918  -0.293  0.4197 -0.4242  0.6682
  191MOL0     C25112   8.450  11.003  -0.291 -0.7590  0.5435  0.7669
  191MOL0     C25113   8.420  11.138  -0.280 -0.1371 -0.2199 -0.5306
  191MOL0     C25114   8.290  11.185  -0.273  0.0405  0.6428  0.2986
  191MOL0     O25115   8.278  11.312  -0.232  0.4924  0.0453 -0.5951
  191MOL0     C25116   8.156  11.393  -0.261 -0.7167  0.5947 -0.1203
  191MOL0     C25117   8.159  11.439  -0.409 -0.3649  0.2646  0.5259
  191MOL0     C25118   8.279  11.522  -0.442 -1.1769 -0.5244  0.1958
  191MOL0     C25119   8.274  11.596  -0.579  0.7903 -0.5639 -0.1918
  191MOL0     C25120   8.314  11.741  -0.564 -0.6828 -0.2927 -0.7262
  191MOL0     C25121   8.456  11.763  -0.511 -0.6107  0.3951 -0.1163
  191MOL0     C25122   8.507  11.912  -0.524 -0.1828 -0.3244 -0.0853
  191MOL0     C25123   8.479  11.999  -0.398  0.0211  0.0992 -0.3751
  191MOL0    Cl25124   8.300  11.997  -0.359 -0.1943 -0.0207  0.1642
  191MOL0     C25125   8.185  11.095  -0.283  0.2582  0.9663 -0.0575
  191MOL0     C25126   8.213  10.959  -0.287  0.1194  0.2613  0.9249
  191MOL0     O25127   8.314  10.704  -0.111 -0.4177 -0.7174 -0.0343
  191MOL0     C25128   8.426  10.446  -0.183  0.7024 -0.4546 -0.1917
  191MOL0     C25129   8.446  10.314  -0.234  0.6602 -0.7359  0.7608
  191MOL0     N25130   8.911   9.774  -0.554 -0.0832 -0.7421  0.0211
  191MOL0     N25131   8.964   9.677  -0.506  0.5784  0.4751 -1.0616
  191MOL0     C25132   9.440   9.238   0.430  0.4738 -0.3683 -0.7494
  191MOL0     C25133   9.559   9.308   0.474 -1.1636 -0.7278 -0.4099
  191MOL0     C25134   9.951   9.449   0.544  0.8240  0.0307  1.2451
  191MOL0     C25135  10.061   9.369   0.568  0.0980  0.4325 -0.1042
  191MOL0     C25136  10.155   9.392   0.673 -0.6876  0.3080 -0.4758
  191MOL0     C25137  10.143   9.515   0.747  0.6999 -0.4254  0.6216
  191MOL0     O25138  10.221   9.560   0.849 -1.4617 -0.4856  0.1373
  191MOL0     C25139  10.301   9.460   0.913 -0.3493  0.2846  0.2682
  191MOL0     C25140  10.215   9.347   0.981  0.1574 -1.0285  0.8275
  191MOL0     C25141  10.305   9.228   1.023 -0.2440 -0.3025  0.3521
  191MOL0     C25142  10.364   9.240   1.160  0.6554  0.3366  0.1788
  191MOL0     C25143  10.254   9.238   1.261 -0.0819  0.3646  0.6205
  191MOL0     C25144  10.157   9.253   1.324 -0.0829  0.0219  0.4257
  191MOL0     C25145  10.038   9.602   0.706  0.1093  0.4520  0.1042
  191MOL0     C25146   9.946   9.574   0.600 -0.1749 -0.4747  0.4435
  191MOL0     H25147   9.627   9.507   0.211 -1.9951  1.1691 -0.0152
  191MOL0     H25148   9.473   9.352   0.112 -2.3651 -1.0642 -1.1295
  191MOL0     H25149   9.188   9.191   0.369  2.7348  0.7812  0.4755
  191MOL0     H25150   9.215   9.022   0.320 -0.1107  0.9317  4.7187
  191MOL0     H25151   9.001   9.107   0.217 -0.4043 -0.3943 -2.7509
  191MOL0     H25152   9.136   9.058   0.102  0.1881 -2.0318  0.2879
  191MOL0     H25153   9.163   9.286   0.039  1.7456  1.8710  1.6306
  191MOL0     H25154   9.118   9.347   0.197 -0.4020 -2.0096  1.2474
  191MOL0     H25155   8.900   9.241   0.000 -4.3615  2.7672 -1.8897
  191MOL0     H25156   8.900   9.359   0.135  1.0832  2.8318  0.1614
  191MOL0     H25157   9.026   9.376  -0.146 -1.1493 -1.4622 -0.1684
  191MOL0     H25158   9.023   9.513  -0.034 -2.6181  1.7238 -0.0888
  191MOL0     H25159   8.781   9.497  -0.017  1.2378 -1.3838  1.0448
  191MOL0     H25160   8.773   9.371  -0.136 -1.0654 -0.9676  3.6373
  191MOL0     H25161   8.746   9.609  -0.232 -1.6164 -2.2158  0.3142
  191MOL0     H25162   8.913   9.634  -0.174 -0.2400 -1.8220  2.1177
  191MOL0     H25163   8.820   9.418  -0.367  0.7929 -0.9125 -0.2179
  191MOL0     H25164   8.991   9.460  -0.352 -0.0163 -0.0642 -4.5764
  191MOL0     H25165   8.651   9.590  -0.489 -1.0998  3.5542  3.1803
  191MOL0     H25166   8.585   9.807  -0.662 -0.6429  1.3841  0.6541
  191MOL0     H25167   8.734   9.891  -0.703 -2.2100  1.7785 -0.8003
  191MOL0     H25168   8.643  10.061  -0.571 -0.0541  1.7515  0.7431
  191MOL0     H25169   8.722   9.970  -0.444  1.9492 -0.2432 -2.4457
  191MOL0     H25170   8.444   9.904  -0.529 -0.1801 -1.7281 -0.0373
  191MOL0     H25171   8.538   9.832  -0.393  5.1889 -0.6845 -3.2128
  191MOL0     H25172   8.533  10.066  -0.277 -0.1558 -1.6498  0.4880
  191MOL0     H25173   8.364  10.031  -0.321  0.8454 -0.1648  1.5715
  191MOL0     H25174   8.417  10.361  -0.566  1.8781 -2.0232  1.3407
  191MOL0     H25175   8.359  10.585  -0.490  3.2898 -0.0063 -2.2379
  191MOL0     H25176   8.554  10.970  -0.289 -0.3449  1.5973 -1.0809
  191MOL0     H25177   8.495  11.215  -0.266  0.5866 -1.2106  1.5302
  191MOL0     H25178   8.151  11.479  -0.194 -4.0156  0.9037 -0.5633
  191MOL0     H25179   8.067  11.331  -0.245 -1.1769  0.6327 -2.2573
  191MOL0     H25180   8.077  11.506  -0.435  1.4100  1.4943 -2.3814
  191MOL0     H25181   8.160  11.351  -0.475 -1.5717  0.8659 -0.3241
  191MOL0     H25182   8.368  11.459  -0.451  0.7321  1.9063  1.0753
  191MOL0     H25183   8.299  11.587  -0.356 -1.9839  1.2354 -0.8922
  191MOL0     H25184   8.347  11.555  -0.650  1.8083  1.6240 -0.4923
  191MOL0     H25185   8.175  11.578  -0.623  0.7751 -1.8881  0.3493
  191MOL0     H25186   8.237  11.790  -0.505 -0.7953  0.1289 -1.2128
  191MOL0     H25187   8.301  11.789  -0.661  0.5991  0.7046 -0.4336
  191MOL0     H25188   8.532  11.702  -0.560  0.0928  1.1576  0.0126
  191MOL0     H25189   8.457  11.746  -0.403  2.3694  1.3544  0.1012
  191MOL0     H25190   8.614  11.917  -0.547 -0.0585 -3.3783 -0.6721
  191MOL0     H25191   8.460  11.942  -0.618  3.1499  1.1664 -1.4092
  191MOL0     H25192   8.511  12.101  -0.422  3.6046 -0.4965  1.2671
  191MOL0     H25193   8.533  11.962  -0.311 -0.8292  2.7242  1.3895
  191MOL0     H25194   8.081  11.127  -0.273  0.2778  0.4652  2.2120
  191MOL0     H25195   8.129  10.889  -0.280  0.0570  0.4573  2.9329
  191MOL0     H25196   8.425  10.466  -0.077 -1.9932 -3.5214  0.5251
  191MOL0     H25197   8.475  10.235  -0.165  1.3356 -2.1481 -1.0761
  191MOL0     H25198   9.391   9.173   0.501  0.4844  0.7247  0.2817
  191MOL0     H25199   9.601   9.308   0.575 -1.1344  2.1212 -0.3598
  191MOL0     H25200  10.066   9.274   0.516  1.4148 -0.4834  1.5732
  191MOL0     H25201  10.229   9.315   0.694 -1.0523 -0.1241 -0.7537
  191MOL0     H25202  10.367   9.501   0.991 -1.2707  0.9330  0.7307
  191MOL0     H25203  10.368   9.418   0.838 -0.7246  2.2097 -1.2279
  191MOL0     H25204  10.161   9.397   1.062 -0.5590 -0.3078 -0.0659
  191MOL0     H25205  10.143   9.302   0.912  0.1442  2.4415 -1.6877
  191MOL0     H25206  10.383   9.226   0.946 -0.4449  2.1775 -0.0149
  191MOL0     H25207  10.255   9.132   1.009  0.7928 -0.6307 -1.3787
  191MOL0     H25208  10.429   9.157   1.190  0.7372  0.8130  1.4163
  191MOL0     H25209  10.427   9.329   1.173 -0.8974  1.1188  3.7559
  191MOL0     H25210  10.061   9.282   1.361  0.6244  2.0841  0.8056
  191MOL0     H25211  10.028   9.696   0.760  1.7639 -0.8988  3.0122
  191MOL0     H25212   9.872   9.643   0.559 -1.0663 -3.0621 -2.7451
  192MOL0     O25213   1.633   3.062   2.678 -0.5718 -0.2135 -0.0867
  192MOL0     C25214   1.630   3.019   2.798  0.7805 -0.1603  0.2891
  192MOL0     O25215   1.519   2.988   2.858  0.5647 -0.0657 -0.1283
  192MOL0     C25216   1.400   2.983   2.791  0.2734 -0.3759 -0.4537
  192MOL0     C25217   1.395   2.892   2.678 -0.2533 -0.2706 -0.2740
  192MOL0     C25218   1.282   2.894   2.599  0.2218  0.6204 -0.4190
  192MOL0     C25219   1.165   2.968   2.631  0.8177 -0.5274 -0.2504
  192MOL0     O25220   1.044   2.956   2.568 -0.0661 -0.0478 -0.0073
  192MOL0     C25221   1.007   2.832   2.502 -0.3797  0.3810 -0.3587
  192MOL0     C25222   0.979   2.715   2.606 -0.2341 -0.0562  0.3331
  192MOL0     C25223   0.832   2.704   2.611  0.0479 -0.1818  0.0011
  192MOL0     C25224   0.787   2.593   2.708  0.1860 -0.1941  0.7159
  192MOL0     C25225   0.644   2.602   2.760 -0.2120  0.3467  0.4449
  192MOL0     C25226   0.628   2.504   2.878 -0.4475 -0.6505  0.0936
  192MOL0     C25227   0.486   2.513   2.931 -0.0590 -0.0200 -0.8424
  192MOL0     C25228   0.463   2.432   3.058 -0.5224 -0.5424 -0.3022
  192MOL0     N25229   0.315   2.412   3.077  0.1628  0.2109 -0.0012
  192MOL0     C25230   0.239   2.330   3.001  0.3996  0.3013 -0.6780
  192MOL0     C25231   0.122   2.314   3.063 -0.3373  0.0306 -0.2232
  192MOL0     C25232   0.003   2.227   3.019 -0.8376  0.0367 -0.5811
  192MOL0     C25233  -0.124   2.307   3.041 -0.1685 -0.1346 -0.1045
  192MOL0     C25234  -0.255   2.247   3.008  0.2098 -1.0515  0.0566
  192MOL0     C25235  -0.375   2.340   3.038  0.1895 -0.9319 -0.1700
  192MOL0     O25236  -0.488   2.288   2.971 -0.6826  0.1098 -0.1969
  192MOL0     C25237  -0.616   2.332   2.992 -0.1319 -0.4989 -0.3763
  192MOL0     C25238  -0.692   2.309   2.879  0.3865 -0.8907 -0.0275
  192MOL0     C25239  -0.827   2.355   2.872 -0.2065 -0.0852 -0.1172
  192MOL0     C25240  -0.882   2.430   2.985  0.3229 -0.6262  0.5697
  192MOL0     C25241  -1.027   2.472   2.986  0.3131  0.0638 -0.0653
  192MOL0     O25242  -1.099   2.450   2.873  0.0893 -0.0013 -0.3319
  192MOL0     C25243  -1.217   2.518   2.860  0.3874 -0.3495  0.0515
  192MOL0     C25244  -1.334   2.446   2.812 -0.3304  0.0523 -0.1924
  192MOL0     C25245  -1.456   2.510   2.806 -0.5104  0.7634  0.3090
  192MOL0     C25246  -1.464   2.648   2.827 -0.3431 -0.3404 -0.5557
  192MOL0     O25247  -1.585   2.713   2.820  1.2990 -0.9750 -0.1187
  192MOL0     C25248  -1.597   2.858   2.808 -0.9531  0.0923 -0.1159
  192MOL0     C25249  -1.745   2.872   2.760 -0.2706 -1.3071 -0.8237
  192MOL0     C25250  -1.792   2.821   2.621 -0.7412 -0.0941 -0.6039
  192MOL0     C25251  -1.705   2.873   2.508 -0.2003  0.0294  0.0380
  192MOL0     C25252  -1.696   3.023   2.489  0.5009  0.0976  0.1061
  192MOL0     C25253  -1.834   3.070   2.421  0.0444 -0.6548  0.1338
  192MOL0     C25254  -1.865   3.221   2.436 -0.0829 -0.0784  0.3104
  192MOL0     C25255  -1.754   3.307   2.376 -0.3068  0.4425 -0.2988
  192MOL0    Cl25256  -1.712   3.270   2.198  0.0582 -0.0608 -0.3323
  192MOL0     C25257  -1.350   2.721   2.871  0.3166  0.1000  1.0453
  192MOL0     C25258  -1.231   2.658   2.891  0.0889 -0.6934 -0.4880
  192MOL0     O25259  -1.070   2.532   3.082 -0.3347 -0.4318 -0.8119
  192MOL0     C25260  -0.795   2.434   3.097 -0.1337  0.0601 -0.0549
  192MOL0     C25261  -0.665   2.400   3.102  0.5444  0.6901  0.0918
  192MOL0     N25262   0.129   2.386   3.181  0.6973  0.4640  0.1289
  192MOL0     N25263   0.243   2.438   3.187 -0.1526  0.1916 -0.3662
  192MOL0     C25264   1.169   3.055   2.735 -0.1622 -0.9823  0.1417
  192MOL0     C25265   1.285   3.065   2.814  0.2227 -1.3307  0.2661
  192MOL0     C25266   1.766   3.021   2.860 -0.6457  0.0942  0.2848
  192MOL0     C25267   1.843   3.135   2.892  0.0912 -0.1902  0.0721
  192MOL0     C25268   1.957   3.117   2.960 -0.1457  0.5299  0.2299
  192MOL0     C25269   2.014   2.996   2.988  0.2673  0.2884  0.6051
  192MOL0     O25270   2.133   3.002   3.050  0.2309  0.5634  1.0620
  192MOL0     C25271   2.205   2.875   3.039  0.3502 -0.7633  0.3512
  192MOL0     C25272   2.331   2.891   3.122  1.2310  0.4054 -0.6053
  192MOL0     C25273   2.428   2.776   3.086 -0.5397 -0.1591 -0.2922
  192MOL0     C25274   2.568   2.814   3.132 -0.0445  0.9429 -0.0576
  192MOL0     C25275   2.575   2.837   3.279  0.4573  0.1499  0.3084
  192MOL0     C25276   2.581   2.829   3.398 -0.3221 -0.1734 -0.6025
  192MOL0     C25277   1.938   2.887   2.950  0.6542 -0.0986  0.2280
  192MOL0     C25278   1.821   2.903   2.887  0.5805  1.2737 -0.2323
  192MOL0     H25279   1.471   2.833   2.628  0.2846  1.2312 -1.2971
  192MOL0     H25280   1.300   2.833   2.511  5.4502 -1.0679  1.4143
  192MOL0     H25281   1.087   2.810   2.431 -0.4004 -0.6848 -0.0657
  192MOL0     H25282   0.920   2.846   2.437 -0.4466  2.2986  0.0781
  192MOL0     H25283   1.019   2.725   2.707 -0.5201 -2.9648  0.8416
  192MOL0     H25284   1.034   2.625   2.575 -2.0595 -1.5281  1.1778
  192MOL0     H25285   0.792   2.682   2.512  0.4019  1.0442 -0.4309
  192MOL0     H25286   0.790   2.798   2.648  0.9478  0.5542 -0.8013
  192MOL0     H25287   0.787   2.494   2.660 -0.6287 -0.4526  1.2187
  192MOL0     H25288   0.858   2.583   2.790 -1.3503 -1.9311  1.9063
  192MOL0     H25289   0.582   2.584   2.672  0.8080  2.7463 -0.8656
  192MOL0     H25290   0.631   2.707   2.791 -0.5351  0.4855 -0.1468
  192MOL0     H25291   0.701   2.544   2.949  2.3448 -1.2093 -2.2455
  192MOL0     H25292   0.651   2.403   2.843 -1.5954 -0.6294 -0.8034
  192MOL0     H25293   0.465   2.619   2.953  0.4934 -0.4440  2.1302
  192MOL0     H25294   0.419   2.473   2.855 -0.1759  0.3170 -0.9215
  192MOL0     H25295   0.498   2.479   3.151  1.3689 -2.6647  0.1449
  192MOL0     H25296   0.518   2.338   3.052  0.1592 -0.1588 -0.2480
  192MOL0     H25297   0.274   2.281   2.910  2.1277 -0.0672  0.1417
  192MOL0     H25298   0.000   2.133   3.074 -0.4781 -2.1927 -4.1115
  192MOL0     H25299   0.018   2.201   2.914 -1.1263 -1.9060 -0.1654
  192MOL0     H25300  -0.114   2.402   2.986 -2.1093 -1.0066 -2.0967
  192MOL0     H25301  -0.126   2.320   3.149  1.2097  0.8504 -0.1637
  192MOL0     H25302  -0.258   2.227   2.901 -0.1981  0.4946 -0.2549
  192MOL0     H25303  -0.276   2.159   3.069 -1.2436  2.4190  5.2556
  192MOL0     H25304  -0.340   2.439   3.006 -0.0941 -0.0924  1.9365
  192MOL0     H25305  -0.401   2.350   3.144 -1.0949 -0.8169 -0.4745
  192MOL0     H25306  -0.647   2.269   2.788  1.4640  0.3777 -0.0871
  192MOL0     H25307  -0.884   2.323   2.785  1.0517 -1.1099 -0.6054
  192MOL0     H25308  -1.323   2.341   2.788  0.5833  0.1233 -0.1243
  192MOL0     H25309  -1.539   2.443   2.787 -1.0566  1.3050  0.7589
  192MOL0     H25310  -1.526   2.904   2.738  0.9101  2.3338  2.9207
  192MOL0     H25311  -1.579   2.908   2.904 -3.3891 -0.2878  0.5888
  192MOL0     H25312  -1.762   2.979   2.771 -1.2164 -1.5794  0.6729
  192MOL0     H25313  -1.803   2.823   2.839  0.4378  0.9591  1.2604
  192MOL0     H25314  -1.896   2.847   2.600 -0.6247  0.5436 -0.4452
  192MOL0     H25315  -1.784   2.713   2.631 -0.1332  0.0371  0.5162
  192MOL0     H25316  -1.602   2.843   2.530 -0.8756 -0.8027  2.3719
  192MOL0     H25317  -1.734   2.835   2.410 -2.5471  2.1279 -0.1812
  192MOL0     H25318  -1.614   3.054   2.423 -0.0762 -0.8078 -1.0727
  192MOL0     H25319  -1.681   3.073   2.585  1.9864  0.2475 -0.1788
  192MOL0     H25320  -1.924   3.024   2.462 -0.4844  0.4820  0.2802
  192MOL0     H25321  -1.838   3.034   2.317 -0.7091 -2.4722  0.7652
  192MOL0     H25322  -1.960   3.237   2.385  1.2229 -2.5627 -3.2347
  192MOL0     H25323  -1.882   3.251   2.540 -0.7316 -0.1097  0.2187
  192MOL0     H25324  -1.667   3.304   2.443  0.2035 -1.3737 -0.9884
  192MOL0     H25325  -1.799   3.407   2.372 -2.4521 -0.5168 -2.1337
  192MOL0     H25326  -1.338   2.828   2.885  3.0644 -0.1977  1.6465
  192MOL0     H25327  -1.154   2.722   2.932 -0.8462  0.1790 -0.0353
  192MOL0     H25328  -0.836   2.466   3.192  1.0327  1.2636  0.0716
  192MOL0     H25329  -0.616   2.407   3.199 -2.2414 -0.7561  1.7566
  192MOL0     H25330   1.086   3.114   2.774  1.1413 -0.9245  3.0937
  192MOL0     H25331   1.288   3.125   2.905 -0.5511 -2.6536  1.2026
  192MOL0     H25332   1.817   3.238   2.869 -2.3807 -1.0280 -1.2405
  192MOL0     H25333   2.020   3.203   2.982  1.0293 -0.1906 -0.2224
  192MOL0     H25334   2.227   2.854   2.934 -2.1745  1.4965 -0.7438
  192MOL0     H25335   2.154   2.783   3.071  0.2916  0.1928  3.3147
  192MOL0     H25336   2.378   2.988   3.102  2.6442  0.5069  2.6633
  192MOL0     H25337   2.308   2.881   3.228  4.0564  1.4632  0.2166
  192MOL0     H25338   2.440   2.757   2.979 -0.3197 -0.9787 -0.1312
  192MOL0     H25339   2.392   2.687   3.138  1.9793 -0.7898  0.5284
  192MOL0     H25340   2.632   2.732   3.099  0.8331  1.7912 -0.4966
  192MOL0     H25341   2.602   2.897   3.069  2.2004 -0.0468 -0.2149
  192MOL0     H25342   2.601   2.834   3.503  1.0600  1.2601 -0.9098
  192MOL0     H25343   1.978   2.787   2.953  4.5736  1.2291 -0.9250
  192MOL0     H25344   1.767   2.814   2.855 -0.2141  1.8746 -0.5647
  193MOL0     O25345   0.933   2.926   8.291 -0.6668  0.2792  0.8047
  193MOL0     C25346   0.998   2.992   8.208  0.1039  0.1859 -0.0786
  193MOL0     O25347   0.948   3.092   8.135 -0.0336 -0.7819 -0.4761
  193MOL0     C25348   0.813   3.110   8.113  0.3417  0.3703  0.1425
  193MOL0     C25349   0.718   3.018   8.076 -0.3395  0.3519 -1.5494
  193MOL0     C25350   0.586   3.056   8.040  0.0191  0.3399  0.6048
  193MOL0     C25351   0.545   3.189   8.047  0.5116 -0.2375 -0.3191
  193MOL0     O25352   0.426   3.209   7.992 -0.3192 -0.1463  0.1127
  193MOL0     C25353   0.355   3.331   8.036 -0.3654  0.2229  0.0982
  193MOL0     C25354   0.217   3.332   7.963  0.1355  0.6865 -0.3204
  193MOL0     C25355   0.141   3.196   7.968  1.0401 -0.2517  0.0289
  193MOL0     C25356   0.027   3.195   7.864 -0.1042 -0.8734  0.1238
  193MOL0     C25357  -0.048   3.065   7.867 -0.0789  0.0397 -0.4159
  193MOL0     C25358  -0.171   3.081   7.769  0.3005 -0.7274 -0.2262
  193MOL0     C25359  -0.256   2.955   7.780 -0.6322 -0.4089  0.0119
  193MOL0     C25360  -0.369   2.965   7.674 -0.9896  0.7530 -0.7533
  193MOL0     N25361  -0.445   2.836   7.684 -0.6442 -0.3984  0.4643
  193MOL0     C25362  -0.572   2.813   7.713  0.3761  0.2023  0.0675
  193MOL0     C25363  -0.585   2.678   7.725  0.5002 -0.0975  0.5315
  193MOL0     C25364  -0.705   2.595   7.763  0.2777  1.0680  0.0187
  193MOL0     C25365  -0.791   2.576   7.631 -1.0958 -0.2054 -0.2794
  193MOL0     C25366  -0.893   2.463   7.656  0.6593 -0.6928  0.2340
  193MOL0     C25367  -0.994   2.441   7.542  0.0229 -0.6326  0.4728
  193MOL0     O25368  -1.099   2.546   7.523  0.1482 -0.0717  0.7416
  193MOL0     C25369  -1.227   2.502   7.487 -0.6216 -0.6531 -0.3524
  193MOL0     C25370  -1.268   2.364   7.460 -0.2118 -0.0673 -0.3416
  193MOL0     C25371  -1.398   2.332   7.420 -0.0379 -0.4601 -0.0760
  193MOL0     C25372  -1.484   2.436   7.373 -0.4517 -0.3608  0.2789
  193MOL0     C25373  -1.622   2.404   7.335 -0.4801 -0.3860 -0.8513
  193MOL0     O25374  -1.670   2.272   7.325 -0.0502  0.5874  0.0396
  193MOL0     C25375  -1.811   2.247   7.349  0.6836 -0.1968 -0.0663
  193MOL0     C25376  -1.899   2.339   7.400  0.2436  0.3398 -0.0682
  193MOL0     C25377  -2.033   2.305   7.429 -0.4323  0.9245  0.0462
  193MOL0     C25378  -2.079   2.173   7.406 -0.0127 -0.2997  0.6097
  193MOL0     O25379  -2.205   2.126   7.428  0.1909 -0.0168  0.9479
  193MOL0     C25380  -2.310   2.216   7.407 -0.0213 -0.2941 -0.1235
  193MOL0     C25381  -2.428   2.144   7.357  0.3651 -0.0929  0.7423
  193MOL0     C25382  -2.415   2.091   7.214 -0.2823 -0.6239  0.0656
  193MOL0     C25383  -2.552   2.040   7.145 -0.1010 -1.0324 -0.1166
  193MOL0     C25384  -2.541   2.013   7.000 -0.1442 -0.2155  0.0407
  193MOL0     C25385  -2.447   1.899   6.970 -0.2598  0.1924 -0.2634
  193MOL0     C25386  -2.410   1.893   6.821 -0.5279 -0.0944  0.7334
  193MOL0     C25387  -2.526   1.843   6.723  0.4528  0.3747 -0.2544
  193MOL0    Cl25388  -2.469   1.696   6.650 -0.1784  0.3356 -0.3556
  193MOL0     C25389  -1.995   2.087   7.346  0.7331 -0.5698  0.3305
  193MOL0     C25390  -1.865   2.122   7.321  0.0432 -0.1330  0.0297
  193MOL0     O25391  -1.684   2.501   7.288  0.4223 -0.3800  0.8254
  193MOL0     C25392  -1.440   2.570   7.375  0.2006  0.3275 -0.9712
  193MOL0     C25393  -1.317   2.601   7.438 -0.4761  0.0139 -0.2216
  193MOL0     N25394  -0.457   2.625   7.720 -0.7290  0.1813  0.1556
  193MOL0     N25395  -0.382   2.717   7.686  0.1672  0.1531 -0.5186
  193MOL0     C25396   0.644   3.286   8.087  0.2001  0.4642  0.2283
  193MOL0     C25397   0.776   3.246   8.123 -0.6632 -0.0560  0.2078
  193MOL0     C25398   1.134   2.945   8.198  0.0854 -0.0147  0.4106
  193MOL0     C25399   1.223   3.014   8.124  0.4471  0.0616 -0.4049
  193MOL0     C25400   1.349   2.953   8.095 -0.2342  0.1385 -0.5592
  193MOL0     C25401   1.389   2.837   8.164 -0.8460  0.6627  0.0543
  193MOL0     O25402   1.518   2.788   8.158 -0.2701 -0.1721 -0.0252
  193MOL0     C25403   1.600   2.811   8.040 -0.3387 -0.8140  0.0698
  193MOL0     C25404   1.733   2.880   8.081  0.1083 -0.6365 -0.1821
  193MOL0     C25405   1.831   2.881   7.962  0.8023 -0.6238  0.0504
  193MOL0     C25406   1.965   2.947   7.991  0.1363 -1.0131  0.0015
  193MOL0     C25407   1.948   3.090   8.007  0.1458  0.2732  0.2453
  193MOL0     C25408   1.945   3.214   8.016 -0.6617 -0.8037 -0.0436
  193MOL0     C25409   1.297   2.762   8.234  0.9894  0.0874 -1.1132
  193MOL0     C25410   1.173   2.821   8.261 -1.1011  0.4704  0.0373
  193MOL0     H25411   0.744   2.913   8.071  2.5407  0.7748  1.0154
  193MOL0     H25412   0.510   2.989   8.003  0.9224 -1.0011  1.1234
  193MOL0     H25413   0.414   3.422   8.023 -0.8101  0.9772  2.7896
  193MOL0     H25414   0.331   3.322   8.143 -3.0476 -0.2978 -0.4764
  193MOL0     H25415   0.243   3.365   7.862 -1.0081  0.1826 -0.7977
  193MOL0     H25416   0.159   3.415   8.004 -1.4182 -1.1786  1.4909
  193MOL0     H25417   0.095   3.192   8.067 -0.0105 -0.1343 -0.4475
  193MOL0     H25418   0.199   3.105   7.948 -2.0670 -1.9488 -2.1007
  193MOL0     H25419  -0.036   3.283   7.879 -0.3253 -1.2247  1.3346
  193MOL0     H25420   0.070   3.204   7.764 -1.0656  4.2252 -0.1140
  193MOL0     H25421  -0.096   3.051   7.964 -0.0107 -1.9887 -0.6149
  193MOL0     H25422   0.018   2.979   7.856  2.8881  2.0569  0.6093
  193MOL0     H25423  -0.138   3.096   7.665 -0.2466  5.2098  0.1003
  193MOL0     H25424  -0.221   3.175   7.793 -0.1858 -0.7309 -1.1756
  193MOL0     H25425  -0.192   2.870   7.754 -0.3858 -1.0286  2.4065
  193MOL0     H25426  -0.303   2.936   7.876 -4.2117 -2.9904 -2.0002
  193MOL0     H25427  -0.312   2.972   7.581  3.2781  2.4900  1.7053
  193MOL0     H25428  -0.440   3.047   7.688 -2.5216 -0.2982 -2.0108
  193MOL0     H25429  -0.650   2.886   7.732  1.5079  1.3137  0.6263
  193MOL0     H25430  -0.768   2.648   7.834  2.0119 -1.4915  3.8123
  193MOL0     H25431  -0.664   2.500   7.800  0.4217  0.6761 -1.0759
  193MOL0     H25432  -0.738   2.560   7.537 -2.3782 -0.9680 -0.8911
  193MOL0     H25433  -0.838   2.673   7.611  1.0178  0.4782 -2.5383
  193MOL0     H25434  -0.833   2.373   7.668  0.7103 -0.4920  1.6918
  193MOL0     H25435  -0.942   2.481   7.753  2.8266  1.5216  1.0368
  193MOL0     H25436  -1.037   2.342   7.561 -1.2743 -0.6081 -1.8852
  193MOL0     H25437  -0.938   2.435   7.448 -3.1220 -1.8065 -1.4922
  193MOL0     H25438  -1.204   2.276   7.462 -0.2144 -0.3131 -4.0947
  193MOL0     H25439  -1.435   2.231   7.424  1.1616 -0.8709  1.1649
  193MOL0     H25440  -1.863   2.438   7.425  1.6476 -0.5455  1.7114
  193MOL0     H25441  -2.092   2.387   7.469  1.5745  2.1730  0.6011
  193MOL0     H25442  -2.295   2.295   7.332  1.3061 -0.4284 -0.0263
  193MOL0     H25443  -2.337   2.262   7.503 -0.8494  0.5594 -0.7416
  193MOL0     H25444  -2.507   2.219   7.370  0.9443  0.0598  4.6500
  193MOL0     H25445  -2.451   2.057   7.420  0.0910 -1.0633 -0.6437
  193MOL0     H25446  -2.346   2.006   7.209  0.3643 -0.1368  0.4562
  193MOL0     H25447  -2.375   2.170   7.149  0.3351  1.1196  2.4166
  193MOL0     H25448  -2.576   1.943   7.189 -2.0036 -1.6211 -2.2908
  193MOL0     H25449  -2.629   2.116   7.161 -0.2347 -1.4190  1.2193
  193MOL0     H25450  -2.513   2.101   6.941 -1.4385  0.0867 -0.1607
  193MOL0     H25451  -2.641   1.977   6.975 -0.7387 -0.1032  2.0934
  193MOL0     H25452  -2.501   1.812   7.011 -1.5971  1.3483  0.5380
  193MOL0     H25453  -2.347   1.910   7.012  1.6364 -1.2377 -3.9829
  193MOL0     H25454  -2.368   1.986   6.783 -1.8151 -0.1482 -0.9278
  193MOL0     H25455  -2.334   1.815   6.815 -1.4915 -1.0340  0.2948
  193MOL0     H25456  -2.565   1.915   6.650 -0.4228  0.1415 -0.0289
  193MOL0     H25457  -2.607   1.825   6.794  0.1407 -1.1608 -0.9505
  193MOL0     H25458  -2.033   1.988   7.324  1.3191 -0.7940  0.3338
  193MOL0     H25459  -1.799   2.042   7.288 -2.4368 -1.6137 -1.6673
  193MOL0     H25460  -1.508   2.648   7.341 -1.5216 -1.1563 -1.1077
  193MOL0     H25461  -1.273   2.698   7.455 -0.7410 -0.4046  3.7193
  193MOL0     H25462   0.625   3.393   8.088  1.3671  0.7058 -1.0625
  193MOL0     H25463   0.850   3.320   8.151  0.9079 -0.0813 -3.3677
  193MOL0     H25464   1.180   3.099   8.073 -0.4996 -0.5242 -0.6049
  193MOL0     H25465   1.411   3.025   8.043  0.1330  2.4847  2.8051
  193MOL0     H25466   1.545   2.875   7.970 -1.6823 -3.7441 -1.7539
  193MOL0     H25467   1.610   2.727   7.971 -3.3208  0.7159 -2.4688
  193MOL0     H25468   1.715   2.980   8.122  2.1414 -1.1247  2.2166
  193MOL0     H25469   1.770   2.825   8.168 -0.6915  0.6323  1.0089
  193MOL0     H25470   1.784   2.926   7.873 -0.7317  0.5215  1.3751
  193MOL0     H25471   1.850   2.777   7.934  1.3170 -0.1844 -1.2828
  193MOL0     H25472   2.012   2.915   8.084  0.7820 -0.4553 -0.1233
  193MOL0     H25473   2.040   2.913   7.919  3.7719 -2.9138  4.1790
  193MOL0     H25474   1.935   3.320   8.030  4.2116 -0.4324  3.1484
  193MOL0     H25475   1.321   2.660   8.262 -0.8097  0.1006  0.6652
  193MOL0     H25476   1.123   2.770   8.343  1.6275 -1.4586  0.6133
  194MOL0     O25477   6.048   9.525   3.242  0.0678 -1.1423 -0.0098
  194MOL0     C25478   6.039   9.453   3.344 -0.1011  0.6071 -1.2630
  194MOL0     O25479   6.150   9.411   3.423  0.8091 -0.2361  0.4891
  194MOL0     C25480   6.263   9.465   3.374 -0.8210 -0.7798  0.0245
  194MOL0     C25481   6.335   9.401   3.275 -0.8889  0.4632  0.2376
  194MOL0     C25482   6.451   9.450   3.212 -0.0414 -0.7771 -0.3976
  194MOL0     C25483   6.513   9.564   3.268  0.4450  0.6087 -0.2212
  194MOL0     O25484   6.623   9.626   3.209 -0.2345 -0.7248  0.0626
  194MOL0     C25485   6.735   9.544   3.184 -0.5590  0.9051 -0.4525
  194MOL0     C25486   6.872   9.626   3.170 -0.1812  0.6073  0.3733
  194MOL0     C25487   6.920   9.679   3.308  0.0543 -0.0318  0.6753
  194MOL0     C25488   7.052   9.756   3.306  0.3941 -0.0867  0.5099
  194MOL0     C25489   7.090   9.825   3.442  0.2938  0.5677 -0.0507
  194MOL0     C25490   6.985   9.928   3.483 -0.6900 -0.0970  0.9892
  194MOL0     C25491   7.001  10.056   3.387 -0.2817 -0.5378  0.2461
  194MOL0     C25492   6.901  10.165   3.418 -0.6351 -0.2055 -0.4968
  194MOL0     N25493   6.815  10.167   3.301  0.1513 -0.1666  0.3751
  194MOL0     C25494   6.725  10.067   3.261 -0.0856 -0.4859 -0.0309
  194MOL0     C25495   6.705  10.099   3.129  0.6380  0.9251 -0.1790
  194MOL0     C25496   6.617  10.032   3.023 -0.0372  0.8191  0.0014
  194MOL0     C25497   6.472  10.037   3.067 -0.6798 -0.8981 -0.0312
  194MOL0     C25498   6.415   9.909   3.027  0.5328 -0.1237 -0.3375
  194MOL0     C25499   6.275   9.898   3.076  0.2243  0.1205  0.0342
  194MOL0     O25500   6.196   9.996   3.011 -0.0184 -0.2307  0.2073
  194MOL0     C25501   6.056   9.980   3.004  0.2248  0.7518  1.1814
  194MOL0     C25502   5.989   9.875   3.060 -0.3263  0.7863 -0.2484
  194MOL0     C25503   5.857   9.872   3.070  0.9243  0.1017  0.7707
  194MOL0     C25504   5.779   9.968   3.001 -0.4397 -0.7676  0.9801
  194MOL0     C25505   5.637   9.962   3.006  0.8428  0.3816 -0.0351
  194MOL0     O25506   5.576   9.914   3.118  0.5661 -0.2492  0.0545
  194MOL0     C25507   5.437   9.907   3.126 -0.1231 -1.2260  0.8057
  194MOL0     C25508   5.345  10.014   3.106 -0.4076 -0.9290  0.0748
  194MOL0     C25509   5.209  10.004   3.117  0.4646 -0.0705  0.7561
  194MOL0     C25510   5.161   9.885   3.163  1.3775 -0.1805 -0.1834
  194MOL0     O25511   5.023   9.891   3.176 -0.0455 -0.7898 -0.2706
  194MOL0     C25512   4.961   9.770   3.227  0.4443  0.1989  0.1807
  194MOL0     C25513   4.821   9.822   3.262  0.1282  0.1545  0.2560
  194MOL0     C25514   4.813   9.930   3.374  0.4130  0.4551 -0.9791
  194MOL0     C25515   4.671   9.938   3.425 -0.1347 -0.9768 -0.1583
  194MOL0     C25516   4.661  10.020   3.559 -0.3896 -0.4714  0.0199
  194MOL0     C25517   4.516  10.052   3.586  0.7736 -1.1484  0.3664
  194MOL0     C25518   4.491  10.072   3.735 -0.2955  0.0644  0.4907
  194MOL0     C25519   4.333  10.061   3.756  1.1312 -0.3714 -1.0626
  194MOL0    Cl25520   4.249  10.211   3.696 -0.1945 -0.4087  0.1497
  194MOL0     C25521   5.244   9.775   3.176  0.8675 -0.1528  0.4765
  194MOL0     C25522   5.386   9.786   3.152  0.2253 -0.3008  0.0405
  194MOL0     O25523   5.574  10.019   2.916  0.1160  0.3416 -0.5615
  194MOL0     C25524   5.842  10.074   2.926  0.4544  0.2169 -0.7709
  194MOL0     C25525   5.979  10.079   2.936 -0.3657 -1.0004 -1.2846
  194MOL0     N25526   6.761  10.215   3.102 -0.2858  0.0990  0.5060
  194MOL0     N25527   6.829  10.259   3.206  0.0757 -0.6131  0.9491
  194MOL0     C25528   6.434   9.629   3.371 -0.0299 -0.6829 -1.0106
  194MOL0     C25529   6.315   9.591   3.420 -0.6863 -0.1003 -0.3460
  194MOL0     C25530   5.901   9.416   3.387  0.4297 -0.5413  0.9267
  194MOL0     C25531   5.877   9.298   3.473  1.0134 -0.5214 -0.0277
  194MOL0     C25532   5.752   9.259   3.518  0.7475  0.3631  0.3363
  194MOL0     C25533   5.639   9.342   3.484 -0.4802  0.5685 -0.6038
  194MOL0     O25534   5.513   9.315   3.509  0.1166  1.0481 -1.1313
  194MOL0     C25535   5.481   9.196   3.581  1.2012  0.5221  0.4977
  194MOL0     C25536   5.329   9.195   3.592 -0.5269 -1.2147  0.1056
  194MOL0     C25537   5.271   9.179   3.451 -0.5311 -0.0273  0.0065
  194MOL0     C25538   5.117   9.150   3.453 -0.4418 -0.2791  0.2897
  194MOL0     C25539   5.084   9.031   3.527  0.4027 -0.1204  0.3859
  194MOL0     C25540   5.058   8.923   3.565 -0.1839 -0.7067 -0.2064
  194MOL0     C25541   5.661   9.441   3.393  0.2751  0.0294  0.0285
  194MOL0     C25542   5.785   9.478   3.344 -0.1515  0.1966  0.2002
  194MOL0     H25543   6.289   9.308   3.242 -0.6389  0.5468 -0.3588
  194MOL0     H25544   6.491   9.403   3.123 -1.0536  1.1949 -1.9700
  194MOL0     H25545   6.712   9.493   3.090 -1.7777 -0.7345  0.6694
  194MOL0     H25546   6.740   9.471   3.265  1.8445  2.2022  0.6635
  194MOL0     H25547   6.870   9.701   3.091  0.4008  0.3790  0.1357
  194MOL0     H25548   6.955   9.564   3.134 -0.0829  1.0754 -0.2257
  194MOL0     H25549   6.930   9.602   3.385 -1.0126 -0.5875  0.2833
  194MOL0     H25550   6.838   9.744   3.340  1.4933  1.6559  1.0355
  194MOL0     H25551   7.134   9.695   3.265 -1.1508 -1.0335 -1.3066
  194MOL0     H25552   7.033   9.835   3.233 -2.2229  1.6511  2.8763
  194MOL0     H25553   7.191   9.865   3.435  1.8980 -3.1743 -0.5811
  194MOL0     H25554   7.086   9.744   3.515 -0.1653  1.6263  1.1242
  194MOL0     H25555   6.998   9.966   3.585 -1.4224  3.2883 -0.0414
  194MOL0     H25556   6.886   9.880   3.483 -0.3024 -1.0737 -1.8692
  194MOL0     H25557   7.098  10.100   3.413 -0.1485  0.8671 -2.2962
  194MOL0     H25558   7.004  10.035   3.280 -0.9041 -0.4441  0.2074
  194MOL0     H25559   6.949  10.261   3.435  2.1992 -1.4921 -0.6193
  194MOL0     H25560   6.842  10.130   3.503  4.9762 -0.5473  3.8827
  194MOL0     H25561   6.678   9.985   3.313 -0.7614  0.1866  0.4377
  194MOL0     H25562   6.655   9.930   3.011 -1.2372  0.5103 -1.4734
  194MOL0     H25563   6.628  10.089   2.931  0.0835  1.8529  0.6505
  194MOL0     H25564   6.433  10.118   3.005  1.0723 -0.2347 -0.3304
  194MOL0     H25565   6.454  10.060   3.172  1.3216  3.4446 -0.4346
  194MOL0     H25566   6.423   9.879   2.922  2.0183  1.1638 -0.6356
  194MOL0     H25567   6.475   9.838   3.084  2.0835  0.4801 -1.1712
  194MOL0     H25568   6.259   9.909   3.184  2.0366  0.4977  0.2868
  194MOL0     H25569   6.250   9.797   3.041 -0.2212 -0.9710  3.1996
  194MOL0     H25570   6.034   9.792   3.113 -3.3879  0.0314  1.3946
  194MOL0     H25571   5.804   9.788   3.115 -0.9193 -0.0283 -1.4361
  194MOL0     H25572   5.381  10.112   3.077 -0.0878 -0.7782  0.9371
  194MOL0     H25573   5.148  10.091   3.093 -0.7229 -1.3821 -1.3129
  194MOL0     H25574   5.008   9.735   3.319 -2.0729  1.9342  2.2822
  194MOL0     H25575   4.944   9.685   3.161  1.1361  1.1256 -1.2635
  194MOL0     H25576   4.772   9.733   3.302 -1.1778  1.8719  2.7471
  194MOL0     H25577   4.764   9.848   3.172  0.4038 -0.1413 -0.0065
  194MOL0     H25578   4.842  10.030   3.341  0.0645  1.0440  0.4120
  194MOL0     H25579   4.871   9.900   3.462 -1.7223  1.1991  0.7903
  194MOL0     H25580   4.611   9.990   3.350  0.1693  2.1287  1.5874
  194MOL0     H25581   4.633   9.841   3.457 -3.8847  0.8687  1.5556
  194MOL0     H25582   4.702  10.121   3.551 -0.4112 -0.3720  1.0255
  194MOL0     H25583   4.721   9.970   3.636  0.4256 -0.0529 -0.3337
  194MOL0     H25584   4.449   9.970   3.558  0.6952 -1.0195  0.1757
  194MOL0     H25585   4.479  10.136   3.527 -0.1400 -1.3780  0.5886
  194MOL0     H25586   4.545   9.997   3.792  1.4265  0.3099 -0.7420
  194MOL0     H25587   4.523  10.170   3.770  0.9838  0.2154 -1.0367
  194MOL0     H25588   4.326  10.065   3.865 -2.6125  2.4459 -1.2097
  194MOL0     H25589   4.292   9.967   3.717  2.1888 -0.8556 -1.0434
  194MOL0     H25590   5.202   9.680   3.209 -2.7048  0.7189 -1.1086
  194MOL0     H25591   5.453   9.707   3.185 -1.4550 -2.2171 -0.9665
  194MOL0     H25592   5.784  10.147   2.871 -0.8575 -0.2044 -0.0037
  194MOL0     H25593   6.028  10.162   2.887  0.5170  0.0144  1.1210
  194MOL0     H25594   6.472   9.719   3.417  0.6152 -1.4809  0.0506
  194MOL0     H25595   6.257   9.642   3.496 -0.9805 -1.0000  0.0519
  194MOL0     H25596   5.961   9.231   3.489  1.9691  0.4564 -0.8133
  194MOL0     H25597   5.732   9.172   3.579  2.6302 -0.3904 -0.0690
  194MOL0     H25598   5.513   9.179   3.684 -0.0178  1.0012  0.9728
  194MOL0     H25599   5.499   9.105   3.524 -2.1808 -0.8236  1.3214
  194MOL0     H25600   5.291   9.118   3.659 -0.7570  2.0734  4.2339
  194MOL0     H25601   5.284   9.276   3.651  1.7590 -2.8606  4.6043
  194MOL0     H25602   5.323   9.090   3.416 -0.9265 -0.3252  0.1699
  194MOL0     H25603   5.287   9.267   3.388  2.2510 -0.2209  0.3288
  194MOL0     H25604   5.078   9.235   3.511  1.6547  1.1889 -0.3410
  194MOL0     H25605   5.082   9.146   3.350  2.2136 -0.6248 -0.6583
  194MOL0     H25606   5.020   8.826   3.593 -1.1860 -0.3636 -0.3356
  194MOL0     H25607   5.576   9.485   3.342 -0.7360 -1.5841  0.2358
  194MOL0     H25608   5.794   9.552   3.266 -1.3188 -0.8848 -1.0227
  195MOL0     O25609   3.104   7.261   1.778 -0.0855 -1.0764 -0.1060
  195MOL0     C25610   3.166   7.208   1.873  0.1808 -0.9458 -0.0257
  195MOL0     O25611   3.279   7.125   1.856 -0.6918  0.4798  0.1360
  195MOL0     C25612   3.338   7.110   1.730 -0.2168  0.0836 -0.2888
  195MOL0     C25613   3.261   7.098   1.612 -0.1339  0.1643  0.4045
  195MOL0     C25614   3.343   7.070   1.496  0.1367 -0.0668  1.1870
  195MOL0     C25615   3.476   7.059   1.493 -1.0091  0.5482  0.2237
  195MOL0     O25616   3.532   7.027   1.374  0.2396  0.5396 -0.7861
  195MOL0     C25617   3.645   7.099   1.334 -0.6361  0.2839  0.2250
  195MOL0     C25618   3.642   7.105   1.181  0.0719 -1.3638  0.4455
  195MOL0     C25619   3.624   6.969   1.110  0.2868 -1.2867  0.9240
  195MOL0     C25620   3.610   6.987   0.958  0.7830 -0.4401  0.2022
  195MOL0     C25621   3.597   6.853   0.883  0.3632  0.4073 -0.0396
  195MOL0     C25622   3.582   6.852   0.737  0.0530  0.3219  0.4351
  195MOL0     C25623   3.716   6.853   0.670 -0.4341 -0.2957 -0.0908
  195MOL0     C25624   3.704   6.859   0.525 -0.5468  0.0091  0.2059
  195MOL0     N25625   3.760   6.736   0.469 -0.0552 -0.4946  0.7920
  195MOL0     C25626   3.885   6.727   0.424 -0.1429  1.2376  0.4850
  195MOL0     C25627   3.894   6.594   0.391 -0.0730 -0.8914  0.4490
  195MOL0     C25628   4.020   6.520   0.357 -0.4577 -0.2164 -0.3170
  195MOL0     C25629   4.124   6.508   0.466  0.3204 -0.5770  0.7243
  195MOL0     C25630   4.104   6.390   0.564  0.6687  0.1291 -0.7940
  195MOL0     C25631   4.235   6.377   0.652  0.3367 -0.0887  0.1172
  195MOL0     O25632   4.352   6.336   0.588 -0.1422  0.3717  0.3326
  195MOL0     C25633   4.456   6.284   0.655 -0.7227  0.3383 -0.0846
  195MOL0     C25634   4.555   6.220   0.582  0.1999  0.6939  0.2872
  195MOL0     C25635   4.676   6.199   0.646 -0.9161  0.3036 -0.5090
  195MOL0     C25636   4.707   6.228   0.781  0.2090  0.0452  0.1232
  195MOL0     C25637   4.835   6.187   0.839 -0.3420 -0.1594 -0.4765
  195MOL0     O25638   4.945   6.171   0.756 -0.7756 -0.4767 -0.3499
  195MOL0     C25639   5.063   6.145   0.820 -0.1083  0.3220  0.2658
  195MOL0     C25640   5.098   6.019   0.860 -0.3203 -0.1045  0.3496
  195MOL0     C25641   5.230   5.998   0.919  0.4974  0.0513  0.2452
  195MOL0     C25642   5.317   6.107   0.943  0.4706  0.7672 -0.8381
  195MOL0     O25643   5.446   6.088   0.984 -0.2743  0.1740 -0.1460
  195MOL0     C25644   5.487   5.960   1.016 -0.3621  0.3079  0.5917
  195MOL0     C25645   5.631   5.936   1.047  0.6551 -0.7126  0.1077
  195MOL0     C25646   5.645   5.785   1.096  0.4740 -0.8109  0.0287
  195MOL0     C25647   5.782   5.765   1.124  0.0169 -0.4875 -0.4408
  195MOL0     C25648   5.793   5.649   1.235  0.6396  0.3303  0.0602
  195MOL0     C25649   5.939   5.595   1.242  0.1155  0.7470  0.5936
  195MOL0     C25650   5.977   5.526   1.114  0.4734  0.8753 -0.2476
  195MOL0     C25651   6.120   5.480   1.118  0.4494  0.6500  0.6919
  195MOL0    Cl25652   6.217   5.608   1.173  0.2207 -0.0282  0.0112
  195MOL0     C25653   5.277   6.232   0.907 -0.2459  0.9100  0.7283
  195MOL0     C25654   5.151   6.254   0.844 -0.0536 -0.1190  0.8390
  195MOL0     O25655   4.829   6.171   0.966 -0.0712 -0.0733 -0.5449
  195MOL0     C25656   4.598   6.280   0.858 -0.9996  0.0495  0.3582
  195MOL0     C25657   4.481   6.315   0.790  0.3058  0.3955  0.4812
  195MOL0     N25658   3.775   6.530   0.415  0.1993 -0.3135  1.0783
  195MOL0     N25659   3.696   6.620   0.458 -0.5584 -0.2867  0.4751
  195MOL0     C25660   3.550   7.077   1.610 -0.5467 -0.7286  0.9426
  195MOL0     C25661   3.476   7.098   1.731  0.4707 -0.8000 -0.2100
  195MOL0     C25662   3.114   7.227   2.013  0.1864  0.0925  0.1680
  195MOL0     C25663   3.173   7.159   2.122  0.3424 -0.2474  0.5054
  195MOL0     C25664   3.112   7.153   2.245  0.6034  0.5007 -0.9340
  195MOL0     C25665   2.996   7.215   2.278 -0.3859 -0.2630  1.0390
  195MOL0     O25666   2.929   7.218   2.394  0.4933  0.1609 -0.3708
  195MOL0     C25667   2.999   7.235   2.517  0.7923 -0.2700  0.1612
  195MOL0     C25668   3.049   7.383   2.541  0.3802 -0.5273 -0.6391
  195MOL0     C25669   2.929   7.490   2.550  0.1922  0.2590 -0.1611
  195MOL0     C25670   3.000   7.628   2.558  0.0504 -0.3373 -0.4921
  195MOL0     C25671   3.098   7.656   2.661 -0.2007 -0.1617 -1.0419
  195MOL0     C25672   3.173   7.691   2.748  0.1241 -0.1503 -0.3219
  195MOL0     C25673   2.941   7.295   2.175 -0.3166  0.2288 -0.1118
  195MOL0     C25674   2.997   7.296   2.047 -0.1623 -0.8055  0.1380
  195MOL0     H25675   3.154   7.100   1.594  0.3366  1.9152 -2.8989
  195MOL0     H25676   3.292   7.063   1.401  0.2521 -1.3963  1.1995
  195MOL0     H25677   3.735   7.045   1.366  0.0542 -0.3284 -2.4725
  195MOL0     H25678   3.665   7.198   1.375  0.3168  0.8276 -1.4475
  195MOL0     H25679   3.722   7.159   1.129  0.3765 -2.0754  0.1703
  195MOL0     H25680   3.554   7.164   1.152  0.4267 -1.4023 -0.7579
  195MOL0     H25681   3.541   6.908   1.148 -1.9920  0.4906 -0.8572
  195MOL0     H25682   3.716   6.911   1.121  2.5858  1.5485 -1.5817
  195MOL0     H25683   3.520   7.047   0.939  1.7684  1.0650  0.0860
  195MOL0     H25684   3.693   7.045   0.917 -0.9740  1.5229 -0.7804
  195MOL0     H25685   3.511   6.798   0.921 -0.3799  0.9689 -0.8716
  195MOL0     H25686   3.686   6.792   0.900  0.4704  0.4949 -0.2860
  195MOL0     H25687   3.523   6.937   0.702  0.8702  0.7910  0.1643
  195MOL0     H25688   3.531   6.762   0.700  1.8891 -0.4463 -0.3409
  195MOL0     H25689   3.785   6.927   0.712 -2.2636  1.5105 -0.0961
  195MOL0     H25690   3.766   6.759   0.695 -2.2976 -1.5303 -0.7269
  195MOL0     H25691   3.753   6.948   0.484  0.9230 -0.2154  1.4173
  195MOL0     H25692   3.600   6.863   0.488  0.2718 -2.2241 -2.7350
  195MOL0     H25693   3.958   6.808   0.422  0.7816  0.4330 -1.1337
  195MOL0     H25694   4.068   6.576   0.276  1.6104  0.6066  1.3541
  195MOL0     H25695   3.977   6.422   0.338 -1.4555 -0.5357  2.9552
  195MOL0     H25696   4.120   6.605   0.516 -0.0864 -0.1989 -0.0324
  195MOL0     H25697   4.220   6.507   0.413 -0.6637  0.5295 -1.1860
  195MOL0     H25698   4.020   6.415   0.629 -0.3487  1.8420 -2.6796
  195MOL0     H25699   4.069   6.298   0.517  0.9169  0.4970 -1.7169
  195MOL0     H25700   4.222   6.313   0.741  3.0052 -2.0799 -0.7680
  195MOL0     H25701   4.246   6.481   0.684 -0.5645 -0.3152  1.2430
  195MOL0     H25702   4.544   6.216   0.475 -2.0796 -0.4429  0.5076
  195MOL0     H25703   4.753   6.167   0.577 -1.8386 -0.1108 -1.3814
  195MOL0     H25704   5.034   5.940   0.825 -2.4400  2.2547 -1.4813
  195MOL0     H25705   5.252   5.893   0.934  2.6668 -0.1329 -3.2419
  195MOL0     H25706   5.454   5.893   0.936 -0.8514  2.3796 -1.0097
  195MOL0     H25707   5.429   5.933   1.105  0.4239  2.8990  1.9771
  195MOL0     H25708   5.664   6.007   1.123 -0.0150 -2.1357  1.7976
  195MOL0     H25709   5.687   5.955   0.955  0.5286  0.3859  0.2383
  195MOL0     H25710   5.591   5.713   1.033 -0.2967 -1.6808  1.6338
  195MOL0     H25711   5.595   5.770   1.192 -1.0073 -1.2367 -0.7818
  195MOL0     H25712   5.816   5.736   1.024 -1.0107 -0.5592 -0.7808
  195MOL0     H25713   5.836   5.850   1.166 -2.5764  0.1449  1.8998
  195MOL0     H25714   5.723   5.570   1.205 -3.0474  3.3047  0.1881
  195MOL0     H25715   5.758   5.695   1.327 -3.7994 -2.3722  0.0166
  195MOL0     H25716   5.964   5.525   1.323 -0.5423 -0.0669  0.1068
  195MOL0     H25717   6.002   5.683   1.257 -0.7636  1.3587  0.7166
  195MOL0     H25718   5.906   5.443   1.107 -0.7275  1.9349 -1.6025
  195MOL0     H25719   5.963   5.584   1.022 -1.3054 -1.6561 -1.7054
  195MOL0     H25720   6.162   5.463   1.019  0.8701  0.1013  0.9614
  195MOL0     H25721   6.127   5.393   1.184 -1.6487  0.9376  1.3727
  195MOL0     H25722   5.349   6.309   0.933  0.4362  0.7304 -0.5464
  195MOL0     H25723   5.131   6.357   0.814 -0.1014 -0.1832  0.6496
  195MOL0     H25724   4.608   6.295   0.965  2.8794 -0.6476  0.2658
  195MOL0     H25725   4.413   6.377   0.848  2.3949  1.6562  1.6827
  195MOL0     H25726   3.658   7.088   1.614 -0.5606  1.6858 -1.8177
  195MOL0     H25727   3.526   7.119   1.825 -1.0265  0.1131  0.4213
  195MOL0     H25728   3.271   7.117   2.100  1.3562  3.4913 -3.5186
  195MOL0     H25729   3.166   7.103   2.325  0.9757 -1.0680 -2.1167
  195MOL0     H25730   3.079   7.162   2.533 -0.4171 -2.1412 -1.7889
  195MOL0     H25731   2.925   7.207   2.594 -2.0149 -3.1208 -3.2044
  195MOL0     H25732   3.108   7.390   2.633  2.1073 -1.2098 -1.6438
  195MOL0     H25733   3.121   7.402   2.461  0.6454 -0.2581 -0.3417
  195MOL0     H25734   2.872   7.474   2.643 -0.0842  1.6057 -0.0872
  195MOL0     H25735   2.864   7.490   2.462  0.1670  0.5271 -0.1406
  195MOL0     H25736   3.068   7.641   2.474  0.0382  0.9654 -0.3291
  195MOL0     H25737   2.926   7.708   2.550  2.5586  1.9965 -2.2497
  195MOL0     H25738   3.250   7.711   2.819 -0.6786 -1.3197  0.9343
  195MOL0     H25739   2.857   7.359   2.199  0.0008  1.9236 -3.0173
  195MOL0     H25740   2.946   7.349   1.967 -2.3051 -0.2573  1.8006
  196MOL0     O25741   5.746   1.601   4.369 -0.0376 -0.2673  0.3207
  196MOL0     C25742   5.809   1.693   4.425 -0.5988  0.2918 -0.1235
  196MOL0     O25743   5.770   1.823   4.434 -0.1195  0.3222 -0.0023
  196MOL0     C25744   5.634   1.853   4.421  0.1958 -0.6649 -0.4747
  196MOL0     C25745   5.539   1.777   4.497 -0.0880 -0.4910  0.0747
  196MOL0     C25746   5.411   1.828   4.514  0.4114  1.1751 -0.3257
  196MOL0     C25747   5.370   1.947   4.454 -0.0217  0.6238  0.4008
  196MOL0     O25748   5.246   2.010   4.462 -0.9892  0.7236 -0.3523
  196MOL0     C25749   5.156   1.982   4.562  1.0502  0.6055 -1.3361
  196MOL0     C25750   5.026   2.063   4.542  0.3151  0.6128 -0.0497
  196MOL0     C25751   4.919   2.029   4.645 -1.4801  0.1405 -0.3528
  196MOL0     C25752   4.805   2.134   4.624 -0.2676  0.6410  0.1099
  196MOL0     C25753   4.683   2.112   4.713  0.0555 -0.5329 -0.3131
  196MOL0     C25754   4.714   2.068   4.858  0.6174 -0.6215  0.4772
  196MOL0     C25755   4.579   2.055   4.937  0.7078  1.0229 -0.0918
  196MOL0     C25756   4.474   1.958   4.879  0.6278 -0.5691 -0.7702
  196MOL0     N25757   4.505   1.816   4.903  0.5127 -0.2463  0.7433
  196MOL0     C25758   4.580   1.731   4.824 -0.2903 -0.0654 -0.7873
  196MOL0     C25759   4.555   1.606   4.878 -0.2195  0.7039 -0.0734
  196MOL0     C25760   4.579   1.471   4.817  0.0997  0.1693  0.2005
  196MOL0     C25761   4.712   1.397   4.868  0.4426 -0.0577  0.0835
  196MOL0     C25762   4.680   1.266   4.928  0.1753  0.2328 -0.1082
  196MOL0     C25763   4.804   1.184   4.974 -0.2957 -0.3983 -0.3640
  196MOL0     O25764   4.924   1.243   4.911 -1.2144  0.0308  0.5087
  196MOL0     C25765   5.049   1.187   4.919  0.9476  0.5043  0.5444
  196MOL0     C25766   5.160   1.273   4.928  0.3510 -0.4482 -0.9681
  196MOL0     C25767   5.285   1.226   4.944 -0.2478  0.3183 -0.5577
  196MOL0     C25768   5.310   1.087   4.956 -0.0474 -0.0488  0.8226
  196MOL0     C25769   5.433   1.022   4.992  0.7132  0.4744  0.1580
  196MOL0     O25770   5.451   0.891   4.966  0.8038 -0.1049 -0.4208
  196MOL0     C25771   5.571   0.834   4.996  0.2505 -0.1850  0.3408
  196MOL0     C25772   5.608   0.721   4.926 -0.3420 -1.2406 -0.4535
  196MOL0     C25773   5.727   0.649   4.950 -0.9384  0.5127 -0.1066
  196MOL0     C25774   5.807   0.683   5.053  0.0563  0.4835 -0.5377
  196MOL0     O25775   5.926   0.614   5.066 -0.0362  0.4544 -0.8579
  196MOL0     C25776   6.029   0.691   5.124  0.4499 -0.2496  0.5979
  196MOL0     C25777   6.171   0.630   5.116  0.7482  0.0142 -0.7962
  196MOL0     C25778   6.280   0.697   5.200  0.4731 -0.2830  0.1614
  196MOL0     C25779   6.403   0.608   5.194 -0.2027  0.0153 -0.2424
  196MOL0     C25780   6.522   0.659   5.287 -0.4470 -0.3360 -0.0154
  196MOL0     C25781   6.644   0.559   5.290  0.3654 -0.5445 -0.1488
  196MOL0     C25782   6.770   0.583   5.374 -0.0722 -0.3780  1.0371
  196MOL0     C25783   6.855   0.703   5.339  0.4529 -0.4790 -1.0274
  196MOL0    Cl25784   6.926   0.674   5.183  0.0024  0.0879 -0.5334
  196MOL0     C25785   5.767   0.791   5.124  0.2338 -0.2106 -0.0305
  196MOL0     C25786   5.647   0.861   5.111  0.9029 -1.0211  0.4050
  196MOL0     O25787   5.516   1.099   5.033  1.3127 -0.4022 -0.1913
  196MOL0     C25788   5.195   1.005   4.927 -0.4608  0.7371 -1.0478
  196MOL0     C25789   5.067   1.053   4.920 -0.7724  0.1803  0.5521
  196MOL0     N25790   4.478   1.620   4.984 -0.7316  0.0307 -0.0507
  196MOL0     N25791   4.442   1.738   5.004 -0.0754 -0.4163  0.4617
  196MOL0     C25792   5.464   2.015   4.367 -1.1669  0.2591 -0.4891
  196MOL0     C25793   5.592   1.960   4.348  0.1457  1.2096  0.1312
  196MOL0     C25794   5.945   1.664   4.469  0.0695  0.5351  0.2453
  196MOL0     C25795   6.017   1.739   4.567 -0.2394  0.9185 -0.1030
  196MOL0     C25796   6.145   1.698   4.621  0.2304  0.0342 -0.1776
  196MOL0     C25797   6.215   1.598   4.550  0.1842  0.6078 -0.1842
  196MOL0     O25798   6.339   1.578   4.604  0.1242 -0.0783  0.7730
  196MOL0     C25799   6.432   1.501   4.526  0.5436  0.7474  0.1083
  196MOL0     C25800   6.575   1.529   4.558  0.3604 -0.4065 -0.4016
  196MOL0     C25801   6.614   1.672   4.516  0.0701 -0.0265 -0.2558
  196MOL0     C25802   6.759   1.718   4.526  0.5616  0.3958  0.9632
  196MOL0     C25803   6.845   1.650   4.424  0.6123  0.4845 -0.1194
  196MOL0     C25804   6.919   1.580   4.354  0.2414 -0.2707 -0.2290
  196MOL0     C25805   6.153   1.533   4.448 -0.3432  1.0109 -0.8561
  196MOL0     C25806   6.017   1.556   4.414 -0.1411 -0.4798  0.0864
  196MOL0     H25807   5.564   1.689   4.556  1.1056  0.3717  0.9127
  196MOL0     H25808   5.342   1.781   4.584  3.7436 -3.9384  0.0694
  196MOL0     H25809   5.210   2.001   4.656 -1.2315  4.5389 -0.5873
  196MOL0     H25810   5.141   1.874   4.553  1.2395  0.0586  2.7338
  196MOL0     H25811   4.986   2.016   4.452 -2.1131  1.0599  0.7158
  196MOL0     H25812   5.043   2.171   4.539 -1.1686  0.9379  1.6631
  196MOL0     H25813   4.970   2.037   4.742  0.6268  2.1821 -1.5386
  196MOL0     H25814   4.867   1.934   4.642 -2.3301  0.6027 -0.4765
  196MOL0     H25815   4.852   2.229   4.653  3.6169 -1.4009  1.1137
  196MOL0     H25816   4.765   2.148   4.524  1.2031 -0.6936 -0.7030
  196MOL0     H25817   4.626   2.031   4.666 -2.5029  0.7944  0.3106
  196MOL0     H25818   4.614   2.197   4.714 -0.7390 -1.0580 -2.8868
  196MOL0     H25819   4.786   2.130   4.912  3.2713 -1.3434 -1.9351
  196MOL0     H25820   4.763   1.971   4.843  0.7321 -0.4511 -0.2896
  196MOL0     H25821   4.612   2.006   5.030  1.0272 -0.9643 -1.1895
  196MOL0     H25822   4.543   2.155   4.960  0.3696  0.5563  1.5657
  196MOL0     H25823   4.449   1.979   4.774 -0.6375  0.3042 -0.3236
  196MOL0     H25824   4.373   1.972   4.919 -0.7432  1.6568 -4.4420
  196MOL0     H25825   4.635   1.739   4.731  1.6768 -1.3537  0.2016
  196MOL0     H25826   4.568   1.492   4.710  0.8714 -3.4482 -0.7383
  196MOL0     H25827   4.493   1.410   4.844 -0.4105  1.3111  1.2263
  196MOL0     H25828   4.776   1.445   4.942  2.0152 -0.9888 -0.6148
  196MOL0     H25829   4.768   1.403   4.774 -1.0275 -1.0873 -0.9184
  196MOL0     H25830   4.611   1.276   5.013  1.1963 -1.5302  1.0013
  196MOL0     H25831   4.634   1.202   4.853 -0.2828  0.0851  0.2885
  196MOL0     H25832   4.794   1.081   4.939  0.9028  0.6798 -4.4322
  196MOL0     H25833   4.810   1.186   5.083 -3.5982 -3.6375  0.0875
  196MOL0     H25834   5.143   1.379   4.918 -1.5717 -0.8543 -2.8254
  196MOL0     H25835   5.366   1.296   4.964  0.3191 -0.9323  2.0285
  196MOL0     H25836   5.543   0.704   4.841 -2.4200  2.7321  0.0704
  196MOL0     H25837   5.747   0.561   4.890 -3.4421 -3.1494  3.8060
  196MOL0     H25838   6.010   0.727   5.226 -0.1056  0.0747  0.3860
  196MOL0     H25839   6.031   0.786   5.070 -0.4248 -2.2779 -3.3599
  196MOL0     H25840   6.202   0.626   5.011  1.2843 -1.1901 -0.6098
  196MOL0     H25841   6.155   0.528   5.152  1.2462  0.2498  0.1090
  196MOL0     H25842   6.240   0.698   5.302 -0.4322 -3.7263 -0.0131
  196MOL0     H25843   6.318   0.790   5.159 -1.1660 -0.0995 -1.0408
  196MOL0     H25844   6.376   0.510   5.235  1.0390 -0.6982 -1.0292
  196MOL0     H25845   6.442   0.597   5.092  1.3262  1.6350  0.1029
  196MOL0     H25846   6.485   0.690   5.385 -0.9808  3.2907 -1.2334
  196MOL0     H25847   6.555   0.753   5.242 -0.3198  0.1321  1.0144
  196MOL0     H25848   6.682   0.563   5.188  4.0140  1.4756  1.1225
  196MOL0     H25849   6.615   0.458   5.321  1.4040 -1.0883 -0.8883
  196MOL0     H25850   6.732   0.597   5.475 -0.4804 -2.7076  1.2629
  196MOL0     H25851   6.836   0.495   5.366 -1.3765 -1.2237 -2.0428
  196MOL0     H25852   6.922   0.727   5.422  0.8731  0.9698 -1.7589
  196MOL0     H25853   6.783   0.785   5.340 -1.5775 -1.9697  3.5377
  196MOL0     H25854   5.827   0.820   5.210  0.3458 -0.1152 -0.1391
  196MOL0     H25855   5.620   0.937   5.184  2.7060  2.0612 -1.9059
  196MOL0     H25856   5.204   0.897   4.932 -1.5063  0.6791 -0.2002
  196MOL0     H25857   4.985   0.982   4.916  2.0385 -3.3297 -2.9649
  196MOL0     H25858   5.441   2.115   4.333 -0.8146  1.1880  1.7866
  196MOL0     H25859   5.670   2.008   4.289 -1.9519  2.6702 -1.5936
  196MOL0     H25860   5.962   1.825   4.605 -0.1418  1.2835 -0.7774
  196MOL0     H25861   6.185   1.740   4.713  1.1989  1.7772 -1.3298
  196MOL0     H25862   6.422   1.505   4.417  1.8166 -4.3327 -0.4545
  196MOL0     H25863   6.405   1.399   4.555 -1.1936  0.2826 -2.7587
  196MOL0     H25864   6.589   1.521   4.667 -3.8598 -5.7489  0.1984
  196MOL0     H25865   6.651   1.465   4.511  1.3837 -1.0411  1.9176
  196MOL0     H25866   6.557   1.745   4.574  0.1883  0.9640 -1.3336
  196MOL0     H25867   6.578   1.678   4.413 -3.5504 -1.2874  0.8182
  196MOL0     H25868   6.761   1.825   4.504 -0.2548  0.0289 -1.1014
  196MOL0     H25869   6.790   1.700   4.629  0.8233  3.8941  1.6293
  196MOL0     H25870   6.973   1.528   4.278 -3.8059  0.6994 -4.2190
  196MOL0     H25871   6.189   1.452   4.386  2.6450  1.3427  0.2952
  196MOL0     H25872   5.978   1.488   4.339  0.6406 -0.2486 -0.5449
  197MOL0     O25873   5.814  10.524   6.765 -0.6297  1.0092  0.0165
  197MOL0     C25874   5.866  10.587   6.853  0.2340 -0.3305  0.0997
  197MOL0     O25875   5.821  10.720   6.887 -1.1770 -0.3750 -0.0515
  197MOL0     C25876   5.689  10.755   6.860  0.1183 -0.0897 -0.5103
  197MOL0     C25877   5.629  10.768   6.732  0.5008 -0.6529  0.9313
  197MOL0     C25878   5.504  10.830   6.708  0.0976 -0.2295  0.2001
  197MOL0     C25879   5.426  10.873   6.824  0.0983 -0.1579 -0.3987
  197MOL0     O25880   5.299  10.927   6.822 -0.4232  0.8094  0.7022
  197MOL0     C25881   5.243  10.969   6.699 -0.0691 -0.0459  0.1461
  197MOL0     C25882   5.121  11.041   6.734 -0.8079 -0.1305 -0.2937
  197MOL0     C25883   5.046  11.088   6.612 -0.0865  0.1211  0.5404
  197MOL0     C25884   4.941  11.191   6.638 -0.7654 -1.1055 -0.0044
  197MOL0     C25885   4.998  11.339   6.685 -0.7066  0.3714 -0.0606
  197MOL0     C25886   4.889  11.455   6.696 -0.3598 -0.1128  0.5523
  197MOL0     C25887   4.844  11.489   6.551  0.1830  0.7642 -1.3606
  197MOL0     C25888   4.734  11.593   6.551  0.4187 -0.1088  0.1795
  197MOL0     N25889   4.684  11.623   6.415 -0.0668  0.5975  0.7030
  197MOL0     C25890   4.591  11.723   6.381  0.6739  0.4284 -0.2878
  197MOL0     C25891   4.541  11.694   6.254  0.1080 -0.0637 -0.1411
  197MOL0     C25892   4.425  11.774   6.201 -0.3232  0.5517 -0.3088
  197MOL0     C25893   4.354  11.719   6.085  0.0636 -1.1827  0.2214
  197MOL0     C25894   4.435  11.724   5.953 -1.0388 -0.2866  0.0016
  197MOL0     C25895   4.356  11.690   5.825 -0.3793 -0.9421 -0.2945
  197MOL0     O25896   4.254  11.786   5.835  0.8407 -0.9779 -0.2003
  197MOL0     C25897   4.166  11.785   5.730  0.1190 -0.7528  0.3378
  197MOL0     C25898   4.085  11.895   5.720 -0.0930 -0.3037 -0.3761
  197MOL0     C25899   4.000  11.906   5.612 -0.0619 -0.2595 -0.3648
  197MOL0     C25900   3.974  11.799   5.519 -0.2166  0.0105 -0.7840
  197MOL0     C25901   3.885  11.822   5.401  0.7510  0.0334  0.8916
  197MOL0     O25902   3.796  11.929   5.413  0.2604 -0.1353  0.5701
  197MOL0     C25903   3.727  11.973   5.298  0.7952 -0.3898 -0.2958
  197MOL0     C25904   3.781  11.975   5.174 -0.6345  0.9990  0.1967
  197MOL0     C25905   3.715  12.041   5.069  0.5763  0.5871 -0.2963
  197MOL0     C25906   3.586  12.086   5.084 -0.6421  0.0506 -0.1642
  197MOL0     O25907   3.529  12.152   4.976 -0.3636  0.2662  0.0846
  197MOL0     C25908   3.389  12.188   4.984  1.2952  0.7709 -0.3236
  197MOL0     C25909   3.347  12.269   4.853  0.2052  0.9206 -0.2622
  197MOL0     C25910   3.197  12.258   4.837 -0.4677  0.7477  0.6824
  197MOL0     C25911   3.108  12.327   4.940  0.2186 -0.4136  0.0240
  197MOL0     C25912   3.125  12.482   4.925  0.0726  0.3833  0.2389
  197MOL0     C25913   3.018  12.554   4.995 -0.0171 -0.8547  0.4263
  197MOL0     C25914   3.039  12.552   5.151  0.6800  0.0927 -1.0054
  197MOL0     C25915   2.914  12.610   5.228  1.1140  0.2632 -0.0570
  197MOL0    Cl25916   2.780  12.505   5.184 -0.0593  0.3498  0.1395
  197MOL0     C25917   3.520  12.067   5.211 -0.4852 -0.4984 -0.4795
  197MOL0     C25918   3.597  12.013   5.319  0.5409  0.2730 -0.1804
  197MOL0     O25919   3.902  11.748   5.306  1.1031 -0.3219 -0.1927
  197MOL0     C25920   4.054  11.687   5.528 -0.1503 -0.2307 -0.9373
  197MOL0     C25921   4.154  11.683   5.634  0.0780  0.6270 -1.2054
  197MOL0     N25922   4.618  11.586   6.209  0.0735  0.0915 -0.6203
  197MOL0     N25923   4.699  11.540   6.306 -0.5300  0.0651 -0.0681
  197MOL0     C25924   5.490  10.862   6.957  0.3568  0.2220  0.4926
  197MOL0     C25925   5.611  10.796   6.967  0.1385 -0.5675 -1.6684
  197MOL0     C25926   5.982  10.522   6.917 -0.0844  0.2972 -0.0339
  197MOL0     C25927   6.055  10.597   7.012 -0.4959 -0.7654  0.1906
  197MOL0     C25928   6.167  10.553   7.075  0.0428  0.2766  0.2549
  197MOL0     C25929   6.213  10.423   7.046  0.0711  0.0539 -1.0345
  197MOL0     O25930   6.312  10.359   7.114 -0.4784  0.2524 -0.0733
  197MOL0     C25931   6.446  10.394   7.066  0.3898  0.7673 -0.1556
  197MOL0     C25932   6.538  10.269   7.061 -1.1019 -0.0968  0.6664
  197MOL0     C25933   6.488  10.144   6.984 -0.1409 -0.1333 -0.2784
  197MOL0     C25934   6.470  10.008   7.068 -0.3684 -0.0499 -0.7655
  197MOL0     C25935   6.609   9.964   7.108 -0.3241  0.3233  0.6342
  197MOL0     C25936   6.717   9.925   7.137 -0.6772 -1.0754  1.3283
  197MOL0     C25937   6.149  10.348   6.950  0.3973 -1.2448  0.1124
  197MOL0     C25938   6.039  10.397   6.886 -0.4472  0.1517  0.6408
  197MOL0     H25939   5.685  10.745   6.643  1.1830  1.7776  0.6447
  197MOL0     H25940   5.462  10.829   6.608  2.7764 -2.2790 -1.0199
  197MOL0     H25941   5.212  10.888   6.632 -1.9910  0.0689  0.8187
  197MOL0     H25942   5.317  11.036   6.655 -1.3649 -0.7846 -3.5091
  197MOL0     H25943   5.147  11.118   6.806 -2.1616 -1.6957  2.0084
  197MOL0     H25944   5.050  10.981   6.792 -1.5812  0.7176 -0.3370
  197MOL0     H25945   5.009  10.992   6.576  2.7748 -1.8816  2.5050
  197MOL0     H25946   5.111  11.120   6.530 -1.8145  1.3758 -0.4118
  197MOL0     H25947   4.883  11.200   6.546  0.4994  2.8845 -0.5906
  197MOL0     H25948   4.885  11.157   6.725  0.6705  2.2225  2.4549
  197MOL0     H25949   5.069  11.377   6.611  0.0127  2.0970  1.4527
  197MOL0     H25950   5.049  11.339   6.781 -2.2460  0.9627  0.7857
  197MOL0     H25951   4.930  11.547   6.739  2.5437 -0.7011 -0.7500
  197MOL0     H25952   4.803  11.413   6.750  0.7076 -1.8569  0.9829
  197MOL0     H25953   4.935  11.528   6.503  3.5464 -0.3712  3.3733
  197MOL0     H25954   4.815  11.398   6.498 -1.9480  0.7839 -0.3178
  197MOL0     H25955   4.763  11.682   6.607 -0.4838  0.9989 -1.0586
  197MOL0     H25956   4.656  11.552   6.615 -1.0148  1.0707 -0.7522
  197MOL0     H25957   4.559  11.809   6.439 -2.2592 -0.5982 -0.2129
  197MOL0     H25958   4.469  11.872   6.184  4.6652 -1.4092 -0.3126
  197MOL0     H25959   4.351  11.782   6.282  0.6331  1.1992  0.5145
  197MOL0     H25960   4.258  11.771   6.086  0.7926  0.3866 -2.6677
  197MOL0     H25961   4.320  11.615   6.092 -2.7070 -0.4945 -1.5951
  197MOL0     H25962   4.469  11.825   5.928  0.5018 -1.0645 -1.2629
  197MOL0     H25963   4.521  11.657   5.961 -0.1143  0.8914  0.1750
  197MOL0     H25964   4.321  11.587   5.834  0.0400 -1.5957 -4.2289
  197MOL0     H25965   4.423  11.694   5.739 -1.2729 -2.3520 -1.0889
  197MOL0     H25966   4.092  11.980   5.786  0.3790  0.8670 -1.8821
  197MOL0     H25967   3.958  12.003   5.588 -1.3626 -0.0565  2.3602
  197MOL0     H25968   3.879  11.938   5.145 -0.4627  3.4078 -2.7715
  197MOL0     H25969   3.751  12.041   4.967 -1.7239 -1.7251 -1.2338
  197MOL0     H25970   3.367  12.241   5.077 -1.7858 -0.0823 -0.4714
  197MOL0     H25971   3.337  12.092   4.991  4.0500 -0.7741  0.5599
  197MOL0     H25972   3.388  12.221   4.763 -4.0402  1.9787 -3.0860
  197MOL0     H25973   3.387  12.371   4.858 -0.9146  1.4139 -0.8608
  197MOL0     H25974   3.161  12.156   4.828 -3.0204  1.6228  0.3956
  197MOL0     H25975   3.182  12.313   4.744 -0.1246 -1.0602 -0.4850
  197MOL0     H25976   2.999  12.310   4.939  0.5747 -3.3002  0.8719
  197MOL0     H25977   3.151  12.302   5.037  2.6064  0.0091 -0.8662
  197MOL0     H25978   3.117  12.505   4.818  1.9305  0.2206  0.0254
  197MOL0     H25979   3.226  12.513   4.954  0.5231 -1.2003  0.4231
  197MOL0     H25980   2.923  12.506   4.970  0.7483 -1.9428 -0.5166
  197MOL0     H25981   3.003  12.650   4.945 -0.6316 -2.0476 -1.8371
  197MOL0     H25982   3.062  12.450   5.179  0.7829  0.5045  0.4682
  197MOL0     H25983   3.131  12.610   5.167  0.2685  0.0418  1.9396
  197MOL0     H25984   2.884  12.701   5.174  2.8203 -1.2869 -3.9668
  197MOL0     H25985   2.921  12.630   5.335  0.8198 -1.0435  0.2216
  197MOL0     H25986   3.416  12.095   5.220 -0.5275 -0.3361 -1.4385
  197MOL0     H25987   3.562  11.995   5.420  0.0361 -0.9800 -0.5472
  197MOL0     H25988   4.043  11.610   5.453 -3.1701 -1.4790  0.6437
  197MOL0     H25989   4.217  11.595   5.644 -0.7525  0.2059  1.0066
  197MOL0     H25990   5.431  10.894   7.042 -0.6784  0.6473 -0.3709
  197MOL0     H25991   5.654  10.783   7.066 -0.9193 -2.5530 -1.4044
  197MOL0     H25992   6.016  10.697   7.031 -0.4785 -0.9507  1.2239
  197MOL0     H25993   6.214  10.612   7.153  0.3961  0.7155 -0.2897
  197MOL0     H25994   6.506  10.462   7.127 -1.2746  3.8701 -1.7643
  197MOL0     H25995   6.438  10.436   6.966  2.1828  0.6630 -0.3670
  197MOL0     H25996   6.640  10.294   7.032 -0.9432 -1.5087 -0.0251
  197MOL0     H25997   6.541  10.246   7.168  0.5939  0.6518  0.8172
  197MOL0     H25998   6.554  10.126   6.899  0.5137  0.9745 -0.0219
  197MOL0     H25999   6.386  10.167   6.950  0.0757  3.7011  1.1712
  197MOL0     H26000   6.406  10.015   7.156  1.4686  1.0072  0.5652
  197MOL0     H26001   6.426   9.925   7.012  4.4860 -3.8195  0.3371
  197MOL0     H26002   6.817   9.893   7.160 -1.3142 -3.4982  0.9934
  197MOL0     H26003   6.184  10.247   6.929 -3.0538 -2.1712 -2.0765
  197MOL0     H26004   5.978  10.349   6.810 -1.2639  0.1743  1.2690
  198MOL0     O26005  10.326   2.047   7.057 -0.4321  0.0406  0.1342
  198MOL0     C26006  10.234   2.060   7.137  0.3412  0.2656  1.4545
  198MOL0     O26007  10.241   2.082   7.274 -0.6442  0.5637 -0.3041
  198MOL0     C26008  10.368   2.106   7.331  0.4423 -0.0766 -0.5810
  198MOL0     C26009  10.453   2.206   7.284  0.7577 -0.4980 -0.6272
  198MOL0     C26010  10.575   2.231   7.347 -0.3299 -0.3485  0.6091
  198MOL0     C26011  10.611   2.153   7.457  0.1416  0.1860 -0.8197
  198MOL0     O26012  10.730   2.173   7.521  0.2446 -0.3107  0.1771
  198MOL0     C26013  10.858   2.134   7.472  0.4140 -0.0529 -0.2457
  198MOL0     C26014  10.897   1.993   7.465  0.2379 -0.5244 -0.2968
  198MOL0     C26015  11.020   1.980   7.372 -0.4382 -0.4293  0.6467
  198MOL0     C26016  11.144   2.058   7.416  0.1968  1.2638 -0.3854
  198MOL0     C26017  11.255   1.982   7.342 -1.2289  0.1480 -0.4438
  198MOL0     C26018  11.369   2.082   7.335 -0.3956  0.0358 -0.5059
  198MOL0     C26019  11.424   2.126   7.470  0.3030 -0.1513 -0.5236
  198MOL0     C26020  11.574   2.156   7.476  0.4484 -0.1748  0.7935
  198MOL0     N26021  11.605   2.245   7.585 -0.3851  0.9190 -0.8507
  198MOL0     C26022  11.571   2.235   7.723 -0.5045 -0.3313 -0.4522
  198MOL0     C26023  11.660   2.311   7.785  0.3529  0.6848 -0.1993
  198MOL0     C26024  11.659   2.361   7.933  0.1530 -0.1078  0.2583
  198MOL0     C26025  11.774   2.436   7.974 -0.1669 -0.4327 -0.0210
  198MOL0     C26026  11.796   2.443   8.122 -0.0641  0.0621  0.3470
  198MOL0     C26027  11.935   2.516   8.133  0.1329 -0.2600 -0.1060
  198MOL0     O26028  11.934   2.544   8.270  0.1048 -0.5158 -0.4749
  198MOL0     C26029  12.054   2.537   8.342  0.0075 -0.5714 -0.5840
  198MOL0     C26030  12.048   2.526   8.476  0.1286  0.4051 -0.6991
  198MOL0     C26031  12.158   2.523   8.560 -0.5436  0.0291 -0.3482
  198MOL0     C26032  12.285   2.540   8.500  0.1160  0.6034  0.2194
  198MOL0     C26033  12.407   2.535   8.579 -0.1765  0.0704 -1.1125
  198MOL0     O26034  12.528   2.515   8.513  0.3716  0.0018  0.2423
  198MOL0     C26035  12.651   2.506   8.583 -0.4200 -0.0857 -0.4417
  198MOL0     C26036  12.689   2.404   8.678  0.0180  0.9121 -0.0803
  198MOL0     C26037  12.825   2.403   8.718 -0.3589 -0.0263 -0.0234
  198MOL0     C26038  12.918   2.492   8.670 -0.0050 -1.2304 -0.2245
  198MOL0     O26039  13.052   2.486   8.714  0.5990  0.3689 -0.3615
  198MOL0     C26040  13.137   2.492   8.593 -0.4166  0.7819  0.2220
  198MOL0     C26041  13.275   2.432   8.635 -0.0196  0.4477 -0.0707
  198MOL0     C26042  13.255   2.288   8.692 -0.4068 -0.3258 -0.5257
  198MOL0     C26043  13.222   2.189   8.583  0.3371 -0.5264  0.2719
  198MOL0     C26044  13.312   2.062   8.594 -1.2394  0.4488  0.5128
  198MOL0     C26045  13.471   2.079   8.598 -0.3756 -0.4594  0.4013
  198MOL0     C26046  13.547   1.952   8.655  0.2499  0.1961  0.7006
  198MOL0     C26047  13.653   1.893   8.566  0.8103 -0.4168  0.5293
  198MOL0    Cl26048  13.774   2.027   8.543 -0.4831 -0.0383  0.0725
  198MOL0     C26049  12.874   2.594   8.574 -0.0873  0.5115 -0.6741
  198MOL0     C26050  12.741   2.600   8.533  0.7929  0.0592 -0.3300
  198MOL0     O26051  12.397   2.525   8.704  0.4900  0.2876 -0.0535
  198MOL0     C26052  12.291   2.561   8.357  0.3331  0.5394 -0.7252
  198MOL0     C26053  12.180   2.567   8.280  0.8175  0.5595 -0.0245
  198MOL0     N26054  11.733   2.383   7.687 -0.1720  1.0581  0.4812
  198MOL0     N26055  11.695   2.340   7.567  0.2707  0.1796 -0.6291
  198MOL0     C26056  10.518   2.061   7.513 -0.4892 -0.1454  0.2947
  198MOL0     C26057  10.396   2.039   7.451 -1.3230  0.0515 -0.4918
  198MOL0     C26058  10.101   2.029   7.085  0.2127 -0.0131  0.4913
  198MOL0     C26059  10.079   1.982   6.957 -0.0747  0.8188  0.3194
  198MOL0     C26060   9.946   1.956   6.913 -0.1457 -0.2938 -0.1558
  198MOL0     C26061   9.831   1.999   6.983  0.1316 -0.1383  0.6380
  198MOL0     O26062   9.700   1.993   6.933 -0.1398 -0.2289  0.2952
  198MOL0     C26063   9.684   1.946   6.794 -0.2221 -0.0649 -0.4495
  198MOL0     C26064   9.553   1.997   6.743 -0.3057  0.1107 -0.4464
  198MOL0     C26065   9.440   1.966   6.841 -0.0304  0.7547 -0.3913
  198MOL0     C26066   9.312   2.021   6.783  0.8674  0.5367  0.8546
  198MOL0     C26067   9.262   1.959   6.656  0.3280  0.0936 -0.4060
  198MOL0     C26068   9.224   1.902   6.554  0.8096 -0.2925  0.1753
  198MOL0     C26069   9.852   2.038   7.112 -0.0815  0.5541 -0.7797
  198MOL0     C26070   9.983   2.052   7.174 -0.1853  1.0494  1.1180
  198MOL0     H26071  10.435   2.262   7.192 -3.0549 -1.4202 -0.5893
  198MOL0     H26072  10.653   2.298   7.310 -1.6384  0.9428  0.0973
  198MOL0     H26073  10.940   2.182   7.527 -0.1714 -1.6925  2.2134
  198MOL0     H26074  10.878   2.169   7.370  0.7979 -6.3045 -2.7243
  198MOL0     H26075  10.819   1.933   7.416  0.7457 -0.1788 -1.5484
  198MOL0     H26076  10.922   1.957   7.565 -0.9561  0.6936  0.4828
  198MOL0     H26077  10.993   2.018   7.272 -0.9307  2.2921  1.7146
  198MOL0     H26078  11.046   1.874   7.371 -0.2285 -0.4317  2.6126
  198MOL0     H26079  11.149   2.160   7.377  3.5401  0.8756 -1.2608
  198MOL0     H26080  11.152   2.059   7.525 -2.6950  1.0371 -0.0874
  198MOL0     H26081  11.225   1.955   7.240  0.2698 -0.8947 -0.6441
  198MOL0     H26082  11.277   1.889   7.396 -2.0444  0.1673 -0.0726
  198MOL0     H26083  11.336   2.176   7.289  2.1658  0.3991 -1.7786
  198MOL0     H26084  11.444   2.051   7.261  1.2097 -0.5226  1.2884
  198MOL0     H26085  11.374   2.214   7.512  2.5308  0.3904  1.1908
  198MOL0     H26086  11.409   2.040   7.536 -1.2769 -0.7126 -1.5460
  198MOL0     H26087  11.590   2.211   7.383 -0.2255 -0.9990  0.1723
  198MOL0     H26088  11.624   2.059   7.479  0.2877 -0.2251  2.5776
  198MOL0     H26089  11.490   2.179   7.770  0.9329  0.3192  3.1362
  198MOL0     H26090  11.632   2.276   7.995  0.4606  0.9655  1.9136
  198MOL0     H26091  11.576   2.432   7.936  1.0609  0.9544  2.2823
  198MOL0     H26092  11.770   2.540   7.938 -1.2192  1.0634  3.9590
  198MOL0     H26093  11.860   2.388   7.925 -1.3245 -1.4548 -1.0958
  198MOL0     H26094  11.727   2.501   8.184  0.0340 -0.1986  0.7005
  198MOL0     H26095  11.802   2.343   8.165 -2.6635 -0.1534  0.3782
  198MOL0     H26096  11.926   2.613   8.084 -2.0362  0.3514  1.3484
  198MOL0     H26097  12.018   2.450   8.105 -0.4408 -2.6692  3.2325
  198MOL0     H26098  11.952   2.506   8.523  1.0442 -3.6452 -0.2429
  198MOL0     H26099  12.155   2.506   8.667 -1.6090 -1.4356 -0.5794
  198MOL0     H26100  12.610   2.333   8.702 -1.2169  2.3394  0.2748
  198MOL0     H26101  12.866   2.333   8.791  3.6898  1.1429 -0.9242
  198MOL0     H26102  13.155   2.597   8.572 -0.9424  0.9022  0.3563
  198MOL0     H26103  13.101   2.443   8.502 -2.2986  1.7108  0.4220
  198MOL0     H26104  13.314   2.500   8.711 -3.4816 -0.0834  2.4637
  198MOL0     H26105  13.349   2.433   8.555  1.4325  0.0814  1.2024
  198MOL0     H26106  13.184   2.289   8.775  1.0678 -0.0374  0.7710
  198MOL0     H26107  13.346   2.277   8.751 -1.8837 -0.0950  1.9320
  198MOL0     H26108  13.117   2.157   8.589  0.8288 -2.5043 -0.9084
  198MOL0     H26109  13.233   2.232   8.483 -0.8685 -0.2234  0.2450
  198MOL0     H26110  13.297   1.993   8.510  3.5314 -0.7029  0.3176
  198MOL0     H26111  13.285   2.002   8.682 -0.7101 -2.3030 -1.0673
  198MOL0     H26112  13.488   2.165   8.663 -0.1993 -2.9780  4.0335
  198MOL0     H26113  13.526   2.095   8.505 -1.3615  1.3343  0.0903
  198MOL0     H26114  13.601   1.975   8.747 -0.5596 -3.0289  2.1095
  198MOL0     H26115  13.470   1.887   8.697  0.3477  1.0606  2.2946
  198MOL0     H26116  13.617   1.846   8.473 -2.0823 -1.2512  1.9308
  198MOL0     H26117  13.699   1.813   8.625  0.6475 -0.7508  0.2103
  198MOL0     H26118  12.943   2.668   8.535  0.6389 -0.0128 -0.4166
  198MOL0     H26119  12.710   2.684   8.473  0.5523 -1.7069 -2.8567
  198MOL0     H26120  12.382   2.552   8.298 -1.1243 -1.1059 -2.8957
  198MOL0     H26121  12.198   2.595   8.177 -0.6156 -0.7231 -0.6680
  198MOL0     H26122  10.544   2.009   7.604 -0.5715  0.2898  0.5698
  198MOL0     H26123  10.331   1.960   7.487  0.4652 -1.5897 -0.7073
  198MOL0     H26124  10.163   1.960   6.892 -0.3412  2.9459 -0.8455
  198MOL0     H26125   9.945   1.946   6.805  0.6186  2.5801 -0.5182
  198MOL0     H26126   9.689   1.837   6.803 -0.6881 -0.3253 -2.8747
  198MOL0     H26127   9.758   1.987   6.725  1.6357 -2.3676  0.0538
  198MOL0     H26128   9.566   2.104   6.730 -1.4739  0.1493 -1.5063
  198MOL0     H26129   9.523   1.950   6.649  2.0804 -0.0453 -1.1772
  198MOL0     H26130   9.447   2.021   6.935 -2.4746  0.5646 -0.0317
  198MOL0     H26131   9.422   1.858   6.847 -2.0335  1.1097  1.2725
  198MOL0     H26132   9.237   2.011   6.863  0.5667  0.7577  0.6010
  198MOL0     H26133   9.331   2.126   6.760  0.8724 -0.0997 -2.5485
  198MOL0     H26134   9.201   1.867   6.456 -0.7090  0.4046  0.2633
  198MOL0     H26135   9.768   2.060   7.178 -0.3334 -3.4166  0.4734
  198MOL0     H26136   9.994   2.079   7.278 -1.2751  0.5376  1.3744
  199MOL0     O26137   9.909  10.644  10.489  0.7839 -0.5956 -0.8127
  199MOL0     C26138   9.811  10.706  10.533  0.5734 -0.1214  0.3115
  199MOL0     O26139   9.688  10.673  10.522  0.1434 -0.3236  0.6551
  199MOL0     C26140   9.651  10.602  10.404 -0.0779 -0.1700 -0.4754
  199MOL0     C26141   9.688  10.465  10.382 -0.0313 -0.3288 -0.8481
  199MOL0     C26142   9.659  10.400  10.262 -0.1554  0.1376  0.0520
  199MOL0     C26143   9.596  10.458  10.158  0.3140 -0.5536  0.8268
  199MOL0     O26144   9.574  10.400  10.039  0.5275  0.0363 -0.0154
  199MOL0     C26145   9.548  10.256  10.039  0.0300  0.1550  0.0917
  199MOL0     C26146   9.508  10.216   9.896  0.1584  0.4479  0.4608
  199MOL0     C26147   9.629  10.246   9.802  0.2467 -0.4122  0.5091
  199MOL0     C26148   9.597  10.188   9.667  0.7933 -0.2518  0.7494
  199MOL0     C26149   9.725  10.171   9.577 -0.7073  0.0307 -0.7749
  199MOL0     C26150   9.813  10.052   9.607 -0.0245  1.4738 -0.3695
  199MOL0     C26151   9.950  10.049   9.528  1.3626 -0.3876  0.6795
  199MOL0     C26152  10.033   9.919   9.540  0.3303  0.8338 -0.3231
  199MOL0     N26153  10.153   9.925   9.447 -0.8272 -0.0461  0.2736
  199MOL0     C26154  10.252  10.015   9.431 -1.0224 -0.1589  0.1009
  199MOL0     C26155  10.341   9.976   9.335 -0.3000 -0.1410 -0.4940
  199MOL0     C26156  10.448  10.056   9.263 -0.0594  0.2430 -0.0571
  199MOL0     C26157  10.430  10.069   9.111 -0.2881 -0.7625  0.1938
  199MOL0     C26158  10.361  10.195   9.075  0.6869 -0.9523  0.2798
  199MOL0     C26159  10.361  10.205   8.920 -0.3422 -0.4343 -0.3867
  199MOL0     O26160  10.252  10.143   8.855 -0.7410 -0.6864  0.0953
  199MOL0     C26161  10.137  10.215   8.838  0.0965 -0.3044  0.7813
  199MOL0     C26162  10.037  10.149   8.768  0.0234  0.4495 -0.9175
  199MOL0     C26163   9.902  10.203   8.740 -0.1509 -0.7730  0.1506
  199MOL0     C26164   9.870  10.327   8.784 -0.1425  0.0524  0.1518
  199MOL0     C26165   9.740  10.404   8.766  0.0703  0.8050 -0.1404
  199MOL0     O26166   9.722  10.542   8.802  0.6077  0.1382  0.1401
  199MOL0     C26167   9.593  10.583   8.818  0.9125 -0.4665 -0.0950
  199MOL0     C26168   9.555  10.695   8.747 -0.8528  0.6265  1.1680
  199MOL0     C26169   9.425  10.754   8.773 -0.2061  0.1463  0.2988
  199MOL0     C26170   9.335  10.692   8.874  0.2536  0.5226  0.1542
  199MOL0     O26171   9.209  10.739   8.903 -0.4151  0.0240 -0.2468
  199MOL0     C26172   9.131  10.825   8.813  0.1989  1.2718  0.3874
  199MOL0     C26173   8.977  10.827   8.853 -0.2638 -0.4458 -0.5062
  199MOL0     C26174   8.915  10.692   8.818 -0.2728 -0.0123 -0.3963
  199MOL0     C26175   8.762  10.691   8.831  0.6251  0.0828  0.2520
  199MOL0     C26176   8.693  10.568   8.757 -1.4068 -0.8550  0.5399
  199MOL0     C26177   8.553  10.540   8.818 -0.5718  0.0714 -0.3769
  199MOL0     C26178   8.486  10.415   8.764 -0.5087 -0.1796  1.4878
  199MOL0     C26179   8.505  10.392   8.618 -0.0698  0.3882 -1.0256
  199MOL0    Cl26180   8.444  10.534   8.532  0.3527 -0.3680  0.0602
  199MOL0     C26181   9.384  10.586   8.952 -0.1099  0.8434  0.0009
  199MOL0     C26182   9.508  10.536   8.926 -0.9911  0.2117 -0.2302
  199MOL0     O26183   9.653  10.322   8.732 -0.1338 -0.4840  1.1282
  199MOL0     C26184   9.963  10.392   8.871 -0.2633 -0.1865 -0.2601
  199MOL0     C26185  10.096  10.337   8.892 -0.6126 -0.4976  0.5259
  199MOL0     N26186  10.294   9.853   9.294 -0.1435  0.0121 -0.7220
  199MOL0     N26187  10.184   9.826   9.356  0.5023  0.1899 -0.6414
  199MOL0     C26188   9.558  10.590  10.173  0.4453 -1.4283 -0.5580
  199MOL0     C26189   9.590  10.660  10.296  0.5510  0.0429  0.3116
  199MOL0     C26190   9.846  10.828  10.607  0.2222 -0.7959  1.9632
  199MOL0     C26191   9.744  10.887  10.682 -0.8256  0.9303 -0.0941
  199MOL0     C26192   9.769  11.002  10.762  0.0091  0.0240 -0.0520
  199MOL0     C26193   9.895  11.056  10.763 -1.3990 -0.0870  0.0794
  199MOL0     O26194   9.951  11.168  10.821  0.2887 -0.6154  0.1400
  199MOL0     C26195   9.876  11.233  10.921  0.8444 -0.5862 -0.6015
  199MOL0     C26196   9.843  11.145  11.046  0.0846  0.3352 -0.6192
  199MOL0     C26197   9.956  11.133  11.148  0.6576  0.5561 -0.0651
  199MOL0     C26198  10.065  11.029  11.106 -0.3905 -0.1987  0.5956
  199MOL0     C26199  10.022  10.892  11.075 -0.9270 -0.1753 -0.8985
  199MOL0     C26200   9.989  10.781  11.053  1.0685  0.9247 -0.2013
  199MOL0     C26201   9.993  11.003  10.683 -0.4219 -0.3527 -0.5855
  199MOL0     C26202   9.974  10.883  10.606  0.4321  0.5308 -0.5017
  199MOL0     H26203   9.740  10.409  10.459 -4.3507 -1.3639  1.6511
  199MOL0     H26204   9.683  10.294  10.265  0.1598  0.2235  1.8187
  199MOL0     H26205   9.470  10.228  10.111  0.3708 -1.1983 -0.0363
  199MOL0     H26206   9.641  10.206  10.067  1.9481  1.6911 -3.0064
  199MOL0     H26207   9.414  10.265   9.868  0.4997 -0.7192 -3.1897
  199MOL0     H26208   9.486  10.108   9.897 -0.9161  0.6490  0.0769
  199MOL0     H26209   9.716  10.201   9.852  2.1381  3.3211  0.9150
  199MOL0     H26210   9.650  10.353   9.804  0.4585 -0.4499  0.2795
  199MOL0     H26211   9.543  10.093   9.663 -2.3898  1.4476 -2.3121
  199MOL0     H26212   9.535  10.265   9.619  3.4639  1.7300  0.2396
  199MOL0     H26213   9.778  10.266   9.580 -1.8570  0.6736  0.4398
  199MOL0     H26214   9.689  10.145   9.477  0.0681 -2.4613 -0.4864
  199MOL0     H26215   9.754   9.963   9.583  1.3280 -0.4635  2.7984
  199MOL0     H26216   9.838  10.042   9.713  0.4695 -1.7295 -0.7018
  199MOL0     H26217   9.923  10.067   9.423  0.5107  1.0408  1.1253
  199MOL0     H26218  10.000  10.141   9.559 -0.7768  1.0357  0.1311
  199MOL0     H26219   9.979   9.826   9.520  2.2167 -0.7648  1.6077
  199MOL0     H26220  10.065   9.911   9.644  1.5827 -0.9519 -0.7983
  199MOL0     H26221  10.265  10.108   9.485  1.9020 -1.5198  2.0120
  199MOL0     H26222  10.536   9.991   9.274 -0.1354  0.4028  2.0426
  199MOL0     H26223  10.483  10.147   9.313 -1.8073 -0.6978  3.1375
  199MOL0     H26224  10.365   9.989   9.073  0.7982 -0.8624 -1.5380
  199MOL0     H26225  10.526  10.055   9.062 -0.1618 -0.7143  0.4257
  199MOL0     H26226  10.255  10.202   9.101 -0.7927  0.6968 -5.0197
  199MOL0     H26227  10.423  10.276   9.115  3.7379 -2.2220 -1.4940
  199MOL0     H26228  10.453  10.158   8.882 -0.9589 -1.7722 -0.2993
  199MOL0     H26229  10.370  10.310   8.892 -1.0978  0.2198  1.6502
  199MOL0     H26230  10.051  10.053   8.719  0.6760  0.0192  0.0756
  199MOL0     H26231   9.828  10.146   8.684  0.6439  0.3034 -2.1232
  199MOL0     H26232   9.622  10.719   8.665  2.3821 -2.3318  2.6857
  199MOL0     H26233   9.373  10.834   8.721 -2.4795 -1.2160  0.2939
  199MOL0     H26234   9.138  10.787   8.711  3.3644  0.0900  0.9278
  199MOL0     H26235   9.170  10.925   8.791  1.0603  0.7788 -0.3662
  199MOL0     H26236   8.921  10.904   8.800 -2.5144 -2.1872 -0.7875
  199MOL0     H26237   8.966  10.848   8.960  0.4907 -1.9581 -0.0992
  199MOL0     H26238   8.958  10.611   8.877  2.3601  1.4494 -0.1689
  199MOL0     H26239   8.937  10.667   8.714  4.0822 -0.4007  0.4315
  199MOL0     H26240   8.735  10.700   8.936  0.6478  0.8346  0.1990
  199MOL0     H26241   8.723  10.781   8.781 -0.0944  1.1287  2.5368
  199MOL0     H26242   8.748  10.474   8.754  0.4489  0.1767 -2.7528
  199MOL0     H26243   8.680  10.598   8.652 -2.0771 -1.0892  0.5510
  199MOL0     H26244   8.485  10.621   8.791 -3.1902 -1.3941  1.3784
  199MOL0     H26245   8.570  10.524   8.925 -0.9133 -0.7789 -0.4374
  199MOL0     H26246   8.529  10.330   8.818  1.4082  1.6470  3.0067
  199MOL0     H26247   8.380  10.425   8.791 -0.1365 -1.9763  4.0533
  199MOL0     H26248   8.457  10.298   8.590 -1.6221  0.7410  0.3074
  199MOL0     H26249   8.613  10.382   8.604 -0.0639 -0.5341 -0.4473
  199MOL0     H26250   9.325  10.559   9.038 -0.6141 -1.2460 -0.9421
  199MOL0     H26251   9.547  10.461   8.994  1.8073  1.5552 -0.2051
  199MOL0     H26252   9.937  10.481   8.927 -1.6846  0.7838 -2.3255
  199MOL0     H26253  10.171  10.393   8.947  1.9689  1.4857 -4.3967
  199MOL0     H26254   9.501  10.645  10.098 -1.7940 -2.2662  0.4617
  199MOL0     H26255   9.564  10.765  10.309  1.7842  0.2957  0.8835
  199MOL0     H26256   9.648  10.838  10.676 -0.4061  0.0464  0.2317
  199MOL0     H26257   9.688  11.037  10.825  0.8432  1.8327  0.0558
  199MOL0     H26258   9.784  11.266  10.872 -0.2817 -3.8816 -0.9664
  199MOL0     H26259   9.925  11.324  10.957 -1.3822 -0.0313  1.3292
  199MOL0     H26260   9.756  11.193  11.092  0.7607  2.0400 -1.0619
  199MOL0     H26261   9.826  11.040  11.021 -1.0395 -0.7647  3.8751
  199MOL0     H26262   9.907  11.110  11.243 -0.3384  3.0582  0.1058
  199MOL0     H26263   9.997  11.234  11.157 -1.7930  1.5711  0.6278
  199MOL0     H26264  10.124  11.061  11.019 -1.8002 -0.5022 -0.5289
  199MOL0     H26265  10.119  11.015  11.199 -0.5939  0.3006  0.7939
  199MOL0     H26266   9.962  10.680  11.031  0.1750  1.3829 -1.3546
  199MOL0     H26267  10.081  11.062  10.661 -0.2104  0.1255  1.3634
  199MOL0     H26268  10.050  10.854  10.534 -0.6533 -0.0385 -1.4566
  200MOL0     O26269   3.156   6.787   7.947  0.0237  0.0514 -0.3264
  200MOL0     C26270   3.080   6.842   7.865  0.2128  0.1575 -0.2959
  200MOL0     O26271   3.126   6.910   7.750  0.0870  0.8010  0.1801
  200MOL0     C26272   3.254   6.916   7.719 -0.2254  0.3780  0.1837
  200MOL0     C26273   3.343   6.806   7.714  1.0549  0.2501 -0.5071
  200MOL0     C26274   3.479   6.824   7.698  0.6103 -0.1014 -0.0386
  200MOL0     C26275   3.530   6.959   7.684 -0.4147  0.5761  0.3390
  200MOL0     O26276   3.670   6.984   7.672  1.2319  0.0678 -0.0430
  200MOL0     C26277   3.722   7.017   7.540 -0.6145 -0.0202  0.2181
  200MOL0     C26278   3.823   6.909   7.496  0.3113  0.3122  0.1918
  200MOL0     C26279   3.976   6.942   7.525  0.0161  0.1539 -0.7769
  200MOL0     C26280   4.078   6.831   7.479 -0.0689  0.2631  0.0157
  200MOL0     C26281   4.112   6.832   7.330  0.1430 -0.3102 -0.1634
  200MOL0     C26282   4.218   6.724   7.319 -0.1096  0.3334 -0.5952
  200MOL0     C26283   4.266   6.713   7.179  0.5612  0.9211 -1.0054
  200MOL0     C26284   4.349   6.587   7.162  0.2435  0.1696 -0.0649
  200MOL0     N26285   4.353   6.544   7.023 -0.3082 -1.0720  0.0618
  200MOL0     C26286   4.437   6.596   6.933  0.1309 -1.1809  0.1113
  200MOL0     C26287   4.418   6.516   6.823  0.4568  0.1629 -1.0973
  200MOL0     C26288   4.512   6.523   6.705 -0.2753  0.3999  0.4681
  200MOL0     C26289   4.619   6.413   6.708  0.3995  1.0349  0.1435
  200MOL0     C26290   4.611   6.324   6.586  0.2258 -0.5857  0.8012
  200MOL0     C26291   4.476   6.254   6.567 -0.3835  0.9551  0.1232
  200MOL0     O26292   4.485   6.120   6.515 -0.4944 -0.0590  0.5122
  200MOL0     C26293   4.375   6.037   6.528  0.7189  0.2536 -0.6879
  200MOL0     C26294   4.283   6.047   6.635  0.4388  0.4527  0.4199
  200MOL0     C26295   4.184   5.956   6.652  0.5606  0.0206  0.6007
  200MOL0     C26296   4.170   5.847   6.562 -0.8493  0.4352  0.4378
  200MOL0     C26297   4.064   5.753   6.563  0.7045  0.8350 -0.2451
  200MOL0     O26298   3.958   5.788   6.628  0.1541  0.2689  0.1950
  200MOL0     C26299   3.848   5.704   6.618 -0.3666 -0.4358  0.2232
  200MOL0     C26300   3.738   5.774   6.574  1.2666  0.1460  0.2502
  200MOL0     C26301   3.618   5.714   6.532  1.0468 -0.0390 -1.0707
  200MOL0     C26302   3.605   5.571   6.544  0.0378 -1.7515 -0.4227
  200MOL0     O26303   3.478   5.529   6.516 -0.5023  0.1771  0.0194
  200MOL0     C26304   3.418   5.435   6.608 -0.2679  0.8240 -0.3019
  200MOL0     C26305   3.260   5.458   6.590  0.4377 -0.0944 -0.1013
  200MOL0     C26306   3.176   5.373   6.690 -0.0233  0.2104  1.3523
  200MOL0     C26307   3.035   5.413   6.711 -0.1484  0.8016  0.4444
  200MOL0     C26308   2.963   5.307   6.792  0.2056  0.5050  0.0915
  200MOL0     C26309   2.812   5.345   6.806 -0.0095 -0.0783  0.2083
  200MOL0     C26310   2.742   5.247   6.893 -0.3936  0.3487 -0.3848
  200MOL0     C26311   2.591   5.254   6.878  0.1206 -0.3492  0.2764
  200MOL0    Cl26312   2.530   5.110   6.772 -0.2667 -0.4429 -0.2484
  200MOL0     C26313   3.714   5.501   6.594 -0.5231  0.3664  0.7232
  200MOL0     C26314   3.838   5.562   6.633 -0.7692 -0.1415 -0.1527
  200MOL0     O26315   4.087   5.650   6.508 -0.2513 -0.6643  0.3693
  200MOL0     C26316   4.276   5.829   6.468 -0.6035  0.3069  1.0782
  200MOL0     C26317   4.362   5.932   6.443 -0.3238  0.4960  0.8045
  200MOL0     N26318   4.317   6.416   6.847  0.3600 -0.1293  0.3034
  200MOL0     N26319   4.276   6.440   6.971  0.3014 -0.0557 -0.5700
  200MOL0     C26320   3.445   7.064   7.674 -0.0902  0.5911 -0.4105
  200MOL0     C26321   3.306   7.043   7.692  0.4884 -0.5056  0.1801
  200MOL0     C26322   2.936   6.858   7.899  0.7074  0.1710  0.5163
  200MOL0     C26323   2.886   6.826   8.031  0.3015  0.3494 -0.1263
  200MOL0     C26324   2.751   6.839   8.055  0.1785 -0.6297  0.2207
  200MOL0     C26325   2.664   6.883   7.953  1.0733 -0.1620  0.7146
  200MOL0     O26326   2.535   6.899   8.003 -0.5402 -0.0629 -0.0303
  200MOL0     C26327   2.433   6.931   7.918 -0.1639  0.5020 -0.1623
  200MOL0     C26328   2.383   6.805   7.828  0.0319 -0.0768  0.1448
  200MOL0     C26329   2.308   6.848   7.705  0.2534  0.6521 -0.1824
  200MOL0     C26330   2.224   6.727   7.653  0.1453  0.6540  0.5649
  200MOL0     C26331   2.307   6.635   7.577  0.6612  0.8017  0.8055
  200MOL0     C26332   2.362   6.533   7.529 -0.5567 -0.5798  0.1045
  200MOL0     C26333   2.700   6.907   7.822  0.6893  0.8077 -0.0467
  200MOL0     C26334   2.841   6.892   7.798  0.0327 -0.5634  0.7140
  200MOL0     H26335   3.282   6.717   7.723  1.4202  0.1015  0.7075
  200MOL0     H26336   3.536   6.731   7.693 -1.1205 -1.2184  0.1237
  200MOL0     H26337   3.765   7.117   7.544  0.2152 -0.3780  0.5079
  200MOL0     H26338   3.640   7.029   7.468  1.8053 -0.3620 -2.7880
  200MOL0     H26339   3.799   6.885   7.393 -1.8272  1.0958  0.4575
  200MOL0     H26340   3.796   6.819   7.552 -2.7599  2.0684  1.8120
  200MOL0     H26341   3.983   6.947   7.634  1.5994  0.8519 -0.8804
  200MOL0     H26342   3.992   7.039   7.478 -1.9779  0.8574 -0.0986
  200MOL0     H26343   4.168   6.847   7.538  0.2644  0.0952 -0.4369
  200MOL0     H26344   4.051   6.732   7.518 -0.7654 -0.0352 -1.1609
  200MOL0     H26345   4.155   6.930   7.305 -0.0345  0.1276  1.1523
  200MOL0     H26346   4.032   6.807   7.259 -0.1122  2.6683 -1.0793
  200MOL0     H26347   4.186   6.627   7.358  0.1520 -0.3133 -1.9697
  200MOL0     H26348   4.307   6.760   7.373 -0.3649  0.7368 -0.4344
  200MOL0     H26349   4.181   6.700   7.111 -0.2651  1.0803 -0.0300
  200MOL0     H26350   4.328   6.801   7.163  2.0098  0.6286  2.2123
  200MOL0     H26351   4.315   6.507   7.228  2.0063 -1.6633 -1.2765
  200MOL0     H26352   4.453   6.603   7.191 -0.1879  0.7153  1.2579
  200MOL0     H26353   4.511   6.672   6.954 -0.9441  0.4388 -1.6441
  200MOL0     H26354   4.558   6.623   6.706  0.3301  0.1303  0.3242
  200MOL0     H26355   4.454   6.525   6.612 -0.2018  0.0632  0.4148
  200MOL0     H26356   4.600   6.353   6.797  2.0609  0.1077 -0.0851
  200MOL0     H26357   4.718   6.459   6.712 -0.0729  2.0720  0.1757
  200MOL0     H26358   4.630   6.384   6.496  2.6015 -1.3611  0.7021
  200MOL0     H26359   4.684   6.243   6.590  2.4260  0.8863 -3.3275
  200MOL0     H26360   4.405   6.312   6.507 -1.8261  0.7869  1.6071
  200MOL0     H26361   4.428   6.230   6.663 -0.7555 -1.2731 -0.5594
  200MOL0     H26362   4.274   6.134   6.699 -0.3941  0.5399  0.1990
  200MOL0     H26363   4.112   5.977   6.730  1.0060 -0.2976  1.1072
  200MOL0     H26364   3.744   5.883   6.576 -2.9438  0.5497  1.3324
  200MOL0     H26365   3.534   5.768   6.490  1.5600 -1.7496 -4.7176
  200MOL0     H26366   3.440   5.447   6.714 -2.0604 -3.6285  0.8105
  200MOL0     H26367   3.451   5.331   6.593  0.8863  1.2290 -0.6618
  200MOL0     H26368   3.222   5.445   6.488  0.8924 -2.1621 -0.0468
  200MOL0     H26369   3.255   5.563   6.619  1.2963 -0.3144  0.9267
  200MOL0     H26370   3.233   5.380   6.783  1.4573 -3.0598  0.7985
  200MOL0     H26371   3.184   5.268   6.661  0.5848  0.8441 -0.9193
  200MOL0     H26372   3.036   5.514   6.752 -2.7988  1.9795 -2.0198
  200MOL0     H26373   2.986   5.414   6.613 -0.1637  0.9594  0.4549
  200MOL0     H26374   3.007   5.296   6.891  1.0241  0.7374 -0.2338
  200MOL0     H26375   2.965   5.207   6.749  1.4244 -0.3707  2.0613
  200MOL0     H26376   2.771   5.356   6.705 -1.2518  0.7075  0.7735
  200MOL0     H26377   2.822   5.445   6.850 -0.6444 -0.1566  0.5522
  200MOL0     H26378   2.776   5.145   6.872  0.5250 -0.0017  2.3792
  200MOL0     H26379   2.765   5.267   6.998  0.3265 -2.0587 -0.0224
  200MOL0     H26380   2.566   5.349   6.830 -0.5719 -1.4566 -1.6946
  200MOL0     H26381   2.526   5.254   6.966 -2.3198 -0.0372 -1.4153
  200MOL0     H26382   3.716   5.394   6.577  2.4367  0.6449 -1.4194
  200MOL0     H26383   3.926   5.504   6.657 -0.7651 -0.8522 -1.7984
  200MOL0     H26384   4.282   5.740   6.406 -1.8340  0.8572  0.1397
  200MOL0     H26385   4.424   5.926   6.354 -0.8588  1.0957  0.3795
  200MOL0     H26386   3.483   7.165   7.659 -1.6201  1.3724  0.6306
  200MOL0     H26387   3.237   7.126   7.675 -0.3466 -1.0654  0.7751
  200MOL0     H26388   2.964   6.796   8.100  3.3441 -0.2624 -3.4714
  200MOL0     H26389   2.709   6.821   8.153 -0.3105  2.5028  0.6930
  200MOL0     H26390   2.452   7.008   7.843 -0.2797  0.2612 -0.4433
  200MOL0     H26391   2.357   6.969   7.986  0.6427  0.6024  0.6943
  200MOL0     H26392   2.457   6.729   7.801 -0.4549 -0.2846 -0.6536
  200MOL0     H26393   2.331   6.726   7.882  1.7812 -1.3557  0.0242
  200MOL0     H26394   2.399   6.876   7.650  1.8202  0.3085  2.0883
  200MOL0     H26395   2.245   6.930   7.740  0.9952  0.1325  2.5991
  200MOL0     H26396   2.171   6.678   7.736  3.0813 -1.1230  1.5437
  200MOL0     H26397   2.152   6.767   7.581 -1.6969 -0.8290  1.4799
  200MOL0     H26398   2.428   6.459   7.488  0.6554  1.2950 -1.5569
  200MOL0     H26399   2.630   6.928   7.741  2.1917 -0.6127 -1.8103
  200MOL0     H26400   2.878   6.890   7.696 -0.5207 -0.5241  0.5094
  201MOL0     O26401   4.026   7.598   6.607  0.1038  0.4782 -0.2495
  201MOL0     C26402   4.076   7.519   6.689  0.0324  0.1588  0.7934
  201MOL0     O26403   4.009   7.449   6.781  0.2489  0.8245 -0.3151
  201MOL0     C26404   3.872   7.468   6.758  0.3391  0.4445 -0.2096
  201MOL0     C26405   3.812   7.381   6.669  0.4080  0.4620 -0.3110
  201MOL0     C26406   3.680   7.399   6.625 -0.0062  0.3968  0.4150
  201MOL0     C26407   3.608   7.510   6.676  0.5572 -0.8280 -0.4929
  201MOL0     O26408   3.477   7.535   6.655 -0.4725  0.6301 -0.0811
  201MOL0     C26409   3.403   7.431   6.588  0.4078  0.5232  0.8430
  201MOL0     C26410   3.262   7.483   6.586 -1.0334 -0.8680 -0.0778
  201MOL0     C26411   3.164   7.418   6.482  0.2748 -0.5580 -0.3890
  201MOL0     C26412   3.162   7.267   6.483  0.1850 -0.2493  0.7792
  201MOL0     C26413   3.055   7.209   6.398 -0.5903  0.2749 -0.8817
  201MOL0     C26414   3.054   7.247   6.250 -0.2811 -0.1000  0.0232
  201MOL0     C26415   3.189   7.218   6.175 -0.6647 -0.2929 -0.8778
  201MOL0     C26416   3.172   7.201   6.016  0.7639  0.3753 -0.2180
  201MOL0     N26417   3.034   7.175   5.959  0.1725  0.1204 -1.5583
  201MOL0     C26418   2.944   7.068   5.979 -0.1215  0.2153 -0.7043
  201MOL0     C26419   2.858   7.082   5.883 -0.3963  0.3644  0.3435
  201MOL0     C26420   2.738   6.989   5.872 -0.2222 -0.2804  0.6553
  201MOL0     C26421   2.770   6.844   5.846 -0.3050  0.6327  0.3159
  201MOL0     C26422   2.807   6.828   5.690 -0.2778  0.0374  0.3307
  201MOL0     C26423   2.689   6.851   5.594  0.3903 -0.2394  0.2796
  201MOL0     O26424   2.722   6.849   5.449 -0.3696  0.2282  0.2624
  201MOL0     C26425   2.626   6.826   5.359 -0.4093  0.3721 -0.0713
  201MOL0     C26426   2.480   6.821   5.389  0.0124  0.8147  0.4592
  201MOL0     C26427   2.392   6.784   5.284 -0.4286  0.2188  0.0621
  201MOL0     C26428   2.443   6.767   5.153 -0.4909 -0.2045  0.4793
  201MOL0     C26429   2.350   6.777   5.038  0.4493  0.7032 -0.3843
  201MOL0     O26430   2.230   6.827   5.066  0.0932  0.3743  0.0433
  201MOL0     C26431   2.144   6.859   4.963 -0.2520  0.4158 -0.7659
  201MOL0     C26432   2.179   6.938   4.850 -1.0198  0.9178  0.2132
  201MOL0     C26433   2.095   6.952   4.742  0.3607  0.6183 -0.0051
  201MOL0     C26434   1.970   6.896   4.743  0.4083  0.0187 -0.6829
  201MOL0     O26435   1.874   6.917   4.650 -0.0517  0.1838 -0.1121
  201MOL0     C26436   1.886   7.047   4.572  0.4872 -0.1379  1.2938
  201MOL0     C26437   1.758   7.055   4.485  0.2917  0.1107 -0.1275
  201MOL0     C26438   1.635   7.092   4.563  0.5241 -0.2347 -0.7532
  201MOL0     C26439   1.650   7.239   4.617  0.5832 -0.7344 -0.1794
  201MOL0     C26440   1.519   7.308   4.636  0.3230  0.0976 -0.2330
  201MOL0     C26441   1.409   7.222   4.696  0.4716 -0.2325  1.0311
  201MOL0     C26442   1.426   7.196   4.841 -0.3602  0.0831 -0.0606
  201MOL0     C26443   1.312   7.107   4.896 -0.1976  1.7771  0.2121
  201MOL0    Cl26444   1.311   6.939   4.822  0.4935 -0.1832 -0.4171
  201MOL0     C26445   1.936   6.816   4.854 -0.1060  0.8847 -0.0590
  201MOL0     C26446   2.023   6.794   4.960  0.3236 -0.3100  0.3939
  201MOL0     O26447   2.383   6.732   4.928 -0.1277  0.2921 -0.6831
  201MOL0     C26448   2.580   6.768   5.119  0.7871 -0.9252  0.3823
  201MOL0     C26449   2.671   6.794   5.223 -0.1722 -1.0779 -0.9963
  201MOL0     N26450   2.889   7.197   5.807 -0.1398 -0.1491  0.2514
  201MOL0     N26451   2.992   7.250   5.859 -0.3432  0.2163  0.6237
  201MOL0     C26452   3.667   7.598   6.766 -0.6744  0.3996  0.2742
  201MOL0     C26453   3.795   7.579   6.797 -0.1408  0.2335 -0.2336
  201MOL0     C26454   4.224   7.502   6.676 -0.3587 -0.4370 -0.5300
  201MOL0     C26455   4.285   7.392   6.743 -0.2360 -0.4032  1.1395
  201MOL0     C26456   4.427   7.378   6.734 -1.1627 -0.3717  0.6135
  201MOL0     C26457   4.504   7.477   6.668 -0.2969 -0.1016  0.3278
  201MOL0     O26458   4.633   7.463   6.658 -0.5133  0.8422 -0.3271
  201MOL0     C26459   4.703   7.441   6.778  0.8092 -0.3190  0.2757
  201MOL0     C26460   4.790   7.569   6.818  0.2552  0.0219 -0.4139
  201MOL0     C26461   4.884   7.596   6.701  0.3210 -0.0884 -0.5148
  201MOL0     C26462   4.993   7.496   6.668  0.1900 -0.2455  0.0764
  201MOL0     C26463   5.088   7.493   6.778  0.3563  1.1124 -0.4138
  201MOL0     C26464   5.177   7.486   6.860  0.7613 -0.2817 -0.4647
  201MOL0     C26465   4.443   7.582   6.593  0.1674  0.1722 -0.7442
  201MOL0     C26466   4.302   7.600   6.610  0.7340  0.1634  0.1267
  201MOL0     H26467   3.871   7.300   6.628 -2.5961 -2.8653  1.2974
  201MOL0     H26468   3.644   7.323   6.557  1.4258 -0.3375  0.4345
  201MOL0     H26469   3.410   7.334   6.639  4.8552  0.7007  0.9707
  201MOL0     H26470   3.436   7.417   6.484 -3.9524 -5.6009 -0.2857
  201MOL0     H26471   3.256   7.591   6.573 -0.5516 -0.8838 -0.4444
  201MOL0     H26472   3.230   7.463   6.689  0.6650 -0.0432  0.6403
  201MOL0     H26473   3.186   7.453   6.380 -1.3093 -0.2944 -0.6583
  201MOL0     H26474   3.065   7.457   6.504  0.9790  1.9676 -1.2751
  201MOL0     H26475   3.262   7.239   6.448  0.5335  1.8868 -0.1246
  201MOL0     H26476   3.151   7.244   6.589  1.8192 -2.1924  0.5902
  201MOL0     H26477   2.958   7.234   6.442  0.2339  1.7269  0.1968
  201MOL0     H26478   3.066   7.100   6.410 -0.5173  0.3706 -0.0350
  201MOL0     H26479   3.033   7.351   6.224 -1.4858  0.4508  2.8406
  201MOL0     H26480   2.969   7.192   6.208 -1.9232  1.0346  1.7268
  201MOL0     H26481   3.251   7.306   6.192 -1.1735  0.2488 -1.7517
  201MOL0     H26482   3.235   7.130   6.221  0.9977  1.4526  0.9892
  201MOL0     H26483   3.225   7.112   5.981 -1.1602 -0.3085 -1.5711
  201MOL0     H26484   3.216   7.287   5.965 -2.2882  1.1631 -1.7553
  201MOL0     H26485   2.940   7.003   6.066 -2.5320 -0.6961 -1.4256
  201MOL0     H26486   2.661   7.028   5.805 -0.9640  2.9756  3.1009
  201MOL0     H26487   2.677   6.997   5.963 -4.4355 -0.9899 -1.8556
  201MOL0     H26488   2.682   6.783   5.866 -0.6319  1.3815  1.2229
  201MOL0     H26489   2.847   6.798   5.910 -1.7283  1.6496  2.9178
  201MOL0     H26490   2.886   6.901   5.671  1.7556 -1.5724  2.0954
  201MOL0     H26491   2.851   6.729   5.672  0.1890  0.4027 -0.6272
  201MOL0     H26492   2.644   6.949   5.609  2.7560  1.1708 -1.1137
  201MOL0     H26493   2.609   6.777   5.608  0.9248 -1.1605 -1.2729
  201MOL0     H26494   2.430   6.843   5.483 -2.3285  1.8396 -0.9293
  201MOL0     H26495   2.285   6.782   5.302 -0.0924 -1.8601  2.3247
  201MOL0     H26496   2.277   6.983   4.846 -2.2669  3.9056  0.6774
  201MOL0     H26497   2.128   7.013   4.658 -1.1358  2.3325  0.5931
  201MOL0     H26498   1.971   7.039   4.504 -1.3519  1.1081 -1.2791
  201MOL0     H26499   1.889   7.136   4.635 -1.7439 -0.3350  1.7512
  201MOL0     H26500   1.725   6.957   4.448 -2.2482  1.3708 -1.4422
  201MOL0     H26501   1.756   7.120   4.397  0.2344 -1.6981 -1.5180
  201MOL0     H26502   1.613   7.023   4.645 -1.1379  2.7129  1.4573
  201MOL0     H26503   1.545   7.086   4.502  0.3967  2.7771 -1.0102
  201MOL0     H26504   1.709   7.249   4.708  1.7015 -0.4501 -0.9222
  201MOL0     H26505   1.698   7.307   4.546 -1.0623  0.8521  0.1557
  201MOL0     H26506   1.493   7.341   4.535  2.0581 -1.0436 -1.1020
  201MOL0     H26507   1.541   7.404   4.684  2.0795 -1.2260  1.7690
  201MOL0     H26508   1.386   7.132   4.638 -0.4890  0.7307 -0.1516
  201MOL0     H26509   1.322   7.288   4.688  1.1246  0.6941  1.2675
  201MOL0     H26510   1.525   7.150   4.851 -1.2620 -2.3622 -1.4566
  201MOL0     H26511   1.425   7.292   4.893 -0.1390  1.0625 -1.7774
  201MOL0     H26512   1.215   7.149   4.868  0.1477  0.7384 -3.0197
  201MOL0     H26513   1.323   7.104   5.005 -3.7149  2.1633  0.7144
  201MOL0     H26514   1.841   6.763   4.848  1.4750 -2.0996 -1.2787
  201MOL0     H26515   2.000   6.738   5.050 -0.6880 -1.2388 -0.4094
  201MOL0     H26516   2.608   6.735   5.019 -2.5419 -2.6674 -0.1067
  201MOL0     H26517   2.776   6.789   5.199 -0.0791 -0.8934 -0.6421
  201MOL0     H26518   3.620   7.672   6.830  1.8199  2.4564 -0.0927
  201MOL0     H26519   3.834   7.645   6.874 -1.8072 -0.7218  1.5299
  201MOL0     H26520   4.232   7.312   6.792 -2.2028 -0.8234 -1.4747
  201MOL0     H26521   4.477   7.286   6.762  1.2813  0.1879 -1.5000
  201MOL0     H26522   4.771   7.355   6.779 -0.8841 -1.7903 -1.7001
  201MOL0     H26523   4.629   7.423   6.857 -0.4185  3.0096  0.0657
  201MOL0     H26524   4.720   7.651   6.835 -2.0362 -1.4243 -2.1740
  201MOL0     H26525   4.851   7.538   6.904  0.5995 -3.4139 -1.7409
  201MOL0     H26526   4.930   7.695   6.712  1.4850 -0.2403 -3.1273
  201MOL0     H26527   4.820   7.607   6.613 -0.5158  1.9519  0.2849
  201MOL0     H26528   4.948   7.400   6.644 -0.8255 -0.0984  1.3181
  201MOL0     H26529   5.047   7.533   6.580  0.4850 -0.4357  0.1767
  201MOL0     H26530   5.247   7.492   6.941  2.3227 -1.2361 -1.6866
  201MOL0     H26531   4.503   7.655   6.540  3.0664 -0.4902  1.3754
  201MOL0     H26532   4.258   7.683   6.557  0.2652  2.2814  3.5082
  202MOL0     O26533   0.302  10.078   2.708 -0.9541 -0.9484  0.1751
  202MOL0     C26534   0.428  10.091   2.727 -0.0384  0.6004 -0.0483
  202MOL0     O26535   0.481  10.140   2.849 -0.1527  0.6822  0.4332
  202MOL0     C26536   0.417  10.136   2.970 -1.1670 -0.5941  0.4745
  202MOL0     C26537   0.299  10.068   3.005 -0.8210 -0.6740  0.3848
  202MOL0     C26538   0.239  10.093   3.130  0.4732 -0.3451 -0.1641
  202MOL0     C26539   0.295  10.182   3.222 -0.5661 -0.9853  0.1539
  202MOL0     O26540   0.230  10.204   3.341 -0.2355 -0.2643 -0.2341
  202MOL0     C26541   0.266  10.132   3.464  0.4022  0.5011  0.9996
  202MOL0     C26542   0.157  10.132   3.572 -0.3611 -1.0072 -0.1767
  202MOL0     C26543   0.108  10.277   3.577 -0.7112 -0.6796  1.0265
  202MOL0     C26544   0.003  10.303   3.683  0.4621  0.9789 -0.2304
  202MOL0     C26545  -0.072  10.439   3.685 -0.1488 -0.3315  0.0541
  202MOL0     C26546  -0.091  10.488   3.830  0.3236 -0.4870  0.1591
  202MOL0     C26547  -0.231  10.553   3.829 -0.6840  0.3894 -0.1690
  202MOL0     C26548  -0.237  10.697   3.779 -0.5726  0.1796 -0.9471
  202MOL0     N26549  -0.366  10.751   3.756 -0.2518  0.7626 -0.3759
  202MOL0     C26550  -0.425  10.727   3.639 -0.2547  0.4611  0.6489
  202MOL0     C26551  -0.543  10.786   3.656 -0.5837  0.6397  0.4543
  202MOL0     C26552  -0.663  10.785   3.561  0.1205  0.1312  0.2079
  202MOL0     C26553  -0.637  10.787   3.408 -0.8606  0.5202  0.4767
  202MOL0     C26554  -0.763  10.827   3.328  0.8995 -0.7189  0.4489
  202MOL0     C26555  -0.883  10.753   3.364  0.1594 -0.8628  0.2916
  202MOL0     O26556  -0.996  10.785   3.289  0.8388 -0.0782 -0.7068
  202MOL0     C26557  -1.112  10.712   3.299  0.3577  0.1514 -0.4403
  202MOL0     C26558  -1.224  10.755   3.231  0.7265  0.0895  0.2096
  202MOL0     C26559  -1.345  10.690   3.245 -0.2026  0.1404 -0.8174
  202MOL0     C26560  -1.356  10.578   3.336  0.3025 -0.6748  0.4388
  202MOL0     C26561  -1.479  10.503   3.348 -0.1154 -0.5821 -0.5644
  202MOL0     O26562  -1.575  10.518   3.262 -0.4889 -0.9011  0.2571
  202MOL0     C26563  -1.697  10.462   3.292 -0.4478 -0.5902 -0.6201
  202MOL0     C26564  -1.780  10.507   3.398 -0.8236  0.4503 -0.1436
  202MOL0     C26565  -1.912  10.450   3.412 -0.7397 -0.3223  0.5838
  202MOL0     C26566  -1.966  10.371   3.308 -0.5539 -0.4011  0.5384
  202MOL0     O26567  -2.091  10.325   3.307  0.0135  0.5514 -0.1405
  202MOL0     C26568  -2.186  10.340   3.406 -0.3199 -1.0190 -0.1981
  202MOL0     C26569  -2.306  10.259   3.381 -0.6364  1.0682  0.4400
  202MOL0     C26570  -2.433  10.309   3.441  0.3608 -0.4047 -0.6498
  202MOL0     C26571  -2.554  10.255   3.360 -0.2515  0.1500 -0.0969
  202MOL0     C26572  -2.689  10.270   3.431 -0.3632  0.2158 -0.0678
  202MOL0     C26573  -2.732  10.418   3.448  0.2797  0.1805  0.6790
  202MOL0     C26574  -2.881  10.426   3.501 -0.4526 -0.3794  0.1315
  202MOL0     C26575  -2.905  10.396   3.647 -0.2912  0.1249 -0.5646
  202MOL0    Cl26576  -3.082  10.365   3.679  0.0936 -0.4217 -0.3043
  202MOL0     C26577  -1.888  10.345   3.195  0.3467  0.2468 -0.1927
  202MOL0     C26578  -1.753  10.373   3.198 -0.5643  1.1701  0.0102
  202MOL0     O26579  -1.484  10.432   3.449  0.5932  0.2923 -0.0555
  202MOL0     C26580  -1.240  10.529   3.389 -0.5818 -0.3415  0.3788
  202MOL0     C26581  -1.119  10.592   3.372 -0.0037 -0.4187 -0.3011
  202MOL0     N26582  -0.559  10.821   3.788  0.0093  0.3236 -0.0798
  202MOL0     N26583  -0.455  10.796   3.848 -0.7015 -0.2046 -0.3261
  202MOL0     C26584   0.415  10.255   3.188  0.3592  0.2889  0.7635
  202MOL0     C26585   0.475  10.222   3.069  0.4722  0.4285  0.2693
  202MOL0     C26586   0.516  10.067   2.613 -0.1079 -0.2500 -0.7830
  202MOL0     C26587   0.652  10.121   2.624  0.0844  0.5633  0.0238
  202MOL0     C26588   0.748  10.078   2.529 -0.5514 -0.6974 -0.1595
  202MOL0     C26589   0.712   9.994   2.423  0.3881 -0.2193  0.2491
  202MOL0     O26590   0.790   9.967   2.318 -0.4351 -0.0047 -0.4271
  202MOL0     C26591   0.928   9.973   2.324  0.1064 -0.0859  0.7988
  202MOL0     C26592   0.976   9.858   2.404  0.8319 -0.3878  0.4606
  202MOL0     C26593   1.134   9.863   2.414  0.1848  0.3104  0.0734
  202MOL0     C26594   1.208   9.859   2.276 -0.3554 -0.0354 -0.0664
  202MOL0     C26595   1.347   9.872   2.303  0.2122  0.5256 -0.0954
  202MOL0     C26596   1.463   9.903   2.317  0.1797 -0.6082  0.7155
  202MOL0     C26597   0.572   9.948   2.409 -1.0861 -1.2413 -0.2527
  202MOL0     C26598   0.474   9.985   2.507  0.4525  0.8988 -0.7070
  202MOL0     H26599   0.238  10.019   2.931 -2.1436 -2.0861  2.3160
  202MOL0     H26600   0.153  10.035   3.162  0.0487  0.1046 -0.4750
  202MOL0     H26601   0.365  10.160   3.502  0.3794 -0.4865  1.8269
  202MOL0     H26602   0.291  10.033   3.426 -0.3532  0.8223 -0.3833
  202MOL0     H26603   0.195  10.102   3.670  1.0101  1.7234  0.2231
  202MOL0     H26604   0.070  10.066   3.560 -2.5929  1.0383  3.0229
  202MOL0     H26605   0.066  10.300   3.478  1.3316 -0.4640  0.1693
  202MOL0     H26606   0.181  10.356   3.596 -1.2984  0.2635 -0.3859
  202MOL0     H26607  -0.076  10.226   3.687 -0.1182  1.5927  0.5522
  202MOL0     H26608   0.064  10.298   3.774  1.0941  3.2808 -0.4586
  202MOL0     H26609  -0.170  10.434   3.637  0.0288 -0.3964 -0.3076
  202MOL0     H26610  -0.006  10.511   3.637 -0.5218  1.7326  2.4249
  202MOL0     H26611  -0.005  10.550   3.858  1.6954 -2.2603  0.0610
  202MOL0     H26612  -0.108  10.400   3.893 -1.6458 -0.1352  0.1734
  202MOL0     H26613  -0.303  10.489   3.776 -0.7541  1.5523 -1.5180
  202MOL0     H26614  -0.267  10.554   3.933 -2.7299  0.3032 -0.8195
  202MOL0     H26615  -0.181  10.704   3.685  0.9764  2.9046  0.0474
  202MOL0     H26616  -0.202  10.765   3.858 -0.3833  0.2128 -1.0591
  202MOL0     H26617  -0.384  10.693   3.544  1.7913  0.2976  1.5321
  202MOL0     H26618  -0.731  10.866   3.589 -0.8590  0.7501 -3.5100
  202MOL0     H26619  -0.714  10.689   3.575 -0.5443  0.6135  1.1922
  202MOL0     H26620  -0.601  10.687   3.380 -2.6182 -0.3012  0.9651
  202MOL0     H26621  -0.550  10.850   3.388  1.1652 -2.1776  0.1467
  202MOL0     H26622  -0.774  10.936   3.329 -0.4253 -0.8068  3.3401
  202MOL0     H26623  -0.735  10.797   3.226 -2.6847  1.1031 -1.2775
  202MOL0     H26624  -0.902  10.768   3.471  0.6673 -1.1225  0.4183
  202MOL0     H26625  -0.871  10.647   3.339 -0.7922 -0.7688 -0.6611
  202MOL0     H26626  -1.213  10.840   3.163  0.3032  0.5009  0.6528
  202MOL0     H26627  -1.424  10.725   3.179 -0.2171  1.9005  0.0867
  202MOL0     H26628  -1.756  10.586   3.469 -0.4370  0.5764 -0.4164
  202MOL0     H26629  -1.962  10.488   3.501 -0.2146 -1.9697  1.6301
  202MOL0     H26630  -2.211  10.445   3.419 -2.1859 -0.7134 -4.5076
  202MOL0     H26631  -2.154  10.303   3.504 -1.0208  1.1697  0.9119
  202MOL0     H26632  -2.292  10.158   3.421 -0.9544  0.3820 -1.1071
  202MOL0     H26633  -2.317  10.252   3.272 -0.4156 -0.9288  0.5077
  202MOL0     H26634  -2.449  10.413   3.471  0.8093 -0.2684 -0.8842
  202MOL0     H26635  -2.432  10.246   3.531  1.8307  0.1632 -0.2469
  202MOL0     H26636  -2.564  10.307   3.264  0.6406  2.7899  1.1507
  202MOL0     H26637  -2.534  10.148   3.353 -3.3952 -0.6681  1.5397
  202MOL0     H26638  -2.694  10.229   3.532 -0.4468  2.5711  0.9485
  202MOL0     H26639  -2.762  10.226   3.364 -0.0853  4.7893 -3.9425
  202MOL0     H26640  -2.731  10.455   3.345  0.8480 -3.5234 -0.7701
  202MOL0     H26641  -2.661  10.480   3.505 -0.1748  1.0683  0.3009
  202MOL0     H26642  -2.919  10.527   3.487  4.4057  1.7451  0.1020
  202MOL0     H26643  -2.943  10.358   3.441  1.1881 -0.1098 -2.0090
  202MOL0     H26644  -2.878  10.477   3.715 -2.4459  1.0032 -0.6839
  202MOL0     H26645  -2.858  10.302   3.678 -1.0252 -0.2287 -0.5114
  202MOL0     H26646  -1.933  10.297   3.109  0.2825 -1.1531  0.5929
  202MOL0     H26647  -1.704  10.334   3.110  1.7449  1.1740  1.2176
  202MOL0     H26648  -1.245  10.443   3.455  0.1889  2.2459  4.2121
  202MOL0     H26649  -1.030  10.550   3.418 -0.6871  0.6076  2.1354
  202MOL0     H26650   0.460  10.326   3.256  1.4380  1.0645 -0.7192
  202MOL0     H26651   0.574  10.254   3.038  1.5661 -1.9483  1.1034
  202MOL0     H26652   0.687  10.183   2.705  1.9549 -0.2507 -0.1117
  202MOL0     H26653   0.855  10.096   2.528 -0.3475 -1.6628 -2.6056
  202MOL0     H26654   0.961  10.076   2.341 -2.7748  0.9606  0.5301
  202MOL0     H26655   0.959   9.959   2.220 -0.6129  0.7155  0.4666
  202MOL0     H26656   0.933   9.840   2.503 -2.3666 -1.8700 -1.0393
  202MOL0     H26657   0.942   9.765   2.357 -0.8061 -0.9978  2.6941
  202MOL0     H26658   1.157   9.777   2.478 -0.4988  0.8330  1.0457
  202MOL0     H26659   1.175   9.945   2.473  2.4062  0.2619 -1.2834
  202MOL0     H26660   1.182   9.766   2.223 -2.0531  1.2260 -1.6071
  202MOL0     H26661   1.184   9.941   2.207 -0.1821 -1.3951 -1.8386
  202MOL0     H26662   1.563   9.937   2.332 -0.1607  2.3519 -2.3931
  202MOL0     H26663   0.541   9.903   2.315  0.0358  0.0924 -1.3129
  202MOL0     H26664   0.374   9.945   2.495  1.6501 -1.9067 -2.3385
  203MOL0     O26665   2.945   9.994   7.872 -0.6282  0.0487 -0.1472
  203MOL0     C26666   2.984  10.009   7.993  0.1729  0.8114  0.2884
  203MOL0     O26667   2.910   9.991   8.106  0.3453 -0.8287 -0.4195
  203MOL0     C26668   2.776   9.953   8.089 -0.2780 -0.3145 -0.2295
  203MOL0     C26669   2.740   9.818   8.091 -0.4395 -0.5830  0.7497
  203MOL0     C26670   2.616   9.770   8.065 -0.0112 -0.2240  0.7750
  203MOL0     C26671   2.510   9.863   8.043  0.3473  0.0557 -0.8982
  203MOL0     O26672   2.387   9.826   8.012  0.1501  0.8352 -0.2516
  203MOL0     C26673   2.360   9.710   7.941 -0.8750  0.5496 -0.7965
  203MOL0     C26674   2.223   9.697   7.904  0.3555  0.4924 -0.0698
  203MOL0     C26675   2.188   9.574   7.811  0.8653 -0.6906  0.6562
  203MOL0     C26676   2.034   9.531   7.811 -0.7200 -0.5668  0.0731
  203MOL0     C26677   1.940   9.629   7.740  0.6730 -0.9635  0.3983
  203MOL0     C26678   1.796   9.579   7.735 -0.0319 -0.6350 -0.1837
  203MOL0     C26679   1.710   9.664   7.638  0.0804 -0.5309 -0.7115
  203MOL0     C26680   1.569   9.602   7.620 -0.5188 -0.1057  0.2998
  203MOL0     N26681   1.492   9.678   7.521  0.1659  0.3086 -0.1600
  203MOL0     C26682   1.433   9.798   7.536  0.1751 -0.0812  0.3278
  203MOL0     C26683   1.379   9.833   7.415 -0.2861  0.0465 -0.3194
  203MOL0     C26684   1.316   9.970   7.379 -0.1773  0.3622  0.7549
  203MOL0     C26685   1.157   9.983   7.382  0.2662 -1.1588  0.5455
  203MOL0     C26686   1.107  10.125   7.389 -0.4284 -0.3418 -0.4569
  203MOL0     C26687   1.073  10.158   7.536  0.3496  0.4401  1.3497
  203MOL0     O26688   0.936  10.120   7.580 -0.1737 -0.3964  0.5175
  203MOL0     C26689   0.820  10.170   7.520  0.2534 -0.0984  0.6042
  203MOL0     C26690   0.699  10.115   7.565  1.7096 -0.0477 -0.1057
  203MOL0     C26691   0.587  10.167   7.517 -0.5529  0.7607  0.7112
  203MOL0     C26692   0.585  10.289   7.461  0.4892 -0.0589  0.7317
  203MOL0     C26693   0.454  10.361   7.442 -0.2104  0.4987  0.5340
  203MOL0     O26694   0.469  10.496   7.415  0.1204  0.2731  0.7311
  203MOL0     C26695   0.371  10.572   7.348 -0.7528 -0.4104 -0.4626
  203MOL0     C26696   0.236  10.540   7.343  0.5902 -0.0780 -0.2681
  203MOL0     C26697   0.147  10.621   7.273  1.0131 -0.1440 -0.4250
  203MOL0     C26698   0.184  10.741   7.218 -0.3313 -0.2399 -0.4031
  203MOL0     O26699   0.097  10.822   7.150  0.9564 -0.4253  0.3709
  203MOL0     C26700  -0.051  10.807   7.182 -0.7721 -0.0072 -0.4076
  203MOL0     C26701  -0.128  10.906   7.097 -0.7078  0.3565  0.5651
  203MOL0     C26702  -0.276  10.889   7.119  0.1878 -0.6416  0.4112
  203MOL0     C26703  -0.338  10.990   7.025 -0.5136  0.0095  0.3402
  203MOL0     C26704  -0.486  10.975   7.021 -0.3460 -0.0239 -0.4147
  203MOL0     C26705  -0.555  10.868   6.938  0.0572 -0.6022 -0.4551
  203MOL0     C26706  -0.702  10.886   6.932  0.1016  0.6232  0.2156
  203MOL0     C26707  -0.776  10.767   6.882  0.1037  0.5908  0.6504
  203MOL0    Cl26708  -0.950  10.792   6.863 -0.0016  0.2847  0.4448
  203MOL0     C26709   0.323  10.784   7.231 -0.1502  0.7107  0.1994
  203MOL0     C26710   0.415  10.692   7.285  0.0696  0.7789 -0.3430
  203MOL0     O26711   0.353  10.293   7.427  0.3849 -1.4647  1.4845
  203MOL0     C26712   0.705  10.346   7.412  0.2499 -0.8630  0.2699
  203MOL0     C26713   0.824  10.280   7.434  0.9939 -0.1714  0.8136
  203MOL0     N26714   1.408   9.728   7.333 -0.3686 -0.6229  1.0426
  203MOL0     N26715   1.459   9.635   7.394  0.1388  0.9034 -0.3517
  203MOL0     C26716   2.537  10.000   8.046 -0.2905 -0.9062  0.0501
  203MOL0     C26717   2.670  10.043   8.078  0.1453 -0.3599 -0.4565
  203MOL0     C26718   3.118  10.064   8.024 -0.0287 -0.9680  0.4168
  203MOL0     C26719   3.165  10.099   8.153 -0.1762  0.1444  0.5158
  203MOL0     C26720   3.284  10.168   8.175 -0.2076  0.9118  0.7713
  203MOL0     C26721   3.363  10.192   8.066  0.0336  1.3942 -0.1481
  203MOL0     O26722   3.479  10.261   8.085 -0.4394  0.2866 -0.1342
  203MOL0     C26723   3.549  10.327   7.969 -1.3280  0.6327  0.3242
  203MOL0     C26724   3.640  10.451   8.006  0.0571  1.2081 -0.1152
  203MOL0     C26725   3.779  10.413   8.063 -0.6168 -0.9705  0.4038
  203MOL0     C26726   3.767  10.353   8.205  0.2729  0.0012 -0.3641
  203MOL0     C26727   3.904  10.355   8.263  0.9084  0.1694 -0.3881
  203MOL0     C26728   4.007  10.364   8.320  0.2815 -0.4020  0.2573
  203MOL0     C26729   3.322  10.161   7.939 -0.1531 -0.2827  0.5185
  203MOL0     C26730   3.200  10.094   7.916 -0.0603 -0.6397  0.5598
  203MOL0     H26731   2.818   9.746   8.112 -1.3973 -2.2843 -1.2080
  203MOL0     H26732   2.590   9.665   8.074  0.0432 -0.4932 -1.5403
  203MOL0     H26733   2.390   9.622   7.997 -0.5664  2.4619  2.2693
  203MOL0     H26734   2.402   9.718   7.840 -3.3624  1.0398 -1.8851
  203MOL0     H26735   2.190   9.789   7.856  1.6199  0.1959 -1.6445
  203MOL0     H26736   2.168   9.678   7.996 -2.9380 -0.3167 -2.0340
  203MOL0     H26737   2.246   9.489   7.849  0.7643 -1.2088 -0.3212
  203MOL0     H26738   2.221   9.603   7.711  0.8946 -2.4026  0.1425
  203MOL0     H26739   2.030   9.443   7.746  3.0352 -0.6401 -0.3156
  203MOL0     H26740   1.996   9.506   7.910 -2.1265  0.7788 -0.0943
  203MOL0     H26741   1.966   9.649   7.636 -0.7332 -1.2196 -0.0325
  203MOL0     H26742   1.934   9.721   7.799 -2.4051 -0.0367 -1.1109
  203MOL0     H26743   1.760   9.583   7.838  2.8426  1.5379  0.8591
  203MOL0     H26744   1.801   9.476   7.697  3.9515 -0.5375 -0.2545
  203MOL0     H26745   1.693   9.766   7.674 -1.2207 -1.6258  2.0902
  203MOL0     H26746   1.760   9.672   7.541  0.3145 -1.9820 -0.7323
  203MOL0     H26747   1.519   9.610   7.717 -2.1188  0.4382 -0.5390
  203MOL0     H26748   1.590   9.500   7.589  0.4195 -1.1530  3.9281
  203MOL0     H26749   1.439   9.853   7.629  3.8508  0.5140 -0.1001
  203MOL0     H26750   1.341   9.984   7.274 -0.5889  3.8510  0.9992
  203MOL0     H26751   1.368  10.049   7.435 -0.2739  0.0934  1.2368
  203MOL0     H26752   1.126   9.919   7.465  3.2026 -2.8315  0.4790
  203MOL0     H26753   1.125   9.946   7.284  1.4475  1.2232 -0.8334
  203MOL0     H26754   1.182  10.191   7.345  0.3536 -0.7675  0.1942
  203MOL0     H26755   1.016  10.146   7.333  0.8770  2.6463 -1.6128
  203MOL0     H26756   1.080  10.268   7.538  2.2836  0.3447  2.2194
  203MOL0     H26757   1.141  10.111   7.606 -0.4579 -0.5654  1.4751
  203MOL0     H26758   0.690  10.026   7.627  3.3208  0.0284  0.2603
  203MOL0     H26759   0.494  10.116   7.538  0.2048 -0.2170  1.8304
  203MOL0     H26760   0.192  10.448   7.379 -0.1169 -0.8469 -2.9174
  203MOL0     H26761   0.055  10.564   7.260  2.1242 -2.4564  1.0830
  203MOL0     H26762  -0.062  10.814   7.291 -0.3207 -3.0965 -0.0601
  203MOL0     H26763  -0.090  10.708   7.154 -1.3434  0.3880 -1.0289
  203MOL0     H26764  -0.100  10.884   6.993  2.6080  0.9398  1.2304
  203MOL0     H26765  -0.094  11.003   7.133  2.4571 -0.2553 -0.4728
  203MOL0     H26766  -0.312  10.913   7.219 -0.3865  1.8580 -0.3265
  203MOL0     H26767  -0.302  10.784   7.102 -3.0688  0.3503 -1.6906
  203MOL0     H26768  -0.325  11.094   7.057 -3.4422  0.5227  0.1541
  203MOL0     H26769  -0.292  10.981   6.926 -0.9343  1.0469  0.0285
  203MOL0     H26770  -0.526  11.072   6.991 -1.9929 -0.3542  0.6036
  203MOL0     H26771  -0.517  10.969   7.126 -0.6162  2.7524 -0.2796
  203MOL0     H26772  -0.544  10.775   6.994 -1.7221 -1.2370 -1.0856
  203MOL0     H26773  -0.506  10.869   6.840  0.4311  1.2794 -0.2965
  203MOL0     H26774  -0.732  10.907   7.035  0.1102  3.7764 -0.3141
  203MOL0     H26775  -0.730  10.962   6.858 -3.5709 -2.0576 -1.4448
  203MOL0     H26776  -0.757  10.677   6.942 -1.3432 -1.4573 -1.7154
  203MOL0     H26777  -0.724  10.736   6.790  3.2737 -0.9117  2.7437
  203MOL0     H26778   0.367  10.876   7.192 -1.1470  0.8585 -0.6234
  203MOL0     H26779   0.518  10.723   7.287  0.5635 -0.7944  1.6745
  203MOL0     H26780   0.699  10.436   7.353  2.9227 -1.2542 -0.7522
  203MOL0     H26781   0.916  10.319   7.391 -0.3810  0.9891 -1.2054
  203MOL0     H26782   2.450  10.066   8.041 -0.0908 -0.6429  0.0411
  203MOL0     H26783   2.700  10.147   8.091  4.8606 -1.8104  2.8600
  203MOL0     H26784   3.114  10.076   8.246  1.7826 -1.3737  1.2944
  203MOL0     H26785   3.298  10.171   8.283  0.2724 -0.0999  0.7481
  203MOL0     H26786   3.477  10.381   7.908 -0.2381  3.2436  1.1908
  203MOL0     H26787   3.608  10.257   7.909 -1.1073  0.1805  1.0529
  203MOL0     H26788   3.652  10.515   7.918  0.4028  1.5567  0.1791
  203MOL0     H26789   3.578  10.503   8.079 -3.1415  0.4828 -2.1118
  203MOL0     H26790   3.826  10.512   8.067 -0.6787 -0.9093 -0.2600
  203MOL0     H26791   3.836  10.359   7.986 -2.3654  0.3444 -1.9537
  203MOL0     H26792   3.684  10.403   8.258 -1.7739 -2.0942 -1.3928
  203MOL0     H26793   3.725  10.252   8.215  0.1913  0.0142 -0.5702
  203MOL0     H26794   4.096  10.396   8.369  1.2298 -1.2378 -0.8768
  203MOL0     H26795   3.383  10.169   7.850  0.0897 -0.4656  0.6670
  203MOL0     H26796   3.161  10.068   7.818 -0.5989  2.4349 -0.1573
  204MOL0     O26797   6.127  10.091   1.978 -0.1337 -0.4254  0.1900
  204MOL0     C26798   6.183  10.046   2.080  1.0848  0.1677  0.2445
  204MOL0     O26799   6.121  10.035   2.201  0.9327 -0.1508  0.7182
  204MOL0     C26800   5.984  10.050   2.203  0.9382  0.7007  0.3817
  204MOL0     C26801   5.932  10.112   2.319  0.0108  0.8656  0.1797
  204MOL0     C26802   5.795  10.120   2.336  0.3006  0.0635  0.3788
  204MOL0     C26803   5.701  10.075   2.238 -0.2418  0.3837 -1.3127
  204MOL0     O26804   5.570  10.109   2.266 -0.2385 -0.8248  0.1322
  204MOL0     C26805   5.464  10.070   2.186 -1.2092 -0.6791  0.1888
  204MOL0     C26806   5.334  10.125   2.231  0.1895 -0.0675 -0.1332
  204MOL0     C26807   5.210  10.080   2.147 -0.8577 -0.0053  0.3453
  204MOL0     C26808   5.079  10.141   2.206  0.5281  0.1760  0.3466
  204MOL0     C26809   4.957  10.047   2.177 -0.3217 -0.3761  0.2740
  204MOL0     C26810   4.830  10.122   2.211  0.5575  0.0052 -0.1313
  204MOL0     C26811   4.708  10.032   2.190  0.0759  0.7824 -0.0312
  204MOL0     C26812   4.650   9.982   2.318  0.2405 -0.4367  0.9713
  204MOL0     N26813   4.509   9.934   2.297 -0.6728 -0.2484  0.2575
  204MOL0     C26814   4.390  10.010   2.269  0.2654 -0.1200 -0.7279
  204MOL0     C26815   4.292   9.920   2.256  0.0540 -0.0009 -0.3958
  204MOL0     C26816   4.146   9.928   2.223 -0.2622 -0.0318 -0.1537
  204MOL0     C26817   4.115   9.927   2.070  0.6553 -0.2001 -0.2969
  204MOL0     C26818   4.163   9.798   2.004 -0.1595 -1.2296  0.0223
  204MOL0     C26819   4.143   9.794   1.854  0.2087  0.0584  0.7058
  204MOL0     O26820   4.224   9.891   1.787  0.4995  0.3918 -0.0724
  204MOL0     C26821   4.363   9.891   1.796  0.4777  0.6906 -0.1352
  204MOL0     C26822   4.453   9.780   1.811  1.1203  0.1409  0.3203
  204MOL0     C26823   4.592   9.801   1.827 -0.6429  0.4572 -0.1951
  204MOL0     C26824   4.652   9.928   1.818 -0.0823  0.0429 -0.1960
  204MOL0     C26825   4.798   9.948   1.831  0.1234 -1.0010  0.3424
  204MOL0     O26826   4.874   9.829   1.838 -0.5594  0.6064  0.1879
  204MOL0     C26827   5.006   9.830   1.810 -0.7498  0.1774 -0.1648
  204MOL0     C26828   5.067   9.709   1.861 -0.1572  0.4149 -1.0763
  204MOL0     C26829   5.205   9.707   1.857 -0.0977  0.8251  0.3847
  204MOL0     C26830   5.279   9.814   1.802  0.3441 -0.1601  0.3224
  204MOL0     O26831   5.407   9.785   1.798  0.0716 -0.2872  0.5746
  204MOL0     C26832   5.491   9.908   1.779  0.3161 -0.5130 -0.0693
  204MOL0     C26833   5.538   9.903   1.627 -0.6621 -0.1248 -0.7976
  204MOL0     C26834   5.666   9.994   1.616  0.0708 -0.0647  0.3310
  204MOL0     C26835   5.798   9.950   1.689  0.0279 -0.8107  0.5916
  204MOL0     C26836   5.841   9.808   1.679 -0.5704  1.0253  0.2867
  204MOL0     C26837   5.979   9.778   1.718 -0.1660  1.1072 -0.1886
  204MOL0     C26838   6.083   9.831   1.619  0.4379 -0.0720 -0.9490
  204MOL0     C26839   6.169   9.721   1.562 -0.0336  0.3352  0.4632
  204MOL0    Cl26840   6.069   9.603   1.461 -0.4213  0.2799 -0.1117
  204MOL0     C26841   5.213   9.922   1.739  0.3734  0.0168  0.5305
  204MOL0     C26842   5.074   9.931   1.750  0.0443  0.5541  0.0089
  204MOL0     O26843   4.845  10.059   1.850 -0.4799 -0.3128  0.2187
  204MOL0     C26844   4.561  10.032   1.808  0.1930 -0.4627 -0.0430
  204MOL0     C26845   4.420  10.018   1.799 -0.1460  0.3751 -0.5863
  204MOL0     N26846   4.351   9.796   2.265  0.6273 -0.6960 -0.3489
  204MOL0     N26847   4.477   9.804   2.286  0.1079 -0.3947 -0.4315
  204MOL0     C26848   5.751  10.016   2.118  0.2652 -0.4111  1.0469
  204MOL0     C26849   5.891  10.005   2.103  0.0823 -0.3940  0.5588
  204MOL0     C26850   6.317  10.003   2.067  0.1281  0.1069  0.0177
  204MOL0     C26851   6.365   9.979   1.937 -0.4321  0.1948  0.4410
  204MOL0     C26852   6.501   9.965   1.934  0.0721 -0.7370 -0.7751
  204MOL0     C26853   6.578   9.950   2.050 -1.3691 -0.0255  0.2050
  204MOL0     O26854   6.716   9.946   2.023 -0.6699 -0.7061  0.0434
  204MOL0     C26855   6.808   9.951   2.137  0.9899 -0.0057 -0.6273
  204MOL0     C26856   6.827   9.811   2.190 -0.2508 -0.2282  0.6636
  204MOL0     C26857   6.943   9.817   2.300  0.1849  0.4077 -0.6443
  204MOL0     C26858   7.086   9.839   2.237 -0.8716 -1.3062 -0.7335
  204MOL0     C26859   7.186   9.859   2.344 -0.5830  0.0402  0.5102
  204MOL0     C26860   7.263   9.866   2.437  0.1320 -0.3232 -0.0861
  204MOL0     C26861   6.527   9.969   2.176 -0.1839  0.5263  0.5975
  204MOL0     C26862   6.393   9.997   2.180  0.4005 -1.1140 -0.2546
  204MOL0     H26863   6.008  10.167   2.375  1.7943  0.2922 -1.5814
  204MOL0     H26864   5.747  10.170   2.420  0.3608  4.3986 -1.8643
  204MOL0     H26865   5.463   9.960   2.187  3.2566 -0.9481  2.0526
  204MOL0     H26866   5.483  10.106   2.085  3.0505 -4.0765 -0.5630
  204MOL0     H26867   5.343  10.234   2.224  0.9354  0.1738  3.0117
  204MOL0     H26868   5.325  10.095   2.336  1.2918 -3.0125 -0.8010
  204MOL0     H26869   5.226   9.971   2.146 -0.2993  0.0758 -0.0898
  204MOL0     H26870   5.216  10.138   2.055  0.1954 -1.4098 -0.5258
  204MOL0     H26871   5.094  10.149   2.314  0.9560 -0.5356  0.3469
  204MOL0     H26872   5.059  10.234   2.152 -2.6854 -0.7487 -0.2844
  204MOL0     H26873   4.966   9.961   2.244 -1.5644  0.4064  1.4795
  204MOL0     H26874   4.952  10.011   2.073  2.5055 -3.9386  1.1823
  204MOL0     H26875   4.827  10.220   2.163 -0.8904  0.7164  1.3066
  204MOL0     H26876   4.829  10.150   2.317 -1.8184 -1.2691  0.2360
  204MOL0     H26877   4.636  10.102   2.147  0.5040  1.4110  0.2719
  204MOL0     H26878   4.727   9.959   2.110 -1.2164  1.0541 -0.6167
  204MOL0     H26879   4.659  10.052   2.401  4.5285 -0.2390  0.5627
  204MOL0     H26880   4.719   9.905   2.354  1.6112  0.6594  0.7598
  204MOL0     H26881   4.387  10.117   2.254 -1.2253  0.3982  2.3751
  204MOL0     H26882   4.107  10.021   2.265 -0.8807 -1.4995  2.8097
  204MOL0     H26883   4.102   9.834   2.258  1.1422 -1.1588 -1.2562
  204MOL0     H26884   4.163  10.014   2.024  2.2854 -1.0016 -0.1637
  204MOL0     H26885   4.008   9.926   2.049  0.8823  0.9083 -1.6336
  204MOL0     H26886   4.271   9.782   2.014 -0.4009 -1.6249  3.1384
  204MOL0     H26887   4.114   9.708   2.042  0.1398 -1.1784  0.5437
  204MOL0     H26888   4.038   9.812   1.831 -0.1321 -0.8361  1.4731
  204MOL0     H26889   4.165   9.697   1.810 -2.9078  0.2031 -1.4298
  204MOL0     H26890   4.425   9.676   1.820  0.4524  0.4013  1.3342
  204MOL0     H26891   4.649   9.714   1.859  1.5056  1.1663 -1.8577
  204MOL0     H26892   5.007   9.632   1.909 -1.1712 -2.1679 -5.9231
  204MOL0     H26893   5.270   9.632   1.901  0.4940  0.9959 -0.1907
  204MOL0     H26894   5.576   9.898   1.847 -2.8570 -2.3400  4.0048
  204MOL0     H26895   5.438  10.000   1.805 -1.0113 -1.0990 -0.6241
  204MOL0     H26896   5.457   9.939   1.563  0.6739  0.2016 -2.3876
  204MOL0     H26897   5.555   9.797   1.608 -1.9059 -0.9498  2.1497
  204MOL0     H26898   5.645  10.098   1.641  1.8611  0.0342  1.6432
  204MOL0     H26899   5.679   9.990   1.508 -0.4133  2.4506  0.1215
  204MOL0     H26900   5.878  10.012   1.648 -0.4388  0.9563  2.2257
  204MOL0     H26901   5.779   9.977   1.793 -2.7349  0.0766 -0.0562
  204MOL0     H26902   5.812   9.768   1.581 -2.8504 -3.3578  2.4346
  204MOL0     H26903   5.778   9.746   1.745 -0.9303  1.4898  0.3820
  204MOL0     H26904   5.991   9.670   1.729  3.3537  1.6199  2.5354
  204MOL0     H26905   5.995   9.813   1.820  3.9096 -3.7909  1.2470
  204MOL0     H26906   6.031   9.896   1.548 -3.5489 -2.6092 -0.6930
  204MOL0     H26907   6.149   9.895   1.678  1.0708 -2.1821  0.7819
  204MOL0     H26908   6.210   9.671   1.650  0.9608  1.9644  0.9622
  204MOL0     H26909   6.260   9.761   1.517  0.3610  0.1303  1.0606
  204MOL0     H26910   5.256  10.008   1.689  0.5016  0.1307  0.8346
  204MOL0     H26911   5.022  10.016   1.707 -1.4950  1.4229  3.2379
  204MOL0     H26912   4.613  10.127   1.809  0.9488 -0.7605 -2.5718
  204MOL0     H26913   4.350  10.100   1.796  1.2130  1.5363 -1.9351
  204MOL0     H26914   5.687   9.973   2.041 -0.3759  0.6651  0.9646
  204MOL0     H26915   5.925   9.971   2.005  0.1922  1.8701 -0.2626
  204MOL0     H26916   6.306   9.958   1.848 -1.1732 -1.9839  1.3714
  204MOL0     H26917   6.560   9.947   1.845 -0.3929  1.3361 -1.5733
  204MOL0     H26918   6.788  10.022   2.218 -0.0345 -0.7344 -0.2190
  204MOL0     H26919   6.901   9.984   2.091  0.2081 -0.8334 -2.9601
  204MOL0     H26920   6.735   9.778   2.239 -0.6265 -1.2300 -0.6484
  204MOL0     H26921   6.841   9.741   2.107  0.2115 -2.7782  2.7837
  204MOL0     H26922   6.959   9.720   2.348 -2.0365 -0.2788 -1.1439
  204MOL0     H26923   6.920   9.888   2.380  1.4386 -0.8838  0.9170
  204MOL0     H26924   7.122   9.754   2.178 -3.3169 -2.5336 -0.6115
  204MOL0     H26925   7.080   9.928   2.174 -0.8978 -0.5807  0.2910
  204MOL0     H26926   7.336   9.848   2.514  1.8114 -2.4298 -2.0182
  204MOL0     H26927   6.576   9.973   2.272  0.4358  0.5837  0.2843
  204MOL0     H26928   6.347  10.009   2.277  2.4894 -1.5593  0.8543
  205MOL0     O26929   2.943   0.978   8.099 -0.7319  0.2101  0.1529
  205MOL0     C26930   3.043   0.907   8.112 -0.2804  0.3923 -0.0546
  205MOL0     O26931   3.151   0.939   8.190  1.1119  0.5561  0.2946
  205MOL0     C26932   3.148   1.057   8.257  0.8747 -0.4649  0.0100
  205MOL0     C26933   3.094   1.080   8.384  0.0916 -0.0298 -0.5053
  205MOL0     C26934   3.081   1.210   8.440  0.4383 -0.0861 -0.4403
  205MOL0     C26935   3.140   1.320   8.369 -0.4124  0.7928 -0.9768
  205MOL0     O26936   3.158   1.440   8.430 -0.6381 -0.4835 -0.2316
  205MOL0     C26937   3.112   1.474   8.564 -0.8299 -0.6869 -0.3781
  205MOL0     C26938   3.088   1.628   8.572 -0.3885 -0.6291  0.6521
  205MOL0     C26939   2.948   1.662   8.536 -0.2071 -0.3795  0.3836
  205MOL0     C26940   2.915   1.811   8.545  0.0939 -0.9840 -0.8428
  205MOL0     C26941   2.775   1.854   8.499  0.0533  0.7077  0.6871
  205MOL0     C26942   2.726   1.810   8.355  0.1431 -0.5906  1.2093
  205MOL0     C26943   2.586   1.880   8.321  0.0748  0.0179  0.7751
  205MOL0     C26944   2.568   1.896   8.166  0.2329 -0.2038 -0.0308
  205MOL0     N26945   2.427   1.941   8.156 -0.0564 -0.1159  0.0712
  205MOL0     C26946   2.319   1.853   8.170 -0.4834 -0.8986 -1.1912
  205MOL0     C26947   2.213   1.932   8.170 -0.4648  0.7714 -0.3992
  205MOL0     C26948   2.075   1.888   8.203  0.7822  0.0920  0.2983
  205MOL0     C26949   1.971   1.899   8.101  0.4434  0.7176 -1.0334
  205MOL0     C26950   1.855   1.793   8.123 -0.3457 -1.0849  0.1475
  205MOL0     C26951   1.736   1.800   8.028  0.1642 -0.8038  0.3425
  205MOL0     O26952   1.777   1.816   7.890 -0.2133  0.5791  0.2987
  205MOL0     C26953   1.683   1.792   7.789  0.2809 -0.3465  0.0726
  205MOL0     C26954   1.551   1.746   7.801  0.5205  0.1339  0.0657
  205MOL0     C26955   1.458   1.743   7.692  0.4095 -0.3671  0.9190
  205MOL0     C26956   1.502   1.777   7.559 -0.2670  0.0193  0.1887
  205MOL0     C26957   1.408   1.794   7.437 -0.4326  0.1273 -0.7468
  205MOL0     O26958   1.277   1.781   7.464  0.1849  0.8154 -0.3235
  205MOL0     C26959   1.186   1.781   7.366  0.1092  0.7345  0.2897
  205MOL0     C26960   1.115   1.662   7.353  0.4358 -0.0376 -0.4608
  205MOL0     C26961   1.019   1.654   7.252  0.4960 -0.2381 -0.3960
  205MOL0     C26962   0.993   1.762   7.162 -0.1863  0.6045 -0.6100
  205MOL0     O26963   0.884   1.762   7.078 -0.4486 -0.3998  0.4663
  205MOL0     C26964   0.760   1.702   7.113  0.7401  0.0483  0.7613
  205MOL0     C26965   0.648   1.758   7.016 -0.5193  0.3369 -0.2337
  205MOL0     C26966   0.529   1.661   7.021  0.1874 -0.1374  0.0903
  205MOL0     C26967   0.460   1.677   7.158  0.5253  0.1985  0.1896
  205MOL0     C26968   0.324   1.613   7.168 -0.0763 -0.3248 -0.1778
  205MOL0     C26969   0.221   1.671   7.078 -0.0290  0.2628  0.1215
  205MOL0     C26970   0.124   1.773   7.138 -0.2478  0.4956  0.4368
  205MOL0     C26971   0.053   1.860   7.027 -0.0679 -0.6914  0.7367
  205MOL0    Cl26972  -0.018   1.752   6.910 -0.5366 -0.2188 -0.0591
  205MOL0     C26973   1.068   1.876   7.174 -0.2222  0.8437 -0.4810
  205MOL0     C26974   1.168   1.888   7.275  0.1157  0.6165 -1.1001
  205MOL0     O26975   1.456   1.819   7.327  0.0191 -0.9921 -0.7506
  205MOL0     C26976   1.642   1.830   7.550 -0.2294  0.4004 -0.4607
  205MOL0     C26977   1.727   1.818   7.658  0.1161  0.0032  0.0632
  205MOL0     N26978   2.254   2.063   8.166  0.5652  0.3026  0.5841
  205MOL0     N26979   2.380   2.066   8.146 -0.9789 -0.2203 -0.7383
  205MOL0     C26980   3.190   1.301   8.244 -0.1163  0.6765  0.3418
  205MOL0     C26981   3.191   1.169   8.185  0.0078 -0.1375  0.2911
  205MOL0     C26982   3.056   0.781   8.035  0.6470  0.4869 -0.2423
  205MOL0     C26983   3.161   0.691   8.053  0.2513 -0.3561 -0.2349
  205MOL0     C26984   3.161   0.569   7.993  0.3194 -0.0514 -0.2763
  205MOL0     C26985   3.060   0.540   7.902 -0.0384  0.3507 -0.8296
  205MOL0     O26986   3.069   0.410   7.844 -0.2551  0.0287  0.5278
  205MOL0     C26987   2.977   0.380   7.740 -0.3027  0.8016 -0.5976
  205MOL0     C26988   2.844   0.350   7.812  0.0259  0.7115  0.2679
  205MOL0     C26989   2.729   0.321   7.710 -0.3451 -0.7076  0.8457
  205MOL0     C26990   2.599   0.383   7.759  0.3921 -0.6193  0.0196
  205MOL0     C26991   2.549   0.312   7.877 -0.2074  1.1066  0.2762
  205MOL0     C26992   2.500   0.254   7.965  0.0582  0.9504  0.5815
  205MOL0     C26993   2.962   0.641   7.866  0.0086  0.2903 -0.3697
  205MOL0     C26994   2.952   0.755   7.943  0.5844 -0.2313  0.2693
  205MOL0     H26995   3.057   0.999   8.445 -1.7828  0.1392 -1.3615
  205MOL0     H26996   3.041   1.218   8.540 -1.5417  1.4257 -1.2938
  205MOL0     H26997   3.191   1.447   8.635 -1.3444  2.5016  1.6103
  205MOL0     H26998   3.026   1.418   8.601 -1.1573 -0.7562 -1.2328
  205MOL0     H26999   3.162   1.680   8.510 -2.9189  1.2666 -1.0132
  205MOL0     H27000   3.119   1.661   8.671  0.6142  1.2937 -0.2345
  205MOL0     H27001   2.884   1.606   8.605  0.5502  2.0699  3.2798
  205MOL0     H27002   2.941   1.619   8.436  0.7344 -0.9272  0.5352
  205MOL0     H27003   2.940   1.848   8.645  0.9571  1.9932 -2.0619
  205MOL0     H27004   2.974   1.861   8.467 -0.6384 -0.0363 -0.8146
  205MOL0     H27005   2.758   1.962   8.510 -0.6490  0.4883  2.0178
  205MOL0     H27006   2.699   1.807   8.563  0.8381 -3.9256 -1.4121
  205MOL0     H27007   2.729   1.701   8.352  2.0811 -0.5519  0.0839
  205MOL0     H27008   2.801   1.843   8.282  0.8829  0.8021  2.5594
  205MOL0     H27009   2.496   1.839   8.367 -1.3978  0.1390 -1.8285
  205MOL0     H27010   2.598   1.986   8.347 -0.7907  0.4390 -0.4486
  205MOL0     H27011   2.566   1.799   8.115 -1.2610  0.7879 -2.0005
  205MOL0     H27012   2.642   1.969   8.131  0.4709 -0.7560 -0.7189
  205MOL0     H27013   2.322   1.746   8.183  1.4377 -0.7873 -0.3829
  205MOL0     H27014   2.047   1.926   8.301 -2.5835 -0.7669 -0.1900
  205MOL0     H27015   2.079   1.779   8.216 -5.2025 -0.4111  0.6498
  205MOL0     H27016   2.019   1.878   8.005  3.6990  0.8473  0.4346
  205MOL0     H27017   1.927   2.000   8.105 -4.6499 -1.2272 -0.6467
  205MOL0     H27018   1.892   1.692   8.103  1.9715 -0.4956  1.1334
  205MOL0     H27019   1.818   1.790   8.226 -0.5760 -0.2107  0.0945
  205MOL0     H27020   1.672   1.885   8.051 -0.0076 -0.9506  0.4084
  205MOL0     H27021   1.677   1.709   8.046 -0.1461 -0.8488 -0.8188
  205MOL0     H27022   1.517   1.715   7.899  0.5886  1.0138  0.3738
  205MOL0     H27023   1.358   1.702   7.705 -0.5914  1.4898 -0.3965
  205MOL0     H27024   1.127   1.586   7.429 -1.0505  0.3641  0.2149
  205MOL0     H27025   0.956   1.566   7.257 -0.6878  0.5681 -0.7270
  205MOL0     H27026   0.735   1.714   7.219 -2.5075 -1.0562  0.2241
  205MOL0     H27027   0.763   1.595   7.091  0.3376 -0.3562  2.4796
  205MOL0     H27028   0.689   1.749   6.915 -0.3173  0.9678 -0.2172
  205MOL0     H27029   0.631   1.860   7.053  1.0141  1.2374 -1.8601
  205MOL0     H27030   0.566   1.559   7.010 -1.9513 -1.0413  0.7880
  205MOL0     H27031   0.464   1.683   6.936 -1.2977  1.2907  1.5383
  205MOL0     H27032   0.521   1.655   7.246  2.4136 -1.9154 -1.5102
  205MOL0     H27033   0.436   1.783   7.170  0.7624  0.0637  2.0797
  205MOL0     H27034   0.276   1.626   7.265 -1.0516  0.9544 -0.8056
  205MOL0     H27035   0.334   1.505   7.148 -2.0504 -0.6184  0.2284
  205MOL0     H27036   0.164   1.585   7.040  1.8595 -0.5241 -1.0865
  205MOL0     H27037   0.266   1.719   6.991 -1.3288  0.8763 -0.2312
  205MOL0     H27038   0.055   1.732   7.212 -0.4635 -0.5080 -0.3055
  205MOL0     H27039   0.192   1.845   7.184  0.5594  0.1379 -0.1672
  205MOL0     H27040   0.128   1.919   6.973 -0.3975  0.5828  1.6505
  205MOL0     H27041  -0.023   1.924   7.072 -0.8343  0.7393 -2.2913
  205MOL0     H27042   1.028   1.966   7.128  0.5406  0.3106 -2.3136
  205MOL0     H27043   1.204   1.986   7.306  3.2675 -0.2554 -1.7102
  205MOL0     H27044   1.684   1.870   7.458  1.0685 -0.0724 -0.0869
  205MOL0     H27045   1.829   1.852   7.640 -0.5912  0.8453 -2.9612
  205MOL0     H27046   3.234   1.392   8.205  0.5506 -0.4734 -1.7951
  205MOL0     H27047   3.233   1.173   8.085 -1.7957  2.5334 -0.4921
  205MOL0     H27048   3.240   0.718   8.123 -1.0285  0.7269  0.8476
  205MOL0     H27049   3.242   0.500   8.017 -0.3103  0.0081  2.2714
  205MOL0     H27050   3.016   0.289   7.694  1.5285  2.4079 -2.4970
  205MOL0     H27051   2.951   0.459   7.669 -1.3684  0.0266 -1.0838
  205MOL0     H27052   2.848   0.264   7.879 -1.2656 -0.5287 -1.1781
  205MOL0     H27053   2.814   0.429   7.881  2.0928  0.6791  1.2688
  205MOL0     H27054   2.726   0.212   7.702  0.7766 -0.8170  1.6656
  205MOL0     H27055   2.756   0.364   7.613 -2.4101  2.9072  1.7150
  205MOL0     H27056   2.607   0.490   7.782  1.3340 -0.6611 -0.0892
  205MOL0     H27057   2.532   0.384   7.672  0.4192  4.7500 -0.2751
  205MOL0     H27058   2.446   0.202   8.043  0.6668  4.0124  3.2628
  205MOL0     H27059   2.898   0.617   7.781  1.6894  0.4607 -1.7406
  205MOL0     H27060   2.875   0.828   7.918  0.4467 -0.4350  0.1001
  206MOL0     O27061   3.155   2.272   0.329  0.0477 -0.0193 -0.3268
  206MOL0     C27062   3.223   2.330   0.419  0.2530  0.9279  0.1312
  206MOL0     O27063   3.181   2.361   0.545  0.5445  0.6259 -0.1020
  206MOL0     C27064   3.057   2.323   0.594  1.0389  1.0940 -0.5182
  206MOL0     C27065   3.042   2.298   0.735  0.7152  1.2503 -0.9337
  206MOL0     C27066   2.915   2.260   0.787 -0.4548 -0.0573 -0.0395
  206MOL0     C27067   2.803   2.255   0.703 -0.5776 -0.1251 -0.4829
  206MOL0     O27068   2.677   2.203   0.735 -0.9603  0.1496  0.1224
  206MOL0     C27069   2.585   2.305   0.741 -0.2137  0.7724  0.7986
  206MOL0     C27070   2.445   2.240   0.751 -0.2717  0.5440  0.2046
  206MOL0     C27071   2.332   2.323   0.810  0.0419 -0.1790  0.1064
  206MOL0     C27072   2.326   2.468   0.767 -0.7040  0.6419 -0.6240
  206MOL0     C27073   2.196   2.534   0.824  0.2317  0.2289  0.7485
  206MOL0     C27074   2.150   2.498   0.965  0.2717 -0.4158  1.3821
  206MOL0     C27075   2.096   2.625   1.026  0.2849 -0.2430  0.6667
  206MOL0     C27076   2.055   2.608   1.167 -0.4832 -0.2042  0.4762
  206MOL0     N27077   2.030   2.737   1.239 -0.4731  0.0021  0.5559
  206MOL0     C27078   2.111   2.843   1.256  0.6457 -0.0934  0.0406
  206MOL0     C27079   2.035   2.921   1.339 -0.6174  0.4805 -0.1180
  206MOL0     C27080   2.091   3.054   1.391  0.2234  0.0668  1.4669
  206MOL0     C27081   2.210   3.054   1.490  0.7272  0.1355 -0.1683
  206MOL0     C27082   2.225   3.181   1.576 -0.2651  0.2581 -0.5788
  206MOL0     C27083   2.310   3.151   1.702 -1.1023 -0.1413  0.0246
  206MOL0     O27084   2.324   3.286   1.759  0.5201  0.0861 -0.1595
  206MOL0     C27085   2.435   3.326   1.821  0.2738  0.5059  0.1996
  206MOL0     C27086   2.556   3.360   1.752 -1.1235 -0.6845  0.0301
  206MOL0     C27087   2.672   3.397   1.829  0.9530  0.3802  0.4843
  206MOL0     C27088   2.677   3.390   1.975  0.3872  0.0271 -0.0611
  206MOL0     C27089   2.798   3.402   2.053 -0.0876  0.2595 -0.8124
  206MOL0     O27090   2.917   3.391   1.979 -0.4824  0.5100  0.4550
  206MOL0     C27091   3.035   3.419   2.048  0.6017 -0.3067  0.8919
  206MOL0     C27092   3.067   3.555   2.071 -0.5280 -0.4241  0.4590
  206MOL0     C27093   3.185   3.592   2.131 -0.8380  0.3941  0.5887
  206MOL0     C27094   3.275   3.485   2.168  0.3809 -0.4582 -0.1480
  206MOL0     O27095   3.392   3.509   2.222 -0.5159 -0.0041 -1.2565
  206MOL0     C27096   3.442   3.645   2.253  0.5252  0.6967  1.0992
  206MOL0     C27097   3.575   3.627   2.327  0.2010 -0.0899 -0.1464
  206MOL0     C27098   3.564   3.616   2.473  1.4393  0.1369 -0.3595
  206MOL0     C27099   3.704   3.598   2.536  0.4288  1.1988 -0.6954
  206MOL0     C27100   3.694   3.575   2.691  0.2095  1.3812  1.2394
  206MOL0     C27101   3.808   3.493   2.750  0.5240 -0.9609 -1.0404
  206MOL0     C27102   3.822   3.355   2.705 -0.5278 -1.0139 -0.4072
  206MOL0     C27103   3.946   3.293   2.753 -0.1213 -0.0523  0.0465
  206MOL0    Cl27104   3.973   3.317   2.927  0.0715  0.1937  0.1768
  206MOL0     C27105   3.244   3.351   2.142  0.3562 -0.2577  0.2093
  206MOL0     C27106   3.126   3.316   2.081 -1.0110  0.1327  0.8075
  206MOL0     O27107   2.786   3.433   2.172 -0.1466  0.2895 -0.1001
  206MOL0     C27108   2.554   3.357   2.030  0.5404  0.2567  0.7625
  206MOL0     C27109   2.443   3.319   1.958 -0.0419 -0.3581 -0.5770
  206MOL0     N27110   1.910   2.865   1.371  0.4277 -0.0633  1.0083
  206MOL0     N27111   1.912   2.753   1.304 -0.6684 -0.4506 -0.8333
  206MOL0     C27112   2.817   2.286   0.566  0.4168  0.7473  0.7239
  206MOL0     C27113   2.941   2.316   0.519  0.0941 -0.9732 -0.3036
  206MOL0     C27114   3.363   2.353   0.400 -1.0607  0.3529  0.3565
  206MOL0     C27115   3.419   2.384   0.279 -0.7740  0.7946 -0.3066
  206MOL0     C27116   3.557   2.415   0.266 -0.8061  0.0415 -0.0286
  206MOL0     C27117   3.641   2.401   0.383  0.4839 -0.3474  0.7910
  206MOL0     O27118   3.775   2.412   0.347 -0.2881  0.4933 -0.0226
  206MOL0     C27119   3.872   2.418   0.449  0.3567  0.4815 -1.0755
  206MOL0     C27120   4.005   2.417   0.379  0.1018  0.4865  0.2747
  206MOL0     C27121   4.121   2.449   0.477  0.3169 -0.1255  0.1675
  206MOL0     C27122   4.258   2.409   0.419  0.4115 -0.1164  0.7989
  206MOL0     C27123   4.373   2.501   0.426  0.1634 -1.1630  0.2219
  206MOL0     C27124   4.475   2.559   0.451  0.0724 -1.0907  0.6867
  206MOL0     C27125   3.588   2.362   0.504 -0.4743 -1.3149  0.4741
  206MOL0     C27126   3.450   2.344   0.515 -0.4984  0.1024  0.7237
  206MOL0     H27127   3.129   2.282   0.798  0.7541  3.0400 -0.4595
  206MOL0     H27128   2.897   2.231   0.890 -2.0608  3.7196  0.9025
  206MOL0     H27129   2.569   2.374   0.658 -1.7507 -0.3107  0.1450
  206MOL0     H27130   2.614   2.351   0.835 -0.4346  0.7418  0.8832
  206MOL0     H27131   2.443   2.150   0.813 -1.9536  1.0179  0.9022
  206MOL0     H27132   2.427   2.217   0.646  0.7952  0.5622  0.0062
  206MOL0     H27133   2.342   2.310   0.918 -0.1846 -2.0681 -0.0589
  206MOL0     H27134   2.232   2.286   0.785 -0.5149  1.0836  0.3891
  206MOL0     H27135   2.419   2.516   0.799 -1.0207  3.8785 -3.9000
  206MOL0     H27136   2.324   2.490   0.660  1.6594 -0.2681 -0.9016
  206MOL0     H27137   2.120   2.481   0.766 -1.1310  2.6383  0.1812
  206MOL0     H27138   2.203   2.642   0.805  1.9746  0.0338  0.1027
  206MOL0     H27139   2.231   2.459   1.026  1.4334 -0.2611 -0.0097
  206MOL0     H27140   2.075   2.419   0.960  1.5943 -1.8211  2.7554
  206MOL0     H27141   2.170   2.705   1.014 -0.3176  0.0422 -1.5565
  206MOL0     H27142   2.004   2.660   0.977  1.4173  1.5047 -0.3327
  206MOL0     H27143   2.137   2.558   1.220  2.3096  3.0549 -0.3337
  206MOL0     H27144   1.959   2.557   1.162 -0.3418 -0.3779 -1.3838
  206MOL0     H27145   2.211   2.860   1.216 -0.3448 -0.1829 -2.6527
  206MOL0     H27146   1.996   3.099   1.420 -0.7951 -2.0741  1.6238
  206MOL0     H27147   2.116   3.121   1.308 -2.9995  1.2590  1.3409
  206MOL0     H27148   2.306   3.038   1.439  0.2662  0.6611 -1.2478
  206MOL0     H27149   2.208   2.962   1.549  1.0048 -0.6205 -1.3075
  206MOL0     H27150   2.265   3.272   1.531 -0.8629  2.1966  2.5399
  206MOL0     H27151   2.124   3.210   1.607 -1.2623 -2.5730 -0.7983
  206MOL0     H27152   2.413   3.122   1.681 -0.6877  0.3513  1.2670
  206MOL0     H27153   2.266   3.083   1.775  4.0182 -3.7083  0.3286
  206MOL0     H27154   2.549   3.344   1.645  2.4743  1.6937 -0.7258
  206MOL0     H27155   2.762   3.430   1.777  1.1173 -1.1184 -0.2660
  206MOL0     H27156   3.003   3.631   2.027 -1.2935 -1.4385 -0.2396
  206MOL0     H27157   3.224   3.693   2.142 -0.8456  0.5088 -0.3463
  206MOL0     H27158   3.367   3.694   2.316 -1.3910 -0.3938 -0.2478
  206MOL0     H27159   3.459   3.703   2.162 -2.2302  2.2376  1.4337
  206MOL0     H27160   3.634   3.716   2.305 -1.9929  2.0940  2.1072
  206MOL0     H27161   3.629   3.541   2.289  2.3667  0.3275  1.7408
  206MOL0     H27162   3.505   3.524   2.481 -0.5961  1.3322 -0.7430
  206MOL0     H27163   3.505   3.699   2.512 -0.1149 -0.7535 -0.7116
  206MOL0     H27164   3.754   3.510   2.492  1.5841  1.5043 -0.0280
  206MOL0     H27165   3.770   3.682   2.513  1.4965  0.5424 -0.0804
  206MOL0     H27166   3.605   3.517   2.715  2.5968 -3.2627  0.0203
  206MOL0     H27167   3.691   3.676   2.733  1.0492  1.7162  0.5361
  206MOL0     H27168   3.776   3.499   2.855  1.9119  2.6733 -0.6575
  206MOL0     H27169   3.902   3.548   2.755  1.6285 -2.8573  0.8257
  206MOL0     H27170   3.742   3.300   2.755 -0.6353  0.8087  1.5626
  206MOL0     H27171   3.827   3.348   2.596  0.7245  0.6532 -0.4954
  206MOL0     H27172   4.035   3.327   2.699  0.0635 -4.5257 -3.0087
  206MOL0     H27173   3.947   3.185   2.735 -2.3653  0.0732 -1.1441
  206MOL0     H27174   3.316   3.276   2.173  4.1492  3.0944  0.2343
  206MOL0     H27175   3.092   3.213   2.071 -1.2006  0.2949 -0.4023
  206MOL0     H27176   2.561   3.343   2.137  2.0288 -1.0834  0.5299
  206MOL0     H27177   2.354   3.306   2.019 -0.8851  0.7912 -1.5105
  206MOL0     H27178   2.736   2.275   0.494  0.7697 -2.0857  0.6485
  206MOL0     H27179   2.946   2.339   0.413  1.2541  1.0946  0.1634
  206MOL0     H27180   3.352   2.400   0.196  0.6058  1.3213 -1.3690
  206MOL0     H27181   3.590   2.440   0.166 -3.1349  0.0461 -0.8475
  206MOL0     H27182   3.860   2.336   0.520  1.6933  2.8557  2.1793
  206MOL0     H27183   3.853   2.505   0.514  0.6925  0.2446 -0.6541
  206MOL0     H27184   4.019   2.321   0.328  3.3793  1.0267 -0.0646
  206MOL0     H27185   4.018   2.484   0.294  2.3305 -2.1390 -1.6556
  206MOL0     H27186   4.110   2.396   0.572  0.2308 -0.6482 -0.1305
  206MOL0     H27187   4.119   2.558   0.488  1.3172 -0.1670  0.8848
  206MOL0     H27188   4.289   2.323   0.479  2.4737  0.1966  0.2669
  206MOL0     H27189   4.248   2.382   0.313  2.9257  1.0919  0.1632
  206MOL0     H27190   4.559   2.621   0.475  0.6309 -2.2536  1.8956
  206MOL0     H27191   3.640   2.350   0.599 -1.0895 -0.7419  0.8889
  206MOL0     H27192   3.407   2.329   0.614 -0.8050  0.6113  0.6712
  207MOL0     O27193   0.227   9.386   4.977 -0.3807 -0.4670  0.5069
  207MOL0     C27194   0.185   9.399   5.095 -0.5365  0.2125  0.2102
  207MOL0     O27195   0.107   9.501   5.136 -0.3851  0.0623  0.7978
  207MOL0     C27196   0.096   9.619   5.067  0.3019 -0.4390  0.6828
  207MOL0     C27197  -0.012   9.704   5.073  0.3621 -0.2457  0.1030
  207MOL0     C27198  -0.019   9.826   5.013  0.9105 -0.4523  0.1595
  207MOL0     C27199   0.092   9.876   4.949 -0.4854  0.4219  0.5859
  207MOL0     O27200   0.085  10.000   4.896 -0.0801 -0.3733 -0.3380
  207MOL0     C27201   0.168  10.026   4.785 -0.2555  0.3848 -0.1076
  207MOL0     C27202   0.118  10.148   4.703 -0.5040 -0.6007  0.2633
  207MOL0     C27203   0.008  10.124   4.609 -1.2494 -0.3033  0.5822
  207MOL0     C27204  -0.024  10.253   4.534  0.0894 -1.3887  0.7758
  207MOL0     C27205  -0.160  10.255   4.464 -0.7928  0.3288  0.6350
  207MOL0     C27206  -0.145  10.178   4.334  0.1726 -0.4112 -0.3763
  207MOL0     C27207  -0.257  10.216   4.230  0.7136 -0.1818 -0.6021
  207MOL0     C27208  -0.399  10.188   4.277 -0.3721 -0.0889  0.4598
  207MOL0     N27209  -0.417  10.048   4.293 -1.0911  0.1627  0.1930
  207MOL0     C27210  -0.419   9.960   4.189 -0.9369 -0.5946  0.2441
  207MOL0     C27211  -0.403   9.837   4.241 -0.6599  0.4350 -0.3414
  207MOL0     C27212  -0.394   9.709   4.168  0.7400 -0.2306 -0.0049
  207MOL0     C27213  -0.514   9.668   4.085  0.1803  0.1863 -0.3103
  207MOL0     C27214  -0.641   9.663   4.162  0.5331 -1.0550  0.5477
  207MOL0     C27215  -0.750   9.639   4.061 -0.8891 -1.1509  0.2951
  207MOL0     O27216  -0.871   9.629   4.132 -0.1484 -0.3987 -0.9054
  207MOL0     C27217  -0.983   9.603   4.060 -0.4690  0.1571  0.6655
  207MOL0     C27218  -1.101   9.596   4.135 -0.1761  0.1221 -0.6345
  207MOL0     C27219  -1.222   9.560   4.064 -0.1642 -0.2119  0.3905
  207MOL0     C27220  -1.221   9.575   3.924 -0.0652  0.6495 -0.2401
  207MOL0     C27221  -1.337   9.577   3.834  0.4287  1.1570 -0.2115
  207MOL0     O27222  -1.444   9.543   3.896  0.5836 -0.1876  0.1824
  207MOL0     C27223  -1.563   9.569   3.832  0.1525 -0.5871 -0.0270
  207MOL0     C27224  -1.593   9.691   3.775  0.2726 -0.1759  0.4093
  207MOL0     C27225  -1.716   9.712   3.706  0.6623 -0.1919 -0.7623
  207MOL0     C27226  -1.820   9.611   3.719  0.2388  0.3437 -0.5417
  207MOL0     O27227  -1.940   9.620   3.651  0.2558 -0.5389 -0.7333
  207MOL0     C27228  -1.952   9.680   3.523 -0.3549  0.2701  0.6229
  207MOL0     C27229  -2.098   9.669   3.499 -0.5742 -0.3406 -0.6608
  207MOL0     C27230  -2.154   9.740   3.381 -0.6981 -0.4456  0.7428
  207MOL0     C27231  -2.296   9.693   3.363  0.2386  0.7051  0.6512
  207MOL0     C27232  -2.384   9.751   3.240  1.0002  0.4941 -0.8679
  207MOL0     C27233  -2.421   9.895   3.255  0.2862 -0.0856 -0.9571
  207MOL0     C27234  -2.523   9.943   3.138 -0.5944  0.1047  0.4459
  207MOL0     C27235  -2.460   9.938   3.003  0.4336 -0.4652 -0.4374
  207MOL0    Cl27236  -2.332  10.065   2.976  0.2932  0.1828 -0.2000
  207MOL0     C27237  -1.780   9.492   3.778  0.5252 -0.6870 -0.1753
  207MOL0     C27238  -1.658   9.475   3.835 -0.3842  1.1300  0.2351
  207MOL0     O27239  -1.331   9.628   3.717 -0.2803  0.2022 -0.6172
  207MOL0     C27240  -1.099   9.587   3.854  0.3360  0.0775 -1.1867
  207MOL0     C27241  -0.978   9.599   3.919  0.2643  0.1007 -0.1057
  207MOL0     N27242  -0.397   9.851   4.380 -0.5067  0.6303  0.2473
  207MOL0     N27243  -0.402   9.974   4.408 -0.3160 -0.7948 -0.0322
  207MOL0     C27244   0.199   9.793   4.940  0.1200  0.3003 -0.7262
  207MOL0     C27245   0.207   9.666   4.997 -0.5405  0.1859  0.3200
  207MOL0     C27246   0.217   9.285   5.195  1.0417  0.0929 -0.0934
  207MOL0     C27247   0.157   9.298   5.315  0.2313  0.0379 -0.1747
  207MOL0     C27248   0.178   9.205   5.418  0.3401 -0.5914  0.2268
  207MOL0     C27249   0.268   9.105   5.394 -0.7156 -0.5851  0.0646
  207MOL0     O27250   0.289   9.018   5.499  0.8201  0.2834  0.2640
  207MOL0     C27251   0.249   8.889   5.480 -0.1881  0.2403  0.5279
  207MOL0     C27252   0.270   8.807   5.609 -0.1924 -0.2020 -0.4386
  207MOL0     C27253   0.403   8.817   5.677  0.5964 -0.5725 -0.5985
  207MOL0     C27254   0.402   8.699   5.775 -0.2956  0.4243 -0.4280
  207MOL0     C27255   0.534   8.683   5.834  0.2135  0.0986 -0.0036
  207MOL0     C27256   0.625   8.668   5.912 -0.4867 -0.0583  0.6509
  207MOL0     C27257   0.339   9.101   5.277  0.1064 -0.5659  0.5382
  207MOL0     C27258   0.304   9.181   5.166 -0.8004  0.1256  0.2971
  207MOL0     H27259  -0.093   9.678   5.140  0.5516  2.3586  1.4556
  207MOL0     H27260  -0.103   9.894   5.023 -0.9686 -2.6453  0.2527
  207MOL0     H27261   0.179   9.942   4.716  2.1656  0.8462 -0.3551
  207MOL0     H27262   0.272  10.033   4.815 -0.4782 -1.5393  1.2983
  207MOL0     H27263   0.208  10.187   4.654  0.0729 -2.0097  0.1251
  207MOL0     H27264   0.085  10.229   4.768  0.7083  0.5661 -0.5080
  207MOL0     H27265  -0.078  10.092   4.668 -1.5627  0.8040  0.7455
  207MOL0     H27266   0.041  10.048   4.537 -0.8738 -1.4419  1.8898
  207MOL0     H27267  -0.038  10.328   4.613  0.6286  0.0473 -0.4417
  207MOL0     H27268   0.057  10.281   4.467 -1.5190 -0.8732 -1.0673
  207MOL0     H27269  -0.189  10.360   4.452  3.0893  1.3002 -2.1729
  207MOL0     H27270  -0.235  10.206   4.527  0.8522 -4.1453 -0.5308
  207MOL0     H27271  -0.144  10.069   4.349  2.2611 -0.2455  1.1452
  207MOL0     H27272  -0.061  10.212   4.274  0.4264  0.4247  0.4363
  207MOL0     H27273  -0.242  10.320   4.199  0.2342 -0.7161 -2.8213
  207MOL0     H27274  -0.236  10.149   4.146 -2.2410 -3.0490  0.7277
  207MOL0     H27275  -0.465  10.227   4.198  1.0851 -0.7287 -1.1372
  207MOL0     H27276  -0.407  10.236   4.375  3.4198 -3.6725  2.8368
  207MOL0     H27277  -0.422   9.975   4.081  1.9747  2.7108  0.4617
  207MOL0     H27278  -0.376   9.626   4.237  0.9082  0.3547  0.6678
  207MOL0     H27279  -0.313   9.727   4.097 -0.0332  3.0485 -0.2093
  207MOL0     H27280  -0.490   9.570   4.044  1.3390  0.7617 -1.0622
  207MOL0     H27281  -0.517   9.739   4.002 -0.9127  0.9187  0.3400
  207MOL0     H27282  -0.645   9.581   4.235 -2.9258  0.5355  2.4246
  207MOL0     H27283  -0.672   9.753   4.216 -1.4941 -0.5111 -1.3683
  207MOL0     H27284  -0.726   9.555   3.995  0.9083  0.2703 -0.9875
  207MOL0     H27285  -0.757   9.735   4.009  1.8157 -1.1416 -0.2431
  207MOL0     H27286  -1.120   9.615   4.240 -1.4572  3.8088 -1.3852
  207MOL0     H27287  -1.322   9.532   4.096 -0.7467 -0.5046 -1.5376
  207MOL0     H27288  -1.523   9.773   3.779 -1.8330  1.7066  0.7542
  207MOL0     H27289  -1.738   9.798   3.644  0.7479  2.0967  2.1346
  207MOL0     H27290  -1.885   9.643   3.444 -1.4303  2.2063 -1.3191
  207MOL0     H27291  -1.932   9.788   3.527  1.6874 -0.0333 -0.0447
  207MOL0     H27292  -2.148   9.700   3.590  2.5223 -1.9287  1.7730
  207MOL0     H27293  -2.107   9.560   3.488  1.0313 -0.7637  1.5006
  207MOL0     H27294  -2.098   9.717   3.290 -2.6387 -3.0964  0.1060
  207MOL0     H27295  -2.150   9.847   3.404  3.2319 -0.7006  2.0008
  207MOL0     H27296  -2.306   9.585   3.349  0.9755  0.5095  1.5021
  207MOL0     H27297  -2.341   9.728   3.457 -2.4417 -0.7336  0.0100
  207MOL0     H27298  -2.477   9.696   3.226  0.6712  1.1111 -1.1729
  207MOL0     H27299  -2.323   9.723   3.153 -0.9766 -1.4311 -1.7222
  207MOL0     H27300  -2.345   9.973   3.249 -1.5406  2.1132  1.8387
  207MOL0     H27301  -2.475   9.908   3.349 -0.5263  0.4883 -1.4751
  207MOL0     H27302  -2.613   9.883   3.154 -1.6001  0.9507 -1.7283
  207MOL0     H27303  -2.551  10.047   3.160 -0.3677  0.2433  0.0800
  207MOL0     H27304  -2.540   9.941   2.928 -0.0973 -0.7892  0.1160
  207MOL0     H27305  -2.397   9.851   2.985 -0.8005 -1.0020 -2.5937
  207MOL0     H27306  -1.854   9.412   3.773  0.9574 -1.1913  1.0728
  207MOL0     H27307  -1.628   9.375   3.866  4.4139  1.6851 -1.6887
  207MOL0     H27308  -1.089   9.568   3.748 -3.1709 -2.0338 -1.3060
  207MOL0     H27309  -0.890   9.598   3.855 -0.8872 -3.0924 -1.8723
  207MOL0     H27310   0.287   9.813   4.880  1.5861 -6.3537 -1.5997
  207MOL0     H27311   0.303   9.617   4.993 -0.8636 -0.3961 -2.5489
  207MOL0     H27312   0.092   9.381   5.341  1.1319  0.8012 -0.3225
  207MOL0     H27313   0.122   9.218   5.510  2.1101  0.6669  1.1804
  207MOL0     H27314   0.320   8.848   5.407  1.0899 -0.1619  1.9326
  207MOL0     H27315   0.144   8.883   5.448  0.3836 -2.3281 -1.1609
  207MOL0     H27316   0.197   8.852   5.677 -0.4885  0.1464 -0.9794
  207MOL0     H27317   0.248   8.702   5.591 -1.7900 -0.1728  1.0444
  207MOL0     H27318   0.405   8.911   5.732  2.1797  0.0224 -1.5866
  207MOL0     H27319   0.481   8.822   5.600  0.1427 -1.4714 -1.1279
  207MOL0     H27320   0.329   8.725   5.851  0.4723  1.2860  0.0315
  207MOL0     H27321   0.363   8.613   5.720 -2.8694  0.9035  0.5000
  207MOL0     H27322   0.709   8.651   5.976  1.4039  3.3080 -0.6674
  207MOL0     H27323   0.412   9.022   5.259 -0.5653 -0.7513 -1.6501
  207MOL0     H27324   0.340   9.180   5.063 -1.2601 -1.4459  0.1177
  208MOL0     O27325  10.392   5.484   3.886  0.4417 -0.8350  0.2812
  208MOL0     C27326  10.273   5.527   3.901 -0.1724  0.1633  0.4448
  208MOL0     O27327  10.205   5.607   3.816  0.4422  0.1950  0.3863
  208MOL0     C27328  10.262   5.642   3.695 -0.4076 -0.0474 -0.8379
  208MOL0     C27329  10.194   5.620   3.577  0.1875  0.3908  0.4696
  208MOL0     C27330  10.241   5.671   3.457 -0.1005  0.6405 -0.2749
  208MOL0     C27331  10.365   5.742   3.449  0.0034 -0.8802  0.2807
  208MOL0     O27332  10.407   5.783   3.322  0.3551  0.3692  0.3710
  208MOL0     C27333  10.510   5.884   3.309 -0.3348  0.3312  0.1308
  208MOL0     C27334  10.489   5.972   3.191 -0.8770 -0.6124 -0.1650
  208MOL0     C27335  10.570   6.109   3.200  0.7134  0.3153 -0.2173
  208MOL0     C27336  10.720   6.076   3.185 -0.3834  0.6020 -0.2623
  208MOL0     C27337  10.800   6.196   3.179  0.0145 -1.2992  0.1266
  208MOL0     C27338  10.951   6.164   3.173 -0.2740 -0.3526 -0.0080
  208MOL0     C27339  11.031   6.286   3.148 -0.0263  0.2562 -0.2090
  208MOL0     C27340  11.000   6.352   3.009  0.3428 -0.0860  0.4107
  208MOL0     N27341  11.102   6.452   2.970 -0.9936 -0.0246 -0.1962
  208MOL0     C27342  11.120   6.580   3.021  0.5291  0.1752  0.1879
  208MOL0     C27343  11.232   6.629   2.950 -0.8445  0.3467 -0.4337
  208MOL0     C27344  11.277   6.774   2.948  0.2851  0.8847 -1.0839
  208MOL0     C27345  11.406   6.802   3.017  0.1476 -0.1821 -0.3340
  208MOL0     C27346  11.524   6.722   2.966 -0.6878  0.3606  0.7462
  208MOL0     C27347  11.645   6.738   3.064  0.4183  1.1505 -0.7119
  208MOL0     O27348  11.758   6.660   3.007  0.3863  0.6067 -0.0995
  208MOL0     C27349  11.819   6.717   2.897 -0.0109  0.5252 -0.3320
  208MOL0     C27350  11.928   6.649   2.846 -0.2731 -0.5707  0.1939
  208MOL0     C27351  12.009   6.691   2.745  0.0023 -0.3522 -0.2648
  208MOL0     C27352  11.970   6.802   2.668 -0.4958 -0.6237  0.4142
  208MOL0     C27353  12.055   6.862   2.557 -0.7093 -0.3156 -0.4687
  208MOL0     O27354  12.033   6.994   2.530 -0.2340 -0.7949 -0.1687
  208MOL0     C27355  12.111   7.055   2.435  0.2173  0.4496 -0.6458
  208MOL0     C27356  12.045   7.074   2.318 -0.2280  0.3425 -0.1065
  208MOL0     C27357  12.111   7.146   2.221  0.4296  1.1488  1.3088
  208MOL0     C27358  12.240   7.204   2.242 -0.3534 -0.1066  1.0730
  208MOL0     O27359  12.312   7.262   2.136  0.0892  0.1389 -0.0172
  208MOL0     C27360  12.389   7.369   2.179  0.4475  0.1737  0.1262
  208MOL0     C27361  12.461   7.443   2.066  0.2483 -0.2472 -1.0291
  208MOL0     C27362  12.543   7.553   2.124  0.2354 -0.2642  0.3908
  208MOL0     C27363  12.629   7.610   2.013 -0.6919 -0.3825  0.3605
  208MOL0     C27364  12.725   7.715   2.061 -0.9543 -0.0921 -0.1998
  208MOL0     C27365  12.751   7.819   1.957  0.6766 -0.6667  0.4348
  208MOL0     C27366  12.843   7.919   2.006  0.4362 -0.4928 -0.4520
  208MOL0     C27367  12.748   8.025   2.083 -0.1568  0.9173  1.0553
  208MOL0    Cl27368  12.848   8.150   2.145 -0.3941  0.2689 -0.0124
  208MOL0     C27369  12.300   7.181   2.367 -0.6653 -0.1163 -0.0363
  208MOL0     C27370  12.242   7.099   2.461 -0.7842  0.2914  0.6112
  208MOL0     O27371  12.137   6.788   2.507  0.2142  0.4043 -0.8717
  208MOL0     C27372  11.866   6.885   2.717 -0.0451  0.2086 -0.0116
  208MOL0     C27373  11.783   6.835   2.829 -0.1001  0.2858  1.0281
  208MOL0     N27374  11.276   6.525   2.870  0.1837 -0.4866 -0.7280
  208MOL0     N27375  11.205   6.419   2.890  0.3389 -0.1797 -0.1878
  208MOL0     C27376  10.438   5.764   3.566 -0.2426 -0.2100  0.0720
  208MOL0     C27377  10.391   5.710   3.687 -0.8413  0.2055 -0.1125
  208MOL0     C27378  10.211   5.491   4.024  0.0632 -0.4110 -0.1248
  208MOL0     C27379  10.124   5.588   4.084  0.3427  0.3742 -1.0010
  208MOL0     C27380  10.059   5.556   4.203  0.4888  1.2436 -1.0550
  208MOL0     C27381  10.089   5.440   4.281 -0.3584 -0.0971  0.3925
  208MOL0     O27382  10.035   5.391   4.403  0.3197  0.6123 -0.4580
  208MOL0     C27383   9.895   5.443   4.428 -0.8852  0.9235  0.2282
  208MOL0     C27384   9.837   5.339   4.525 -0.2192  0.6383  0.0094
  208MOL0     C27385   9.905   5.327   4.657  0.0290 -0.4612 -0.1776
  208MOL0     C27386   9.849   5.210   4.734 -0.4286  0.5687  0.0995
  208MOL0     C27387   9.919   5.204   4.863  0.3018 -0.1861  0.3670
  208MOL0     C27388  10.001   5.208   4.956  0.9199  0.6475  0.6612
  208MOL0     C27389  10.178   5.347   4.224  0.1583 -0.2698  0.0739
  208MOL0     C27390  10.243   5.371   4.098 -0.7611 -0.5882 -0.2331
  208MOL0     H27391  10.102   5.564   3.585 -0.1910  1.1924  2.4935
  208MOL0     H27392  10.197   5.638   3.363 -0.6813 -2.6948  1.0405
  208MOL0     H27393  10.610   5.842   3.301 -0.8079 -0.4939 -2.4782
  208MOL0     H27394  10.512   5.942   3.401  0.7134 -2.9681  2.3637
  208MOL0     H27395  10.382   5.996   3.180 -0.6332 -0.2282 -2.2533
  208MOL0     H27396  10.523   5.918   3.102  2.3776  1.4359 -0.2992
  208MOL0     H27397  10.557   6.164   3.294 -0.1356  0.7811 -0.5999
  208MOL0     H27398  10.529   6.182   3.130  0.9388  1.0636  0.4194
  208MOL0     H27399  10.759   6.016   3.269 -0.4413  2.1895  0.9469
  208MOL0     H27400  10.748   6.008   3.105  0.1915 -0.6643  0.9600
  208MOL0     H27401  10.786   6.265   3.263  2.0004  0.7549 -1.1291
  208MOL0     H27402  10.764   6.253   3.093  1.2961 -0.0886  0.3585
  208MOL0     H27403  10.966   6.096   3.088 -4.3198 -1.7193  0.1429
  208MOL0     H27404  10.980   6.117   3.267  0.1810  1.3613  0.7464
  208MOL0     H27405  11.018   6.356   3.231  2.3217 -1.9863  2.2604
  208MOL0     H27406  11.136   6.258   3.166 -0.4262  0.6230  3.3123
  208MOL0     H27407  10.899   6.394   3.016 -1.2604 -3.2506 -1.2590
  208MOL0     H27408  10.999   6.269   2.937 -0.8624 -0.5315  0.9032
  208MOL0     H27409  11.064   6.633   3.097  1.8809  2.6926 -0.4494
  208MOL0     H27410  11.195   6.838   2.981 -2.0312 -1.3600 -2.1223
  208MOL0     H27411  11.283   6.814   2.846 -2.7099  3.5140 -0.3631
  208MOL0     H27412  11.400   6.767   3.121 -1.0757 -4.1671 -1.5927
  208MOL0     H27413  11.425   6.910   3.013  1.8462 -0.3000  1.9282
  208MOL0     H27414  11.509   6.614   2.959 -0.5277  0.4253 -1.6721
  208MOL0     H27415  11.544   6.753   2.862  4.0473 -3.2490  0.2100
  208MOL0     H27416  11.625   6.685   3.157  0.7637  1.1968 -0.6103
  208MOL0     H27417  11.674   6.843   3.077 -1.1873  1.5348 -0.0627
  208MOL0     H27418  11.948   6.555   2.897 -2.9583 -1.0395  0.4987
  208MOL0     H27419  12.100   6.638   2.718 -1.2859 -1.8970 -1.9143
  208MOL0     H27420  11.946   7.034   2.300  0.4372 -1.8535  0.7254
  208MOL0     H27421  12.068   7.159   2.122  0.4821 -0.7570  1.0120
  208MOL0     H27422  12.473   7.344   2.243  0.5830  3.1723  1.2986
  208MOL0     H27423  12.326   7.442   2.230  0.3764 -0.9896  1.7763
  208MOL0     H27424  12.386   7.481   1.996  1.0045  2.1118 -0.6686
  208MOL0     H27425  12.532   7.381   2.011  3.1609  0.2485  1.8521
  208MOL0     H27426  12.618   7.506   2.188 -0.2202 -1.8841 -0.1998
  208MOL0     H27427  12.476   7.627   2.169  0.9400 -0.0342  1.0846
  208MOL0     H27428  12.688   7.540   1.953  0.3613  0.9834 -0.2495
  208MOL0     H27429  12.560   7.650   1.937 -0.7683  1.1324  1.1951
  208MOL0     H27430  12.818   7.665   2.091 -0.0635  0.9451 -1.1752
  208MOL0     H27431  12.704   7.767   2.155  3.7872  2.9284 -0.5106
  208MOL0     H27432  12.663   7.865   1.912  1.5143  0.8344  0.2515
  208MOL0     H27433  12.805   7.766   1.878 -1.1372 -3.6470  1.0662
  208MOL0     H27434  12.917   7.875   2.074  1.2613  2.0527  0.4040
  208MOL0     H27435  12.889   7.969   1.921 -0.1197  0.9704  0.0790
  208MOL0     H27436  12.684   7.989   2.164 -1.8145  0.2439 -0.4827
  208MOL0     H27437  12.687   8.080   2.011 -2.0069  0.2651  2.0540
  208MOL0     H27438  12.392   7.232   2.395 -1.3424  1.6149 -0.8766
  208MOL0     H27439  12.283   7.098   2.561 -0.8005  0.1605  0.6170
  208MOL0     H27440  11.824   6.974   2.671 -0.3578  0.6011  1.0244
  208MOL0     H27441  11.693   6.890   2.854 -1.3229  0.2729 -2.7687
  208MOL0     H27442  10.534   5.814   3.565  1.6084 -3.4525  0.9224
  208MOL0     H27443  10.445   5.735   3.777 -2.2397  1.6311  0.3833
  208MOL0     H27444  10.088   5.677   4.035 -1.0813 -0.3546 -1.3371
  208MOL0     H27445   9.980   5.614   4.249  0.4076 -0.3910  0.9966
  208MOL0     H27446   9.833   5.443   4.339  3.0495  0.6374 -2.8050
  208MOL0     H27447   9.897   5.545   4.467 -2.8144  0.5880  1.3256
  208MOL0     H27448   9.731   5.363   4.537 -1.0607 -1.2194 -2.7202
  208MOL0     H27449   9.839   5.239   4.481 -2.3369  1.4194 -2.1143
  208MOL0     H27450   9.888   5.426   4.701  2.3466  0.7094 -1.7444
  208MOL0     H27451  10.013   5.318   4.642 -0.3127 -1.2231 -2.5568
  208MOL0     H27452   9.743   5.226   4.755 -0.4307  0.5788  0.0837
  208MOL0     H27453   9.858   5.117   4.678 -0.9936  1.9944 -2.4803
  208MOL0     H27454  10.063   5.203   5.043  0.6962  0.3099  0.8009
  208MOL0     H27455  10.194   5.254   4.278  3.7840  0.5352  0.6146
  208MOL0     H27456  10.325   5.304   4.076  1.0116  1.8248 -1.4718
  209MOL0     O27457  10.636   3.401   4.979 -0.5436  0.2891 -0.2222
  209MOL0     C27458  10.573   3.503   4.956  0.9502 -0.8558  0.5254
  209MOL0     O27459  10.610   3.602   4.872 -0.1577  0.2296  0.9382
  209MOL0     C27460  10.746   3.602   4.833  0.1103 -0.1727  0.8455
  209MOL0     C27461  10.854   3.592   4.918  0.1628 -0.1311 -0.7814
  209MOL0     C27462  10.986   3.606   4.872 -0.9428  0.9160 -0.4292
  209MOL0     C27463  11.009   3.633   4.739 -1.3785 -0.5695  0.1091
  209MOL0     O27464  11.140   3.647   4.708  0.3344 -0.9498  0.9520
  209MOL0     C27465  11.192   3.684   4.584  0.0843 -0.3634 -0.3655
  209MOL0     C27466  11.164   3.590   4.470 -0.5340 -0.4873 -0.2165
  209MOL0     C27467  11.278   3.610   4.370  0.1481 -0.2280  0.4544
  209MOL0     C27468  11.249   3.508   4.253 -0.6560 -0.0703 -0.2862
  209MOL0     C27469  11.354   3.533   4.137  0.8822 -0.3021 -0.8519
  209MOL0     C27470  11.282   3.589   4.014 -0.2607  0.5316 -0.0914
  209MOL0     C27471  11.380   3.643   3.909 -0.8881 -1.1854 -0.3959
  209MOL0     C27472  11.327   3.637   3.762 -1.3230  0.2561  0.2029
  209MOL0     N27473  11.219   3.736   3.762  0.7265  0.0648  0.4837
  209MOL0     C27474  11.082   3.724   3.773 -0.8815 -0.4436 -0.0447
  209MOL0     C27475  11.022   3.839   3.734  0.0747 -0.2767 -0.1992
  209MOL0     C27476  10.873   3.854   3.702  0.1401 -0.5846 -0.3608
  209MOL0     C27477  10.831   3.883   3.562 -0.4886 -0.6458  0.1711
  209MOL0     C27478  10.842   4.034   3.530 -0.2271 -0.0401  0.1553
  209MOL0     C27479  10.828   4.070   3.386  0.4354 -0.5830  0.7896
  209MOL0     O27480  10.720   4.030   3.306  0.2449  0.3430  0.1296
  209MOL0     C27481  10.588   4.068   3.344  0.2427  0.3001  0.7111
  209MOL0     C27482  10.489   4.001   3.268  0.3788 -0.6132 -0.5423
  209MOL0     C27483  10.345   4.028   3.291 -0.2671 -0.4182  0.3201
  209MOL0     C27484  10.310   4.126   3.385 -0.4612  1.4403  0.1818
  209MOL0     C27485  10.169   4.143   3.422  0.4271  0.4611 -0.4769
  209MOL0     O27486  10.082   4.099   3.330  0.5644 -0.7050 -0.3008
  209MOL0     C27487   9.943   4.110   3.350 -0.5111  0.1197  0.5141
  209MOL0     C27488   9.873   4.202   3.435 -0.3033 -0.2762 -0.5311
  209MOL0     C27489   9.731   4.209   3.445 -0.8933  0.6110  0.0358
  209MOL0     C27490   9.657   4.129   3.364  0.9712  0.9075  0.1474
  209MOL0     O27491   9.520   4.128   3.353  0.4172  0.4511 -0.2744
  209MOL0     C27492   9.433   4.230   3.407 -0.1990  0.0242 -0.1338
  209MOL0     C27493   9.289   4.173   3.404 -0.5885 -0.3662 -0.2663
  209MOL0     C27494   9.244   4.138   3.266 -0.3414 -0.9065 -0.0791
  209MOL0     C27495   9.123   4.051   3.265  0.8450  0.1708  0.2098
  209MOL0     C27496   9.000   4.100   3.345 -0.1669 -0.1599 -0.6739
  209MOL0     C27497   8.884   3.996   3.318  0.0584 -0.7705  0.1024
  209MOL0     C27498   8.765   4.050   3.395  0.0592 -1.4132 -0.8177
  209MOL0     C27499   8.651   3.945   3.388 -0.1433 -0.3817  1.2307
  209MOL0    Cl27500   8.517   4.004   3.496  0.0377  0.0657  0.5182
  209MOL0     C27501   9.720   4.030   3.283  0.5890 -0.5774 -0.1769
  209MOL0     C27502   9.866   4.020   3.273 -0.0890 -0.1531 -0.6459
  209MOL0     O27503  10.147   4.193   3.529  1.1412 -0.1853  0.7153
  209MOL0     C27504  10.415   4.185   3.468  0.8882  0.4372 -0.0997
  209MOL0     C27505  10.554   4.163   3.439 -0.1487  0.1272  1.1745
  209MOL0     N27506  11.124   3.926   3.709  0.6545 -0.0016  0.8262
  209MOL0     N27507  11.236   3.864   3.724  0.0281  0.0538 -0.9792
  209MOL0     C27508  10.903   3.637   4.654  0.1544  0.3515 -1.1456
  209MOL0     C27509  10.771   3.615   4.693 -0.5171  0.3841  0.1534
  209MOL0     C27510  10.426   3.512   5.002 -1.3373  0.5569 -0.3177
  209MOL0     C27511  10.376   3.419   5.099 -0.1626  0.4288 -0.2603
  209MOL0     C27512  10.243   3.420   5.138  0.1978  0.1108 -0.0533
  209MOL0     C27513  10.152   3.497   5.061 -0.4391  0.0237 -0.9660
  209MOL0     O27514  10.010   3.481   5.082 -0.0744 -0.8056 -0.0240
  209MOL0     C27515   9.967   3.375   5.168  0.1598 -0.1038 -0.8229
  209MOL0     C27516   9.819   3.417   5.200 -0.7109 -0.3673  0.4209
  209MOL0     C27517   9.762   3.339   5.319 -0.2990 -0.2081 -0.9173
  209MOL0     C27518   9.804   3.400   5.452 -0.4855 -0.6204  0.0393
  209MOL0     C27519   9.759   3.314   5.551 -0.7739 -0.9293 -0.0133
  209MOL0     C27520   9.716   3.256   5.652  0.7047 -0.3301 -0.5071
  209MOL0     C27521  10.202   3.605   4.995 -0.8258  0.7024 -0.5370
  209MOL0     C27522  10.337   3.608   4.957 -0.4574 -1.0975  0.1475
  209MOL0     H27523  10.826   3.573   5.021  1.7405 -0.6074 -0.4166
  209MOL0     H27524  11.072   3.574   4.929  0.6881  3.8060 -1.0860
  209MOL0     H27525  11.298   3.705   4.600  0.2744 -2.2234  1.0706
  209MOL0     H27526  11.155   3.786   4.569 -0.6162 -0.3590  1.1613
  209MOL0     H27527  11.068   3.611   4.421  0.8555  2.3375 -1.9675
  209MOL0     H27528  11.153   3.488   4.510 -0.3520 -0.6441 -0.5593
  209MOL0     H27529  11.378   3.587   4.408  1.0402 -1.8301 -2.5303
  209MOL0     H27530  11.266   3.713   4.335  2.8411  0.5084  1.4651
  209MOL0     H27531  11.265   3.404   4.283 -1.8733  0.0275  0.7866
  209MOL0     H27532  11.151   3.529   4.209 -1.7224  0.4651  2.1905
  209MOL0     H27533  11.399   3.438   4.105  1.7011 -0.4131  0.5205
  209MOL0     H27534  11.432   3.603   4.168 -1.1408  2.6807 -2.0439
  209MOL0     H27535  11.226   3.675   4.053 -3.4429 -2.6240  3.0398
  209MOL0     H27536  11.203   3.528   3.971 -1.9692  3.3669 -1.2857
  209MOL0     H27537  11.417   3.743   3.936  3.0620 -3.3676  3.6219
  209MOL0     H27538  11.466   3.576   3.908 -0.2542 -0.4801  1.5695
  209MOL0     H27539  11.278   3.540   3.754  1.3049 -1.1722  0.5415
  209MOL0     H27540  11.401   3.659   3.684  0.4065  2.5660  2.3071
  209MOL0     H27541  11.028   3.632   3.794  1.8371 -2.3837 -0.9611
  209MOL0     H27542  10.845   3.930   3.775  4.5746 -1.4503  2.6362
  209MOL0     H27543  10.832   3.755   3.725  0.4410 -0.8978 -1.1415
  209MOL0     H27544  10.728   3.852   3.540 -0.8007  1.0446 -0.9933
  209MOL0     H27545  10.888   3.830   3.485  1.5058 -1.8994  2.3883
  209MOL0     H27546  10.762   4.086   3.584 -0.5466 -2.5799  2.2891
  209MOL0     H27547  10.938   4.071   3.568  0.9864 -1.3662 -1.4998
  209MOL0     H27548  10.906   4.019   3.329 -0.9784  1.0557 -2.9823
  209MOL0     H27549  10.844   4.177   3.369  2.6036 -1.4555 -4.6883
  209MOL0     H27550  10.519   3.936   3.186  0.4596 -1.5872  0.2330
  209MOL0     H27551  10.279   3.972   3.226  1.4163  0.1951 -2.0380
  209MOL0     H27552   9.931   4.264   3.504 -0.8644 -0.5970  0.2484
  209MOL0     H27553   9.686   4.287   3.505  1.5070  0.7599  1.7861
  209MOL0     H27554   9.429   4.309   3.332 -1.5313 -0.6118 -0.7620
  209MOL0     H27555   9.457   4.256   3.511 -0.7397 -0.1638  0.0418
  209MOL0     H27556   9.213   4.243   3.441 -0.0057  0.6441 -0.9507
  209MOL0     H27557   9.294   4.083   3.466  3.2370  0.2928  0.6555
  209MOL0     H27558   9.318   4.083   3.207  0.4665 -0.8478  0.8671
  209MOL0     H27559   9.212   4.233   3.222 -1.3852 -0.4006  1.6591
  209MOL0     H27560   9.090   4.034   3.162  0.0495  1.3334  0.2515
  209MOL0     H27561   9.150   3.955   3.310  2.7910  0.5761 -0.0166
  209MOL0     H27562   8.974   4.203   3.315  3.1772  0.7179 -0.9553
  209MOL0     H27563   9.031   4.101   3.449  3.8469  3.4230 -1.5790
  209MOL0     H27564   8.907   3.899   3.362 -0.1866 -1.4600 -1.2385
  209MOL0     H27565   8.867   3.988   3.210  1.9666 -1.4833 -0.1886
  209MOL0     H27566   8.800   4.059   3.499 -0.5513 -1.6333 -0.5871
  209MOL0     H27567   8.726   4.147   3.364 -2.2191 -1.8357  0.4417
  209MOL0     H27568   8.682   3.843   3.414 -2.9190 -2.2016 -1.7729
  209MOL0     H27569   8.617   3.925   3.286  2.7383 -4.8892  0.8634
  209MOL0     H27570   9.664   3.956   3.227  3.1107 -1.6704 -1.4173
  209MOL0     H27571   9.903   3.944   3.206  0.7695 -1.9945  1.7599
  209MOL0     H27572  10.385   4.258   3.543 -1.8939 -2.6380  2.1021
  209MOL0     H27573  10.624   4.223   3.496 -0.1327  0.2641  1.0075
  209MOL0     H27574  10.913   3.669   4.551 -0.2673 -1.6001 -1.8225
  209MOL0     H27575  10.682   3.633   4.634 -1.8314 -0.9189  1.6449
  209MOL0     H27576  10.436   3.337   5.136  0.0791  0.6074 -0.2510
  209MOL0     H27577  10.213   3.345   5.211 -0.4597 -1.0654 -1.4956
  209MOL0     H27578  10.018   3.352   5.262 -2.3003 -0.1204  0.5722
  209MOL0     H27579   9.976   3.285   5.106 -0.0648 -0.9218  0.3119
  209MOL0     H27580   9.808   3.523   5.225 -3.3473 -0.2674 -0.9110
  209MOL0     H27581   9.771   3.394   5.105  1.6871 -4.0860 -0.0990
  209MOL0     H27582   9.802   3.238   5.309  2.8097  0.9290 -1.0463
  209MOL0     H27583   9.653   3.333   5.307 -0.0844  0.0524 -3.2805
  209MOL0     H27584   9.912   3.419   5.454 -0.7375  0.9685 -0.3963
  209MOL0     H27585   9.749   3.494   5.463  0.9709  0.0349  2.7234
  209MOL0     H27586   9.689   3.191   5.733 -0.0515  0.2226 -0.3004
  209MOL0     H27587  10.135   3.686   4.969  0.6698  1.8356 -0.9732
  209MOL0     H27588  10.371   3.688   4.891  1.7807 -2.0729  0.0027
  210MOL0     O27589   3.615   9.950   0.256  0.1099  0.2997  0.0393
  210MOL0     C27590   3.626   9.974   0.136  0.1617 -0.1223 -0.2056
  210MOL0     O27591   3.530   9.966   0.050  0.2901 -0.0331 -0.0168
  210MOL0     C27592   3.396   9.969   0.095 -0.2030  1.2601  0.3975
  210MOL0     C27593   3.349  10.047   0.205 -0.4321  0.1996  0.3950
  210MOL0     C27594   3.220  10.066   0.240  0.6113  0.6228 -0.7514
  210MOL0     C27595   3.122  10.008   0.172 -0.5950  0.5260 -0.4990
  210MOL0     O27596   2.988  10.012   0.202  0.0151 -0.2686  0.0627
  210MOL0     C27597   2.941  10.148   0.207  0.5962 -0.3724 -0.6043
  210MOL0     C27598   2.829  10.169   0.127  0.6869  0.4301 -0.4131
  210MOL0     C27599   2.763  10.312   0.151 -0.9161  0.6926 -0.0977
  210MOL0     C27600   2.628  10.349   0.083  0.0612  0.0381  0.0501
  210MOL0     C27601   2.635  10.322  -0.067  0.0033  0.9450  0.9044
  210MOL0     C27602   2.500  10.339  -0.152 -0.2436 -0.7803  0.1542
  210MOL0     C27603   2.403  10.223  -0.113  0.0165 -0.2206 -0.6572
  210MOL0     C27604   2.286  10.222  -0.211 -0.2303  0.7280 -0.1977
  210MOL0     N27605   2.216  10.353  -0.241  0.1263  0.1884 -0.5778
  210MOL0     C27606   2.143  10.412  -0.139  0.1366 -0.6280  0.6558
  210MOL0     C27607   2.072  10.508  -0.210 -0.0707 -0.2645 -0.0209
  210MOL0     C27608   1.984  10.605  -0.137  1.0371  1.0476  0.0759
  210MOL0     C27609   2.053  10.737  -0.151 -0.2944 -0.1367  0.3970
  210MOL0     C27610   1.964  10.850  -0.099 -0.2266 -0.1660 -0.3840
  210MOL0     C27611   1.885  10.934  -0.194  0.3053 -0.2233 -0.2313
  210MOL0     O27612   1.760  10.962  -0.132  0.2637  0.0974 -0.8253
  210MOL0     C27613   1.640  10.914  -0.182 -0.2854 -0.6038  1.0939
  210MOL0     C27614   1.562  10.831  -0.104  0.3337 -0.5212  0.4960
  210MOL0     C27615   1.437  10.786  -0.151 -1.0701 -0.5171 -0.3006
  210MOL0     C27616   1.393  10.826  -0.283 -0.0791 -0.9038  0.2674
  210MOL0     C27617   1.270  10.759  -0.349 -0.0946 -0.1593 -0.4347
  210MOL0     O27618   1.214  10.816  -0.460 -0.5032  0.2923  0.7105
  210MOL0     C27619   1.103  10.769  -0.524 -0.7071  0.4934  0.8048
  210MOL0     C27620   1.006  10.672  -0.494  0.4588  0.9371 -0.3233
  210MOL0     C27621   0.881  10.646  -0.565 -1.1374 -0.2013 -0.4407
  210MOL0     C27622   0.864  10.708  -0.687  0.3256 -0.3609  0.0345
  210MOL0     O27623   0.750  10.676  -0.750 -0.5691 -0.4912 -0.3056
  210MOL0     C27624   0.684  10.779  -0.820  1.0478  0.9304  0.8994
  210MOL0     C27625   0.551  10.726  -0.869 -0.3563 -0.0710  0.6339
  210MOL0     C27626   0.564  10.626  -0.986  0.2457  0.5340 -0.0684
  210MOL0     C27627   0.450  10.522  -0.999 -0.4791 -0.6359  0.9461
  210MOL0     C27628   0.471  10.395  -0.931  1.0989  0.7425  0.7718
  210MOL0     C27629   0.527  10.406  -0.801  0.4146 -0.6105 -0.2969
  210MOL0     C27630   0.541  10.255  -0.756  0.1753  0.7697 -0.1278
  210MOL0     C27631   0.607  10.254  -0.614  0.2627  0.2663 -0.3721
  210MOL0    Cl27632   0.784  10.257  -0.642  0.3844 -0.5833 -0.5412
  210MOL0     C27633   0.967  10.808  -0.724  0.4065  0.4382  0.6042
  210MOL0     C27634   1.076  10.829  -0.645 -0.4206 -0.2490 -0.6263
  210MOL0     O27635   1.217  10.666  -0.286 -0.5112 -0.8341 -0.4228
  210MOL0     C27636   1.478  10.899  -0.364 -0.2053  1.3358  0.0535
  210MOL0     C27637   1.594  10.952  -0.311  0.4088 -1.6298 -0.1278
  210MOL0     N27638   2.096  10.507  -0.349 -0.3967  0.2390 -0.5759
  210MOL0     N27639   2.187  10.411  -0.368  0.0391 -0.2917  0.0274
  210MOL0     C27640   3.163   9.933   0.057  0.4204  0.1454 -0.5174
  210MOL0     C27641   3.301   9.917   0.019  0.2983 -0.7150  0.0673
  210MOL0     C27642   3.764   9.977   0.090 -0.6059  0.4507  0.0905
  210MOL0     C27643   3.880   9.968   0.173  0.1331  0.3501 -0.7446
  210MOL0     C27644   4.007   9.960   0.112 -1.0442  0.1600 -0.1526
  210MOL0     C27645   4.022   9.964  -0.029  0.3524  0.7711 -0.1172
  210MOL0     O27646   4.141   9.964  -0.103 -0.1846  0.4965  0.2659
  210MOL0     C27647   4.252   9.930  -0.025 -0.3284 -0.0826 -0.2869
  210MOL0     C27648   4.374   9.918  -0.113 -0.2287 -0.9318  0.2026
  210MOL0     C27649   4.511   9.911  -0.057 -0.2652 -0.4149 -0.1850
  210MOL0     C27650   4.569   9.781  -0.007  0.0361  0.1516  0.5330
  210MOL0     C27651   4.712   9.765  -0.022 -0.3732  0.3838 -0.6634
  210MOL0     C27652   4.833   9.739  -0.028 -0.3681  0.2354 -1.0244
  210MOL0     C27653   3.905   9.957  -0.112 -0.0296 -0.4739  0.3376
  210MOL0     C27654   3.779   9.970  -0.055 -0.1320 -0.3826 -0.5609
  210MOL0     H27655   3.418  10.115   0.254  1.1824  0.0713 -1.5557
  210MOL0     H27656   3.183  10.124   0.324 -2.7497 -3.1303  0.7054
  210MOL0     H27657   3.013  10.217   0.162  0.6891  0.7274  1.1376
  210MOL0     H27658   2.927  10.174   0.312  3.1628 -0.8818 -0.0655
  210MOL0     H27659   2.749  10.099   0.153  0.4562  1.6881  2.6979
  210MOL0     H27660   2.863  10.149   0.025  1.3573 -1.0804  0.0659
  210MOL0     H27661   2.830  10.393   0.119  0.5329  0.0505  1.1371
  210MOL0     H27662   2.755  10.331   0.259  0.4165  1.4939 -0.1098
  210MOL0     H27663   2.554  10.285   0.132  0.2715 -1.9799 -2.0939
  210MOL0     H27664   2.599  10.454   0.098  2.8530  0.7590  1.0620
  210MOL0     H27665   2.684  10.226  -0.088  1.8406  1.5191  2.2863
  210MOL0     H27666   2.700  10.399  -0.109  0.0768  1.2765  1.6169
  210MOL0     H27667   2.518  10.332  -0.259 -1.5866  0.5272 -0.1870
  210MOL0     H27668   2.447  10.431  -0.125 -0.5022 -0.8621 -0.0855
  210MOL0     H27669   2.453  10.126  -0.115  1.2772  0.3240  1.4830
  210MOL0     H27670   2.370  10.233  -0.009 -1.2199 -2.7002 -0.7528
  210MOL0     H27671   2.218  10.143  -0.180 -2.5283  2.5289 -0.4032
  210MOL0     H27672   2.318  10.195  -0.312 -3.4689  1.2177 -1.4828
  210MOL0     H27673   2.136  10.390  -0.033  0.6928 -1.1265  0.5924
  210MOL0     H27674   1.983  10.557  -0.038  0.7616 -2.9068 -1.6321
  210MOL0     H27675   1.878  10.600  -0.163  0.8523 -3.4621  0.7878
  210MOL0     H27676   2.069  10.764  -0.256 -0.9278  3.8056  1.1313
  210MOL0     H27677   2.149  10.731  -0.099 -1.1852  0.7355  2.2461
  210MOL0     H27678   1.891  10.808  -0.029 -1.3522  1.8755 -0.2643
  210MOL0     H27679   2.025  10.921  -0.042  0.9644  0.5791 -2.4751
  210MOL0     H27680   1.879  10.875  -0.287 -0.4058  0.2946 -0.5258
  210MOL0     H27681   1.935  11.025  -0.227  1.7427 -0.5146  1.0641
  210MOL0     H27682   1.593  10.823  -0.001 -0.3570  0.7059  0.8179
  210MOL0     H27683   1.382  10.713  -0.093 -1.5738 -1.2265 -1.6363
  210MOL0     H27684   1.003  10.618  -0.400 -2.4300  1.4780 -0.0204
  210MOL0     H27685   0.801  10.584  -0.526 -1.5781  1.2739  1.1746
  210MOL0     H27686   0.742  10.815  -0.906 -1.5773  0.3759 -1.2386
  210MOL0     H27687   0.668  10.872  -0.763  1.5481  3.3819 -2.6279
  210MOL0     H27688   0.478  10.805  -0.889  1.0525  1.4265  1.1849
  210MOL0     H27689   0.505  10.667  -0.790 -0.3220 -0.2397  0.5283
  210MOL0     H27690   0.656  10.569  -0.974 -1.2212 -2.0292 -0.3253
  210MOL0     H27691   0.568  10.693  -1.073  1.3400  0.4032 -0.1392
  210MOL0     H27692   0.369  10.579  -0.952 -0.1924 -0.2985  1.0328
  210MOL0     H27693   0.420  10.508  -1.103  1.8472 -0.2964  0.1780
  210MOL0     H27694   0.539  10.336  -0.994 -0.2027  1.5214 -1.4871
  210MOL0     H27695   0.378  10.337  -0.926  1.3364  0.4560  2.8693
  210MOL0     H27696   0.460  10.457  -0.731  0.4087 -2.8400  1.4488
  210MOL0     H27697   0.629  10.445  -0.802 -0.5060  1.9584 -1.2572
  210MOL0     H27698   0.443  10.206  -0.754 -0.3688  1.8492  1.6362
  210MOL0     H27699   0.601  10.205  -0.832  0.7232 -0.1360  0.8662
  210MOL0     H27700   0.580  10.159  -0.566 -0.5478  1.0650  0.7958
  210MOL0     H27701   0.569  10.340  -0.558 -0.0302 -0.7428  1.0376
  210MOL0     H27702   0.950  10.867  -0.813  1.4526  0.5541  0.4733
  210MOL0     H27703   1.147  10.898  -0.689 -0.6372 -1.1853 -2.5762
  210MOL0     H27704   1.457  10.917  -0.469 -0.3197  0.8192 -0.0194
  210MOL0     H27705   1.647  11.021  -0.374 -4.5207  1.8359 -1.0427
  210MOL0     H27706   3.077   9.883   0.014 -0.0717 -0.2107  0.8325
  210MOL0     H27707   3.337   9.855  -0.063  1.8675 -0.7190  0.7293
  210MOL0     H27708   3.873   9.947   0.279  2.0433  0.2790 -0.6045
  210MOL0     H27709   4.094   9.939   0.175 -0.5254 -1.9688 -1.4670
  210MOL0     H27710   4.224   9.839   0.029 -2.4654 -0.3586 -1.7606
  210MOL0     H27711   4.267  10.003   0.055 -2.1131 -0.3819  0.3629
  210MOL0     H27712   4.367   9.837  -0.186  0.5552 -1.6910  0.9543
  210MOL0     H27713   4.375  10.009  -0.174 -0.2347 -1.7160 -1.0119
  210MOL0     H27714   4.515   9.984   0.025 -5.5653 -1.7037  1.5642
  210MOL0     H27715   4.569   9.944  -0.144  0.6882 -0.1355  0.5448
  210MOL0     H27716   4.546   9.785   0.100 -0.8663 -0.8143  0.3892
  210MOL0     H27717   4.523   9.694  -0.055  4.1712 -1.4939 -0.9514
  210MOL0     H27718   4.934   9.716  -0.054 -0.7274 -1.5440 -1.0197
  210MOL0     H27719   3.913   9.956  -0.220  1.8320  0.2850  0.4397
  210MOL0     H27720   3.686   9.974  -0.111 -3.0721  1.6353  3.8880
  211MOL0     O27721   5.546   8.013   8.289  0.4301 -0.0892 -0.4370
  211MOL0     C27722   5.600   8.064   8.193 -0.3330  0.1826  0.5486
  211MOL0     O27723   5.565   8.050   8.062  1.0513  0.2096  0.0380
  211MOL0     C27724   5.433   8.018   8.029 -0.3780  0.3703 -0.1985
  211MOL0     C27725   5.340   8.088   8.098  0.3867  0.4751  0.6413
  211MOL0     C27726   5.206   8.076   8.052 -0.1570 -0.0271 -0.5754
  211MOL0     C27727   5.169   7.995   7.955  0.3705 -0.3653 -0.2240
  211MOL0     O27728   5.044   7.984   7.919  0.0069 -1.1180  0.2880
  211MOL0     C27729   4.960   8.106   7.912  0.2989 -0.5153  0.9433
  211MOL0     C27730   4.865   8.102   8.032 -0.1965  1.3362  0.3728
  211MOL0     C27731   4.761   8.215   8.039 -0.3672  0.8237 -0.6589
  211MOL0     C27732   4.668   8.229   7.921 -0.2954 -0.2264  0.2842
  211MOL0     C27733   4.552   8.326   7.966 -0.1538  0.2612 -0.5307
  211MOL0     C27734   4.472   8.357   7.826  0.4770 -0.6476 -1.3477
  211MOL0     C27735   4.330   8.404   7.859  0.0509 -0.3577 -0.4946
  211MOL0     C27736   4.263   8.445   7.731  0.7426 -0.7738 -1.0268
  211MOL0     N27737   4.119   8.486   7.747 -0.5349  0.4822  0.8611
  211MOL0     C27738   4.058   8.613   7.737  0.3675 -0.5174 -0.1863
  211MOL0     C27739   3.929   8.572   7.731 -0.0884 -1.1213 -1.1676
  211MOL0     C27740   3.815   8.668   7.729 -0.4930  0.2319  0.3744
  211MOL0     C27741   3.766   8.703   7.872 -0.0330  0.6125 -0.0659
  211MOL0     C27742   3.643   8.797   7.879  0.4732  0.2362  0.2786
  211MOL0     C27743   3.670   8.929   7.801  1.2537 -0.6223 -0.0524
  211MOL0     O27744   3.783   8.993   7.856  0.5010  0.4048  0.2105
  211MOL0     C27745   3.858   9.060   7.762  0.5045 -0.6089  0.5472
  211MOL0     C27746   3.814   9.104   7.636 -0.1569  0.1270  0.8243
  211MOL0     C27747   3.893   9.183   7.545 -0.3178  0.3417  0.4749
  211MOL0     C27748   4.028   9.218   7.577 -0.6129  0.1079  0.6834
  211MOL0     C27749   4.120   9.309   7.493 -0.5055  0.5431 -0.2418
  211MOL0     O27750   4.249   9.321   7.513 -0.4250 -0.0989  0.1810
  211MOL0     C27751   4.329   9.399   7.440  0.0908 -0.9391 -0.7135
  211MOL0     C27752   4.446   9.443   7.508  0.7104  1.0998  0.4248
  211MOL0     C27753   4.548   9.511   7.447  0.1601 -0.1570 -0.6010
  211MOL0     C27754   4.530   9.546   7.314  0.2206 -0.5539 -0.5031
  211MOL0     O27755   4.645   9.618   7.268 -0.8732  1.1164 -0.0302
  211MOL0     C27756   4.634   9.685   7.141 -0.0585 -0.2836 -0.6895
  211MOL0     C27757   4.771   9.757   7.117 -0.8010  0.2788  0.6195
  211MOL0     C27758   4.743   9.874   7.032 -0.1796 -0.2305 -0.2710
  211MOL0     C27759   4.675   9.822   6.905  0.7979 -0.6871  0.6507
  211MOL0     C27760   4.663   9.941   6.798 -0.3023  0.6489  0.2611
  211MOL0     C27761   4.593   9.897   6.655  0.0804 -0.0106  0.1051
  211MOL0     C27762   4.678   9.778   6.596  0.0265 -0.0014 -1.0900
  211MOL0     C27763   4.826   9.806   6.570 -0.3987  0.0385  0.8978
  211MOL0    Cl27764   4.904   9.711   6.437  0.6775  0.1070  0.0670
  211MOL0     C27765   4.417   9.508   7.239 -0.4455 -0.1489 -0.2974
  211MOL0     C27766   4.322   9.429   7.305  0.4604  0.4821  0.0076
  211MOL0     O27767   4.055   9.367   7.404  0.5150  0.3000  0.0896
  211MOL0     C27768   4.074   9.175   7.702 -0.4139 -0.9912  0.5803
  211MOL0     C27769   3.988   9.107   7.792 -0.1979  0.2805  0.4925
  211MOL0     N27770   3.916   8.437   7.756  0.0207 -0.2759  1.6700
  211MOL0     N27771   4.033   8.388   7.762  0.6029  0.1845  0.6124
  211MOL0     C27772   5.264   7.920   7.884 -0.5561  0.9408  0.8735
  211MOL0     C27773   5.399   7.940   7.910 -0.1053 -0.1502  0.2677
  211MOL0     C27774   5.728   8.125   8.223 -0.8512  0.2588 -0.1134
  211MOL0     C27775   5.800   8.185   8.123  0.1918  0.8652 -0.0829
  211MOL0     C27776   5.938   8.214   8.129  0.0256  0.1156 -0.2300
  211MOL0     C27777   6.006   8.201   8.248 -0.8909 -0.1777  0.0373
  211MOL0     O27778   6.131   8.245   8.274 -0.4924  0.1342 -0.0789
  211MOL0     C27779   6.192   8.338   8.183 -0.6262 -0.8531  0.3929
  211MOL0     C27780   6.305   8.420   8.242 -0.6387 -0.4150  0.4086
  211MOL0     C27781   6.415   8.437   8.140 -1.0991  0.6710  0.4680
  211MOL0     C27782   6.518   8.527   8.200  0.0361 -0.2221  0.0735
  211MOL0     C27783   6.630   8.550   8.106 -0.4759 -0.5175  0.2302
  211MOL0     C27784   6.728   8.560   8.036  0.2649 -0.5662  0.4639
  211MOL0     C27785   5.945   8.126   8.351  0.5765  0.6607  0.8581
  211MOL0     C27786   5.804   8.087   8.340  0.1821  0.4478  0.8241
  211MOL0     H27787   5.357   8.160   8.177  3.5400  1.1975 -0.5436
  211MOL0     H27788   5.131   8.143   8.094 -1.0324 -1.5344  0.3637
  211MOL0     H27789   4.896   8.101   7.823 -0.3937  2.4515  1.1722
  211MOL0     H27790   5.012   8.201   7.897  0.9547 -1.0059 -0.0199
  211MOL0     H27791   4.925   8.098   8.124 -1.1881  1.5011  1.0379
  211MOL0     H27792   4.804   8.012   8.019  0.3951  0.8570  0.8590
  211MOL0     H27793   4.812   8.309   8.062 -1.2497  1.4289 -1.1149
  211MOL0     H27794   4.691   8.185   8.117 -3.6403 -0.3727 -3.7759
  211MOL0     H27795   4.713   8.278   7.834 -2.2889  0.0428 -0.6419
  211MOL0     H27796   4.625   8.136   7.884  1.2905 -0.0110 -2.4012
  211MOL0     H27797   4.582   8.420   8.014  0.4783  0.9263 -2.1569
  211MOL0     H27798   4.488   8.263   8.028  0.5223  1.1308  1.0938
  211MOL0     H27799   4.463   8.259   7.779  1.0447 -2.7816  2.5511
  211MOL0     H27800   4.520   8.442   7.776  1.1981  0.4270  1.0179
  211MOL0     H27801   4.275   8.318   7.898 -3.8423  1.9705 -0.2797
  211MOL0     H27802   4.331   8.485   7.933 -0.0726 -1.9014  1.2645
  211MOL0     H27803   4.251   8.363   7.660  1.3409 -2.5069  0.7492
  211MOL0     H27804   4.312   8.534   7.690 -0.0634  0.8237  1.2413
  211MOL0     H27805   4.087   8.717   7.736 -0.4319 -0.2794  0.3514
  211MOL0     H27806   3.731   8.617   7.680 -0.1983 -0.9643  1.0674
  211MOL0     H27807   3.846   8.760   7.679 -0.5651  1.1474  1.9578
  211MOL0     H27808   3.848   8.746   7.930  1.7905 -0.3986 -1.7546
  211MOL0     H27809   3.741   8.617   7.935  0.5790  0.6724  0.2588
  211MOL0     H27810   3.560   8.739   7.838 -1.0710  3.3127 -1.2979
  211MOL0     H27811   3.623   8.832   7.981  0.8179  0.2493  0.3417
  211MOL0     H27812   3.590   9.002   7.817  2.0969  0.3949 -0.3450
  211MOL0     H27813   3.667   8.908   7.694  0.7544  2.1712 -0.6667
  211MOL0     H27814   3.716   9.081   7.594  1.1925 -2.6889 -1.1233
  211MOL0     H27815   3.861   9.214   7.446  1.3675  1.4212  0.2230
  211MOL0     H27816   4.467   9.417   7.611  2.0998 -5.5105 -1.0489
  211MOL0     H27817   4.635   9.544   7.503 -0.9352  0.0403  1.0739
  211MOL0     H27818   4.549   9.754   7.145 -1.0687 -1.5585  0.8225
  211MOL0     H27819   4.619   9.617   7.057 -0.3624  1.8709 -2.4677
  211MOL0     H27820   4.842   9.688   7.071 -2.2247 -0.5451 -0.4105
  211MOL0     H27821   4.807   9.796   7.213 -3.5399 -0.6404  2.1426
  211MOL0     H27822   4.837   9.927   7.019 -1.5171  2.5814  0.6718
  211MOL0     H27823   4.670   9.944   7.074 -4.2200 -2.1650 -3.3233
  211MOL0     H27824   4.726   9.734   6.866 -1.9834 -1.8365 -0.6094
  211MOL0     H27825   4.569   9.801   6.925 -0.1876  3.1325  0.2568
  211MOL0     H27826   4.759   9.983   6.765 -0.7075  3.2280  2.0179
  211MOL0     H27827   4.601  10.017   6.848  0.6175  1.5031  0.1438
  211MOL0     H27828   4.580   9.985   6.591 -0.2450  1.5430  2.1975
  211MOL0     H27829   4.495   9.853   6.674 -0.2657 -0.2871 -2.0857
  211MOL0     H27830   4.671   9.692   6.664 -0.7211 -0.4999 -1.7751
  211MOL0     H27831   4.626   9.751   6.504  0.7571 -2.3373 -0.8898
  211MOL0     H27832   4.888   9.799   6.660 -1.5161  0.8404  1.7672
  211MOL0     H27833   4.842   9.908   6.533  0.6602 -0.6315 -0.6022
  211MOL0     H27834   4.403   9.537   7.135 -0.1952  1.3792  0.0748
  211MOL0     H27835   4.230   9.402   7.254  1.7444 -1.1943 -1.5607
  211MOL0     H27836   4.165   9.219   7.743  0.2331 -0.1623 -1.6315
  211MOL0     H27837   4.025   9.076   7.889  3.4722  2.6053  0.0160
  211MOL0     H27838   5.231   7.851   7.807  0.9283  2.7242 -1.5190
  211MOL0     H27839   5.480   7.890   7.856  1.0882  1.0195  0.9237
  211MOL0     H27840   5.738   8.197   8.034 -0.9468 -0.5827  0.4852
  211MOL0     H27841   5.994   8.256   8.046  1.9073 -0.7901  0.5413
  211MOL0     H27842   6.124   8.418   8.152  1.1225  0.1845 -0.9280
  211MOL0     H27843   6.223   8.271   8.103 -2.9220 -0.3506 -1.0094
  211MOL0     H27844   6.265   8.512   8.287 -1.2395  0.1546 -1.2210
  211MOL0     H27845   6.338   8.365   8.331 -0.9021 -1.4489 -0.1218
  211MOL0     H27846   6.378   8.464   8.041 -0.6049 -2.2826 -0.6173
  211MOL0     H27847   6.472   8.345   8.121  2.6242  2.8397  0.0099
  211MOL0     H27848   6.462   8.614   8.235 -2.8094 -2.6172  1.9044
  211MOL0     H27849   6.567   8.479   8.285  1.9667 -0.1623 -0.9514
  211MOL0     H27850   6.825   8.570   7.992  0.4715 -1.2882  0.7309
  211MOL0     H27851   6.003   8.107   8.440 -0.3430  0.8914  1.5308
  211MOL0     H27852   5.754   8.033   8.420  0.7523  0.7175  1.3640
  212MOL0     O27853  10.203   8.264   2.217 -0.2905  0.2425 -0.6103
  212MOL0     C27854  10.188   8.360   2.142  0.0368 -0.3284 -0.9078
  212MOL0     O27855  10.104   8.370   2.033  0.3707 -0.5186  0.1692
  212MOL0     C27856  10.000   8.280   2.004 -0.5001  0.4249 -0.6886
  212MOL0     C27857   9.955   8.270   1.879  0.7219 -0.4154  0.3017
  212MOL0     C27858   9.858   8.175   1.830 -0.6794  0.1557 -0.1568
  212MOL0     C27859   9.800   8.096   1.922 -0.2783  0.4744  0.7384
  212MOL0     O27860   9.712   8.010   1.868 -0.7969  0.9916 -0.0957
  212MOL0     C27861   9.612   7.963   1.954 -0.1609  0.4690  0.0665
  212MOL0     C27862   9.515   7.877   1.876  0.5387  0.4389 -0.4543
  212MOL0     C27863   9.429   7.801   1.975  0.5713 -0.3632 -0.4915
  212MOL0     C27864   9.328   7.725   1.886 -0.1627  0.4300  0.5921
  212MOL0     C27865   9.200   7.695   1.954 -0.9977 -0.4076 -0.5672
  212MOL0     C27866   9.110   7.819   1.972  0.0313 -0.1725  0.2816
  212MOL0     C27867   8.962   7.771   1.978 -0.4443  0.4463  0.4550
  212MOL0     C27868   8.863   7.854   2.058 -0.2954 -0.3249 -0.0344
  212MOL0     N27869   8.718   7.838   2.024 -0.9844  0.0484  0.2484
  212MOL0     C27870   8.638   7.910   1.942  0.6682  0.6186  0.0053
  212MOL0     C27871   8.522   7.838   1.945  0.0884 -0.5980  0.1806
  212MOL0     C27872   8.395   7.877   1.876  0.0888  0.0853 -0.4239
  212MOL0     C27873   8.271   7.793   1.947 -0.0325  0.1929  0.3118
  212MOL0     C27874   8.138   7.866   1.918  0.5367 -0.5003  0.1214
  212MOL0     C27875   8.040   7.835   2.031 -0.3960  0.2476  0.2985
  212MOL0     O27876   7.895   7.874   2.026  0.0513  0.7877 -0.3038
  212MOL0     C27877   7.814   7.822   2.121 -0.7076 -0.2787 -0.6472
  212MOL0     C27878   7.682   7.837   2.096  0.3220  0.3490  0.2087
  212MOL0     C27879   7.576   7.782   2.171  0.7275  0.2906 -0.0312
  212MOL0     C27880   7.600   7.715   2.291 -0.3153 -0.2464 -0.3722
  212MOL0     C27881   7.500   7.640   2.369  2.1202 -0.4590 -0.2264
  212MOL0     O27882   7.546   7.559   2.464  0.4389  0.2232 -0.0065
  212MOL0     C27883   7.454   7.476   2.523 -0.4601  0.9683  0.2732
  212MOL0     C27884   7.366   7.516   2.630  0.5846 -0.3157  0.7479
  212MOL0     C27885   7.277   7.433   2.691  0.7689 -0.0328  0.0127
  212MOL0     C27886   7.259   7.302   2.643 -0.7001  0.3115 -0.2770
  212MOL0     O27887   7.171   7.234   2.721 -0.0693 -0.4897  0.7816
  212MOL0     C27888   7.157   7.092   2.692  0.1728 -0.0141 -0.1581
  212MOL0     C27889   7.083   7.013   2.803 -0.9643 -0.0175 -0.2988
  212MOL0     C27890   6.936   7.051   2.822  0.3773 -0.0934  0.1691
  212MOL0     C27891   6.918   7.174   2.925  0.7426  0.1330  0.0768
  212MOL0     C27892   6.781   7.244   2.931 -0.5335  0.7348 -0.7131
  212MOL0     C27893   6.667   7.158   2.984 -0.2689 -0.2133 -0.3707
  212MOL0     C27894   6.603   7.092   2.862  0.6591  0.5673 -0.1407
  212MOL0     C27895   6.485   6.981   2.902 -0.0216  0.1246  0.4296
  212MOL0    Cl27896   6.376   6.953   2.755 -0.1083  0.3172 -0.0485
  212MOL0     C27897   7.336   7.261   2.527  0.3234 -0.1850 -0.2515
  212MOL0     C27898   7.437   7.343   2.476 -0.8889 -0.4696  0.0429
  212MOL0     O27899   7.378   7.648   2.334 -0.7813 -0.0623 -0.1053
  212MOL0     C27900   7.743   7.694   2.321 -0.1632  0.2316  0.0042
  212MOL0     C27901   7.851   7.744   2.235 -0.6213 -0.2827  0.3884
  212MOL0     N27902   8.526   7.743   2.048 -0.2390  0.3451 -0.8911
  212MOL0     N27903   8.646   7.745   2.094 -0.1003  0.8171  0.3546
  212MOL0     C27904   9.837   8.104   2.059 -0.2920 -0.7615  0.9840
  212MOL0     C27905   9.942   8.200   2.101  0.6177 -0.0306  0.2618
  212MOL0     C27906  10.277   8.474   2.168 -0.4965  0.8712 -0.0370
  212MOL0     C27907  10.297   8.570   2.074 -0.2800  0.7643  0.5140
  212MOL0     C27908  10.377   8.680   2.091 -0.2549 -0.1564 -0.1242
  212MOL0     C27909  10.444   8.696   2.212 -0.0598 -0.0082  0.2984
  212MOL0     O27910  10.518   8.806   2.223 -0.3532  0.2763 -0.0320
  212MOL0     C27911  10.656   8.764   2.201 -0.2414  0.7488  0.9482
  212MOL0     C27912  10.751   8.873   2.151 -0.1906  0.5572 -0.1382
  212MOL0     C27913  10.760   8.994   2.244 -0.9699  0.9476 -0.1168
  212MOL0     C27914  10.846   9.107   2.183 -0.2795  0.3738  0.3906
  212MOL0     C27915  10.895   9.208   2.276 -0.8436 -0.2777  0.2152
  212MOL0     C27916  10.950   9.286   2.357  0.3036  0.0907  0.2260
  212MOL0     C27917  10.436   8.600   2.308  0.6585  0.5333  0.5526
  212MOL0     C27918  10.346   8.495   2.289 -0.6470 -0.0513 -0.0365
  212MOL0     H27919   9.996   8.339   1.806  0.7142 -0.6432  0.0779
  212MOL0     H27920   9.842   8.159   1.724 -0.9630 -1.1077  0.0593
  212MOL0     H27921   9.555   8.041   2.004 -2.2592 -1.3940  0.7766
  212MOL0     H27922   9.661   7.903   2.031  4.1657  0.4499 -2.3488
  212MOL0     H27923   9.582   7.808   1.825  1.0141  0.8259 -0.3649
  212MOL0     H27924   9.458   7.937   1.804  1.3780 -1.0322 -2.4324
  212MOL0     H27925   9.385   7.876   2.041  1.4905 -1.1324  1.0362
  212MOL0     H27926   9.477   7.729   2.041  0.5983  0.5624  0.5174
  212MOL0     H27927   9.313   7.772   1.789 -0.3341 -1.8105 -0.5237
  212MOL0     H27928   9.367   7.625   1.869 -0.9034  0.3019 -0.4626
  212MOL0     H27929   9.214   7.652   2.053  0.8449 -0.8949 -1.0013
  212MOL0     H27930   9.145   7.626   1.888 -3.1012  1.8036 -1.2962
  212MOL0     H27931   9.130   7.897   1.898 -2.6852  0.1983 -0.1801
  212MOL0     H27932   9.128   7.870   2.068 -1.5476 -2.0048  1.6218
  212MOL0     H27933   8.935   7.765   1.872  0.2965  0.4764  0.2579
  212MOL0     H27934   8.962   7.667   2.012 -1.6636  0.3752  0.2953
  212MOL0     H27935   8.874   7.963   2.054 -0.1350 -0.3717 -1.9394
  212MOL0     H27936   8.868   7.821   2.162 -0.6290  0.3276  0.1968
  212MOL0     H27937   8.644   7.985   1.864  0.2922 -1.5929 -2.2989
  212MOL0     H27938   8.399   7.849   1.770 -2.1617 -0.8460 -0.3263
  212MOL0     H27939   8.374   7.982   1.896 -3.4559 -0.7538  1.1807
  212MOL0     H27940   8.285   7.770   2.053  0.5549  0.0365  0.2022
  212MOL0     H27941   8.274   7.701   1.888 -0.7139 -0.1728  0.8269
  212MOL0     H27942   8.159   7.974   1.919 -1.6247  0.0632 -2.7152
  212MOL0     H27943   8.112   7.838   1.816 -0.7538 -0.1172  0.3195
  212MOL0     H27944   8.081   7.882   2.120  0.7127 -0.6213  0.2796
  212MOL0     H27945   8.039   7.726   2.045 -2.3848  0.3172  0.9367
  212MOL0     H27946   7.657   7.892   2.006 -0.4107  0.0931  0.2482
  212MOL0     H27947   7.471   7.799   2.147  0.5776 -2.1015 -1.4351
  212MOL0     H27948   7.369   7.622   2.653  3.3864 -0.3881  1.0605
  212MOL0     H27949   7.218   7.471   2.774  0.8585 -1.0620  0.5619
  212MOL0     H27950   7.255   7.044   2.683  0.6594  0.5218  1.7455
  212MOL0     H27951   7.102   7.078   2.598  1.2212  0.0112 -0.7824
  212MOL0     H27952   7.137   7.019   2.898  0.3977  4.2634 -1.1154
  212MOL0     H27953   7.081   6.904   2.793 -0.2622 -0.2494  1.7168
  212MOL0     H27954   6.889   6.960   2.862 -0.2550  0.0815 -0.1614
  212MOL0     H27955   6.878   7.069   2.731 -1.3409 -0.6627  1.1041
  212MOL0     H27956   6.939   7.142   3.028 -1.3084  0.0372  0.5127
  212MOL0     H27957   6.996   7.244   2.895 -0.7894  1.8652 -0.0379
  212MOL0     H27958   6.758   7.269   2.827 -0.2953 -1.3328 -1.2938
  212MOL0     H27959   6.775   7.328   3.001 -1.2085 -2.4826  3.4468
  212MOL0     H27960   6.600   7.224   3.040  1.2075 -0.0127  1.2300
  212MOL0     H27961   6.698   7.087   3.061 -0.9499 -0.8833 -0.7061
  212MOL0     H27962   6.561   7.172   2.800  0.3140  0.4622 -0.0443
  212MOL0     H27963   6.673   7.053   2.788 -0.4510 -0.2706 -0.7798
  212MOL0     H27964   6.429   7.010   2.992  0.3371  1.7347  0.1758
  212MOL0     H27965   6.535   6.888   2.928  3.6692  2.0462  0.8547
  212MOL0     H27966   7.320   7.167   2.476  0.1566 -0.1853 -0.2014
  212MOL0     H27967   7.498   7.304   2.395 -0.2318 -0.9730  0.7590
  212MOL0     H27968   7.774   7.622   2.397  4.0346  0.1750 -1.4980
  212MOL0     H27969   7.951   7.707   2.254 -1.2917 -2.8109 -0.5553
  212MOL0     H27970   9.788   8.053   2.141 -1.1857  0.4119  1.2056
  212MOL0     H27971   9.949   8.207   2.209 -2.0610 -3.3100  0.8280
  212MOL0     H27972  10.247   8.553   1.979 -0.5211  0.5149  0.6831
  212MOL0     H27973  10.382   8.756   2.015  3.1167 -1.9294 -1.9308
  212MOL0     H27974  10.665   8.684   2.127  2.0778  0.8173  1.0643
  212MOL0     H27975  10.697   8.723   2.294 -1.3609 -3.9478 -0.3601
  212MOL0     H27976  10.839   8.826   2.107  0.2161 -1.1564  2.3092
  212MOL0     H27977  10.708   8.920   2.062  0.9127  3.2901  0.6866
  212MOL0     H27978  10.810   8.959   2.335 -3.3632 -2.2842  0.1112
  212MOL0     H27979  10.657   9.016   2.272 -3.3893 -5.7220 -1.9634
  212MOL0     H27980  10.930   9.063   2.129 -0.3997  0.5244  0.0782
  212MOL0     H27981  10.781   9.160   2.112  0.1026 -1.6059 -1.5329
  212MOL0     H27982  10.988   9.348   2.435 -2.7780  0.6929  1.3935
  212MOL0     H27983  10.500   8.599   2.396 -1.4753  0.2606  2.2053
  212MOL0     H27984  10.333   8.422   2.368  3.1507 -2.2307 -1.1560
  213MOL0     O27985   8.631   9.341   7.670  0.6207  0.2468 -0.4582
  213MOL0     C27986   8.594   9.247   7.600 -0.0354  0.2122 -0.2712
  213MOL0     O27987   8.675   9.142   7.559 -0.0245  0.0204 -0.1353
  213MOL0     C27988   8.810   9.136   7.581 -0.6956  0.8466 -0.6347
  213MOL0     C27989   8.871   9.153   7.709  0.3386 -0.3371  0.1807
  213MOL0     C27990   9.006   9.143   7.743 -0.4698  0.5266 -0.5609
  213MOL0     C27991   9.104   9.112   7.638  0.3385  0.0915 -0.4506
  213MOL0     O27992   9.240   9.112   7.646 -0.2174  0.3379 -0.0303
  213MOL0     C27993   9.316   9.141   7.759 -1.2649 -0.0300  0.0647
  213MOL0     C27994   9.460   9.115   7.711  0.7117 -0.2013 -0.3163
  213MOL0     C27995   9.550   9.091   7.825 -0.2387 -0.3735 -0.7982
  213MOL0     C27996   9.689   9.034   7.772 -0.4292  0.8649 -0.3723
  213MOL0     C27997   9.777   8.975   7.880  0.5876  0.8376 -0.0751
  213MOL0     C27998   9.847   9.073   7.962  0.0894 -0.6320 -0.5884
  213MOL0     C27999   9.949   9.019   8.071  0.0927  0.0652  0.5613
  213MOL0     C28000  10.065   8.936   8.020 -0.9453 -0.1195 -0.5917
  213MOL0     N28001  10.184   8.934   8.112  0.2764 -0.2488  0.6981
  213MOL0     C28002  10.310   8.913   8.064  0.3046 -0.0705 -0.2993
  213MOL0     C28003  10.387   8.889   8.168  0.3714 -0.2185 -0.6582
  213MOL0     C28004  10.535   8.866   8.177 -0.3105  0.0778 -0.2193
  213MOL0     C28005  10.597   8.797   8.052  0.0582 -0.0175  0.0553
  213MOL0     C28006  10.713   8.866   7.986  0.1187  0.0343 -0.0898
  213MOL0     C28007  10.827   8.907   8.073 -0.4559  0.2010 -0.7152
  213MOL0     O28008  10.933   8.886   7.984  0.4961 -0.5536  0.4890
  213MOL0     C28009  11.061   8.881   8.023 -0.7132 -0.1567 -0.3613
  213MOL0     C28010  11.100   8.944   8.143 -0.4119 -1.4356  0.3015
  213MOL0     C28011  11.235   8.947   8.186  0.5797 -0.0203  0.5827
  213MOL0     C28012  11.331   8.877   8.111  0.3994  0.2507 -0.7074
  213MOL0     C28013  11.474   8.883   8.146  0.3544  1.1900 -0.1915
  213MOL0     O28014  11.520   9.003   8.188  0.0269 -0.1153  0.1413
  213MOL0     C28015  11.650   9.033   8.217 -0.6187 -0.8465 -0.4327
  213MOL0     C28016  11.760   8.968   8.163  0.8128  0.3071 -0.6997
  213MOL0     C28017  11.891   9.017   8.170 -0.1394 -0.4796 -0.3137
  213MOL0     C28018  11.916   9.136   8.245  0.2644 -0.5849 -0.2150
  213MOL0     O28019  12.040   9.196   8.253 -0.2738  0.6757  0.5670
  213MOL0     C28020  12.087   9.180   8.385  0.0438  1.0363  0.4632
  213MOL0     C28021  12.228   9.119   8.379 -0.4832  0.5397 -0.4419
  213MOL0     C28022  12.337   9.226   8.352  1.1664  0.2150  0.7631
  213MOL0     C28023  12.486   9.169   8.334  0.7260 -0.0001  0.2703
  213MOL0     C28024  12.536   9.083   8.453 -0.7381  0.2300  0.7383
  213MOL0     C28025  12.682   9.020   8.436  0.0128 -0.3251 -1.0780
  213MOL0     C28026  12.714   8.923   8.545 -0.3250 -0.8364 -0.2480
  213MOL0     C28027  12.847   8.852   8.534  0.2377  0.9831  0.6864
  213MOL0    Cl28028  12.999   8.953   8.543  0.2786  0.1646  0.1343
  213MOL0     C28029  11.808   9.205   8.311  0.5364  0.0197  0.0564
  213MOL0     C28030  11.668   9.166   8.280 -1.2803  0.3047  0.1782
  213MOL0     O28031  11.545   8.785   8.109  0.4079 -0.3173  0.0566
  213MOL0     C28032  11.290   8.809   7.996  1.0606 -0.6683  0.2075
  213MOL0     C28033  11.163   8.816   7.949 -0.2234  1.0925  0.3882
  213MOL0     N28034  10.296   8.876   8.279 -0.5377  0.6611  0.7463
  213MOL0     N28035  10.177   8.890   8.244  0.3119  0.9003 -0.0391
  213MOL0     C28036   9.036   9.078   7.518  0.6104  0.4537  1.0056
  213MOL0     C28037   8.900   9.082   7.487 -0.4347 -0.2505  0.4138
  213MOL0     C28038   8.442   9.220   7.584  0.0952 -0.1116  0.6439
  213MOL0     C28039   8.392   9.085   7.544  0.4645 -0.4161  0.4451
  213MOL0     C28040   8.252   9.057   7.552  0.2810  0.1290  1.1955
  213MOL0     C28041   8.164   9.155   7.595  0.5659  0.7463 -0.1660
  213MOL0     O28042   8.029   9.123   7.598  0.2945 -0.4135 -0.0109
  213MOL0     C28043   7.976   9.003   7.546  0.6440  0.4120 -0.5518
  213MOL0     C28044   7.825   9.009   7.536 -0.2707  0.6591  0.1155
  213MOL0     C28045   7.749   9.150   7.508  0.0221  0.0447  0.4672
  213MOL0     C28046   7.738   9.241   7.627 -0.8269  0.4292  0.9749
  213MOL0     C28047   7.630   9.189   7.716 -0.0209 -0.2755  0.6539
  213MOL0     C28048   7.539   9.150   7.783  0.5156 -0.6473  0.3080
  213MOL0     C28049   8.215   9.284   7.625  0.2025  0.1803 -1.1028
  213MOL0     C28050   8.353   9.326   7.631 -0.8271  0.1596 -0.6451
  213MOL0     H28051   8.799   9.187   7.783 -1.2974 -1.4816 -0.8264
  213MOL0     H28052   9.045   9.148   7.844  1.9716  1.8826 -1.4743
  213MOL0     H28053   9.287   9.073   7.838 -2.6238 -0.0429 -0.4185
  213MOL0     H28054   9.317   9.246   7.790  1.3928 -0.2639  1.0146
  213MOL0     H28055   9.500   9.207   7.668  1.0215 -0.3074 -0.2546
  213MOL0     H28056   9.469   9.024   7.650  1.0787 -0.9322  0.8042
  213MOL0     H28057   9.516   9.012   7.893 -1.7694  1.9322  1.2879
  213MOL0     H28058   9.566   9.185   7.880 -1.2596 -1.6037  1.7602
  213MOL0     H28059   9.659   8.956   7.701 -1.5319  1.6258 -0.7749
  213MOL0     H28060   9.747   9.114   7.724 -1.2560  2.1622  0.7163
  213MOL0     H28061   9.855   8.912   7.837 -0.1209  0.4778 -0.8484
  213MOL0     H28062   9.712   8.913   7.944  0.4754  1.4001  0.3651
  213MOL0     H28063   9.776   9.141   8.009 -0.7453 -3.8329  3.3278
  213MOL0     H28064   9.917   9.130   7.900  3.3345  0.8328  3.8685
  213MOL0     H28065   9.995   9.103   8.124  0.2746  0.0741  0.3913
  213MOL0     H28066   9.895   8.955   8.141 -0.0551 -0.6869 -0.2309
  213MOL0     H28067  10.094   8.975   7.922 -4.4662  4.1551 -0.2381
  213MOL0     H28068  10.033   8.833   8.002  3.7374 -2.2606  1.4800
  213MOL0     H28069  10.354   8.915   7.964 -0.3025  0.0540 -0.5675
  213MOL0     H28070  10.557   8.819   8.273 -0.0497 -3.7328 -1.9590
  213MOL0     H28071  10.578   8.967   8.176  1.7231 -0.7329  0.2803
  213MOL0     H28072  10.523   8.774   7.974 -1.5626  0.8833  1.2732
  213MOL0     H28073  10.632   8.702   8.094 -2.4732 -1.3557 -0.6465
  213MOL0     H28074  10.744   8.791   7.913 -2.4379 -0.6793 -0.5371
  213MOL0     H28075  10.677   8.954   7.931 -2.1163 -1.3963 -1.0993
  213MOL0     H28076  10.842   8.851   8.166  2.1029  0.7169 -0.7569
  213MOL0     H28077  10.807   9.012   8.093 -2.2682 -0.2116 -0.1695
  213MOL0     H28078  11.022   8.998   8.196 -1.9781 -2.0339 -1.2882
  213MOL0     H28079  11.264   9.018   8.264 -0.4903  2.2084 -0.9427
  213MOL0     H28080  11.750   8.882   8.097 -0.0864 -2.2387  2.4826
  213MOL0     H28081  11.964   8.957   8.116  2.1802  2.2664 -0.4815
  213MOL0     H28082  12.033   9.103   8.441  3.1327 -1.7937 -0.1259
  213MOL0     H28083  12.087   9.272   8.444 -3.3278 -0.4288  3.0664
  213MOL0     H28084  12.224   9.046   8.297 -2.5467 -0.0745  0.1659
  213MOL0     H28085  12.240   9.076   8.479  1.2577 -0.1249 -0.8949
  213MOL0     H28086  12.338   9.300   8.432  1.2379 -1.7579  2.6665
  213MOL0     H28087  12.304   9.267   8.256  0.1717 -1.5374  0.2938
  213MOL0     H28088  12.488   9.102   8.247  0.7434  0.4865 -0.1077
  213MOL0     H28089  12.554   9.250   8.309 -2.0931  2.3033 -0.4557
  213MOL0     H28090  12.468   9.005   8.488  0.0313  0.6604  3.4311
  213MOL0     H28091  12.543   9.153   8.537 -1.2655 -1.5239  2.3070
  213MOL0     H28092  12.768   9.088   8.431 -0.0876 -0.1521 -0.5738
  213MOL0     H28093  12.673   8.960   8.345 -0.9172  0.4714 -1.5268
  213MOL0     H28094  12.710   8.975   8.641 -3.3404  2.3969 -1.8933
  213MOL0     H28095  12.649   8.836   8.557  0.6870 -1.6233 -0.3531
  213MOL0     H28096  12.854   8.806   8.435  0.1443  0.0576  1.0927
  213MOL0     H28097  12.856   8.770   8.606  0.3654  1.3693  1.1168
  213MOL0     H28098  11.831   9.294   8.369  0.2151  0.4333 -0.4464
  213MOL0     H28099  11.575   9.207   8.318 -2.6451 -2.5007  0.0951
  213MOL0     H28100  11.371   8.763   7.940  0.5718 -0.7691 -0.4240
  213MOL0     H28101  11.151   8.779   7.848  2.3096  1.9821 -0.3170
  213MOL0     H28102   9.105   9.035   7.446  0.3228  1.3230  0.1924
  213MOL0     H28103   8.866   9.058   7.387  2.9376  2.4401 -1.5992
  213MOL0     H28104   8.462   9.013   7.504  2.0331  1.0783  0.3498
  213MOL0     H28105   8.209   8.960   7.530  2.4757 -0.6458  0.0028
  213MOL0     H28106   7.999   8.921   7.614 -1.2115  1.1642  1.0821
  213MOL0     H28107   8.003   8.984   7.442 -1.9072  4.5725 -2.2422
  213MOL0     H28108   7.784   8.943   7.458 -2.8309  0.3445  1.6023
  213MOL0     H28109   7.788   8.980   7.635  0.2588  2.1342  0.7774
  213MOL0     H28110   7.648   9.128   7.470 -0.6633  1.6761  1.2446
  213MOL0     H28111   7.802   9.195   7.423 -1.0162 -2.7200 -1.8514
  213MOL0     H28112   7.837   9.245   7.673  0.2432  1.3048 -1.2226
  213MOL0     H28113   7.720   9.342   7.590 -2.1545 -0.3110 -0.4983
  213MOL0     H28114   7.454   9.134   7.846 -0.9968  1.1002 -1.1959
  213MOL0     H28115   8.146   9.359   7.664 -1.6260 -0.8970 -2.1148
  213MOL0     H28116   8.376   9.430   7.652 -3.5443  0.9796 -1.3328
  214MOL0     O28117   6.618   1.912   2.936 -0.3047 -0.4283 -0.5169
  214MOL0     C28118   6.668   1.920   2.824  0.1529  0.4932  0.4555
  214MOL0     O28119   6.603   1.924   2.702  0.0482  0.2444 -0.5750
  214MOL0     C28120   6.480   1.859   2.694  0.1850 -0.1463 -1.0885
  214MOL0     C28121   6.367   1.885   2.773  0.0616 -0.7007 -0.4257
  214MOL0     C28122   6.239   1.843   2.740  0.0494  0.8137  0.9517
  214MOL0     C28123   6.225   1.765   2.620 -0.1320 -1.0129 -0.3181
  214MOL0     O28124   6.111   1.712   2.586  0.7068  0.0975  0.2735
  214MOL0     C28125   5.999   1.799   2.604 -0.1605  0.7979 -0.4222
  214MOL0     C28126   5.885   1.730   2.535  0.7745 -0.4191  0.2231
  214MOL0     C28127   5.784   1.836   2.481  0.1176  0.6759  0.0111
  214MOL0     C28128   5.671   1.758   2.416 -0.4343 -0.0550  0.1415
  214MOL0     C28129   5.575   1.858   2.330 -0.6080  0.7718  0.0213
  214MOL0     C28130   5.644   1.907   2.197  1.7147 -0.3884  0.4258
  214MOL0     C28131   5.540   1.959   2.096  0.3026 -0.1474 -0.9566
  214MOL0     C28132   5.588   2.042   1.975 -0.0685  0.1916 -0.3211
  214MOL0     N28133   5.466   2.091   1.906 -0.5042 -0.0722 -0.5938
  214MOL0     C28134   5.372   2.001   1.848  0.2281 -1.3547  0.4377
  214MOL0     C28135   5.285   2.093   1.786 -0.3955 -1.6665  0.7822
  214MOL0     C28136   5.173   2.055   1.688 -0.0780  0.2733 -0.1243
  214MOL0     C28137   5.037   2.036   1.760  0.4562 -1.2277  0.1775
  214MOL0     C28138   4.923   2.002   1.668 -0.0265 -0.6140 -0.2496
  214MOL0     C28139   4.782   2.029   1.735 -0.0355 -0.0955 -0.3052
  214MOL0     O28140   4.685   2.030   1.628 -0.1078 -0.2385  0.3972
  214MOL0     C28141   4.555   2.032   1.673  0.7829  0.9328  0.0228
  214MOL0     C28142   4.460   1.951   1.617 -0.0327 -0.2240  0.6794
  214MOL0     C28143   4.332   1.947   1.671 -0.1766 -0.3976  0.0269
  214MOL0     C28144   4.289   2.032   1.774  0.5697  0.3139  0.6109
  214MOL0     C28145   4.145   2.026   1.822 -0.6562 -0.5143  0.2004
  214MOL0     O28146   4.112   2.075   1.944  0.2227  0.0145 -0.7186
  214MOL0     C28147   3.995   2.033   1.992  1.2121 -0.7633  0.3044
  214MOL0     C28148   3.901   2.130   2.050  0.4949 -0.1818  0.2865
  214MOL0     C28149   3.782   2.095   2.107  0.4360 -0.2635 -0.1411
  214MOL0     C28150   3.736   1.972   2.106 -0.5916  0.7056  0.2540
  214MOL0     O28151   3.605   1.959   2.153 -0.4905 -0.3084  0.0566
  214MOL0     C28152   3.570   1.855   2.237  0.5199  0.0651 -0.1611
  214MOL0     C28153   3.416   1.867   2.260 -0.1872 -0.2431 -0.2601
  214MOL0     C28154   3.374   1.998   2.336  0.1624 -0.3427  0.9401
  214MOL0     C28155   3.228   1.982   2.356  0.6128  0.1990  0.6981
  214MOL0     C28156   3.168   2.122   2.393  0.3904 -0.1625  0.1627
  214MOL0     C28157   3.109   2.197   2.264  0.0508 -0.0621 -0.5626
  214MOL0     C28158   3.204   2.293   2.193  0.4711 -0.7739 -0.2641
  214MOL0     C28159   3.139   2.373   2.081  0.5015  1.1094  0.2854
  214MOL0    Cl28160   3.080   2.278   1.930  0.8909  0.1302 -0.4272
  214MOL0     C28161   3.820   1.871   2.050 -0.4201  0.0877 -0.8936
  214MOL0     C28162   3.944   1.900   1.989  0.1753 -0.4267 -0.6444
  214MOL0     O28163   4.069   1.987   1.737 -0.3533  0.8331 -0.4570
  214MOL0     C28164   4.382   2.109   1.830  0.1014 -0.9905 -0.1384
  214MOL0     C28165   4.512   2.111   1.780 -0.3077  0.4113  0.1030
  214MOL0     N28166   5.311   2.221   1.834  0.2020 -0.0430 -0.2921
  214MOL0     N28167   5.423   2.220   1.890 -0.8189  0.2060 -0.3316
  214MOL0     C28168   6.335   1.726   2.547  0.3272  0.0576 -0.2202
  214MOL0     C28169   6.463   1.779   2.583 -0.3077  0.3979  0.4493
  214MOL0     C28170   6.813   1.918   2.811 -0.0072 -0.7681  1.2636
  214MOL0     C28171   6.895   1.932   2.922 -0.2284 -0.8155  0.8253
  214MOL0     C28172   7.027   1.897   2.913  0.1671 -0.3771 -1.0148
  214MOL0     C28173   7.090   1.840   2.802  0.6340 -1.1362 -1.1018
  214MOL0     O28174   7.220   1.816   2.806  0.4495  0.6354  0.0138
  214MOL0     C28175   7.245   1.676   2.818 -0.0223 -0.4401 -0.0483
  214MOL0     C28176   7.389   1.631   2.776 -0.5479  0.1693  0.6072
  214MOL0     C28177   7.420   1.651   2.626 -0.4643  0.0661  0.7986
  214MOL0     C28178   7.565   1.614   2.594 -0.1350  0.0732 -0.0952
  214MOL0     C28179   7.588   1.470   2.583 -0.3296 -0.0082 -1.3506
  214MOL0     C28180   7.582   1.352   2.563 -0.8168  0.2938 -0.6086
  214MOL0     C28181   7.007   1.809   2.696 -0.5030  0.6636  0.4314
  214MOL0     C28182   6.875   1.862   2.696 -0.3267 -0.5668 -0.8227
  214MOL0     H28183   6.388   1.956   2.853 -2.7205 -0.4961  0.2276
  214MOL0     H28184   6.154   1.884   2.793 -0.5450  1.9253 -0.7448
  214MOL0     H28185   6.019   1.901   2.569 -2.3565  1.3126 -0.3393
  214MOL0     H28186   5.966   1.804   2.708  3.0907 -2.0281  0.9228
  214MOL0     H28187   5.833   1.660   2.601  0.5378 -0.7098 -0.2657
  214MOL0     H28188   5.935   1.682   2.450  1.6353 -0.5935  0.8098
  214MOL0     H28189   5.824   1.896   2.399  2.5328  0.5999  1.0660
  214MOL0     H28190   5.753   1.899   2.564  0.6822 -1.3830  1.8807
  214MOL0     H28191   5.703   1.685   2.341 -0.7630 -0.3360  0.2706
  214MOL0     H28192   5.619   1.693   2.487 -0.2795  0.4968  0.7599
  214MOL0     H28193   5.540   1.937   2.396  0.7680  0.8556  0.6770
  214MOL0     H28194   5.492   1.793   2.299  0.8352 -1.4931  0.6705
  214MOL0     H28195   5.709   1.833   2.148  0.1519 -0.2286 -2.0444
  214MOL0     H28196   5.708   1.991   2.227 -0.0303  0.8476  0.8302
  214MOL0     H28197   5.490   1.872   2.052 -1.5345  1.3276 -1.9136
  214MOL0     H28198   5.472   2.015   2.160  0.6073 -0.2215 -0.5675
  214MOL0     H28199   5.646   1.980   1.906  0.3875 -0.1555  0.3686
  214MOL0     H28200   5.638   2.133   2.010  0.3901 -0.8160  1.7802
  214MOL0     H28201   5.373   1.893   1.834  0.7130 -1.1043 -1.8319
  214MOL0     H28202   5.203   1.957   1.648 -0.0182 -0.1465  0.9125
  214MOL0     H28203   5.164   2.127   1.606 -1.2192  0.6004  0.2656
  214MOL0     H28204   5.006   2.136   1.792 -1.7795 -0.3532 -4.0417
  214MOL0     H28205   5.057   1.959   1.835 -0.5679 -0.9504  0.7525
  214MOL0     H28206   4.934   2.051   1.571  3.0625 -3.5964 -1.6360
  214MOL0     H28207   4.940   1.898   1.638 -0.2517 -0.8978  0.5743
  214MOL0     H28208   4.778   2.119   1.796  1.7215 -1.3114  1.7372
  214MOL0     H28209   4.771   1.950   1.810 -0.7938  1.0988  0.8982
  214MOL0     H28210   4.485   1.881   1.538 -0.3304  0.6500 -0.2111
  214MOL0     H28211   4.272   1.871   1.622  1.3719 -3.4476  2.5346
  214MOL0     H28212   3.921   2.236   2.042 -1.5735  0.7697  4.6536
  214MOL0     H28213   3.717   2.170   2.151 -0.0012 -1.9359  2.2425
  214MOL0     H28214   3.616   1.860   2.336 -1.7680 -0.8325  0.9981
  214MOL0     H28215   3.583   1.755   2.195 -2.4123 -0.4052 -0.1047
  214MOL0     H28216   3.380   1.779   2.314 -2.3086  1.7826  1.8867
  214MOL0     H28217   3.370   1.851   2.162  0.2434 -0.5386 -0.4166
  214MOL0     H28218   3.407   2.083   2.275  1.6425 -2.7129 -1.7812
  214MOL0     H28219   3.432   2.006   2.429 -3.0056 -1.4213  3.1727
  214MOL0     H28220   3.187   1.934   2.266  1.4591 -1.0099  0.9383
  214MOL0     H28221   3.206   1.916   2.440  1.7541 -0.1889  0.7106
  214MOL0     H28222   3.244   2.178   2.448  0.9137 -2.3002  1.7141
  214MOL0     H28223   3.084   2.096   2.459 -0.2252 -4.1400 -1.9096
  214MOL0     H28224   3.019   2.248   2.299 -0.1992 -1.9734  1.7995
  214MOL0     H28225   3.079   2.119   2.193  1.6105 -0.8626 -0.3873
  214MOL0     H28226   3.261   2.359   2.260  0.3751  0.4325 -1.3445
  214MOL0     H28227   3.279   2.222   2.156  2.2670 -1.1172  3.5129
  214MOL0     H28228   3.214   2.449   2.056  2.7114  0.3140  3.7767
  214MOL0     H28229   3.055   2.438   2.111 -0.7390 -0.8874  1.3630
  214MOL0     H28230   3.796   1.766   2.038  2.5989 -0.4223 -4.0534
  214MOL0     H28231   3.996   1.816   1.943  0.1654 -1.7428  1.6009
  214MOL0     H28232   4.360   2.180   1.909  2.7019  1.0706 -1.1240
  214MOL0     H28233   4.583   2.169   1.838  2.8843 -4.6639  1.9691
  214MOL0     H28234   6.313   1.661   2.462 -3.4087 -2.3887  2.3291
  214MOL0     H28235   6.552   1.762   2.522  0.9487  3.2066  1.3401
  214MOL0     H28236   6.861   1.975   3.016 -2.1014  0.2935 -0.2977
  214MOL0     H28237   7.081   1.919   3.004 -0.1224 -0.1271 -0.9028
  214MOL0     H28238   7.173   1.619   2.759  0.0481  1.9537 -2.6779
  214MOL0     H28239   7.221   1.643   2.919  0.9051  1.2531  0.7640
  214MOL0     H28240   7.465   1.691   2.827  1.4160 -0.0126 -1.9348
  214MOL0     H28241   7.393   1.524   2.797  1.7492  0.2639  0.9396
  214MOL0     H28242   7.400   1.756   2.599  1.9409  0.7814  1.5134
  214MOL0     H28243   7.358   1.588   2.563  2.5878 -0.6261 -1.7795
  214MOL0     H28244   7.584   1.649   2.492  0.4573 -0.6212 -0.2288
  214MOL0     H28245   7.639   1.667   2.654  1.1647  0.0257 -1.5974
  214MOL0     H28246   7.583   1.251   2.528  2.4200 -0.1127  0.3510
  214MOL0     H28247   7.036   1.759   2.605  2.0826 -0.5107  1.8012
  214MOL0     H28248   6.809   1.829   2.617  0.1493  0.1366 -1.5339
  215MOL0     O28249   4.655   5.121   6.275  0.3839  0.3143 -0.8475
  215MOL0     C28250   4.696   5.129   6.159 -0.2417  0.9866 -0.9940
  215MOL0     O28251   4.616   5.121   6.046 -0.2259 -0.1728 -0.4812
  215MOL0     C28252   4.479   5.091   6.054 -1.2316 -0.2812 -0.0658
  215MOL0     C28253   4.399   5.148   5.954  0.0638  0.6234  1.4149
  215MOL0     C28254   4.264   5.122   5.950  0.4283 -0.0267 -0.1829
  215MOL0     C28255   4.203   5.020   6.022  0.6763 -0.9308 -0.8624
  215MOL0     O28256   4.064   4.995   6.025 -0.1843  0.2465 -0.0660
  215MOL0     C28257   3.965   5.052   5.931 -0.7168 -0.0917  0.4305
  215MOL0     C28258   3.826   5.035   5.979  0.2558  0.7521  0.0598
  215MOL0     C28259   3.734   5.037   5.861 -0.1636 -0.0332  1.0629
  215MOL0     C28260   3.595   5.028   5.920 -0.1081  0.2993 -0.1041
  215MOL0     C28261   3.485   5.087   5.828  0.3930  1.0846  0.4794
  215MOL0     C28262   3.506   5.028   5.688  0.5169 -0.3566 -0.6423
  215MOL0     C28263   3.407   5.092   5.596 -0.5975  0.0478  0.4006
  215MOL0     C28264   3.260   5.050   5.605  0.5565  0.6523 -0.5083
  215MOL0     N28265   3.242   4.908   5.590 -0.0111  0.2095  0.0269
  215MOL0     C28266   3.336   4.813   5.541  0.0803 -0.1280  0.5749
  215MOL0     C28267   3.266   4.698   5.546 -0.2940 -0.1365  1.0675
  215MOL0     C28268   3.313   4.569   5.503  0.0981  0.7403  0.4179
  215MOL0     C28269   3.290   4.550   5.348  0.4221 -0.2241 -0.6028
  215MOL0     C28270   3.331   4.408   5.321  0.0148  0.4734 -0.0590
  215MOL0     C28271   3.323   4.375   5.170  0.1285 -0.4974  0.4299
  215MOL0     O28272   3.429   4.298   5.120  0.5883 -0.4184  0.3863
  215MOL0     C28273   3.566   4.324   5.136 -0.0897 -0.6312 -0.7941
  215MOL0     C28274   3.652   4.220   5.107  0.0997 -0.6770 -0.2468
  215MOL0     C28275   3.785   4.227   5.142 -1.4355 -0.1926  0.0177
  215MOL0     C28276   3.843   4.343   5.188 -0.1918 -0.0976  0.3866
  215MOL0     C28277   3.987   4.359   5.215  0.3041  0.2920 -1.3408
  215MOL0     O28278   4.029   4.480   5.261 -0.6576 -1.0141  0.0769
  215MOL0     C28279   4.151   4.537   5.247 -0.3857 -1.0150  0.1950
  215MOL0     C28280   4.182   4.602   5.130 -0.4970 -0.3440  0.9212
  215MOL0     C28281   4.300   4.680   5.111 -0.3642  0.9835 -1.4020
  215MOL0     C28282   4.380   4.705   5.222 -0.7811  0.7933  0.3439
  215MOL0     O28283   4.476   4.801   5.198  0.7302 -0.1145 -1.0629
  215MOL0     C28284   4.552   4.828   5.311  0.9340  0.0433 -0.1090
  215MOL0     C28285   4.679   4.897   5.252 -0.2199 -0.7755 -0.0316
  215MOL0     C28286   4.776   4.953   5.359  0.0582 -0.3648  0.0989
  215MOL0     C28287   4.892   5.033   5.298  0.5795 -0.1520  0.5427
  215MOL0     C28288   5.000   5.061   5.409  0.1614  0.1193  0.3855
  215MOL0     C28289   5.112   5.152   5.344  0.5261 -0.0656  0.0688
  215MOL0     C28290   5.204   5.209   5.447 -0.6405 -0.0069 -0.5783
  215MOL0     C28291   5.263   5.346   5.406 -0.8569 -0.0847  0.1184
  215MOL0    Cl28292   5.338   5.433   5.552 -0.3637 -0.4862 -0.0934
  215MOL0     C28293   4.351   4.638   5.342 -0.7788  0.0654  0.5867
  215MOL0     C28294   4.243   4.550   5.353  0.1071  0.3328 -0.4722
  215MOL0     O28295   4.059   4.268   5.181  0.2264  0.3129 -0.0326
  215MOL0     C28296   3.755   4.463   5.205  0.5156  0.2137  0.5089
  215MOL0     C28297   3.619   4.449   5.190  0.1012 -0.2495  0.3834
  215MOL0     N28298   3.147   4.729   5.611 -0.5153 -0.0547  0.4407
  215MOL0     N28299   3.132   4.848   5.640 -0.6365  0.3438 -0.0792
  215MOL0     C28300   4.286   4.958   6.120  0.9002 -0.1448  0.6806
  215MOL0     C28301   4.418   4.994   6.142  0.1454  0.0994 -0.3139
  215MOL0     C28302   4.840   5.159   6.143 -0.1424 -0.0341 -0.0759
  215MOL0     C28303   4.898   5.159   6.016  1.0441 -0.7094  0.4755
  215MOL0     C28304   5.027   5.175   5.989  0.0612  0.3091  0.0870
  215MOL0     C28305   5.115   5.202   6.091  0.1118  0.1785 -0.8451
  215MOL0     O28306   5.254   5.216   6.078 -0.1968  0.0024  0.2428
  215MOL0     C28307   5.314   5.190   5.948  0.5529  0.3830  0.6446
  215MOL0     C28308   5.463   5.174   5.950 -0.3785 -0.5032 -1.0361
  215MOL0     C28309   5.522   5.305   5.995 -0.4443 -0.0901  0.2951
  215MOL0     C28310   5.678   5.296   5.985 -0.2001 -0.1203  1.2324
  215MOL0     C28311   5.742   5.409   6.050  0.7853 -0.3012 -0.7167
  215MOL0     C28312   5.793   5.510   6.088 -0.0348  1.4615  0.4407
  215MOL0     C28313   5.063   5.203   6.218  0.6702  0.5173  0.2807
  215MOL0     C28314   4.932   5.166   6.244 -1.0328 -0.3017 -0.0241
  215MOL0     H28315   4.434   5.220   5.881 -0.1735  0.0340  0.7023
  215MOL0     H28316   4.205   5.169   5.872 -1.2586 -3.7842 -1.4122
  215MOL0     H28317   3.992   5.006   5.836  0.1396  3.1364 -1.0380
  215MOL0     H28318   3.995   5.156   5.914  0.1869  0.3072  3.7860
  215MOL0     H28319   3.804   5.111   6.055  0.3438 -1.0180  1.9393
  215MOL0     H28320   3.822   4.938   6.028  1.1194 -0.2808 -1.8086
  215MOL0     H28321   3.758   4.963   5.784  2.5103  2.3592 -0.6370
  215MOL0     H28322   3.747   5.133   5.810  0.4128  1.1276  3.2683
  215MOL0     H28323   3.572   4.922   5.935 -0.4835  0.3118 -0.5715
  215MOL0     H28324   3.586   5.089   6.011 -1.4863  5.4939 -3.2875
  215MOL0     H28325   3.492   5.196   5.821 -0.3771  1.2116  1.4313
  215MOL0     H28326   3.382   5.069   5.861 -0.1785 -0.3175 -1.8510
  215MOL0     H28327   3.501   4.919   5.700  0.5482 -0.4553 -1.4701
  215MOL0     H28328   3.604   5.060   5.651 -1.0736  4.3108 -1.4239
  215MOL0     H28329   3.398   5.200   5.611  0.9126 -0.0226  2.1114
  215MOL0     H28330   3.448   5.082   5.495  0.1620 -0.9157  0.7884
  215MOL0     H28331   3.203   5.104   5.529 -1.6219  0.7195  1.0796
  215MOL0     H28332   3.214   5.085   5.698 -0.8745 -0.1800 -0.8774
  215MOL0     H28333   3.434   4.840   5.504 -1.1270  4.2202  0.0034
  215MOL0     H28334   3.282   4.481   5.559 -3.6825  1.4609 -0.2937
  215MOL0     H28335   3.422   4.574   5.511  0.4763  1.1846 -3.2781
  215MOL0     H28336   3.356   4.619   5.296  3.1501 -0.4536  2.2594
  215MOL0     H28337   3.183   4.559   5.327  0.5983 -1.0460 -1.9837
  215MOL0     H28338   3.435   4.395   5.352 -0.4888 -2.2152  0.7385
  215MOL0     H28339   3.265   4.344   5.379 -0.4651 -0.0490 -1.1615
  215MOL0     H28340   3.318   4.475   5.126  0.4267  0.7336  2.9838
  215MOL0     H28341   3.228   4.325   5.152  0.9922 -1.7619 -0.7914
  215MOL0     H28342   3.629   4.121   5.069  0.9258 -0.8941 -0.2008
  215MOL0     H28343   3.850   4.142   5.123 -0.6384  0.1065  1.3252
  215MOL0     H28344   4.119   4.581   5.045  2.8629  1.1001 -2.1842
  215MOL0     H28345   4.327   4.719   5.014 -0.3165  3.7561 -0.3555
  215MOL0     H28346   4.589   4.738   5.360  0.0487 -0.2230  0.0751
  215MOL0     H28347   4.500   4.888   5.386 -0.7369 -0.1856 -1.0524
  215MOL0     H28348   4.650   4.977   5.183 -2.9855 -2.6161 -1.1286
  215MOL0     H28349   4.733   4.822   5.193  1.2502  1.5282 -1.8031
  215MOL0     H28350   4.824   4.876   5.421  1.4438  2.1716  2.4340
  215MOL0     H28351   4.730   5.014   5.437 -0.9978 -1.2419  0.1838
  215MOL0     H28352   4.936   4.972   5.218 -1.4167 -1.9043  0.6946
  215MOL0     H28353   4.859   5.126   5.251  0.4995 -0.4039  0.0897
  215MOL0     H28354   5.044   4.966   5.440  2.9311  1.6102  1.4793
  215MOL0     H28355   4.953   5.111   5.494 -2.0072 -1.1590 -0.0081
  215MOL0     H28356   5.070   5.236   5.288  0.6139 -0.5811 -0.7827
  215MOL0     H28357   5.163   5.091   5.269  1.1029 -2.2710  2.1478
  215MOL0     H28358   5.144   5.224   5.538 -0.7098  1.3514 -0.8340
  215MOL0     H28359   5.287   5.140   5.464  0.7512  1.9752  1.2632
  215MOL0     H28360   5.186   5.409   5.361 -0.5553 -0.2113 -0.5916
  215MOL0     H28361   5.346   5.331   5.337 -0.6271 -0.5550  0.4900
  215MOL0     H28362   4.410   4.660   5.430  0.5051  2.8982 -0.8673
  215MOL0     H28363   4.229   4.507   5.451 -2.6478  0.4649 -0.7416
  215MOL0     H28364   3.798   4.561   5.221 -2.1821  1.2746  1.8050
  215MOL0     H28365   3.549   4.532   5.195 -0.5898 -0.6720 -1.6171
  215MOL0     H28366   4.245   4.884   6.188 -0.6102  2.1428  2.3967
  215MOL0     H28367   4.467   4.947   6.227 -0.1617  0.8478  0.2907
  215MOL0     H28368   4.836   5.126   5.933  2.1111 -1.9070  0.1142
  215MOL0     H28369   5.055   5.176   5.885 -0.8230  1.3077 -0.1617
  215MOL0     H28370   5.284   5.270   5.879 -1.2926 -2.1663 -1.7420
  215MOL0     H28371   5.278   5.096   5.905 -0.1996  0.8056  0.3271
  215MOL0     H28372   5.484   5.094   6.021  1.1124  0.6543 -0.1034
  215MOL0     H28373   5.496   5.146   5.849 -0.8458  2.0921 -1.9852
  215MOL0     H28374   5.491   5.321   6.098 -0.8222 -0.4842  0.2430
  215MOL0     H28375   5.498   5.394   5.936  1.8338  0.7681  0.5679
  215MOL0     H28376   5.696   5.200   6.035  0.0985  0.3796  2.0933
  215MOL0     H28377   5.692   5.281   5.878  0.9091 -3.2195  1.6898
  215MOL0     H28378   5.866   5.580   6.124 -0.8977  1.8931  1.3947
  215MOL0     H28379   5.135   5.223   6.297 -1.0947  1.2227  1.8060
  215MOL0     H28380   4.912   5.164   6.351 -3.5638  2.9715 -0.2936
  216MOL0     O28381   4.270   1.291   1.205  0.3550  0.3856 -0.1311
  216MOL0     C28382   4.266   1.417   1.186 -0.3828 -0.3549 -0.7729
  216MOL0     O28383   4.172   1.498   1.223  0.0710  0.1324 -0.4682
  216MOL0     C28384   4.042   1.471   1.211  0.1541 -0.2730  1.0783
  216MOL0     C28385   3.998   1.357   1.139  0.8036 -0.9834  0.4337
  216MOL0     C28386   3.867   1.340   1.105 -0.4343  0.0746 -0.7341
  216MOL0     C28387   3.771   1.429   1.165  0.0596  1.2856 -0.5374
  216MOL0     O28388   3.638   1.416   1.140 -0.0025 -0.0370  0.3526
  216MOL0     C28389   3.573   1.287   1.153  0.1984 -0.2474 -0.0487
  216MOL0     C28390   3.420   1.301   1.156  0.6115 -0.3677 -0.1374
  216MOL0     C28391   3.362   1.168   1.189  0.5786 -0.6729  0.8490
  216MOL0     C28392   3.196   1.173   1.155  0.0044  0.1127 -0.3022
  216MOL0     C28393   3.124   1.287   1.237 -0.3246 -0.4599  0.4140
  216MOL0     C28394   3.138   1.269   1.387  0.1036 -0.7952 -0.1424
  216MOL0     C28395   3.066   1.144   1.441  0.1428 -0.2458  0.1644
  216MOL0     C28396   2.910   1.151   1.467  0.3996  0.2232  0.0623
  216MOL0     N28397   2.870   1.120   1.607 -0.1498 -0.2847 -0.6447
  216MOL0     C28398   2.865   1.209   1.710  0.0370  0.7106  0.6396
  216MOL0     C28399   2.831   1.143   1.820 -0.2991 -0.5770  0.0327
  216MOL0     C28400   2.821   1.203   1.952  0.8593 -0.9738 -0.3408
  216MOL0     C28401   2.731   1.137   2.057 -0.2908 -0.7349  0.1314
  216MOL0     C28402   2.806   1.058   2.159 -0.3348 -0.3302 -1.2550
  216MOL0     C28403   2.884   0.936   2.095 -0.0510  0.6003 -0.2211
  216MOL0     O28404   2.909   0.823   2.175 -0.2673  0.7380  0.2055
  216MOL0     C28405   2.799   0.750   2.216  0.3624  0.3553  1.4412
  216MOL0     C28406   2.672   0.741   2.152 -0.1571 -0.4720 -0.3833
  216MOL0     C28407   2.570   0.665   2.211 -0.1168 -0.8955  0.7231
  216MOL0     C28408   2.587   0.598   2.331 -0.0466 -0.1601  1.2919
  216MOL0     C28409   2.480   0.512   2.386 -0.1823 -0.0983  0.3720
  216MOL0     O28410   2.351   0.525   2.329  0.5013 -0.2450  0.0676
  216MOL0     C28411   2.253   0.500   2.418  0.6831 -0.2065 -1.0147
  216MOL0     C28412   2.223   0.581   2.531 -1.0287 -0.2584  0.3473
  216MOL0     C28413   2.116   0.558   2.601  1.8522 -0.3505 -1.0594
  216MOL0     C28414   2.023   0.453   2.583 -0.6293  0.9182  0.9300
  216MOL0     O28415   1.919   0.423   2.672 -0.1009  0.0110  0.0886
  216MOL0     C28416   1.836   0.311   2.650 -0.2275 -0.7240  0.8249
  216MOL0     C28417   1.704   0.320   2.728  0.5821  0.6273  0.4559
  216MOL0     C28418   1.630   0.455   2.726 -0.5014  1.3764 -0.0220
  216MOL0     C28419   1.483   0.440   2.713 -0.3791  0.0887  0.0518
  216MOL0     C28420   1.405   0.570   2.737  1.2988 -0.1383 -0.8034
  216MOL0     C28421   1.369   0.647   2.616 -0.1560  0.3690 -0.8457
  216MOL0     C28422   1.286   0.576   2.511 -0.4582 -0.5146  0.0601
  216MOL0     C28423   1.253   0.649   2.388 -0.0613  0.6021  0.3521
  216MOL0    Cl28424   1.410   0.715   2.321  0.1392  0.2673  0.2050
  216MOL0     C28425   2.049   0.373   2.464  0.2895  0.0251 -0.3571
  216MOL0     C28426   2.161   0.393   2.388 -0.9194 -0.3580 -0.5244
  216MOL0     O28427   2.509   0.447   2.481  0.7026  1.1606 -0.3323
  216MOL0     C28428   2.703   0.609   2.398 -0.8490  0.5284  1.0668
  216MOL0     C28429   2.809   0.688   2.338  0.0555  0.6644 -0.6162
  216MOL0     N28430   2.803   1.015   1.777  0.1159  0.3577  0.1954
  216MOL0     N28431   2.824   1.002   1.651  1.2266  0.0371 -0.0185
  216MOL0     C28432   3.808   1.532   1.248  0.0610  0.5366  0.2097
  216MOL0     C28433   3.943   1.558   1.261  0.0891  0.5222 -0.1023
  216MOL0     C28434   4.383   1.478   1.110 -0.2005 -0.2023 -0.0322
  216MOL0     C28435   4.501   1.402   1.114 -0.2724 -0.2727 -0.0234
  216MOL0     C28436   4.623   1.452   1.048  0.4673  0.1025 -0.2965
  216MOL0     C28437   4.623   1.582   0.986  0.2659  0.3172 -0.5259
  216MOL0     O28438   4.736   1.635   0.915 -0.5431  0.1444 -0.4300
  216MOL0     C28439   4.861   1.616   0.974 -0.5341  0.3645  0.1531
  216MOL0     C28440   4.964   1.707   0.909 -0.1511 -0.0314 -1.2512
  216MOL0     C28441   5.030   1.639   0.793  0.2875  0.0055  0.7220
  216MOL0     C28442   5.094   1.738   0.698  0.1351 -0.2852 -0.1833
  216MOL0     C28443   5.217   1.790   0.754  0.2371 -0.1172 -0.8420
  216MOL0     C28444   5.326   1.816   0.794  0.2116  0.0353 -0.9870
  216MOL0     C28445   4.505   1.661   0.993 -0.0451  0.2528 -0.5669
  216MOL0     C28446   4.391   1.603   1.057  0.4112  0.1441  0.3636
  216MOL0     H28447   4.066   1.284   1.095  1.1438 -1.1803  1.2722
  216MOL0     H28448   3.842   1.258   1.039  2.3042 -1.4164 -0.0503
  216MOL0     H28449   3.605   1.227   1.239 -0.0438  0.2320  0.3909
  216MOL0     H28450   3.595   1.235   1.060 -1.4555  2.6127 -2.2081
  216MOL0     H28451   3.388   1.337   1.058 -0.8634 -2.5192 -0.5012
  216MOL0     H28452   3.395   1.375   1.233 -0.7764  1.4301 -2.1877
  216MOL0     H28453   3.385   1.132   1.290 -0.8951  0.9385  1.8193
  216MOL0     H28454   3.411   1.093   1.126  1.2216 -0.2705  0.8676
  216MOL0     H28455   3.181   1.179   1.047  0.3855 -2.9361 -0.6120
  216MOL0     H28456   3.160   1.076   1.189 -0.5385 -0.9882 -3.7027
  216MOL0     H28457   3.018   1.303   1.214  0.2377  0.0158 -2.2063
  216MOL0     H28458   3.188   1.375   1.231  0.8766 -1.3820 -3.1153
  216MOL0     H28459   3.099   1.360   1.434  1.3684 -0.7852  0.9637
  216MOL0     H28460   3.244   1.260   1.414  0.5781 -2.3611 -2.3327
  216MOL0     H28461   3.087   1.049   1.391  1.5028 -1.0493  2.1064
  216MOL0     H28462   3.116   1.131   1.537  3.8895 -0.3368 -1.6347
  216MOL0     H28463   2.869   1.078   1.395 -0.7902  0.7924  0.1364
  216MOL0     H28464   2.872   1.246   1.429  1.0422  0.3273 -0.3328
  216MOL0     H28465   2.894   1.314   1.714 -0.3411  0.7824  1.8226
  216MOL0     H28466   2.794   1.306   1.927  0.8740 -1.0310 -0.6026
  216MOL0     H28467   2.923   1.201   1.990  0.3038 -2.5612  1.2138
  216MOL0     H28468   2.651   1.080   2.008 -2.6079 -0.1014  2.9057
  216MOL0     H28469   2.680   1.206   2.124  1.8022 -0.0666  1.1177
  216MOL0     H28470   2.883   1.123   2.200  1.0158 -3.7125  2.2212
  216MOL0     H28471   2.735   1.034   2.239 -3.5372  4.1842 -2.3907
  216MOL0     H28472   2.976   0.979   2.055 -0.6332  3.2077  0.9872
  216MOL0     H28473   2.821   0.903   2.012 -1.7178 -1.2403  1.6772
  216MOL0     H28474   2.656   0.795   2.059 -1.5857  0.1557  0.1923
  216MOL0     H28475   2.484   0.637   2.151 -0.9444  0.6473  1.1264
  216MOL0     H28476   2.289   0.662   2.559  1.8013 -1.7753 -1.4058
  216MOL0     H28477   2.112   0.626   2.686 -0.3423 -1.3461 -0.2823
  216MOL0     H28478   1.887   0.218   2.674  0.4075 -0.6081 -0.0093
  216MOL0     H28479   1.816   0.302   2.543  0.1622  3.2215  0.2554
  216MOL0     H28480   1.728   0.300   2.832  1.0180  2.0262  0.6530
  216MOL0     H28481   1.634   0.248   2.685  1.0614  1.0556 -1.1319
  216MOL0     H28482   1.648   0.498   2.627  2.3268 -0.9938 -0.6842
  216MOL0     H28483   1.663   0.520   2.808  0.2991 -2.1710  2.7411
  216MOL0     H28484   1.456   0.392   2.619 -0.6110 -3.0690  1.6009
  216MOL0     H28485   1.454   0.360   2.781  2.2816  2.1319  3.9416
  216MOL0     H28486   1.444   0.642   2.810  0.5591 -0.4831 -0.0491
  216MOL0     H28487   1.311   0.525   2.768  1.8121  0.8133  2.5624
  216MOL0     H28488   1.460   0.694   2.578  1.7544 -1.9736  0.5449
  216MOL0     H28489   1.303   0.724   2.657 -1.6966 -1.1770 -0.2680
  216MOL0     H28490   1.309   0.470   2.501  0.9718 -0.0723 -1.9013
  216MOL0     H28491   1.188   0.565   2.558 -0.3000  0.4045  0.6264
  216MOL0     H28492   1.181   0.728   2.410  0.2892  1.1766 -0.5145
  216MOL0     H28493   1.221   0.568   2.322 -1.1569  0.8253  0.5856
  216MOL0     H28494   1.981   0.293   2.438 -3.6152  3.0789 -0.4052
  216MOL0     H28495   2.176   0.334   2.298 -0.2008 -2.6281  1.0027
  216MOL0     H28496   2.713   0.553   2.490 -0.8744  0.2358  0.8934
  216MOL0     H28497   2.905   0.692   2.389 -0.9621  2.8716  1.3158
  216MOL0     H28498   3.739   1.596   1.301  1.1226  1.1755  0.8538
  216MOL0     H28499   3.983   1.641   1.318  1.5610 -1.4454  1.9111
  216MOL0     H28500   4.508   1.307   1.165  1.5747  0.3026  0.8498
  216MOL0     H28501   4.711   1.389   1.056 -0.4979 -1.0909  1.7659
  216MOL0     H28502   4.884   1.510   0.956 -5.0830 -0.6317 -1.3103
  216MOL0     H28503   4.856   1.635   1.081  0.2628  1.7827 -0.0472
  216MOL0     H28504   4.927   1.806   0.883 -0.0845  0.8889  1.7444
  216MOL0     H28505   5.034   1.735   0.988 -1.7093 -2.3039  1.0945
  216MOL0     H28506   4.960   1.590   0.725 -1.6561  0.3282  2.4013
  216MOL0     H28507   5.112   1.573   0.824  0.6203 -0.4629 -1.0418
  216MOL0     H28508   5.105   1.679   0.607 -2.9638 -0.9680 -0.2012
  216MOL0     H28509   5.024   1.821   0.680  2.6288  2.2784  0.9984
  216MOL0     H28510   5.429   1.843   0.804  0.3723  0.8193 -3.7983
  216MOL0     H28511   4.500   1.763   0.957 -2.1971  0.8385  1.1791
  216MOL0     H28512   4.301   1.664   1.052 -1.1464 -2.1647 -2.5707
  217MOL0     O28513   5.771   2.318   3.361 -0.3856 -0.1209 -0.3942
  217MOL0     C28514   5.746   2.417   3.293 -0.0348 -0.2155  0.9237
  217MOL0     O28515   5.828   2.523   3.274 -0.0876  0.2778 -0.5574
  217MOL0     C28516   5.955   2.534   3.340  0.3623 -0.0435  0.0720
  217MOL0     C28517   6.054   2.594   3.264 -0.5066 -0.4714  0.4418
  217MOL0     C28518   6.179   2.620   3.323  0.2057 -0.2553  0.2943
  217MOL0     C28519   6.202   2.591   3.456  0.5579 -0.0539 -0.2465
  217MOL0     O28520   6.330   2.608   3.500  0.3838  0.1229  0.1892
  217MOL0     C28521   6.398   2.495   3.558  0.4338 -0.1870  0.0835
  217MOL0     C28522   6.546   2.525   3.572  0.3582  0.7788  1.5177
  217MOL0     C28523   6.637   2.407   3.610 -0.6633  0.6224 -0.5702
  217MOL0     C28524   6.786   2.444   3.599  0.8188 -0.3131 -0.1577
  217MOL0     C28525   6.863   2.311   3.593 -0.4557 -0.6726  0.3358
  217MOL0     C28526   7.011   2.339   3.570  0.1300  0.7631 -0.9541
  217MOL0     C28527   7.094   2.211   3.597 -1.0522 -0.0071  0.4016
  217MOL0     C28528   7.239   2.243   3.573 -0.0875 -0.2365  0.7603
  217MOL0     N28529   7.334   2.129   3.597  0.3290 -0.3865 -0.2324
  217MOL0     C28530   7.336   2.007   3.535  1.5049  0.6885 -0.3345
  217MOL0     C28531   7.458   1.962   3.558 -0.0033  0.9475 -0.0660
  217MOL0     C28532   7.511   1.832   3.518 -0.6712  0.1853 -0.1977
  217MOL0     C28533   7.541   1.739   3.639  0.8346 -0.0393 -0.6422
  217MOL0     C28534   7.577   1.600   3.575 -0.3062 -0.1111  0.3753
  217MOL0     C28535   7.633   1.507   3.691  0.2023 -0.4228  0.4827
  217MOL0     O28536   7.636   1.371   3.634 -0.1952 -0.7455  0.1248
  217MOL0     C28537   7.518   1.302   3.637  0.3651  0.5828 -0.2801
  217MOL0     C28538   7.465   1.256   3.514 -0.1426  0.7149 -0.1575
  217MOL0     C28539   7.342   1.206   3.494  0.7632  0.4731  0.0028
  217MOL0     C28540   7.248   1.202   3.608  0.6622 -0.2976  0.5459
  217MOL0     C28541   7.100   1.194   3.581 -0.9235  0.3915  0.3639
  217MOL0     O28542   7.062   1.197   3.454 -0.1004  0.6336  0.4288
  217MOL0     C28543   6.934   1.225   3.411  0.3319  0.2708  0.1350
  217MOL0     C28544   6.895   1.178   3.283 -0.7631 -0.2776  0.0891
  217MOL0     C28545   6.772   1.206   3.233 -0.3903  0.6836 -0.9170
  217MOL0     C28546   6.677   1.263   3.317  0.4562 -0.6481 -0.6105
  217MOL0     O28547   6.563   1.283   3.242  0.4076  0.2632  0.0539
  217MOL0     C28548   6.443   1.308   3.301  0.5882 -1.3197 -0.7740
  217MOL0     C28549   6.360   1.188   3.310 -0.5607  0.3188  0.6460
  217MOL0     C28550   6.296   1.147   3.180  0.3855 -0.5728  0.2495
  217MOL0     C28551   6.388   1.131   3.057 -0.3933  0.2430  0.5895
  217MOL0     C28552   6.301   1.089   2.937  0.9753  0.3893  0.0183
  217MOL0     C28553   6.398   1.081   2.821  0.8241  0.3286 -0.2114
  217MOL0     C28554   6.323   1.004   2.711 -0.2119 -0.7307  0.6085
  217MOL0     C28555   6.384   1.022   2.569 -0.4946 -0.1812 -0.2265
  217MOL0    Cl28556   6.528   0.920   2.543  0.1831  0.3137  0.1655
  217MOL0     C28557   6.707   1.309   3.448  0.7679  0.0833  0.5892
  217MOL0     C28558   6.844   1.297   3.492 -0.3471  0.3192  0.1696
  217MOL0     O28559   7.025   1.185   3.672 -0.5421  0.4097  0.2057
  217MOL0     C28560   7.298   1.245   3.736 -0.0646 -0.7142 -0.0787
  217MOL0     C28561   7.433   1.286   3.754 -0.6709  0.5481  0.2474
  217MOL0     N28562   7.522   2.049   3.648  0.5756  0.5798  0.2288
  217MOL0     N28563   7.451   2.154   3.661 -0.4306  0.7461 -0.7524
  217MOL0     C28564   6.109   2.515   3.531 -0.0017  0.2885 -0.4634
  217MOL0     C28565   5.978   2.506   3.475  0.4990  0.2356  0.0811
  217MOL0     C28566   5.620   2.416   3.223 -0.3548  0.2666 -0.0108
  217MOL0     C28567   5.572   2.539   3.181 -0.4808 -0.1180 -0.4161
  217MOL0     C28568   5.453   2.539   3.106 -0.2143 -0.4099  0.9387
  217MOL0     C28569   5.381   2.421   3.079 -0.3071 -0.3194  0.8185
  217MOL0     O28570   5.275   2.424   2.996  0.0958 -0.4541  0.1332
  217MOL0     C28571   5.163   2.364   3.061 -0.1161 -0.3421 -0.1229
  217MOL0     C28572   5.053   2.361   2.959  0.2486  0.4807  0.1470
  217MOL0     C28573   4.927   2.429   3.015 -0.9399  0.0128 -0.2384
  217MOL0     C28574   4.913   2.567   2.971 -0.4625  0.9252 -0.2461
  217MOL0     C28575   4.776   2.608   2.970 -0.3560  0.2011  0.3484
  217MOL0     C28576   4.673   2.666   2.971  0.4902 -0.1972 -0.2828
  217MOL0     C28577   5.433   2.299   3.114 -0.2960  0.2742 -0.4767
  217MOL0     C28578   5.551   2.299   3.191  0.4825  0.5018  0.4009
  217MOL0     H28579   6.029   2.627   3.164 -1.7762 -0.0386  0.8853
  217MOL0     H28580   6.266   2.658   3.271  0.6841 -3.5329 -1.4987
  217MOL0     H28581   6.384   2.415   3.485  1.1657 -1.6918  1.5229
  217MOL0     H28582   6.354   2.447   3.646 -0.2500 -1.7339 -1.0563
  217MOL0     H28583   6.558   2.601   3.650  0.4918  1.4299  0.8718
  217MOL0     H28584   6.575   2.573   3.478  0.2606  3.0931  2.6093
  217MOL0     H28585   6.617   2.325   3.540  3.0354  0.0919 -1.1662
  217MOL0     H28586   6.622   2.377   3.714 -0.3529  3.7256  0.4753
  217MOL0     H28587   6.807   2.491   3.503  1.5642  1.6182  0.9035
  217MOL0     H28588   6.816   2.510   3.681 -2.2534  0.4141  0.5033
  217MOL0     H28589   6.831   2.240   3.516 -0.1762 -0.6444  0.1930
  217MOL0     H28590   6.847   2.267   3.692 -2.6282  0.1097  0.3860
  217MOL0     H28591   7.038   2.417   3.641 -0.6269  1.5713 -1.5349
  217MOL0     H28592   7.018   2.384   3.470  0.0490  1.4972 -0.6370
  217MOL0     H28593   7.093   2.179   3.701  0.3748  2.9944  1.4490
  217MOL0     H28594   7.063   2.130   3.529 -0.1012 -1.3416  1.5048
  217MOL0     H28595   7.268   2.322   3.643 -2.0010 -1.2721  2.8460
  217MOL0     H28596   7.243   2.273   3.469 -0.3161  0.5324  0.9695
  217MOL0     H28597   7.259   1.957   3.478 -0.1222  1.1479  1.3718
  217MOL0     H28598   7.614   1.845   3.484 -0.3781  0.2945  0.7096
  217MOL0     H28599   7.441   1.771   3.459  0.8803 -0.0353 -1.8897
  217MOL0     H28600   7.464   1.727   3.715 -0.2764  1.8586 -1.4012
  217MOL0     H28601   7.630   1.781   3.686  0.1708  1.9368 -1.0540
  217MOL0     H28602   7.486   1.551   3.538 -1.9174  1.8467  1.5601
  217MOL0     H28603   7.657   1.609   3.502 -0.8009 -1.3375 -0.3497
  217MOL0     H28604   7.570   1.510   3.780 -0.3216 -1.5259  0.1737
  217MOL0     H28605   7.733   1.543   3.716  1.5503 -1.3131 -2.9930
  217MOL0     H28606   7.534   1.279   3.433 -0.4491  3.5420  0.2763
  217MOL0     H28607   7.315   1.184   3.391  2.2010 -4.6677  0.4212
  217MOL0     H28608   6.961   1.133   3.209 -2.4756 -2.5326 -0.1551
  217MOL0     H28609   6.746   1.180   3.131  1.4744 -2.2330 -0.7990
  217MOL0     H28610   6.395   1.390   3.247 -1.0447  0.8113  3.4660
  217MOL0     H28611   6.452   1.357   3.398  1.0933  1.1865 -1.9914
  217MOL0     H28612   6.277   1.207   3.379  0.5565  0.1585  2.0891
  217MOL0     H28613   6.407   1.099   3.352 -1.3071  0.6384  2.2765
  217MOL0     H28614   6.233   1.235   3.167  0.8046 -0.1359  1.1259
  217MOL0     H28615   6.222   1.068   3.198 -1.9752  1.0529 -1.7459
  217MOL0     H28616   6.433   1.230   3.055  1.5990 -0.5681  1.6608
  217MOL0     H28617   6.469   1.059   3.072  1.3118  2.2216  1.4022
  217MOL0     H28618   6.224   1.165   2.924 -2.5771 -2.2367  3.3787
  217MOL0     H28619   6.255   0.990   2.950  2.1232 -0.3956 -1.5780
  217MOL0     H28620   6.489   1.023   2.841  0.0430 -1.4014 -1.4257
  217MOL0     H28621   6.429   1.179   2.785  0.5243  0.1429 -0.9839
  217MOL0     H28622   6.306   0.899   2.737 -1.4993 -0.8415 -0.5990
  217MOL0     H28623   6.226   1.053   2.709  0.8579  1.6116  1.5371
  217MOL0     H28624   6.411   1.126   2.550  1.0222 -0.8962 -2.2648
  217MOL0     H28625   6.308   0.988   2.497 -1.0831 -0.6324  0.5850
  217MOL0     H28626   6.641   1.365   3.513 -0.7297  1.1215 -1.6898
  217MOL0     H28627   6.872   1.344   3.586 -2.1830  2.5417 -0.2904
  217MOL0     H28628   7.234   1.254   3.823  1.1078  0.5065  0.6907
  217MOL0     H28629   7.466   1.320   3.851 -2.0869 -1.4951  1.5063
  217MOL0     H28630   6.126   2.476   3.630  0.0539 -0.7193 -0.8532
  217MOL0     H28631   5.895   2.454   3.523  1.5870 -2.4558 -0.7947
  217MOL0     H28632   5.616   2.631   3.219  1.2593 -1.4270  0.9096
  217MOL0     H28633   5.412   2.634   3.073 -2.2473 -1.5268  0.0550
  217MOL0     H28634   5.128   2.422   3.148 -1.6333  0.1605 -1.0212
  217MOL0     H28635   5.179   2.261   3.094 -2.5462 -1.0929 -1.0621
  217MOL0     H28636   5.081   2.422   2.873 -2.1865  1.9288  0.2679
  217MOL0     H28637   5.035   2.260   2.923 -0.3307  0.1105  1.4136
  217MOL0     H28638   4.915   2.414   3.122 -1.8687 -0.0933 -0.3491
  217MOL0     H28639   4.840   2.381   2.968 -0.7488 -0.2522 -0.3205
  217MOL0     H28640   4.970   2.634   3.035  0.7627 -0.4501  0.1512
  217MOL0     H28641   4.930   2.579   2.863 -2.2716  1.7983 -0.4792
  217MOL0     H28642   4.577   2.707   2.993  0.9162  2.4184 -2.6754
  217MOL0     H28643   5.386   2.205   3.090 -1.5875 -0.8156  5.0424
  217MOL0     H28644   5.590   2.201   3.215 -0.4034  0.2706  0.9207
  218MOL0     O28645   9.968   3.169   0.001 -0.1079  0.5957  0.9094
  218MOL0     C28646   9.880   3.252   0.028 -1.1993 -0.0470  0.6584
  218MOL0     O28647   9.897   3.355   0.115  0.0621  0.7595 -0.1090
  218MOL0     C28648  10.007   3.377   0.189  0.0668  0.3439 -1.2262
  218MOL0     C28649  10.002   3.361   0.329  0.4045 -1.0545 -1.0201
  218MOL0     C28650  10.106   3.401   0.412 -0.4674  0.2121  0.4191
  218MOL0     C28651  10.227   3.427   0.350 -0.6352 -0.5863 -0.2365
  218MOL0     O28652  10.322   3.457   0.440  0.5233 -0.3400 -0.0681
  218MOL0     C28653  10.437   3.523   0.381  0.6137  0.1176 -0.4001
  218MOL0     C28654  10.519   3.554   0.505  0.2825 -0.6261 -0.3637
  218MOL0     C28655  10.660   3.601   0.464  0.3415  0.5355 -0.5581
  218MOL0     C28656  10.735   3.652   0.579 -0.2664 -0.4559 -0.1585
  218MOL0     C28657  10.857   3.750   0.551  0.8658 -0.5217 -0.3177
  218MOL0     C28658  10.976   3.672   0.496  0.4632 -0.2690  0.2651
  218MOL0     C28659  11.089   3.763   0.438  1.8879 -1.0028 -0.1243
  218MOL0     C28660  11.194   3.709   0.334  0.5092 -0.3469  0.1841
  218MOL0     N28661  11.263   3.806   0.250  0.6181 -0.0253 -0.1859
  218MOL0     C28662  11.198   3.873   0.145 -0.7146 -0.7833 -0.0044
  218MOL0     C28663  11.296   3.951   0.103 -0.0931 -1.2455  0.5023
  218MOL0     C28664  11.273   4.046  -0.008 -0.0735 -0.3276 -0.3725
  218MOL0     C28665  11.310   3.981  -0.143 -0.9481  0.4117  0.3317
  218MOL0     C28666  11.319   4.078  -0.262  0.6246 -0.1307  0.7368
  218MOL0     C28667  11.185   4.142  -0.287  0.5142 -0.4719 -0.1306
  218MOL0     O28668  11.081   4.039  -0.292 -0.0644 -0.4329 -0.1137
  218MOL0     C28669  10.955   4.092  -0.287 -0.4776 -0.0682  0.8764
  218MOL0     C28670  10.923   4.229  -0.285  0.0699 -0.8376 -0.1594
  218MOL0     C28671  10.780   4.264  -0.273  0.0509 -0.6998 -0.2193
  218MOL0     C28672  10.678   4.169  -0.281  0.9295 -0.9220 -0.4031
  218MOL0     C28673  10.532   4.209  -0.289  0.4048  0.9309 -0.0224
  218MOL0     O28674  10.440   4.110  -0.268 -0.3770  0.4034 -0.1010
  218MOL0     C28675  10.302   4.127  -0.284 -0.2247  1.1693  0.0614
  218MOL0     C28676  10.240   4.218  -0.376  0.4233 -0.1444  0.3619
  218MOL0     C28677  10.106   4.250  -0.376  0.5131 -0.2680 -0.2914
  218MOL0     C28678  10.019   4.180  -0.285 -0.6709  0.0293 -1.1883
  218MOL0     O28679   9.885   4.210  -0.264 -0.4792 -0.5458  0.4047
  218MOL0     C28680   9.795   4.117  -0.200 -0.2710  0.1102 -0.4280
  218MOL0     C28681   9.646   4.154  -0.220  0.0458 -0.0687 -0.7476
  218MOL0     C28682   9.535   4.061  -0.161 -0.3245 -1.0579  0.3892
  218MOL0     C28683   9.393   4.085  -0.206  0.2364 -0.5297  0.0602
  218MOL0     C28684   9.287   4.047  -0.094 -0.6120 -1.1013  0.2576
  218MOL0     C28685   9.152   4.093  -0.154 -0.0846 -0.3593 -0.4443
  218MOL0     C28686   9.130   4.242  -0.166 -0.6299  0.6479  0.3040
  218MOL0     C28687   9.002   4.289  -0.092 -0.8245 -0.7517 -0.5510
  218MOL0    Cl28688   8.841   4.267  -0.170  0.6837  0.3648 -0.0264
  218MOL0     C28689  10.078   4.077  -0.210  0.2045  1.0181  0.1362
  218MOL0     C28690  10.213   4.048  -0.203 -0.1046 -0.1288 -0.4792
  218MOL0     O28691  10.505   4.324  -0.313  0.3799  0.7650  0.1876
  218MOL0     C28692  10.714   4.042  -0.305  0.5498  0.8359  1.3733
  218MOL0     C28693  10.846   4.000  -0.303 -0.4804  0.1841  0.3678
  218MOL0     N28694  11.415   3.925   0.160 -0.5098  0.4171  0.3039
  218MOL0     N28695  11.397   3.846   0.255  1.1968 -0.0778  0.2171
  218MOL0     C28696  10.239   3.427   0.207  0.4256 -1.6337  0.2534
  218MOL0     C28697  10.126   3.414   0.136  0.7217  0.3893  0.4565
  218MOL0     C28698   9.745   3.231  -0.041 -0.5078  0.0962 -0.3787
  218MOL0     C28699   9.631   3.289   0.013  0.7554 -0.8520  0.3139
  218MOL0     C28700   9.501   3.264  -0.037  0.3126 -0.1637  0.7720
  218MOL0     C28701   9.492   3.177  -0.147 -0.1109  0.3197  0.2212
  218MOL0     O28702   9.383   3.129  -0.213  0.0919  0.3285 -0.1159
  218MOL0     C28703   9.267   3.145  -0.134 -0.7444  0.6974 -0.9336
  218MOL0     C28704   9.153   3.060  -0.175 -0.3255 -0.4472 -0.6367
  218MOL0     C28705   9.194   2.912  -0.167 -0.7371 -0.3557  0.2327
  218MOL0     C28706   9.067   2.827  -0.170 -0.0588 -0.2070 -0.0142
  218MOL0     C28707   9.090   2.692  -0.127 -0.0849 -0.5614 -0.2571
  218MOL0     C28708   9.096   2.579  -0.093 -0.2364  0.7182 -0.4979
  218MOL0     C28709   9.603   3.127  -0.195 -0.8061 -1.0112 -0.5051
  218MOL0     C28710   9.734   3.159  -0.153 -0.7761  0.1728 -0.9617
  218MOL0     H28711   9.914   3.328   0.384  0.5542 -1.0250 -0.7650
  218MOL0     H28712  10.095   3.400   0.520  1.6347  0.4742  0.6715
  218MOL0     H28713  10.429   3.609   0.314  0.9501 -0.6399 -1.4443
  218MOL0     H28714  10.498   3.446   0.332  1.3248  0.5672 -0.2327
  218MOL0     H28715  10.527   3.467   0.570 -1.6959 -0.7161 -0.1928
  218MOL0     H28716  10.460   3.629   0.558 -0.2514 -0.7970 -0.7041
  218MOL0     H28717  10.657   3.681   0.390  0.0996  0.0324 -1.1009
  218MOL0     H28718  10.717   3.516   0.426 -0.8851 -0.5340 -0.1077
  218MOL0     H28719  10.674   3.697   0.658 -1.2328 -1.3307 -0.3887
  218MOL0     H28720  10.758   3.558   0.631 -1.5106 -1.4398 -1.3096
  218MOL0     H28721  10.880   3.802   0.644 -1.6378 -0.6880  0.4825
  218MOL0     H28722  10.822   3.813   0.468  0.8793 -1.9869 -1.4731
  218MOL0     H28723  10.942   3.608   0.415  2.5247 -1.6188  0.4018
  218MOL0     H28724  11.024   3.616   0.577  3.5432  2.9914  0.9663
  218MOL0     H28725  11.036   3.844   0.386 -0.6452 -2.5348 -0.0679
  218MOL0     H28726  11.145   3.816   0.516  0.4106  0.7033 -0.1569
  218MOL0     H28727  11.142   3.643   0.264 -1.8268  0.5576  0.9511
  218MOL0     H28728  11.269   3.647   0.383  1.7433 -3.9696 -5.3725
  218MOL0     H28729  11.094   3.855   0.119 -0.0480 -4.9158 -0.5497
  218MOL0     H28730  11.336   4.133   0.013 -0.2110 -0.1855 -0.5506
  218MOL0     H28731  11.169   4.076  -0.011 -0.5020 -1.4094  1.7458
  218MOL0     H28732  11.234   3.905  -0.163 -0.0823 -0.4538  0.2433
  218MOL0     H28733  11.404   3.925  -0.136 -1.3203 -0.3553 -0.5600
  218MOL0     H28734  11.390   4.160  -0.243  1.6110 -0.6929 -0.3798
  218MOL0     H28735  11.355   4.020  -0.347  0.1195 -1.9993  1.7521
  218MOL0     H28736  11.188   4.203  -0.378 -0.8990  1.8660  1.2875
  218MOL0     H28737  11.168   4.213  -0.205 -1.2040 -0.8915 -0.0891
  218MOL0     H28738  10.993   4.311  -0.281  0.6957 -1.4255  2.5474
  218MOL0     H28739  10.761   4.371  -0.272  1.7383 -0.3755  0.7521
  218MOL0     H28740  10.313   4.274  -0.435  0.9251 -2.1683 -1.0591
  218MOL0     H28741  10.048   4.321  -0.434 -1.8112 -0.5568  1.4898
  218MOL0     H28742   9.809   4.113  -0.092 -2.9263  0.8670  0.0150
  218MOL0     H28743   9.815   4.022  -0.251 -1.7012  0.5198 -1.8546
  218MOL0     H28744   9.613   4.181  -0.320  1.3992 -0.5916 -1.3582
  218MOL0     H28745   9.640   4.238  -0.150  0.7527  0.6055 -1.4761
  218MOL0     H28746   9.541   4.079  -0.053  0.5509  0.1855  0.1484
  218MOL0     H28747   9.554   3.955  -0.180 -0.6897 -1.3447  1.5454
  218MOL0     H28748   9.392   4.195  -0.203 -0.0040 -0.5403  2.0326
  218MOL0     H28749   9.377   4.046  -0.307 -1.1864 -1.8091  0.7441
  218MOL0     H28750   9.307   4.106  -0.004 -2.1197  0.7117 -0.5085
  218MOL0     H28751   9.287   3.938  -0.082  3.4409 -1.4095 -1.1454
  218MOL0     H28752   9.074   4.070  -0.081  0.6149  0.4124  0.5702
  218MOL0     H28753   9.121   4.040  -0.244 -0.5040  1.5275 -1.4555
  218MOL0     H28754   9.209   4.294  -0.112 -0.8608  0.4550  0.8298
  218MOL0     H28755   9.118   4.271  -0.271  0.6843 -0.4916 -0.2014
  218MOL0     H28756   9.024   4.392  -0.064 -0.1073 -0.7287 -1.1802
  218MOL0     H28757   8.998   4.233   0.002 -1.6970  0.0346 -0.0967
  218MOL0     H28758  10.006   4.027  -0.146 -1.5113  0.6809 -1.9242
  218MOL0     H28759  10.249   3.972  -0.134  0.7235 -0.9398 -1.7767
  218MOL0     H28760  10.634   3.972  -0.325 -0.9870  3.0284 -0.8143
  218MOL0     H28761  10.864   3.895  -0.319  0.6185 -0.2520  3.7526
  218MOL0     H28762  10.325   3.443   0.142 -0.8343 -2.5062 -1.7597
  218MOL0     H28763  10.131   3.419   0.028 -3.1296  0.3750  0.1338
  218MOL0     H28764   9.637   3.366   0.088 -0.7729  2.1862 -2.4191
  218MOL0     H28765   9.414   3.313   0.005 -1.8504 -4.2378  1.5643
  218MOL0     H28766   9.233   3.248  -0.125 -3.3819 -0.0184 -1.7762
  218MOL0     H28767   9.297   3.113  -0.034  1.3969  0.3903 -1.6037
  218MOL0     H28768   9.074   3.090  -0.105  0.2960  1.8830 -0.8337
  218MOL0     H28769   9.119   3.093  -0.274 -0.3850 -2.0608 -1.1810
  218MOL0     H28770   9.256   2.892  -0.079 -1.8911  0.1128  1.1650
  218MOL0     H28771   9.259   2.882  -0.250  0.1399 -0.5863  0.9828
  218MOL0     H28772   9.002   2.879  -0.099  1.2624 -2.0839  2.7851
  218MOL0     H28773   9.028   2.825  -0.272  0.5566  1.1485 -0.2902
  218MOL0     H28774   9.113   2.478  -0.063  0.6643  0.9597 -0.1306
  218MOL0     H28775   9.594   3.055  -0.276 -0.3346 -2.7289  0.9097
  218MOL0     H28776   9.816   3.117  -0.211 -1.8033 -1.3998 -1.3741
  219MOL0     O28777   3.807   5.315   9.338  0.2624 -0.0546 -0.0728
  219MOL0     C28778   3.808   5.438   9.324  0.7123  0.1658  0.1600
  219MOL0     O28779   3.696   5.510   9.317 -0.1576  0.2535  0.8091
  219MOL0     C28780   3.568   5.468   9.296 -0.0489 -0.5186  0.0414
  219MOL0     C28781   3.491   5.394   9.385 -1.0982  0.6838  0.6714
  219MOL0     C28782   3.353   5.377   9.368 -0.2377 -0.5041 -0.2111
  219MOL0     C28783   3.290   5.430   9.250 -0.4484  0.4536  0.0208
  219MOL0     O28784   3.152   5.411   9.247  0.8459  0.0906  0.6385
  219MOL0     C28785   3.081   5.495   9.154 -0.2425 -0.3097  0.2987
  219MOL0     C28786   2.932   5.535   9.205  0.1551 -0.1016 -0.5871
  219MOL0     C28787   2.845   5.416   9.219  0.5659  0.1378  0.2330
  219MOL0     C28788   2.710   5.455   9.276 -0.1385 -0.2569  0.3995
  219MOL0     C28789   2.628   5.343   9.341 -1.1347 -1.3648  0.9352
  219MOL0     C28790   2.633   5.211   9.280 -0.1810  0.1438  0.4411
  219MOL0     C28791   2.525   5.106   9.321  0.4031  0.1760  1.0605
  219MOL0     C28792   2.576   4.967   9.290  0.5531 -0.1731 -0.2363
  219MOL0     N28793   2.543   4.906   9.160 -0.5246 -0.2280  0.5103
  219MOL0     C28794   2.633   4.890   9.052  0.8740  0.3293 -0.8937
  219MOL0     C28795   2.571   4.814   8.968  0.1845  0.6152  0.5861
  219MOL0     C28796   2.648   4.756   8.850 -0.1573 -0.3717 -0.3588
  219MOL0     C28797   2.618   4.603   8.834  0.2506  0.1131 -0.5991
  219MOL0     C28798   2.649   4.527   8.962  0.1159  1.2488  0.5828
  219MOL0     C28799   2.669   4.385   8.929  0.3321  0.1791 -0.1305
  219MOL0     O28800   2.761   4.360   8.823 -0.0608  0.3011 -0.6519
  219MOL0     C28801   2.891   4.390   8.855  0.3962 -0.6278 -0.4496
  219MOL0     C28802   2.946   4.500   8.787  0.0258 -0.2133  0.5302
  219MOL0     C28803   3.084   4.536   8.813  0.6308  0.6114  0.1815
  219MOL0     C28804   3.157   4.460   8.900 -0.2667 -0.1962  0.2764
  219MOL0     C28805   3.296   4.488   8.908  0.7848 -0.1467 -1.3334
  219MOL0     O28806   3.331   4.618   8.912 -0.6499  0.0875  0.0061
  219MOL0     C28807   3.460   4.653   8.898 -0.3536  0.2320  0.1530
  219MOL0     C28808   3.507   4.708   8.779 -0.1140  0.5353  0.5716
  219MOL0     C28809   3.644   4.746   8.774  0.7336  0.4432 -0.0383
  219MOL0     C28810   3.731   4.726   8.884 -0.7355 -0.1923 -0.4871
  219MOL0     O28811   3.870   4.741   8.864  0.1995  0.2140  0.2146
  219MOL0     C28812   3.918   4.840   8.774  0.0132  0.1758 -0.2860
  219MOL0     C28813   4.070   4.815   8.766  0.0171 -0.8906  0.6633
  219MOL0     C28814   4.152   4.847   8.892  0.1292  0.1599 -0.0459
  219MOL0     C28815   4.281   4.762   8.890  0.5375 -0.2398 -0.1652
  219MOL0     C28816   4.380   4.811   9.003 -0.2591 -0.1985  0.4549
  219MOL0     C28817   4.509   4.730   9.029  0.3113 -0.2850  0.1553
  219MOL0     C28818   4.487   4.596   9.109  0.4418 -0.5415 -0.7876
  219MOL0     C28819   4.537   4.458   9.057 -0.3629 -0.6358 -0.2873
  219MOL0    Cl28820   4.437   4.428   8.903  0.1189 -0.1825  0.1714
  219MOL0     C28821   3.682   4.679   9.004  0.0663 -0.4990 -0.8732
  219MOL0     C28822   3.543   4.649   9.018 -0.4753  0.3693 -0.3307
  219MOL0     O28823   3.368   4.392   8.905 -0.1547  0.4764 -0.3062
  219MOL0     C28824   3.107   4.356   8.974  0.2373  1.0343 -0.8732
  219MOL0     C28825   2.970   4.317   8.943  0.1959  1.8078  0.0360
  219MOL0     N28826   2.441   4.785   9.010 -0.2321 -0.1734 -0.0125
  219MOL0     N28827   2.423   4.845   9.125 -0.0414 -0.1429 -0.7082
  219MOL0     C28828   3.368   5.508   9.167 -0.8408 -0.4745  0.8899
  219MOL0     C28829   3.502   5.538   9.190 -0.0948  0.5517  0.0574
  219MOL0     C28830   3.931   5.506   9.310  0.8954 -0.1471  0.0877
  219MOL0     C28831   3.938   5.652   9.283  0.1334 -0.1931  0.9419
  219MOL0     C28832   4.065   5.707   9.267  1.3722 -1.4141  0.1045
  219MOL0     C28833   4.182   5.623   9.272 -0.1317 -0.6905  0.3261
  219MOL0     O28834   4.299   5.687   9.235 -0.8600  0.1867  0.1062
  219MOL0     C28835   4.424   5.603   9.233  1.0124  0.7667  0.4323
  219MOL0     C28836   4.546   5.698   9.206 -0.5235 -0.3749 -0.4724
  219MOL0     C28837   4.530   5.779   9.076 -0.6482 -0.0911 -0.2062
  219MOL0     C28838   4.667   5.861   9.045  0.7463 -0.0077  0.0221
  219MOL0     C28839   4.784   5.787   9.006  0.1062 -0.5215  1.0000
  219MOL0     C28840   4.895   5.728   8.977  0.5016 -0.4854  0.6429
  219MOL0     C28841   4.175   5.489   9.305 -0.3908  0.6463  0.0370
  219MOL0     C28842   4.050   5.433   9.331 -0.2908 -1.0221 -0.0004
  219MOL0     H28843   3.527   5.332   9.466 -1.2960  2.3730  2.1116
  219MOL0     H28844   3.300   5.317   9.441  2.2105  0.5654  2.6461
  219MOL0     H28845   3.073   5.452   9.054  1.1760  3.4227 -1.6262
  219MOL0     H28846   3.139   5.588   9.149 -0.5337 -0.1737 -0.8013
  219MOL0     H28847   2.883   5.604   9.136  3.2232  0.2440 -2.6064
  219MOL0     H28848   2.938   5.588   9.300 -0.0072  0.7866 -1.0630
  219MOL0     H28849   2.895   5.342   9.282  1.5227 -1.1572 -1.9344
  219MOL0     H28850   2.822   5.357   9.129 -0.0820  1.1525 -0.2777
  219MOL0     H28851   2.728   5.538   9.345  0.1100 -1.7685  2.2065
  219MOL0     H28852   2.646   5.502   9.201  2.0971  0.8320 -0.9275
  219MOL0     H28853   2.526   5.382   9.338  0.1388  2.2835  0.0092
  219MOL0     H28854   2.660   5.334   9.446  2.2798 -0.3738  0.0913
  219MOL0     H28855   2.736   5.178   9.297  0.3627  0.1634 -2.3903
  219MOL0     H28856   2.626   5.229   9.172 -0.0874  1.2449  0.5984
  219MOL0     H28857   2.502   5.116   9.428 -1.9900 -0.1824  0.6314
  219MOL0     H28858   2.435   5.123   9.261  1.3328  0.8424 -0.1985
  219MOL0     H28859   2.542   4.907   9.375 -2.2235  0.0405 -1.1109
  219MOL0     H28860   2.685   4.961   9.303  0.3316  1.0114  3.2267
  219MOL0     H28861   2.733   4.930   9.060  2.2193 -3.0389  1.0632
  219MOL0     H28862   2.755   4.781   8.851 -0.1489 -0.1264 -2.3053
  219MOL0     H28863   2.609   4.814   8.765 -3.9410 -1.6112  0.3537
  219MOL0     H28864   2.680   4.573   8.749  0.8956  0.3470 -0.2187
  219MOL0     H28865   2.513   4.583   8.808 -0.8249  3.5424  0.4903
  219MOL0     H28866   2.741   4.573   9.001  1.6400 -0.9874 -0.1243
  219MOL0     H28867   2.572   4.542   9.039 -0.6376  0.4106  0.0114
  219MOL0     H28868   2.574   4.343   8.894  0.1042 -2.0791  2.8066
  219MOL0     H28869   2.702   4.329   9.017  2.1030 -0.2565 -1.0251
  219MOL0     H28870   2.896   4.569   8.720  3.1118  2.5485  0.8128
  219MOL0     H28871   3.114   4.621   8.752 -2.0334  1.6776  0.2453
  219MOL0     H28872   3.447   4.723   8.690  2.2724  3.5837 -0.7226
  219MOL0     H28873   3.680   4.791   8.682 -2.6090  1.7722 -0.8454
  219MOL0     H28874   3.911   4.942   8.813  1.6991  1.3674 -2.8429
  219MOL0     H28875   3.885   4.833   8.670 -0.9754 -3.7582  0.1461
  219MOL0     H28876   4.128   4.852   8.681  0.4608  0.5992  1.5840
  219MOL0     H28877   4.075   4.707   8.745  0.2866 -1.5398  3.6233
  219MOL0     H28878   4.089   4.827   8.979  0.3526 -1.4058 -0.2091
  219MOL0     H28879   4.182   4.950   8.871 -0.7248 -0.0552 -2.5738
  219MOL0     H28880   4.268   4.653   8.899  3.7540 -0.7742 -0.6183
  219MOL0     H28881   4.340   4.782   8.800  0.7570 -0.8569 -0.1654
  219MOL0     H28882   4.331   4.821   9.100 -2.5990  1.2448 -0.7870
  219MOL0     H28883   4.412   4.915   8.989  1.3824 -0.7985 -0.5641
  219MOL0     H28884   4.585   4.791   9.078 -2.2935  0.7639  3.1345
  219MOL0     H28885   4.547   4.702   8.930  1.1320  0.7794  0.1538
  219MOL0     H28886   4.522   4.625   9.209 -0.8365  1.0800 -0.7776
  219MOL0     H28887   4.379   4.583   9.118  0.3304  0.1120 -1.1214
  219MOL0     H28888   4.532   4.378   9.131 -0.2190  1.7717  2.5244
  219MOL0     H28889   4.641   4.470   9.025 -1.0388 -2.3777 -3.4430
  219MOL0     H28890   3.750   4.697   9.086 -1.3844 -1.3061  0.5763
  219MOL0     H28891   3.491   4.623   9.109  1.7312 -0.9975  0.6119
  219MOL0     H28892   3.150   4.304   9.059  0.5097  1.0507 -0.9998
  219MOL0     H28893   2.934   4.232   9.000 -1.7197  1.3046 -1.7850
  219MOL0     H28894   3.328   5.528   9.069 -1.1363 -2.5483  0.5415
  219MOL0     H28895   3.559   5.609   9.131 -1.9271  0.1819 -2.3157
  219MOL0     H28896   3.858   5.723   9.269 -0.8080 -1.3484  0.2053
  219MOL0     H28897   4.068   5.810   9.233 -1.5437 -1.1235  0.4260
  219MOL0     H28898   4.419   5.526   9.154 -2.0300  0.8717  0.4015
  219MOL0     H28899   4.439   5.541   9.322  2.0337 -1.9579 -1.4760
  219MOL0     H28900   4.579   5.759   9.290  0.9898  0.6382 -1.7330
  219MOL0     H28901   4.630   5.632   9.180  0.6128  1.2261 -1.0596
  219MOL0     H28902   4.453   5.851   9.105  1.2352  1.0162  2.3850
  219MOL0     H28903   4.498   5.713   8.995  1.9436 -2.4173  0.5170
  219MOL0     H28904   4.626   5.925   8.966 -0.7775  0.5730  1.2175
  219MOL0     H28905   4.697   5.925   9.129 -0.0253  1.7396 -0.9735
  219MOL0     H28906   4.995   5.691   8.966  0.3770 -0.1386 -2.4237
  219MOL0     H28907   4.254   5.416   9.309  0.6731  1.7462 -0.2081
  219MOL0     H28908   4.049   5.327   9.355  1.2136 -0.8817  0.8599
  220MOL0     O28909   9.580   8.948   3.366 -0.0558 -0.2896 -0.2955
  220MOL0     C28910   9.655   8.961   3.268  0.4464 -0.3162 -0.9271
  220MOL0     O28911   9.626   8.981   3.136 -0.2760 -0.5719 -0.3816
  220MOL0     C28912   9.500   8.961   3.074 -1.2050 -0.2273 -1.4782
  220MOL0     C28913   9.401   8.875   3.126  0.9430  0.1037  0.6384
  220MOL0     C28914   9.291   8.858   3.036 -0.2362  0.0760 -0.0995
  220MOL0     C28915   9.283   8.935   2.908  0.3433  0.2212  0.6436
  220MOL0     O28916   9.166   8.938   2.833  0.4252 -0.5691  0.3254
  220MOL0     C28917   9.040   8.937   2.909  0.3440 -0.7821 -0.7162
  220MOL0     C28918   8.939   8.909   2.791  0.5622 -0.5278 -0.0300
  220MOL0     C28919   8.794   8.918   2.852  0.3032  0.2063  0.1616
  220MOL0     C28920   8.694   8.831   2.780 -0.0757 -0.8003 -0.3365
  220MOL0     C28921   8.550   8.835   2.821 -0.2534 -0.2642 -0.3174
  220MOL0     C28922   8.497   8.979   2.834 -0.2653  0.3369  0.1920
  220MOL0     C28923   8.347   8.962   2.832  0.0373  0.0684 -0.6473
  220MOL0     C28924   8.289   9.067   2.933 -0.4525  0.3201  0.1079
  220MOL0     N28925   8.139   9.062   2.924  0.0497  0.2461 -0.3598
  220MOL0     C28926   8.065   8.964   2.973 -0.9483 -0.0056 -0.4226
  220MOL0     C28927   7.942   8.974   2.917 -0.6023  0.9467 -0.1094
  220MOL0     C28928   7.830   8.879   2.947 -0.3818  0.1938 -0.1111
  220MOL0     C28929   7.751   8.844   2.822  0.7172  0.6219  0.3202
  220MOL0     C28930   7.633   8.748   2.844  0.0635  0.3811 -0.2161
  220MOL0     C28931   7.529   8.787   2.950 -1.1410  0.4645  0.3636
  220MOL0     O28932   7.442   8.887   2.901  0.2372 -0.1178 -0.1057
  220MOL0     C28933   7.319   8.858   2.850  0.6253 -0.1817 -0.5938
  220MOL0     C28934   7.269   8.732   2.812 -0.6419 -0.2170  0.0756
  220MOL0     C28935   7.134   8.718   2.769  0.7265  0.4107  0.4047
  220MOL0     C28936   7.045   8.827   2.771 -0.6687 -0.7852  0.5017
  220MOL0     C28937   6.901   8.821   2.721  0.3201 -0.0288 -0.7077
  220MOL0     O28938   6.825   8.930   2.720  0.1110  0.1880 -0.2722
  220MOL0     C28939   6.683   8.930   2.734 -0.3198 -0.1248  0.3513
  220MOL0     C28940   6.611   8.845   2.815  0.6137 -0.3156 -0.4758
  220MOL0     C28941   6.469   8.860   2.811 -0.8567 -1.1196  0.0257
  220MOL0     C28942   6.406   8.937   2.711  0.2535 -0.5288  0.5836
  220MOL0     O28943   6.269   8.936   2.686 -1.1573  0.3065 -0.0221
  220MOL0     C28944   6.179   8.857   2.767  0.3481  0.1796 -0.5200
  220MOL0     C28945   6.041   8.911   2.751 -0.4355  0.4759  0.5658
  220MOL0     C28946   5.928   8.828   2.823 -0.8134 -0.4416 -0.2036
  220MOL0     C28947   5.800   8.882   2.785  0.5534 -0.8782 -0.3669
  220MOL0     C28948   5.682   8.794   2.813 -0.9886 -0.1236 -0.6754
  220MOL0     C28949   5.539   8.853   2.787  1.5113  0.3654 -0.2621
  220MOL0     C28950   5.433   8.747   2.766 -0.1057  0.7194 -0.5891
  220MOL0     C28951   5.401   8.677   2.896  0.5972 -0.7278  0.1367
  220MOL0    Cl28952   5.485   8.504   2.897  0.1316  0.4903  0.2914
  220MOL0     C28953   6.479   9.015   2.622 -0.1641 -0.1403 -0.6309
  220MOL0     C28954   6.626   9.020   2.642  0.3674 -0.3592  0.8490
  220MOL0     O28955   6.859   8.714   2.676 -0.2147 -1.0373  0.8941
  220MOL0     C28956   7.104   8.951   2.783 -0.3746 -0.2628 -0.0561
  220MOL0     C28957   7.231   8.964   2.840  0.3249 -0.2237 -0.1963
  220MOL0     N28958   7.948   9.064   2.812  0.9257  0.0275  0.0615
  220MOL0     N28959   8.067   9.115   2.823 -0.8409 -0.6147 -0.0943
  220MOL0     C28960   9.388   9.008   2.871 -0.2170  0.3708  0.9745
  220MOL0     C28961   9.490   9.037   2.966  0.3613 -0.1709  0.6599
  220MOL0     C28962   9.789   8.922   3.287 -0.9507  0.1518  0.1721
  220MOL0     C28963   9.897   8.980   3.225 -0.4511  0.0122 -0.4670
  220MOL0     C28964  10.027   8.945   3.249 -0.4065  0.4487  0.9201
  220MOL0     C28965  10.057   8.847   3.345  1.2529 -0.4914  0.2103
  220MOL0     O28966  10.185   8.813   3.355 -0.1514  0.2083  0.1689
  220MOL0     C28967  10.239   8.738   3.464 -0.2281  1.2542  0.5389
  220MOL0     C28968  10.387   8.714   3.448  0.6436  0.0032  0.6070
  220MOL0     C28969  10.466   8.840   3.406  0.4789  0.4883 -0.1002
  220MOL0     C28970  10.612   8.787   3.402 -0.4298 -0.3532 -0.4349
  220MOL0     C28971  10.693   8.903   3.354 -0.3345 -0.2698  0.2292
  220MOL0     C28972  10.753   8.999   3.305  0.5170 -0.2973 -0.3846
  220MOL0     C28973   9.950   8.785   3.415  1.3726 -0.2485  0.1589
  220MOL0     C28974   9.818   8.826   3.384 -0.0360  0.0785  0.1674
  220MOL0     H28975   9.414   8.840   3.228 -2.5804  2.2752  1.9763
  220MOL0     H28976   9.205   8.800   3.068 -0.7798  0.8243 -0.1459
  220MOL0     H28977   9.023   9.029   2.966  1.6678 -1.9505  1.6928
  220MOL0     H28978   9.024   8.851   2.975 -1.6026  1.3264  1.7799
  220MOL0     H28979   8.966   8.816   2.741  1.6766 -0.6587  0.7796
  220MOL0     H28980   8.945   8.987   2.714  1.0802  1.2022  1.6762
  220MOL0     H28981   8.764   9.022   2.838  4.0557  1.2365 -1.6113
  220MOL0     H28982   8.799   8.887   2.957 -0.9047  0.0979  0.1960
  220MOL0     H28983   8.705   8.872   2.679  2.1136 -0.6229 -0.0675
  220MOL0     H28984   8.721   8.725   2.784 -0.0242 -0.7804 -0.1500
  220MOL0     H28985   8.545   8.800   2.925 -1.3985 -0.3456 -0.3862
  220MOL0     H28986   8.480   8.784   2.754 -2.4666  2.9287 -0.6378
  220MOL0     H28987   8.519   9.036   2.743 -4.0451 -0.0367 -1.0970
  220MOL0     H28988   8.543   9.027   2.922  2.0176 -1.0761 -0.1617
  220MOL0     H28989   8.316   8.975   2.728  0.0331  2.8826 -0.3601
  220MOL0     H28990   8.316   8.868   2.879 -1.4874  1.1015  0.4916
  220MOL0     H28991   8.325   9.167   2.910  0.5056 -0.4070 -1.7555
  220MOL0     H28992   8.310   9.027   3.032 -3.0569 -1.3365  0.0869
  220MOL0     H28993   8.096   8.891   3.047 -2.8241 -1.6318 -1.1534
  220MOL0     H28994   7.757   8.937   3.004 -0.9480 -0.6244  0.0235
  220MOL0     H28995   7.845   8.795   3.016  1.7190 -0.6323 -1.4894
  220MOL0     H28996   7.813   8.802   2.741 -1.4432  0.8805 -1.5716
  220MOL0     H28997   7.703   8.932   2.779  2.6941  1.8541  0.5065
  220MOL0     H28998   7.568   8.731   2.758 -1.7677  2.8473  0.5714
  220MOL0     H28999   7.664   8.646   2.870 -1.6112 -0.2227 -0.4504
  220MOL0     H29000   7.570   8.831   3.041 -3.2659  2.2007  0.5642
  220MOL0     H29001   7.479   8.698   2.989  0.5497 -0.5298  0.3569
  220MOL0     H29002   7.322   8.640   2.790 -1.2655 -0.1838 -1.7311
  220MOL0     H29003   7.101   8.621   2.732  0.1461 -0.0031  1.9584
  220MOL0     H29004   6.666   8.788   2.889 -0.1980 -0.9477 -0.3472
  220MOL0     H29005   6.412   8.812   2.889 -2.3964  1.6620  0.7523
  220MOL0     H29006   6.214   8.862   2.871  1.2544  0.8633 -0.8470
  220MOL0     H29007   6.189   8.751   2.746  3.5618  0.8290 -2.8874
  220MOL0     H29008   6.015   8.901   2.645  0.6723 -0.6268  0.3721
  220MOL0     H29009   6.045   9.016   2.780  0.9947  0.1300  1.7007
  220MOL0     H29010   5.947   8.820   2.931  2.5234 -1.9965 -0.7840
  220MOL0     H29011   5.937   8.726   2.787 -2.1731 -1.9048  3.1489
  220MOL0     H29012   5.791   8.980   2.833  2.8865  0.0945 -1.7986
  220MOL0     H29013   5.792   8.911   2.680 -3.3414  2.2350  0.5413
  220MOL0     H29014   5.685   8.749   2.913  0.8887  0.1071 -0.5869
  220MOL0     H29015   5.690   8.703   2.753  0.0218 -0.0549 -0.6562
  220MOL0     H29016   5.541   8.923   2.703  0.0887  0.7972  0.0379
  220MOL0     H29017   5.515   8.909   2.877 -0.7327  1.2453 -1.3316
  220MOL0     H29018   5.340   8.797   2.736 -0.1959  1.0428  0.1993
  220MOL0     H29019   5.476   8.675   2.696 -0.1778 -1.4314  1.4821
  220MOL0     H29020   5.293   8.663   2.896  0.4210  0.4077 -1.4536
  220MOL0     H29021   5.417   8.741   2.984 -2.2599 -2.1949  1.8737
  220MOL0     H29022   6.418   9.064   2.546 -5.6359 -1.0871  2.6485
  220MOL0     H29023   6.676   9.103   2.592 -0.3514  0.0058  0.7094
  220MOL0     H29024   7.039   9.027   2.742 -4.3596 -2.7417  1.1504
  220MOL0     H29025   7.253   9.068   2.864  2.7576 -1.1412  2.0484
  220MOL0     H29026   9.394   9.059   2.776 -0.8356  0.3478  0.9169
  220MOL0     H29027   9.566   9.109   2.938  0.8797 -1.2315 -0.6997
  220MOL0     H29028   9.870   9.051   3.147 -0.4788  1.1986  0.5989
  220MOL0     H29029  10.104   8.976   3.179 -2.8769  1.3056 -1.6113
  220MOL0     H29030  10.197   8.637   3.472 -1.2304  1.8176  4.9452
  220MOL0     H29031  10.222   8.801   3.551 -0.7752  1.5603  0.2206
  220MOL0     H29032  10.426   8.684   3.546  0.6630  0.2648  0.6807
  220MOL0     H29033  10.400   8.627   3.382 -3.1860 -0.7215  0.5526
  220MOL0     H29034  10.459   8.922   3.478  2.2257 -0.5803  1.3700
  220MOL0     H29035  10.435   8.860   3.303  0.3977  1.4198  0.0987
  220MOL0     H29036  10.650   8.773   3.504  2.0201  2.0228 -0.9060
  220MOL0     H29037  10.629   8.705   3.332 -0.4833  1.0948 -2.2066
  220MOL0     H29038  10.801   9.089   3.272 -0.6138  1.3417  2.1249
  220MOL0     H29039   9.969   8.716   3.497  0.0549  0.7493  1.3576
  220MOL0     H29040   9.738   8.770   3.432  0.4006  0.4522  1.3515
  221MOL0     O29041   8.987   6.267   8.075 -0.4532  0.0221  0.3664
  221MOL0     C29042   9.019   6.354   8.150  0.5793  0.4607 -0.3769
  221MOL0     O29043   8.941   6.408   8.253  0.4970 -0.3362  0.2300
  221MOL0     C29044   8.824   6.343   8.282  0.7379  0.1226 -0.9134
  221MOL0     C29045   8.699   6.388   8.237  0.3133  0.4071 -0.3078
  221MOL0     C29046   8.585   6.317   8.254  1.6228  0.4795  0.3513
  221MOL0     C29047   8.586   6.196   8.311  0.5003  0.4905 -1.0094
  221MOL0     O29048   8.468   6.128   8.330  0.0757 -0.0438  0.4700
  221MOL0     C29049   8.469   5.986   8.358  0.6155  0.5141 -0.2386
  221MOL0     C29050   8.324   5.934   8.361 -0.1315  0.7722 -0.6007
  221MOL0     C29051   8.274   5.939   8.512 -0.3389 -0.4252  0.5847
  221MOL0     C29052   8.125   5.924   8.531  0.6271  1.1289 -0.3946
  221MOL0     C29053   8.046   6.053   8.502 -0.1106 -0.3587  0.1032
  221MOL0     C29054   7.892   6.035   8.497 -0.2162 -0.2608  1.2604
  221MOL0     C29055   7.825   5.937   8.593 -0.4999 -0.0546  0.0008
  221MOL0     C29056   7.675   5.919   8.577  0.5721  0.1600 -0.1782
  221MOL0     N29057   7.581   6.032   8.625 -0.7760 -0.4301 -0.2388
  221MOL0     C29058   7.471   6.083   8.573 -0.0782  0.0755  0.2817
  221MOL0     C29059   7.423   6.183   8.655 -0.3529  0.3791  0.3978
  221MOL0     C29060   7.296   6.253   8.618  0.7023 -0.8404  0.6687
  221MOL0     C29061   7.176   6.180   8.676 -0.2380 -0.0033  0.1772
  221MOL0     C29062   7.198   6.129   8.818 -0.3128  0.3256 -1.0299
  221MOL0     C29063   7.072   6.058   8.872  0.0140 -1.0812  0.0431
  221MOL0     O29064   6.976   6.169   8.899 -0.1712 -0.3011 -0.1279
  221MOL0     C29065   6.857   6.139   8.960 -0.0886  0.7211 -0.3067
  221MOL0     C29066   6.823   6.011   9.000  0.4103  0.5672  0.7453
  221MOL0     C29067   6.690   5.982   9.044  0.5234  0.4382 -0.7644
  221MOL0     C29068   6.593   6.082   9.049 -0.3861  1.1071 -0.2880
  221MOL0     C29069   6.448   6.050   9.094  0.3283  0.2983 -1.0091
  221MOL0     O29070   6.419   5.923   9.149 -0.5931 -0.4293 -0.0691
  221MOL0     C29071   6.290   5.883   9.163  0.7445 -0.4361 -0.2259
  221MOL0     C29072   6.275   5.743   9.144 -0.5090 -0.1258 -0.9872
  221MOL0     C29073   6.146   5.680   9.118  0.1139 -0.6083  0.7200
  221MOL0     C29074   6.034   5.760   9.119  0.0074 -0.1815  0.8143
  221MOL0     O29075   5.921   5.691   9.075 -0.5860 -0.2091 -0.2794
  221MOL0     C29076   5.824   5.663   9.179  0.9422 -0.2132  0.8096
  221MOL0     C29077   5.824   5.514   9.215 -0.1363  0.3504  0.4060
  221MOL0     C29078   5.946   5.483   9.304  0.1513  0.7569 -0.1153
  221MOL0     C29079   5.917   5.357   9.403  0.3444  0.5310 -0.6131
  221MOL0     C29080   6.024   5.358   9.507  0.2224  0.9578  0.0470
  221MOL0     C29081   6.164   5.344   9.443 -0.4179 -0.4093  0.0079
  221MOL0     C29082   6.268   5.283   9.543 -0.6628 -0.4008 -0.3623
  221MOL0     C29083   6.233   5.151   9.606 -0.0438  0.7708  0.3166
  221MOL0    Cl29084   6.213   5.011   9.491  0.1264  0.1315 -0.3696
  221MOL0     C29085   6.049   5.897   9.140 -1.0335 -0.0521  0.9892
  221MOL0     C29086   6.169   5.958   9.168  0.1244  0.5569  0.1413
  221MOL0     O29087   6.369   6.139   9.074  0.2399 -0.5862 -0.0483
  221MOL0     C29088   6.629   6.207   9.004  0.9853  0.5294 -0.2485
  221MOL0     C29089   6.756   6.235   8.958 -0.9382  0.1893  0.2458
  221MOL0     N29090   7.515   6.196   8.760 -0.4787  0.1352 -0.8011
  221MOL0     N29091   7.610   6.108   8.737 -0.5690 -0.2704 -0.2214
  221MOL0     C29092   8.706   6.145   8.374 -0.4893 -0.4642  0.3267
  221MOL0     C29093   8.826   6.217   8.348  1.0305  0.1971  0.2666
  221MOL0     C29094   9.159   6.414   8.146  0.1123  0.2328 -0.5091
  221MOL0     C29095   9.181   6.540   8.207 -0.5567 -0.8920 -1.0239
  221MOL0     C29096   9.310   6.600   8.210  0.2515  0.2391 -0.0409
  221MOL0     C29097   9.421   6.531   8.153 -0.8523 -0.2126 -1.2146
  221MOL0     O29098   9.559   6.571   8.150  0.0750  0.6398  1.0319
  221MOL0     C29099   9.594   6.691   8.219 -0.2974 -0.2709  0.0109
  221MOL0     C29100   9.736   6.710   8.211 -0.6953  0.8544 -0.2556
  221MOL0     C29101   9.787   6.758   8.071 -0.1709  0.0695  1.9732
  221MOL0     C29102   9.862   6.644   8.001 -0.4072  0.5476 -0.3585
  221MOL0     C29103   9.919   6.686   7.872 -0.3151  0.1714 -0.5124
  221MOL0     C29104   9.961   6.708   7.757 -0.6408 -0.1293  0.5395
  221MOL0     C29105   9.399   6.408   8.085 -0.5507 -0.0906  0.4384
  221MOL0     C29106   9.267   6.353   8.079 -0.0678 -0.5980  0.5928
  221MOL0     H29107   8.699   6.472   8.169  0.4134  0.4549 -0.2490
  221MOL0     H29108   8.491   6.344   8.208  0.8469  1.7468  2.5175
  221MOL0     H29109   8.521   5.966   8.452 -1.3480  1.2172  1.0547
  221MOL0     H29110   8.527   5.943   8.276 -0.3990  1.6586 -1.6162
  221MOL0     H29111   8.325   5.835   8.313 -0.5882  1.2337 -1.5914
  221MOL0     H29112   8.270   6.001   8.294  0.3372 -0.0692 -1.8540
  221MOL0     H29113   8.301   6.040   8.544 -2.1026  0.6556 -1.0587
  221MOL0     H29114   8.335   5.875   8.576  1.6431  2.4742  1.7834
  221MOL0     H29115   8.095   5.841   8.466  0.0424  2.4234 -1.8548
  221MOL0     H29116   8.107   5.906   8.637 -0.9540  2.0628 -0.4688
  221MOL0     H29117   8.078   6.096   8.407  0.3151 -5.7524 -2.5821
  221MOL0     H29118   8.078   6.117   8.585  3.2053  0.2264 -1.4661
  221MOL0     H29119   7.873   5.993   8.398  3.5730 -3.0239  1.5159
  221MOL0     H29120   7.848   6.135   8.506  2.5606  1.0295  1.4589
  221MOL0     H29121   7.853   5.835   8.563 -1.5057 -0.6642  1.0610
  221MOL0     H29122   7.854   5.951   8.697  3.7298 -0.1302 -0.9979
  221MOL0     H29123   7.657   5.826   8.631 -1.4376  0.9907  0.6968
  221MOL0     H29124   7.646   5.896   8.474  0.3874 -0.2583 -0.0354
  221MOL0     H29125   7.415   6.045   8.488 -1.6946 -0.2103  1.4258
  221MOL0     H29126   7.296   6.262   8.509  0.8690  0.4356  0.7567
  221MOL0     H29127   7.305   6.354   8.658 -3.1725 -0.6288  1.3073
  221MOL0     H29128   7.160   6.091   8.614 -0.0714 -0.9307  1.4296
  221MOL0     H29129   7.080   6.232   8.662 -2.3401 -2.6376  3.2711
  221MOL0     H29130   7.280   6.061   8.842  0.2622  1.1996 -0.4511
  221MOL0     H29131   7.221   6.220   8.875  1.7859  1.2880 -3.2477
  221MOL0     H29132   7.105   6.002   8.960 -1.3682  0.6057  1.7020
  221MOL0     H29133   7.025   5.988   8.802 -2.7479 -0.3203  1.0285
  221MOL0     H29134   6.902   5.937   9.012  0.9545  0.9682 -0.2264
  221MOL0     H29135   6.667   5.879   9.067 -1.0798  0.6224 -1.3750
  221MOL0     H29136   6.360   5.677   9.159  0.2583  1.4873  2.7920
  221MOL0     H29137   6.138   5.573   9.102 -3.8843 -0.1599 -1.3191
  221MOL0     H29138   5.732   5.698   9.131  1.3832 -0.6040 -0.3509
  221MOL0     H29139   5.851   5.721   9.268  0.3929 -1.1467  1.6141
  221MOL0     H29140   5.824   5.449   9.127  0.5091  0.2515  0.4750
  221MOL0     H29141   5.733   5.501   9.274 -1.0109 -0.0191 -0.9679
  221MOL0     H29142   5.981   5.565   9.367  0.3596  0.0086  0.7644
  221MOL0     H29143   6.041   5.462   9.254  1.0644 -1.6246  2.3700
  221MOL0     H29144   5.825   5.381   9.456  1.0601 -0.8967  1.4275
  221MOL0     H29145   5.910   5.260   9.352  1.1516  0.0327  0.1700
  221MOL0     H29146   6.016   5.293   9.594  3.5882  2.1901  1.4348
  221MOL0     H29147   6.008   5.461   9.541  0.3787  1.5315 -1.5265
  221MOL0     H29148   6.202   5.443   9.416 -1.3821 -0.5795 -2.2480
  221MOL0     H29149   6.156   5.277   9.356  0.6416 -0.6509  0.0830
  221MOL0     H29150   6.358   5.261   9.485 -2.3180 -2.6942 -2.2393
  221MOL0     H29151   6.288   5.360   9.618  1.1774 -0.6710 -0.5258
  221MOL0     H29152   6.149   5.157   9.677  1.0643 -1.3242  1.9194
  221MOL0     H29153   6.320   5.121   9.665  0.6781  1.1847 -0.5169
  221MOL0     H29154   5.964   5.963   9.123  0.6021  2.0974  0.7479
  221MOL0     H29155   6.154   6.065   9.178 -2.1874  0.1034  3.5647
  221MOL0     H29156   6.557   6.289   9.003  2.3004  1.7883  1.4882
  221MOL0     H29157   6.775   6.333   8.916 -1.3152 -1.5069 -4.6596
  221MOL0     H29158   8.712   6.055   8.434  2.6166 -0.3076  0.4012
  221MOL0     H29159   8.919   6.171   8.381  2.0357  1.7679 -0.2249
  221MOL0     H29160   9.107   6.597   8.262 -2.4293 -1.4799 -2.8001
  221MOL0     H29161   9.329   6.701   8.247  1.0536  0.1094 -0.0850
  221MOL0     H29162   9.567   6.699   8.325 -0.3759 -0.2913 -0.0066
  221MOL0     H29163   9.547   6.772   8.162  1.9948  1.0219 -0.1619
  221MOL0     H29164   9.771   6.791   8.276  1.9019  0.2643 -0.7889
  221MOL0     H29165   9.780   6.613   8.236 -4.6193 -1.6832 -2.2326
  221MOL0     H29166   9.862   6.835   8.091  1.7522 -1.4995  1.1614
  221MOL0     H29167   9.707   6.801   8.010 -1.3129 -3.9086  0.3501
  221MOL0     H29168   9.936   6.616   8.076 -1.4805  0.1191  0.5739
  221MOL0     H29169   9.798   6.557   7.986 -2.3802  1.8262  0.2611
  221MOL0     H29170   9.994   6.731   7.658 -0.4154  1.0001  0.8607
  221MOL0     H29171   9.485   6.361   8.039 -1.2507 -0.1116 -0.8934
  221MOL0     H29172   9.246   6.259   8.029  3.0693 -0.9228 -0.3823
  222MOL0     O29173   4.642   7.447   4.933 -1.1384 -0.9188  0.6039
  222MOL0     C29174   4.682   7.493   4.819  0.5149 -0.6888  0.0182
  222MOL0     O29175   4.598   7.527   4.716  0.8019 -0.2412 -0.3413
  222MOL0     C29176   4.459   7.527   4.731 -1.5502 -0.2079  0.5129
  222MOL0     C29177   4.400   7.626   4.807  0.0452  0.4896  0.3817
  222MOL0     C29178   4.264   7.608   4.846  0.2360  0.1309 -0.1996
  222MOL0     C29179   4.195   7.488   4.800 -0.7567  0.0628 -0.3948
  222MOL0     O29180   4.058   7.474   4.823  0.1378  0.3805  0.4662
  222MOL0     C29181   3.972   7.577   4.873 -0.4639  0.2652  0.2231
  222MOL0     C29182   3.849   7.515   4.937 -0.2566  0.2381 -0.8371
  222MOL0     C29183   3.745   7.622   4.966  0.3215 -0.5171  0.0006
  222MOL0     C29184   3.650   7.565   5.076  1.3307 -1.3166  0.5071
  222MOL0     C29185   3.526   7.662   5.106  0.7144 -0.5078  0.0474
  222MOL0     C29186   3.441   7.689   4.980  0.0772  0.0877 -0.5021
  222MOL0     C29187   3.296   7.738   5.009 -0.0245  0.5832  0.9895
  222MOL0     C29188   3.199   7.630   5.049  0.2604 -0.9125 -0.6687
  222MOL0     N29189   3.060   7.680   5.043  1.0427  0.5223 -0.8303
  222MOL0     C29190   2.945   7.616   5.077 -0.3552 -0.4201  0.6181
  222MOL0     C29191   2.850   7.712   5.085 -0.5012 -0.3287 -0.2507
  222MOL0     C29192   2.705   7.686   5.120 -0.7988 -0.4026 -0.6524
  222MOL0     C29193   2.658   7.770   5.237 -0.1293 -0.2477 -0.2929
  222MOL0     C29194   2.531   7.695   5.285 -1.4002  0.8382 -0.0806
  222MOL0     C29195   2.442   7.787   5.357 -0.1804  0.2587 -0.8719
  222MOL0     O29196   2.313   7.746   5.327  0.4697 -0.1275 -0.9003
  222MOL0     C29197   2.251   7.643   5.397 -0.7882  0.0984 -0.4790
  222MOL0     C29198   2.306   7.565   5.508  0.3420  0.8040  0.0441
  222MOL0     C29199   2.219   7.492   5.597 -0.1014  0.2837 -0.0011
  222MOL0     C29200   2.084   7.482   5.559  0.5585 -0.0997 -0.9113
  222MOL0     C29201   1.982   7.401   5.634  0.4282  0.7437  0.2779
  222MOL0     O29202   2.031   7.290   5.699 -0.6960 -0.2221  0.6864
  222MOL0     C29203   1.943   7.194   5.743  0.1914 -0.4579  1.1197
  222MOL0     C29204   1.817   7.165   5.684 -0.1347  0.5442 -0.5102
  222MOL0     C29205   1.740   7.049   5.733 -0.1615 -0.7821 -0.0345
  222MOL0     C29206   1.785   6.962   5.837 -0.1304 -0.2387  0.3947
  222MOL0     O29207   1.738   6.848   5.883 -0.6177  0.4667 -0.8938
  222MOL0     C29208   1.612   6.799   5.839  0.8410 -0.1900  1.1368
  222MOL0     C29209   1.541   6.748   5.956  0.3552  1.1330  0.1893
  222MOL0     C29210   1.444   6.628   5.911 -0.4826 -0.4797 -0.6438
  222MOL0     C29211   1.378   6.575   6.036  0.4101  0.0142  0.1891
  222MOL0     C29212   1.273   6.471   5.989  0.4014  0.3376  0.0438
  222MOL0     C29213   1.246   6.374   6.106 -0.6546 -0.4870  0.3481
  222MOL0     C29214   1.104   6.299   6.074 -0.7373 -0.4929  0.0831
  222MOL0     C29215   1.107   6.149   6.137  0.5457 -0.1762 -0.8667
  222MOL0    Cl29216   1.253   6.052   6.089  0.1624  0.1684  0.5233
  222MOL0     C29217   1.909   7.000   5.887 -1.3352  1.2129 -0.4752
  222MOL0     C29218   1.982   7.112   5.843  0.9555 -0.4518 -0.9502
  222MOL0     O29219   1.867   7.443   5.635  0.2970  0.0823  0.8897
  222MOL0     C29220   2.033   7.534   5.439 -0.2028 -0.0171  0.2740
  222MOL0     C29221   2.118   7.624   5.373 -0.1854  0.5875  1.0455
  222MOL0     N29222   2.917   7.832   5.078 -0.1351 -0.8633 -0.2987
  222MOL0     N29223   3.039   7.813   5.059 -1.1970 -0.2561 -0.3234
  222MOL0     C29224   4.259   7.405   4.711  1.0262 -0.1273 -0.5849
  222MOL0     C29225   4.395   7.420   4.678  0.3586 -0.0983 -0.1527
  222MOL0     C29226   4.819   7.540   4.817  0.1139  0.4477  0.1811
  222MOL0     C29227   4.862   7.653   4.741  0.3413  0.0412 -0.1932
  222MOL0     C29228   4.995   7.694   4.742  0.3569  0.4523  0.1864
  222MOL0     C29229   5.098   7.631   4.824 -0.2623  0.0082 -0.9576
  222MOL0     O29230   5.225   7.677   4.845 -0.9746  0.6828 -0.4209
  222MOL0     C29231   5.280   7.788   4.771  1.1412  0.3255 -0.0697
  222MOL0     C29232   5.377   7.755   4.656  0.7974  1.0802 -0.0023
  222MOL0     C29233   5.458   7.862   4.597 -0.3254 -0.6862  0.4618
  222MOL0     C29234   5.578   7.891   4.693  0.5431  0.3621  0.4956
  222MOL0     C29235   5.662   7.995   4.622  0.1380 -0.0899 -0.7019
  222MOL0     C29236   5.739   8.069   4.560 -0.4690  0.0352 -0.6871
  222MOL0     C29237   5.051   7.521   4.901 -0.0147 -0.2979  0.6618
  222MOL0     C29238   4.918   7.471   4.895  0.2088 -0.9300  0.4451
  222MOL0     H29239   4.452   7.717   4.838 -1.0138  0.6153  1.9196
  222MOL0     H29240   4.214   7.682   4.907 -2.0691 -1.8947  0.5406
  222MOL0     H29241   3.951   7.644   4.789  1.9344  0.1615 -0.5129
  222MOL0     H29242   4.027   7.625   4.955  2.1857 -1.6687 -0.2997
  222MOL0     H29243   3.878   7.474   5.034  2.9865  1.1472 -1.2910
  222MOL0     H29244   3.808   7.433   4.877 -2.7225 -1.5325  2.8642
  222MOL0     H29245   3.702   7.649   4.869  0.6496  0.7220  0.1787
  222MOL0     H29246   3.798   7.708   5.008  2.1655 -1.0200 -1.1710
  222MOL0     H29247   3.616   7.465   5.045 -1.8803 -0.9881  2.5614
  222MOL0     H29248   3.708   7.533   5.163  0.4250 -4.1741  0.1792
  222MOL0     H29249   3.567   7.757   5.141  2.3081 -0.6797 -1.2161
  222MOL0     H29250   3.458   7.610   5.173  1.0601 -0.8218  0.1607
  222MOL0     H29251   3.438   7.603   4.913  3.3452 -1.4121  1.0498
  222MOL0     H29252   3.488   7.768   4.921 -1.3537  0.5557 -1.0550
  222MOL0     H29253   3.302   7.826   5.073 -2.7516  1.0999  0.6441
  222MOL0     H29254   3.258   7.749   4.907  0.7736 -1.7324  0.3822
  222MOL0     H29255   3.223   7.595   5.150  0.8349 -0.8992 -0.7982
  222MOL0     H29256   3.209   7.548   4.978  0.2579  0.5370 -2.4014
  222MOL0     H29257   2.932   7.508   5.073  1.6083 -0.6910  0.3658
  222MOL0     H29258   2.699   7.580   5.148  1.4088 -0.7483 -1.2971
  222MOL0     H29259   2.648   7.707   5.029  0.9729  1.1514 -1.4752
  222MOL0     H29260   2.644   7.873   5.206  0.5449 -0.3269 -0.8825
  222MOL0     H29261   2.728   7.759   5.320 -0.6072 -0.4563  0.0921
  222MOL0     H29262   2.478   7.667   5.194 -0.1870 -1.9057 -0.0409
  222MOL0     H29263   2.547   7.606   5.347 -2.7410 -0.3666 -1.4038
  222MOL0     H29264   2.459   7.894   5.340  0.6506  0.8766  3.0103
  222MOL0     H29265   2.448   7.779   5.466  0.5483  0.4813 -0.8842
  222MOL0     H29266   2.410   7.549   5.533  0.5995  1.5090 -0.5557
  222MOL0     H29267   2.251   7.442   5.688 -1.9694  2.5482  2.0637
  222MOL0     H29268   1.758   7.202   5.601 -0.0695  0.0996 -0.7598
  222MOL0     H29269   1.660   7.039   5.661  0.9211  0.0035 -1.4081
  222MOL0     H29270   1.639   6.717   5.771  1.4104  0.2133  0.8625
  222MOL0     H29271   1.550   6.873   5.787  0.2745  0.6387  2.9354
  222MOL0     H29272   1.479   6.832   5.991 -2.4937 -0.0851 -1.5786
  222MOL0     H29273   1.614   6.716   6.031  0.0924 -0.6642 -0.2710
  222MOL0     H29274   1.502   6.552   5.860  0.1613  0.5190 -1.4405
  222MOL0     H29275   1.381   6.690   5.847 -1.9536 -0.5379  0.6699
  222MOL0     H29276   1.453   6.515   6.090  0.5904 -1.5378 -1.6844
  222MOL0     H29277   1.336   6.654   6.100 -3.4670  0.8515 -2.9824
  222MOL0     H29278   1.316   6.410   5.910  3.1378  1.4781  0.5369
  222MOL0     H29279   1.180   6.522   5.960  0.2842  1.4918  2.2139
  222MOL0     H29280   1.235   6.427   6.201 -0.7769  1.5423 -0.7589
  222MOL0     H29281   1.333   6.307   6.111 -0.6733 -0.6907 -1.4211
  222MOL0     H29282   1.007   6.344   6.096 -2.2411 -1.8396 -3.1454
  222MOL0     H29283   1.109   6.285   5.965  0.2604  1.0278 -0.1079
  222MOL0     H29284   1.022   6.094   6.096  0.5893 -0.5680 -0.4452
  222MOL0     H29285   1.107   6.151   6.247  3.4865  3.2335 -0.7481
  222MOL0     H29286   1.957   6.940   5.964 -0.6583  4.1355  1.5707
  222MOL0     H29287   2.079   7.142   5.881  1.6235 -1.2547 -1.9572
  222MOL0     H29288   1.932   7.518   5.404  0.0939  2.5401 -2.1730
  222MOL0     H29289   2.088   7.667   5.278  2.3270  0.1514 -0.0221
  222MOL0     H29290   4.199   7.327   4.666 -0.9527  0.1785  1.3716
  222MOL0     H29291   4.451   7.353   4.613  0.3836 -1.0258  0.7934
  222MOL0     H29292   4.790   7.713   4.686  1.8587  1.4517 -0.7282
  222MOL0     H29293   5.022   7.776   4.677 -1.0886  2.9864  2.5803
  222MOL0     H29294   5.339   7.851   4.838  0.7385  2.6939 -1.8198
  222MOL0     H29295   5.213   7.859   4.722  0.9794  0.3262  0.1514
  222MOL0     H29296   5.438   7.671   4.690 -0.0379 -0.0063 -1.1157
  222MOL0     H29297   5.305   7.726   4.579 -0.1303  0.0475  1.2177
  222MOL0     H29298   5.387   7.944   4.580  0.3871 -0.2105 -0.3612
  222MOL0     H29299   5.502   7.831   4.501  0.8365  0.7056  0.4947
  222MOL0     H29300   5.544   7.923   4.792  2.8164 -0.8616  1.7530
  222MOL0     H29301   5.641   7.804   4.712  0.2208  0.5080  2.4305
  222MOL0     H29302   5.801   8.139   4.507 -3.2464  1.0432 -2.8225
  222MOL0     H29303   5.134   7.479   4.956 -0.0354 -1.0376  0.1429
  222MOL0     H29304   4.903   7.375   4.943 -1.1899 -1.5524 -1.1501
  223MOL0     O29305   8.127   7.007   9.452  0.0234  0.2227 -0.2102
  223MOL0     C29306   8.162   7.062   9.559  0.3909 -1.1014  0.5444
  223MOL0     O29307   8.081   7.109   9.662  0.0824 -0.0626 -0.3483
  223MOL0     C29308   7.943   7.128   9.636 -0.2339  0.3781 -0.1161
  223MOL0     C29309   7.852   7.109   9.743  1.1666  0.3142  1.2511
  223MOL0     C29310   7.715   7.112   9.722  0.1327  0.6871 -0.5891
  223MOL0     C29311   7.662   7.129   9.602 -0.0934  0.3362  0.4810
  223MOL0     O29312   7.525   7.106   9.585  1.1697  0.3571 -0.4708
  223MOL0     C29313   7.458   7.081   9.458 -0.2072 -0.7995 -0.3159
  223MOL0     C29314   7.309   7.073   9.491  1.1003  1.2395 -0.5607
  223MOL0     C29315   7.234   7.203   9.514  0.2231 -1.0561  0.1621
  223MOL0     C29316   7.083   7.194   9.507 -0.0667 -0.2551 -0.3436
  223MOL0     C29317   7.010   7.320   9.540 -0.2093  0.0639  0.3369
  223MOL0     C29318   6.883   7.327   9.445  1.0035 -0.4615 -0.1703
  223MOL0     C29319   6.795   7.462   9.449 -0.0897  1.3739 -0.5786
  223MOL0     C29320   6.678   7.433   9.357  0.0970 -0.9906 -0.0393
  223MOL0     N29321   6.718   7.465   9.217 -0.3746  0.6006 -0.6581
  223MOL0     C29322   6.817   7.410   9.130  0.1307  0.6124 -0.0891
  223MOL0     C29323   6.809   7.479   9.011 -0.3960  0.0297 -0.7556
  223MOL0     C29324   6.880   7.419   8.890 -0.0818  0.6365 -0.4530
  223MOL0     C29325   6.850   7.482   8.751 -0.1678 -0.9362  0.0408
  223MOL0     C29326   6.932   7.605   8.734  0.7519 -0.5291  0.6048
  223MOL0     C29327   6.910   7.656   8.585 -0.5659  0.0341  0.5111
  223MOL0     O29328   6.992   7.774   8.562  0.5295 -0.4500  0.2011
  223MOL0     C29329   7.112   7.763   8.502 -0.7506 -0.7383  1.0029
  223MOL0     C29330   7.203   7.656   8.525  0.2345  0.2403  0.0339
  223MOL0     C29331   7.330   7.654   8.459 -0.6109  0.5483 -0.2551
  223MOL0     C29332   7.355   7.731   8.345 -1.2165 -0.2942  0.1399
  223MOL0     C29333   7.488   7.721   8.279 -0.4209  0.2558 -0.4329
  223MOL0     O29334   7.583   7.654   8.353 -0.4788  0.7290  0.1100
  223MOL0     C29335   7.686   7.577   8.289 -0.4139 -0.7071  1.2426
  223MOL0     C29336   7.788   7.527   8.370 -0.5891  0.3372 -0.0046
  223MOL0     C29337   7.889   7.440   8.317  0.0100  0.3729  0.7838
  223MOL0     C29338   7.884   7.413   8.175 -0.5612  0.9389 -0.7871
  223MOL0     O29339   7.991   7.359   8.111  1.0143  0.1863  0.8935
  223MOL0     C29340   8.075   7.269   8.176 -0.3371  0.0968  0.0215
  223MOL0     C29341   8.170   7.220   8.074  0.5224 -0.3841  0.0935
  223MOL0     C29342   8.125   7.095   7.990 -0.1012  0.5543 -0.0577
  223MOL0     C29343   8.236   7.058   7.899  0.6131 -0.1981 -0.3562
  223MOL0     C29344   8.215   6.923   7.821  0.3136  0.2174 -0.6464
  223MOL0     C29345   8.340   6.854   7.781 -0.2729 -0.3898 -0.2977
  223MOL0     C29346   8.434   6.928   7.680 -0.0444  0.8873  0.1373
  223MOL0     C29347   8.405   6.903   7.534 -0.2325 -0.3949  0.0467
  223MOL0    Cl29348   8.233   6.884   7.482 -0.0722  0.2764  0.6337
  223MOL0     C29349   7.794   7.475   8.096 -0.7312 -0.0053  0.8725
  223MOL0     C29350   7.691   7.547   8.151 -0.3162 -0.8408  0.6337
  223MOL0     O29351   7.497   7.755   8.159 -0.3398 -0.3621 -0.2308
  223MOL0     C29352   7.256   7.831   8.314 -0.4978  0.3760  0.2352
  223MOL0     C29353   7.143   7.845   8.398  0.6990 -0.0668  0.0335
  223MOL0     N29354   6.715   7.574   9.031 -0.3807 -0.6239  0.2090
  223MOL0     N29355   6.656   7.565   9.143 -0.5206  0.4897 -0.4003
  223MOL0     C29356   7.743   7.145   9.494  0.2294  0.5590  0.6146
  223MOL0     C29357   7.885   7.157   9.509  0.8061 -1.1245 -0.4580
  223MOL0     C29358   8.307   7.069   9.579  0.8495 -0.3838  0.2212
  223MOL0     C29359   8.367   7.082   9.710 -0.6211  0.0120 -0.7017
  223MOL0     C29360   8.506   7.083   9.726  0.4726  0.8109 -0.0020
  223MOL0     C29361   8.589   7.060   9.618 -1.2551  0.4826 -0.4309
  223MOL0     O29362   8.716   7.068   9.646 -0.0740  0.3231  0.2865
  223MOL0     C29363   8.816   7.097   9.541 -0.4444  0.4614 -0.1398
  223MOL0     C29364   8.865   6.959   9.474 -1.0294  0.2740  0.0280
  223MOL0     C29365   9.014   6.926   9.498 -0.1331 -0.3797  0.2652
  223MOL0     C29366   9.109   7.013   9.398  0.8357  0.7402  1.4508
  223MOL0     C29367   9.204   6.925   9.324 -0.2033  0.1175 -0.4995
  223MOL0     C29368   9.267   6.839   9.269  1.1392 -0.3316  0.8287
  223MOL0     C29369   8.530   7.037   9.488  0.4887  0.3434 -0.4017
  223MOL0     C29370   8.391   7.050   9.467  0.8139  0.0987 -0.0120
  223MOL0     H29371   7.888   7.097   9.845  0.3958  1.5877  1.7006
  223MOL0     H29372   7.649   7.089   9.805 -1.5937  1.4341 -1.6913
  223MOL0     H29373   7.474   6.983   9.412 -3.9502 -0.8209 -1.8990
  223MOL0     H29374   7.477   7.166   9.391 -1.7300  1.8309  2.3790
  223MOL0     H29375   7.296   7.003   9.575  2.0373  2.1121  0.3385
  223MOL0     H29376   7.260   7.014   9.413 -1.9399 -3.3680  4.1369
  223MOL0     H29377   7.271   7.274   9.440 -1.1439  1.4425  1.7256
  223MOL0     H29378   7.267   7.245   9.609  2.9603 -1.5633 -0.4884
  223MOL0     H29379   7.061   7.165   9.403  0.0037  3.0166 -1.3889
  223MOL0     H29380   7.036   7.119   9.571  0.7052 -0.9242 -0.5361
  223MOL0     H29381   7.074   7.403   9.509  0.2168  0.7097  2.7692
  223MOL0     H29382   6.978   7.328   9.644  1.0487 -2.0210  0.9533
  223MOL0     H29383   6.815   7.241   9.447 -4.1914  3.0901 -1.0781
  223MOL0     H29384   6.937   7.331   9.350  2.2711 -2.7053  0.3918
  223MOL0     H29385   6.761   7.486   9.550 -0.0512 -0.3903 -0.1054
  223MOL0     H29386   6.850   7.550   9.416 -0.8852  1.5550 -1.4602
  223MOL0     H29387   6.592   7.493   9.388 -0.3049 -0.3319 -2.2633
  223MOL0     H29388   6.649   7.328   9.367  1.4276 -1.3506  0.2578
  223MOL0     H29389   6.880   7.322   9.137 -1.8453 -0.9898 -1.1609
  223MOL0     H29390   6.851   7.315   8.876  1.1540  0.3185 -0.7442
  223MOL0     H29391   6.985   7.411   8.917 -0.3249 -0.6551  0.1677
  223MOL0     H29392   6.744   7.508   8.742  0.7689  5.5535  2.3349
  223MOL0     H29393   6.881   7.411   8.674  0.8917 -0.2163 -0.2152
  223MOL0     H29394   6.902   7.681   8.807 -0.2938  1.5608 -1.8219
  223MOL0     H29395   7.037   7.591   8.764  1.5639 -0.4314 -1.9498
  223MOL0     H29396   6.804   7.675   8.569 -0.2490  1.1709 -0.4457
  223MOL0     H29397   6.935   7.571   8.520 -0.2394  0.5151 -0.0013
  223MOL0     H29398   7.178   7.584   8.603  0.6237  0.5976  0.4943
  223MOL0     H29399   7.397   7.580   8.501 -3.6247 -1.5178  1.2866
  223MOL0     H29400   7.800   7.548   8.476 -0.0816 -4.3554  1.0578
  223MOL0     H29401   7.962   7.406   8.389 -0.4591 -1.7744  0.3144
  223MOL0     H29402   8.021   7.180   8.207 -0.9907 -0.0769 -1.5098
  223MOL0     H29403   8.122   7.327   8.257 -0.1514  3.3923 -2.2283
  223MOL0     H29404   8.261   7.193   8.128 -2.7700 -3.7790  4.8909
  223MOL0     H29405   8.196   7.299   8.004  0.7291 -1.9132 -1.6158
  223MOL0     H29406   8.040   7.115   7.925  0.4094  0.9013 -0.6260
  223MOL0     H29407   8.081   7.016   8.052 -1.6470  1.1127 -0.3865
  223MOL0     H29408   8.259   7.143   7.833  2.4142  0.0192  0.4811
  223MOL0     H29409   8.324   7.047   7.963 -2.2175 -0.1894  4.0051
  223MOL0     H29410   8.146   6.946   7.738 -0.5449 -2.9993 -0.9569
  223MOL0     H29411   8.149   6.866   7.888 -1.5247  3.5260  0.5861
  223MOL0     H29412   8.319   6.755   7.740 -0.0777 -0.0779 -1.1767
  223MOL0     H29413   8.407   6.845   7.868 -2.4953  1.3419  1.7057
  223MOL0     H29414   8.436   7.035   7.705  0.8234  1.3351 -1.6464
  223MOL0     H29415   8.537   6.902   7.706 -1.1896 -3.2432  1.2032
  223MOL0     H29416   8.466   6.816   7.508  1.7007  1.1296 -0.7748
  223MOL0     H29417   8.460   6.973   7.471 -0.8303 -1.5347 -1.8401
  223MOL0     H29418   7.810   7.468   7.989 -3.4437  1.0343  0.3046
  223MOL0     H29419   7.620   7.577   8.074  0.5347 -3.1826 -1.1940
  223MOL0     H29420   7.249   7.901   8.231  1.8637  3.1658  2.2185
  223MOL0     H29421   7.073   7.923   8.369  2.1772  0.8777 -1.1425
  223MOL0     H29422   7.693   7.154   9.398 -2.9593  1.5262  2.2316
  223MOL0     H29423   7.946   7.183   9.423 -0.2407  0.2084 -0.8344
  223MOL0     H29424   8.309   7.102   9.800 -0.4065 -3.8210  0.4497
  223MOL0     H29425   8.542   7.099   9.827 -1.6071 -2.3986  1.4150
  223MOL0     H29426   8.893   7.145   9.602 -1.9319 -0.3808  2.5961
  223MOL0     H29427   8.790   7.161   9.456  2.6502  0.1331 -1.4505
  223MOL0     H29428   8.801   6.877   9.504  1.4456 -1.4033  1.0613
  223MOL0     H29429   8.846   6.973   9.367  2.6207  1.2899 -0.6444
  223MOL0     H29430   9.044   6.822   9.483  1.8811  0.3662 -1.4143
  223MOL0     H29431   9.045   6.954   9.600 -0.1251 -0.8457  0.3905
  223MOL0     H29432   9.039   7.056   9.326  0.0372 -2.3678  0.1735
  223MOL0     H29433   9.159   7.080   9.468  0.8060 -0.3063  2.5087
  223MOL0     H29434   9.325   6.756   9.233 -0.1084 -1.5734  1.5766
  223MOL0     H29435   8.581   7.019   9.394  3.7771 -1.2342  1.4754
  223MOL0     H29436   8.342   7.034   9.371 -0.7504 -0.4256  0.8377
  224MOL0     O29437   5.247   8.294  10.703  0.0748  1.0818 -0.2192
  224MOL0     C29438   5.287   8.399  10.752  0.4594  0.1857 -0.2936
  224MOL0     O29439   5.253   8.450  10.876 -0.6686  1.0741  0.4394
  224MOL0     C29440   5.171   8.381  10.957  0.1345  0.3178 -0.5216
  224MOL0     C29441   5.204   8.381  11.091 -0.8034 -0.1213  0.2266
  224MOL0     C29442   5.114   8.329  11.183  0.4591 -0.3724 -0.2283
  224MOL0     C29443   4.988   8.286  11.149  0.5847  0.0163  0.5996
  224MOL0     O29444   4.909   8.243  11.248  0.1803 -0.1486 -0.2534
  224MOL0     C29445   4.777   8.183  11.222  0.4016 -0.0505 -0.3048
  224MOL0     C29446   4.727   8.142  11.360 -0.2391 -0.5344 -0.2481
  224MOL0     C29447   4.817   8.058  11.440 -0.1762 -0.1989 -0.3806
  224MOL0     C29448   4.818   7.913  11.388  0.8516 -0.7869 -0.1997
  224MOL0     C29449   4.920   7.827  11.467  0.8211 -0.0017  0.0142
  224MOL0     C29450   4.838   7.768  11.576  0.2015  0.5087  0.2903
  224MOL0     C29451   4.944   7.725  11.685 -0.2697  0.4889 -0.0565
  224MOL0     C29452   4.982   7.577  11.670 -0.1615  1.0480  0.2887
  224MOL0     N29453   5.042   7.536  11.545  0.9356 -0.3867 -0.2910
  224MOL0     C29454   5.171   7.558  11.497  0.0586  0.1308 -0.2192
  224MOL0     C29455   5.173   7.525  11.367  0.0699 -0.2893 -0.1156
  224MOL0     C29456   5.285   7.529  11.271 -1.1269  0.3492  0.0652
  224MOL0     C29457   5.386   7.416  11.292 -0.0400  0.7331 -0.9666
  224MOL0     C29458   5.330   7.273  11.271  0.1839 -0.5384 -1.0800
  224MOL0     C29459   5.352   7.202  11.133 -0.2191  0.1734  0.7423
  224MOL0     O29460   5.357   7.056  11.159 -0.1048 -0.8302  0.6112
  224MOL0     C29461   5.245   6.987  11.122  1.1395 -0.8257 -0.8382
  224MOL0     C29462   5.114   7.035  11.151 -0.4886  0.2513 -1.1745
  224MOL0     C29463   5.000   6.960  11.118 -0.5237  0.5923 -1.0884
  224MOL0     C29464   5.018   6.840  11.043  0.0956  0.3543 -0.0455
  224MOL0     C29465   4.898   6.762  10.997  0.3448  0.0500 -0.4066
  224MOL0     O29466   4.779   6.841  10.990 -0.0724  0.0893 -1.2591
  224MOL0     C29467   4.662   6.768  10.960  0.0761  0.4877  0.0698
  224MOL0     C29468   4.626   6.667  11.046  0.5871  0.0145  0.0987
  224MOL0     C29469   4.498   6.608  11.030  0.1721 -0.3507 -0.2145
  224MOL0     C29470   4.409   6.649  10.935  0.0354  0.1294 -0.3099
  224MOL0     O29471   4.287   6.590  10.949  0.7911  0.0027  0.4156
  224MOL0     C29472   4.208   6.571  10.834  0.0836 -0.6137  0.3345
  224MOL0     C29473   4.112   6.693  10.832  0.8938 -0.5872 -0.4790
  224MOL0     C29474   4.002   6.678  10.722 -0.6989  0.3873  0.1913
  224MOL0     C29475   3.881   6.601  10.769 -0.6707  0.4738 -0.7603
  224MOL0     C29476   3.777   6.567  10.666 -0.2627  0.1090  0.0844
  224MOL0     C29477   3.652   6.507  10.721 -0.0603  0.4936 -0.0846
  224MOL0     C29478   3.571   6.449  10.608 -0.2655  0.2897 -0.0591
  224MOL0     C29479   3.442   6.388  10.650 -0.0647  0.6524  0.9342
  224MOL0    Cl29480   3.389   6.299  10.502 -0.2737  0.5181  0.2172
  224MOL0     C29481   4.458   6.741  10.845  0.1706  0.0910  0.2142
  224MOL0     C29482   4.578   6.793  10.851 -0.1821  0.0928 -0.3560
  224MOL0     O29483   4.915   6.650  10.938 -0.4668  0.7561  0.1601
  224MOL0     C29484   5.147   6.801  11.011 -1.0464 -1.7792 -0.2578
  224MOL0     C29485   5.262   6.866  11.061  1.1917  1.2940 -0.0779
  224MOL0     N29486   5.047   7.475  11.333  0.4101  0.0126 -0.4558
  224MOL0     N29487   4.974   7.468  11.445  0.6815 -0.8875 -0.1052
  224MOL0     C29488   4.954   8.285  11.017  0.0523  0.2473 -0.1644
  224MOL0     C29489   5.036   8.332  10.918 -0.6632 -0.1501 -0.2929
  224MOL0     C29490   5.395   8.475  10.677  0.4464  0.0391 -0.2099
  224MOL0     C29491   5.415   8.613  10.703  0.5049  0.5075  0.6833
  224MOL0     C29492   5.514   8.685  10.624  0.3990 -0.6550 -0.3121
  224MOL0     C29493   5.597   8.620  10.529  1.0603 -0.1510  0.3962
  224MOL0     O29494   5.696   8.703  10.469  0.1753 -0.9495  0.0664
  224MOL0     C29495   5.822   8.642  10.458 -0.6945 -0.3837 -0.3782
  224MOL0     C29496   5.877   8.627  10.606 -0.2503 -0.6987  0.3444
  224MOL0     C29497   5.986   8.736  10.615 -0.4839  0.0931 -0.7667
  224MOL0     C29498   6.045   8.749  10.762  0.0141 -0.1249 -0.6960
  224MOL0     C29499   6.144   8.644  10.795 -0.0546 -0.8657  0.5114
  224MOL0     C29500   6.223   8.564  10.832 -1.0913  0.5163  0.1294
  224MOL0     C29501   5.582   8.486  10.507  0.8050 -0.6003  0.1766
  224MOL0     C29502   5.480   8.418  10.580 -0.3875 -0.4743 -0.1902
  224MOL0     H29503   5.302   8.413  11.123 -0.2789  0.7952 -2.0930
  224MOL0     H29504   5.139   8.320  11.288  1.9165  0.3246 -0.4750
  224MOL0     H29505   4.787   8.100  11.151 -0.7706 -1.6847  1.3482
  224MOL0     H29506   4.704   8.260  11.196  0.5545  1.2003  2.6367
  224MOL0     H29507   4.629   8.093  11.351 -0.8932  0.9227 -1.5551
  224MOL0     H29508   4.716   8.226  11.428 -0.0463 -1.7652  1.3650
  224MOL0     H29509   4.775   8.048  11.541 -0.4069 -2.0222 -0.6339
  224MOL0     H29510   4.911   8.115  11.449 -0.4546  0.1723  0.2951
  224MOL0     H29511   4.716   7.875  11.378 -0.7725  3.0554  0.3451
  224MOL0     H29512   4.857   7.911  11.286  0.6157 -0.2251 -0.3027
  224MOL0     H29513   5.001   7.892  11.501 -0.8044  1.5267  1.1613
  224MOL0     H29514   4.957   7.749  11.400  0.7127 -1.5324  1.6633
  224MOL0     H29515   4.792   7.675  11.540 -0.6403  0.7287  0.7697
  224MOL0     H29516   4.780   7.845  11.627  3.4625  3.0627  0.4439
  224MOL0     H29517   5.030   7.793  11.685 -0.1911  0.3978 -0.6096
  224MOL0     H29518   4.905   7.736  11.786 -2.1242 -1.7261 -0.4622
  224MOL0     H29519   4.911   7.498  11.694  1.4255 -1.1219 -1.6469
  224MOL0     H29520   5.069   7.561  11.734 -0.3034 -2.7395 -0.2294
  224MOL0     H29521   5.254   7.591  11.558  1.5758 -1.2909 -1.4146
  224MOL0     H29522   5.355   7.612  11.288 -0.3952  0.1250 -1.6212
  224MOL0     H29523   5.244   7.538  11.170 -2.9137  1.6559  0.8417
  224MOL0     H29524   5.415   7.405  11.397 -1.0826 -2.4256 -0.8957
  224MOL0     H29525   5.472   7.428  11.224  1.5634 -1.8772  0.4417
  224MOL0     H29526   5.369   7.207  11.349 -1.5072 -2.2122 -1.5625
  224MOL0     H29527   5.222   7.276  11.288 -0.0920  0.1822 -2.7606
  224MOL0     H29528   5.451   7.226  11.091 -0.4364 -1.1510 -0.6378
  224MOL0     H29529   5.281   7.236  11.058  0.1200  0.6568  0.6343
  224MOL0     H29530   5.099   7.139  11.177  1.3034  0.4052 -0.6336
  224MOL0     H29531   4.902   6.996  11.149 -0.4525 -0.4586  0.4973
  224MOL0     H29532   4.682   6.635  11.133 -1.8020 -2.0177  1.0251
  224MOL0     H29533   4.461   6.537  11.103  0.9848  1.4466  2.0879
  224MOL0     H29534   4.135   6.491  10.853  0.2069 -1.3991 -2.1132
  224MOL0     H29535   4.265   6.547  10.744 -1.2919 -1.1078 -0.4467
  224MOL0     H29536   4.171   6.784  10.816  4.1048 -2.6617 -1.2821
  224MOL0     H29537   4.070   6.702  10.932  0.3185 -2.2690 -0.5372
  224MOL0     H29538   4.040   6.627  10.633 -1.6227 -2.4696  1.3096
  224MOL0     H29539   3.968   6.779  10.697 -0.2120  0.6999  0.7838
  224MOL0     H29540   3.916   6.511  10.822 -0.7464  1.4156  0.9825
  224MOL0     H29541   3.828   6.664  10.841  0.6070  0.7571 -0.0418
  224MOL0     H29542   3.823   6.504  10.589 -1.3061 -0.1923 -0.3030
  224MOL0     H29543   3.741   6.663  10.631  0.9289 -0.1205 -1.9278
  224MOL0     H29544   3.589   6.586  10.761 -1.8871 -0.4765 -0.9347
  224MOL0     H29545   3.669   6.431  10.798 -1.1232  0.9744  0.6492
  224MOL0     H29546   3.551   6.523  10.530  2.8054 -1.7595 -3.0702
  224MOL0     H29547   3.642   6.379  10.564  0.3343  1.8279 -1.6075
  224MOL0     H29548   3.370   6.467  10.673  0.8427  1.5614  0.7284
  224MOL0     H29549   3.468   6.322  10.733 -0.6043 -0.8412 -0.0495
  224MOL0     H29550   4.389   6.780  10.772  0.3856  1.1929  0.5878
  224MOL0     H29551   4.603   6.857  10.767 -0.0657 -0.7249 -0.9491
  224MOL0     H29552   5.166   6.713  10.951  0.2276  0.2889 -3.1185
  224MOL0     H29553   5.359   6.818  11.064  0.4262 -0.2808  1.4837
  224MOL0     H29554   4.858   8.273  10.969  1.0317  2.3527 -2.9322
  224MOL0     H29555   5.005   8.345  10.815  0.7216 -0.1440 -0.7215
  224MOL0     H29556   5.353   8.680  10.763 -0.3808  0.5530 -0.2489
  224MOL0     H29557   5.524   8.792  10.636  0.9002 -0.1578 -3.9687
  224MOL0     H29558   5.886   8.707  10.399 -0.7519  0.4005  0.4067
  224MOL0     H29559   5.823   8.546  10.405 -1.3943  0.1744 -1.4625
  224MOL0     H29560   5.794   8.635  10.677 -1.4733  0.2877 -1.1446
  224MOL0     H29561   5.925   8.529  10.609  1.2737 -0.0175 -0.4743
  224MOL0     H29562   5.931   8.830  10.598  0.9989  0.6063 -3.3550
  224MOL0     H29563   6.063   8.715  10.540  0.5849  0.1863  0.2920
  224MOL0     H29564   6.080   8.852  10.777 -0.4196 -0.0479 -0.1894
  224MOL0     H29565   5.969   8.761  10.839  1.7928  4.0907  0.7245
  224MOL0     H29566   6.277   8.483  10.877  0.4816  0.3494 -1.9219
  224MOL0     H29567   5.624   8.429  10.425 -0.4443 -0.6063 -0.4707
  224MOL0     H29568   5.460   8.317  10.547  2.0889 -1.0781 -0.0288
  225MOL0     O29569   0.535  10.121   1.831  0.3364  0.4428  0.6948
  225MOL0     C29570   0.559  10.002   1.850  0.5818  0.7137 -0.6419
  225MOL0     O29571   0.467   9.903   1.872  1.1608 -0.6300  0.0384
  225MOL0     C29572   0.336   9.929   1.848 -0.1465  0.9134  0.0307
  225MOL0     C29573   0.237   9.876   1.935 -0.6780 -0.0738  0.4564
  225MOL0     C29574   0.100   9.873   1.904  0.3595 -0.2911 -0.4240
  225MOL0     C29575   0.049   9.916   1.774  0.2144 -0.4104 -0.2473
  225MOL0     O29576  -0.082   9.897   1.720 -0.0787 -0.1556  0.4489
  225MOL0     C29577  -0.180   9.848   1.802  0.3373 -0.2295 -0.3521
  225MOL0     C29578  -0.317   9.827   1.734 -0.5329 -0.4434  0.1197
  225MOL0     C29579  -0.432   9.809   1.825  0.1818  0.8887 -0.4937
  225MOL0     C29580  -0.416   9.666   1.893  0.8754  0.6336 -0.0466
  225MOL0     C29581  -0.542   9.637   1.974 -0.8679 -0.0517  0.1048
  225MOL0     C29582  -0.514   9.529   2.087  0.9772 -0.6945 -0.2132
  225MOL0     C29583  -0.644   9.506   2.177 -0.8106 -0.3458  0.3093
  225MOL0     C29584  -0.766   9.453   2.096 -0.0933 -0.0359 -0.0926
  225MOL0     N29585  -0.869   9.427   2.198  0.2703  0.8889 -0.2477
  225MOL0     C29586  -0.855   9.339   2.306 -0.3834 -1.2315  0.3512
  225MOL0     C29587  -0.971   9.359   2.376  0.1929 -1.4237 -0.1873
  225MOL0     C29588  -1.012   9.295   2.497  0.2866  0.2738  0.4923
  225MOL0     C29589  -1.004   9.148   2.490 -0.0739 -0.2432 -0.5057
  225MOL0     C29590  -1.020   9.081   2.630 -0.6346 -0.2448 -0.3404
  225MOL0     C29591  -1.053   8.930   2.622  0.9508  0.4251  0.0060
  225MOL0     O29592  -1.040   8.882   2.755 -0.6387  0.4103 -0.4269
  225MOL0     C29593  -1.101   8.769   2.799  0.7680 -0.4758 -0.4609
  225MOL0     C29594  -1.155   8.764   2.928 -0.5354  1.4290 -0.3083
  225MOL0     C29595  -1.224   8.656   2.981 -0.0786 -0.0111  1.0367
  225MOL0     C29596  -1.259   8.551   2.890 -0.8109 -0.6648  0.4715
  225MOL0     C29597  -1.348   8.441   2.932  0.1430  0.2336 -0.1505
  225MOL0     O29598  -1.368   8.339   2.846 -0.9315 -0.4347 -0.0754
  225MOL0     C29599  -1.468   8.258   2.876 -0.2171  0.6381 -0.4594
  225MOL0     C29600  -1.440   8.136   2.940  0.3458  0.4349 -1.4092
  225MOL0     C29601  -1.544   8.065   2.999  1.0599  0.6967  0.0931
  225MOL0     C29602  -1.682   8.102   2.975  0.3260  0.1548 -0.8744
  225MOL0     O29603  -1.783   8.036   3.042  0.4086 -0.2941  0.0195
  225MOL0     C29604  -1.917   8.085   3.035  0.6814 -0.2626  0.2443
  225MOL0     C29605  -1.991   8.035   3.161 -0.0728  0.1064  1.2821
  225MOL0     C29606  -2.142   8.001   3.142 -0.9020  0.6593  0.7783
  225MOL0     C29607  -2.182   7.942   3.281  0.5255 -0.8122 -0.1885
  225MOL0     C29608  -2.334   7.906   3.308  0.8122 -0.4198  0.7370
  225MOL0     C29609  -2.394   7.806   3.200  0.1758  0.2628  0.0571
  225MOL0     C29610  -2.548   7.785   3.225 -0.5280  1.1395  0.1993
  225MOL0     C29611  -2.650   7.875   3.161 -0.6033 -0.3030  0.6561
  225MOL0    Cl29612  -2.653   8.027   3.250 -0.3166 -0.2630 -0.1230
  225MOL0     C29613  -1.706   8.203   2.882 -0.2981 -0.4261 -0.7988
  225MOL0     C29614  -1.600   8.282   2.830 -0.4301 -0.5229 -0.4859
  225MOL0     O29615  -1.399   8.447   3.041  0.4168 -0.7155  0.1128
  225MOL0     C29616  -1.209   8.557   2.751  0.4954 -0.2620 -0.7303
  225MOL0     C29617  -1.128   8.662   2.706 -0.6545  0.3053  0.0366
  225MOL0     N29618  -1.046   9.462   2.321 -0.8121 -1.0999  0.0433
  225MOL0     N29619  -0.987   9.501   2.210 -0.4205  0.0084 -0.3426
  225MOL0     C29620   0.152   9.967   1.685  0.5759  0.0001  0.3596
  225MOL0     C29621   0.288   9.978   1.722  0.8574  0.8534  0.5843
  225MOL0     C29622   0.702   9.963   1.860  0.1345 -0.4301 -0.1891
  225MOL0     C29623   0.812  10.046   1.862  0.3180 -0.1982 -0.1454
  225MOL0     C29624   0.940   9.994   1.871 -0.0946 -0.3217  0.0368
  225MOL0     C29625   0.966   9.852   1.864  0.0560 -0.3871  0.6786
  225MOL0     O29626   1.089   9.797   1.873 -0.9565  0.3658 -0.7854
  225MOL0     C29627   1.211   9.875   1.878  0.1815  0.0999 -0.1683
  225MOL0     C29628   1.328   9.794   1.922 -0.0024 -0.6504 -0.4750
  225MOL0     C29629   1.356   9.683   1.817 -0.2827 -1.5527 -0.1654
  225MOL0     C29630   1.479   9.595   1.855 -0.1922 -0.0901  0.9023
  225MOL0     C29631   1.607   9.665   1.853 -0.6669  0.8070  0.4059
  225MOL0     C29632   1.717   9.708   1.857  0.1756  0.5121 -0.9271
  225MOL0     C29633   0.850   9.772   1.872  0.0978  0.4080  0.6912
  225MOL0     C29634   0.728   9.825   1.865  1.4717  0.3057  0.0517
  225MOL0     H29635   0.276   9.838   2.029  0.3630 -0.8611 -0.2626
  225MOL0     H29636   0.028   9.821   1.967  1.1892 -0.4781  0.4002
  225MOL0     H29637  -0.195   9.915   1.887 -0.7477 -0.9527  0.0655
  225MOL0     H29638  -0.155   9.745   1.830 -2.6408 -0.9565  0.0534
  225MOL0     H29639  -0.318   9.745   1.662 -2.4234 -0.3031 -0.0718
  225MOL0     H29640  -0.331   9.915   1.669 -2.2500  1.3525  2.7314
  225MOL0     H29641  -0.519   9.807   1.759 -0.4659 -3.0543  0.2221
  225MOL0     H29642  -0.428   9.896   1.892  0.6178 -1.0883  2.2281
  225MOL0     H29643  -0.398   9.592   1.815  1.7215  1.5732 -0.7711
  225MOL0     H29644  -0.329   9.666   1.959  0.5834 -5.3634  0.8339
  225MOL0     H29645  -0.612   9.597   1.900 -0.4311  2.5919 -1.8705
  225MOL0     H29646  -0.578   9.729   2.022  2.6568  0.6842  1.6446
  225MOL0     H29647  -0.440   9.564   2.158 -0.0177  2.2161 -0.4840
  225MOL0     H29648  -0.479   9.439   2.035 -1.8977 -1.4472 -1.0665
  225MOL0     H29649  -0.621   9.429   2.251  0.1430 -1.1354 -0.7634
  225MOL0     H29650  -0.677   9.596   2.228 -3.1734  1.1159 -3.4346
  225MOL0     H29651  -0.740   9.361   2.043 -3.3623 -0.5906 -0.9418
  225MOL0     H29652  -0.787   9.514   2.007  0.6565  0.8691  0.3252
  225MOL0     H29653  -0.771   9.274   2.326 -0.1154 -0.9542  0.1429
  225MOL0     H29654  -1.117   9.322   2.516  0.4206  2.9388 -1.9067
  225MOL0     H29655  -0.956   9.348   2.574 -1.1369  3.0313 -0.2254
  225MOL0     H29656  -0.905   9.120   2.452  0.2566 -0.5757  0.5545
  225MOL0     H29657  -1.085   9.116   2.424 -1.2108  2.4171 -0.5138
  225MOL0     H29658  -0.932   9.084   2.695 -1.8948 -1.2644  1.5429
  225MOL0     H29659  -1.092   9.122   2.702 -1.7170 -0.0946 -1.4709
  225MOL0     H29660  -0.983   8.880   2.555  0.4072 -1.2369  0.6204
  225MOL0     H29661  -1.158   8.912   2.597  0.5834 -1.0037  2.2863
  225MOL0     H29662  -1.127   8.826   3.013  0.6056 -1.5165  1.6038
  225MOL0     H29663  -1.251   8.658   3.086 -1.2134  0.4260  0.7536
  225MOL0     H29664  -1.338   8.101   2.932 -0.1474 -1.0971 -1.4005
  225MOL0     H29665  -1.526   7.994   3.079  0.8754 -0.4401 -0.8484
  225MOL0     H29666  -1.975   8.052   2.948 -1.8962 -0.8394  2.0367
  225MOL0     H29667  -1.925   8.193   3.022 -2.6769 -0.5962 -1.6033
  225MOL0     H29668  -1.972   8.107   3.241 -0.0019  0.9703  0.5075
  225MOL0     H29669  -1.926   7.954   3.194  1.9680  1.3557  0.5814
  225MOL0     H29670  -2.151   7.926   3.063 -0.8156 -0.4344  1.7821
  225MOL0     H29671  -2.193   8.091   3.107 -3.6300 -1.1742 -0.2769
  225MOL0     H29672  -2.124   7.853   3.306 -0.8306 -1.6296  0.1156
  225MOL0     H29673  -2.174   8.015   3.362  1.6370 -0.8697 -0.2313
  225MOL0     H29674  -2.383   8.004   3.304 -0.7271 -1.2298 -0.9186
  225MOL0     H29675  -2.346   7.864   3.408  1.7525 -2.3078  0.1000
  225MOL0     H29676  -2.340   7.711   3.205 -0.3781 -0.0277  0.7779
  225MOL0     H29677  -2.385   7.840   3.097  0.4487  0.8442  0.2710
  225MOL0     H29678  -2.560   7.690   3.173 -0.2431 -0.1589  2.3599
  225MOL0     H29679  -2.574   7.755   3.327  1.2788 -3.2534 -0.4114
  225MOL0     H29680  -2.751   7.839   3.144 -0.2729 -0.1243 -2.2625
  225MOL0     H29681  -2.629   7.897   3.055 -2.5965  0.5097  0.3961
  225MOL0     H29682  -1.809   8.221   2.853 -1.2009  1.5759  3.0368
  225MOL0     H29683  -1.618   8.364   2.762 -0.3021 -0.5395 -0.5391
  225MOL0     H29684  -1.238   8.478   2.682  0.1706  0.4367 -1.4092
  225MOL0     H29685  -1.083   8.659   2.607 -0.7357  1.0997 -0.0340
  225MOL0     H29686   0.132   9.987   1.580  1.8708  0.6604  0.2296
  225MOL0     H29687   0.362  10.015   1.652 -0.1261  0.2951 -0.8023
  225MOL0     H29688   0.818  10.155   1.861  6.5435 -0.1411  0.7079
  225MOL0     H29689   1.026  10.060   1.865 -0.7296  0.8898  2.7140
  225MOL0     H29690   1.209   9.953   1.955  4.1967  1.8650 -1.5998
  225MOL0     H29691   1.228   9.928   1.783 -1.6238 -0.3399 -0.7773
  225MOL0     H29692   1.407   9.870   1.925 -1.6519  1.1169  1.0138
  225MOL0     H29693   1.297   9.751   2.017 -0.4083 -1.4560 -0.9602
  225MOL0     H29694   1.368   9.727   1.717 -3.8605 -1.2144 -0.6022
  225MOL0     H29695   1.269   9.617   1.815  0.4905 -2.6844  1.5965
  225MOL0     H29696   1.465   9.555   1.956  0.3805 -1.4844  0.4408
  225MOL0     H29697   1.481   9.517   1.779 -1.5572 -0.3650  1.1323
  225MOL0     H29698   1.817   9.744   1.876 -0.1852  1.7423 -1.2655
  225MOL0     H29699   0.858   9.664   1.882  0.9202  0.1887 -1.7193
  225MOL0     H29700   0.645   9.754   1.863  2.1869 -0.5858  0.9748
  226MOL0     O29701   9.119   1.058   2.490  0.8453 -0.0876 -0.0547
  226MOL0     C29702   9.186   1.160   2.513 -0.3656  0.6531  0.9079
  226MOL0     O29703   9.291   1.207   2.435  0.4272 -0.3522  0.5361
  226MOL0     C29704   9.323   1.143   2.316  1.2343 -0.6191  0.6984
  226MOL0     C29705   9.457   1.129   2.294  0.2106 -0.7937  0.0344
  226MOL0     C29706   9.508   1.081   2.175 -1.0499  0.6566  0.7894
  226MOL0     C29707   9.424   1.030   2.077 -0.4743  0.0505  0.6103
  226MOL0     O29708   9.475   0.970   1.970  0.5323 -0.5344 -0.2299
  226MOL0     C29709   9.497   1.060   1.856 -0.0866  0.3448  0.0813
  226MOL0     C29710   9.633   1.042   1.802 -0.3289  0.7463 -0.7419
  226MOL0     C29711   9.644   1.094   1.664  0.3529  0.4302 -0.2511
  226MOL0     C29712   9.658   1.243   1.663 -0.4724 -0.7186  0.7623
  226MOL0     C29713   9.694   1.296   1.525 -0.4193 -0.4158  0.6551
  226MOL0     C29714   9.829   1.245   1.466 -0.2499 -0.6708  0.1252
  226MOL0     C29715   9.862   1.295   1.327 -0.4585  0.6013 -0.3586
  226MOL0     C29716  10.002   1.240   1.283 -0.4170  0.1663  0.1768
  226MOL0     N29717  10.044   1.105   1.328  0.1884  0.4758 -0.0933
  226MOL0     C29718   9.993   0.992   1.265  0.8275  0.0990  0.1384
  226MOL0     C29719  10.055   0.888   1.310  1.1377 -0.5005 -0.2013
  226MOL0     C29720  10.044   0.738   1.282  0.3112 -1.0720  0.6416
  226MOL0     C29721   9.924   0.704   1.193 -0.3315  0.5975 -0.6116
  226MOL0     C29722   9.936   0.573   1.113 -0.1036  0.0760  0.1904
  226MOL0     C29723   9.866   0.449   1.180 -0.2028 -0.8216 -0.7335
  226MOL0     O29724   9.738   0.474   1.236  0.5700 -0.3676  0.0022
  226MOL0     C29725   9.628   0.430   1.173  0.1919 -0.2061  0.5976
  226MOL0     C29726   9.529   0.356   1.242  0.1973 -0.1204 -0.2829
  226MOL0     C29727   9.411   0.300   1.182  0.0030  0.1775 -0.1923
  226MOL0     C29728   9.396   0.316   1.043  0.0402 -0.2588 -0.2892
  226MOL0     C29729   9.274   0.269   0.987  0.2163  0.7113  0.3968
  226MOL0     O29730   9.266   0.274   0.852  0.0931  0.1690  0.4151
  226MOL0     C29731   9.141   0.273   0.794 -0.2025 -0.1576 -0.6602
  226MOL0     C29732   9.126   0.199   0.675  0.0953  0.6538  0.0019
  226MOL0     C29733   9.005   0.187   0.611 -0.1311 -0.0141  0.1157
  226MOL0     C29734   8.896   0.249   0.681  0.1549 -0.2018  0.1858
  226MOL0     O29735   8.764   0.245   0.634 -0.8559 -0.6596 -0.2097
  226MOL0     C29736   8.722   0.144   0.546  0.0170  0.1776  0.5115
  226MOL0     C29737   8.565   0.152   0.521 -0.6993 -1.3332 -0.2741
  226MOL0     C29738   8.538   0.069   0.398  0.6073  0.2150  0.0883
  226MOL0     C29739   8.394   0.058   0.359  0.0652 -0.7725 -0.3968
  226MOL0     C29740   8.384  -0.050   0.243  0.1363  0.0519  0.5089
  226MOL0     C29741   8.237  -0.090   0.216 -0.2215  0.9503  0.0519
  226MOL0     C29742   8.226  -0.226   0.138  0.0042 -0.0285  0.0252
  226MOL0     C29743   8.090  -0.272   0.085  1.4742  0.1719 -0.2235
  226MOL0    Cl29744   7.977  -0.288   0.219  0.5124  0.4740 -0.5408
  226MOL0     C29745   8.912   0.330   0.794  0.0673 -0.8391 -0.5316
  226MOL0     C29746   9.032   0.342   0.854 -0.4120  0.2067  0.2294
  226MOL0     O29747   9.196   0.217   1.067  0.4005 -0.1124  0.8440
  226MOL0     C29748   9.499   0.378   0.969  0.1754  0.0029 -0.5124
  226MOL0     C29749   9.617   0.423   1.030  0.5801 -0.8492 -0.4658
  226MOL0     N29750  10.143   0.944   1.401  0.1935 -0.6948 -0.6158
  226MOL0     N29751  10.142   1.071   1.411 -1.0281 -0.3881 -0.0212
  226MOL0     C29752   9.286   1.050   2.095  0.6906  0.7689  0.0759
  226MOL0     C29753   9.230   1.104   2.215 -0.1458  1.1804  0.1824
  226MOL0     C29754   9.145   1.246   2.624 -0.4278 -0.4289  0.1926
  226MOL0     C29755   9.221   1.361   2.661  0.5725  0.3972  0.1562
  226MOL0     C29756   9.189   1.435   2.778 -0.7542 -0.5723 -0.6887
  226MOL0     C29757   9.076   1.399   2.855 -0.1285  0.6478 -1.1727
  226MOL0     O29758   9.035   1.452   2.977  0.6538 -0.2004 -0.3009
  226MOL0     C29759   9.101   1.563   3.029  0.0368  0.5836 -0.3994
  226MOL0     C29760   9.216   1.515   3.124 -0.1075 -0.9316  0.0725
  226MOL0     C29761   9.272   1.629   3.205  0.1415 -0.0256 -0.6828
  226MOL0     C29762   9.368   1.568   3.314  1.2378 -0.3698  0.0848
  226MOL0     C29763   9.287   1.488   3.411 -0.3905 -0.6626 -0.3543
  226MOL0     C29764   9.214   1.429   3.489 -0.7926  0.0058  0.7107
  226MOL0     C29765   9.002   1.290   2.810 -0.4199  0.8171 -0.1450
  226MOL0     C29766   9.030   1.216   2.695 -0.7223 -0.0376  0.2357
  226MOL0     H29767   9.526   1.145   2.376  0.4195 -1.7023  0.0578
  226MOL0     H29768   9.616   1.079   2.163 -0.9080  1.7144  1.7539
  226MOL0     H29769   9.473   1.166   1.865  4.3243  1.5654 -0.0969
  226MOL0     H29770   9.424   1.021   1.785  0.0423 -0.9615  0.6404
  226MOL0     H29771   9.655   0.935   1.799 -3.2194  0.0997 -1.8495
  226MOL0     H29772   9.707   1.087   1.869 -0.1701 -0.6087  0.0241
  226MOL0     H29773   9.553   1.073   1.607  0.0082 -1.1755  0.8198
  226MOL0     H29774   9.735   1.050   1.622  0.3580  0.2367 -0.0417
  226MOL0     H29775   9.566   1.297   1.687 -0.9771  0.4365 -3.0792
  226MOL0     H29776   9.744   1.271   1.725  0.8548 -3.2775  0.2088
  226MOL0     H29777   9.683   1.404   1.533  1.5848 -0.0913 -0.2422
  226MOL0     H29778   9.615   1.282   1.451 -0.8718  2.6915  0.4231
  226MOL0     H29779   9.827   1.135   1.463  2.0561 -0.7383 -1.5745
  226MOL0     H29780   9.916   1.259   1.531  0.6723 -1.7194 -0.8349
  226MOL0     H29781   9.787   1.253   1.259 -1.1538  2.5030 -0.8317
  226MOL0     H29782   9.870   1.403   1.310 -2.2584  0.6109 -1.3299
  226MOL0     H29783  10.073   1.308   1.332 -0.1479 -1.6217  2.4744
  226MOL0     H29784  10.019   1.243   1.175 -0.6095 -5.8659 -0.3836
  226MOL0     H29785   9.914   0.996   1.190  0.3266 -1.4943  0.5404
  226MOL0     H29786  10.030   0.681   1.375 -2.1396  0.5190  1.3493
  226MOL0     H29787  10.129   0.714   1.218  0.1028 -0.5697  0.1679
  226MOL0     H29788   9.922   0.786   1.120  1.0616  1.8851  0.7238
  226MOL0     H29789   9.839   0.710   1.260 -0.5225 -4.0896 -0.1082
  226MOL0     H29790   9.881   0.597   1.021  0.5436 -3.1074 -1.1772
  226MOL0     H29791  10.038   0.557   1.075 -1.7696 -1.3412 -4.4252
  226MOL0     H29792   9.929   0.425   1.266 -4.6277 -2.9937  2.2239
  226MOL0     H29793   9.866   0.359   1.118 -1.1258 -2.4334  1.4953
  226MOL0     H29794   9.536   0.345   1.350 -0.6789 -2.1710 -0.3771
  226MOL0     H29795   9.337   0.262   1.251  0.8173 -1.3449 -0.1037
  226MOL0     H29796   9.213   0.158   0.624  0.4920  0.8821  0.4860
  226MOL0     H29797   9.006   0.132   0.517  1.3392 -0.5763  0.4349
  226MOL0     H29798   8.761   0.047   0.577 -0.4166 -1.0050 -2.3249
  226MOL0     H29799   8.762   0.168   0.447  0.4390 -0.1834  0.5906
  226MOL0     H29800   8.528   0.254   0.511 -3.4690 -2.1782  0.5280
  226MOL0     H29801   8.503   0.118   0.604 -0.7469  1.4576  0.9258
  226MOL0     H29802   8.586  -0.026   0.425  4.4319  2.4321  2.0081
  226MOL0     H29803   8.594   0.115   0.316  0.8684  0.8306  0.5970
  226MOL0     H29804   8.332   0.034   0.447  1.0705  1.1159  0.9031
  226MOL0     H29805   8.350   0.156   0.341 -2.4865 -1.5567  0.9999
  226MOL0     H29806   8.443  -0.140   0.266  0.3943  0.6246  2.3110
  226MOL0     H29807   8.421  -0.002   0.153 -0.8963  0.7011  0.4267
  226MOL0     H29808   8.195  -0.011   0.153 -2.8267 -0.5958 -0.3125
  226MOL0     H29809   8.171  -0.092   0.303 -0.7765  1.9029 -0.3325
  226MOL0     H29810   8.292  -0.219   0.051  1.8471  1.6591  1.4574
  226MOL0     H29811   8.259  -0.314   0.194  3.4535  1.1876  0.1747
  226MOL0     H29812   8.108  -0.366   0.032  3.4054  0.7726 -0.6998
  226MOL0     H29813   8.051  -0.205   0.008 -1.9416 -1.6064 -0.2414
  226MOL0     H29814   8.823   0.376   0.834 -1.2225 -1.0886 -2.9422
  226MOL0     H29815   9.048   0.404   0.942  1.2244 -0.1270  0.2050
  226MOL0     H29816   9.498   0.383   0.861 -0.2321 -1.7775 -0.6250
  226MOL0     H29817   9.691   0.450   0.956  0.8750  0.8622  0.3871
  226MOL0     H29818   9.220   1.038   2.009 -0.1651 -0.5282  0.8774
  226MOL0     H29819   9.126   1.126   2.236 -0.6676 -2.3594  1.9532
  226MOL0     H29820   9.307   1.396   2.605 -0.8524  1.5459 -1.4347
  226MOL0     H29821   9.244   1.527   2.791 -1.7151  0.1636 -1.6013
  226MOL0     H29822   9.029   1.626   3.083  1.3616  0.5542  1.4967
  226MOL0     H29823   9.138   1.634   2.954  1.9129  2.0746  1.7644
  226MOL0     H29824   9.166   1.452   3.198 -3.2076  1.8103  0.5453
  226MOL0     H29825   9.289   1.456   3.069  0.6128  0.3552 -0.3963
  226MOL0     H29826   9.184   1.676   3.251 -0.8965 -0.6497 -1.9525
  226MOL0     H29827   9.329   1.704   3.149  1.1768 -0.3829 -0.1293
  226MOL0     H29828   9.442   1.503   3.267  0.0026  1.3562 -4.8687
  226MOL0     H29829   9.410   1.648   3.376 -0.3726 -1.9132  3.4170
  226MOL0     H29830   9.168   1.371   3.567  2.9410 -3.0307  0.9580
  226MOL0     H29831   8.904   1.267   2.850  0.3050 -0.8743  0.7541
  226MOL0     H29832   8.959   1.135   2.688 -2.8778  1.5574  2.1563
  227MOL0     O29833   7.330   2.885   5.060  1.2210 -0.3357 -0.5649
  227MOL0     C29834   7.401   2.929   4.966 -0.1431  0.9155  0.0859
  227MOL0     O29835   7.355   2.963   4.839 -0.3113 -0.7638  0.5291
  227MOL0     C29836   7.230   2.963   4.801 -0.6000 -0.3023  0.6874
  227MOL0     C29837   7.165   2.847   4.753 -0.7044 -1.1496 -0.1714
  227MOL0     C29838   7.028   2.847   4.715 -0.1244  0.4463  0.6589
  227MOL0     C29839   6.951   2.965   4.722 -0.4015 -0.9428  1.1898
  227MOL0     O29840   6.819   2.971   4.679  0.3149 -0.7402  0.3324
  227MOL0     C29841   6.766   2.889   4.579 -1.0024  0.0061  0.1905
  227MOL0     C29842   6.627   2.942   4.555 -0.2260  0.0850  0.1698
  227MOL0     C29843   6.550   2.859   4.454  0.9518 -0.9577  0.1413
  227MOL0     C29844   6.406   2.888   4.447  0.0583  0.1445 -0.2363
  227MOL0     C29845   6.325   2.821   4.339 -0.2516  0.7307 -0.2171
  227MOL0     C29846   6.186   2.875   4.307  0.4287  0.0254 -0.1732
  227MOL0     C29847   6.119   2.783   4.200  0.5432  0.6901  0.2171
  227MOL0     C29848   6.047   2.656   4.265 -0.4399 -0.6275  0.4352
  227MOL0     N29849   5.954   2.585   4.171 -0.5406 -0.4266 -0.5797
  227MOL0     C29850   5.971   2.551   4.042  0.3309  0.2848  0.1225
  227MOL0     C29851   5.851   2.516   3.988 -0.3055  0.1800  0.0283
  227MOL0     C29852   5.815   2.490   3.850  0.2066 -0.5435  0.0837
  227MOL0     C29853   5.706   2.385   3.832  0.2489 -0.8182  0.6807
  227MOL0     C29854   5.634   2.401   3.696  0.1888  0.3407 -0.7231
  227MOL0     C29855   5.541   2.525   3.703  0.0246  0.1244  0.7864
  227MOL0     O29856   5.473   2.532   3.575 -0.3107 -0.4963  0.0037
  227MOL0     C29857   5.342   2.474   3.576 -0.1544 -0.5855  0.6120
  227MOL0     C29858   5.259   2.530   3.482  0.1398 -0.5966 -0.5356
  227MOL0     C29859   5.124   2.491   3.475  0.0310 -0.0847 -1.0969
  227MOL0     C29860   5.070   2.393   3.557 -0.1319  0.2348  0.4830
  227MOL0     C29861   4.936   2.338   3.519 -0.5350 -1.3216 -0.2572
  227MOL0     O29862   4.884   2.390   3.401 -0.0607  0.4921 -0.0571
  227MOL0     C29863   4.760   2.359   3.357  0.4387  0.4945  0.3054
  227MOL0     C29864   4.679   2.461   3.303 -0.2204  0.2596 -0.0535
  227MOL0     C29865   4.555   2.431   3.258 -0.4771 -0.7248 -1.0526
  227MOL0     C29866   4.502   2.299   3.261 -0.9342  0.1676 -0.6122
  227MOL0     O29867   4.379   2.262   3.224  0.1799 -0.3065  0.2074
  227MOL0     C29868   4.309   2.347   3.125  0.1478 -0.9159  0.2765
  227MOL0     C29869   4.375   2.342   2.987  0.8126 -0.4760 -0.1205
  227MOL0     C29870   4.376   2.199   2.927 -0.3279  0.9407  0.6910
  227MOL0     C29871   4.429   2.181   2.780  1.8120 -0.3214 -1.0483
  227MOL0     C29872   4.580   2.186   2.768 -0.2029  0.1433  0.5392
  227MOL0     C29873   4.632   2.175   2.623  0.3558  0.0322  0.0632
  227MOL0     C29874   4.776   2.135   2.628 -0.8960 -0.5245  0.5639
  227MOL0     C29875   4.847   2.194   2.499 -0.9867 -0.3409 -0.1015
  227MOL0    Cl29876   4.875   2.366   2.529  0.2204  0.0733  0.2252
  227MOL0     C29877   4.583   2.199   3.317 -0.0134  0.2397  0.1217
  227MOL0     C29878   4.710   2.230   3.354 -0.5820  0.5250 -0.8294
  227MOL0     O29879   4.884   2.257   3.595  0.4982 -0.2879 -0.5875
  227MOL0     C29880   5.155   2.346   3.666  0.7685 -0.2653  0.3524
  227MOL0     C29881   5.289   2.377   3.672  0.3775 -0.7853  0.7399
  227MOL0     N29882   5.760   2.534   4.086 -0.7132  0.7633 -0.2774
  227MOL0     N29883   5.820   2.571   4.199  0.7536 -0.5019 -0.0196
  227MOL0     C29884   7.014   3.074   4.775  0.4135 -0.5553  0.9368
  227MOL0     C29885   7.148   3.081   4.813  0.4769  0.6049  1.2788
  227MOL0     C29886   7.548   2.930   4.978 -0.6455 -0.0408 -0.6529
  227MOL0     C29887   7.606   2.919   5.109 -0.2142 -0.3127 -0.6243
  227MOL0     C29888   7.743   2.930   5.115  0.1558  0.5832 -0.2070
  227MOL0     C29889   7.826   2.952   5.004 -0.3410 -0.0782 -0.8086
  227MOL0     O29890   7.960   2.975   5.005 -0.4450 -0.3616  0.0996
  227MOL0     C29891   8.024   2.974   5.131 -0.1956 -0.1707 -0.6583
  227MOL0     C29892   8.169   2.927   5.113 -0.0517 -0.3650  0.5517
  227MOL0     C29893   8.183   2.801   5.038  0.4745 -0.1974 -1.0145
  227MOL0     C29894   8.141   2.679   5.122  0.7037 -0.6402 -1.1179
  227MOL0     C29895   7.995   2.651   5.131 -0.5765 -0.3080  0.1679
  227MOL0     C29896   7.878   2.636   5.145  0.7297 -0.0777  0.0919
  227MOL0     C29897   7.766   2.956   4.881  0.5010  0.2684  0.5986
  227MOL0     C29898   7.629   2.951   4.865 -0.1954 -0.0542 -0.4109
  227MOL0     H29899   7.220   2.753   4.753  1.3536 -0.0532  1.9329
  227MOL0     H29900   6.969   2.765   4.676 -3.2739  2.1355  1.5182
  227MOL0     H29901   6.748   2.785   4.607 -0.8115 -0.3297 -0.8781
  227MOL0     H29902   6.841   2.894   4.499  0.4878  1.2952  1.5909
  227MOL0     H29903   6.634   3.046   4.524 -1.6530 -1.2461 -6.2746
  227MOL0     H29904   6.580   2.919   4.651  0.4219  0.2897  0.5344
  227MOL0     H29905   6.542   2.754   4.481 -2.0689 -0.5405  1.2520
  227MOL0     H29906   6.606   2.878   4.362 -0.3454 -0.0228 -0.4993
  227MOL0     H29907   6.366   2.866   4.546  0.8957  0.4495  0.1871
  227MOL0     H29908   6.391   2.997   4.444  1.2129  0.3503  0.6365
  227MOL0     H29909   6.320   2.720   4.380 -1.1319  0.3994 -1.1161
  227MOL0     H29910   6.378   2.820   4.244  0.2630 -0.7852  0.0532
  227MOL0     H29911   6.198   2.969   4.252  0.8865 -0.5143 -1.0236
  227MOL0     H29912   6.113   2.883   4.388  1.0373  1.7582  0.2451
  227MOL0     H29913   6.030   2.839   4.169  1.9797  3.0425  0.0792
  227MOL0     H29914   6.191   2.761   4.121  0.8032  1.3836  0.2443
  227MOL0     H29915   6.000   2.676   4.362 -2.2490  0.0800 -0.5432
  227MOL0     H29916   6.124   2.580   4.280  1.4890  1.0881 -0.3553
  227MOL0     H29917   6.068   2.548   3.994 -0.4723  0.4721 -1.5571
  227MOL0     H29918   5.905   2.466   3.792  0.5557 -0.3589  0.5412
  227MOL0     H29919   5.794   2.589   3.808 -1.5989 -1.8642 -2.3844
  227MOL0     H29920   5.638   2.405   3.915 -0.6250 -0.0782 -0.1758
  227MOL0     H29921   5.739   2.281   3.829 -0.6430 -1.2198 -3.9828
  227MOL0     H29922   5.711   2.415   3.620  0.6390  2.7663  0.0916
  227MOL0     H29923   5.573   2.311   3.681  0.8288 -0.5315  1.4556
  227MOL0     H29924   5.586   2.625   3.700 -0.9343  0.5561 -0.4314
  227MOL0     H29925   5.475   2.513   3.790 -3.0869 -4.2094 -1.7912
  227MOL0     H29926   5.301   2.606   3.417  0.0603 -0.3163 -0.2676
  227MOL0     H29927   5.064   2.546   3.404  0.4126 -1.6930 -2.7394
  227MOL0     H29928   4.714   2.564   3.308  1.0108 -0.1715  0.9672
  227MOL0     H29929   4.502   2.516   3.215 -2.0748 -1.3034 -0.2795
  227MOL0     H29930   4.315   2.448   3.166  1.7805 -0.2245 -1.5710
  227MOL0     H29931   4.203   2.325   3.108  0.2171 -0.2323 -1.0980
  227MOL0     H29932   4.476   2.379   3.009 -0.5152  1.2264  4.2486
  227MOL0     H29933   4.327   2.419   2.926 -0.2009 -0.0794  1.1155
  227MOL0     H29934   4.277   2.152   2.923 -0.4175  0.9875  2.0995
  227MOL0     H29935   4.441   2.142   2.994 -0.1334  0.8351  0.4133
  227MOL0     H29936   4.390   2.090   2.735  0.0738  1.0592 -2.5196
  227MOL0     H29937   4.386   2.265   2.724 -0.2092 -0.1864  0.5663
  227MOL0     H29938   4.639   2.117   2.828  0.7634  0.2610 -0.2356
  227MOL0     H29939   4.603   2.289   2.798  1.0735  1.1349 -3.2609
  227MOL0     H29940   4.609   2.272   2.577 -2.9003 -0.7114 -0.0517
  227MOL0     H29941   4.589   2.089   2.571 -0.5804  0.7408 -0.3659
  227MOL0     H29942   4.830   2.174   2.716 -1.8293 -2.4330  2.0565
  227MOL0     H29943   4.794   2.027   2.624 -0.6988 -0.7222  3.9093
  227MOL0     H29944   4.776   2.199   2.415 -0.8984  2.4314 -0.1115
  227MOL0     H29945   4.942   2.150   2.471  0.8890  0.3568  4.3080
  227MOL0     H29946   4.547   2.097   3.326  1.7589 -0.6402 -1.8868
  227MOL0     H29947   4.769   2.150   3.399 -3.5786 -1.5223 -0.2124
  227MOL0     H29948   5.136   2.256   3.722  0.5535 -1.6153 -1.7796
  227MOL0     H29949   5.361   2.333   3.740  2.1540  0.0144 -0.5455
  227MOL0     H29950   6.970   3.173   4.769 -3.0846 -1.7735  3.2535
  227MOL0     H29951   7.187   3.179   4.839  0.1958  1.5572 -1.5378
  227MOL0     H29952   7.541   2.898   5.193  2.9084 -1.9826  1.5920
  227MOL0     H29953   7.788   2.908   5.211 -0.1232 -1.0606 -0.4288
  227MOL0     H29954   7.985   2.900   5.202  0.6687  1.3317  1.4742
  227MOL0     H29955   8.011   3.070   5.181 -0.7618 -1.1639  1.2033
  227MOL0     H29956   8.222   3.003   5.055 -0.3273  1.8524  3.0310
  227MOL0     H29957   8.208   2.918   5.215  0.2221 -2.3104  0.3245
  227MOL0     H29958   8.291   2.784   5.025  0.5454  0.6701 -1.6577
  227MOL0     H29959   8.136   2.802   4.939 -1.9464  0.1916  0.0731
  227MOL0     H29960   8.190   2.588   5.083  0.6015  0.0968 -3.0805
  227MOL0     H29961   8.179   2.697   5.223  5.8888  0.3420 -2.9323
  227MOL0     H29962   7.772   2.620   5.145  0.4956  1.0844 -2.3770
  227MOL0     H29963   7.828   2.966   4.793 -2.2526  1.4574 -1.3760
  227MOL0     H29964   7.588   2.957   4.765  3.3725  1.8494 -1.9623
  228MOL0     O29965   1.866  10.157   6.448 -0.2998 -0.0838 -0.5679
  228MOL0     C29966   1.842  10.272   6.438 -0.1201 -0.1142  0.1325
  228MOL0     O29967   1.753  10.322   6.350 -0.5537 -0.6574 -0.2841
  228MOL0     C29968   1.639  10.257   6.330  0.2054 -0.5862 -0.0967
  228MOL0     C29969   1.529  10.342   6.295 -0.8123 -0.4071  0.3440
  228MOL0     C29970   1.407  10.293   6.263  0.0058 -0.2683  0.2083
  228MOL0     C29971   1.383  10.157   6.264 -0.2330 -0.9579  0.6167
  228MOL0     O29972   1.270  10.106   6.211  0.1846 -0.4296 -0.0794
  228MOL0     C29973   1.159  10.187   6.171  0.1201  0.2270  0.1229
  228MOL0     C29974   1.040  10.098   6.148  0.3636 -0.7457 -0.3103
  228MOL0     C29975   0.981  10.116   6.002  0.2296 -0.0664  0.6630
  228MOL0     C29976   0.854  10.030   5.993 -0.8963  0.5534 -0.4259
  228MOL0     C29977   0.782  10.050   5.863  0.0869 -0.0961  0.0710
  228MOL0     C29978   0.671   9.953   5.843  0.4122 -0.2606  0.8382
  228MOL0     C29979   0.589   9.968   5.709 -0.2514  0.3341 -0.0988
  228MOL0     C29980   0.509   9.839   5.681  0.5287 -0.0648 -0.3273
  228MOL0     N29981   0.377   9.805   5.752 -0.1501 -0.7899 -0.3372
  228MOL0     C29982   0.258   9.879   5.747 -0.9271  0.2035 -0.9596
  228MOL0     C29983   0.176   9.812   5.824  0.2461 -0.1841  0.0991
  228MOL0     C29984   0.035   9.866   5.817  0.1698  0.1175  0.1897
  228MOL0     C29985  -0.027   9.927   5.951 -0.1714  0.4953 -0.7811
  228MOL0     C29986  -0.182   9.921   5.928 -0.6096  0.4071 -0.0392
  228MOL0     C29987  -0.265   9.944   6.057 -0.9822  0.1953  1.5051
  228MOL0     O29988  -0.391   9.991   6.007  0.5335 -1.1731 -0.4742
  228MOL0     C29989  -0.496   9.909   6.035 -0.2054 -1.0550  1.1836
  228MOL0     C29990  -0.613   9.976   6.081  0.5420 -0.4552 -0.4603
  228MOL0     C29991  -0.725   9.897   6.112  0.5277 -0.1894  0.0036
  228MOL0     C29992  -0.720   9.753   6.102  0.6897  0.5327 -0.1539
  228MOL0     C29993  -0.837   9.667   6.152 -1.0104 -0.2734 -0.9134
  228MOL0     O29994  -0.811   9.538   6.169  0.2859 -0.1560 -0.5348
  228MOL0     C29995  -0.903   9.483   6.250 -0.0895 -0.0194  1.0016
  228MOL0     C29996  -0.865   9.462   6.390  0.4544 -0.0935  0.4223
  228MOL0     C29997  -0.954   9.412   6.485  0.0588  0.9189  0.2797
  228MOL0     C29998  -1.077   9.357   6.436  0.7243  0.2580  0.1588
  228MOL0     O29999  -1.171   9.288   6.510  0.0058 -0.4062 -0.1605
  228MOL0     C30000  -1.143   9.150   6.521  0.9400 -0.1691 -0.1622
  228MOL0     C30001  -1.257   9.062   6.464  0.3082  0.0500 -0.8592
  228MOL0     C30002  -1.389   9.078   6.550  0.5368 -0.3173 -0.2704
  228MOL0     C30003  -1.496   8.984   6.492  0.2681  0.9856 -0.4189
  228MOL0     C30004  -1.629   8.975   6.567 -0.0451  1.2650  0.6784
  228MOL0     C30005  -1.752   9.019   6.479  0.3668 -0.0415 -0.2631
  228MOL0     C30006  -1.893   8.994   6.550  0.0261  0.0386  0.3857
  228MOL0     C30007  -2.005   9.013   6.448  0.2811  0.5699 -0.4273
  228MOL0    Cl30008  -2.165   8.942   6.501  0.0972  0.2970  0.0225
  228MOL0     C30009  -1.106   9.365   6.300 -0.1397 -0.8914  0.5611
  228MOL0     C30010  -1.025   9.428   6.209  0.3650  0.0412 -0.0109
  228MOL0     O30011  -0.932   9.728   6.196  0.2125  0.3693 -0.5858
  228MOL0     C30012  -0.604   9.686   6.064 -0.7824 -0.0007 -0.0768
  228MOL0     C30013  -0.500   9.765   6.026 -0.3444  1.0307 -0.2000
  228MOL0     N30014   0.233   9.696   5.868  0.1325  0.1066  0.4425
  228MOL0     N30015   0.357   9.701   5.841 -0.1600  0.6014 -0.2748
  228MOL0     C30016   1.484  10.074   6.307 -0.1842 -0.5225  1.4417
  228MOL0     C30017   1.615  10.121   6.341 -0.0515  0.5388  0.5135
  228MOL0     C30018   1.935  10.368   6.499 -0.5089  0.0620  0.3731
  228MOL0     C30019   1.897  10.502   6.517 -0.0725 -0.0539  0.9597
  228MOL0     C30020   1.980  10.591   6.587  0.0063 -0.1265  0.9139
  228MOL0     C30021   2.116  10.558   6.617 -0.1244 -0.4227  0.1727
  228MOL0     O30022   2.190  10.666   6.657  0.4566 -0.0400 -0.1912
  228MOL0     C30023   2.331  10.652   6.696  0.4341 -0.2669 -0.9934
  228MOL0     C30024   2.422  10.672   6.571  0.0335  0.8468  0.2934
  228MOL0     C30025   2.567  10.719   6.601 -0.8026  0.5390 -0.2382
  228MOL0     C30026   2.564  10.864   6.649  1.3816  0.9000 -0.6900
  228MOL0     C30027   2.684  10.940   6.628  0.1227 -0.8646  0.1183
  228MOL0     C30028   2.778  11.011   6.589 -0.4806  0.4650 -0.1996
  228MOL0     C30029   2.161  10.432   6.577  0.4515  0.1664  0.2606
  228MOL0     C30030   2.073  10.333   6.524  0.1002 -0.0864  0.2371
  228MOL0     H30031   1.538  10.449   6.280 -3.6819 -0.0971  0.2043
  228MOL0     H30032   1.335  10.364   6.223  1.6185  2.2628  1.5143
  228MOL0     H30033   1.195  10.238   6.080 -1.5614  2.3446  0.5693
  228MOL0     H30034   1.138  10.269   6.240 -0.9126 -0.6966  0.9280
  228MOL0     H30035   0.970  10.124   6.228  1.0399  0.0452  0.0308
  228MOL0     H30036   1.071   9.994   6.164 -1.3240 -1.6886 -2.5057
  228MOL0     H30037   1.052  10.079   5.928 -0.1732  0.7185 -0.1247
  228MOL0     H30038   0.970  10.223   5.987  0.7779  0.4646  3.3651
  228MOL0     H30039   0.867   9.922   6.002 -1.9358  0.5772  1.9579
  228MOL0     H30040   0.788  10.058   6.075 -0.5979 -2.2662  0.8728
  228MOL0     H30041   0.849  10.033   5.778  0.0795 -1.8492  0.3949
  228MOL0     H30042   0.753  10.155   5.849  2.3033  0.1765 -4.4621
  228MOL0     H30043   0.596   9.961   5.922 -0.5763  2.3095 -0.2450
  228MOL0     H30044   0.715   9.853   5.848 -0.8106 -0.9229 -0.6836
  228MOL0     H30045   0.513  10.045   5.725  1.7119  2.0569  1.4562
  228MOL0     H30046   0.662   9.990   5.631  0.0014  1.6371  0.4932
  228MOL0     H30047   0.566   9.749   5.702 -0.8661 -0.6109  1.4166
  228MOL0     H30048   0.481   9.836   5.575  1.1194 -2.6014 -0.4725
  228MOL0     H30049   0.241   9.979   5.708 -1.6453 -0.6006 -2.8080
  228MOL0     H30050  -0.020   9.775   5.792  2.7833 -1.6343  0.4332
  228MOL0     H30051   0.021   9.952   5.751 -1.4981  0.1052  0.4918
  228MOL0     H30052   0.002  10.031   5.967 -0.5049  0.4353  0.3294
  228MOL0     H30053   0.014   9.864   6.031  0.4956 -1.6072 -2.6706
  228MOL0     H30054  -0.198  10.005   5.859  1.3470  1.6728  0.9368
  228MOL0     H30055  -0.212   9.827   5.881  0.9485  0.0527 -0.3812
  228MOL0     H30056  -0.218  10.015   6.125 -4.3123  1.1758  2.9674
  228MOL0     H30057  -0.284   9.852   6.114 -0.4884 -1.3335 -0.6463
  228MOL0     H30058  -0.623  10.083   6.089  0.2452 -0.4278 -1.1466
  228MOL0     H30059  -0.819   9.942   6.142 -1.3228 -2.6116 -1.7669
  228MOL0     H30060  -0.771   9.505   6.423 -0.6885  1.7992  1.3332
  228MOL0     H30061  -0.929   9.413   6.590 -0.6337  0.8299  0.4488
  228MOL0     H30062  -1.105   9.117   6.618 -0.0078  0.9296  0.6030
  228MOL0     H30063  -1.063   9.128   6.449  1.0063  2.8805 -1.1928
  228MOL0     H30064  -1.223   8.958   6.470 -0.3824 -0.1868 -0.9450
  228MOL0     H30065  -1.290   9.078   6.361 -1.3150  0.3449 -0.3214
  228MOL0     H30066  -1.430   9.179   6.544 -2.7853 -1.5896 -0.7692
  228MOL0     H30067  -1.373   9.063   6.657 -1.3445  0.1992  0.1156
  228MOL0     H30068  -1.522   9.012   6.389 -2.4393  2.2254  0.4886
  228MOL0     H30069  -1.460   8.881   6.484 -0.1405  0.4158  3.4888
  228MOL0     H30070  -1.627   9.042   6.654 -0.3053  0.0758  1.6356
  228MOL0     H30071  -1.640   8.871   6.599 -0.5277  1.5109  1.3354
  228MOL0     H30072  -1.737   8.969   6.383  1.7284 -2.1402  0.9560
  228MOL0     H30073  -1.753   9.128   6.469  2.2523  0.1800  1.3894
  228MOL0     H30074  -1.894   8.890   6.585  0.2640  0.6584  2.3203
  228MOL0     H30075  -1.910   9.065   6.632 -4.0755  0.5157 -0.6219
  228MOL0     H30076  -1.973   8.993   6.346  2.3227  0.7071  0.1360
  228MOL0     H30077  -2.013   9.122   6.445  0.3280  0.5637 -0.8526
  228MOL0     H30078  -1.195   9.319   6.258  1.7982 -1.3202 -3.6326
  228MOL0     H30079  -1.044   9.432   6.102 -2.8744  3.5367  0.4680
  228MOL0     H30080  -0.608   9.580   6.041 -0.2393 -0.5517  2.1406
  228MOL0     H30081  -0.417   9.731   5.965 -1.5964  2.3561 -2.7854
  228MOL0     H30082   1.454   9.969   6.308 -3.4280  0.2973  2.2548
  228MOL0     H30083   1.680  10.039   6.368 -0.6957  0.1229  0.8113
  228MOL0     H30084   1.794  10.521   6.492 -0.6662 -3.9383 -0.2621
  228MOL0     H30085   1.943  10.691   6.604  2.0684  1.0790 -1.1159
  228MOL0     H30086   2.357  10.555   6.739  1.0592 -1.1249 -3.1625
  228MOL0     H30087   2.349  10.740   6.759 -2.6492  1.0996 -1.8658
  228MOL0     H30088   2.428  10.571   6.529  0.1340  1.0373 -0.1508
  228MOL0     H30089   2.378  10.739   6.497 -0.3080  0.3280  0.0154
  228MOL0     H30090   2.627  10.716   6.509 -0.8433  1.1313 -0.2901
  228MOL0     H30091   2.625  10.661   6.672  1.7477  0.8611 -1.9396
  228MOL0     H30092   2.487  10.918   6.592 -1.1930 -0.9315  0.8428
  228MOL0     H30093   2.539  10.871   6.755  0.7758 -0.8795 -0.6870
  228MOL0     H30094   2.864  11.072   6.569 -0.8757  0.6402 -1.4623
  228MOL0     H30095   2.258  10.390   6.603 -0.3979 -0.2286  3.1931
  228MOL0     H30096   2.112  10.233   6.505  0.0498 -0.0273 -0.1810
  229MOL0     O30097   2.579   5.888   8.575 -0.0740 -0.0306  0.5194
  229MOL0     C30098   2.524   5.981   8.513  0.0737 -0.6690 -0.5145
  229MOL0     O30099   2.587   6.097   8.490  0.0156 -0.2533  0.1260
  229MOL0     C30100   2.714   6.118   8.532 -0.4665  0.2403  0.5318
  229MOL0     C30101   2.736   6.217   8.627  0.4566  0.3700 -0.2815
  229MOL0     C30102   2.868   6.264   8.644  0.6814  0.2506  0.0762
  229MOL0     C30103   2.970   6.210   8.579  0.0493 -0.2100  0.2761
  229MOL0     O30104   3.088   6.260   8.611 -0.2416  0.2055  0.4051
  229MOL0     C30105   3.200   6.179   8.575  0.8690 -0.4799 -0.4885
  229MOL0     C30106   3.337   6.254   8.601  0.2363  0.4663  0.2892
  229MOL0     C30107   3.360   6.390   8.533 -0.9746  0.3366 -0.7800
  229MOL0     C30108   3.503   6.454   8.542 -1.3802 -0.3175 -0.7183
  229MOL0     C30109   3.488   6.584   8.631  0.4500  0.7705 -1.1385
  229MOL0     C30110   3.441   6.560   8.778 -0.4891 -0.0596 -0.1087
  229MOL0     C30111   3.527   6.454   8.854  0.4661  0.0638 -0.2337
  229MOL0     C30112   3.463   6.424   8.992  0.2831 -1.5106 -0.0786
  229MOL0     N30113   3.337   6.346   8.998  0.0496 -0.5641  0.4668
  229MOL0     C30114   3.340   6.207   8.985  0.1237  0.7431  0.3928
  229MOL0     C30115   3.213   6.175   8.958  0.0925  0.6103  0.0100
  229MOL0     C30116   3.171   6.037   8.924 -0.3707 -0.3024 -0.0917
  229MOL0     C30117   3.023   6.021   8.905  0.2047 -0.1352 -0.3694
  229MOL0     C30118   3.009   5.885   8.839 -0.1685  0.5028 -1.0521
  229MOL0     C30119   2.862   5.857   8.825 -0.2111  0.4418  0.6972
  229MOL0     O30120   2.848   5.706   8.816  0.5177  0.2188 -0.8481
  229MOL0     C30121   2.730   5.656   8.874  0.2060  0.3681  0.3389
  229MOL0     C30122   2.727   5.517   8.900 -0.0444 -0.1598 -0.4933
  229MOL0     C30123   2.608   5.458   8.951 -0.1433 -0.4123 -0.1698
  229MOL0     C30124   2.489   5.534   8.968  0.8229  0.0710 -0.0359
  229MOL0     C30125   2.364   5.461   9.011 -0.6164 -0.2646  0.5151
  229MOL0     O30126   2.242   5.520   8.991 -0.5872 -0.9300  0.2426
  229MOL0     C30127   2.127   5.448   8.991 -0.3024  0.4130  0.1197
  229MOL0     C30128   2.011   5.520   9.009  0.6631  0.5007  0.5843
  229MOL0     C30129   1.891   5.442   9.012 -1.2245 -0.2144 -0.5743
  229MOL0     C30130   1.871   5.309   9.002  0.0110 -0.4278  0.0866
  229MOL0     O30131   1.753   5.251   8.998  0.1525 -0.0096 -0.4032
  229MOL0     C30132   1.745   5.167   8.877  0.0339  0.1276 -0.7413
  229MOL0     C30133   1.599   5.120   8.863  0.3131  0.8584 -0.0530
  229MOL0     C30134   1.585   5.035   8.740  0.7096  1.0195 -0.3752
  229MOL0     C30135   1.440   5.007   8.699 -0.3049  1.4466  0.3947
  229MOL0     C30136   1.444   4.911   8.577 -0.9679  0.3148  0.5067
  229MOL0     C30137   1.319   4.832   8.568 -0.4251  0.6088  0.3927
  229MOL0     C30138   1.192   4.927   8.555 -0.8676  0.3043  0.3172
  229MOL0     C30139   1.074   4.853   8.495 -0.0515 -0.2329  0.2824
  229MOL0    Cl30140   0.974   4.982   8.425 -0.0947  0.1309  0.1021
  229MOL0     C30141   1.989   5.236   8.998  0.1995 -0.2877  0.5576
  229MOL0     C30142   2.111   5.305   8.997 -0.2223  0.6165  0.6195
  229MOL0     O30143   2.385   5.348   9.041 -0.0515  0.0818 -0.3034
  229MOL0     C30144   2.493   5.670   8.940  1.2691 -0.0498  0.7147
  229MOL0     C30145   2.612   5.728   8.908  0.1157  0.2378 -0.0815
  229MOL0     N30146   3.131   6.284   8.959  0.2758 -0.5364 -0.1281
  229MOL0     N30147   3.206   6.390   8.973 -0.1068  0.1728 -0.0158
  229MOL0     C30148   2.952   6.100   8.493  0.9291 -0.5992  0.1267
  229MOL0     C30149   2.822   6.062   8.458  0.1116  0.8027 -0.1453
  229MOL0     C30150   2.380   5.967   8.471 -0.6783 -1.1341 -0.4106
  229MOL0     C30151   2.323   5.846   8.450  0.0914 -0.6607 -0.0721
  229MOL0     C30152   2.202   5.840   8.393 -0.3168  1.0899 -0.4775
  229MOL0     C30153   2.137   5.960   8.355  0.1863 -0.3180  0.4155
  229MOL0     O30154   2.017   5.954   8.293  0.1705  0.0851  0.1959
  229MOL0     C30155   1.912   5.891   8.360 -1.0914  0.2749  0.4734
  229MOL0     C30156   1.822   5.809   8.271  0.2647 -0.2582  0.1172
  229MOL0     C30157   1.706   5.764   8.347 -0.3702  0.2429  0.3928
  229MOL0     C30158   1.627   5.666   8.256  1.5555 -0.2743 -0.3630
  229MOL0     C30159   1.511   5.602   8.322  1.5289  0.1104  0.6697
  229MOL0     C30160   1.411   5.548   8.368  0.0549 -0.7230 -0.7375
  229MOL0     C30161   2.187   6.085   8.385 -0.0629 -0.5317 -0.0526
  229MOL0     C30162   2.315   6.088   8.446 -0.6343 -0.7263 -0.2757
  229MOL0     H30163   2.651   6.248   8.687  1.5264 -0.3258  1.6692
  229MOL0     H30164   2.883   6.343   8.716  3.1019 -1.0553  1.0968
  229MOL0     H30165   3.196   6.174   8.466 -0.6471  1.2385 -0.5691
  229MOL0     H30166   3.200   6.079   8.619  1.3588 -0.0853  0.4323
  229MOL0     H30167   3.415   6.188   8.560 -1.2280  0.1499 -2.1674
  229MOL0     H30168   3.342   6.259   8.710 -0.4613  0.9264  0.3054
  229MOL0     H30169   3.282   6.460   8.566  1.5651  3.3137 -0.6888
  229MOL0     H30170   3.331   6.369   8.429 -3.1695 -0.6392 -0.0459
  229MOL0     H30171   3.582   6.389   8.579  0.2738  2.2611  0.6254
  229MOL0     H30172   3.533   6.481   8.440  0.7364 -1.0476 -0.3223
  229MOL0     H30173   3.421   6.655   8.584 -1.4877 -1.2796 -1.6539
  229MOL0     H30174   3.592   6.617   8.627  1.8339 -3.1441 -3.6061
  229MOL0     H30175   3.331   6.552   8.777 -0.8137  3.0692 -0.1269
  229MOL0     H30176   3.447   6.645   8.847 -2.7871 -0.7940  1.1413
  229MOL0     H30177   3.538   6.361   8.798 -0.0626  0.3080 -0.7555
  229MOL0     H30178   3.626   6.493   8.879 -0.1551 -0.2739  3.3940
  229MOL0     H30179   3.459   6.515   9.053  2.2780  0.0016 -2.0403
  229MOL0     H30180   3.527   6.354   9.046 -0.3796 -1.6792  0.5123
  229MOL0     H30181   3.418   6.132   8.991  1.3273  2.0654  2.9159
  229MOL0     H30182   3.204   5.980   9.011  2.1474  3.4482  1.6922
  229MOL0     H30183   3.219   6.003   8.832 -2.4416 -2.0162 -0.6286
  229MOL0     H30184   2.978   6.100   8.843  0.7323  0.6933  0.2836
  229MOL0     H30185   2.979   6.028   9.005  0.5768  1.5665 -0.2829
  229MOL0     H30186   3.051   5.884   8.739  1.2071 -1.2012 -0.5099
  229MOL0     H30187   3.056   5.804   8.896 -3.2198 -1.4003 -0.9776
  229MOL0     H30188   2.814   5.892   8.733 -0.2919 -2.7645 -0.6408
  229MOL0     H30189   2.801   5.894   8.908 -2.6403 -0.5705 -0.5399
  229MOL0     H30190   2.820   5.462   8.891  2.5410  3.2800  2.3879
  229MOL0     H30191   2.625   5.351   8.966 -0.5967 -0.0810  4.1475
  229MOL0     H30192   2.000   5.628   9.013 -1.8797  0.5136 -2.5547
  229MOL0     H30193   1.802   5.503   9.023  0.2722  1.8076  1.1886
  229MOL0     H30194   1.814   5.085   8.896  0.1888  0.7081  1.4525
  229MOL0     H30195   1.780   5.205   8.781  1.2146  0.5076 -0.1756
  229MOL0     H30196   1.534   5.208   8.851  1.4840  2.0648  1.9978
  229MOL0     H30197   1.564   5.070   8.953  0.5083 -0.2989 -0.5957
  229MOL0     H30198   1.633   4.941   8.768 -2.8327 -0.8225  0.1639
  229MOL0     H30199   1.631   5.093   8.660 -0.3363  0.9701 -1.0399
  229MOL0     H30200   1.385   4.969   8.786  1.9078  0.0041  1.2694
  229MOL0     H30201   1.400   5.103   8.668  1.6973  2.0415 -0.5523
  229MOL0     H30202   1.523   4.836   8.579 -0.8502  0.4267  0.1679
  229MOL0     H30203   1.460   4.969   8.486 -1.5826 -0.1765  0.0745
  229MOL0     H30204   1.316   4.772   8.660  1.8975  0.8166  0.6632
  229MOL0     H30205   1.330   4.772   8.478 -1.2604  2.1426 -0.7766
  229MOL0     H30206   1.157   4.948   8.656 -0.2791  0.1351  0.5583
  229MOL0     H30207   1.220   5.016   8.498 -2.5709  0.7967  0.1942
  229MOL0     H30208   1.026   4.791   8.573  3.1747 -4.4540 -0.7005
  229MOL0     H30209   1.096   4.785   8.412 -0.0234 -0.0237  0.1191
  229MOL0     H30210   1.996   5.128   8.986 -2.4760 -0.4001 -0.5876
  229MOL0     H30211   2.188   5.229   8.989  0.1986  1.1361 -0.4855
  229MOL0     H30212   2.406   5.734   8.942  1.3180  0.0666  3.1832
  229MOL0     H30213   2.603   5.834   8.886 -1.1954  0.1881  0.1174
  229MOL0     H30214   3.025   6.040   8.439  0.0546 -0.6755 -1.0068
  229MOL0     H30215   2.801   5.988   8.381 -1.5463 -0.7641  1.7070
  229MOL0     H30216   2.376   5.758   8.484 -0.0526 -0.8876 -0.4343
  229MOL0     H30217   2.161   5.741   8.380 -0.0700  0.8942  0.2181
  229MOL0     H30218   1.845   5.968   8.402  1.2141  1.4193  2.3160
  229MOL0     H30219   1.956   5.831   8.440 -0.1121  2.4010  1.6461
  229MOL0     H30220   1.789   5.866   8.183  1.1745  1.6753  0.9664
  229MOL0     H30221   1.875   5.716   8.250 -2.7685 -1.7023 -1.8220
  229MOL0     H30222   1.631   5.837   8.377  0.9709  1.9673 -0.3066
  229MOL0     H30223   1.740   5.702   8.431  0.4440  0.1915  0.0334
  229MOL0     H30224   1.592   5.716   8.165 -0.9276  1.6002  1.4614
  229MOL0     H30225   1.685   5.576   8.235 -0.7981 -3.3529  4.5450
  229MOL0     H30226   1.332   5.504   8.426  0.5774 -0.5478  0.1358
  229MOL0     H30227   2.140   6.175   8.348  1.5853  1.1494  1.6605
  229MOL0     H30228   2.364   6.184   8.459 -0.7302 -0.8147  0.7900
  230MOL0     O30229   9.081   5.863   6.826  0.3811 -0.6603 -0.6603
  230MOL0     C30230   9.127   5.838   6.934 -0.5372  0.4571 -0.5434
  230MOL0     O30231   9.054   5.799   7.042  0.0857 -0.1946  0.0959
  230MOL0     C30232   8.918   5.776   7.033 -0.5026 -0.1693  0.6397
  230MOL0     C30233   8.844   5.716   6.926 -0.0126  0.4600 -0.4389
  230MOL0     C30234   8.703   5.704   6.940  0.4613  0.9881  1.4033
  230MOL0     C30235   8.642   5.756   7.061  0.6172  0.4158  0.2401
  230MOL0     O30236   8.507   5.739   7.089 -0.5308  0.7117  0.5016
  230MOL0     C30237   8.427   5.801   6.983 -0.2475  0.8938 -0.0541
  230MOL0     C30238   8.300   5.863   7.057  0.2363  0.0267  0.2213
  230MOL0     C30239   8.203   5.747   7.080  0.0179  1.0274  0.1527
  230MOL0     C30240   8.073   5.796   7.145  1.2004  0.4092 -0.5429
  230MOL0     C30241   7.969   5.690   7.138 -0.7797 -0.3255  0.4737
  230MOL0     C30242   8.003   5.569   7.231 -0.2549  0.2751 -0.4540
  230MOL0     C30243   7.872   5.506   7.284 -1.0300  0.4734  0.2880
  230MOL0     C30244   7.798   5.590   7.386  0.5649 -0.2238 -0.0646
  230MOL0     N30245   7.672   5.512   7.395  1.0990 -0.2287  0.5077
  230MOL0     C30246   7.645   5.385   7.447  0.0660  0.0473 -0.2665
  230MOL0     C30247   7.524   5.358   7.407  0.3245  0.1893 -0.1764
  230MOL0     C30248   7.455   5.225   7.407  0.4077 -0.3152  0.6026
  230MOL0     C30249   7.516   5.130   7.314  0.2914 -1.6764  0.8600
  230MOL0     C30250   7.528   5.187   7.168 -0.4626  0.2836 -0.1889
  230MOL0     C30251   7.388   5.205   7.100  0.5323  0.1063 -0.1046
  230MOL0     O30252   7.317   5.082   7.119 -0.0051 -0.1915  0.8618
  230MOL0     C30253   7.196   5.059   7.054 -0.2145 -0.3745 -0.5047
  230MOL0     C30254   7.141   5.157   6.958 -0.1703  0.4626 -0.9678
  230MOL0     C30255   7.019   5.131   6.894  0.7071  0.5677  0.1030
  230MOL0     C30256   6.944   5.018   6.942 -0.3053  0.2857  0.4019
  230MOL0     C30257   6.814   5.005   6.886 -0.4408 -0.2960  1.6739
  230MOL0     O30258   6.801   5.034   6.749 -0.4590 -0.1374 -0.0115
  230MOL0     C30259   6.674   5.044   6.698 -0.2483 -1.0032 -1.2382
  230MOL0     C30260   6.576   4.935   6.719  0.2574 -0.6619  0.2705
  230MOL0     C30261   6.452   4.949   6.669  0.5079  0.4357 -0.1437
  230MOL0     C30262   6.429   5.050   6.582  0.3442 -1.0386 -0.5710
  230MOL0     O30263   6.309   5.041   6.507 -0.0590 -0.5555 -0.5088
  230MOL0     C30264   6.316   5.075   6.368  0.0389 -0.0133  0.0587
  230MOL0     C30265   6.170   5.073   6.300 -0.1270 -0.3350  0.1543
  230MOL0     C30266   6.196   5.095   6.149 -0.6649  0.1919 -0.8009
  230MOL0     C30267   6.076   5.138   6.074 -0.3137 -0.2193  0.5090
  230MOL0     C30268   6.107   5.138   5.919 -1.3440  0.4334 -0.5799
  230MOL0     C30269   6.108   5.282   5.868  0.1263  0.7534 -0.2683
  230MOL0     C30270   6.149   5.289   5.723  0.4605 -0.2963  0.3031
  230MOL0     C30271   6.304   5.261   5.695  0.6647  0.5276 -0.1774
  230MOL0    Cl30272   6.296   5.249   5.525 -0.0300 -0.0007  0.2557
  230MOL0     C30273   6.522   5.150   6.559  0.0747 -0.4215 -0.1462
  230MOL0     C30274   6.645   5.155   6.616  1.0772  0.0301 -0.1962
  230MOL0     O30275   6.724   4.959   6.954  0.1730  0.5981 -0.8176
  230MOL0     C30276   6.998   4.932   7.043 -0.0894 -0.3018 -0.1416
  230MOL0     C30277   7.127   4.942   7.089  1.0266 -0.2739 -1.4346
  230MOL0     N30278   7.462   5.469   7.357  0.5196  0.7947  0.2635
  230MOL0     N30279   7.547   5.557   7.355 -0.2684 -0.9882  0.3640
  230MOL0     C30280   8.720   5.794   7.162  0.7971  1.2440  0.3582
  230MOL0     C30281   8.856   5.803   7.153  0.0173  0.2170 -1.4313
  230MOL0     C30282   9.265   5.867   6.969 -0.6173 -0.4324  0.8162
  230MOL0     C30283   9.327   5.828   7.089 -1.0535  0.9453  0.3961
  230MOL0     C30284   9.455   5.865   7.119  0.3322  0.5573  0.6751
  230MOL0     C30285   9.524   5.945   7.025 -1.1153 -0.2975 -0.8047
  230MOL0     O30286   9.651   5.984   7.064  0.1435 -0.4151  0.2868
  230MOL0     C30287   9.751   5.890   7.107 -0.1145 -0.7784 -0.3609
  230MOL0     C30288   9.865   5.890   7.015  0.5911  0.4091  1.0228
  230MOL0     C30289   9.850   5.815   6.881 -0.3097 -0.0214  0.4101
  230MOL0     C30290   9.883   5.664   6.901  0.5988  0.5465 -0.0867
  230MOL0     C30291   9.857   5.592   6.775  0.2297 -0.3210  0.5014
  230MOL0     C30292   9.830   5.552   6.663 -0.4144  0.0576  0.7412
  230MOL0     C30293   9.476   5.975   6.900  0.5993 -0.1968 -0.1048
  230MOL0     C30294   9.344   5.941   6.874  0.3576 -0.4527 -0.3047
  230MOL0     H30295   8.911   5.670   6.854  2.9663  0.7126  1.9777
  230MOL0     H30296   8.649   5.666   6.853  0.8045 -2.2467  2.4499
  230MOL0     H30297   8.403   5.739   6.895 -0.6338 -0.7115  1.1371
  230MOL0     H30298   8.484   5.883   6.939 -0.0123 -0.3105 -2.1522
  230MOL0     H30299   8.267   5.948   6.996  0.1109  0.7591  1.2737
  230MOL0     H30300   8.341   5.910   7.147  1.5181 -0.8861  0.1379
  230MOL0     H30301   8.245   5.675   7.151 -0.7465 -0.8687 -1.2374
  230MOL0     H30302   8.176   5.698   6.986  0.5913 -0.5528  0.7659
  230MOL0     H30303   8.083   5.831   7.248 -0.0008 -3.4606  1.0894
  230MOL0     H30304   8.032   5.877   7.084 -1.8075  0.6310  1.5765
  230MOL0     H30305   7.948   5.653   7.037  0.4939 -1.2251  0.5103
  230MOL0     H30306   7.876   5.736   7.171 -2.6432 -2.1160 -1.8681
  230MOL0     H30307   8.054   5.611   7.319 -1.2606  1.2020 -0.2966
  230MOL0     H30308   8.073   5.494   7.193  0.3120 -1.1370  3.0124
  230MOL0     H30309   7.816   5.484   7.192  1.9709  0.0292 -1.5846
  230MOL0     H30310   7.903   5.409   7.326 -1.4573  0.0133 -0.4363
  230MOL0     H30311   7.773   5.691   7.353 -2.1811 -1.3459 -1.7700
  230MOL0     H30312   7.844   5.587   7.486  1.2566  1.1252 -0.3236
  230MOL0     H30313   7.704   5.309   7.498 -1.1104 -0.2669  0.6959
  230MOL0     H30314   7.349   5.235   7.380 -0.0313 -1.3731  1.8570
  230MOL0     H30315   7.472   5.177   7.503  0.1818  0.0577  0.8348
  230MOL0     H30316   7.467   5.032   7.307 -0.2883 -1.3309 -0.0998
  230MOL0     H30317   7.620   5.114   7.345  0.0853 -1.2016  1.8258
  230MOL0     H30318   7.587   5.279   7.173  1.1922 -0.7859  2.5578
  230MOL0     H30319   7.575   5.109   7.107 -0.9853 -0.8252  0.7953
  230MOL0     H30320   7.418   5.218   6.995 -0.4770  0.2815 -0.3770
  230MOL0     H30321   7.332   5.289   7.142 -0.9913 -1.7810  1.8474
  230MOL0     H30322   7.197   5.248   6.936  2.6298 -0.0311  3.0243
  230MOL0     H30323   6.978   5.204   6.825  0.0256  0.2780  0.1893
  230MOL0     H30324   6.600   4.840   6.765 -2.4071 -1.1023  0.9259
  230MOL0     H30325   6.375   4.873   6.676 -1.4616  2.4613  2.4762
  230MOL0     H30326   6.382   5.008   6.313 -0.8862  1.1332 -2.6535
  230MOL0     H30327   6.360   5.173   6.347  3.0657 -1.0667  0.9701
  230MOL0     H30328   6.102   5.148   6.342 -1.3820 -1.2319 -0.2110
  230MOL0     H30329   6.129   4.972   6.307  1.1654 -1.1393 -2.5367
  230MOL0     H30330   6.236   4.999   6.114 -2.4049 -0.8589 -0.0531
  230MOL0     H30331   6.267   5.175   6.131 -1.8379  0.7926 -3.2198
  230MOL0     H30332   5.991   5.071   6.090 -1.5198  1.4655  1.4460
  230MOL0     H30333   6.050   5.239   6.106 -1.1344  0.6743 -2.6734
  230MOL0     H30334   6.031   5.084   5.862  0.7778  0.9897 -4.2040
  230MOL0     H30335   6.206   5.094   5.908 -1.0458  0.6056  1.0907
  230MOL0     H30336   6.187   5.335   5.922  0.0151  0.3495  0.2927
  230MOL0     H30337   6.010   5.329   5.880 -1.1147 -1.7707  0.1863
  230MOL0     H30338   6.094   5.218   5.661  2.4146  0.5191 -2.6031
  230MOL0     H30339   6.116   5.386   5.684 -1.8551  0.8894  4.5815
  230MOL0     H30340   6.339   5.171   5.747 -0.8609  0.2459  0.4243
  230MOL0     H30341   6.362   5.347   5.728 -0.8414  0.8275  1.9345
  230MOL0     H30342   6.509   5.236   6.493 -0.2632  0.3426  0.8913
  230MOL0     H30343   6.714   5.234   6.590 -1.1812  1.0974 -3.8029
  230MOL0     H30344   6.937   4.850   7.080 -0.5830 -0.4761 -1.2810
  230MOL0     H30345   7.172   4.866   7.152 -0.1649  0.2203  0.0711
  230MOL0     H30346   8.675   5.818   7.258 -0.0374  1.7783 -0.1639
  230MOL0     H30347   8.903   5.843   7.242  0.2454 -0.8976 -1.0329
  230MOL0     H30348   9.274   5.770   7.163  2.0509 -1.3010  1.0536
  230MOL0     H30349   9.515   5.835   7.205  2.9849 -0.7347 -1.4665
  230MOL0     H30350   9.707   5.791   7.119 -2.0128  0.0671 -0.1142
  230MOL0     H30351   9.778   5.928   7.206  0.1118  0.0940 -0.7429
  230MOL0     H30352   9.895   5.993   6.991  0.9636  0.5890  2.1889
  230MOL0     H30353   9.958   5.856   7.062  0.6049 -1.6348 -0.3862
  230MOL0     H30354   9.903   5.851   6.792 -2.7206  0.3778 -0.9572
  230MOL0     H30355   9.744   5.825   6.854 -0.3592 -0.5767  0.3968
  230MOL0     H30356   9.983   5.641   6.939 -0.8038  0.3479  4.0038
  230MOL0     H30357   9.812   5.625   6.975  2.6904 -0.4296  1.4933
  230MOL0     H30358   9.790   5.520   6.569 -0.1804  2.4718 -0.2463
  230MOL0     H30359   9.532   6.009   6.814 -1.8821 -2.0496 -2.6180
  230MOL0     H30360   9.299   5.981   6.784  1.2158  0.5633 -0.2972
  231MOL0     O30361   3.825   6.207   1.741  1.0127  1.3745 -0.2888
  231MOL0     C30362   3.853   6.274   1.835 -0.3483 -0.2393  0.5273
  231MOL0     O30363   3.788   6.389   1.888 -0.2802  0.3091 -0.1377
  231MOL0     C30364   3.667   6.425   1.831  0.6593  0.1734  0.3143
  231MOL0     C30365   3.644   6.561   1.810  0.3179  0.4041 -0.4090
  231MOL0     C30366   3.516   6.599   1.760  0.5243 -0.6345  0.2140
  231MOL0     C30367   3.408   6.509   1.757 -0.2245  0.1212  0.1844
  231MOL0     O30368   3.280   6.540   1.710  0.3067 -0.0888  0.1116
  231MOL0     C30369   3.248   6.686   1.700 -0.4652 -0.3650 -0.2733
  231MOL0     C30370   3.098   6.717   1.681  1.1177 -0.0392  0.3313
  231MOL0     C30371   3.013   6.693   1.804 -0.5899  0.2711  0.0268
  231MOL0     C30372   3.035   6.807   1.906 -0.1767  0.0303  0.6331
  231MOL0     C30373   2.921   6.793   2.006 -0.9583 -0.4038 -0.3498
  231MOL0     C30374   2.924   6.893   2.119  0.0131  0.1430  0.0526
  231MOL0     C30375   2.854   6.847   2.250  0.6018  0.4558  1.2632
  231MOL0     C30376   2.698   6.850   2.225 -0.0526  0.0225  0.0714
  231MOL0     N30377   2.627   6.808   2.342  0.2499  0.7311 -0.3851
  231MOL0     C30378   2.495   6.832   2.381 -0.5514  0.9545  0.8855
  231MOL0     C30379   2.470   6.752   2.486 -0.1947 -0.4783  0.7796
  231MOL0     C30380   2.346   6.758   2.571  0.2074  0.0457 -0.3110
  231MOL0     C30381   2.253   6.661   2.503  0.3099  0.6810 -0.2082
  231MOL0     C30382   2.116   6.654   2.567 -0.5526 -0.2031  0.0339
  231MOL0     C30383   2.012   6.563   2.493 -0.2065 -0.3783 -0.5990
  231MOL0     O30384   1.884   6.625   2.509 -0.7903 -0.4834  0.0219
  231MOL0     C30385   1.781   6.579   2.432 -0.1459 -0.4167  0.9630
  231MOL0     C30386   1.667   6.664   2.429 -0.0334  0.6777 -0.7060
  231MOL0     C30387   1.579   6.655   2.324  0.3493 -0.7415 -0.4255
  231MOL0     C30388   1.584   6.541   2.240 -0.2780  0.3670  0.2036
  231MOL0     C30389   1.500   6.524   2.114  0.8099 -0.0625  0.1073
  231MOL0     O30390   1.516   6.412   2.040 -0.5962  0.0202 -0.5752
  231MOL0     C30391   1.430   6.374   1.935 -0.0278  0.3510 -0.2324
  231MOL0     C30392   1.292   6.356   1.965  0.0475  0.2149  0.0488
  231MOL0     C30393   1.205   6.324   1.857  0.2193  1.3015  0.9873
  231MOL0     C30394   1.255   6.300   1.725  0.2412 -0.1116  0.3408
  231MOL0     O30395   1.168   6.286   1.617 -0.1399  1.1108 -0.1617
  231MOL0     C30396   1.019   6.302   1.639 -0.4744  0.4771  0.3377
  231MOL0     C30397   0.953   6.168   1.659 -0.9271  0.3050 -0.3348
  231MOL0     C30398   0.812   6.155   1.597 -0.0422  0.5078 -0.4452
  231MOL0     C30399   0.706   6.256   1.648  0.1477  0.5617 -0.6398
  231MOL0     C30400   0.568   6.230   1.607 -0.6300 -0.6137  0.3716
  231MOL0     C30401   0.475   6.336   1.665 -0.2441  0.3110 -0.1057
  231MOL0     C30402   0.331   6.280   1.651  0.2133 -0.8536 -0.1987
  231MOL0     C30403   0.243   6.333   1.756 -0.0320 -0.6154  1.2752
  231MOL0    Cl30404   0.080   6.271   1.714 -0.2399 -0.5224  0.3223
  231MOL0     C30405   1.385   6.321   1.702 -0.7510 -0.0188 -1.1685
  231MOL0     C30406   1.478   6.351   1.809 -0.4571 -0.2692  0.0992
  231MOL0     O30407   1.413   6.612   2.093 -0.3084 -0.1205 -0.3012
  231MOL0     C30408   1.688   6.450   2.262  0.3359  0.3259 -0.2411
  231MOL0     C30409   1.791   6.467   2.351 -0.1369  0.5071 -0.8479
  231MOL0     N30410   2.575   6.669   2.496 -0.3384 -0.4671 -0.4529
  231MOL0     N30411   2.677   6.713   2.428  0.2472  0.8795 -0.0823
  231MOL0     C30412   3.435   6.370   1.780  0.3894 -0.8392  0.4836
  231MOL0     C30413   3.565   6.333   1.816 -0.5428  0.7570  0.0556
  231MOL0     C30414   3.968   6.223   1.912 -0.2389 -0.5395  0.0476
  231MOL0     C30415   4.045   6.320   1.973  0.2834 -0.3929 -0.4621
  231MOL0     C30416   4.153   6.284   2.056 -0.1910  0.0418  0.9610
  231MOL0     C30417   4.186   6.147   2.068  0.2888  0.6697 -0.2179
  231MOL0     O30418   4.291   6.116   2.147  0.5279  0.7691  0.3809
  231MOL0     C30419   4.310   5.978   2.192  0.9324  0.3573 -0.2669
  231MOL0     C30420   4.203   5.946   2.299 -0.3515 -0.2163  0.6610
  231MOL0     C30421   4.216   6.028   2.423  0.2818  0.7486 -0.2777
  231MOL0     C30422   4.077   6.033   2.492 -0.8544  0.6410 -0.5302
  231MOL0     C30423   3.973   6.087   2.409 -0.0663  0.0123 -0.1349
  231MOL0     C30424   3.890   6.122   2.335 -0.0226  0.2585  0.3280
  231MOL0     C30425   4.114   6.055   1.994 -0.2909  0.7979  0.6852
  231MOL0     C30426   4.004   6.093   1.913  1.1926  0.4703 -1.2369
  231MOL0     H30427   3.720   6.639   1.811  1.0133 -0.2166 -1.8112
  231MOL0     H30428   3.516   6.703   1.732 -0.0050 -0.5828  0.3987
  231MOL0     H30429   3.296   6.723   1.609  0.1701  3.6010  1.4631
  231MOL0     H30430   3.280   6.748   1.785 -0.3264 -0.2326 -0.4210
  231MOL0     H30431   3.066   6.651   1.600  2.4846 -0.3662  0.0358
  231MOL0     H30432   3.081   6.820   1.648  2.3653  0.7826  2.0845
  231MOL0     H30433   3.039   6.602   1.860  3.0422  0.1972 -1.5089
  231MOL0     H30434   2.909   6.682   1.773 -0.7226 -0.1075  0.5935
  231MOL0     H30435   3.133   6.803   1.955  1.4622  1.9155 -2.2294
  231MOL0     H30436   3.030   6.907   1.862 -2.7717  0.4672  1.7277
  231MOL0     H30437   2.919   6.692   2.048  2.0072 -0.6470 -0.5865
  231MOL0     H30438   2.823   6.815   1.961 -1.2675 -0.1095  0.4573
  231MOL0     H30439   2.872   6.987   2.099 -1.6175 -0.3924  1.4945
  231MOL0     H30440   3.029   6.912   2.142  0.5924  0.1817 -2.3454
  231MOL0     H30441   2.899   6.752   2.283 -0.2632 -2.2462 -4.1597
  231MOL0     H30442   2.880   6.917   2.330 -0.9592  3.1383 -0.4347
  231MOL0     H30443   2.672   6.791   2.136 -2.7182  2.8478 -1.2393
  231MOL0     H30444   2.665   6.953   2.214 -1.4806 -0.4256 -0.1141
  231MOL0     H30445   2.433   6.916   2.352 -0.2170  1.4247  1.5100
  231MOL0     H30446   2.309   6.861   2.576 -3.0156 -0.9573 -0.6969
  231MOL0     H30447   2.366   6.728   2.674  0.3178  0.7290 -0.1299
  231MOL0     H30448   2.296   6.561   2.497 -2.3032 -0.4494 -3.6176
  231MOL0     H30449   2.242   6.689   2.398  0.3063 -0.4331 -0.5162
  231MOL0     H30450   2.136   6.605   2.662 -0.4276 -0.0602  0.0821
  231MOL0     H30451   2.079   6.756   2.580 -3.0398 -0.7587 -1.7586
  231MOL0     H30452   2.021   6.459   2.527  2.3386  0.4408  1.5990
  231MOL0     H30453   2.036   6.569   2.386  1.5343  1.8145 -0.1489
  231MOL0     H30454   1.674   6.750   2.495  3.2830  0.3855 -0.5300
  231MOL0     H30455   1.515   6.742   2.315  0.5347 -0.4490  0.8494
  231MOL0     H30456   1.251   6.362   2.065  0.4090  1.2196  0.1504
  231MOL0     H30457   1.104   6.303   1.889  1.0663 -1.4268  2.1340
  231MOL0     H30458   0.984   6.332   1.539  1.8493  0.5365 -0.5285
  231MOL0     H30459   0.994   6.389   1.699  0.6758  1.6868 -0.8558
  231MOL0     H30460   0.939   6.145   1.765  1.1711 -0.8462 -0.2480
  231MOL0     H30461   1.008   6.085   1.614 -0.4514 -1.8413  3.7114
  231MOL0     H30462   0.782   6.054   1.625  0.6206 -0.3937 -2.7360
  231MOL0     H30463   0.806   6.167   1.489  1.2799 -1.5670 -0.8125
  231MOL0     H30464   0.696   6.249   1.757 -0.9353 -1.2047 -0.8008
  231MOL0     H30465   0.732   6.359   1.625 -1.4289  1.8882  2.7595
  231MOL0     H30466   0.537   6.127   1.629 -0.4967 -1.1703 -1.7782
  231MOL0     H30467   0.563   6.255   1.500 -0.9152 -0.8149  0.3353
  231MOL0     H30468   0.474   6.434   1.616 -3.9689  0.2218 -0.5033
  231MOL0     H30469   0.490   6.343   1.773 -1.5149 -1.7382  0.2735
  231MOL0     H30470   0.293   6.304   1.552 -1.8435 -0.1990  0.6859
  231MOL0     H30471   0.330   6.171   1.659  1.5251 -0.9812 -1.3459
  231MOL0     H30472   0.239   6.441   1.772  3.1678 -0.1316 -0.3974
  231MOL0     H30473   0.278   6.286   1.848  0.6093 -0.0838  1.3102
  231MOL0     H30474   1.432   6.313   1.604  0.6391  0.6507 -0.5986
  231MOL0     H30475   1.585   6.349   1.793 -0.5559  1.4980 -0.9823
  231MOL0     H30476   1.699   6.367   2.192  1.5103 -0.5887  0.9637
  231MOL0     H30477   1.880   6.404   2.363 -0.0235  1.0114  1.3201
  231MOL0     H30478   3.355   6.298   1.777 -0.3634  0.0183 -0.3644
  231MOL0     H30479   3.589   6.232   1.849 -0.2066  0.7548 -0.1948
  231MOL0     H30480   4.013   6.423   1.967 -0.1856 -0.6030 -2.4767
  231MOL0     H30481   4.195   6.359   2.122  2.3718 -0.0437 -0.4488
  231MOL0     H30482   4.410   5.969   2.237  0.7617 -1.7096 -0.2321
  231MOL0     H30483   4.298   5.911   2.107 -3.2862 -2.5954  2.2951
  231MOL0     H30484   4.104   5.956   2.254  0.4978  2.4921 -0.8590
  231MOL0     H30485   4.213   5.842   2.329 -4.6791 -0.9985 -0.0562
  231MOL0     H30486   4.244   6.130   2.396  1.4570 -0.2517 -3.3479
  231MOL0     H30487   4.287   5.978   2.489 -0.9597  0.8064  1.1477
  231MOL0     H30488   4.056   5.934   2.534  2.1916 -0.6058 -1.6568
  231MOL0     H30489   4.090   6.093   2.583  1.1843 -0.3514 -0.1211
  231MOL0     H30490   3.821   6.173   2.272  1.1347  0.3978 -0.8790
  231MOL0     H30491   4.123   5.947   1.995 -1.0677  0.4701 -4.1260
  231MOL0     H30492   3.933   6.020   1.873  1.1171  0.5967 -1.3334
  232MOL0     O30493   0.365   4.721  10.539  0.9288  0.3533 -0.3804
  232MOL0     C30494   0.312   4.615  10.503 -0.2848 -0.1851  0.1502
  232MOL0     O30495   0.385   4.511  10.446 -0.7132 -0.4902  0.3056
  232MOL0     C30496   0.521   4.511  10.467 -0.5723 -0.2808 -1.1178
  232MOL0     C30497   0.603   4.585  10.379 -0.0951 -0.9470  0.8271
  232MOL0     C30498   0.742   4.553  10.369  0.3612 -0.0909 -0.1802
  232MOL0     C30499   0.804   4.468  10.461 -0.6559 -0.2024 -0.5481
  232MOL0     O30500   0.934   4.451  10.473  0.0311 -0.6706 -0.1244
  232MOL0     C30501   1.002   4.446  10.599 -0.9289  0.7076  1.4734
  232MOL0     C30502   1.161   4.441  10.599  0.3384  0.4059 -0.2586
  232MOL0     C30503   1.229   4.501  10.472 -0.3348  0.2806  0.5907
  232MOL0     C30504   1.379   4.525  10.479  0.1130  0.0451 -0.8690
  232MOL0     C30505   1.441   4.573  10.342 -0.1417 -0.5825  0.0884
  232MOL0     C30506   1.428   4.726  10.317  0.0323 -0.3811  0.3327
  232MOL0     C30507   1.467   4.735  10.164 -0.2960  1.0599  0.5744
  232MOL0     C30508   1.416   4.864  10.085 -0.7574 -0.2623 -0.1336
  232MOL0     N30509   1.279   4.913  10.110 -0.3126  0.1140 -0.3203
  232MOL0     C30510   1.169   4.832  10.081 -0.3324 -0.3836 -0.3090
  232MOL0     C30511   1.066   4.894  10.148  0.2030  0.2624  1.2478
  232MOL0     C30512   0.919   4.853  10.157 -0.1982  0.1933 -0.0042
  232MOL0     C30513   0.819   4.959  10.181  0.6372 -0.8927 -0.4634
  232MOL0     C30514   0.744   4.999  10.052 -0.2004  0.0187  0.0317
  232MOL0     C30515   0.647   4.891  10.009  0.3889 -0.6539  0.0604
  232MOL0     O30516   0.556   4.839  10.105  0.2229 -0.2182  0.1456
  232MOL0     C30517   0.427   4.805  10.054  0.3964 -0.2834 -0.4309
  232MOL0     C30518   0.337   4.822  10.154  0.4654  0.4119  0.7944
  232MOL0     C30519   0.200   4.794  10.127  0.4735 -0.5356  0.6508
  232MOL0     C30520   0.166   4.748  10.001 -0.1027  0.0632 -0.4586
  232MOL0     C30521   0.023   4.720   9.973 -0.9890  0.4356 -0.8261
  232MOL0     O30522  -0.072   4.807  10.020  0.5251  0.4796  0.0099
  232MOL0     C30523  -0.200   4.780  10.008 -0.1282 -1.1965 -0.0524
  232MOL0     C30524  -0.255   4.853   9.899  0.3235 -0.4504  0.6198
  232MOL0     C30525  -0.392   4.823   9.869  0.3434 -0.0523  0.7431
  232MOL0     C30526  -0.464   4.735   9.947 -0.1116  0.2730  0.7308
  232MOL0     O30527  -0.602   4.733   9.921  0.0138  0.3954  0.6220
  232MOL0     C30528  -0.707   4.691  10.007  0.4036 -0.5984 -0.1374
  232MOL0     C30529  -0.717   4.538   9.993 -0.4243 -0.1358 -1.0095
  232MOL0     C30530  -0.815   4.481  10.098 -0.2121 -0.5629 -0.4566
  232MOL0     C30531  -0.900   4.355  10.045 -0.4121 -0.8652 -0.8143
  232MOL0     C30532  -1.027   4.377   9.955 -0.2020  0.3465 -0.1450
  232MOL0     C30533  -1.160   4.376  10.035 -0.6892 -0.1935 -0.7767
  232MOL0     C30534  -1.195   4.231  10.081 -0.0540  0.3569  0.3953
  232MOL0     C30535  -1.325   4.235  10.170  0.3227  0.5425  0.1863
  232MOL0    Cl30536  -1.303   4.276  10.350  0.0180  0.0041 -0.2427
  232MOL0     C30537  -0.407   4.677  10.058 -0.6835  0.6054  0.0551
  232MOL0     C30538  -0.269   4.685  10.081  0.1955  0.5869  0.4084
  232MOL0     O30539   0.002   4.622   9.900  1.2554  0.0880  0.6483
  232MOL0     C30540   0.260   4.736   9.901  0.9274  0.3238 -0.1714
  232MOL0     C30541   0.389   4.759   9.926 -0.9934 -1.0106  0.2689
  232MOL0     N30542   1.117   4.989  10.230  0.0948 -1.0486  0.8711
  232MOL0     N30543   1.248   5.009  10.200  0.5562 -1.1626  0.1838
  232MOL0     C30544   0.724   4.404  10.546  1.2370  0.0269 -0.3652
  232MOL0     C30545   0.591   4.428  10.557  0.3257  0.5128  0.1339
  232MOL0     C30546   0.158   4.619  10.497 -0.2017 -0.0902  0.3113
  232MOL0     C30547   0.088   4.507  10.467 -0.3969  0.4288 -1.6324
  232MOL0     C30548  -0.056   4.512  10.469 -1.3629  0.1398 -0.2787
  232MOL0     C30549  -0.124   4.627  10.502 -0.0718 -0.2481  0.2592
  232MOL0     O30550  -0.261   4.607  10.509  0.0682 -0.2759  0.7911
  232MOL0     C30551  -0.350   4.703  10.453  0.3781  0.7173 -1.2790
  232MOL0     C30552  -0.491   4.644  10.473  0.3501  0.2906  0.3574
  232MOL0     C30553  -0.604   4.748  10.460 -0.0863  0.3477 -0.1410
  232MOL0     C30554  -0.741   4.685  10.448 -0.1038  0.2755 -0.7598
  232MOL0     C30555  -0.843   4.740  10.543  0.3922 -0.3115 -0.9080
  232MOL0     C30556  -0.927   4.787  10.623 -0.2065  0.1893 -0.4283
  232MOL0     C30557  -0.053   4.739  10.515  0.9066 -0.4324 -0.8693
  232MOL0     C30558   0.087   4.737  10.516  0.3008 -0.4513 -0.3493
  232MOL0     H30559   0.573   4.650  10.298 -0.4175 -0.9419  0.9519
  232MOL0     H30560   0.800   4.613  10.299 -0.8307  1.4055  0.0657
  232MOL0     H30561   0.972   4.348  10.638  0.3623 -1.7136 -2.8711
  232MOL0     H30562   0.967   4.530  10.660 -0.9588 -0.6926  3.4772
  232MOL0     H30563   1.180   4.334  10.611  0.6820  0.2000 -2.3724
  232MOL0     H30564   1.209   4.491  10.684  3.6292  0.9091 -2.2428
  232MOL0     H30565   1.186   4.600  10.458 -2.3584 -0.4986  0.8339
  232MOL0     H30566   1.198   4.444  10.384 -2.0478  3.6625 -1.1674
  232MOL0     H30567   1.395   4.609  10.547 -2.8837  3.2138 -3.6790
  232MOL0     H30568   1.421   4.429  10.513 -2.4886 -0.5485  0.9263
  232MOL0     H30569   1.371   4.532  10.270 -0.6518  1.2253 -0.5056
  232MOL0     H30570   1.544   4.542  10.321  0.5858  1.0096  1.0797
  232MOL0     H30571   1.495   4.788  10.377  2.7253 -2.7738  0.0286
  232MOL0     H30572   1.332   4.764  10.353 -0.6494 -0.0490 -1.7371
  232MOL0     H30573   1.573   4.711  10.156 -0.4464 -1.5245  4.0433
  232MOL0     H30574   1.418   4.651  10.113  2.4645  1.1660 -2.5770
  232MOL0     H30575   1.433   4.860   9.977  1.1278  1.2639  0.0524
  232MOL0     H30576   1.487   4.937  10.124 -0.0879 -2.4032  2.9772
  232MOL0     H30577   1.169   4.736  10.031 -1.7776 -0.5824  0.0433
  232MOL0     H30578   0.907   4.777  10.235  1.5016  0.0459  0.1626
  232MOL0     H30579   0.910   4.807  10.058  0.9864  0.8865 -0.4533
  232MOL0     H30580   0.864   5.050  10.220 -0.2788 -0.1169 -1.1694
  232MOL0     H30581   0.744   4.926  10.253 -0.4048 -2.2147 -2.0712
  232MOL0     H30582   0.686   5.090  10.071  0.6339  0.2267  1.7044
  232MOL0     H30583   0.810   5.022   9.968  2.0853  1.6545  2.1336
  232MOL0     H30584   0.714   4.814   9.970  1.6416  1.0401 -1.2653
  232MOL0     H30585   0.593   4.925   9.919  0.4056  0.1612  0.3500
  232MOL0     H30586   0.363   4.865  10.250  0.8149 -2.5299  2.1254
  232MOL0     H30587   0.123   4.804  10.203 -0.6537  1.2796 -0.6657
  232MOL0     H30588  -0.209   4.917   9.825  1.7789 -0.8132  1.1751
  232MOL0     H30589  -0.441   4.859   9.779 -2.8634  1.7025  2.9805
  232MOL0     H30590  -0.797   4.730   9.959  0.4095 -3.1891 -2.5003
  232MOL0     H30591  -0.693   4.745  10.101  0.5517  0.5354 -0.7941
  232MOL0     H30592  -0.617   4.495  10.007 -1.7899 -2.4928  3.5109
  232MOL0     H30593  -0.761   4.512   9.896 -4.4696 -1.5480  0.9522
  232MOL0     H30594  -0.883   4.563  10.122  2.3743  1.2260  1.2476
  232MOL0     H30595  -0.766   4.469  10.195  1.0322 -0.1870 -1.0189
  232MOL0     H30596  -0.825   4.299   9.989  1.1271  1.5416 -1.3344
  232MOL0     H30597  -0.927   4.295  10.132 -0.6308 -0.8116 -0.8451
  232MOL0     H30598  -1.043   4.295   9.884  0.8908  2.3117 -2.8203
  232MOL0     H30599  -1.019   4.478   9.913 -3.2045  0.7373 -0.0019
  232MOL0     H30600  -1.236   4.422   9.970  0.6459 -0.0711 -2.3000
  232MOL0     H30601  -1.147   4.435  10.126  5.3048  1.1272 -2.0710
  232MOL0     H30602  -1.217   4.166   9.996 -0.6465  0.4812  0.4435
  232MOL0     H30603  -1.112   4.190  10.139  0.3058  1.0977  0.4237
  232MOL0     H30604  -1.359   4.132  10.167 -1.2923  1.0448  0.5039
  232MOL0     H30605  -1.411   4.293  10.136  0.4047  0.5466 -0.0152
  232MOL0     H30606  -0.467   4.604  10.112  2.5703 -1.8544  0.6417
  232MOL0     H30607  -0.217   4.622  10.153 -1.7043 -2.4687 -0.7290
  232MOL0     H30608   0.234   4.714   9.798 -1.2372 -0.6559  0.5243
  232MOL0     H30609   0.451   4.760   9.836 -2.3369  3.2935 -0.8355
  232MOL0     H30610   0.767   4.329  10.611 -3.1429 -2.1271  0.3963
  232MOL0     H30611   0.546   4.369  10.636  0.3661 -2.3462 -1.8478
  232MOL0     H30612   0.148   4.417  10.467 -1.0889 -0.0661 -0.2443
  232MOL0     H30613  -0.107   4.418  10.454  1.9068 -2.2452  2.1242
  232MOL0     H30614  -0.327   4.711  10.346 -0.2215  0.3061 -1.4465
  232MOL0     H30615  -0.339   4.800  10.502 -6.3002  1.0480  0.5952
  232MOL0     H30616  -0.511   4.565  10.400  0.3845  0.4809  0.1382
  232MOL0     H30617  -0.500   4.604  10.574 -3.8908  1.9311  0.8473
  232MOL0     H30618  -0.584   4.805  10.369 -0.9497 -1.7855 -1.7595
  232MOL0     H30619  -0.593   4.820  10.542  1.9912 -0.3130  0.2218
  232MOL0     H30620  -0.779   4.708  10.348 -0.0063  0.5115 -0.7419
  232MOL0     H30621  -0.736   4.575  10.444  0.8884  0.1066  2.1801
  232MOL0     H30622  -1.001   4.825  10.690  0.5031  0.4892  0.1980
  232MOL0     H30623  -0.106   4.829  10.546  1.3370 -1.4739  3.5388
  232MOL0     H30624   0.131   4.835  10.531 -3.2881  1.2438  0.3329
  233MOL0     O30625   1.283   1.822  11.222  0.2720  0.0255  0.1497
  233MOL0     C30626   1.382   1.814  11.146 -0.1003  0.0564 -0.0055
  233MOL0     O30627   1.394   1.722  11.047  0.5786 -0.5762  0.1595
  233MOL0     C30628   1.294   1.630  11.004 -1.0876 -0.0600  0.2970
  233MOL0     C30629   1.314   1.574  10.874 -0.4560  0.5028 -1.4687
  233MOL0     C30630   1.223   1.484  10.820  0.3419  0.5341 -1.3612
  233MOL0     C30631   1.103   1.445  10.887  0.1820 -0.0533 -0.0910
  233MOL0     O30632   1.016   1.365  10.826 -0.5567 -0.5756 -0.2657
  233MOL0     C30633   0.881   1.384  10.869  1.4850 -0.3706 -0.3238
  233MOL0     C30634   0.785   1.297  10.775 -0.2309  0.8360 -0.2755
  233MOL0     C30635   0.641   1.324  10.817 -0.6524  0.4427  0.4134
  233MOL0     C30636   0.549   1.233  10.738  0.2824 -0.3024  0.1317
  233MOL0     C30637   0.458   1.147  10.821  0.0959  0.3883 -0.1455
  233MOL0     C30638   0.367   1.068  10.722 -1.1635 -0.8299  0.3298
  233MOL0     C30639   0.280   0.954  10.776 -0.8901 -0.6271  0.8593
  233MOL0     C30640   0.164   1.014  10.857 -0.0417  0.6159  0.1893
  233MOL0     N30641   0.165   0.973  10.999 -0.4194  0.7093 -0.2348
  233MOL0     C30642   0.227   1.047  11.094 -0.1104 -0.5724 -0.4343
  233MOL0     C30643   0.224   0.969  11.207  0.6092 -0.1753  0.2362
  233MOL0     C30644   0.284   0.990  11.354  0.8065 -0.1977 -0.1273
  233MOL0     C30645   0.422   0.923  11.362  0.5448 -0.2081 -0.1778
  233MOL0     C30646   0.508   0.939  11.234 -0.1295 -0.2992  0.0113
  233MOL0     C30647   0.655   0.910  11.240 -0.4880 -0.6470 -0.0232
  233MOL0     O30648   0.721   1.018  11.305  0.1892  0.0376 -0.4018
  233MOL0     C30649   0.849   1.045  11.274 -0.3893 -0.1834  0.4968
  233MOL0     C30650   0.936   1.091  11.374  0.5684 -0.1626 -0.4926
  233MOL0     C30651   1.069   1.121  11.345  0.7180 -0.5063 -0.3007
  233MOL0     C30652   1.116   1.126  11.208  0.2046  0.1756 -0.9830
  233MOL0     C30653   1.249   1.173  11.183 -0.9337  0.5203  0.1300
  233MOL0     O30654   1.317   1.252  11.275 -0.0472  0.3526  0.1023
  233MOL0     C30655   1.439   1.309  11.244 -0.1536  0.2661 -0.3845
  233MOL0     C30656   1.494   1.333  11.113 -0.0984 -0.8848 -0.5380
  233MOL0     C30657   1.622   1.408  11.098  0.4903  0.3273  1.1729
  233MOL0     C30658   1.691   1.445  11.204  0.5814  0.0109 -0.5068
  233MOL0     O30659   1.810   1.509  11.200  0.1378  1.2179 -0.1044
  233MOL0     C30660   1.843   1.589  11.091  0.5947  1.0159 -0.3860
  233MOL0     C30661   1.944   1.700  11.125 -0.7286 -0.0677  0.5385
  233MOL0     C30662   2.089   1.645  11.105  1.0774  0.3694 -0.0410
  233MOL0     C30663   2.184   1.765  11.102  0.1912  0.8358  0.1346
  233MOL0     C30664   2.329   1.719  11.085 -0.2082 -0.0734  0.8817
  233MOL0     C30665   2.427   1.829  11.114 -0.2488 -0.1214  0.0894
  233MOL0     C30666   2.573   1.779  11.129 -0.2216 -0.1389  1.2973
  233MOL0     C30667   2.665   1.884  11.189  0.1657 -0.3692 -1.1009
  233MOL0    Cl30668   2.651   2.054  11.152  0.0552 -0.2957  0.0626
  233MOL0     C30669   1.642   1.410  11.331  0.1818  0.0096 -0.3683
  233MOL0     C30670   1.512   1.357  11.356  0.0767  0.9863 -0.0686
  233MOL0     O30671   1.293   1.143  11.077 -0.4824 -0.0534 -0.5648
  233MOL0     C30672   1.018   1.093  11.111 -0.1439  0.2805  0.2218
  233MOL0     C30673   0.890   1.050  11.137 -0.1887 -0.7161 -1.2679
  233MOL0     N30674   0.176   0.846  11.172  0.7284 -0.3087 -0.2731
  233MOL0     N30675   0.132   0.852  11.044 -0.1404  0.2421 -0.3430
  233MOL0     C30676   1.080   1.509  11.009 -0.2741 -0.3170  0.4698
  233MOL0     C30677   1.173   1.600  11.060 -0.6407  0.1154 -1.3911
  233MOL0     C30678   1.493   1.915  11.171 -0.9057 -0.4235 -0.1103
  233MOL0     C30679   1.613   1.910  11.105 -0.3354 -0.1260 -0.2127
  233MOL0     C30680   1.719   1.995  11.138  0.5094  0.3926  0.1823
  233MOL0     C30681   1.708   2.097  11.230  0.0717  0.5214  1.2252
  233MOL0     O30682   1.803   2.189  11.261 -0.5880 -0.2858  0.2030
  233MOL0     C30683   1.774   2.272  11.381 -0.1377 -0.3978  0.1918
  233MOL0     C30684   1.887   2.374  11.406 -0.1382 -0.3207  0.3049
  233MOL0     C30685   1.851   2.454  11.528 -0.8486 -0.5239 -0.6828
  233MOL0     C30686   1.938   2.570  11.549 -0.2314 -0.0881 -0.6850
  233MOL0     C30687   2.078   2.528  11.573  0.1298  1.0719 -0.0798
  233MOL0     C30688   2.191   2.484  11.566  0.7046  1.0203  0.8649
  233MOL0     C30689   1.584   2.088  11.313 -1.2527  0.4727  0.1112
  233MOL0     C30690   1.478   2.002  11.276  0.1598 -0.7957 -0.0503
  233MOL0     H30691   1.411   1.609  10.840 -0.6253 -0.5869 -3.2320
  233MOL0     H30692   1.251   1.447  10.722 -1.3469 -2.0797 -0.9382
  233MOL0     H30693   0.851   1.489  10.868  2.9057  0.0741 -2.0428
  233MOL0     H30694   0.857   1.345  10.968 -0.5669  0.4132 -0.4621
  233MOL0     H30695   0.805   1.192  10.799 -1.8656  1.1609  3.0878
  233MOL0     H30696   0.805   1.317  10.669  2.7627  0.3573  0.0981
  233MOL0     H30697   0.607   1.425  10.795 -5.3258 -0.2856  2.9702
  233MOL0     H30698   0.621   1.306  10.923  0.0389 -0.7970  0.3527
  233MOL0     H30699   0.488   1.293  10.670  0.4462 -1.7395 -1.3324
  233MOL0     H30700   0.605   1.175  10.664 -1.9647 -0.0403 -1.8927
  233MOL0     H30701   0.398   1.204  10.893 -0.9046 -0.7862 -0.0244
  233MOL0     H30702   0.518   1.074  10.877 -2.3493 -2.0749 -0.5059
  233MOL0     H30703   0.432   1.034  10.640  0.3881  2.5835 -0.0593
  233MOL0     H30704   0.298   1.141  10.679  0.0812  0.0579 -0.2458
  233MOL0     H30705   0.236   0.919  10.682  0.8566  0.7874 -0.5593
  233MOL0     H30706   0.332   0.874  10.830  0.7437  1.5901  2.7901
  233MOL0     H30707   0.066   0.976  10.824 -0.8920 -1.0626  4.0709
  233MOL0     H30708   0.163   1.122  10.843 -1.9683  0.5113 -0.8521
  233MOL0     H30709   0.263   1.149  11.086 -1.1355 -0.1337  0.4793
  233MOL0     H30710   0.220   0.946  11.431 -1.5989  0.8172 -1.4445
  233MOL0     H30711   0.301   1.097  11.369  0.4823 -0.4427  2.4678
  233MOL0     H30712   0.405   0.815  11.361 -0.5056 -0.0911 -2.4903
  233MOL0     H30713   0.475   0.946  11.455  0.1202 -2.3797  0.6612
  233MOL0     H30714   0.461   0.878  11.156 -0.0501 -0.3815  0.0269
  233MOL0     H30715   0.504   1.044  11.202 -2.8328 -0.4918 -0.5401
  233MOL0     H30716   0.698   0.879  11.144  0.0199 -0.5265  0.1606
  233MOL0     H30717   0.665   0.820  11.301 -0.5050 -2.1459 -2.1102
  233MOL0     H30718   0.894   1.100  11.473  1.0691 -3.2553  0.0943
  233MOL0     H30719   1.135   1.160  11.422 -1.6538  2.9584  0.1984
  233MOL0     H30720   1.438   1.309  11.023 -1.2501 -2.8596  0.6229
  233MOL0     H30721   1.663   1.442  11.003 -1.9040 -2.0079 -0.9045
  233MOL0     H30722   1.755   1.644  11.057 -1.5111 -0.6087  2.1142
  233MOL0     H30723   1.883   1.529  11.008 -2.0886 -1.5531  0.0228
  233MOL0     H30724   1.934   1.730  11.229 -0.5648  6.2582 -0.9068
  233MOL0     H30725   1.935   1.792  11.068  0.0938 -0.9329 -1.0669
  233MOL0     H30726   2.108   1.584  11.017  1.7668 -4.3541  2.9780
  233MOL0     H30727   2.120   1.579  11.187  3.7556 -1.4352 -2.3190
  233MOL0     H30728   2.173   1.835  11.018  2.8369  1.3641  0.1639
  233MOL0     H30729   2.172   1.814  11.199  4.1342 -0.9367  1.7161
  233MOL0     H30730   2.348   1.698  10.979  0.8754  0.6577  0.9157
  233MOL0     H30731   2.353   1.628  11.142 -0.1483 -1.2918 -0.9789
  233MOL0     H30732   2.387   1.881  11.202 -1.3809 -0.7004 -0.0651
  233MOL0     H30733   2.428   1.899  11.030 -0.1970 -2.8602 -2.3526
  233MOL0     H30734   2.586   1.688  11.189  0.6883 -0.8396  0.1016
  233MOL0     H30735   2.613   1.761  11.028  1.4682  1.9964  1.5241
  233MOL0     H30736   2.769   1.854  11.177  0.9368  0.6115  2.0886
  233MOL0     H30737   2.646   1.880  11.297 -0.2418  0.1273 -1.1533
  233MOL0     H30738   1.684   1.451  11.423  1.8364  1.3526 -1.6517
  233MOL0     H30739   1.482   1.341  11.459  0.4068  1.6574  0.1361
  233MOL0     H30740   1.046   1.103  11.006  5.2213  1.4305  1.4500
  233MOL0     H30741   0.832   1.015  11.053 -1.8245 -3.8426  0.9777
  233MOL0     H30742   0.995   1.481  11.070 -1.3548 -0.1213 -0.8787
  233MOL0     H30743   1.142   1.655  11.148 -1.7795  0.9493 -2.2787
  233MOL0     H30744   1.628   1.840  11.023  3.0546  1.0087 -0.6851
  233MOL0     H30745   1.814   1.980  11.089  0.0164  3.2245 -1.8866
  233MOL0     H30746   1.784   2.210  11.471  2.0070  3.0985  2.5947
  233MOL0     H30747   1.678   2.324  11.376  0.6690  1.2781  1.3163
  233MOL0     H30748   1.985   2.326  11.411  0.1602  0.3133  0.6424
  233MOL0     H30749   1.885   2.440  11.319  3.1671  0.6875  0.8717
  233MOL0     H30750   1.862   2.384  11.611 -1.3388  1.0207  0.7232
  233MOL0     H30751   1.750   2.494  11.516 -0.6196  0.3126  0.0751
  233MOL0     H30752   1.931   2.649  11.473 -0.9436 -0.6932 -1.2574
  233MOL0     H30753   1.906   2.616  11.643  0.0001  0.8100 -1.0358
  233MOL0     H30754   2.285   2.433  11.566  0.2555  0.1501  0.2260
  233MOL0     H30755   1.571   2.141  11.406 -1.2960  1.0435 -0.2134
  233MOL0     H30756   1.384   1.998  11.332 -0.2695 -0.6159 -0.7550
  234MOL0     O30757   3.326   9.992  10.380  0.8819  0.0101  0.1497
  234MOL0     C30758   3.332  10.116  10.392  0.7308  1.0520  0.2399
  234MOL0     O30759   3.226  10.201  10.432 -0.5431 -0.0327 -0.0590
  234MOL0     C30760   3.095  10.152  10.466 -0.2343  0.5912  0.6627
  234MOL0     C30761   3.030  10.223  10.568  0.6599  0.4484 -0.6901
  234MOL0     C30762   2.922  10.154  10.636 -0.2161 -0.6163  0.2729
  234MOL0     C30763   2.876  10.035  10.595 -0.5436  0.4541  1.0704
  234MOL0     O30764   2.762   9.977  10.651 -0.6381  0.1330 -0.2640
  234MOL0     C30765   2.653   9.928  10.569  1.0703 -0.4331  0.2456
  234MOL0     C30766   2.633  10.007  10.435 -0.1734  0.9990  0.2337
  234MOL0     C30767   2.481  10.036  10.400 -0.6225 -0.1772 -0.4124
  234MOL0     C30768   2.394   9.920  10.388  0.2470  0.1894  0.6549
  234MOL0     C30769   2.293   9.946  10.280 -0.1182 -0.4062 -0.5648
  234MOL0     C30770   2.151   9.886  10.302 -0.1092  0.2134 -0.1331
  234MOL0     C30771   2.045   9.939  10.205  0.2253  0.5478  0.0158
  234MOL0     C30772   1.991  10.071  10.236 -0.2285  0.5086  0.6314
  234MOL0     N30773   1.863  10.098  10.153 -1.2177 -0.2283  0.2542
  234MOL0     C30774   1.864  10.117  10.014 -0.3074  0.5807 -0.4197
  234MOL0     C30775   1.732  10.112   9.983 -0.0284  0.3589 -0.2104
  234MOL0     C30776   1.682  10.140   9.844 -0.1666 -0.3846  0.0678
  234MOL0     C30777   1.548  10.081   9.809 -0.3304  0.0969  0.7623
  234MOL0     C30778   1.492  10.139   9.680  0.6441 -0.3067  0.7683
  234MOL0     C30779   1.359  10.071   9.633 -1.5390  0.6623  0.2001
  234MOL0     O30780   1.258  10.059   9.731  0.8748  0.6249 -0.7491
  234MOL0     C30781   1.123  10.048   9.709  0.4584 -0.0303  0.3696
  234MOL0     C30782   1.040  10.090   9.815  1.5705 -0.1677 -0.7133
  234MOL0     C30783   0.903  10.088   9.787  0.8044 -0.0943  0.7674
  234MOL0     C30784   0.847  10.039   9.669 -1.1198 -0.1220  0.4466
  234MOL0     C30785   0.692  10.028   9.650  0.9581 -0.1615  0.1532
  234MOL0     O30786   0.613  10.073   9.745 -0.5542 -0.1568 -0.6711
  234MOL0     C30787   0.475  10.065   9.726 -0.8306 -0.0993 -0.1259
  234MOL0     C30788   0.413   9.958   9.790 -0.8127  0.3841 -0.1154
  234MOL0     C30789   0.276   9.933   9.788  0.1810  0.1097  0.6228
  234MOL0     C30790   0.194  10.023   9.712  0.2932  0.0268 -0.4733
  234MOL0     O30791   0.057  10.004   9.707  0.1318 -0.2996 -0.5047
  234MOL0     C30792  -0.011  10.045   9.589 -0.4066  0.1572 -0.3316
  234MOL0     C30793  -0.157   9.981   9.588  0.1221  0.0603  0.3622
  234MOL0     C30794  -0.179   9.853   9.504  0.1474  0.0977 -1.0682
  234MOL0     C30795  -0.315   9.798   9.513  0.5551 -0.1231  0.3619
  234MOL0     C30796  -0.361   9.748   9.371  0.2110  1.0178 -0.1218
  234MOL0     C30797  -0.272   9.635   9.314  0.6942  0.0517 -0.5420
  234MOL0     C30798  -0.268   9.519   9.405 -0.0864  0.4242  0.1709
  234MOL0     C30799  -0.182   9.412   9.333  0.1114  0.0361 -0.0355
  234MOL0    Cl30800  -0.003   9.451   9.351  0.4148  0.1533  0.6024
  234MOL0     C30801   0.261  10.118   9.631  0.4561 -0.6775  0.2913
  234MOL0     C30802   0.397  10.143   9.637  0.0700  0.4049 -0.3513
  234MOL0     O30803   0.657   9.976   9.539  0.4145  0.3990 -0.2211
  234MOL0     C30804   0.926   9.988   9.566  0.1961 -0.4988  0.5639
  234MOL0     C30805   1.066  10.000   9.589 -0.3397  0.1606  0.1310
  234MOL0     N30806   1.652  10.078  10.093 -0.0594  0.3819 -0.5742
  234MOL0     N30807   1.732  10.070  10.189  0.2556 -0.5316 -0.0150
  234MOL0     C30808   2.937   9.968  10.482  0.1371  0.1668  0.2365
  234MOL0     C30809   3.044  10.027  10.427 -0.4714 -0.1097 -0.1162
  234MOL0     C30810   3.453  10.173  10.319  0.7973 -0.0259 -0.8761
  234MOL0     C30811   3.544  10.092  10.260  0.0844  0.1340  0.6090
  234MOL0     C30812   3.657  10.134  10.193 -0.3084  0.2662 -0.6639
  234MOL0     C30813   3.683  10.272  10.186  0.0188 -0.3098  0.3699
  234MOL0     O30814   3.798  10.319  10.131  0.2836 -0.6747 -0.2981
  234MOL0     C30815   3.855  10.439  10.182 -0.9002  0.1655  0.1762
  234MOL0     C30816   3.972  10.495  10.106  0.2148 -0.3526 -1.2863
  234MOL0     C30817   4.080  10.386  10.099 -0.6710 -0.3741  0.5071
  234MOL0     C30818   4.216  10.462  10.090  0.3525  0.5447 -0.8615
  234MOL0     C30819   4.326  10.366  10.062  0.8276 -0.1084 -0.8582
  234MOL0     C30820   4.416  10.291  10.043  0.1845 -0.2163 -0.2528
  234MOL0     C30821   3.602  10.351  10.266  0.3059 -0.3470  0.3085
  234MOL0     C30822   3.484  10.306  10.329 -0.3083  0.1263  0.2621
  234MOL0     H30823   3.075  10.318  10.595  1.9749 -0.2895 -0.2052
  234MOL0     H30824   2.874  10.197  10.723  2.2417 -0.5168  1.6586
  234MOL0     H30825   2.566   9.948  10.631  0.3111  0.4006 -1.0314
  234MOL0     H30826   2.651   9.820  10.558 -1.9079 -0.8302  3.3188
  234MOL0     H30827   2.683   9.939  10.366 -1.4006 -3.1234  3.0089
  234MOL0     H30828   2.684  10.103  10.426 -1.0095  1.3426 -1.5217
  234MOL0     H30829   2.499  10.088  10.306  2.8117 -0.9265 -0.3033
  234MOL0     H30830   2.433  10.102  10.473  2.0492  0.2921  1.0387
  234MOL0     H30831   2.455   9.833  10.363 -2.1310 -1.4618  0.2139
  234MOL0     H30832   2.356   9.886  10.485  2.3221 -2.9515  0.5226
  234MOL0     H30833   2.335   9.908  10.186  4.6555  1.0350  0.6974
  234MOL0     H30834   2.283  10.054  10.272  0.1795 -0.2609  0.7508
  234MOL0     H30835   2.113   9.911  10.402  0.9411  1.0053  0.0918
  234MOL0     H30836   2.162   9.779  10.285 -1.0709  0.1493 -0.4007
  234MOL0     H30837   2.061   9.945  10.097 -1.0881 -0.4259 -0.2538
  234MOL0     H30838   1.961   9.869  10.210  1.8403 -1.7742 -2.2730
  234MOL0     H30839   2.078  10.135  10.219  0.5533 -0.7268 -0.0976
  234MOL0     H30840   1.966  10.074  10.342  1.0139 -0.7101  0.9779
  234MOL0     H30841   1.950  10.124   9.948 -1.8414 -1.4764 -2.8397
  234MOL0     H30842   1.753  10.107   9.767  0.7462  1.6258 -0.0155
  234MOL0     H30843   1.672  10.248   9.832  0.1568 -0.2746  0.7478
  234MOL0     H30844   1.482  10.106   9.892 -0.3526  1.9235  0.2451
  234MOL0     H30845   1.544   9.972   9.795 -0.7365  0.1943  0.0700
  234MOL0     H30846   1.480  10.246   9.703  1.7592 -0.3949  1.9012
  234MOL0     H30847   1.564  10.135   9.598 -0.5299 -1.7886 -0.2224
  234MOL0     H30848   1.394   9.973   9.600  1.1569  2.0775 -1.5176
  234MOL0     H30849   1.318  10.132   9.552 -0.5906  1.8958  0.6210
  234MOL0     H30850   1.080  10.139   9.902 -2.2249  0.3062  0.9829
  234MOL0     H30851   0.834  10.122   9.863  0.8118  0.8364  0.3784
  234MOL0     H30852   0.485   9.913   9.858  0.5778 -0.6858 -2.1870
  234MOL0     H30853   0.239   9.848   9.844 -0.8306  1.2675  1.7817
  234MOL0     H30854   0.037  10.018   9.495  3.9140 -3.4988  2.5474
  234MOL0     H30855  -0.032  10.153   9.593 -0.8523  0.0349  0.9194
  234MOL0     H30856  -0.227  10.057   9.553  1.4113  0.5494 -1.2908
  234MOL0     H30857  -0.170   9.961   9.694 -2.0510 -2.1720 -0.2288
  234MOL0     H30858  -0.108   9.774   9.528 -1.5505 -0.7237  1.6237
  234MOL0     H30859  -0.155   9.884   9.402  1.2787  2.2974 -0.1931
  234MOL0     H30860  -0.323   9.728   9.596 -1.7531  0.5079  0.7456
  234MOL0     H30861  -0.381   9.884   9.530  0.3275 -0.2356  0.0686
  234MOL0     H30862  -0.369   9.833   9.303 -3.9687 -0.2042 -1.3927
  234MOL0     H30863  -0.465   9.715   9.364  0.6011 -0.0055 -1.5275
  234MOL0     H30864  -0.173   9.668   9.282  0.2678  1.1273 -0.7793
  234MOL0     H30865  -0.320   9.600   9.222  0.1674  1.1299 -0.6882
  234MOL0     H30866  -0.223   9.551   9.500  2.4758  0.5863 -1.0249
  234MOL0     H30867  -0.371   9.485   9.424  0.3158 -0.4443  0.8549
  234MOL0     H30868  -0.214   9.386   9.232  0.6709 -1.0547  0.0464
  234MOL0     H30869  -0.192   9.319   9.390 -2.2138  1.9259  2.9711
  234MOL0     H30870   0.197  10.189   9.579 -1.2276  2.0778  5.4444
  234MOL0     H30871   0.445  10.223   9.581  0.6128  0.1209 -0.3007
  234MOL0     H30872   0.884   9.971   9.467 -1.2185  2.1256  0.6212
  234MOL0     H30873   1.125   9.971   9.502  1.1840  2.7077  0.2085
  234MOL0     H30874   2.901   9.869  10.453 -2.0771  1.0260 -0.0961
  234MOL0     H30875   3.099   9.972  10.352 -0.1717  0.1335 -0.0761
  234MOL0     H30876   3.519   9.987  10.261  1.9861 -0.3543 -0.3902
  234MOL0     H30877   3.718  10.060  10.143 -2.5537 -1.3968 -1.1031
  234MOL0     H30878   3.874  10.430  10.289  0.5594 -0.5004 -0.1149
  234MOL0     H30879   3.784  10.520  10.163  0.4594  1.7253  1.4835
  234MOL0     H30880   3.937  10.529  10.007 -1.8374  0.7635 -0.2370
  234MOL0     H30881   4.006  10.583  10.161  0.8435  0.4443 -2.8656
  234MOL0     H30882   4.068  10.325  10.009  2.2141 -0.9504  0.4096
  234MOL0     H30883   4.072  10.330  10.192 -0.4002  0.5148  1.0789
  234MOL0     H30884   4.212  10.540  10.013  1.0193  1.8437  0.3677
  234MOL0     H30885   4.237  10.515  10.184  0.3757  1.8332 -1.5764
  234MOL0     H30886   4.492  10.216  10.053 -0.9587 -1.1912  1.8786
  234MOL0     H30887   3.618  10.458  10.278  0.7505 -0.2227 -1.2427
  234MOL0     H30888   3.419  10.375  10.383  0.2296  1.0315 -0.2178
  235MOL0     O30889   5.369   5.757   9.652 -0.3454  0.8361  0.2246
  235MOL0     C30890   5.429   5.833   9.579 -0.5575  0.0388 -0.7228
  235MOL0     O30891   5.383   5.965   9.557 -0.2940 -0.2612  0.0384
  235MOL0     C30892   5.251   5.978   9.548 -0.0401  0.2012  0.8718
  235MOL0     C30893   5.179   5.885   9.476 -0.0059  0.2011 -0.0338
  235MOL0     C30894   5.040   5.907   9.473  0.1867 -0.3730  0.3465
  235MOL0     C30895   4.979   6.024   9.521  0.9451 -1.1990 -0.1131
  235MOL0     O30896   4.841   6.021   9.499 -0.5721 -0.3602 -0.1051
  235MOL0     C30897   4.765   6.127   9.550 -0.2599 -0.4890 -0.5804
  235MOL0     C30898   4.633   6.136   9.464 -0.4872 -0.0951 -0.1276
  235MOL0     C30899   4.522   6.038   9.502 -0.8645 -0.1825  0.2255
  235MOL0     C30900   4.402   6.077   9.422  0.0070  0.0833 -0.1064
  235MOL0     C30901   4.265   6.002   9.437  0.4128 -0.2671  0.6183
  235MOL0     C30902   4.192   6.049   9.570 -0.6348 -0.2238  0.1939
  235MOL0     C30903   4.057   5.979   9.583  0.3215 -0.6031 -1.0906
  235MOL0     C30904   3.977   6.023   9.698  0.1436  0.0150 -0.8020
  235MOL0     N30905   3.837   5.999   9.680  0.3205  0.6714 -0.6866
  235MOL0     C30906   3.751   5.944   9.775 -0.1681 -0.6983 -1.0726
  235MOL0     C30907   3.630   5.968   9.730 -0.3619  0.7556  1.3561
  235MOL0     C30908   3.507   5.937   9.799  0.4229  0.3418 -0.6571
  235MOL0     C30909   3.382   5.991   9.725  0.4042 -0.0825 -0.0008
  235MOL0     C30910   3.264   5.999   9.820 -0.7001 -0.4197  0.6871
  235MOL0     C30911   3.143   6.073   9.767 -0.0503  1.0609 -0.6731
  235MOL0     O30912   3.052   6.062   9.869 -0.2085 -0.2843 -0.2832
  235MOL0     C30913   2.925   6.064   9.830  0.4451 -0.1485  0.3005
  235MOL0     C30914   2.877   6.140   9.722 -0.5962  0.0623 -0.5227
  235MOL0     C30915   2.741   6.130   9.689  0.7883 -0.0825 -0.7993
  235MOL0     C30916   2.646   6.062   9.766  0.3900  0.1061 -0.0206
  235MOL0     C30917   2.499   6.061   9.733 -1.0610  0.2796 -0.2489
  235MOL0     O30918   2.426   6.007   9.841  0.3126 -0.2025  0.2360
  235MOL0     C30919   2.292   5.990   9.822  0.4320 -0.1501  0.2223
  235MOL0     C30920   2.241   5.865   9.772 -0.2723 -1.2016  0.1760
  235MOL0     C30921   2.100   5.860   9.759  0.3020 -0.3191  0.1663
  235MOL0     C30922   2.013   5.952   9.822  0.7558  0.6781 -0.2877
  235MOL0     O30923   1.876   5.928   9.817 -0.1927  0.4373 -0.8004
  235MOL0     C30924   1.780   6.026   9.848 -0.2911 -0.1578  0.0274
  235MOL0     C30925   1.641   5.999   9.794  0.3304  0.3767  0.4647
  235MOL0     C30926   1.588   5.866   9.833  0.1117 -0.1707  0.0788
  235MOL0     C30927   1.468   5.821   9.744  0.1276  0.5384 -0.3055
  235MOL0     C30928   1.398   5.685   9.773  0.2273 -0.3364  0.9722
  235MOL0     C30929   1.341   5.626   9.642 -0.2997  1.2911 -0.2322
  235MOL0     C30930   1.244   5.508   9.671  0.6980  0.4731 -0.0209
  235MOL0     C30931   1.193   5.433   9.543 -0.6178  0.9414  1.1047
  235MOL0    Cl30932   1.100   5.294   9.613 -0.4256  0.0617 -0.0156
  235MOL0     C30933   2.073   6.070   9.879  0.2568  0.8747 -0.0987
  235MOL0     C30934   2.212   6.090   9.871  0.0082 -0.5910 -0.1087
  235MOL0     O30935   2.458   6.091   9.618  0.2427 -0.1770  0.3131
  235MOL0     C30936   2.702   5.985   9.877  0.1972  0.3044  0.5703
  235MOL0     C30937   2.837   5.997   9.904 -0.1442  1.3437 -0.3139
  235MOL0     N30938   3.638   6.035   9.611 -0.0611 -0.0985  0.0129
  235MOL0     N30939   3.759   6.057   9.583  0.2223 -0.3348  0.4613
  235MOL0     C30940   5.055   6.107   9.599  0.0493  0.6296  0.1868
  235MOL0     C30941   5.197   6.094   9.607 -0.7792  0.5695  0.5348
  235MOL0     C30942   5.574   5.801   9.560 -0.1267 -0.4372  0.7699
  235MOL0     C30943   5.666   5.897   9.522 -0.4351 -0.4581 -0.1752
  235MOL0     C30944   5.801   5.886   9.511  0.1784  1.0067 -0.6731
  235MOL0     C30945   5.856   5.761   9.541  0.2675 -0.1472 -0.1534
  235MOL0     O30946   5.991   5.735   9.552 -0.2092 -0.8288 -0.0782
  235MOL0     C30947   6.089   5.839   9.512 -0.4053 -0.2100 -0.3809
  235MOL0     C30948   6.234   5.778   9.548 -0.1374 -0.5251 -0.2084
  235MOL0     C30949   6.285   5.766   9.701 -0.1864 -0.1455  0.3220
  235MOL0     C30950   6.284   5.890   9.785 -0.0707 -0.5200  0.4353
  235MOL0     C30951   6.347   5.884   9.916 -1.2640  1.0377 -0.1499
  235MOL0     C30952   6.402   5.891  10.021 -0.1800 -0.2433  0.9595
  235MOL0     C30953   5.768   5.654   9.573  0.1045  0.3550  0.0075
  235MOL0     C30954   5.629   5.677   9.566  0.3302 -0.1094  0.0684
  235MOL0     H30955   5.222   5.791   9.443  0.1124 -0.4950  1.9855
  235MOL0     H30956   4.983   5.824   9.435  2.2577  0.4128 -5.4688
  235MOL0     H30957   4.819   6.222   9.541 -0.0605 -0.6040 -0.6106
  235MOL0     H30958   4.750   6.111   9.656  1.0625  2.3810  0.1563
  235MOL0     H30959   4.661   6.109   9.361 -1.1602 -2.9313  0.3521
  235MOL0     H30960   4.603   6.240   9.480  2.0977  0.1880  4.7259
  235MOL0     H30961   4.508   6.050   9.610 -0.0140 -1.5800  0.5171
  235MOL0     H30962   4.543   5.932   9.488 -0.5840 -0.4843  2.5193
  235MOL0     H30963   4.393   6.183   9.446 -0.9652  0.0078 -0.1153
  235MOL0     H30964   4.438   6.073   9.318  1.3978  2.2604  0.2193
  235MOL0     H30965   4.278   5.893   9.435 -1.0993 -0.5926 -3.6989
  235MOL0     H30966   4.207   6.023   9.346  0.7667 -1.7425  0.0124
  235MOL0     H30967   4.177   6.157   9.569  1.7334  0.1927  1.5881
  235MOL0     H30968   4.259   6.018   9.651 -0.1894  1.9809  0.7341
  235MOL0     H30969   3.997   6.001   9.495 -1.4981 -0.7203  0.0538
  235MOL0     H30970   4.078   5.872   9.588  2.1783 -0.2394  0.0789
  235MOL0     H30971   3.987   6.132   9.699  2.3249 -0.1398 -0.7377
  235MOL0     H30972   4.014   5.985   9.794  5.3654  0.2904 -2.3973
  235MOL0     H30973   3.760   5.915   9.879  1.5080  2.2086 -0.3048
  235MOL0     H30974   3.515   5.975   9.901 -0.7567 -2.4455  0.5618
  235MOL0     H30975   3.509   5.828   9.807  1.3449  0.1867 -2.3397
  235MOL0     H30976   3.360   5.924   9.642  2.7537  1.0507 -1.6357
  235MOL0     H30977   3.400   6.089   9.679 -0.2864  0.4869  0.9085
  235MOL0     H30978   3.241   5.902   9.865  2.2714 -2.2323 -1.3712
  235MOL0     H30979   3.289   6.066   9.902  2.7081 -1.5084  0.6682
  235MOL0     H30980   3.116   6.018   9.676 -1.5002 -2.1433  1.5144
  235MOL0     H30981   3.161   6.177   9.740  0.1945  1.0042 -0.7288
  235MOL0     H30982   2.936   6.188   9.645 -0.4019 -0.4228 -0.6795
  235MOL0     H30983   2.708   6.187   9.603 -1.3795  2.3822  1.4775
  235MOL0     H30984   2.314   5.785   9.762  0.3138 -0.9784  2.3471
  235MOL0     H30985   2.051   5.770   9.722 -0.8651 -1.2748  3.6220
  235MOL0     H30986   1.808   6.124   9.810 -3.7991  0.3041 -1.8394
  235MOL0     H30987   1.771   6.032   9.957 -2.9643  1.2969 -0.1756
  235MOL0     H30988   1.638   6.011   9.686  2.1960  0.9898  0.4472
  235MOL0     H30989   1.585   6.084   9.833  2.2614  2.7437 -1.5669
  235MOL0     H30990   1.564   5.872   9.940 -2.3819  1.1105 -0.4732
  235MOL0     H30991   1.660   5.787   9.807  0.7520 -0.2604  1.9678
  235MOL0     H30992   1.395   5.903   9.743  1.7612  2.0541 -0.4409
  235MOL0     H30993   1.512   5.812   9.644  3.3422 -0.1095  1.0504
  235MOL0     H30994   1.319   5.700   9.847  0.0326 -2.0204  1.1225
  235MOL0     H30995   1.468   5.613   9.814  0.3013 -0.5918  0.4046
  235MOL0     H30996   1.419   5.596   9.572 -0.4811 -0.6285  0.3419
  235MOL0     H30997   1.285   5.706   9.592  1.1438  0.2178 -3.8906
  235MOL0     H30998   1.301   5.440   9.735 -0.1084 -3.0129 -2.6951
  235MOL0     H30999   1.155   5.545   9.723 -0.6473 -0.2390 -1.7176
  235MOL0     H31000   1.274   5.384   9.487 -2.6804 -0.6156 -0.7193
  235MOL0     H31001   1.137   5.498   9.475 -0.0238  1.4810  1.1250
  235MOL0     H31002   2.005   6.143   9.922  0.1079  0.5336  0.2552
  235MOL0     H31003   2.249   6.175   9.927 -1.3225 -1.4305  2.2146
  235MOL0     H31004   2.658   5.917   9.949  1.3867  0.2346  1.2515
  235MOL0     H31005   2.878   5.948   9.992 -2.3143 -1.0835 -0.5605
  235MOL0     H31006   5.020   6.193   9.657 -1.6669  0.5438 -0.6778
  235MOL0     H31007   5.265   6.151   9.669  0.3266  0.4828 -0.5380
  235MOL0     H31008   5.625   5.992   9.489  2.0281  1.6089  2.2546
  235MOL0     H31009   5.869   5.966   9.485 -0.1615  1.6337  0.3428
  235MOL0     H31010   6.084   5.943   9.547  1.5663 -0.0608 -0.4418
  235MOL0     H31011   6.093   5.841   9.402  1.7557  0.5993 -0.3380
  235MOL0     H31012   6.235   5.680   9.501  0.8491 -1.2677  1.2882
  235MOL0     H31013   6.313   5.833   9.497  1.6160  0.6279  3.3714
  235MOL0     H31014   6.389   5.733   9.695  0.0997  0.8233 -0.5306
  235MOL0     H31015   6.220   5.702   9.760  1.4589  0.5226  3.0535
  235MOL0     H31016   6.332   5.969   9.726 -3.9806  0.9414 -1.0719
  235MOL0     H31017   6.180   5.924   9.787  0.0630  0.1295 -1.5864
  235MOL0     H31018   6.439   5.897  10.122  3.1377  1.5740 -0.2138
  235MOL0     H31019   5.814   5.561   9.604  0.1890  0.3285 -0.1972
  235MOL0     H31020   5.561   5.594   9.585 -1.1356  0.4544 -2.2165
  236MOL0     O31021   5.048   7.696   2.642  0.7894 -0.5252  0.3650
  236MOL0     C31022   5.065   7.811   2.595  0.1288 -0.6636 -0.0615
  236MOL0     O31023   4.996   7.925   2.632 -0.1533  0.2344  0.2036
  236MOL0     C31024   4.892   7.916   2.708 -0.1935  1.0798 -0.7760
  236MOL0     C31025   4.896   7.880   2.846 -0.8747 -0.2219 -0.1523
  236MOL0     C31026   4.780   7.899   2.926 -0.2373 -0.3772 -0.0558
  236MOL0     C31027   4.658   7.954   2.875 -0.1905  0.3104 -0.0275
  236MOL0     O31028   4.554   7.983   2.958 -0.6738 -0.1575  0.4557
  236MOL0     C31029   4.575   7.981   3.102 -0.1164  0.4207 -0.5819
  236MOL0     C31030   4.444   7.985   3.176  0.5731  0.0183 -0.6848
  236MOL0     C31031   4.356   8.111   3.153  0.1902 -0.4814  1.0534
  236MOL0     C31032   4.247   8.111   3.258  0.2979 -0.4411  0.8153
  236MOL0     C31033   4.157   8.230   3.240 -0.4079 -1.0266  0.5201
  236MOL0     C31034   4.054   8.238   3.358 -0.7890  0.3690  0.4351
  236MOL0     C31035   3.953   8.350   3.332  0.6930  0.1304 -0.0642
  236MOL0     C31036   3.852   8.346   3.441 -0.0222 -0.1942 -0.1567
  236MOL0     N31037   3.784   8.472   3.463 -0.3561  0.2401 -0.2765
  236MOL0     C31038   3.677   8.509   3.385 -1.2204  0.2307 -0.8133
  236MOL0     C31039   3.627   8.620   3.447  0.6084  0.5172  0.6788
  236MOL0     C31040   3.521   8.699   3.397 -0.5548  0.2470 -0.6351
  236MOL0     C31041   3.393   8.663   3.479 -0.1772 -0.9501  0.2577
  236MOL0     C31042   3.292   8.772   3.437  0.2752 -0.3950 -0.4450
  236MOL0     C31043   3.157   8.754   3.507 -0.9792 -0.0588 -0.3937
  236MOL0     O31044   3.076   8.870   3.474 -0.3300  0.2468 -0.3670
  236MOL0     C31045   2.945   8.872   3.522  1.1920 -0.4372  0.2297
  236MOL0     C31046   2.857   8.965   3.460  0.9391 -0.3296  1.0386
  236MOL0     C31047   2.723   8.969   3.506  0.1733  0.6695  0.2882
  236MOL0     C31048   2.671   8.879   3.602  0.0376 -0.6650 -0.0348
  236MOL0     C31049   2.528   8.887   3.645 -0.6161 -0.1577  0.1813
  236MOL0     O31050   2.486   8.780   3.707 -0.1858 -0.0133 -0.2872
  236MOL0     C31051   2.353   8.749   3.731  0.4964  0.9399  0.3414
  236MOL0     C31052   2.311   8.685   3.852 -0.1817 -0.1493  0.7761
  236MOL0     C31053   2.193   8.621   3.867  1.1128  0.5353  0.3874
  236MOL0     C31054   2.092   8.616   3.765  0.6691 -0.4018 -0.9469
  236MOL0     O31055   1.981   8.533   3.786  0.4835  0.1861  0.7404
  236MOL0     C31056   1.890   8.499   3.676 -0.0636 -0.0375 -0.7586
  236MOL0     C31057   1.782   8.605   3.652  1.1097 -0.3141 -0.2510
  236MOL0     C31058   1.677   8.553   3.546  0.3300 -0.0639 -0.0614
  236MOL0     C31059   1.558   8.641   3.513  0.5664 -0.4926  0.0456
  236MOL0     C31060   1.495   8.715   3.632 -0.4505 -0.5960  0.1111
  236MOL0     C31061   1.364   8.767   3.581  0.8461 -0.4126 -1.1981
  236MOL0     C31062   1.317   8.890   3.664 -0.3410  0.0357  1.0248
  236MOL0     C31063   1.287   8.861   3.806  0.3059 -0.3342 -0.0785
  236MOL0    Cl31064   1.155   8.740   3.851 -0.3128 -0.0106  0.0275
  236MOL0     C31065   2.125   8.687   3.643 -0.7295  0.0816  0.4495
  236MOL0     C31066   2.253   8.749   3.627  0.0895  0.5161 -0.2802
  236MOL0     O31067   2.459   8.985   3.623  0.7193 -0.0835 -0.1917
  236MOL0     C31068   2.756   8.781   3.652  0.2100  0.5123  0.6066
  236MOL0     C31069   2.889   8.782   3.619 -0.6735  0.5693 -0.4448
  236MOL0     N31070   3.700   8.644   3.564  0.0164 -0.0911 -0.7316
  236MOL0     N31071   3.781   8.549   3.582 -0.5356 -0.5785 -0.4924
  236MOL0     C31072   4.657   7.985   2.741  0.4106 -0.5161 -0.2720
  236MOL0     C31073   4.769   7.959   2.655  0.3152 -0.9474  0.2042
  236MOL0     C31074   5.174   7.836   2.503 -0.6156 -0.0789 -0.0544
  236MOL0     C31075   5.255   7.718   2.464  0.2455 -0.0609 -1.4002
  236MOL0     C31076   5.342   7.725   2.353 -0.8153 -1.1307 -0.3239
  236MOL0     C31077   5.377   7.855   2.302 -0.2908 -0.2459 -0.3107
  236MOL0     O31078   5.478   7.862   2.206  0.1991 -0.4661 -0.3242
  236MOL0     C31079   5.502   7.972   2.114 -0.6389 -0.0727  0.0768
  236MOL0     C31080   5.579   8.088   2.176 -0.1666  0.6143  0.0496
  236MOL0     C31081   5.733   8.051   2.187  0.5520 -0.0776  0.0908
  236MOL0     C31082   5.822   8.150   2.266 -0.1062  0.2401  0.5303
  236MOL0     C31083   5.961   8.159   2.215  0.5584 -0.6443 -0.3577
  236MOL0     C31084   6.072   8.179   2.200 -0.2288  0.5369 -0.2070
  236MOL0     C31085   5.305   7.974   2.341 -0.7696  0.5814  1.3595
  236MOL0     C31086   5.216   7.962   2.447 -0.6673 -0.2863  0.2506
  236MOL0     H31087   4.984   7.837   2.892  0.9838  0.3240 -2.9590
  236MOL0     H31088   4.790   7.875   3.032 -0.7814 -1.0914 -0.1619
  236MOL0     H31089   4.635   8.064   3.140  1.2586 -0.6221 -0.3950
  236MOL0     H31090   4.630   7.893   3.138 -0.1130 -0.2223 -2.0963
  236MOL0     H31091   4.470   7.997   3.282 -3.5248 -0.5695  0.5471
  236MOL0     H31092   4.386   7.894   3.160  0.3850  0.2367 -1.2494
  236MOL0     H31093   4.309   8.103   3.055  3.1939  3.4783 -1.0013
  236MOL0     H31094   4.403   8.210   3.155 -0.0523 -0.3351  0.0936
  236MOL0     H31095   4.184   8.021   3.251 -1.2321  0.7283 -3.4585
  236MOL0     H31096   4.295   8.112   3.356 -1.3597 -0.6558  1.6707
  236MOL0     H31097   4.103   8.232   3.145  0.9491  2.8604 -0.3280
  236MOL0     H31098   4.215   8.322   3.242 -1.4805 -0.2183 -1.8954
  236MOL0     H31099   4.102   8.248   3.456  2.0449 -1.5040 -0.6468
  236MOL0     H31100   3.999   8.143   3.359 -0.3328  0.1013  1.1016
  236MOL0     H31101   4.019   8.437   3.331  0.6036  0.2000 -2.0011
  236MOL0     H31102   3.904   8.339   3.235  1.4342  0.0548 -0.4355
  236MOL0     H31103   3.898   8.314   3.535 -2.2544 -0.5436  0.8767
  236MOL0     H31104   3.771   8.276   3.420 -2.2971  2.1855  0.1449
  236MOL0     H31105   3.643   8.453   3.298 -1.6055  1.7140 -1.6510
  236MOL0     H31106   3.508   8.673   3.291  1.9814  0.2633 -1.0067
  236MOL0     H31107   3.537   8.807   3.398 -2.0822  0.5163  1.0352
  236MOL0     H31108   3.402   8.663   3.588  3.1909  0.2823  0.0874
  236MOL0     H31109   3.362   8.562   3.451 -0.2843 -1.1656  1.1100
  236MOL0     H31110   3.324   8.876   3.451  0.8235 -0.5576 -0.4626
  236MOL0     H31111   3.285   8.764   3.328 -1.4038 -2.2018 -0.2669
  236MOL0     H31112   3.181   8.730   3.611 -0.8094  1.3601 -0.0931
  236MOL0     H31113   3.109   8.659   3.479 -3.0267  0.5113  0.9128
  236MOL0     H31114   2.900   9.027   3.382  1.4362 -3.2728 -1.1975
  236MOL0     H31115   2.660   9.042   3.455 -0.5253 -0.4088 -0.4207
  236MOL0     H31116   2.387   8.695   3.929 -1.2033  3.4436  1.5202
  236MOL0     H31117   2.163   8.563   3.953  0.2973  1.6592  0.8982
  236MOL0     H31118   1.842   8.403   3.696 -0.5318  0.1099 -1.1533
  236MOL0     H31119   1.951   8.475   3.588  2.1987 -0.6041  0.8638
  236MOL0     H31120   1.824   8.702   3.622  1.1657 -0.2489  0.0249
  236MOL0     H31121   1.740   8.627   3.751 -0.1266  2.3769 -1.2866
  236MOL0     H31122   1.638   8.456   3.577 -3.4339  0.1831 -3.1854
  236MOL0     H31123   1.731   8.535   3.453 -2.1192 -2.9982 -1.0787
  236MOL0     H31124   1.581   8.721   3.442  4.2471 -1.0563  0.3963
  236MOL0     H31125   1.484   8.569   3.476  1.7901 -1.2882 -0.9278
  236MOL0     H31126   1.556   8.803   3.655 -0.7764 -0.2015 -0.5219
  236MOL0     H31127   1.484   8.645   3.716  0.4681 -0.6475  0.1955
  236MOL0     H31128   1.291   8.688   3.599 -0.1696  0.6431 -0.4947
  236MOL0     H31129   1.362   8.797   3.476 -0.0848  0.4160 -0.9616
  236MOL0     H31130   1.400   8.962   3.664  0.5923 -1.0147  1.5289
  236MOL0     H31131   1.226   8.936   3.623  0.4815 -0.3005 -1.3594
  236MOL0     H31132   1.275   8.959   3.852  2.7175 -0.9324  2.1028
  236MOL0     H31133   1.375   8.825   3.860  0.4252  1.9651  1.3639
  236MOL0     H31134   2.055   8.696   3.561  1.8351  1.9338 -1.7083
  236MOL0     H31135   2.272   8.794   3.530 -0.8096 -1.4548 -1.4375
  236MOL0     H31136   2.713   8.709   3.720  0.3166 -1.2106 -1.0653
  236MOL0     H31137   2.955   8.702   3.651 -0.1187  0.7684 -1.0702
  236MOL0     H31138   4.566   8.030   2.703  0.2338  1.0222  1.8284
  236MOL0     H31139   4.761   7.989   2.551  1.0433  1.8207  0.8718
  236MOL0     H31140   5.238   7.621   2.509 -1.3084  1.3769  1.3764
  236MOL0     H31141   5.390   7.637   2.311 -1.0515 -0.5583 -1.8328
  236MOL0     H31142   5.414   8.017   2.068  1.9161  3.2327 -2.0143
  236MOL0     H31143   5.563   7.951   2.025  0.6837  2.0752  0.4009
  236MOL0     H31144   5.568   8.182   2.122  1.0533  1.0382  0.5194
  236MOL0     H31145   5.539   8.105   2.276 -2.9518 -2.4662 -0.3527
  236MOL0     H31146   5.777   8.045   2.087 -0.4358  1.4597 -0.4731
  236MOL0     H31147   5.731   7.959   2.246  3.7829 -0.1579  0.2401
  236MOL0     H31148   5.782   8.248   2.240 -3.5232 -1.5631 -1.7620
  236MOL0     H31149   5.801   8.131   2.372  1.8195 -1.8126  0.6243
  236MOL0     H31150   6.178   8.177   2.181 -0.3287  0.5627 -0.7841
  236MOL0     H31151   5.329   8.070   2.295 -1.5340 -0.3647 -1.2040
  236MOL0     H31152   5.158   8.048   2.481 -3.1799 -0.4771 -3.0542
  237MOL0     O31153   1.208   6.097   5.679  0.3485  0.4914 -0.4595
  237MOL0     C31154   1.288   6.140   5.599  1.0716  0.5813 -0.6929
  237MOL0     O31155   1.260   6.221   5.496 -0.5913  0.3042  0.0049
  237MOL0     C31156   1.126   6.243   5.465 -0.2199  0.0402 -0.4607
  237MOL0     C31157   1.070   6.371   5.493 -0.5472 -0.1118 -0.4912
  237MOL0     C31158   0.943   6.398   5.443 -0.4865  0.4940  0.3873
  237MOL0     C31159   0.869   6.303   5.371  0.9454  0.1221 -0.4279
  237MOL0     O31160   0.738   6.334   5.327  0.5584 -0.8596  0.1598
  237MOL0     C31161   0.644   6.225   5.340 -0.3421  0.2965 -0.1275
  237MOL0     C31162   0.494   6.273   5.322 -0.3924 -0.9099  0.7478
  237MOL0     C31163   0.398   6.159   5.341 -0.4908 -0.6783 -0.8183
  237MOL0     C31164   0.375   6.114   5.483  0.2105 -0.2738 -1.2540
  237MOL0     C31165   0.259   6.013   5.482  0.8262  0.6235 -0.1195
  237MOL0     C31166   0.132   6.099   5.490  0.0446 -0.1336 -0.2356
  237MOL0     C31167   0.031   5.997   5.557  0.2331 -0.2958  0.2352
  237MOL0     C31168  -0.109   6.060   5.588 -0.5701  0.0548 -0.5891
  237MOL0     N31169  -0.096   6.179   5.680  0.5662 -0.9149 -0.4794
  237MOL0     C31170  -0.064   6.179   5.812  0.3823 -0.3985 -0.1903
  237MOL0     C31171  -0.063   6.306   5.847  0.6912 -1.2951  0.0802
  237MOL0     C31172  -0.070   6.365   5.988  0.1641  0.2962  0.2598
  237MOL0     C31173   0.052   6.450   6.041 -0.5423  0.2750 -0.0659
  237MOL0     C31174   0.190   6.372   6.030  0.3093  0.5443 -0.1983
  237MOL0     C31175   0.309   6.466   6.067 -0.3708 -0.2051 -0.1850
  237MOL0     O31176   0.432   6.432   6.012 -0.5357 -0.1195 -0.6818
  237MOL0     C31177   0.528   6.442   6.106 -0.4515  0.4906 -0.7628
  237MOL0     C31178   0.586   6.326   6.158  0.2976  1.4144  0.4296
  237MOL0     C31179   0.682   6.327   6.256  0.4086  0.2139  0.6405
  237MOL0     C31180   0.730   6.441   6.304 -0.4460 -0.2593  0.5019
  237MOL0     C31181   0.858   6.448   6.390  0.7847 -0.1234  0.4506
  237MOL0     O31182   0.888   6.560   6.451 -0.2538  0.0563  0.3525
  237MOL0     C31183   1.017   6.581   6.499 -0.4586 -0.6804  0.7591
  237MOL0     C31184   1.118   6.632   6.420 -0.1365  0.2501  0.0449
  237MOL0     C31185   1.250   6.645   6.470 -1.0873 -0.2174 -0.5819
  237MOL0     C31186   1.281   6.605   6.600 -1.4615 -1.0993  0.3008
  237MOL0     O31187   1.407   6.616   6.643 -0.5625 -0.0401  0.2314
  237MOL0     C31188   1.445   6.576   6.775 -1.0654  0.8965  0.3260
  237MOL0     C31189   1.594   6.553   6.771 -0.4784 -0.6892  0.2343
  237MOL0     C31190   1.648   6.463   6.881 -0.6534  0.4741 -0.2225
  237MOL0     C31191   1.655   6.537   7.015  0.3690  0.5664  0.7212
  237MOL0     C31192   1.580   6.458   7.132 -0.9624 -0.7674 -0.1817
  237MOL0     C31193   1.612   6.524   7.267 -0.0923 -0.6336 -1.2253
  237MOL0     C31194   1.559   6.437   7.384  0.2594  0.0797  0.0318
  237MOL0     C31195   1.629   6.301   7.419 -0.2000  0.2188  0.1404
  237MOL0    Cl31196   1.748   6.324   7.538 -0.3629 -0.2154  0.5077
  237MOL0     C31197   1.174   6.559   6.686 -0.3710 -0.3127  1.1082
  237MOL0     C31198   1.047   6.533   6.627 -0.7931 -0.0661  0.7456
  237MOL0     O31199   0.927   6.351   6.394  0.0361  0.1751 -0.3244
  237MOL0     C31200   0.673   6.563   6.257  1.2407 -0.4268 -0.1081
  237MOL0     C31201   0.585   6.562   6.147  0.1450 -1.0997 -0.2512
  237MOL0     N31202  -0.088   6.381   5.734 -0.1981 -0.3004  0.8356
  237MOL0     N31203  -0.103   6.307   5.632 -0.9159 -0.7740  0.2793
  237MOL0     C31204   0.924   6.173   5.359  0.2706  0.7194 -0.4442
  237MOL0     C31205   1.049   6.142   5.408  0.3024  0.3610  0.2191
  237MOL0     C31206   1.422   6.102   5.634 -0.1852 -0.0683  0.2290
  237MOL0     C31207   1.497   6.050   5.530  0.0438  0.1629  0.6953
  237MOL0     C31208   1.625   6.001   5.549  0.3876  0.5037  0.7291
  237MOL0     C31209   1.677   6.001   5.678 -0.5146 -0.2922  0.7582
  237MOL0     O31210   1.806   5.975   5.711 -0.5784 -0.1569 -0.0509
  237MOL0     C31211   1.914   5.952   5.617 -1.0104 -0.5417 -0.3674
  237MOL0     C31212   2.039   5.943   5.700  0.0809 -0.3198 -0.0089
  237MOL0     C31213   2.033   5.839   5.810  0.4003  0.3659  0.2345
  237MOL0     C31214   1.992   5.910   5.944  0.1795  0.0670 -0.1201
  237MOL0     C31215   2.113   5.960   5.999  0.2207  0.4718 -0.0176
  237MOL0     C31216   2.204   6.023   6.050  0.7561 -0.4492 -1.1026
  237MOL0     C31217   1.598   6.042   5.785  0.3562  0.5808  0.5476
  237MOL0     C31218   1.469   6.085   5.762  0.2558 -0.7398 -0.2727
  237MOL0     H31219   1.112   6.451   5.552  0.8143 -0.3849 -1.0506
  237MOL0     H31220   0.903   6.498   5.461  0.6745  1.1024 -0.3427
  237MOL0     H31221   0.641   6.163   5.430 -2.0769  1.5842  0.7807
  237MOL0     H31222   0.660   6.163   5.251  1.8332  0.4704  0.0939
  237MOL0     H31223   0.488   6.301   5.217 -2.3942  1.0112  1.3090
  237MOL0     H31224   0.473   6.367   5.373 -2.3457 -0.7408 -0.2952
  237MOL0     H31225   0.423   6.075   5.275 -2.1593  0.7612 -3.4397
  237MOL0     H31226   0.301   6.187   5.298 -0.8290  0.1736  0.4317
  237MOL0     H31227   0.464   6.058   5.517  0.9069  2.1151  1.2295
  237MOL0     H31228   0.350   6.189   5.558 -1.3530 -1.6878 -0.2936
  237MOL0     H31229   0.278   5.950   5.570 -2.6279 -0.7013 -0.1655
  237MOL0     H31230   0.272   5.954   5.391  1.0735  2.2546 -1.1801
  237MOL0     H31231   0.101   6.122   5.388 -3.2529  0.7990  0.8528
  237MOL0     H31232   0.134   6.188   5.554 -0.8477  0.2634 -0.7539
  237MOL0     H31233   0.013   5.915   5.488  2.0290 -1.0628  0.6357
  237MOL0     H31234   0.070   5.952   5.649 -0.0816  0.7542  0.9001
  237MOL0     H31235  -0.169   5.991   5.648 -1.5393  1.8296  0.6089
  237MOL0     H31236  -0.168   6.101   5.505  1.4501 -1.6807 -3.0193
  237MOL0     H31237  -0.050   6.090   5.873  0.4782  0.0050  0.3864
  237MOL0     H31238  -0.104   6.294   6.065 -3.1982  2.2990  0.8197
  237MOL0     H31239  -0.150   6.439   5.982  0.5023  0.5523 -1.8105
  237MOL0     H31240   0.038   6.454   6.150 -0.4639 -0.9550  0.0077
  237MOL0     H31241   0.059   6.549   5.997 -0.0508  0.3243  0.1141
  237MOL0     H31242   0.195   6.284   6.095  0.3571  1.4006  0.9910
  237MOL0     H31243   0.199   6.341   5.925 -3.0067  1.1558 -0.7911
  237MOL0     H31244   0.304   6.484   6.175 -2.1607  2.9417 -0.6685
  237MOL0     H31245   0.289   6.566   6.028 -0.5800  1.2264  3.2158
  237MOL0     H31246   0.545   6.229   6.131 -2.1989  2.4172  0.3498
  237MOL0     H31247   0.721   6.228   6.278 -0.2730 -0.2232 -0.0297
  237MOL0     H31248   1.113   6.657   6.315  3.2172 -1.5865 -0.7013
  237MOL0     H31249   1.309   6.700   6.397 -1.2619  1.9525  0.8126
  237MOL0     H31250   1.394   6.484   6.805 -2.5415  1.5405 -0.1156
  237MOL0     H31251   1.406   6.650   6.845 -0.6450  0.0462  1.4998
  237MOL0     H31252   1.650   6.646   6.768 -0.0360 -0.9571 -0.0133
  237MOL0     H31253   1.618   6.504   6.676 -1.9554  2.7447 -2.0815
  237MOL0     H31254   1.749   6.426   6.858  0.0835  3.0228 -1.5441
  237MOL0     H31255   1.584   6.374   6.880  1.2685 -0.9939  0.5320
  237MOL0     H31256   1.761   6.551   7.039  0.0117  3.0249  1.1418
  237MOL0     H31257   1.615   6.638   7.005 -0.6798  0.0225 -0.8991
  237MOL0     H31258   1.613   6.353   7.136  0.4120 -0.3356  0.8537
  237MOL0     H31259   1.471   6.465   7.125 -1.2597  0.1435  3.4840
  237MOL0     H31260   1.559   6.619   7.271  0.9663 -0.0830  0.1804
  237MOL0     H31261   1.717   6.548   7.284 -0.4964  0.1375  0.2684
  237MOL0     H31262   1.563   6.493   7.478  3.3008 -2.4980  1.6531
  237MOL0     H31263   1.451   6.430   7.367  0.1515  0.0676  0.7247
  237MOL0     H31264   1.688   6.266   7.334 -0.9044 -0.0450 -0.2529
  237MOL0     H31265   1.548   6.233   7.449 -1.4041  2.4854  2.4540
  237MOL0     H31266   1.182   6.543   6.793  0.8737 -0.9061  0.9559
  237MOL0     H31267   0.972   6.486   6.689 -0.1479 -0.6495  1.0969
  237MOL0     H31268   0.709   6.654   6.304  0.8805 -1.0121  1.3546
  237MOL0     H31269   0.567   6.655   6.093  1.1800  1.1932  3.0116
  237MOL0     H31270   0.860   6.100   5.310 -0.8948  0.6486  1.1194
  237MOL0     H31271   1.077   6.038   5.391 -0.5962  0.0749  0.3842
  237MOL0     H31272   1.445   6.053   5.435  1.1772  3.4444  0.0569
  237MOL0     H31273   1.674   5.961   5.461 -2.1785 -0.0297 -0.5386
  237MOL0     H31274   1.918   6.038   5.549  3.5528  1.1372  1.6216
  237MOL0     H31275   1.901   5.855   5.569 -0.5637 -0.7863 -0.0084
  237MOL0     H31276   2.113   5.894   5.636 -1.1318 -3.2686  0.6679
  237MOL0     H31277   2.067   6.041   5.741 -2.9775  0.4360  0.5419
  237MOL0     H31278   2.120   5.775   5.823 -0.5994 -1.0054  0.4471
  237MOL0     H31279   1.951   5.775   5.775  0.8207  0.0387 -0.1504
  237MOL0     H31280   1.930   6.000   5.933 -0.0487  0.1200  1.4126
  237MOL0     H31281   1.932   5.849   6.012  0.5907  0.4257  0.5839
  237MOL0     H31282   2.292   6.077   6.078  0.8154 -0.8264 -0.5394
  237MOL0     H31283   1.649   6.056   5.880  4.8238 -2.7227 -1.0267
  237MOL0     H31284   1.405   6.120   5.842  1.8122  0.0278  0.6745
  238MOL0     O31285   3.545   6.486  11.166  0.2448  0.0323  0.1006
  238MOL0     C31286   3.646   6.553  11.151  0.5027 -0.9106 -1.0825
  238MOL0     O31287   3.655   6.685  11.091  0.0143  0.1626 -0.1618
  238MOL0     C31288   3.544   6.750  11.032  0.4288 -0.0775  1.0201
  238MOL0     C31289   3.565   6.847  10.927 -0.4302 -0.4543 -0.8789
  238MOL0     C31290   3.465   6.918  10.862  0.0595 -0.1994  0.2214
  238MOL0     C31291   3.331   6.891  10.902 -0.0576 -0.1522 -0.5813
  238MOL0     O31292   3.222   6.941  10.838  0.2885  0.3489  1.2134
  238MOL0     C31293   3.235   6.977  10.697 -0.4223  0.2333 -0.0465
  238MOL0     C31294   3.244   6.850  10.617  0.0454  0.2638  0.0591
  238MOL0     C31295   3.160   6.834  10.493  0.8124  0.3695  0.2863
  238MOL0     C31296   3.015   6.809  10.540 -1.2256  0.2607  0.8780
  238MOL0     C31297   2.929   6.717  10.453 -0.1587  0.1004  0.3695
  238MOL0     C31298   2.782   6.730  10.486 -0.1196 -0.7493 -0.0028
  238MOL0     C31299   2.699   6.625  10.402  0.0682  0.4632  0.0766
  238MOL0     C31300   2.555   6.611  10.409  0.7587  0.2294 -0.0453
  238MOL0     N31301   2.509   6.501  10.325 -0.3461  0.1807  0.2609
  238MOL0     C31302   2.486   6.370  10.362 -0.0380 -0.5584  0.3545
  238MOL0     C31303   2.473   6.298  10.252 -0.2044  0.2361  0.8246
  238MOL0     C31304   2.445   6.147  10.242  0.5543 -1.1420  0.3268
  238MOL0     C31305   2.292   6.112  10.230  0.5771  0.1760 -0.5056
  238MOL0     C31306   2.274   5.961  10.232 -0.7640  0.2862  0.1859
  238MOL0     C31307   2.135   5.921  10.198 -0.0332  0.7780 -0.7104
  238MOL0     O31308   2.033   6.007  10.266 -0.5696 -0.3686 -0.2401
  238MOL0     C31309   1.890   5.979  10.249  0.6210 -0.5046 -0.6798
  238MOL0     C31310   1.789   6.058  10.313  0.7448 -0.5250  0.8847
  238MOL0     C31311   1.655   6.029  10.289  0.3571  0.2177  0.0011
  238MOL0     C31312   1.613   5.917  10.214  0.0170 -0.5436  0.1925
  238MOL0     C31313   1.473   5.889  10.193  0.5705  0.2538  0.0567
  238MOL0     O31314   1.380   5.972  10.235  0.1659  0.1530  0.1520
  238MOL0     C31315   1.251   5.952  10.206  0.9595  0.3783 -0.8967
  238MOL0     C31316   1.158   6.026  10.282 -1.5921  0.0307  0.9592
  238MOL0     C31317   1.016   6.039  10.255  0.1103 -0.4842 -0.1275
  238MOL0     C31318   0.968   5.974  10.143 -0.8110 -0.7928 -0.3125
  238MOL0     O31319   0.844   5.999  10.110  1.2056 -1.1193  0.2659
  238MOL0     C31320   0.778   5.892  10.036 -0.4166  0.6675  0.0593
  238MOL0     C31321   0.638   5.936   9.983 -0.1855 -1.0936  0.3780
  238MOL0     C31322   0.569   5.840   9.888 -0.3037 -0.0698 -0.5940
  238MOL0     C31323   0.493   5.749   9.982  0.3425  0.1468  0.1732
  238MOL0     C31324   0.408   5.647   9.900 -0.8847 -0.3217  0.2546
  238MOL0     C31325   0.256   5.681   9.901 -0.3285  0.3490  0.3250
  238MOL0     C31326   0.179   5.589   9.800 -0.6448 -0.4969  0.1616
  238MOL0     C31327   0.073   5.512   9.880  0.3274 -0.7424 -0.7753
  238MOL0    Cl31328  -0.033   5.413   9.775  0.1247  0.2228 -0.0380
  238MOL0     C31329   1.055   5.899  10.064 -0.4696 -0.4291 -0.1681
  238MOL0     C31330   1.193   5.895  10.094 -0.0316 -0.3810  1.0751
  238MOL0     O31331   1.453   5.792  10.125 -0.1297 -0.8022  0.9900
  238MOL0     C31332   1.719   5.825  10.167  0.3593  0.6005 -0.3246
  238MOL0     C31333   1.846   5.867  10.186  0.5364  0.1664  0.1333
  238MOL0     N31334   2.490   6.389  10.145  0.1144 -0.9434  0.4958
  238MOL0     N31335   2.507   6.511  10.188 -0.2712 -0.3375 -0.5149
  238MOL0     C31336   3.301   6.799  11.001 -1.2037  0.2169 -0.3138
  238MOL0     C31337   3.408   6.728  11.061 -0.0855 -0.1617  0.1394
  238MOL0     C31338   3.770   6.506  11.192  0.7225  0.5360 -0.3551
  238MOL0     C31339   3.889   6.583  11.161 -0.1980  0.6936  0.4300
  238MOL0     C31340   4.015   6.533  11.198 -0.0348 -0.3172 -0.1327
  238MOL0     C31341   4.030   6.411  11.264  0.4681 -0.2724 -0.0833
  238MOL0     O31342   4.140   6.354  11.316  0.1178  0.7765  0.2202
  238MOL0     C31343   4.263   6.357  11.251  0.3104  0.1501 -0.4031
  238MOL0     C31344   4.385   6.305  11.337  0.7510 -0.0343 -0.3617
  238MOL0     C31345   4.386   6.365  11.483 -0.0327 -0.2925 -0.6001
  238MOL0     C31346   4.530   6.344  11.540  0.3694  0.0198 -0.8382
  238MOL0     C31347   4.538   6.447  11.649  0.4455  0.0857 -0.0701
  238MOL0     C31348   4.560   6.550  11.722 -0.2231 -0.7001  0.1558
  238MOL0     C31349   3.914   6.341  11.292 -0.3854 -0.9918  0.5804
  238MOL0     C31350   3.787   6.384  11.254 -0.1831  0.3406 -0.6804
  238MOL0     H31351   3.668   6.864  10.895 -0.3689  0.5070 -0.2459
  238MOL0     H31352   3.484   6.987  10.781 -1.9500 -0.2352 -0.3264
  238MOL0     H31353   3.314   7.047  10.668 -0.8782  0.7767 -0.0166
  238MOL0     H31354   3.143   7.031  10.671  0.2529  1.0825 -0.7285
  238MOL0     H31355   3.226   6.768  10.687 -0.2804  0.9079  0.7458
  238MOL0     H31356   3.348   6.835  10.588 -0.2515  2.1418 -2.2398
  238MOL0     H31357   3.202   6.746  10.444  0.7522  1.1466 -1.2119
  238MOL0     H31358   3.181   6.914  10.421  0.4472 -1.0463 -1.4766
  238MOL0     H31359   3.027   6.784  10.646  0.8989 -2.7859  0.0419
  238MOL0     H31360   2.955   6.900  10.533 -2.0507 -0.4102 -2.1951
  238MOL0     H31361   2.956   6.612  10.470 -0.9510  0.1226  1.9391
  238MOL0     H31362   2.944   6.727  10.345 -1.5376 -2.2404 -0.1099
  238MOL0     H31363   2.746   6.830  10.459 -0.5827 -0.4085  1.7115
  238MOL0     H31364   2.762   6.722  10.593  2.3486  2.2335  0.8364
  238MOL0     H31365   2.738   6.648  10.303 -0.1562  0.3581 -0.0359
  238MOL0     H31366   2.741   6.528  10.431  1.8588  1.5929  1.5608
  238MOL0     H31367   2.503   6.702  10.379 -4.3787 -2.0100  1.0227
  238MOL0     H31368   2.522   6.596  10.512  1.6833  3.7923  0.8958
  238MOL0     H31369   2.493   6.319  10.458  2.8011  0.2488  0.6686
  238MOL0     H31370   2.485   6.107  10.336  1.7174  1.2255  0.9106
  238MOL0     H31371   2.505   6.107  10.160  1.8545 -0.2628  0.8106
  238MOL0     H31372   2.251   6.157  10.139  0.7975 -1.6244 -1.5441
  238MOL0     H31373   2.238   6.157  10.314  0.6077  0.5626 -0.6902
  238MOL0     H31374   2.347   5.912  10.165  0.8432  1.5773  0.9307
  238MOL0     H31375   2.302   5.920  10.329  1.2125 -0.6974 -0.7273
  238MOL0     H31376   2.119   5.815  10.219 -0.6726  1.6813  4.6317
  238MOL0     H31377   2.129   5.939  10.090 -0.8433  1.4906 -0.5595
  238MOL0     H31378   1.833   6.146  10.359  0.1125  0.2101  0.0971
  238MOL0     H31379   1.584   6.095  10.337  2.8348  2.0580  1.3335
  238MOL0     H31380   1.181   6.102  10.356  2.0085  1.6211 -1.5421
  238MOL0     H31381   0.953   6.090  10.328  0.4544 -0.5440  0.2145
  238MOL0     H31382   0.757   5.806  10.100  0.6712  0.7442  0.5358
  238MOL0     H31383   0.842   5.855   9.955 -0.2307  0.7954  0.1469
  238MOL0     H31384   0.655   6.023   9.918 -1.0403 -0.9797  0.2836
  238MOL0     H31385   0.583   5.972  10.071  0.2973 -0.4543  0.4200
  238MOL0     H31386   0.638   5.778   9.830  0.9655 -0.8828  1.6593
  238MOL0     H31387   0.499   5.891   9.821 -0.8141 -1.0413 -0.8343
  238MOL0     H31388   0.565   5.703  10.051 -0.9681 -0.1667  1.4082
  238MOL0     H31389   0.418   5.801  10.042 -0.6575  0.9811 -1.7292
  238MOL0     H31390   0.416   5.546   9.942 -0.2195 -1.0036 -1.4078
  238MOL0     H31391   0.440   5.636   9.796 -0.4793  2.1962  0.0540
  238MOL0     H31392   0.236   5.784   9.872 -1.7596 -0.0445 -0.1581
  238MOL0     H31393   0.219   5.669  10.003  2.4891  1.4694  1.5832
  238MOL0     H31394   0.135   5.646   9.718 -1.5505 -0.3076  0.7648
  238MOL0     H31395   0.243   5.512   9.757 -0.4355  0.1029 -0.6196
  238MOL0     H31396   0.021   5.595   9.928 -0.4772 -0.6303 -1.7956
  238MOL0     H31397   0.113   5.449   9.960 -0.3663  1.2571  1.2536
  238MOL0     H31398   1.035   5.844   9.972  2.8635 -0.1870 -1.1756
  238MOL0     H31399   1.249   5.834  10.024 -0.6062 -2.5332  2.3779
  238MOL0     H31400   1.696   5.729  10.123  0.7402 -0.3294  1.4109
  238MOL0     H31401   1.907   5.789  10.140  1.4244  1.5898 -1.2181
  238MOL0     H31402   3.200   6.767  11.024 -1.5860  0.3914 -1.6566
  238MOL0     H31403   3.378   6.647  11.126  2.0104 -1.6566 -0.6604
  238MOL0     H31404   3.893   6.674  11.102 -0.7128 -0.1379 -0.9354
  238MOL0     H31405   4.105   6.584  11.166  1.4773 -2.5961  0.2521
  238MOL0     H31406   4.282   6.463  11.235  2.0388  0.2728  1.8856
  238MOL0     H31407   4.253   6.301  11.157 -0.8022 -0.5225  0.0955
  238MOL0     H31408   4.366   6.199  11.350 -0.4647 -0.1123 -2.3713
  238MOL0     H31409   4.476   6.323  11.279  1.0277  3.0517  0.8187
  238MOL0     H31410   4.320   6.313  11.553  0.4003  0.2996  0.2756
  238MOL0     H31411   4.348   6.468  11.477 -0.2291 -0.2084  1.2845
  238MOL0     H31412   4.516   6.251  11.595 -3.0567  1.2682  0.6699
  238MOL0     H31413   4.614   6.343  11.470 -0.1664 -0.7178 -1.4828
  238MOL0     H31414   4.592   6.628  11.789  0.5840 -0.0244 -0.9917
  238MOL0     H31415   3.934   6.253  11.352  2.4932  0.2269  1.5621
  238MOL0     H31416   3.696   6.335  11.287 -0.8548  3.4285  2.7718
  239MOL0     O31417   7.641   4.457   4.953 -0.5014 -1.0851  0.2497
  239MOL0     C31418   7.677   4.576   4.987  0.3225 -0.3361  1.1095
  239MOL0     O31419   7.601   4.692   4.971  0.5933 -0.8333 -0.9197
  239MOL0     C31420   7.469   4.676   4.932 -0.1766 -0.3135  0.3537
  239MOL0     C31421   7.378   4.612   5.017 -0.1409  0.1607 -0.3960
  239MOL0     C31422   7.254   4.563   4.970 -0.1746 -0.1069 -0.2808
  239MOL0     C31423   7.216   4.593   4.838  0.4454  0.3506 -0.2894
  239MOL0     O31424   7.095   4.556   4.790  0.3284  0.0905  0.3572
  239MOL0     C31425   6.990   4.524   4.879 -0.0262  0.0971  0.0001
  239MOL0     C31426   6.857   4.492   4.805 -0.0149  0.2653 -1.0475
  239MOL0     C31427   6.734   4.431   4.885  0.2100  0.6286 -0.1108
  239MOL0     C31428   6.619   4.397   4.784  0.5574 -0.0671 -0.4162
  239MOL0     C31429   6.654   4.273   4.706  0.6127  0.2648 -0.6497
  239MOL0     C31430   6.538   4.228   4.619 -0.2148 -1.0440 -0.1044
  239MOL0     C31431   6.414   4.175   4.705  1.1914 -0.3884  0.2799
  239MOL0     C31432   6.293   4.140   4.610 -0.8429  0.0666  0.1117
  239MOL0     N31433   6.165   4.190   4.649 -0.3650  0.3406 -0.1488
  239MOL0     C31434   6.048   4.189   4.571 -0.2321 -0.8316  0.6681
  239MOL0     C31435   5.950   4.195   4.659 -0.2108  0.0878  0.2891
  239MOL0     C31436   5.803   4.193   4.631 -0.7089  0.0339 -0.1900
  239MOL0     C31437   5.742   4.342   4.624 -0.4040  0.9266 -0.6506
  239MOL0     C31438   5.629   4.338   4.515 -0.3473 -0.1812 -0.2002
  239MOL0     C31439   5.504   4.255   4.561 -1.2416  0.6327 -0.1036
  239MOL0     O31440   5.472   4.278   4.699 -0.2584 -0.1323 -0.5806
  239MOL0     C31441   5.357   4.347   4.727  0.9693  0.6951  0.3682
  239MOL0     C31442   5.362   4.433   4.838 -0.2306 -0.0446  0.3863
  239MOL0     C31443   5.237   4.491   4.888 -0.6114  0.0149 -0.4989
  239MOL0     C31444   5.117   4.472   4.805  0.1620 -0.0730 -0.8837
  239MOL0     C31445   4.983   4.521   4.851  0.1534 -0.1734 -0.3887
  239MOL0     O31446   4.881   4.463   4.775 -0.4629  0.3714 -0.6421
  239MOL0     C31447   4.740   4.475   4.788  0.2553  0.5237  0.0723
  239MOL0     C31448   4.672   4.542   4.894  0.2076  0.4809 -0.3736
  239MOL0     C31449   4.532   4.531   4.908  0.2678  0.6845 -0.5024
  239MOL0     C31450   4.458   4.461   4.813  0.6872 -0.2679  0.7743
  239MOL0     O31451   4.325   4.457   4.849 -0.4342  0.3950  0.3418
  239MOL0     C31452   4.249   4.373   4.763 -0.1616 -0.6590  1.3963
  239MOL0     C31453   4.105   4.383   4.815  0.1627  0.2873 -0.9801
  239MOL0     C31454   4.005   4.306   4.736 -0.4401 -0.1768  0.2705
  239MOL0     C31455   3.880   4.277   4.824  0.8263  0.3618 -0.7585
  239MOL0     C31456   3.755   4.283   4.742  0.2726 -1.2324 -0.9036
  239MOL0     C31457   3.746   4.160   4.660  0.6059  0.6305  0.4686
  239MOL0     C31458   3.608   4.101   4.686 -0.2879  0.4565 -0.1129
  239MOL0     C31459   3.497   4.183   4.630  0.3518  0.1612  0.2247
  239MOL0    Cl31460   3.494   4.176   4.452 -0.4475 -0.1111  0.3339
  239MOL0     C31461   4.530   4.410   4.700  0.2673  0.2262  0.1461
  239MOL0     C31462   4.660   4.413   4.688 -0.4860 -0.6276  0.2444
  239MOL0     O31463   4.964   4.585   4.948  0.1250 -0.0160  0.0186
  239MOL0     C31464   5.125   4.383   4.696 -0.8331  0.4264  0.1102
  239MOL0     C31465   5.240   4.326   4.655  0.0653  1.1124  0.7813
  239MOL0     N31466   6.000   4.211   4.783  0.0650  0.0289 -0.2568
  239MOL0     N31467   6.127   4.213   4.782  0.8745 -0.3344 -0.0886
  239MOL0     C31468   7.300   4.676   4.758  0.2770  0.7300  0.4578
  239MOL0     C31469   7.436   4.713   4.797  0.2038  0.6431 -0.4979
  239MOL0     C31470   7.813   4.592   5.051 -0.0899 -0.4421 -0.0544
  239MOL0     C31471   7.867   4.714   5.080 -0.4542 -0.0702  0.3565
  239MOL0     C31472   7.996   4.723   5.127  0.0411 -0.3139  0.5760
  239MOL0     C31473   8.065   4.605   5.172 -0.0756 -0.0188  0.7783
  239MOL0     O31474   8.180   4.609   5.237  0.8753 -0.4668 -0.0788
  239MOL0     C31475   8.224   4.735   5.296  0.7723  0.0618  0.5275
  239MOL0     C31476   8.304   4.719   5.418  0.1038 -0.5642 -0.9681
  239MOL0     C31477   8.448   4.648   5.383  0.0498  0.3016 -0.5160
  239MOL0     C31478   8.546   4.752   5.331  0.8257  0.3302  1.3361
  239MOL0     C31479   8.682   4.701   5.339  0.9053  0.6798  0.4726
  239MOL0     C31480   8.802   4.664   5.345  0.5281  0.0190 -0.3364
  239MOL0     C31481   8.014   4.482   5.151 -0.3999 -0.2580  0.4598
  239MOL0     C31482   7.887   4.471   5.085  0.1543 -0.4973 -1.0183
  239MOL0     H31483   7.400   4.591   5.121 -0.9870  2.3060  0.2728
  239MOL0     H31484   7.187   4.518   5.042 -1.4882  1.2820 -0.5876
  239MOL0     H31485   6.968   4.610   4.942 -0.3233  0.8520 -1.1094
  239MOL0     H31486   7.018   4.434   4.936 -1.2844 -0.6229 -0.4649
  239MOL0     H31487   6.889   4.419   4.730  3.3970  0.4021  0.1261
  239MOL0     H31488   6.808   4.577   4.756  0.2004 -0.6919 -3.0410
  239MOL0     H31489   6.703   4.503   4.962 -0.0964 -2.0018  2.3993
  239MOL0     H31490   6.766   4.344   4.942 -2.0290 -0.2012 -0.0062
  239MOL0     H31491   6.531   4.368   4.842  0.7444  2.5614  1.3018
  239MOL0     H31492   6.586   4.477   4.718 -2.9743  0.0905  1.3078
  239MOL0     H31493   6.673   4.200   4.785  1.0597  0.4197 -0.6138
  239MOL0     H31494   6.747   4.285   4.650  1.5719  0.3591  0.8890
  239MOL0     H31495   6.565   4.141   4.559  0.7717  0.6830 -2.2963
  239MOL0     H31496   6.498   4.301   4.548  1.1073  1.3542  1.4511
  239MOL0     H31497   6.446   4.083   4.756  0.8771 -0.4218  0.4223
  239MOL0     H31498   6.374   4.245   4.779 -0.7785 -0.2809 -0.8132
  239MOL0     H31499   6.273   4.033   4.601 -3.5090  0.4754  0.4628
  239MOL0     H31500   6.319   4.184   4.513  0.8719  1.5259  1.1665
  239MOL0     H31501   6.040   4.173   4.464  0.2514 -2.1045  0.8030
  239MOL0     H31502   5.755   4.133   4.710 -0.6758 -0.7490 -0.7554
  239MOL0     H31503   5.795   4.139   4.536 -2.0517 -1.8862  0.9455
  239MOL0     H31504   5.822   4.412   4.600  0.7060 -0.1572 -0.2409
  239MOL0     H31505   5.708   4.379   4.721  0.9715  2.9159 -0.8924
  239MOL0     H31506   5.587   4.439   4.508 -0.5427 -0.2511 -0.0591
  239MOL0     H31507   5.667   4.298   4.421  0.6138  1.1860 -0.4176
  239MOL0     H31508   5.545   4.154   4.546  1.2261  1.6521 -0.7004
  239MOL0     H31509   5.419   4.273   4.494 -1.0945 -1.0000 -0.7786
  239MOL0     H31510   5.444   4.458   4.905 -0.0778  2.1051 -0.5072
  239MOL0     H31511   5.239   4.568   4.964 -2.0237  1.6263 -2.0063
  239MOL0     H31512   4.716   4.610   4.966  2.2765 -1.0291 -0.1223
  239MOL0     H31513   4.490   4.566   5.002 -0.4448 -1.8350  0.1926
  239MOL0     H31514   4.285   4.270   4.760 -1.3969 -1.1430 -2.3557
  239MOL0     H31515   4.251   4.405   4.658  0.4840  1.4266  1.9961
  239MOL0     H31516   4.082   4.489   4.824 -1.2937 -0.0857  0.1841
  239MOL0     H31517   4.112   4.344   4.918  0.4030  2.1528 -0.2622
  239MOL0     H31518   4.050   4.216   4.693 -0.5919 -1.0482  1.8632
  239MOL0     H31519   3.965   4.366   4.654 -0.6662  0.6085  0.9370
  239MOL0     H31520   3.903   4.186   4.879  2.1554 -0.2316 -2.2043
  239MOL0     H31521   3.861   4.354   4.900 -2.8564 -1.2834  0.2231
  239MOL0     H31522   3.753   4.366   4.671 -2.4895  0.1314  0.5764
  239MOL0     H31523   3.668   4.293   4.808 -0.2727  0.1033 -1.7877
  239MOL0     H31524   3.821   4.086   4.690  0.8315  1.2156  1.3738
  239MOL0     H31525   3.750   4.177   4.552 -3.3938 -1.7174 -0.2435
  239MOL0     H31526   3.614   4.000   4.645 -1.6252 -0.4518  1.7588
  239MOL0     H31527   3.589   4.091   4.793 -2.8725 -2.9024 -0.7145
  239MOL0     H31528   3.510   4.288   4.658 -0.2900 -0.0066  1.1888
  239MOL0     H31529   3.398   4.159   4.669  0.9462  2.5149  3.6159
  239MOL0     H31530   4.481   4.355   4.620  0.7296  3.0304 -2.2432
  239MOL0     H31531   4.718   4.376   4.604 -1.1927 -0.1010 -0.4886
  239MOL0     H31532   5.039   4.361   4.634  0.9882 -3.7858 -1.2761
  239MOL0     H31533   5.237   4.261   4.568  1.8755  2.2707 -0.2014
  239MOL0     H31534   7.264   4.689   4.656 -0.0529 -2.4794  0.0684
  239MOL0     H31535   7.500   4.774   4.734 -0.1209  1.1776 -0.3160
  239MOL0     H31536   7.816   4.800   5.038  0.3642 -0.2608 -1.1169
  239MOL0     H31537   8.032   4.824   5.146 -1.5614 -0.0366  2.3540
  239MOL0     H31538   8.137   4.796   5.321 -0.8664 -0.7854 -2.5846
  239MOL0     H31539   8.273   4.793   5.217 -1.1209  1.2862  0.1809
  239MOL0     H31540   8.310   4.822   5.455  4.1544 -0.2887 -1.9104
  239MOL0     H31541   8.248   4.658   5.490  1.5150 -1.0971 -0.2840
  239MOL0     H31542   8.429   4.562   5.318  2.2227 -2.1617  1.8512
  239MOL0     H31543   8.471   4.600   5.478  0.2452  0.3232 -0.5516
  239MOL0     H31544   8.512   4.794   5.235  3.0111  1.5070  1.0126
  239MOL0     H31545   8.547   4.825   5.412  1.3740  0.8985  0.8284
  239MOL0     H31546   8.907   4.654   5.364  0.3582 -0.5359  0.3346
  239MOL0     H31547   8.067   4.390   5.173  1.2152  1.0348  2.2501
  239MOL0     H31548   7.853   4.368   5.079  0.3097 -0.5631 -0.7700
  240MOL0     O31549   0.764   5.310   3.195  0.2431  0.3435 -0.0334
  240MOL0     C31550   0.844   5.230   3.153 -0.4031  0.1386 -0.1095
  240MOL0     O31551   0.815   5.105   3.111 -0.0071  1.2818  0.4314
  240MOL0     C31552   0.688   5.059   3.119  0.9578 -0.8712 -0.0983
  240MOL0     C31553   0.668   4.951   3.201  0.1779  0.0010  0.0865
  240MOL0     C31554   0.550   4.882   3.205  0.0907  0.9400 -0.5313
  240MOL0     C31555   0.438   4.931   3.126 -0.3972 -0.3474 -1.1949
  240MOL0     O31556   0.321   4.863   3.120  0.2446  1.0799 -0.1261
  240MOL0     C31557   0.300   4.735   3.198 -0.5207  0.0219 -0.1010
  240MOL0     C31558   0.168   4.679   3.144 -0.6395  0.3257 -0.4244
  240MOL0     C31559   0.177   4.670   2.999 -0.7384  0.8392 -0.6411
  240MOL0     C31560   0.043   4.623   2.935 -0.5198 -0.3534  0.3678
  240MOL0     C31561   0.016   4.470   2.944  0.0625 -0.1900  0.8563
  240MOL0     C31562  -0.050   4.407   2.822  0.4781  0.4253 -0.9406
  240MOL0     C31563  -0.077   4.261   2.844  0.2826 -0.6231  0.4357
  240MOL0     C31564  -0.132   4.202   2.721  0.1744  0.4894  1.0284
  240MOL0     N31565  -0.040   4.188   2.607 -0.0583  0.4633  0.6737
  240MOL0     C31566  -0.055   4.223   2.479 -0.7495  0.1377 -0.2993
  240MOL0     C31567   0.064   4.182   2.431 -0.1666  0.3540 -0.2312
  240MOL0     C31568   0.091   4.182   2.282  0.3758 -0.2470  0.9824
  240MOL0     C31569   0.243   4.162   2.252  0.7295 -0.3605 -1.0769
  240MOL0     C31570   0.287   4.012   2.248  0.3767  0.0294  1.0795
  240MOL0     C31571   0.436   4.013   2.248 -0.4837  0.6909  1.1064
  240MOL0     O31572   0.494   4.075   2.369 -0.6152  0.6902  0.0994
  240MOL0     C31573   0.630   4.071   2.385  0.5577  0.3625 -0.3544
  240MOL0     C31574   0.673   4.104   2.512  0.1779  0.2615  0.2747
  240MOL0     C31575   0.802   4.089   2.551  0.8751  0.4373  0.1094
  240MOL0     C31576   0.904   4.043   2.465 -0.5237 -0.7652  0.5511
  240MOL0     C31577   1.048   4.038   2.508 -0.1906  0.6034  0.5190
  240MOL0     O31578   1.073   4.019   2.646 -0.3363  0.2411 -0.3120
  240MOL0     C31579   1.211   4.033   2.675  0.0637 -0.0555  0.1559
  240MOL0     C31580   1.280   3.934   2.741 -0.0359 -0.2029  0.6172
  240MOL0     C31581   1.412   3.943   2.779  0.3738  0.4630  0.1336
  240MOL0     C31582   1.463   4.072   2.761 -0.0701 -0.3196 -0.2349
  240MOL0     O31583   1.589   4.110   2.811 -0.0314  0.5694  0.2226
  240MOL0     C31584   1.690   4.010   2.836 -0.1564  0.4510 -0.7184
  240MOL0     C31585   1.821   4.081   2.854 -0.9762  0.4087  0.8443
  240MOL0     C31586   1.826   4.115   3.009 -0.2723 -0.1062 -0.0954
  240MOL0     C31587   1.926   4.229   3.044  0.2598  0.5751  0.4745
  240MOL0     C31588   1.931   4.257   3.191 -0.5329  0.1481 -0.4436
  240MOL0     C31589   2.010   4.386   3.218  0.3455  0.0881 -0.8342
  240MOL0     C31590   1.915   4.507   3.219 -0.5377  0.0503 -0.6832
  240MOL0     C31591   1.999   4.629   3.173  0.4079  0.2190 -0.1798
  240MOL0    Cl31592   1.936   4.779   3.238  0.8728  0.8819 -0.3179
  240MOL0     C31593   1.396   4.182   2.690 -0.2329 -0.7464  0.0460
  240MOL0     C31594   1.268   4.161   2.645  0.3160  0.3201  0.3722
  240MOL0     O31595   1.131   4.049   2.421 -0.3197 -0.3328  0.4366
  240MOL0     C31596   0.860   4.009   2.334 -0.1622 -0.3968  0.5290
  240MOL0     C31597   0.727   4.018   2.286  0.2545 -0.9544  0.2376
  240MOL0     N31598   0.154   4.129   2.524  0.7467 -0.0265  0.5060
  240MOL0     N31599   0.088   4.139   2.624  0.3492  0.0936  0.1171
  240MOL0     C31600   0.459   5.047   3.042  0.5574  0.4853  0.4561
  240MOL0     C31601   0.582   5.113   3.037 -0.6436  0.7473 -0.5513
  240MOL0     C31602   0.988   5.264   3.121 -0.7436  0.0827  0.2512
  240MOL0     C31603   1.027   5.400   3.105  0.1741  0.5230 -0.1546
  240MOL0     C31604   1.163   5.425   3.098  1.1092 -0.0025 -0.3504
  240MOL0     C31605   1.268   5.331   3.104 -0.0377 -0.1664 -0.6683
  240MOL0     O31606   1.403   5.374   3.104 -0.2419  0.6577  0.3282
  240MOL0     C31607   1.500   5.287   3.159  0.2463  0.5769  0.0846
  240MOL0     C31608   1.558   5.195   3.049  0.1313  0.6967  0.3360
  240MOL0     C31609   1.696   5.132   3.101 -0.3801 -0.4056  0.6005
  240MOL0     C31610   1.752   5.026   2.999 -0.4506  0.4108 -0.5775
  240MOL0     C31611   1.740   5.056   2.848  0.1678  0.1900 -0.6707
  240MOL0     C31612   1.745   5.076   2.729  0.5912 -0.1960 -0.0561
  240MOL0     C31613   1.221   5.208   3.126 -0.2178  0.5481  0.7192
  240MOL0     C31614   1.084   5.170   3.135 -0.4431 -0.5185 -0.6352
  240MOL0     H31615   0.754   4.932   3.265  2.2531  0.0944 -2.5084
  240MOL0     H31616   0.549   4.795   3.270  2.8178 -0.4449 -2.1759
  240MOL0     H31617   0.285   4.773   3.299 -0.3314  1.1273 -0.4670
  240MOL0     H31618   0.386   4.668   3.198 -0.3318  0.2573 -0.6039
  240MOL0     H31619   0.083   4.744   3.169  0.3596  0.8581  1.8583
  240MOL0     H31620   0.150   4.583   3.194 -0.4695 -0.1176 -1.1813
  240MOL0     H31621   0.263   4.605   2.982  0.4729  1.5622  2.0765
  240MOL0     H31622   0.199   4.766   2.952  0.3375 -0.2378 -2.4172
  240MOL0     H31623  -0.045   4.675   2.974  1.2022  0.7013  3.1785
  240MOL0     H31624   0.061   4.662   2.834  0.4485 -0.3255  0.5441
  240MOL0     H31625  -0.036   4.442   3.035  2.4792 -0.1974  2.3330
  240MOL0     H31626   0.116   4.425   2.944  1.7737  3.2239  1.3762
  240MOL0     H31627   0.010   4.427   2.732 -2.3023 -1.3458 -3.3738
  240MOL0     H31628  -0.139   4.462   2.791 -0.1339  0.6412  1.0793
  240MOL0     H31629   0.020   4.218   2.866 -1.3285 -3.8904  1.7618
  240MOL0     H31630  -0.155   4.251   2.920 -0.2431 -1.8576 -0.2499
  240MOL0     H31631  -0.222   4.257   2.692 -1.0985 -1.8691  0.1674
  240MOL0     H31632  -0.166   4.100   2.742 -0.9809  0.3501 -1.1274
  240MOL0     H31633  -0.141   4.268   2.429 -0.9670 -0.0152 -0.0615
  240MOL0     H31634   0.053   4.279   2.247  1.2289 -0.2050  0.1302
  240MOL0     H31635   0.033   4.103   2.236 -2.1321  2.5514 -1.0279
  240MOL0     H31636   0.297   4.230   2.318  0.1700  1.4400 -2.3950
  240MOL0     H31637   0.250   4.206   2.152  0.7910 -1.3724 -1.5367
  240MOL0     H31638   0.258   3.963   2.341  3.1528 -0.9566  1.5389
  240MOL0     H31639   0.237   3.957   2.168  0.2999  1.1802  0.3189
  240MOL0     H31640   0.459   4.075   2.161 -0.4619  0.7860  1.1795
  240MOL0     H31641   0.469   3.911   2.229  1.0988  1.0855  1.6333
  240MOL0     H31642   0.600   4.138   2.586 -0.2616  1.4124 -0.6490
  240MOL0     H31643   0.818   4.114   2.655 -2.0667 -2.2744  1.3688
  240MOL0     H31644   1.220   3.847   2.765 -0.5038  1.0877  5.2501
  240MOL0     H31645   1.472   3.875   2.839  1.7964  0.9577 -0.6707
  240MOL0     H31646   1.690   3.934   2.757 -0.5002 -0.3378  0.0413
  240MOL0     H31647   1.673   3.947   2.923 -2.0679 -1.2879 -2.2486
  240MOL0     H31648   1.821   4.166   2.786  2.8411 -0.5945 -0.6454
  240MOL0     H31649   1.904   4.013   2.834 -1.0159  0.4947  0.3854
  240MOL0     H31650   1.866   4.029   3.064  1.8870 -0.4375 -2.0355
  240MOL0     H31651   1.731   4.155   3.046  0.7648  2.3395  0.0714
  240MOL0     H31652   2.027   4.213   3.007  0.5936 -2.0039  2.3035
  240MOL0     H31653   1.896   4.322   2.994  0.2442  1.2983  1.7978
  240MOL0     H31654   1.968   4.174   3.252 -2.6803 -0.2409  0.3839
  240MOL0     H31655   1.832   4.293   3.221  0.1802  2.5086 -0.6729
  240MOL0     H31656   2.089   4.383   3.142  0.1343 -1.0023 -1.0234
  240MOL0     H31657   2.048   4.388   3.321 -1.4709 -2.5629 -0.0085
  240MOL0     H31658   1.825   4.487   3.161 -0.8306  1.2366 -0.6734
  240MOL0     H31659   1.870   4.531   3.316  2.3923 -2.9194  1.6677
  240MOL0     H31660   2.027   4.619   3.067  2.6632  1.2639  0.2662
  240MOL0     H31661   2.100   4.618   3.214  0.8821  0.3059 -1.2831
  240MOL0     H31662   1.446   4.278   2.685  3.5856 -2.5047  0.4003
  240MOL0     H31663   1.221   4.239   2.586 -0.0190  1.8655  2.5263
  240MOL0     H31664   0.925   3.960   2.262 -1.9560  0.5536 -1.8936
  240MOL0     H31665   0.708   3.971   2.190 -0.6452  0.1634 -0.1544
  240MOL0     H31666   0.367   5.082   2.995  0.0166 -0.5453  0.7089
  240MOL0     H31667   0.602   5.191   2.964  2.1297  0.6968  0.0745
  240MOL0     H31668   0.950   5.477   3.114 -0.6944 -0.5295  2.3324
  240MOL0     H31669   1.174   5.532   3.085  2.1064  0.1969  1.7128
  240MOL0     H31670   1.460   5.225   3.239 -1.8172 -0.0242 -1.3427
  240MOL0     H31671   1.571   5.346   3.218  1.0987  0.5576 -0.8752
  240MOL0     H31672   1.489   5.112   3.038  2.1105 -1.0834  0.7497
  240MOL0     H31673   1.559   5.240   2.949 -0.2879 -0.9532 -0.4449
  240MOL0     H31674   1.692   5.072   3.192 -0.2903 -1.3551  0.0022
  240MOL0     H31675   1.773   5.209   3.113  2.8110 -3.3876  0.8101
  240MOL0     H31676   1.852   4.996   3.033 -0.4394  2.9985  2.0602
  240MOL0     H31677   1.692   4.935   3.012  1.8740 -0.9866  1.3070
  240MOL0     H31678   1.729   5.119   2.632  0.6063 -0.1064 -0.0193
  240MOL0     H31679   1.294   5.132   3.150 -0.1089  0.7605  1.0549
  240MOL0     H31680   1.051   5.067   3.146  1.3858 -1.1204 -0.3839
  241MOL0     O31681   0.919  11.197   3.528  0.0719 -0.3514  0.1508
  241MOL0     C31682   0.970  11.141   3.626 -0.0677 -0.9617  0.3921
  241MOL0     O31683   1.026  11.205   3.734  0.2104 -0.3011  0.6897
  241MOL0     C31684   1.008  11.340   3.760 -0.7358  0.8092  0.7100
  241MOL0     C31685   0.914  11.426   3.709  0.2955 -0.0622  0.1360
  241MOL0     C31686   0.922  11.563   3.729 -0.4992 -0.1642  0.3805
  241MOL0     C31687   1.024  11.615   3.809 -0.4685  0.1795 -0.0894
  241MOL0     O31688   1.036  11.756   3.818  0.4525  0.3604  0.3336
  241MOL0     C31689   1.030  11.822   3.685 -0.3546 -0.4195 -0.2612
  241MOL0     C31690   1.088  11.965   3.711 -0.0355  0.2589  1.0945
  241MOL0     C31691   1.229  11.974   3.770 -0.5782 -0.1814 -0.6009
  241MOL0     C31692   1.338  11.935   3.683 -0.2759  0.4185  0.6130
  241MOL0     C31693   1.484  11.976   3.728 -0.6121 -0.1551  0.3174
  241MOL0     C31694   1.579  11.926   3.629 -0.3512  0.5274 -0.3473
  241MOL0     C31695   1.721  11.914   3.693  0.4452 -0.6301  0.1345
  241MOL0     C31696   1.787  12.056   3.676  0.1734  0.3425 -0.6932
  241MOL0     N31697   1.906  12.074   3.763 -1.2066  0.9192  0.5680
  241MOL0     C31698   2.029  12.014   3.733  0.1378 -0.3708  1.3937
  241MOL0     C31699   2.088  12.035   3.850  0.2173 -0.2912 -0.3844
  241MOL0     C31700   2.223  12.002   3.869  0.0626 -0.1664 -0.1591
  241MOL0     C31701   2.241  11.845   3.850 -0.7586  0.2188  0.0216
  241MOL0     C31702   2.378  11.801   3.917  0.1621  0.2382  0.5546
  241MOL0     C31703   2.368  11.667   3.986  0.2632  0.1272 -0.0766
  241MOL0     O31704   2.319  11.570   3.890 -0.8021 -0.0474  0.5465
  241MOL0     C31705   2.375  11.447   3.894 -0.0420  0.3517 -0.7646
  241MOL0     C31706   2.387  11.370   4.012  0.2873 -0.7765 -0.7938
  241MOL0     C31707   2.457  11.251   4.015  0.6122 -0.0294 -0.6354
  241MOL0     C31708   2.530  11.205   3.903 -0.0581  0.1687 -0.2538
  241MOL0     C31709   2.615  11.089   3.911 -0.2974  0.2383 -0.1453
  241MOL0     O31710   2.688  11.059   3.803  0.0820 -0.3479 -0.2485
  241MOL0     C31711   2.774  10.957   3.780  0.1649  1.5049 -0.2887
  241MOL0     C31712   2.799  10.918   3.651 -0.8006 -0.6298 -0.3634
  241MOL0     C31713   2.889  10.809   3.631 -0.2721  0.5529 -0.1468
  241MOL0     C31714   2.963  10.745   3.734  0.9559  0.1419  0.8504
  241MOL0     O31715   3.041  10.635   3.702  0.4834  0.0106 -0.4457
  241MOL0     C31716   3.172  10.642   3.753 -0.3814  0.1797  0.8560
  241MOL0     C31717   3.259  10.554   3.669  0.4469 -0.5896  1.0964
  241MOL0     C31718   3.381  10.519   3.746  1.5312  0.3270  0.5326
  241MOL0     C31719   3.496  10.612   3.722 -1.0991  0.0388  0.7027
  241MOL0     C31720   3.637  10.544   3.757  0.6997  0.0938  0.5932
  241MOL0     C31721   3.756  10.632   3.711  0.3669 -0.0750 -0.3670
  241MOL0     C31722   3.773  10.646   3.567  0.4910 -1.0228  1.2476
  241MOL0     C31723   3.901  10.714   3.531  0.8315 -0.0641 -1.1103
  241MOL0    Cl31724   4.039  10.624   3.593  0.4170  0.2713 -0.6344
  241MOL0     C31725   2.937  10.787   3.868 -0.3281  0.1963  0.3068
  241MOL0     C31726   2.838  10.886   3.891  0.2861 -0.8500  0.0199
  241MOL0     O31727   2.612  11.022   4.018 -0.1637  0.5600  0.3180
  241MOL0     C31728   2.525  11.286   3.787 -0.2279  0.3473  0.3479
  241MOL0     C31729   2.440  11.397   3.784 -0.0393  0.0705 -0.7222
  241MOL0     N31730   2.006  12.091   3.946 -0.6031  0.1761  0.5123
  241MOL0     N31731   1.899  12.123   3.893  0.7294 -0.5694  0.0737
  241MOL0     C31732   1.110  11.530   3.873 -0.0302  0.4524  0.0715
  241MOL0     C31733   1.108  11.395   3.849  0.9628 -0.2363 -0.0117
  241MOL0     C31734   0.967  10.997   3.632 -0.3673  0.5523  0.3641
  241MOL0     C31735   0.874  10.912   3.569 -0.4778  0.5350  0.0481
  241MOL0     C31736   0.888  10.773   3.583  0.0430 -0.9208  0.3611
  241MOL0     C31737   0.978  10.724   3.673  0.8120  0.0992  0.0461
  241MOL0     O31738   0.996  10.590   3.705  0.5855 -0.3139  0.9087
  241MOL0     C31739   1.059  10.505   3.612 -0.3921  0.0774  0.0921
  241MOL0     C31740   1.162  10.420   3.685  0.0697  0.5598  0.3734
  241MOL0     C31741   1.210  10.294   3.605  0.1376  0.4831  0.0447
  241MOL0     C31742   1.299  10.202   3.697  0.4904 -0.3099  0.3717
  241MOL0     C31743   1.437  10.261   3.701 -0.7944 -0.0191  0.9020
  241MOL0     C31744   1.542  10.319   3.686 -0.7247  0.8339 -0.3740
  241MOL0     C31745   1.074  10.800   3.729 -0.5406 -0.2861 -0.1560
  241MOL0     C31746   1.071  10.939   3.705 -0.4845 -0.7971 -0.2815
  241MOL0     H31747   0.831  11.389   3.650 -0.0524  1.3741 -0.3184
  241MOL0     H31748   0.843  11.617   3.677 -0.5617  0.0212  0.6676
  241MOL0     H31749   0.938  11.837   3.628  0.6171  0.4270 -1.6982
  241MOL0     H31750   1.108  11.773   3.625  2.5717  0.0068  2.8607
  241MOL0     H31751   1.023  12.012   3.785 -1.1451 -1.6682  1.4033
  241MOL0     H31752   1.088  12.026   3.620  0.4002  0.4344  1.2069
  241MOL0     H31753   1.224  11.903   3.853 -2.2783 -0.4442 -0.8764
  241MOL0     H31754   1.246  12.077   3.802 -1.6311  0.8859 -3.1716
  241MOL0     H31755   1.352  11.828   3.661  5.8451  1.0935 -0.7278
  241MOL0     H31756   1.335  11.992   3.589 -0.1793  1.0378  0.9828
  241MOL0     H31757   1.499  11.942   3.831 -1.6563 -6.1950 -1.1826
  241MOL0     H31758   1.506  12.084   3.724  0.6476 -0.3826  0.6527
  241MOL0     H31759   1.575  11.975   3.531 -0.6650  0.6505 -0.2749
  241MOL0     H31760   1.560  11.820   3.608  0.9620 -0.0626  1.2495
  241MOL0     H31761   1.717  11.889   3.800 -0.6235  1.1270  0.5569
  241MOL0     H31762   1.787  11.848   3.637  0.4505  0.6540 -1.4557
  241MOL0     H31763   1.717  12.134   3.707  1.5056  0.9632  0.8162
  241MOL0     H31764   1.817  12.079   3.574  0.7492  2.1203 -0.1398
  241MOL0     H31765   2.070  11.970   3.643  0.2741  0.0153  1.2677
  241MOL0     H31766   2.251  12.019   3.974  1.6054 -0.8593 -0.4217
  241MOL0     H31767   2.283  12.054   3.794  0.5798 -1.5497 -0.7472
  241MOL0     H31768   2.248  11.827   3.743 -0.3615  3.5303 -0.6000
  241MOL0     H31769   2.156  11.790   3.894 -1.7031  2.1182  0.6788
  241MOL0     H31770   2.461  11.799   3.846  1.7432 -1.4506  2.3120
  241MOL0     H31771   2.415  11.868   3.995 -4.6396  1.5177  2.1086
  241MOL0     H31772   2.292  11.672   4.064  0.3701  0.0811  0.0292
  241MOL0     H31773   2.463  11.631   4.025  0.3083 -0.2626 -0.5315
  241MOL0     H31774   2.346  11.412   4.104  0.2943 -0.4746 -0.9269
  241MOL0     H31775   2.467  11.190   4.104 -4.7978 -0.9256 -0.3340
  241MOL0     H31776   2.742  10.964   3.571 -1.4691  1.6229  1.3260
  241MOL0     H31777   2.903  10.775   3.529  1.2499  2.5057 -0.6530
  241MOL0     H31778   3.175  10.605   3.856 -1.4699  0.8321  1.1379
  241MOL0     H31779   3.211  10.744   3.758 -0.0492  0.0504  0.9471
  241MOL0     H31780   3.296  10.595   3.574  2.3327 -1.1931  1.5444
  241MOL0     H31781   3.199  10.467   3.641 -0.2547  0.3481 -0.4902
  241MOL0     H31782   3.424  10.424   3.712  0.1979  0.3769 -1.4766
  241MOL0     H31783   3.357  10.495   3.850  0.6825  0.3679  0.3510
  241MOL0     H31784   3.506  10.629   3.614  1.8582  1.4180  1.1131
  241MOL0     H31785   3.475  10.706   3.773 -4.1382 -1.0087  1.6293
  241MOL0     H31786   3.639  10.454   3.695  1.2210 -0.3024  1.1768
  241MOL0     H31787   3.636  10.518   3.863  0.4933  0.3145  0.6456
  241MOL0     H31788   3.845  10.594   3.763  0.0457  0.2828  0.4552
  241MOL0     H31789   3.732  10.728   3.757 -0.5424 -0.1020 -0.7742
  241MOL0     H31790   3.765  10.549   3.515  0.1794 -0.2287 -0.2479
  241MOL0     H31791   3.688  10.702   3.527  1.3920 -1.4939 -1.5236
  241MOL0     H31792   3.901  10.814   3.574  0.0525  0.1347 -1.5500
  241MOL0     H31793   3.908  10.736   3.424 -0.8971 -0.0857 -1.2520
  241MOL0     H31794   2.991  10.734   3.946 -2.8104  1.5293  3.1710
  241MOL0     H31795   2.820  10.919   3.993 -0.1949  1.2409 -0.6996
  241MOL0     H31796   2.581  11.247   3.703  1.9448 -1.4051  2.4482
  241MOL0     H31797   2.423  11.457   3.695  0.5932 -0.4986 -1.2415
  241MOL0     H31798   1.180  11.569   3.946 -1.7901 -1.4041  2.9678
  241MOL0     H31799   1.174  11.321   3.893  1.4146  0.0757 -0.1481
  241MOL0     H31800   0.803  10.966   3.508 -0.5418  0.7341  0.2952
  241MOL0     H31801   0.818  10.721   3.519 -0.8348 -0.4363  0.8993
  241MOL0     H31802   1.105  10.554   3.525  0.7896 -3.0072 -1.1605
  241MOL0     H31803   0.978  10.447   3.565 -0.0843 -2.5582  2.5280
  241MOL0     H31804   1.249  10.485   3.703  2.5682 -2.6756  0.8904
  241MOL0     H31805   1.120  10.387   3.780  0.9620 -2.3946 -0.1707
  241MOL0     H31806   1.262  10.327   3.514 -2.4535  2.1357 -0.9700
  241MOL0     H31807   1.119  10.238   3.583  0.0118  2.2427 -5.8836
  241MOL0     H31808   1.254  10.191   3.796 -1.2416  0.6111 -0.2642
  241MOL0     H31809   1.294  10.100   3.656  2.1798  0.1067 -0.9555
  241MOL0     H31810   1.640  10.362   3.693 -0.6281  0.4101  1.3887
  241MOL0     H31811   1.150  10.748   3.788  0.1259  0.6295 -0.1763
  241MOL0     H31812   1.141  11.003   3.758 -0.2743 -1.4507  0.2422
  242MOL0     O31813   6.981   0.287  10.878 -0.3653  0.4800  0.0212
  242MOL0     C31814   7.057   0.362  10.832  1.0155  0.7459  0.1705
  242MOL0     O31815   7.029   0.491  10.803 -0.3075  0.4233 -1.0280
  242MOL0     C31816   6.904   0.538  10.841  0.2450  0.2878 -1.4234
  242MOL0     C31817   6.900   0.664  10.915  0.0140  0.4802 -1.2141
  242MOL0     C31818   6.776   0.717  10.952 -0.3425 -0.1300 -0.7884
  242MOL0     C31819   6.656   0.644  10.927 -0.1367  0.1153 -0.4566
  242MOL0     O31820   6.530   0.679  10.960 -0.1268  0.4444  0.5509
  242MOL0     C31821   6.493   0.824  10.961  0.3061  0.8481 -1.0611
  242MOL0     C31822   6.347   0.858  10.954  0.8526 -0.3925 -0.8476
  242MOL0     C31823   6.295   0.827  10.817 -0.7426 -0.1026  0.2439
  242MOL0     C31824   6.161   0.887  10.790 -0.0337 -0.4158  0.7375
  242MOL0     C31825   6.041   0.823  10.866  0.2803 -0.1438  0.7076
  242MOL0     C31826   5.905   0.882  10.805  0.0389 -0.2676  0.0413
  242MOL0     C31827   5.787   0.854  10.899  0.1393  0.6330 -0.0332
  242MOL0     C31828   5.645   0.863  10.840 -0.4683 -0.7296  0.3215
  242MOL0     N31829   5.569   0.978  10.901 -0.0398  0.0098 -0.5789
  242MOL0     C31830   5.508   0.981  11.019 -0.6776  1.2101  0.1991
  242MOL0     C31831   5.485   1.107  11.041 -0.1067  0.0943  0.2985
  242MOL0     C31832   5.392   1.160  11.154 -0.6474 -0.5681 -0.1223
  242MOL0     C31833   5.254   1.208  11.096 -0.1924 -0.2756 -0.4588
  242MOL0     C31834   5.261   1.356  11.045  0.3889  0.4657  0.6215
  242MOL0     C31835   5.137   1.403  10.982  0.5148  1.3597  0.1102
  242MOL0     O31836   5.150   1.538  10.937  0.8325 -0.6262 -0.0071
  242MOL0     C31837   5.037   1.615  10.919  0.7733  0.5653  0.1469
  242MOL0     C31838   4.907   1.570  10.927 -0.9603  0.4854 -0.5399
  242MOL0     C31839   4.809   1.662  10.928 -0.6264 -0.2438  0.3113
  242MOL0     C31840   4.827   1.800  10.907 -0.3449  0.0129 -0.4715
  242MOL0     C31841   4.723   1.896  10.900 -0.1972 -0.2815  0.4359
  242MOL0     O31842   4.766   2.028  10.879 -0.3036 -0.5038 -0.5054
  242MOL0     C31843   4.691   2.136  10.911 -0.2226 -1.1759  0.6954
  242MOL0     C31844   4.761   2.243  10.953  0.2422 -0.1538 -0.1256
  242MOL0     C31845   4.693   2.353  10.981  0.8149 -0.2125  0.1271
  242MOL0     C31846   4.556   2.378  10.958 -1.2048 -0.2739 -0.2482
  242MOL0     O31847   4.498   2.500  10.962  0.7120  0.5573  0.2890
  242MOL0     C31848   4.584   2.618  10.943  0.2815 -0.4399 -0.0257
  242MOL0     C31849   4.491   2.746  10.929  0.4934  0.8137 -0.0060
  242MOL0     C31850   4.385   2.754  11.044  0.6490  0.8339 -0.5369
  242MOL0     C31851   4.312   2.896  11.040 -0.6376  0.7768 -0.3444
  242MOL0     C31852   4.231   2.933  11.152  0.1617 -0.4030 -0.8231
  242MOL0     C31853   4.157   3.073  11.121  0.2540 -0.2762 -0.0116
  242MOL0     C31854   4.055   3.080  11.235 -1.3250  0.3970 -0.0026
  242MOL0     C31855   3.954   3.203  11.223  0.1402  0.6094 -0.0036
  242MOL0    Cl31856   4.044   3.344  11.162 -0.0828 -0.3005  0.0389
  242MOL0     C31857   4.486   2.271  10.921 -0.3376 -1.1104 -0.9456
  242MOL0     C31858   4.549   2.150  10.900  0.4069  1.0666 -0.2960
  242MOL0     O31859   4.604   1.851  10.897  0.2244 -0.0650  0.2230
  242MOL0     C31860   4.959   1.839  10.891 -0.4490  0.0518 -0.9391
  242MOL0     C31861   5.066   1.749  10.905  0.4874  0.2005 -0.2617
  242MOL0     N31862   5.521   1.186  10.929 -0.7875 -0.0852 -0.2035
  242MOL0     N31863   5.576   1.105  10.848  0.8521  0.5205  0.1397
  242MOL0     C31864   6.659   0.530  10.845 -0.3377 -0.5834  0.5041
  242MOL0     C31865   6.776   0.481  10.811  0.6137  0.2107  0.6202
  242MOL0     C31866   7.177   0.292  10.785  0.1123  0.2772 -0.4045
  242MOL0     C31867   7.276   0.362  10.718  1.0044  0.7701  0.1596
  242MOL0     C31868   7.400   0.306  10.695 -0.5112  0.4262 -1.2158
  242MOL0     C31869   7.436   0.181  10.743  0.6067 -0.3926 -0.3380
  242MOL0     O31870   7.565   0.129  10.729 -0.3822  0.5306  0.9741
  242MOL0     C31871   7.609   0.007  10.787 -0.3325 -0.1211 -0.6396
  242MOL0     C31872   7.634   0.004  10.941 -0.0834 -0.1811  0.2209
  242MOL0     C31873   7.730   0.108  11.005 -0.1359 -1.1372  0.3846
  242MOL0     C31874   7.706   0.114  11.158  0.6951  0.8842  0.7632
  242MOL0     C31875   7.745  -0.008  11.231 -0.0073  0.7982 -0.5408
  242MOL0     C31876   7.773  -0.112  11.288  0.4528 -0.5973 -0.0880
  242MOL0     C31877   7.333   0.105  10.808  0.1288 -0.4039 -0.0144
  242MOL0     C31878   7.210   0.158  10.830  0.2467 -0.2190 -0.2772
  242MOL0     H31879   6.995   0.712  10.936  0.0455 -1.1747  4.0347
  242MOL0     H31880   6.778   0.801  11.020 -1.1388 -0.4296 -0.3864
  242MOL0     H31881   6.545   0.877  10.880 -0.7396  0.1917 -2.1917
  242MOL0     H31882   6.525   0.872  11.054 -3.7594 -0.7943  1.4517
  242MOL0     H31883   6.349   0.967  10.957  1.6778 -0.4296  0.9198
  242MOL0     H31884   6.295   0.814  11.039 -2.6180 -0.4800 -2.8414
  242MOL0     H31885   6.298   0.718  10.815 -0.3099 -0.1582 -3.7133
  242MOL0     H31886   6.363   0.865  10.740 -3.4123 -2.2958 -3.5494
  242MOL0     H31887   6.168   0.994  10.811  0.4632  0.4451 -3.1046
  242MOL0     H31888   6.132   0.892  10.685 -1.9076 -0.6888  1.2124
  242MOL0     H31889   6.054   0.854  10.970 -0.5360  2.8026  0.0229
  242MOL0     H31890   6.034   0.714  10.854 -1.9856 -0.0443  0.7022
  242MOL0     H31891   5.884   0.821  10.716  3.1380 -0.6055 -0.5617
  242MOL0     H31892   5.912   0.987  10.777 -1.6345 -0.0537  0.2911
  242MOL0     H31893   5.802   0.749  10.925  1.4554  0.0176 -2.8567
  242MOL0     H31894   5.794   0.896  10.999 -0.1809  2.1645 -0.6262
  242MOL0     H31895   5.582   0.782  10.878 -1.7891  1.2478  2.6108
  242MOL0     H31896   5.646   0.861  10.731  1.7054  0.8335  0.2523
  242MOL0     H31897   5.483   0.888  11.069 -0.0956  2.0199  2.0902
  242MOL0     H31898   5.437   1.243  11.208 -0.0800  0.6192 -2.3209
  242MOL0     H31899   5.387   1.081  11.229  2.2289 -0.9626 -0.2252
  242MOL0     H31900   5.177   1.173  11.165  1.5099 -0.6428  1.3115
  242MOL0     H31901   5.221   1.162  11.002  1.7560  2.8952 -2.9286
  242MOL0     H31902   5.279   1.423  11.129 -0.9192 -1.2833  2.4081
  242MOL0     H31903   5.337   1.364  10.967  1.3680  0.3582  1.5440
  242MOL0     H31904   5.051   1.392  11.049 -0.0977 -0.1421 -0.8810
  242MOL0     H31905   5.127   1.341  10.893  0.4608  2.1516 -0.4483
  242MOL0     H31906   4.881   1.464  10.930 -0.0031  0.2558 -0.2463
  242MOL0     H31907   4.714   1.619  10.957  0.1943 -0.1245  3.6164
  242MOL0     H31908   4.867   2.229  10.972  0.2577  1.9937  1.7514
  242MOL0     H31909   4.742   2.441  11.021  1.4974 -0.2952 -0.5208
  242MOL0     H31910   4.644   2.609  10.852  0.7068 -1.2589  0.3221
  242MOL0     H31911   4.655   2.633  11.025  0.7653 -0.0884 -0.4975
  242MOL0     H31912   4.447   2.741  10.830  2.7162 -0.5579 -1.0055
  242MOL0     H31913   4.546   2.841  10.930 -0.2946  1.3844 -2.8167
  242MOL0     H31914   4.439   2.752  11.140 -0.7520  5.4523  0.6073
  242MOL0     H31915   4.322   2.665  11.038 -0.9589  1.9504 -0.7029
  242MOL0     H31916   4.392   2.968  11.027 -1.3613  1.5200 -0.7848
  242MOL0     H31917   4.252   2.892  10.948 -4.5496  0.5018  2.0168
  242MOL0     H31918   4.295   2.947  11.240 -0.4709 -0.1994 -0.3906
  242MOL0     H31919   4.153   2.864  11.184 -0.8836  0.9295 -0.3680
  242MOL0     H31920   4.115   3.081  11.021 -0.3832 -0.2519  0.2525
  242MOL0     H31921   4.232   3.152  11.120  1.2104 -0.9970  2.9548
  242MOL0     H31922   3.991   2.991  11.239 -1.2657  0.3954  1.5027
  242MOL0     H31923   4.106   3.101  11.330  0.5738  1.7232 -1.2354
  242MOL0     H31924   3.897   3.226  11.313  0.4871 -1.2974  0.7521
  242MOL0     H31925   3.883   3.187  11.141  0.8210  0.7102 -0.6296
  242MOL0     H31926   4.379   2.282  10.901 -1.4978 -3.5265  2.8074
  242MOL0     H31927   4.478   2.073  10.872  1.0284  0.6044 -0.6384
  242MOL0     H31928   4.996   1.938  10.868  1.8750 -0.1690  1.3348
  242MOL0     H31929   5.170   1.778  10.893  0.6601 -0.0457  0.5779
  242MOL0     H31930   6.567   0.479  10.817  0.8164 -1.1741 -2.5800
  242MOL0     H31931   6.769   0.385  10.761 -0.8111  0.7182 -0.2196
  242MOL0     H31932   7.254   0.462  10.682  2.4630  1.9679  2.3619
  242MOL0     H31933   7.474   0.369  10.647 -1.2249  1.8731 -0.4850
  242MOL0     H31934   7.705  -0.019  10.741 -0.5519 -1.4419 -0.4035
  242MOL0     H31935   7.531  -0.067  10.766 -2.2393  2.1795 -2.2884
  242MOL0     H31936   7.540   0.012  10.996  0.0210  0.6457  0.2961
  242MOL0     H31937   7.669  -0.095  10.970  0.4347 -0.6328 -1.7736
  242MOL0     H31938   7.707   0.210  10.972  3.8786 -0.2918 -0.3023
  242MOL0     H31939   7.835   0.092  10.977  0.6362  4.0433 -0.6975
  242MOL0     H31940   7.760   0.196  11.206  0.4998  1.7141 -0.3860
  242MOL0     H31941   7.601   0.140  11.175 -0.1241 -1.3495 -0.4118
  242MOL0     H31942   7.788  -0.207  11.335  0.7020 -0.2487  0.5639
  242MOL0     H31943   7.346  -0.001  10.830  0.5411 -0.2028  0.7666
  242MOL0     H31944   7.147   0.099  10.897  2.9698 -0.8788  1.9049
  243MOL0     O31945   2.031   2.134   0.367  0.5606 -1.0063  0.1855
  243MOL0     C31946   2.089   2.085   0.269 -0.6884  0.5715  0.3137
  243MOL0     O31947   2.040   1.980   0.188  0.2557 -0.1573 -0.1920
  243MOL0     C31948   1.921   1.916   0.208 -0.1335  0.5760 -0.8187
  243MOL0     C31949   1.851   1.879   0.097 -0.5764  0.4660 -0.4060
  243MOL0     C31950   1.730   1.816   0.121  0.1644  0.5536  0.1976
  243MOL0     C31951   1.672   1.781   0.246  0.1625 -0.8982  0.8538
  243MOL0     O31952   1.551   1.710   0.264 -0.2558 -0.1875 -0.7549
  243MOL0     C31953   1.451   1.715   0.166  0.7026  0.3430  0.2324
  243MOL0     C31954   1.354   1.592   0.194 -0.2924 -0.6650 -1.1907
  243MOL0     C31955   1.240   1.575   0.097 -0.3426  0.4148  0.2179
  243MOL0     C31956   1.149   1.471   0.145  0.3650  1.0113 -0.4169
  243MOL0     C31957   1.000   1.493   0.163  0.9254 -0.4206  0.1308
  243MOL0     C31958   0.921   1.491   0.026  0.3545 -0.7489 -0.1639
  243MOL0     C31959   0.767   1.503   0.040  0.0761  0.7037 -0.4568
  243MOL0     C31960   0.709   1.367   0.077 -1.0371  0.0798 -0.4917
  243MOL0     N31961   0.565   1.373   0.110  1.0330  0.0017 -0.3541
  243MOL0     C31962   0.502   1.471   0.188  0.1823 -0.8902  0.3346
  243MOL0     C31963   0.365   1.442   0.184 -0.2153 -0.7732  0.0995
  243MOL0     C31964   0.278   1.532   0.269 -0.4429 -0.5882  0.0988
  243MOL0     C31965   0.247   1.461   0.396 -0.1108 -0.0391 -0.4863
  243MOL0     C31966   0.110   1.517   0.452  0.0839  0.1278  0.6546
  243MOL0     C31967   0.110   1.501   0.607  0.1934 -0.9770  0.2894
  243MOL0     O31968   0.068   1.377   0.659 -0.4800  0.4741  0.0276
  243MOL0     C31969  -0.069   1.345   0.643 -0.5870  0.3978  0.5924
  243MOL0     C31970  -0.171   1.423   0.594 -0.2097 -0.0815  0.4878
  243MOL0     C31971  -0.308   1.378   0.593 -0.0357 -0.1521 -0.3692
  243MOL0     C31972  -0.330   1.249   0.652  0.5726  0.4617  0.0229
  243MOL0     C31973  -0.477   1.201   0.660  0.3664 -0.4002  0.3773
  243MOL0     O31974  -0.579   1.280   0.623  0.0210 -0.5039  0.3508
  243MOL0     C31975  -0.708   1.222   0.596 -0.0526 -1.2755  0.5038
  243MOL0     C31976  -0.777   1.132   0.681  0.4185 -0.0005 -0.6119
  243MOL0     C31977  -0.906   1.080   0.635 -0.0107 -0.6743  0.0473
  243MOL0     C31978  -0.957   1.118   0.507  0.3082  0.1400 -0.3297
  243MOL0     O31979  -1.058   1.073   0.439  1.0004  0.0539  1.2705
  243MOL0     C31980  -1.091   0.931   0.460 -0.7975  0.6753 -0.2793
  243MOL0     C31981  -1.216   0.921   0.368  0.5792 -0.1466 -0.5414
  243MOL0     C31982  -1.245   0.775   0.326  0.5468 -0.5616  0.9272
  243MOL0     C31983  -1.373   0.759   0.246 -0.2595  0.6743  0.2849
  243MOL0     C31984  -1.416   0.618   0.227 -0.5019  0.6994 -0.7494
  243MOL0     C31985  -1.340   0.528   0.138 -0.2337  0.1578  0.1758
  243MOL0     C31986  -1.395   0.390   0.152 -0.7263 -0.2535 -0.5173
  243MOL0     C31987  -1.360   0.309   0.026  0.3316  0.4973  0.4583
  243MOL0    Cl31988  -1.451   0.338  -0.128 -0.0235  0.5096 -0.6381
  243MOL0     C31989  -0.893   1.211   0.431  0.2670 -0.4025  0.2819
  243MOL0     C31990  -0.764   1.262   0.471  0.0440  0.3911 -0.8021
  243MOL0     O31991  -0.487   1.075   0.688 -0.4726 -0.2121  0.4966
  243MOL0     C31992  -0.238   1.173   0.711 -1.0185  0.2406 -0.4301
  243MOL0     C31993  -0.105   1.226   0.706  1.0000  0.6303  0.1420
  243MOL0     N31994   0.348   1.332   0.108 -0.5978 -0.0250  0.9332
  243MOL0     N31995   0.466   1.302   0.052 -0.1500  0.3540 -0.1322
  243MOL0     C31996   1.750   1.823   0.354 -0.2392  0.3875  0.3088
  243MOL0     C31997   1.872   1.891   0.335 -0.6075  0.3810 -0.6751
  243MOL0     C31998   2.230   2.126   0.239  0.4605 -0.1934 -0.4195
  243MOL0     C31999   2.303   2.079   0.124 -0.2914 -0.1642 -0.3488
  243MOL0     C32000   2.435   2.111   0.106 -0.2241 -0.3605 -1.3357
  243MOL0     C32001   2.506   2.181   0.204  0.5498 -0.8191  0.1136
  243MOL0     O32002   2.645   2.195   0.189  0.6192 -0.4406  0.2796
  243MOL0     C32003   2.678   2.337   0.184  0.6661  0.5703 -0.0363
  243MOL0     C32004   2.740   2.343   0.042  0.3760  0.0909  0.4844
  243MOL0     C32005   2.875   2.276   0.028 -0.2454  0.0481  0.2345
  243MOL0     C32006   2.950   2.334  -0.098  0.3035  0.6261 -0.6247
  243MOL0     C32007   3.035   2.442  -0.059  0.2008 -0.7183  0.1236
  243MOL0     C32008   3.087   2.543  -0.012 -1.0310  0.3770  0.6747
  243MOL0     C32009   2.440   2.228   0.317 -0.1921  0.5565  0.2471
  243MOL0     C32010   2.299   2.202   0.338  0.0878 -0.7659  0.2757
  243MOL0     H32011   1.874   1.900  -0.006 -2.8738 -0.8177 -1.2626
  243MOL0     H32012   1.676   1.787   0.031 -0.9741  0.5795  0.8578
  243MOL0     H32013   1.484   1.711   0.062  1.5378  3.4867  0.2867
  243MOL0     H32014   1.393   1.807   0.172  1.7133  1.1826 -1.9284
  243MOL0     H32015   1.323   1.603   0.299 -0.1770  0.5805 -1.2742
  243MOL0     H32016   1.423   1.507   0.187  2.7831  1.6375 -0.6224
  243MOL0     H32017   1.282   1.556  -0.002  2.2524 -1.3526  1.5321
  243MOL0     H32018   1.188   1.671   0.090  0.4697  0.8341 -0.2923
  243MOL0     H32019   1.168   1.380   0.087  1.3619  0.1465  1.1977
  243MOL0     H32020   1.170   1.437   0.247 -0.8438  2.4371  0.3347
  243MOL0     H32021   0.981   1.585   0.218  2.4470  1.4824 -2.3421
  243MOL0     H32022   0.958   1.411   0.222 -1.1877  0.6827  0.2527
  243MOL0     H32023   0.932   1.396  -0.029 -2.2801 -1.7125  0.7937
  243MOL0     H32024   0.955   1.583  -0.022 -0.2139 -0.0124  0.8124
  243MOL0     H32025   0.747   1.585   0.110 -1.0251 -0.1749  0.3013
  243MOL0     H32026   0.721   1.522  -0.057  1.3561  0.9305 -1.0359
  243MOL0     H32027   0.753   1.322   0.166  0.9818 -2.6343 -2.6908
  243MOL0     H32028   0.719   1.293  -0.003  1.0513 -0.8027  0.5070
  243MOL0     H32029   0.551   1.551   0.242  0.9502 -0.7300 -0.5717
  243MOL0     H32030   0.192   1.557   0.207 -0.1997  0.1225  0.0342
  243MOL0     H32031   0.327   1.627   0.296  1.4877 -2.0199  1.9877
  243MOL0     H32032   0.332   1.457   0.466  0.3934 -0.2916 -1.1064
  243MOL0     H32033   0.212   1.360   0.371 -2.7524  0.4139  0.9554
  243MOL0     H32034   0.103   1.625   0.438 -3.0380  0.3505  2.8235
  243MOL0     H32035   0.024   1.468   0.405  0.5688 -1.3616  1.2849
  243MOL0     H32036   0.049   1.585   0.643 -2.9494 -1.0225 -4.0873
  243MOL0     H32037   0.212   1.526   0.636  0.3389  0.9957 -1.6121
  243MOL0     H32038  -0.147   1.520   0.552  1.8682 -0.7474  0.0146
  243MOL0     H32039  -0.393   1.435   0.558 -1.5711 -1.1259  1.5265
  243MOL0     H32040  -0.736   1.097   0.775 -1.1748  0.3057  0.2450
  243MOL0     H32041  -0.965   1.010   0.692 -1.8272  0.9515  0.2540
  243MOL0     H32042  -1.115   0.903   0.562  2.8101 -1.4719  0.1528
  243MOL0     H32043  -1.009   0.867   0.428  0.0366  2.1558 -1.2344
  243MOL0     H32044  -1.202   0.981   0.277 -1.7742 -0.2743 -1.0675
  243MOL0     H32045  -1.293   0.968   0.429  0.0787 -1.3596 -0.2165
  243MOL0     H32046  -1.263   0.698   0.402 -0.7737  0.9322  2.2119
  243MOL0     H32047  -1.169   0.734   0.259  0.2199 -1.1411  0.9083
  243MOL0     H32048  -1.449   0.816   0.301 -0.7018 -0.7524  1.2087
  243MOL0     H32049  -1.364   0.812   0.151  2.7023 -1.6036 -0.8634
  243MOL0     H32050  -1.517   0.629   0.185 -1.7282 -1.8822  1.2505
  243MOL0     H32051  -1.440   0.561   0.317  2.9457 -0.5960 -0.5296
  243MOL0     H32052  -1.238   0.527   0.177 -0.4516  1.7922  0.8756
  243MOL0     H32053  -1.336   0.567   0.036 -0.7478  1.3814  0.5984
  243MOL0     H32054  -1.352   0.346   0.243  0.5194  2.3744  0.2399
  243MOL0     H32055  -1.504   0.378   0.156 -0.7069 -0.2879 -0.0821
  243MOL0     H32056  -1.368   0.201   0.039 -0.2449  0.3060 -1.2517
  243MOL0     H32057  -1.256   0.336   0.009  0.1624  1.9068  1.4318
  243MOL0     H32058  -0.932   1.256   0.340  1.4563  1.7472  0.7518
  243MOL0     H32059  -0.712   1.328   0.403 -3.1325  1.9392 -1.9415
  243MOL0     H32060  -0.256   1.089   0.778  2.8671 -0.8094 -0.4392
  243MOL0     H32061  -0.028   1.182   0.768 -1.6278 -0.4866  2.8654
  243MOL0     H32062   1.719   1.799   0.455 -0.1558 -2.3657 -0.2600
  243MOL0     H32063   1.945   1.907   0.414 -0.4806  1.3990 -0.9894
  243MOL0     H32064   2.250   2.014   0.055 -2.3892 -1.0325  1.9421
  243MOL0     H32065   2.491   2.075   0.021 -1.3027 -2.5766 -1.1797
  243MOL0     H32066   2.753   2.368   0.258  1.0573 -2.3790  0.9677
  243MOL0     H32067   2.593   2.402   0.203  0.9922  0.8356  0.5523
  243MOL0     H32068   2.675   2.291  -0.030  1.2372  2.7656 -2.4677
  243MOL0     H32069   2.752   2.445   0.004  0.8856  0.3574  1.3438
  243MOL0     H32070   2.864   2.168   0.014 -0.2865 -0.0524  0.9724
  243MOL0     H32071   2.936   2.288   0.118 -1.4783 -1.4556  1.3295
  243MOL0     H32072   3.012   2.250  -0.130  0.0235  0.3585 -0.4709
  243MOL0     H32073   2.878   2.360  -0.177  0.4320 -0.6174 -1.1751
  243MOL0     H32074   3.113   2.640   0.023  0.5057  0.0764  0.4330
  243MOL0     H32075   2.502   2.291   0.379  0.2299 -0.0308  0.4307
  243MOL0     H32076   2.265   2.235   0.436  3.6869 -1.7956  2.0393
  244MOL0     O32077   3.425   1.104   2.718  0.2882 -0.3952 -1.0072
  244MOL0     C32078   3.478   1.105   2.608 -0.2314  0.1216 -0.6306
  244MOL0     O32079   3.412   1.077   2.497 -0.1080 -0.0575  0.7737
  244MOL0     C32080   3.276   1.087   2.500 -0.1835  0.4620 -0.0019
  244MOL0     C32081   3.207   1.195   2.556 -0.0062 -0.4015 -0.1098
  244MOL0     C32082   3.068   1.194   2.559 -0.3188  0.2776 -0.1762
  244MOL0     C32083   2.996   1.098   2.500 -0.0662  0.8474  0.1035
  244MOL0     O32084   2.855   1.100   2.479 -0.0043  0.1465  0.2402
  244MOL0     C32085   2.783   1.212   2.536 -0.1418 -0.3453 -0.3183
  244MOL0     C32086   2.633   1.190   2.496 -0.2807 -0.6482  0.5711
  244MOL0     C32087   2.565   1.316   2.544  0.3136 -1.1278 -0.3400
  244MOL0     C32088   2.508   1.296   2.689 -0.2524 -0.1796  0.1045
  244MOL0     C32089   2.421   1.404   2.743  0.2417 -0.0104 -0.6166
  244MOL0     C32090   2.281   1.422   2.672  0.1331  0.4845 -1.1421
  244MOL0     C32091   2.179   1.312   2.703  0.3103 -0.8510 -0.0629
  244MOL0     C32092   2.052   1.341   2.626 -0.4304 -0.0943 -0.6716
  244MOL0     N32093   1.962   1.424   2.694 -0.6953  1.0838 -1.6270
  244MOL0     C32094   1.888   1.519   2.639  0.1734 -0.1020 -0.1570
  244MOL0     C32095   1.786   1.541   2.724 -0.2329 -1.1782  0.0245
  244MOL0     C32096   1.679   1.636   2.704 -0.3600  0.9182 -0.0101
  244MOL0     C32097   1.568   1.563   2.628 -0.2324  0.3814  0.3302
  244MOL0     C32098   1.468   1.675   2.587 -0.8018 -0.0627 -1.3347
  244MOL0     C32099   1.357   1.608   2.500  0.1263 -0.7524  0.4037
  244MOL0     O32100   1.293   1.505   2.569  0.0819  1.0154  0.3941
  244MOL0     C32101   1.193   1.437   2.503 -0.1126 -0.7735 -0.3174
  244MOL0     C32102   1.106   1.374   2.591 -0.5163 -0.8062 -0.0425
  244MOL0     C32103   0.986   1.322   2.542 -0.1210 -0.0587 -0.8487
  244MOL0     C32104   0.965   1.319   2.408  0.8002  0.6182  0.2509
  244MOL0     C32105   0.837   1.276   2.343  0.5700 -0.3507  0.5343
  244MOL0     O32106   0.748   1.217   2.422  0.2505 -0.6427 -0.1692
  244MOL0     C32107   0.617   1.210   2.375 -0.1761 -0.5802  0.0500
  244MOL0     C32108   0.527   1.269   2.460  0.0038  0.3715  0.3120
  244MOL0     C32109   0.394   1.289   2.413 -0.1674 -0.3364 -0.3913
  244MOL0     C32110   0.352   1.245   2.289 -0.3090 -1.1583  0.0606
  244MOL0     O32111   0.228   1.241   2.240  0.2497  0.1107  0.7936
  244MOL0     C32112   0.151   1.364   2.248 -0.0075 -0.6991 -0.9311
  244MOL0     C32113   0.008   1.348   2.193 -0.4729 -0.2002  0.1505
  244MOL0     C32114   0.019   1.329   2.036  0.3077  0.2243  0.0490
  244MOL0     C32115  -0.116   1.287   1.968  0.8680  0.4954 -0.5865
  244MOL0     C32116  -0.214   1.400   1.932 -1.0612 -0.2306 -0.4564
  244MOL0     C32117  -0.161   1.470   1.812 -0.4812 -0.4323  0.9327
  244MOL0     C32118  -0.168   1.621   1.819 -0.0491  0.0576 -0.9186
  244MOL0     C32119  -0.302   1.687   1.856  0.2618  0.6786  0.5107
  244MOL0    Cl32120  -0.441   1.631   1.763 -0.0789  0.2887  0.0185
  244MOL0     C32121   0.440   1.176   2.209 -0.0827  0.6145  0.1013
  244MOL0     C32122   0.565   1.144   2.256  0.1336 -0.0756  0.2302
  244MOL0     O32123   0.819   1.316   2.224 -0.1034  0.2444 -0.0026
  244MOL0     C32124   1.055   1.385   2.323  0.4313  0.5098  0.1793
  244MOL0     C32125   1.176   1.431   2.373 -0.0961 -1.0325  0.8405
  244MOL0     N32126   1.800   1.466   2.838 -0.3414  0.3206  0.0965
  244MOL0     N32127   1.906   1.385   2.806 -0.2328 -0.1791 -0.6348
  244MOL0     C32128   3.063   0.992   2.437 -0.0791 -0.2523 -0.5233
  244MOL0     C32129   3.195   0.986   2.433 -0.6630  0.2761 -0.4343
  244MOL0     C32130   3.626   1.127   2.604 -0.4711 -1.1121  0.0073
  244MOL0     C32131   3.700   1.106   2.719  0.4911  0.3384  0.2413
  244MOL0     C32132   3.832   1.133   2.731  0.2966  0.1339  0.0913
  244MOL0     C32133   3.914   1.183   2.625  0.9225 -0.9745  0.4725
  244MOL0     O32134   4.052   1.209   2.628  0.2806 -0.4637  0.6312
  244MOL0     C32135   4.114   1.224   2.757  0.2226 -0.5860  1.0104
  244MOL0     C32136   4.149   1.078   2.803  0.0308 -1.1816 -0.0958
  244MOL0     C32137   4.291   1.031   2.732 -0.3925  0.0053 -0.4344
  244MOL0     C32138   4.290   1.017   2.570  0.3819 -0.7854 -0.4349
  244MOL0     C32139   4.428   0.961   2.527 -0.5759 -0.2809 -0.3096
  244MOL0     C32140   4.542   0.918   2.518 -1.3372  0.0545  0.5663
  244MOL0     C32141   3.837   1.193   2.506  0.5564 -0.3024  0.2670
  244MOL0     C32142   3.700   1.170   2.496  0.1532  0.0389 -0.2948
  244MOL0     H32143   3.252   1.282   2.602 -1.5595 -1.1688  3.2103
  244MOL0     H32144   3.019   1.268   2.622 -2.5834 -0.9972 -0.3556
  244MOL0     H32145   2.824   1.309   2.507  1.7462 -1.6102 -2.1169
  244MOL0     H32146   2.779   1.211   2.645  1.6260 -4.3479 -0.1203
  244MOL0     H32147   2.587   1.101   2.540 -0.9279  0.2899  1.8748
  244MOL0     H32148   2.638   1.194   2.387 -0.7561  3.1985  0.5336
  244MOL0     H32149   2.482   1.339   2.476 -0.6663 -3.0965  0.1246
  244MOL0     H32150   2.624   1.408   2.543 -4.4216  2.3375  0.7778
  244MOL0     H32151   2.440   1.210   2.686 -1.7013  0.8644  1.4949
  244MOL0     H32152   2.589   1.278   2.761  0.6513  2.4583 -0.1393
  244MOL0     H32153   2.470   1.502   2.741 -2.2286  1.3054 -2.8232
  244MOL0     H32154   2.402   1.375   2.847 -1.6394  1.4751 -0.4967
  244MOL0     H32155   2.302   1.425   2.565  3.2445 -1.0269 -0.6808
  244MOL0     H32156   2.248   1.520   2.707  0.8951 -0.6219  3.2249
  244MOL0     H32157   2.218   1.218   2.663  1.5094  0.3799 -1.9884
  244MOL0     H32158   2.149   1.294   2.806 -0.7007  0.9199 -0.0130
  244MOL0     H32159   1.994   1.252   2.601 -2.4222 -0.5071  4.2710
  244MOL0     H32160   2.072   1.387   2.529  3.5538  0.3290  0.1727
  244MOL0     H32161   1.903   1.556   2.538 -3.6091 -2.6799 -1.9195
  244MOL0     H32162   1.715   1.722   2.646  0.3098  0.3870 -0.4035
  244MOL0     H32163   1.651   1.672   2.803  1.2858 -0.9116  1.1804
  244MOL0     H32164   1.517   1.484   2.685  0.0063 -0.1997 -0.2395
  244MOL0     H32165   1.605   1.511   2.539  0.1996  0.7304  0.3063
  244MOL0     H32166   1.419   1.725   2.670 -1.9448 -2.6148 -0.3491
  244MOL0     H32167   1.507   1.751   2.518 -0.0936 -0.3146 -1.2195
  244MOL0     H32168   1.405   1.569   2.410  2.4518 -0.3569  1.4024
  244MOL0     H32169   1.287   1.683   2.462  0.9320 -0.4356 -0.4993
  244MOL0     H32170   1.126   1.397   2.695  3.5704  0.3284 -0.8835
  244MOL0     H32171   0.915   1.273   2.608 -0.1522 -2.8363 -2.7731
  244MOL0     H32172   0.555   1.292   2.563 -0.5766 -0.0484  0.5661
  244MOL0     H32173   0.327   1.331   2.488  0.2683 -1.1042  0.4485
  244MOL0     H32174   0.207   1.447   2.203  2.0250 -1.5280 -0.0876
  244MOL0     H32175   0.147   1.382   2.356 -0.4516 -2.6380 -0.5945
  244MOL0     H32176  -0.062   1.429   2.214 -1.7046 -0.8971 -1.1597
  244MOL0     H32177  -0.034   1.257   2.238 -2.4744  1.5949  2.1506
  244MOL0     H32178   0.100   1.258   2.018 -0.7266 -1.5271  1.8766
  244MOL0     H32179   0.046   1.430   2.004  1.3875  1.0284  3.1893
  244MOL0     H32180  -0.089   1.228   1.879  3.3308  1.6385 -0.7021
  244MOL0     H32181  -0.161   1.207   2.027  0.9095 -1.7851 -3.4363
  244MOL0     H32182  -0.233   1.460   2.022 -0.8523 -1.6972  0.6116
  244MOL0     H32183  -0.309   1.346   1.918 -0.7887 -0.2022 -2.6611
  244MOL0     H32184  -0.215   1.437   1.722  0.3943 -0.8583  0.5492
  244MOL0     H32185  -0.058   1.440   1.791 -0.2510  1.6448 -1.3319
  244MOL0     H32186  -0.094   1.646   1.895  1.2749 -1.8591 -1.4772
  244MOL0     H32187  -0.132   1.657   1.722  2.0702  0.9230  0.1408
  244MOL0     H32188  -0.292   1.796   1.848  1.4290  0.5296 -0.3692
  244MOL0     H32189  -0.314   1.679   1.964 -2.5645  2.7408  0.4610
  244MOL0     H32190   0.407   1.149   2.109 -2.1990 -2.3287  1.4484
  244MOL0     H32191   0.635   1.093   2.190  1.7214 -1.1009  2.5569
  244MOL0     H32192   1.045   1.400   2.216 -0.0299 -0.1998  0.1142
  244MOL0     H32193   1.244   1.447   2.290 -2.1759 -2.0896 -1.2094
  244MOL0     H32194   2.997   0.920   2.389  0.1658 -1.5296  0.9534
  244MOL0     H32195   3.243   0.897   2.395 -2.3066 -2.1132  2.5867
  244MOL0     H32196   3.645   1.064   2.803 -0.9758 -1.4480 -1.5398
  244MOL0     H32197   3.867   1.110   2.831 -2.5046  1.2051  1.4335
  244MOL0     H32198   4.047   1.272   2.829 -2.5369  0.1444 -1.8086
  244MOL0     H32199   4.205   1.284   2.749  0.7862 -1.6890 -1.9851
  244MOL0     H32200   4.142   1.082   2.913  0.2196  0.0030 -0.1142
  244MOL0     H32201   4.070   1.009   2.772 -1.4544 -1.0259  2.8929
  244MOL0     H32202   4.328   0.937   2.773  2.5292  1.1199 -0.2875
  244MOL0     H32203   4.366   1.108   2.751 -0.9107  0.1675  1.0696
  244MOL0     H32204   4.207   0.950   2.546 -1.3211  0.3037  2.0126
  244MOL0     H32205   4.262   1.114   2.528 -0.2341 -0.8835 -0.2608
  244MOL0     H32206   4.634   0.865   2.501  0.2928  2.7151  0.5056
  244MOL0     H32207   3.894   1.213   2.416  0.8069 -1.1400  0.2271
  244MOL0     H32208   3.662   1.170   2.394  1.9206 -1.7839 -1.0314
  245MOL0     O32209   6.710   0.462   4.348  0.3425  0.5979 -0.0829
  245MOL0     C32210   6.750   0.549   4.271  0.5020  0.8215  0.1985
  245MOL0     O32211   6.674   0.622   4.178  0.0554 -0.1784  0.3920
  245MOL0     C32212   6.541   0.589   4.159  0.0626  0.8774 -0.1579
  245MOL0     C32213   6.500   0.460   4.137  0.8727  0.2057 -0.3492
  245MOL0     C32214   6.364   0.434   4.101  0.4726 -0.1815  0.0726
  245MOL0     C32215   6.268   0.535   4.099 -0.1121  0.2587  0.6815
  245MOL0     O32216   6.136   0.523   4.069 -0.3143  0.1854  0.0290
  245MOL0     C32217   6.056   0.467   4.170  0.5957  0.5584  0.1659
  245MOL0     C32218   5.912   0.430   4.136 -0.7243 -0.3844 -0.6751
  245MOL0     C32219   5.840   0.534   4.064 -0.5093 -0.3337  0.5506
  245MOL0     C32220   5.724   0.491   3.978  0.3876 -0.7422 -0.0202
  245MOL0     C32221   5.631   0.613   3.954 -0.9652 -0.2055  0.3499
  245MOL0     C32222   5.529   0.575   3.837  0.9192  0.4929  0.6819
  245MOL0     C32223   5.428   0.459   3.868 -0.2429  0.0616  0.3359
  245MOL0     C32224   5.310   0.474   3.778 -0.5022 -0.0023  0.9692
  245MOL0     N32225   5.201   0.370   3.800 -1.3821 -0.4862 -0.1199
  245MOL0     C32226   5.134   0.371   3.917  0.6100  0.2851  0.4518
  245MOL0     C32227   5.066   0.252   3.915 -0.4134 -0.3611 -0.3367
  245MOL0     C32228   4.946   0.233   4.001 -0.1393 -0.2908  0.0502
  245MOL0     C32229   4.886   0.086   3.984 -0.1419 -0.0987  0.3628
  245MOL0     C32230   4.761   0.073   4.069 -0.5709  0.2540 -0.6915
  245MOL0     C32231   4.636   0.119   3.994 -0.3454 -0.2102  0.1816
  245MOL0     O32232   4.532   0.048   4.053 -0.1108 -0.6115 -0.2042
  245MOL0     C32233   4.399   0.075   4.017 -0.0912 -0.0486  0.5004
  245MOL0     C32234   4.332   0.191   4.055  0.7878 -0.0225 -0.8960
  245MOL0     C32235   4.194   0.211   4.021 -0.1369 -0.3626 -0.2258
  245MOL0     C32236   4.138   0.128   3.923  1.1497  0.6651 -0.1517
  245MOL0     C32237   4.007   0.171   3.867  0.1402 -0.3715  0.1945
  245MOL0     O32238   3.933   0.072   3.808 -0.1092  0.6036  0.8657
  245MOL0     C32239   3.817   0.113   3.757 -0.6623  0.5261  0.3659
  245MOL0     C32240   3.699   0.079   3.817 -0.8335  0.1293 -0.2837
  245MOL0     C32241   3.575   0.120   3.764 -0.0822  0.7567  0.2369
  245MOL0     C32242   3.566   0.184   3.641  0.1595 -0.7066 -0.5232
  245MOL0     O32243   3.447   0.191   3.581 -0.4023  0.1820  0.3235
  245MOL0     C32244   3.434   0.286   3.475  0.0681 -0.1115  0.8266
  245MOL0     C32245   3.284   0.312   3.450 -0.2369 -0.6731  0.0861
  245MOL0     C32246   3.217   0.378   3.582  0.2775 -0.0470  0.5543
  245MOL0     C32247   3.295   0.506   3.639  0.1914 -0.0343  0.1137
  245MOL0     C32248   3.246   0.555   3.776  0.0811 -0.2900  0.0853
  245MOL0     C32249   3.098   0.596   3.787 -0.2078 -0.0504 -0.7873
  245MOL0     C32250   3.056   0.723   3.705 -0.3057  0.4679 -0.0175
  245MOL0     C32251   3.091   0.863   3.766 -0.2593 -0.0722  0.5950
  245MOL0    Cl32252   3.016   0.881   3.925  0.0034 -0.3220  0.1035
  245MOL0     C32253   3.687   0.221   3.580 -0.3588  0.2162 -0.2374
  245MOL0     C32254   3.814   0.180   3.636  0.0055 -0.4420  0.4935
  245MOL0     O32255   3.992   0.294   3.854 -0.3703  0.3236 -0.2257
  245MOL0     C32256   4.196   0.005   3.899  0.0848 -0.0451  1.4254
  245MOL0     C32257   4.329  -0.023   3.938 -0.2032  0.7140 -0.2932
  245MOL0     N32258   5.088   0.190   3.797 -0.4061  0.3802 -0.5283
  245MOL0     N32259   5.177   0.255   3.735 -0.5479  1.2223 -0.0518
  245MOL0     C32260   6.316   0.657   4.112 -0.2087 -0.4651  0.4221
  245MOL0     C32261   6.446   0.686   4.137 -0.0608  0.7310  0.6625
  245MOL0     C32262   6.891   0.591   4.291 -1.3139  0.0727 -0.4944
  245MOL0     C32263   6.968   0.529   4.386 -0.2174  0.0150 -0.1730
  245MOL0     C32264   7.097   0.564   4.412 -0.1374  0.1353  0.2847
  245MOL0     C32265   7.153   0.666   4.337 -0.8551 -0.6969  0.1285
  245MOL0     O32266   7.277   0.719   4.358 -0.7894 -0.2622 -0.0522
  245MOL0     C32267   7.369   0.677   4.459  0.3766  0.3085  0.0264
  245MOL0     C32268   7.501   0.756   4.453 -0.0830  0.8623  0.0669
  245MOL0     C32269   7.485   0.895   4.391  0.2423 -0.8137  1.2257
  245MOL0     C32270   7.621   0.979   4.382 -0.1832  0.5102 -0.3026
  245MOL0     C32271   7.660   1.001   4.521  0.0950 -0.1055 -0.5174
  245MOL0     C32272   7.708   1.032   4.625 -0.8846 -0.8254 -0.5016
  245MOL0     C32273   7.080   0.722   4.229 -0.8376 -1.0798  2.1028
  245MOL0     C32274   6.951   0.684   4.204 -0.4529  0.2598  0.1007
  245MOL0     H32275   6.565   0.373   4.143  1.1121  0.2613 -1.6872
  245MOL0     H32276   6.337   0.332   4.075  1.7129  0.3863 -4.2436
  245MOL0     H32277   6.060   0.536   4.256  2.0551  0.5924  0.0974
  245MOL0     H32278   6.108   0.383   4.217  0.8188 -0.3666 -1.6823
  245MOL0     H32279   5.875   0.409   4.237  0.6865  1.1051  0.2030
  245MOL0     H32280   5.907   0.343   4.071  2.6055 -2.1985  1.2245
  245MOL0     H32281   5.916   0.580   3.998  1.0332 -0.1521  2.3734
  245MOL0     H32282   5.804   0.606   4.138  3.9943  0.0652  2.7161
  245MOL0     H32283   5.761   0.447   3.886 -0.2113 -0.8826 -0.1973
  245MOL0     H32284   5.671   0.414   4.035 -1.9973 -0.7774 -2.1330
  245MOL0     H32285   5.680   0.702   3.912  2.1815 -2.8929 -2.2861
  245MOL0     H32286   5.577   0.640   4.045 -2.1527 -1.2930 -0.0020
  245MOL0     H32287   5.588   0.521   3.762 -1.6233 -2.8513  0.8327
  245MOL0     H32288   5.483   0.664   3.794 -3.2030 -2.0988 -0.9765
  245MOL0     H32289   5.477   0.363   3.848  0.2933  0.3367  0.3227
  245MOL0     H32290   5.394   0.473   3.971  0.0718 -0.0213  0.4532
  245MOL0     H32291   5.335   0.459   3.672 -0.9213  2.1678  0.4999
  245MOL0     H32292   5.282   0.580   3.790 -1.5327 -0.4107  2.3580
  245MOL0     H32293   5.123   0.438   4.002  0.4146  0.6768  0.1209
  245MOL0     H32294   4.872   0.309   3.976  1.9037  1.0277 -2.3686
  245MOL0     H32295   4.974   0.251   4.106 -2.1370  0.5880  0.4909
  245MOL0     H32296   4.964   0.012   4.004  1.0693  0.2556 -2.5120
  245MOL0     H32297   4.848   0.065   3.883 -1.4750  2.7130  0.1845
  245MOL0     H32298   4.749  -0.032   4.099 -2.1529  0.8582  0.9601
  245MOL0     H32299   4.770   0.135   4.158  0.1466  0.1244 -0.6639
  245MOL0     H32300   4.649   0.096   3.887  0.8755  0.7242  0.0961
  245MOL0     H32301   4.629   0.228   4.000  2.7486  0.0236  4.1229
  245MOL0     H32302   4.377   0.273   4.109  0.0146 -1.0834  1.4851
  245MOL0     H32303   4.140   0.298   4.056 -1.0418  0.0091 -2.4290
  245MOL0     H32304   3.704   0.018   3.907 -1.6768  1.5251  0.7673
  245MOL0     H32305   3.491   0.073   3.814  1.5810 -0.8587  1.6775
  245MOL0     H32306   3.461   0.244   3.378  0.8176  0.4867  0.7690
  245MOL0     H32307   3.483   0.382   3.497 -1.7967  1.4276 -1.2386
  245MOL0     H32308   3.244   0.214   3.424 -1.1066 -0.6364  1.2241
  245MOL0     H32309   3.271   0.388   3.373  2.2372  0.9980  1.1712
  245MOL0     H32310   3.221   0.300   3.659  1.1062 -1.8239 -1.1975
  245MOL0     H32311   3.112   0.399   3.556  0.9111  0.4129 -1.9242
  245MOL0     H32312   3.399   0.474   3.651  0.5712 -0.6579 -3.6303
  245MOL0     H32313   3.288   0.588   3.567  3.3193 -0.7907 -1.2138
  245MOL0     H32314   3.302   0.644   3.805  0.2602 -0.3092 -0.1948
  245MOL0     H32315   3.264   0.484   3.857  0.7322 -0.9788 -0.6525
  245MOL0     H32316   3.073   0.603   3.893  1.6466 -1.4412 -0.2097
  245MOL0     H32317   3.034   0.511   3.762  0.5492 -1.6135  2.1290
  245MOL0     H32318   3.087   0.730   3.600 -1.3849  1.2305 -0.3110
  245MOL0     H32319   2.946   0.721   3.698 -0.2648  1.6414 -1.3977
  245MOL0     H32320   3.044   0.935   3.699 -2.0748 -1.2925  0.4897
  245MOL0     H32321   3.199   0.879   3.774 -0.1333 -1.1998  1.4016
  245MOL0     H32322   3.693   0.261   3.480 -1.5570  0.1434 -0.3522
  245MOL0     H32323   3.905   0.183   3.576 -0.7065  0.8682 -0.5834
  245MOL0     H32324   4.143  -0.054   3.825  0.2940  0.4635  0.8675
  245MOL0     H32325   4.382  -0.115   3.914 -2.6115 -0.3425 -2.0167
  245MOL0     H32326   6.247   0.741   4.103 -1.2481 -1.2742  0.6026
  245MOL0     H32327   6.473   0.791   4.130 -0.6802  0.8275 -0.4755
  245MOL0     H32328   6.923   0.456   4.452 -1.4750  1.4084  0.5751
  245MOL0     H32329   7.141   0.520   4.501 -0.2932  1.0400  0.8253
  245MOL0     H32330   7.386   0.570   4.469 -0.0394  0.4441  4.5725
  245MOL0     H32331   7.318   0.698   4.554 -3.0848 -3.8134 -0.6506
  245MOL0     H32332   7.548   0.752   4.552 -0.2431  1.5990  0.1785
  245MOL0     H32333   7.573   0.702   4.390  0.9932  0.0827  1.8914
  245MOL0     H32334   7.416   0.962   4.444  0.4183  1.3690 -1.1112
  245MOL0     H32335   7.445   0.888   4.289 -1.6466 -1.7270  1.9824
  245MOL0     H32336   7.695   0.921   4.328 -1.0347  1.3606 -2.4843
  245MOL0     H32337   7.610   1.073   4.328 -1.1538 -0.7231 -2.3689
  245MOL0     H32338   7.747   1.058   4.722  0.3621  2.4102 -1.7535
  245MOL0     H32339   7.116   0.803   4.166 -4.5903 -2.4298 -2.4314
  245MOL0     H32340   6.886   0.735   4.135 -0.8939 -0.5913 -0.1266
  246MOL0     O32341   7.997   6.631   6.514 -0.0213  1.0115  0.1462
  246MOL0     C32342   7.928   6.694   6.428  1.1055 -0.0698 -0.6400
  246MOL0     O32343   7.948   6.702   6.295  0.6286 -0.1672  0.4362
  246MOL0     C32344   8.034   6.606   6.253  0.1692 -0.4347  0.2693
  246MOL0     C32345   8.169   6.635   6.250 -0.2346 -0.8510  0.0672
  246MOL0     C32346   8.257   6.539   6.195 -0.2181  0.2667 -0.0634
  246MOL0     C32347   8.210   6.411   6.148  0.4037  0.7806  0.1273
  246MOL0     O32348   8.287   6.314   6.091  0.1662  0.8799  0.2228
  246MOL0     C32349   8.420   6.336   6.059 -0.8380  0.6397  0.8087
  246MOL0     C32350   8.439   6.327   5.905 -0.0804  0.7024  0.0287
  246MOL0     C32351   8.561   6.403   5.862 -0.3613  1.0994  0.0215
  246MOL0     C32352   8.560   6.445   5.721 -0.3913 -0.1482 -0.6562
  246MOL0     C32353   8.686   6.527   5.698  0.2543  0.1665 -0.4352
  246MOL0     C32354   8.698   6.567   5.556  0.0623  0.5969  0.4594
  246MOL0     C32355   8.827   6.655   5.531  0.6576  0.1726 -0.3027
  246MOL0     C32356   8.937   6.560   5.483 -0.1605 -0.7235 -0.5388
  246MOL0     N32357   9.068   6.620   5.498  0.1919  0.6386 -0.1081
  246MOL0     C32358   9.182   6.564   5.436  0.4054 -0.6988  0.3627
  246MOL0     C32359   9.281   6.640   5.473  0.3667  0.3730 -0.3505
  246MOL0     C32360   9.419   6.596   5.433  0.4261  0.3718  0.2824
  246MOL0     C32361   9.524   6.689   5.478  0.9643 -0.5356 -0.1449
  246MOL0     C32362   9.666   6.641   5.440  0.3571 -0.6231  0.0310
  246MOL0     C32363   9.704   6.639   5.283  0.4738 -0.4748  0.4920
  246MOL0     O32364   9.767   6.762   5.233  1.1953  0.5159 -0.4016
  246MOL0     C32365   9.877   6.742   5.159 -0.0572 -0.2436  0.2569
  246MOL0     C32366   9.996   6.724   5.231  0.5604 -0.3738  0.2700
  246MOL0     C32367  10.115   6.734   5.157 -0.3059 -0.1481 -1.0644
  246MOL0     C32368  10.121   6.744   5.020  0.0376  0.5244  1.0110
  246MOL0     C32369  10.243   6.738   4.944  0.7013 -1.0215  0.9404
  246MOL0     O32370  10.238   6.712   4.807 -0.5287 -0.1741  0.0407
  246MOL0     C32371  10.355   6.690   4.731  0.0132 -0.4508 -0.8436
  246MOL0     C32372  10.473   6.639   4.788  0.2984  0.7551  0.9775
  246MOL0     C32373  10.596   6.648   4.720 -0.1688 -0.1464 -0.5896
  246MOL0     C32374  10.605   6.686   4.586  0.5991  1.4161 -0.6072
  246MOL0     O32375  10.724   6.686   4.527 -0.0961  0.6406  0.4999
  246MOL0     C32376  10.769   6.791   4.446  0.1869 -0.7896 -0.8674
  246MOL0     C32377  10.911   6.779   4.402  0.4821 -0.0672 -0.2065
  246MOL0     C32378  11.009   6.802   4.519 -1.1624 -0.1788 -0.5032
  246MOL0     C32379  11.151   6.816   4.470 -0.7308  0.0201 -0.5615
  246MOL0     C32380  11.223   6.690   4.446 -0.1711  0.1769  0.3914
  246MOL0     C32381  11.374   6.712   4.405  0.7357 -1.0701  0.0744
  246MOL0     C32382  11.429   6.587   4.356 -0.3014 -0.6388 -0.2241
  246MOL0     C32383  11.585   6.595   4.339  0.5858 -0.6259 -0.1220
  246MOL0    Cl32384  11.644   6.444   4.245 -0.0967 -0.3729  0.0268
  246MOL0     C32385  10.480   6.707   4.522 -0.5298  0.5568 -1.2897
  246MOL0     C32386  10.356   6.715   4.600 -0.7554 -0.3157  0.5072
  246MOL0     O32387  10.347   6.773   5.005 -0.1988  0.1462 -0.0907
  246MOL0     C32388  10.001   6.733   4.948  0.7317 -0.7940 -0.6776
  246MOL0     C32389   9.879   6.730   5.026 -0.5106 -0.4271 -0.2876
  246MOL0     N32390   9.239   6.746   5.559  0.2550  0.2381  0.1918
  246MOL0     N32391   9.111   6.721   5.576 -0.2185  0.9466  0.3213
  246MOL0     C32392   8.069   6.386   6.144 -0.4573  0.4043  0.1722
  246MOL0     C32393   7.988   6.484   6.194  0.3734  0.2457  0.6637
  246MOL0     C32394   7.805   6.753   6.471  0.2331 -0.6266 -0.0762
  246MOL0     C32395   7.789   6.782   6.607 -0.5937 -0.1742 -1.0065
  246MOL0     C32396   7.676   6.823   6.661 -0.1241 -0.0704  0.6221
  246MOL0     C32397   7.557   6.818   6.580 -1.1444 -0.1951 -0.4021
  246MOL0     O32398   7.431   6.843   6.633 -0.3869  0.2605 -0.4346
  246MOL0     C32399   7.399   6.982   6.624 -0.3120  0.3069 -0.4099
  246MOL0     C32400   7.257   7.020   6.671 -0.5525 -0.9500 -0.1125
  246MOL0     C32401   7.155   6.896   6.666 -0.2514 -0.3901  0.5485
  246MOL0     C32402   7.022   6.941   6.711 -0.6516 -0.1537  0.8186
  246MOL0     C32403   6.957   7.023   6.611  0.2675  0.4876 -1.0215
  246MOL0     C32404   6.897   7.087   6.532 -0.0035 -0.0703 -0.0237
  246MOL0     C32405   7.569   6.793   6.443  0.1179 -0.9597  0.4795
  246MOL0     C32406   7.695   6.757   6.385  0.3059 -0.3272  0.4446
  246MOL0     H32407   8.198   6.726   6.302 -0.3592 -1.3007  0.9373
  246MOL0     H32408   8.357   6.578   6.206 -0.2145  2.8419 -5.8854
  246MOL0     H32409   8.482   6.259   6.106 -1.0992 -0.3340 -0.3815
  246MOL0     H32410   8.453   6.429   6.104 -1.0036  0.7602  0.6798
  246MOL0     H32411   8.357   6.364   5.844  0.2573 -1.3874 -1.8361
  246MOL0     H32412   8.463   6.224   5.876 -0.2578  0.5952  0.2549
  246MOL0     H32413   8.646   6.337   5.878 -0.5205  0.3653 -1.8550
  246MOL0     H32414   8.567   6.491   5.926  3.5967  0.9900  0.0268
  246MOL0     H32415   8.546   6.357   5.657  0.4816 -0.5222 -0.3425
  246MOL0     H32416   8.470   6.507   5.711 -1.0035 -1.0249 -0.6094
  246MOL0     H32417   8.774   6.466   5.719 -0.5089 -0.3836  1.3029
  246MOL0     H32418   8.688   6.610   5.770  1.0129 -1.9077  2.0523
  246MOL0     H32419   8.602   6.618   5.541 -0.1460  0.7914  2.2401
  246MOL0     H32420   8.704   6.475   5.497  0.8568 -0.0112  1.4396
  246MOL0     H32421   8.804   6.729   5.455 -4.2130  0.6442  1.3271
  246MOL0     H32422   8.873   6.708   5.615  2.2030  0.7422 -1.4579
  246MOL0     H32423   8.911   6.532   5.380  0.1093  2.0085 -1.4222
  246MOL0     H32424   8.937   6.471   5.547 -0.3757  0.0198  0.5140
  246MOL0     H32425   9.198   6.474   5.378 -0.1713 -0.1979 -0.6024
  246MOL0     H32426   9.423   6.573   5.326 -2.9690  0.2063  0.0969
  246MOL0     H32427   9.430   6.502   5.489 -1.8288  0.5459  1.1350
  246MOL0     H32428   9.513   6.728   5.580 -2.0285  0.3868 -0.7266
  246MOL0     H32429   9.511   6.782   5.422 -0.1748 -0.3706  0.3654
  246MOL0     H32430   9.737   6.710   5.486 -2.3709  0.9077  2.2956
  246MOL0     H32431   9.676   6.541   5.481 -2.4863 -2.2817 -2.8372
  246MOL0     H32432   9.632   6.598   5.212  2.6431 -2.4782 -0.6748
  246MOL0     H32433   9.785   6.567   5.275 -0.9859 -2.2189  0.7604
  246MOL0     H32434   9.994   6.712   5.339 -1.3038 -0.9085  0.2139
  246MOL0     H32435  10.203   6.725   5.220 -1.1118  1.5139  0.3986
  246MOL0     H32436  10.471   6.596   4.888  1.9702 -1.4293  0.1509
  246MOL0     H32437  10.688   6.622   4.771 -1.2960 -3.3709  0.0825
  246MOL0     H32438  10.735   6.889   4.480 -2.2957 -1.9836  0.3777
  246MOL0     H32439  10.723   6.767   4.350  2.2016 -2.3901 -1.5068
  246MOL0     H32440  10.944   6.857   4.333  4.8052 -0.8519  0.6816
  246MOL0     H32441  10.923   6.681   4.356  0.2918 -1.3500  2.2643
  246MOL0     H32442  10.995   6.728   4.598 -1.3861  0.7524  0.3490
  246MOL0     H32443  10.989   6.895   4.573  2.1695 -0.0609  0.7662
  246MOL0     H32444  11.167   6.886   4.388 -0.9370  0.3891 -0.2861
  246MOL0     H32445  11.193   6.866   4.558 -2.8909  0.3625  0.3265
  246MOL0     H32446  11.170   6.625   4.377  1.6159 -2.6346  1.4920
  246MOL0     H32447  11.225   6.633   4.539  1.2849 -2.7033 -1.2537
  246MOL0     H32448  11.429   6.749   4.491  0.5590 -1.0124  0.1643
  246MOL0     H32449  11.377   6.790   4.328  0.2312 -0.8333  0.2888
  246MOL0     H32450  11.401   6.512   4.430 -2.7667 -1.5075 -1.9517
  246MOL0     H32451  11.378   6.562   4.263  0.1391 -0.8874 -0.4049
  246MOL0     H32452  11.622   6.599   4.442 -2.1996  1.8452  0.9227
  246MOL0     H32453  11.616   6.690   4.295 -1.6849  1.3347  2.1512
  246MOL0     H32454  10.483   6.736   4.418 -0.6601 -3.3557 -2.5446
  246MOL0     H32455  10.269   6.763   4.555  0.9824  0.9968 -1.6454
  246MOL0     H32456  10.003   6.742   4.840 -0.5153  2.1502 -0.5509
  246MOL0     H32457   9.786   6.718   4.973 -2.2939  0.3018  2.4800
  246MOL0     H32458   8.031   6.295   6.100  0.4842  0.4978 -0.8649
  246MOL0     H32459   7.880   6.473   6.188  0.2834  1.5425 -1.4139
  246MOL0     H32460   7.873   6.762   6.672 -1.8438 -1.3209  0.3320
  246MOL0     H32461   7.655   6.842   6.765 -0.0574 -1.9596  1.0257
  246MOL0     H32462   7.417   7.024   6.525 -0.2724  4.4653  1.1706
  246MOL0     H32463   7.467   7.039   6.688  1.5048 -0.2256 -1.7827
  246MOL0     H32464   7.253   7.048   6.777 -2.1094 -0.8324 -0.1789
  246MOL0     H32465   7.210   7.107   6.625 -1.3772 -0.1667  2.0949
  246MOL0     H32466   7.187   6.817   6.734 -2.6116  0.7093  3.1029
  246MOL0     H32467   7.153   6.864   6.561 -1.3681  1.1082  0.0861
  246MOL0     H32468   6.953   6.856   6.719  0.1888 -1.0309 -0.8626
  246MOL0     H32469   7.033   6.993   6.807 -0.6792 -4.9622  3.7487
  246MOL0     H32470   6.833   7.128   6.457  2.7851  2.4235 -1.2571
  246MOL0     H32471   7.480   6.794   6.381  0.8543  1.4382 -0.6805
  246MOL0     H32472   7.687   6.719   6.284 -2.2035 -1.2763  0.9177
  247MOL0     O32473   0.147   1.868   0.883 -0.7615  0.0633 -0.0020
  247MOL0     C32474   0.164   1.982   0.846 -0.9613 -0.3482  0.7861
  247MOL0     O32475   0.070   2.070   0.815  0.0583 -1.1445  0.3956
  247MOL0     C32476  -0.061   2.027   0.811  0.7552  0.2607 -0.2775
  247MOL0     C32477  -0.144   2.075   0.707  0.3937 -0.7690  0.6398
  247MOL0     C32478  -0.281   2.035   0.689 -0.2314 -0.6806 -0.9188
  247MOL0     C32479  -0.336   1.942   0.776 -0.1674 -0.4234 -0.7443
  247MOL0     O32480  -0.471   1.904   0.773 -0.2251  0.3694  0.7791
  247MOL0     C32481  -0.519   1.869   0.639 -0.2904 -0.0285  0.5231
  247MOL0     C32482  -0.482   1.714   0.616  0.4205 -0.4420 -0.5483
  247MOL0     C32483  -0.612   1.631   0.634 -0.0620 -0.3211  0.0781
  247MOL0     C32484  -0.707   1.646   0.524  0.9695  0.3669  0.8646
  247MOL0     C32485  -0.839   1.588   0.563  0.1900 -0.1068 -0.3424
  247MOL0     C32486  -0.906   1.676   0.671  0.0284 -0.0101 -0.8947
  247MOL0     C32487  -1.059   1.643   0.689  0.0741 -0.1123  0.1212
  247MOL0     C32488  -1.085   1.492   0.720 -0.3536  1.0582  0.3419
  247MOL0     N32489  -1.219   1.478   0.774  0.5953 -0.1332  0.0582
  247MOL0     C32490  -1.269   1.503   0.900  0.5071  0.1594 -1.5684
  247MOL0     C32491  -1.403   1.474   0.896 -0.4273  0.2487  0.5794
  247MOL0     C32492  -1.496   1.472   1.008 -1.0050  1.2310  0.5549
  247MOL0     C32493  -1.596   1.584   1.003 -0.0955 -0.4226  0.5381
  247MOL0     C32494  -1.690   1.579   1.118 -0.1711 -0.1805  0.1876
  247MOL0     C32495  -1.785   1.712   1.128 -1.2677  0.6379  0.2919
  247MOL0     O32496  -1.830   1.730   1.262  0.0583  0.1541  0.2169
  247MOL0     C32497  -1.893   1.616   1.314 -0.2004  1.1282 -0.0306
  247MOL0     C32498  -1.875   1.583   1.446  0.4779 -0.0656  0.3157
  247MOL0     C32499  -1.950   1.475   1.509 -0.6882  0.6203  0.5904
  247MOL0     C32500  -2.044   1.403   1.435 -1.2544 -0.1610 -0.8101
  247MOL0     C32501  -2.128   1.303   1.511  1.0614 -0.5275  0.4118
  247MOL0     O32502  -2.230   1.255   1.432  0.0361  0.1791  0.2291
  247MOL0     C32503  -2.305   1.147   1.476  0.4238  0.3513  0.5331
  247MOL0     C32504  -2.275   1.058   1.576 -0.1338  0.4333 -0.2828
  247MOL0     C32505  -2.350   0.944   1.598 -0.6907  0.4836  0.8972
  247MOL0     C32506  -2.456   0.915   1.515  1.2603 -0.4196 -0.2799
  247MOL0     O32507  -2.535   0.802   1.524  0.6271  0.1277 -0.5499
  247MOL0     C32508  -2.551   0.728   1.647  0.5395  0.0201  0.7416
  247MOL0     C32509  -2.679   0.648   1.650  0.0061  0.6546  0.3469
  247MOL0     C32510  -2.671   0.527   1.563  0.0009  1.1159  2.0269
  247MOL0     C32511  -2.795   0.426   1.584 -1.0733  1.0224 -0.3253
  247MOL0     C32512  -2.768   0.283   1.537  0.2571 -0.7192  0.4268
  247MOL0     C32513  -2.897   0.207   1.501 -0.1559  0.9343 -0.2153
  247MOL0     C32514  -2.993   0.197   1.618 -0.3130 -0.0955  0.3669
  247MOL0     C32515  -3.116   0.115   1.565 -0.5618  0.6252  0.0907
  247MOL0    Cl32516  -3.218   0.082   1.710 -0.2756 -0.0735 -0.3347
  247MOL0     C32517  -2.494   1.001   1.425 -0.3025  1.6120  0.2966
  247MOL0     C32518  -2.424   1.118   1.404 -0.5443 -0.4959  0.4499
  247MOL0     O32519  -2.102   1.272   1.628  0.0250 -0.7066  0.7402
  247MOL0     C32520  -2.052   1.435   1.303 -0.0753  0.0978 -0.8134
  247MOL0     C32521  -1.981   1.538   1.243  0.1312  0.2223  0.7860
  247MOL0     N32522  -1.433   1.456   0.761 -0.3047  0.1402 -0.3272
  247MOL0     N32523  -1.323   1.435   0.697 -0.2989  0.2542  0.0163
  247MOL0     C32524  -0.261   1.890   0.878 -0.3101 -0.3443  0.5689
  247MOL0     C32525  -0.128   1.938   0.901 -0.9341 -0.7493 -0.3452
  247MOL0     C32526   0.303   2.037   0.842  0.3820 -0.3102 -0.2215
  247MOL0     C32527   0.410   1.985   0.913 -0.0323  0.1994  0.0990
  247MOL0     C32528   0.539   2.037   0.911  0.4619 -0.0001 -0.4216
  247MOL0     C32529   0.570   2.151   0.840 -0.2765  0.5617  0.1630
  247MOL0     O32530   0.696   2.196   0.841  0.0038 -0.6602 -0.0446
  247MOL0     C32531   0.716   2.339   0.865 -0.3103 -0.7089 -0.1721
  247MOL0     C32532   0.856   2.367   0.905  0.6558 -0.3108 -0.4114
  247MOL0     C32533   0.870   2.506   0.964 -0.7847  0.2196 -0.5380
  247MOL0     C32534   1.012   2.539   1.019  0.6144  0.3213  0.3208
  247MOL0     C32535   0.984   2.660   1.097 -0.1803  0.0355 -0.0571
  247MOL0     C32536   0.978   2.763   1.163 -0.5106 -0.1522 -0.3263
  247MOL0     C32537   0.463   2.216   0.767 -0.4830 -0.5502  0.6479
  247MOL0     C32538   0.332   2.163   0.766  0.2510  0.5150  0.6613
  247MOL0     H32539  -0.100   2.146   0.638 -2.6514  2.0252  1.2881
  247MOL0     H32540  -0.330   2.087   0.608 -0.4846  0.4680 -0.0475
  247MOL0     H32541  -0.472   1.937   0.568  0.9688 -0.4032  0.9731
  247MOL0     H32542  -0.626   1.894   0.633 -0.8663 -2.5032 -3.7989
  247MOL0     H32543  -0.405   1.673   0.682  0.0119  0.1549  0.3174
  247MOL0     H32544  -0.440   1.709   0.515  1.0223 -2.0413 -0.2557
  247MOL0     H32545  -0.658   1.647   0.732  0.9660  0.9773  0.3795
  247MOL0     H32546  -0.583   1.526   0.638 -1.9829 -0.8561  0.7526
  247MOL0     H32547  -0.741   1.742   0.483  0.8384 -0.6920 -1.7606
  247MOL0     H32548  -0.664   1.593   0.439  0.5994 -0.2176  1.0374
  247MOL0     H32549  -0.822   1.485   0.597 -1.0126 -0.1784  0.0912
  247MOL0     H32550  -0.906   1.579   0.476 -1.0301 -0.7122  0.6289
  247MOL0     H32551  -0.911   1.781   0.641  0.0225  1.3129  3.1848
  247MOL0     H32552  -0.862   1.671   0.771  1.6710 -3.9799 -1.6018
  247MOL0     H32553  -1.089   1.713   0.767  0.7320  0.5327 -0.1838
  247MOL0     H32554  -1.097   1.669   0.590  2.4456 -1.1419 -1.1424
  247MOL0     H32555  -1.009   1.446   0.784  1.4699  0.8807 -1.8258
  247MOL0     H32556  -1.091   1.441   0.624  0.2498 -1.7190  1.6670
  247MOL0     H32557  -1.211   1.530   0.987  1.0555 -0.5861 -1.6929
  247MOL0     H32558  -1.439   1.484   1.101 -0.2273 -2.4252  0.6985
  247MOL0     H32559  -1.545   1.374   1.011  1.3214 -0.2163 -2.8504
  247MOL0     H32560  -1.651   1.584   0.909  2.2725  2.4840 -1.0240
  247MOL0     H32561  -1.552   1.684   0.995 -0.1490 -0.2797  1.7781
  247MOL0     H32562  -1.754   1.491   1.114 -1.4629  0.7510 -3.2002
  247MOL0     H32563  -1.637   1.564   1.212 -1.3318 -0.5559  0.8040
  247MOL0     H32564  -1.858   1.711   1.047 -1.9029  1.9455  0.8098
  247MOL0     H32565  -1.728   1.804   1.107  0.7003 -0.4503  0.6294
  247MOL0     H32566  -1.809   1.648   1.504  4.4405 -1.7569 -1.8880
  247MOL0     H32567  -1.932   1.467   1.616 -1.2034  0.6262  0.6807
  247MOL0     H32568  -2.193   1.066   1.647  0.3814 -0.2457 -0.7930
  247MOL0     H32569  -2.325   0.875   1.678  1.6163  0.5976  0.3595
  247MOL0     H32570  -2.562   0.783   1.741 -2.3213 -1.0982  1.1716
  247MOL0     H32571  -2.465   0.661   1.656  0.0286 -1.0756 -1.6233
  247MOL0     H32572  -2.764   0.707   1.613  0.3306  0.9879  0.1262
  247MOL0     H32573  -2.701   0.602   1.747  1.8727 -0.4212  0.2961
  247MOL0     H32574  -2.583   0.472   1.598 -0.1053 -1.5481 -1.3679
  247MOL0     H32575  -2.668   0.553   1.457  2.1605  0.2121  1.8040
  247MOL0     H32576  -2.818   0.418   1.690 -0.7632  0.4584 -0.2943
  247MOL0     H32577  -2.875   0.484   1.536  0.4083  3.4418 -0.0555
  247MOL0     H32578  -2.700   0.241   1.612  2.1181 -0.4189 -1.0312
  247MOL0     H32579  -2.706   0.303   1.449 -1.1270  1.8259 -0.0430
  247MOL0     H32580  -2.875   0.104   1.473  1.7557  0.8695  1.3035
  247MOL0     H32581  -2.933   0.258   1.411  3.9609  0.9835 -2.0669
  247MOL0     H32582  -2.943   0.132   1.691  3.3703  0.1881 -1.6426
  247MOL0     H32583  -3.023   0.298   1.647 -2.2472 -0.0446 -1.5695
  247MOL0     H32584  -3.081   0.027   1.512  0.1020  1.4982 -0.9695
  247MOL0     H32585  -3.177   0.178   1.498 -1.7977  1.2971  1.7577
  247MOL0     H32586  -2.579   0.965   1.368  1.5764 -0.3609 -1.4488
  247MOL0     H32587  -2.458   1.190   1.330 -3.1284  1.0171  2.9056
  247MOL0     H32588  -2.135   1.389   1.251 -1.1690  1.1043 -0.0042
  247MOL0     H32589  -2.006   1.558   1.140 -0.1859 -0.7013  0.6781
  247MOL0     H32590  -0.305   1.812   0.939 -1.2204 -3.2763 -3.4238
  247MOL0     H32591  -0.083   1.900   0.992 -1.1691 -1.7987 -0.6501
  247MOL0     H32592   0.396   1.891   0.964  1.6435 -0.7784 -1.1407
  247MOL0     H32593   0.622   1.988   0.960  1.4072 -0.9282 -2.7970
  247MOL0     H32594   0.646   2.354   0.948 -1.3653 -0.5851 -1.0572
  247MOL0     H32595   0.682   2.398   0.780 -0.4066 -0.8876 -0.2580
  247MOL0     H32596   0.889   2.296   0.981 -0.2018 -0.3711 -0.0852
  247MOL0     H32597   0.922   2.361   0.818 -1.5461  1.1481 -2.3223
  247MOL0     H32598   0.793   2.507   1.042 -0.8527 -0.8286 -0.5696
  247MOL0     H32599   0.841   2.578   0.887 -1.9576  0.2750 -0.0734
  247MOL0     H32600   1.033   2.465   1.097 -2.7845  0.0161  1.1026
  247MOL0     H32601   1.086   2.553   0.940  1.6332 -1.6611  0.8778
  247MOL0     H32602   0.983   2.848   1.228 -0.1949  0.3623 -1.0110
  247MOL0     H32603   0.476   2.301   0.701  0.7639 -2.3078 -1.4962
  247MOL0     H32604   0.248   2.205   0.713 -0.7930 -1.2167  0.8865
  248MOL0     O32605  10.705   7.397   6.224  0.2448 -1.1025  0.6477
  248MOL0     C32606  10.664   7.283   6.198 -0.9947  0.9458  0.2046
  248MOL0     O32607  10.724   7.192   6.104  0.2235  0.2418  0.1616
  248MOL0     C32608  10.837   7.233   6.046 -0.4879  0.2253 -1.2865
  248MOL0     C32609  10.851   7.292   5.918 -0.6357 -0.1728  0.1499
  248MOL0     C32610  10.970   7.339   5.871 -0.1637 -0.2282  0.1349
  248MOL0     C32611  11.085   7.318   5.952 -0.4110  0.5650 -0.5892
  248MOL0     O32612  11.210   7.360   5.903  0.7918  0.4602  0.3899
  248MOL0     C32613  11.328   7.279   5.905 -0.6327 -0.0554  0.0554
  248MOL0     C32614  11.434   7.351   5.993  1.4618  0.6403 -0.0923
  248MOL0     C32615  11.566   7.275   6.019  0.2658  0.9002 -0.4993
  248MOL0     C32616  11.673   7.373   6.063 -0.5724  0.3748  0.8637
  248MOL0     C32617  11.815   7.311   6.052 -0.9956  0.2366  0.5941
  248MOL0     C32618  11.849   7.280   5.904  0.3709 -0.1261 -0.1739
  248MOL0     C32619  11.990   7.247   5.884 -0.5413  1.3228 -0.8873
  248MOL0     C32620  12.073   7.374   5.851 -0.4501  0.6373  0.4848
  248MOL0     N32621  12.066   7.417   5.711  0.0080  0.0076 -0.6211
  248MOL0     C32622  12.009   7.531   5.665 -0.4706 -0.7113 -0.5851
  248MOL0     C32623  12.020   7.522   5.527 -0.2885  0.0242  0.4185
  248MOL0     C32624  11.953   7.612   5.419  0.0490  0.3382 -0.6322
  248MOL0     C32625  11.799   7.582   5.402  0.6580  0.2200 -0.5501
  248MOL0     C32626  11.765   7.433   5.391  0.2380 -0.5120  0.0918
  248MOL0     C32627  11.616   7.414   5.366  0.1671 -0.6909  0.5106
  248MOL0     O32628  11.534   7.463   5.468 -0.6956  0.3974 -0.7381
  248MOL0     C32629  11.406   7.478   5.444  0.1065  0.0262  0.6809
  248MOL0     C32630  11.331   7.523   5.560  1.0588  0.5304  0.7721
  248MOL0     C32631  11.198   7.558   5.557 -0.6856  0.2493  0.2956
  248MOL0     C32632  11.132   7.553   5.430  0.0402 -0.4209  0.3748
  248MOL0     C32633  10.993   7.608   5.408  0.2177  0.5047  0.8651
  248MOL0     O32634  10.912   7.641   5.515  0.1479 -0.1812  0.0960
  248MOL0     C32635  10.812   7.731   5.510 -0.4298 -0.1673 -0.6582
  248MOL0     C32636  10.683   7.697   5.541  0.4017 -0.7003 -0.5473
  248MOL0     C32637  10.575   7.786   5.562  0.0357 -0.3806 -0.6194
  248MOL0     C32638  10.596   7.923   5.560 -1.2781 -0.3306  0.6595
  248MOL0     O32639  10.494   8.019   5.565  0.2580  0.3989  0.0872
  248MOL0     C32640  10.511   8.152   5.514  0.4841  0.6726  0.2171
  248MOL0     C32641  10.378   8.225   5.551 -0.7596  1.3015 -0.1410
  248MOL0     C32642  10.376   8.364   5.493 -0.1228 -0.3825  0.6846
  248MOL0     C32643  10.234   8.431   5.499  0.8809 -0.5783 -0.0863
  248MOL0     C32644  10.228   8.556   5.413  0.0546  0.0439  0.5296
  248MOL0     C32645  10.096   8.625   5.409 -0.4267  0.6302 -0.1562
  248MOL0     C32646   9.979   8.557   5.336 -0.4427  0.9202 -0.8972
  248MOL0     C32647   9.869   8.657   5.345  0.9489 -0.3551  0.1332
  248MOL0    Cl32648   9.758   8.627   5.211 -0.4905  0.6526  0.3493
  248MOL0     C32649  10.728   7.957   5.530  0.1017 -0.0996  0.2950
  248MOL0     C32650  10.838   7.863   5.501 -0.3134  0.2031  0.2593
  248MOL0     O32651  10.967   7.637   5.296  0.3014 -0.3231 -0.1507
  248MOL0     C32652  11.202   7.511   5.317 -0.1905  0.3190 -0.2736
  248MOL0     C32653  11.341   7.474   5.322  1.1397  0.4495 -0.5449
  248MOL0     N32654  12.079   7.404   5.498  0.4069 -0.0909  0.3596
  248MOL0     N32655  12.098   7.337   5.604  0.4329  0.4173  0.1282
  248MOL0     C32656  11.077   7.245   6.074  0.4272 -0.1614 -0.6131
  248MOL0     C32657  10.951   7.209   6.122  1.2217 -0.9428  0.2687
  248MOL0     C32658  10.544   7.245   6.263  0.1443 -0.2539 -0.5864
  248MOL0     C32659  10.488   7.323   6.364 -0.5112  0.1479 -0.1873
  248MOL0     C32660  10.381   7.284   6.442 -0.8285  0.5985 -0.0692
  248MOL0     C32661  10.321   7.166   6.404  1.0039  0.2835  0.2498
  248MOL0     O32662  10.210   7.122   6.478 -0.3730 -1.0099 -0.0989
  248MOL0     C32663  10.092   7.154   6.409 -0.3480 -0.4573  0.2541
  248MOL0     C32664   9.994   7.066   6.485 -0.8838 -0.3242 -0.3700
  248MOL0     C32665   9.860   7.060   6.413  0.0999 -0.0751 -0.2892
  248MOL0     C32666   9.857   6.948   6.299  0.5099 -0.0653 -0.0621
  248MOL0     C32667   9.722   6.933   6.233  0.2485 -0.3207 -0.9093
  248MOL0     C32668   9.613   6.927   6.179  0.1990 -0.1654  0.0259
  248MOL0     C32669  10.364   7.085   6.307 -0.0791 -0.1203  1.4366
  248MOL0     C32670  10.479   7.119   6.239 -0.5702  0.1756 -0.4562
  248MOL0     H32671  10.759   7.304   5.863 -0.8802  0.0965  0.6106
  248MOL0     H32672  10.985   7.375   5.769  1.2486  0.2713  0.4946
  248MOL0     H32673  11.369   7.261   5.806  1.6757 -0.3426  1.0152
  248MOL0     H32674  11.308   7.179   5.944  0.1266 -0.4958 -0.6699
  248MOL0     H32675  11.386   7.380   6.087 -0.8476  3.3638 -1.9517
  248MOL0     H32676  11.466   7.449   5.956  1.3398  1.4902  1.9316
  248MOL0     H32677  11.597   7.242   5.919  2.6743  1.9150 -0.1633
  248MOL0     H32678  11.550   7.189   6.084 -2.0597  0.6245 -1.3447
  248MOL0     H32679  11.662   7.468   6.009 -0.1519  1.0187  1.8742
  248MOL0     H32680  11.663   7.401   6.168  3.6029 -1.3875  1.9411
  248MOL0     H32681  11.838   7.237   6.129 -1.6344  0.1977  0.7556
  248MOL0     H32682  11.895   7.384   6.067  2.5844 -3.3452  0.6749
  248MOL0     H32683  11.829   7.372   5.849  2.0828  1.4067  1.5945
  248MOL0     H32684  11.785   7.201   5.864  0.8646 -1.1310  0.9280
  248MOL0     H32685  12.037   7.209   5.975  0.3800  1.4390 -1.3040
  248MOL0     H32686  12.010   7.171   5.808  0.1815  0.7541 -0.1484
  248MOL0     H32687  12.175   7.336   5.862 -1.2982 -1.7448  0.5597
  248MOL0     H32688  12.060   7.456   5.923  2.3157  0.7825  0.9290
  248MOL0     H32689  11.965   7.619   5.709 -0.8189  0.1330 -2.5276
  248MOL0     H32690  11.990   7.584   5.320 -0.0792  0.0457 -0.5998
  248MOL0     H32691  11.995   7.711   5.435 -0.1156  0.0732  1.7287
  248MOL0     H32692  11.764   7.634   5.313  1.9493  0.4863 -0.9262
  248MOL0     H32693  11.757   7.631   5.491  0.4343 -3.0181  1.2804
  248MOL0     H32694  11.821   7.392   5.307 -0.8679  0.0475 -0.9631
  248MOL0     H32695  11.785   7.369   5.478 -1.4658  1.2066  1.8712
  248MOL0     H32696  11.583   7.318   5.327 -1.0242 -0.7959  1.7027
  248MOL0     H32697  11.595   7.477   5.279  1.2574  2.1780  2.1639
  248MOL0     H32698  11.376   7.536   5.658 -1.2017  4.2205  1.5192
  248MOL0     H32699  11.146   7.588   5.648 -0.7223 -0.3520  0.4775
  248MOL0     H32700  10.664   7.590   5.534  0.2038 -0.9047  2.1522
  248MOL0     H32701  10.480   7.734   5.560  0.4573 -1.1624 -1.0224
  248MOL0     H32702  10.512   8.145   5.405  1.1398 -1.0055  0.2901
  248MOL0     H32703  10.600   8.206   5.546  0.9765 -0.0375  0.0735
  248MOL0     H32704  10.359   8.221   5.659 -0.9673 -2.2973 -0.2091
  248MOL0     H32705  10.292   8.170   5.513 -2.5274  3.1885  0.8895
  248MOL0     H32706  10.414   8.368   5.390  3.9548  1.6120  2.0591
  248MOL0     H32707  10.454   8.425   5.539 -1.0110  0.5173  1.0151
  248MOL0     H32708  10.154   8.360   5.479 -0.6940  0.6813  1.4231
  248MOL0     H32709  10.215   8.459   5.603  0.6252 -0.2944 -0.2054
  248MOL0     H32710  10.262   8.542   5.310 -0.6411 -0.8995  0.4148
  248MOL0     H32711  10.309   8.619   5.451 -1.3825  0.4430  3.1473
  248MOL0     H32712  10.103   8.716   5.347 -2.0454 -0.2732 -1.7788
  248MOL0     H32713  10.070   8.647   5.512 -1.2180 -2.5577  0.4216
  248MOL0     H32714  10.010   8.525   5.237 -2.5788  0.0313 -1.3181
  248MOL0     H32715   9.950   8.465   5.387 -1.2815  2.5509  1.8353
  248MOL0     H32716   9.892   8.764   5.339 -4.2603  1.0820  0.7908
  248MOL0     H32717   9.814   8.645   5.438  1.8769  1.5353  0.9839
  248MOL0     H32718  10.758   8.061   5.531 -0.8303  0.2392 -1.7641
  248MOL0     H32719  10.934   7.906   5.478  0.0617 -0.9803 -0.5098
  248MOL0     H32720  11.157   7.491   5.221 -1.3461 -2.4041  0.7241
  248MOL0     H32721  11.395   7.441   5.233  2.4851  1.8874 -0.3167
  248MOL0     H32722  11.165   7.235   6.137  0.2115  1.6539  0.0216
  248MOL0     H32723  10.947   7.163   6.220 -1.1460 -1.5715 -0.0748
  248MOL0     H32724  10.543   7.407   6.404  0.1271 -1.6479  2.9841
  248MOL0     H32725  10.354   7.327   6.538  2.3479 -0.8133  1.6271
  248MOL0     H32726  10.097   7.147   6.300 -2.5810 -0.8585  0.1436
  248MOL0     H32727  10.064   7.257   6.430 -0.8191 -0.5289 -0.0016
  248MOL0     H32728  10.031   6.967   6.511  1.1207  0.7621  1.2306
  248MOL0     H32729   9.974   7.120   6.578 -1.4387  0.3322 -0.8577
  248MOL0     H32730   9.828   7.152   6.364 -0.7001  0.9217  1.9343
  248MOL0     H32731   9.784   7.032   6.488  1.6600 -2.2379  0.5848
  248MOL0     H32732   9.930   6.974   6.222 -1.8491  0.0627 -2.4069
  248MOL0     H32733   9.892   6.857   6.347  1.1495  1.3470  2.2586
  248MOL0     H32734   9.520   6.910   6.128  0.0882  0.4319  0.0164
  248MOL0     H32735  10.304   7.003   6.269  1.1269 -0.3937 -0.0066
  248MOL0     H32736  10.509   7.045   6.166  1.7230  0.4203  0.1461
  249MOL0     O32737   2.478   1.038   8.974 -0.0611 -1.1878 -0.4565
  249MOL0     C32738   2.466   1.002   9.090 -0.2700  0.3494 -0.7324
  249MOL0     O32739   2.382   1.056   9.180  0.6470 -0.7387 -0.3124
  249MOL0     C32740   2.260   1.123   9.143 -1.0183 -0.1978  0.9151
  249MOL0     C32741   2.186   1.107   9.025  0.3667 -0.1958  0.1082
  249MOL0     C32742   2.066   1.181   8.992  0.1249  0.0899 -1.4019
  249MOL0     C32743   2.006   1.255   9.093  1.1021 -0.4794 -1.6298
  249MOL0     O32744   1.884   1.306   9.085  0.3306 -0.2452  0.0735
  249MOL0     C32745   1.841   1.368   8.959 -0.6105  1.3788  0.2517
  249MOL0     C32746   1.703   1.314   8.936  0.2276  0.2209 -0.3797
  249MOL0     C32747   1.707   1.175   8.881 -0.7315  0.3485  0.2201
  249MOL0     C32748   1.567   1.124   8.895 -0.4749  0.2287 -0.3441
  249MOL0     C32749   1.572   0.973   8.855  0.5124 -0.6875  0.2583
  249MOL0     C32750   1.442   0.883   8.871  0.5554  0.6506  0.2808
  249MOL0     C32751   1.318   0.951   8.813  0.7684  0.3069  0.7285
  249MOL0     C32752   1.310   0.990   8.665 -1.3729 -0.2799  0.0320
  249MOL0     N32753   1.170   1.017   8.627 -0.4203  0.0321 -0.3375
  249MOL0     C32754   1.054   0.959   8.675  0.5920 -0.2117 -0.7228
  249MOL0     C32755   0.952   1.035   8.628  0.6833 -0.3311 -0.9325
  249MOL0     C32756   0.800   1.030   8.654 -0.9068 -0.8185  0.0378
  249MOL0     C32757   0.741   0.912   8.570 -0.2716  0.1934  0.5091
  249MOL0     C32758   0.607   0.857   8.625 -0.7629  0.0544  0.1822
  249MOL0     C32759   0.498   0.964   8.616  0.8422 -0.5930  0.5738
  249MOL0     O32760   0.413   0.959   8.499 -0.2944  0.7795 -0.7560
  249MOL0     C32761   0.280   0.905   8.503 -0.4494 -0.4922 -0.1569
  249MOL0     C32762   0.249   0.767   8.473  0.6374 -1.6069  0.9932
  249MOL0     C32763   0.124   0.730   8.455  0.1640 -0.3629 -0.2164
  249MOL0     C32764   0.007   0.817   8.456  0.0684 -0.5835 -1.1072
  249MOL0     C32765  -0.134   0.769   8.420 -0.3445 -0.3787 -0.0337
  249MOL0     O32766  -0.232   0.862   8.407 -0.2411 -0.1652  0.1167
  249MOL0     C32767  -0.353   0.824   8.357 -1.6063  0.1671 -0.3995
  249MOL0     C32768  -0.418   0.905   8.267  0.2707  0.0245 -0.4387
  249MOL0     C32769  -0.542   0.882   8.219 -0.0570 -0.2721 -0.2013
  249MOL0     C32770  -0.610   0.770   8.254  0.1859  0.4076  0.2891
  249MOL0     O32771  -0.736   0.747   8.214  0.8950 -0.4988 -0.2548
  249MOL0     C32772  -0.842   0.841   8.244  0.4614  0.2513 -0.3272
  249MOL0     C32773  -0.972   0.765   8.224 -0.2681 -0.6674 -0.5255
  249MOL0     C32774  -1.093   0.854   8.218  0.5658 -0.6290 -0.1769
  249MOL0     C32775  -1.220   0.770   8.268 -0.7185  0.9434  0.2218
  249MOL0     C32776  -1.340   0.860   8.289 -0.5606  0.0893 -0.3834
  249MOL0     C32777  -1.397   0.883   8.153  0.7128 -0.5252  0.2079
  249MOL0     C32778  -1.532   0.950   8.169 -1.2349  0.0058  0.3129
  249MOL0     C32779  -1.529   1.074   8.245  0.3321  0.9501 -0.1351
  249MOL0    Cl32780  -1.399   1.182   8.202 -0.3680  0.3492  0.1903
  249MOL0     C32781  -0.558   0.685   8.352  0.7766  1.0066  0.4660
  249MOL0     C32782  -0.427   0.710   8.402 -0.5657 -0.5295  0.1805
  249MOL0     O32783  -0.142   0.650   8.393  0.1702 -0.1688 -0.1338
  249MOL0     C32784   0.041   0.953   8.482 -0.3369 -0.1625  0.0458
  249MOL0     C32785   0.172   1.003   8.486  0.2382  0.3651 -0.1865
  249MOL0     N32786   1.002   1.148   8.564  0.0213 -0.1108 -0.5903
  249MOL0     N32787   1.127   1.129   8.561 -0.5095  0.2766  0.5710
  249MOL0     C32788   2.060   1.251   9.224  0.1037  0.1875  0.1227
  249MOL0     C32789   2.191   1.189   9.251  0.7187 -0.3598 -0.1109
  249MOL0     C32790   2.584   0.926   9.149 -0.4978  0.4313 -0.0717
  249MOL0     C32791   2.683   0.870   9.064  1.1548 -0.3907  0.2534
  249MOL0     C32792   2.787   0.798   9.125  0.6165 -0.9076  1.3580
  249MOL0     C32793   2.796   0.776   9.261  0.9577  0.7663 -0.0295
  249MOL0     O32794   2.894   0.705   9.310 -0.6471 -0.1114 -0.8326
  249MOL0     C32795   2.963   0.741   9.432  0.2916  0.3231 -0.4520
  249MOL0     C32796   3.109   0.724   9.400 -0.0707 -0.2511  0.2905
  249MOL0     C32797   3.146   0.818   9.285  0.3032 -0.8174 -0.0748
  249MOL0     C32798   3.300   0.838   9.267 -0.7291 -0.6224  0.2937
  249MOL0     C32799   3.335   0.906   9.142 -0.9776  0.1467 -0.0960
  249MOL0     C32800   3.367   0.946   9.034  0.5294  0.1615  0.0058
  249MOL0     C32801   2.689   0.824   9.338 -1.1902 -0.3527  0.0624
  249MOL0     C32802   2.580   0.890   9.285 -0.4341  0.7038  0.3646
  249MOL0     H32803   2.225   1.046   8.945 -0.3540 -0.0291 -0.3806
  249MOL0     H32804   2.020   1.187   8.894  0.5493 -1.0404 -1.6857
  249MOL0     H32805   1.893   1.332   8.869 -3.7809 -1.2234 -0.7016
  249MOL0     H32806   1.839   1.478   8.966 -2.0301  1.5376 -1.6924
  249MOL0     H32807   1.646   1.386   8.878 -0.7029  0.3252  0.6203
  249MOL0     H32808   1.647   1.313   9.030 -0.6646  0.2754 -0.8974
  249MOL0     H32809   1.783   1.108   8.923 -1.4981 -1.4734 -1.1464
  249MOL0     H32810   1.734   1.184   8.776 -1.7700 -2.9242 -0.4406
  249MOL0     H32811   1.550   1.135   9.003 -0.9906  0.7906 -0.4791
  249MOL0     H32812   1.491   1.169   8.831 -2.1808 -0.9555  0.7441
  249MOL0     H32813   1.655   0.925   8.906  0.2365  0.6425  2.0695
  249MOL0     H32814   1.591   0.964   8.748  0.3181 -1.9466  0.3164
  249MOL0     H32815   1.419   0.852   8.973  0.6306 -1.6217 -0.3314
  249MOL0     H32816   1.460   0.794   8.809  0.5785  0.7977  0.0754
  249MOL0     H32817   1.237   0.890   8.854  0.4347 -0.0079 -0.3629
  249MOL0     H32818   1.299   1.042   8.871 -4.9970  0.6600 -1.0494
  249MOL0     H32819   1.354   0.911   8.604  0.1021  0.0085  0.6730
  249MOL0     H32820   1.371   1.081   8.656 -1.0293 -0.6205 -1.2236
  249MOL0     H32821   1.043   0.877   8.746 -2.4227 -2.0234 -2.9926
  249MOL0     H32822   0.762   1.132   8.647  0.8028  0.2500  3.7486
  249MOL0     H32823   0.776   1.001   8.757 -2.1681  0.0085  0.0030
  249MOL0     H32824   0.816   0.834   8.574 -0.7430 -0.2294  1.5820
  249MOL0     H32825   0.725   0.948   8.468 -1.2921 -2.3765 -0.2975
  249MOL0     H32826   0.580   0.768   8.568 -5.4388 -0.1617  2.2764
  249MOL0     H32827   0.621   0.830   8.730 -1.7382 -0.5611  0.1627
  249MOL0     H32828   0.539   1.066   8.619 -1.2912  0.2937  1.6264
  249MOL0     H32829   0.442   0.953   8.710  5.1460 -0.8144  3.4025
  249MOL0     H32830   0.337   0.706   8.458  1.1138 -0.8745  0.7751
  249MOL0     H32831   0.112   0.633   8.408  2.8233  0.3643 -2.6778
  249MOL0     H32832  -0.372   0.993   8.224  0.8350 -0.4670 -0.8570
  249MOL0     H32833  -0.592   0.944   8.146 -0.0694  0.8504  0.7294
  249MOL0     H32834  -0.843   0.932   8.183 -1.7918  0.2230 -0.4023
  249MOL0     H32835  -0.839   0.868   8.349  0.8331 -1.5533  0.1541
  249MOL0     H32836  -0.979   0.697   8.309  1.5978  0.3491  0.5161
  249MOL0     H32837  -0.975   0.705   8.132  2.5975  1.4901 -2.2040
  249MOL0     H32838  -1.112   0.906   8.124  0.2329  1.0106  0.7652
  249MOL0     H32839  -1.071   0.931   8.292  0.7465  1.4855 -2.3241
  249MOL0     H32840  -1.239   0.685   8.202 -0.2159  2.8291 -2.5843
  249MOL0     H32841  -1.191   0.725   8.363 -0.0901  3.1894  1.1750
  249MOL0     H32842  -1.322   0.950   8.349 -1.9730  0.1476 -0.0108
  249MOL0     H32843  -1.413   0.797   8.342 -1.9212  0.7658 -1.3916
  249MOL0     H32844  -1.425   0.793   8.098 -1.0891 -0.1605  0.4384
  249MOL0     H32845  -1.334   0.946   8.090  0.7282 -1.4366 -0.7148
  249MOL0     H32846  -1.563   0.979   8.068  1.5419  1.1846 -0.2874
  249MOL0     H32847  -1.605   0.872   8.194 -4.5015  1.9577 -2.2916
  249MOL0     H32848  -1.519   1.039   8.348 -0.5145  0.2109 -0.2891
  249MOL0     H32849  -1.626   1.125   8.234  1.2464  2.9863  0.6230
  249MOL0     H32850  -0.618   0.603   8.390 -0.7501  0.8858 -2.0075
  249MOL0     H32851  -0.378   0.640   8.468 -0.8053  0.9120  1.9862
  249MOL0     H32852  -0.042   1.019   8.509  0.3254  0.0902  1.6172
  249MOL0     H32853   0.198   1.108   8.499 -3.3356  1.7430 -2.6047
  249MOL0     H32854   2.001   1.305   9.298 -1.5288  3.5919 -3.3298
  249MOL0     H32855   2.233   1.181   9.350 -1.5503 -2.5143  0.7959
  249MOL0     H32856   2.689   0.894   8.958  0.8946 -0.3877  0.2403
  249MOL0     H32857   2.870   0.776   9.058 -0.3245  1.5228 -0.7613
  249MOL0     H32858   2.929   0.687   9.521 -1.3959 -0.9645 -1.8293
  249MOL0     H32859   2.960   0.847   9.460  0.4632  0.0131  0.8190
  249MOL0     H32860   3.171   0.744   9.488 -0.7930  3.1791  0.1560
  249MOL0     H32861   3.123   0.625   9.357 -1.3257  1.0571 -3.5451
  249MOL0     H32862   3.098   0.913   9.310 -0.3343 -1.1838  0.1027
  249MOL0     H32863   3.101   0.777   9.194 -1.2343  0.5159  0.0474
  249MOL0     H32864   3.340   0.895   9.352 -0.3918 -1.4129  0.6825
  249MOL0     H32865   3.354   0.743   9.274  0.1433 -0.1517  0.1747
  249MOL0     H32866   3.391   1.011   8.952  0.0270 -1.7421 -1.7227
  249MOL0     H32867   2.676   0.817   9.445 -1.3447  2.4495  0.3180
  249MOL0     H32868   2.499   0.906   9.356  0.4423 -1.3546  1.9382
  250MOL0     O32869   3.963  11.143   0.440  0.0591  0.3068 -0.3933
  250MOL0     C32870   4.062  11.154   0.364 -0.5129  0.4465  0.2554
  250MOL0     O32871   4.062  11.212   0.243  0.2242  1.1312 -0.3395
  250MOL0     C32872   3.938  11.251   0.199 -0.8649 -1.0430  0.7389
  250MOL0     C32873   3.902  11.189   0.075  0.0437  0.9077 -0.1006
  250MOL0     C32874   3.783  11.222   0.012  0.7042 -0.0809 -0.4697
  250MOL0     C32875   3.714  11.333   0.067  0.6841  0.1539 -0.2386
  250MOL0     O32876   3.587  11.355   0.008 -0.4231  0.0474 -0.4533
  250MOL0     C32877   3.484  11.425   0.077  0.4780 -0.1143  0.0267
  250MOL0     C32878   3.373  11.451  -0.026 -0.2902 -0.2954  0.1224
  250MOL0     C32879   3.238  11.470   0.051 -1.1869 -0.2041 -0.1974
  250MOL0     C32880   3.135  11.546  -0.037 -0.0081 -0.1101 -0.1028
  250MOL0     C32881   2.996  11.554   0.030  0.6277 -0.9693 -0.3954
  250MOL0     C32882   2.885  11.574  -0.081  0.6446 -0.1534  0.5072
  250MOL0     C32883   2.742  11.555  -0.015 -0.6987  0.5858  0.2002
  250MOL0     C32884   2.626  11.568  -0.111 -0.7240  0.0996  0.0358
  250MOL0     N32885   2.498  11.569  -0.038  0.1260 -0.1195  0.5573
  250MOL0     C32886   2.397  11.649  -0.062 -0.5092 -0.2705 -0.2793
  250MOL0     C32887   2.309  11.625   0.043  0.0870 -0.1696  0.3245
  250MOL0     C32888   2.182  11.702   0.076 -0.0420  0.2145  0.1798
  250MOL0     C32889   2.096  11.700  -0.047  0.0140 -0.2058  0.4926
  250MOL0     C32890   1.959  11.743  -0.032  0.1911 -0.2860  0.3577
  250MOL0     C32891   1.866  11.662   0.061 -0.1397  0.6816 -0.6440
  250MOL0     O32892   1.859  11.530   0.005 -0.3057  0.1511  0.5269
  250MOL0     C32893   1.763  11.452   0.060  0.4566  0.3562 -0.2283
  250MOL0     C32894   1.725  11.341  -0.020  0.4364 -0.0523 -0.5910
  250MOL0     C32895   1.625  11.248   0.028 -0.5172 -0.1407  1.7899
  250MOL0     C32896   1.568  11.265   0.150 -0.0301 -0.0432  0.1078
  250MOL0     C32897   1.458  11.189   0.196 -0.1948 -0.0257  0.3772
  250MOL0     O32898   1.466  11.052   0.165  0.3865  0.0492  0.0015
  250MOL0     C32899   1.351  10.980   0.186 -0.1162 -0.0682 -0.4600
  250MOL0     C32900   1.273  10.976   0.071  0.0477 -0.2450 -0.5678
  250MOL0     C32901   1.165  10.889   0.058  0.2941  0.0011  0.5225
  250MOL0     C32902   1.132  10.798   0.159  0.1244  0.1779 -0.6715
  250MOL0     O32903   1.031  10.703   0.159 -0.4648  0.1393  0.4223
  250MOL0     C32904   0.971  10.690   0.036  0.5351 -0.0569  0.0488
  250MOL0     C32905   0.884  10.565   0.037  0.3348  0.0274 -1.1698
  250MOL0     C32906   0.787  10.577  -0.081  0.5756 -0.3473  1.1944
  250MOL0     C32907   0.689  10.453  -0.083  1.2897 -0.7055  0.7089
  250MOL0     C32908   0.575  10.487  -0.171  0.3770  0.8296  0.1737
  250MOL0     C32909   0.468  10.370  -0.161 -1.0951  0.7288  0.6499
  250MOL0     C32910   0.352  10.406  -0.256  0.2142  0.0178 -0.5957
  250MOL0     C32911   0.271  10.267  -0.264  0.8941 -0.8219  0.0850
  250MOL0    Cl32912   0.334  10.180  -0.403  0.6804  0.8113  0.0650
  250MOL0     C32913   1.216  10.799   0.280  0.4660 -0.8633 -0.1493
  250MOL0     C32914   1.324  10.893   0.290 -0.1295  0.4077 -0.2551
  250MOL0     O32915   1.365  11.249   0.262  0.1130 -0.3381  0.8344
  250MOL0     C32916   1.600  11.378   0.221  0.1849 -0.2312 -0.0568
  250MOL0     C32917   1.704  11.463   0.182  1.1692  0.1352 -0.2166
  250MOL0     N32918   2.365  11.523   0.123 -0.1442  0.0358  0.3435
  250MOL0     N32919   2.481  11.492   0.070  0.5214  0.4016  0.2867
  250MOL0     C32920   3.760  11.404   0.181  0.8019 -0.0146 -0.2272
  250MOL0     C32921   3.867  11.357   0.253  0.0307  0.0326  0.4848
  250MOL0     C32922   4.209  11.121   0.414  0.5855 -0.5041 -1.1539
  250MOL0     C32923   4.324  11.114   0.340 -0.0843  0.3715  0.0360
  250MOL0     C32924   4.447  11.082   0.396 -0.2618  0.3694 -0.3525
  250MOL0     C32925   4.459  11.073   0.532  0.2230 -0.5828 -0.7732
  250MOL0     O32926   4.586  11.029   0.577  0.3444 -0.5142 -0.4125
  250MOL0     C32927   4.592  10.993   0.717 -0.8742 -0.3189 -0.0608
  250MOL0     C32928   4.600  11.117   0.799 -0.7252 -1.1355  0.2201
  250MOL0     C32929   4.718  11.231   0.758 -0.0409 -0.6063 -0.0782
  250MOL0     C32930   4.854  11.162   0.742 -0.8290 -0.1931 -0.0424
  250MOL0     C32931   4.974  11.253   0.741  0.6738  0.0773  0.1438
  250MOL0     C32932   5.077  11.320   0.743  0.0252  0.9303  0.2354
  250MOL0     C32933   4.343  11.068   0.608  0.2569  0.0490  0.6113
  250MOL0     C32934   4.218  11.095   0.550 -1.1287  0.2150 -0.1785
  250MOL0     H32935   3.958  11.104   0.039 -3.5663 -2.1538  0.9266
  250MOL0     H32936   3.756  11.172  -0.080  1.5058  1.8229 -1.8061
  250MOL0     H32937   3.519  11.516   0.127  1.5996 -1.8482  2.6285
  250MOL0     H32938   3.427  11.367   0.151 -0.9690  0.3916 -0.6477
  250MOL0     H32939   3.363  11.379  -0.109 -1.6291  0.5574 -0.4801
  250MOL0     H32940   3.400  11.549  -0.068 -0.4934 -0.0579  0.5411
  250MOL0     H32941   3.255  11.524   0.145 -0.1334 -1.2987  0.2678
  250MOL0     H32942   3.200  11.371   0.081  0.3258 -0.2654  1.7274
  250MOL0     H32943   3.183  11.643  -0.048 -2.5000  1.0846 -1.4727
  250MOL0     H32944   3.139  11.500  -0.136  1.4575  1.1960 -0.6805
  250MOL0     H32945   3.015  11.615   0.119  1.3070 -2.2209  0.3370
  250MOL0     H32946   2.974  11.456   0.072 -1.7588 -0.8031 -1.1189
  250MOL0     H32947   2.893  11.495  -0.156  2.1905  0.0511  0.4227
  250MOL0     H32948   2.891  11.675  -0.124 -0.1076 -0.3600 -0.1155
  250MOL0     H32949   2.736  11.463   0.044 -0.8984  0.1961 -0.4160
  250MOL0     H32950   2.733  11.643   0.049 -1.4714  0.6309  0.0356
  250MOL0     H32951   2.628  11.471  -0.161 -2.3908 -1.1373  2.1695
  250MOL0     H32952   2.645  11.644  -0.187  1.5269 -0.3249  0.0845
  250MOL0     H32953   2.379  11.722  -0.140 -0.9157  1.3705  1.2683
  250MOL0     H32954   2.198  11.806   0.106 -2.8840  1.2450 -1.4705
  250MOL0     H32955   2.128  11.641   0.150 -0.0600 -2.7882 -2.1019
  250MOL0     H32956   2.098  11.595  -0.077 -0.4600  0.0206 -0.3751
  250MOL0     H32957   2.148  11.771  -0.112 -1.2138  0.2625 -0.0138
  250MOL0     H32958   1.951  11.847   0.000  0.0604 -0.0983 -0.2624
  250MOL0     H32959   1.922  11.738  -0.135  2.3068  2.2133 -0.6481
  250MOL0     H32960   1.767  11.706   0.073 -0.8143 -1.0997  0.5502
  250MOL0     H32961   1.903  11.655   0.164 -1.5423  0.6819 -0.1222
  250MOL0     H32962   1.774  11.332  -0.116  0.9135 -2.5806 -0.1864
  250MOL0     H32963   1.583  11.172  -0.037 -0.1788  1.7770 -0.8348
  250MOL0     H32964   1.302  11.039  -0.012  0.4956 -0.2220 -0.3964
  250MOL0     H32965   1.107  10.896  -0.033 -1.9083 -1.5040  1.7126
  250MOL0     H32966   1.043  10.685  -0.046  0.1979  0.1903 -0.2684
  250MOL0     H32967   0.914  10.781   0.013  0.1371 -0.4821 -0.6811
  250MOL0     H32968   0.827  10.574   0.130  0.9665 -1.3012 -0.6373
  250MOL0     H32969   0.961  10.488   0.036  0.7444  0.4272 -2.5855
  250MOL0     H32970   0.843  10.584  -0.175  1.3207  0.9396  1.6987
  250MOL0     H32971   0.723  10.665  -0.083  0.2387 -0.5932  0.9485
  250MOL0     H32972   0.740  10.359  -0.104 -0.6845 -1.5484 -0.6280
  250MOL0     H32973   0.643  10.437   0.015 -2.4345  1.9763 -0.3802
  250MOL0     H32974   0.609  10.478  -0.275 -1.0084  0.7281 -0.2985
  250MOL0     H32975   0.532  10.587  -0.163 -1.1586  0.3457 -1.3075
  250MOL0     H32976   0.450  10.364  -0.053 -0.4447  3.8089  1.0247
  250MOL0     H32977   0.507  10.273  -0.194 -1.5719  1.8270 -3.7915
  250MOL0     H32978   0.297  10.481  -0.199  2.6327  1.6849 -0.3470
  250MOL0     H32979   0.376  10.454  -0.350  0.8680  2.9544  0.9621
  250MOL0     H32980   0.164  10.282  -0.277  1.0514  1.3280  0.8337
  250MOL0     H32981   0.285  10.214  -0.170  0.1393  1.0457  1.3034
  250MOL0     H32982   1.195  10.732   0.362  1.4745 -1.3419 -0.2652
  250MOL0     H32983   1.390  10.890   0.376 -2.2558  0.3566  1.4467
  250MOL0     H32984   1.563  11.399   0.321 -0.4077  0.6631 -0.4593
  250MOL0     H32985   1.707  11.546   0.252 -1.8512  1.9402 -2.0108
  250MOL0     H32986   3.716  11.493   0.224  0.4486 -0.9957  1.5233
  250MOL0     H32987   3.898  11.408   0.343 -2.3808  0.5836  1.0666
  250MOL0     H32988   4.322  11.141   0.235 -3.6365 -2.5350 -0.8448
  250MOL0     H32989   4.529  11.086   0.324 -0.5887 -1.5159 -0.8723
  250MOL0     H32990   4.676  10.923   0.727 -2.8147 -2.9629 -1.0535
  250MOL0     H32991   4.504  10.937   0.750 -0.6801 -0.5605  0.0504
  250MOL0     H32992   4.506  11.174   0.797  0.9527  1.9237  1.0674
  250MOL0     H32993   4.617  11.092   0.904 -1.6762  0.7557  0.8802
  250MOL0     H32994   4.726  11.298   0.844 -0.9847 -1.4699  0.7115
  250MOL0     H32995   4.703  11.285   0.664  1.4087 -0.2309 -0.1227
  250MOL0     H32996   4.876  11.104   0.832  1.7183  1.5197  0.5361
  250MOL0     H32997   4.861  11.097   0.655 -2.6770  0.4265 -0.7019
  250MOL0     H32998   5.155  11.394   0.743  1.8745 -0.8313 -2.3164
  250MOL0     H32999   4.332  11.052   0.714  1.0692  1.0787  0.8627
  250MOL0     H33000   4.129  11.096   0.611  1.2425  0.1662  3.6336
  251MOL0     O33001   7.281   1.572   9.436 -0.1517 -0.2174  0.6145
  251MOL0     C33002   7.317   1.530   9.550  0.2440 -0.0825 -0.6829
  251MOL0     O33003   7.330   1.605   9.665 -0.4503 -0.4866  0.4394
  251MOL0     C33004   7.238   1.701   9.673  0.0703  0.3447  0.3736
  251MOL0     C33005   7.260   1.837   9.654 -0.0249  0.7413  0.1115
  251MOL0     C33006   7.166   1.940   9.662  0.8694 -0.1206  0.3448
  251MOL0     C33007   7.026   1.901   9.687 -0.2980  0.6032  0.0734
  251MOL0     O33008   6.924   1.993   9.730  0.4949  0.6223 -0.4382
  251MOL0     C33009   6.805   1.960   9.801  0.3355  0.5287  0.3847
  251MOL0     C33010   6.730   2.080   9.861 -0.0721 -0.0200 -0.6317
  251MOL0     C33011   6.619   2.030   9.961 -0.4995 -0.0611  0.4610
  251MOL0     C33012   6.556   2.136  10.043  0.3372 -0.1525  0.3183
  251MOL0     C33013   6.475   2.254   9.978 -0.3834 -0.1625  0.6888
  251MOL0     C33014   6.356   2.195   9.907  0.8619  0.5780  0.0495
  251MOL0     C33015   6.247   2.295   9.885  0.1046 -0.7997  0.2396
  251MOL0     C33016   6.306   2.411   9.800  0.6334 -0.2717 -0.0470
  251MOL0     N33017   6.345   2.365   9.659  0.4882  0.2973  0.0989
  251MOL0     C33018   6.260   2.347   9.561 -0.3004  0.0138 -0.4734
  251MOL0     C33019   6.327   2.333   9.448  0.6135 -0.1072  0.1720
  251MOL0     C33020   6.255   2.310   9.316  0.6210 -0.3321  1.5436
  251MOL0     C33021   6.158   2.409   9.251 -0.4535 -0.2291 -0.4148
  251MOL0     C33022   6.064   2.338   9.142  1.3379  0.9818 -0.0064
  251MOL0     C33023   6.139   2.265   9.029  0.8319 -1.0164  0.0747
  251MOL0     O33024   6.175   2.354   8.925 -0.4404 -0.1351  0.0844
  251MOL0     C33025   6.070   2.402   8.843  0.0217  0.4488 -0.5915
  251MOL0     C33026   5.939   2.355   8.845  0.2924 -0.0506  0.6675
  251MOL0     C33027   5.842   2.407   8.764 -0.5078 -0.2845  0.4933
  251MOL0     C33028   5.882   2.504   8.667  0.2409 -0.3506 -0.0134
  251MOL0     C33029   5.780   2.562   8.565  0.2526 -0.1390 -0.4434
  251MOL0     O33030   5.647   2.514   8.564  0.4148 -0.4652 -0.6121
  251MOL0     C33031   5.549   2.535   8.469 -0.4089  0.0535 -0.4269
  251MOL0     C33032   5.554   2.625   8.365 -0.1551  0.1497  0.0850
  251MOL0     C33033   5.434   2.645   8.296 -0.3720  0.8298 -1.2662
  251MOL0     C33034   5.314   2.585   8.334  0.2729  0.5176  0.9314
  251MOL0     O33035   5.199   2.619   8.259  0.1188  0.0925 -0.3321
  251MOL0     C33036   5.081   2.641   8.341 -0.0576  0.3492  0.5258
  251MOL0     C33037   5.032   2.782   8.301 -0.4103 -0.3842 -1.1400
  251MOL0     C33038   4.896   2.813   8.372  0.5605 -0.7890 -0.0725
  251MOL0     C33039   4.870   2.963   8.349  0.6726  0.7231  0.0741
  251MOL0     C33040   4.760   3.023   8.452 -0.4442  0.1066  0.6709
  251MOL0     C33041   4.632   2.943   8.463 -0.2857 -0.4037 -0.6230
  251MOL0     C33042   4.523   3.017   8.547 -0.5837 -0.9776 -0.8145
  251MOL0     C33043   4.388   2.968   8.512  0.9214  0.6144 -0.4892
  251MOL0    Cl33044   4.278   3.047   8.619 -0.2016  0.1301  0.0497
  251MOL0     C33045   5.312   2.501   8.447  0.2211 -1.0597 -0.6067
  251MOL0     C33046   5.432   2.473   8.508 -0.8005 -0.0965 -0.2613
  251MOL0     O33047   5.824   2.649   8.498  0.2092  0.5813 -0.5112
  251MOL0     C33048   6.017   2.552   8.667 -0.3284 -0.3262  0.6926
  251MOL0     C33049   6.107   2.501   8.752  0.0305 -0.1408 -0.2918
  251MOL0     N33050   6.463   2.319   9.481 -0.1837  0.1233  0.0083
  251MOL0     N33051   6.473   2.354   9.607 -0.3480 -0.1800 -0.5186
  251MOL0     C33052   7.000   1.763   9.706 -0.1703  0.6844 -0.0950
  251MOL0     C33053   7.112   1.667   9.703  0.8989 -0.0623 -0.3479
  251MOL0     C33054   7.351   1.384   9.552 -0.5861 -0.5840  0.6403
  251MOL0     C33055   7.387   1.327   9.670 -0.1173  0.7000 -0.3606
  251MOL0     C33056   7.444   1.197   9.667  0.0277 -0.1814 -0.0634
  251MOL0     C33057   7.490   1.135   9.552 -0.0596  0.1385 -0.2008
  251MOL0     O33058   7.558   1.016   9.557 -0.2941  0.4453  0.7103
  251MOL0     C33059   7.664   1.004   9.661  0.7789  0.0811 -0.2872
  251MOL0     C33060   7.762   0.885   9.633  0.2554 -0.2055  0.4716
  251MOL0     C33061   7.710   0.766   9.708  0.5525  0.7377  0.5081
  251MOL0     C33062   7.775   0.643   9.645  0.4015 -0.5089 -0.9047
  251MOL0     C33063   7.707   0.526   9.706  0.1315 -1.1136  0.0795
  251MOL0     C33064   7.640   0.439   9.761  1.2858  0.0958 -0.6904
  251MOL0     C33065   7.468   1.205   9.436  0.3953  0.0959 -1.6005
  251MOL0     C33066   7.394   1.326   9.432  0.3986 -0.7164 -1.0233
  251MOL0     H33067   7.365   1.863   9.664  0.0751 -0.3019  2.1993
  251MOL0     H33068   7.204   2.042   9.656  0.7348 -0.0354  0.9048
  251MOL0     H33069   6.834   1.889   9.879  2.2748  0.2783 -0.4836
  251MOL0     H33070   6.753   1.905   9.723  2.1332  0.9090 -1.1663
  251MOL0     H33071   6.690   2.142   9.780  1.5946  0.2657 -1.2602
  251MOL0     H33072   6.794   2.150   9.915 -3.5544  3.8237 -0.9428
  251MOL0     H33073   6.662   1.960  10.033  1.3821  0.5339 -0.0398
  251MOL0     H33074   6.544   1.976   9.901 -0.5653  1.5779 -1.0171
  251MOL0     H33075   6.486   2.097  10.118  1.8945 -0.0792  1.8448
  251MOL0     H33076   6.636   2.183  10.101  0.9425  1.2943 -1.6031
  251MOL0     H33077   6.530   2.301   9.897 -0.0757  0.2956  1.1551
  251MOL0     H33078   6.451   2.333  10.050 -0.4569  2.3024 -1.8898
  251MOL0     H33079   6.321   2.118   9.977  0.7265  0.2702 -0.3487
  251MOL0     H33080   6.392   2.146   9.816 -1.1398 -0.6251 -0.1485
  251MOL0     H33081   6.161   2.252   9.833  0.8525 -1.3912 -0.5485
  251MOL0     H33082   6.211   2.325   9.983  1.0186 -1.0044  0.6507
  251MOL0     H33083   6.392   2.459   9.848  0.7737  2.3128 -2.6529
  251MOL0     H33084   6.222   2.481   9.802  1.6427  0.9682  1.8675
  251MOL0     H33085   6.153   2.362   9.577 -0.1090  2.3595 -0.9822
  251MOL0     H33086   6.203   2.215   9.326 -0.5997  0.1876  0.4439
  251MOL0     H33087   6.336   2.283   9.247  2.2860  0.6245  3.0557
  251MOL0     H33088   6.214   2.486   9.198 -3.9940  0.9455 -2.8782
  251MOL0     H33089   6.103   2.457   9.332 -1.9414 -1.0586 -0.8922
  251MOL0     H33090   6.003   2.273   9.206  1.7860  0.8306  0.2728
  251MOL0     H33091   6.001   2.419   9.104  3.3496  2.0394 -1.2646
  251MOL0     H33092   6.076   2.185   8.988  0.4269 -1.5908  1.7263
  251MOL0     H33093   6.228   2.216   9.070 -1.4054 -2.4989  3.6590
  251MOL0     H33094   5.906   2.284   8.919 -0.2923  0.5900  1.0285
  251MOL0     H33095   5.740   2.369   8.756 -1.6131  2.1958  1.5788
  251MOL0     H33096   5.642   2.681   8.337  0.8152 -0.3144  2.0250
  251MOL0     H33097   5.433   2.713   8.212 -2.7616  1.0227 -1.1534
  251MOL0     H33098   5.103   2.632   8.448 -1.1969 -3.0962  0.6214
  251MOL0     H33099   5.009   2.564   8.311  1.6547 -1.3721  0.6151
  251MOL0     H33100   5.028   2.801   8.194 -1.4273 -2.1113 -1.4401
  251MOL0     H33101   5.104   2.850   8.348 -0.5979  0.3502 -1.8804
  251MOL0     H33102   4.924   2.806   8.478  1.0599 -1.3649 -0.2384
  251MOL0     H33103   4.814   2.746   8.349 -0.2323  0.1514 -0.0747
  251MOL0     H33104   4.962   3.023   8.352  0.7058  0.6846 -0.1336
  251MOL0     H33105   4.827   2.983   8.250 -2.0663 -0.8821  0.8335
  251MOL0     H33106   4.742   3.128   8.426  4.8605  1.1795  0.1935
  251MOL0     H33107   4.807   3.024   8.551  1.8175  1.1130 -0.3384
  251MOL0     H33108   4.661   2.847   8.507 -0.1075 -0.6134 -1.1883
  251MOL0     H33109   4.585   2.927   8.365 -0.8928 -4.0708  0.1089
  251MOL0     H33110   4.544   2.997   8.652  0.5999  1.3186 -0.5286
  251MOL0     H33111   4.537   3.126   8.537  0.5647 -1.2087 -2.0760
  251MOL0     H33112   4.379   2.859   8.520  0.5014  0.7668  1.7417
  251MOL0     H33113   4.358   3.005   8.414 -0.2953  0.1345 -0.3229
  251MOL0     H33114   5.221   2.462   8.492  0.9977 -0.5939  1.4706
  251MOL0     H33115   5.422   2.404   8.592 -1.9737  0.2953 -0.0617
  251MOL0     H33116   6.058   2.626   8.599 -0.5716  0.0187  0.9195
  251MOL0     H33117   6.207   2.541   8.744 -0.4813  0.9357 -1.8640
  251MOL0     H33118   6.895   1.735   9.713 -0.8620  2.2794 -2.6492
  251MOL0     H33119   7.096   1.560   9.710  1.3654 -0.1415 -0.4908
  251MOL0     H33120   7.355   1.375   9.762  1.0000  2.3212 -0.7608
  251MOL0     H33121   7.445   1.151   9.765 -0.9095 -0.0760  0.0013
  251MOL0     H33122   7.604   0.994   9.752 -0.7251  1.7849 -1.0095
  251MOL0     H33123   7.718   1.099   9.669  0.8957 -0.1710  3.3053
  251MOL0     H33124   7.763   0.863   9.526 -1.3757 -0.0988  0.4015
  251MOL0     H33125   7.860   0.917   9.669  0.8643  1.0047 -2.0641
  251MOL0     H33126   7.602   0.761   9.692  0.6701 -3.8980 -0.2097
  251MOL0     H33127   7.741   0.761   9.813 -1.8873  1.5951  1.3414
  251MOL0     H33128   7.772   0.649   9.535 -1.1391 -0.1890 -0.8632
  251MOL0     H33129   7.877   0.637   9.685  0.2707  0.3439 -0.4245
  251MOL0     H33130   7.587   0.363   9.815  0.6840 -0.0383 -1.4554
  251MOL0     H33131   7.524   1.183   9.345  1.2475 -1.3377 -0.7722
  251MOL0     H33132   7.391   1.376   9.335  3.4103  0.9250 -0.4059
  252MOL0     O33133   2.011   6.468   4.240  0.0518  0.2009  0.4396
  252MOL0     C33134   2.048   6.536   4.335 -0.3842 -1.2274  0.2140
  252MOL0     O33135   1.979   6.641   4.384 -0.4596 -0.1165  0.0122
  252MOL0     C33136   1.877   6.703   4.312  0.0318  0.2139 -1.1678
  252MOL0     C33137   1.875   6.835   4.296  0.6477 -0.2344 -0.2243
  252MOL0     C33138   1.781   6.895   4.204 -0.0614 -0.2630 -0.3569
  252MOL0     C33139   1.678   6.823   4.145 -0.2360  0.4032 -0.3176
  252MOL0     O33140   1.571   6.867   4.078  0.6279 -0.3722 -0.4874
  252MOL0     C33141   1.487   6.955   4.158  0.4963 -1.0270  0.0464
  252MOL0     C33142   1.429   6.899   4.291 -0.2251 -0.1623 -0.0376
  252MOL0     C33143   1.333   6.782   4.261 -0.5302  0.6609 -0.2042
  252MOL0     C33144   1.274   6.709   4.383 -0.7413 -0.2234 -1.1063
  252MOL0     C33145   1.211   6.796   4.491 -0.0858  0.3370  0.5147
  252MOL0     C33146   1.083   6.869   4.433 -0.7153  0.1954 -0.7074
  252MOL0     C33147   1.015   6.951   4.546  0.8955  0.0948 -0.1338
  252MOL0     C33148   0.967   6.866   4.668 -0.5014  0.0647 -0.0387
  252MOL0     N33149   0.835   6.804   4.658 -0.4470  0.2400 -0.1405
  252MOL0     C33150   0.721   6.846   4.577  0.3491 -0.4908 -0.6685
  252MOL0     C33151   0.651   6.735   4.557  0.2993  0.6721  0.4172
  252MOL0     C33152   0.542   6.730   4.460 -0.1270 -0.0214 -0.6263
  252MOL0     C33153   0.582   6.739   4.315 -0.4396 -0.2951  0.1343
  252MOL0     C33154   0.667   6.619   4.260  0.3174  0.1742 -0.1050
  252MOL0     C33155   0.813   6.651   4.237  0.0140 -0.6931  0.3364
  252MOL0     O33156   0.836   6.782   4.179  0.1021 -0.3804  0.0935
  252MOL0     C33157   0.931   6.802   4.084  0.8908 -0.3268 -0.4394
  252MOL0     C33158   0.994   6.926   4.078 -0.5893 -0.1594 -0.6621
  252MOL0     C33159   1.105   6.948   3.992  0.1006 -0.0401  0.0192
  252MOL0     C33160   1.156   6.845   3.910 -0.4204  0.9939  0.0244
  252MOL0     C33161   1.275   6.863   3.825  0.2291  0.1900  0.2746
  252MOL0     O33162   1.281   6.794   3.698  0.5112  0.4683 -0.0364
  252MOL0     C33163   1.380   6.838   3.619  0.2909 -0.1797  0.4386
  252MOL0     C33164   1.356   6.961   3.558  0.2313 -0.3893  0.1649
  252MOL0     C33165   1.449   7.017   3.468  0.1411  0.3462  0.0218
  252MOL0     C33166   1.568   6.954   3.441  0.3275 -0.7975 -0.1891
  252MOL0     O33167   1.671   7.000   3.355  0.0542  0.5203 -0.0287
  252MOL0     C33168   1.626   7.096   3.260 -1.5340  0.8309  0.7876
  252MOL0     C33169   1.739   7.129   3.166  0.7318 -0.0763 -0.4569
  252MOL0     C33170   1.868   7.171   3.242 -0.9496 -0.8148  0.1937
  252MOL0     C33171   1.987   7.195   3.147  0.5462 -1.0833  0.0909
  252MOL0     C33172   2.110   7.233   3.220 -1.5280  0.0876 -0.6045
  252MOL0     C33173   2.243   7.228   3.148  0.1948 -0.0957  1.4623
  252MOL0     C33174   2.369   7.290   3.211  0.9455  0.4758 -0.8470
  252MOL0     C33175   2.445   7.391   3.133  0.3002 -0.1748  0.2313
  252MOL0    Cl33176   2.601   7.425   3.216  0.2465  0.2485  0.0092
  252MOL0     C33177   1.599   6.833   3.506 -0.1061  0.0252 -0.2523
  252MOL0     C33178   1.507   6.782   3.596  0.7789  0.5269 -0.9092
  252MOL0     O33179   1.351   6.954   3.858  0.3476 -0.0618 -0.8103
  252MOL0     C33180   1.086   6.722   3.918 -0.8410  0.2001 -0.4673
  252MOL0     C33181   0.976   6.706   3.996 -0.5606 -0.5591 -0.8616
  252MOL0     N33182   0.719   6.625   4.611  0.0211  1.5558 -0.4664
  252MOL0     N33183   0.829   6.661   4.665 -0.7610 -0.8020  0.3027
  252MOL0     C33184   1.677   6.682   4.161  0.8786 -0.1018 -0.1231
  252MOL0     C33185   1.778   6.621   4.243  0.2653 -0.1928  1.3209
  252MOL0     C33186   2.171   6.505   4.396  0.2726 -0.3508  0.6410
  252MOL0     C33187   2.264   6.410   4.354 -0.3419  0.9566  0.2184
  252MOL0     C33188   2.383   6.388   4.430 -0.3124 -0.3357  0.3596
  252MOL0     C33189   2.413   6.461   4.542  0.0444 -0.4428 -0.6028
  252MOL0     O33190   2.533   6.460   4.610 -0.0081 -0.0604  0.7723
  252MOL0     C33191   2.655   6.405   4.546  0.4322  0.8987 -0.8348
  252MOL0     C33192   2.711   6.466   4.423 -1.0683 -0.6431  0.2864
  252MOL0     C33193   2.836   6.395   4.378 -0.2031 -0.3079 -0.1265
  252MOL0     C33194   2.889   6.470   4.258 -0.9897  0.4695 -0.3758
  252MOL0     C33195   2.935   6.609   4.297  0.2504 -0.5014 -0.6333
  252MOL0     C33196   2.975   6.715   4.339  1.1899  0.0375  0.9883
  252MOL0     C33197   2.309   6.542   4.599  0.7190 -0.3269 -0.5071
  252MOL0     C33198   2.194   6.570   4.526  0.3673 -0.0158  0.6000
  252MOL0     H33199   1.957   6.889   4.343  0.5580 -1.8966  2.0107
  252MOL0     H33200   1.780   7.000   4.177  1.5682  0.2086  1.1666
  252MOL0     H33201   1.406   7.000   4.102 -0.9203 -1.6291  1.5062
  252MOL0     H33202   1.554   7.040   4.173 -0.9401  1.2759 -4.7320
  252MOL0     H33203   1.388   6.987   4.340 -0.8720  0.2298 -1.2561
  252MOL0     H33204   1.504   6.867   4.365 -1.0952 -1.7364  0.2227
  252MOL0     H33205   1.392   6.702   4.216  0.8202  0.4608  1.7492
  252MOL0     H33206   1.247   6.812   4.201 -1.9432  0.0041  1.4218
  252MOL0     H33207   1.195   6.644   4.343 -1.0717 -0.0553 -0.7300
  252MOL0     H33208   1.348   6.648   4.434  0.5148 -0.4873 -3.1101
  252MOL0     H33209   1.276   6.864   4.545  0.8983 -0.4215  0.3092
  252MOL0     H33210   1.178   6.718   4.560 -3.5084  1.6274  0.5458
  252MOL0     H33211   1.014   6.796   4.392 -0.0515 -1.1723  0.5108
  252MOL0     H33212   1.096   6.930   4.343 -1.4325 -0.9867 -1.6446
  252MOL0     H33213   1.079   7.030   4.587  0.9275 -0.0523  0.1001
  252MOL0     H33214   0.932   7.000   4.493 -0.5197 -1.7981  0.2199
  252MOL0     H33215   0.959   6.930   4.756 -0.5833 -0.9389  0.7047
  252MOL0     H33216   1.041   6.792   4.700 -0.6646  0.3603  1.0799
  252MOL0     H33217   0.709   6.944   4.530  0.4307  0.2180  0.7268
  252MOL0     H33218   0.479   6.815   4.488  3.1666  1.9076  1.6868
  252MOL0     H33219   0.486   6.637   4.474  2.1348 -1.3236  0.2063
  252MOL0     H33220   0.633   6.834   4.298  3.1171 -2.4195 -2.3195
  252MOL0     H33221   0.483   6.742   4.266 -1.0293  0.8888  1.3280
  252MOL0     H33222   0.662   6.540   4.335 -1.6599 -2.3012 -2.5995
  252MOL0     H33223   0.614   6.585   4.170 -3.4033 -3.4885  3.0947
  252MOL0     H33224   0.853   6.568   4.178 -2.9217 -2.8114  1.0565
  252MOL0     H33225   0.861   6.647   4.335  1.2688 -2.1823 -0.3085
  252MOL0     H33226   0.957   7.003   4.146 -1.3934 -2.1802  1.3023
  252MOL0     H33227   1.147   7.048   3.992  0.6138 -0.2383  1.0668
  252MOL0     H33228   1.268   7.019   3.581 -1.7277 -3.1857  0.2984
  252MOL0     H33229   1.434   7.118   3.433  1.6537  0.7951  0.5569
  252MOL0     H33230   1.596   7.189   3.309  1.6373  2.9657 -0.9980
  252MOL0     H33231   1.542   7.057   3.200 -0.3862  0.3392 -0.5642
  252MOL0     H33232   1.702   7.209   3.100  1.9649  0.4628 -0.5271
  252MOL0     H33233   1.766   7.046   3.100  1.1916  0.2803 -0.7278
  252MOL0     H33234   1.894   7.094   3.315 -1.4393 -2.2618 -1.0956
  252MOL0     H33235   1.858   7.264   3.299  4.5050  0.8513 -1.0103
  252MOL0     H33236   2.003   7.105   3.086  3.2461  0.0916 -1.1138
  252MOL0     H33237   1.972   7.279   3.078  2.3965 -1.4398 -0.8120
  252MOL0     H33238   2.132   7.161   3.300 -0.5892  1.4501  0.4143
  252MOL0     H33239   2.103   7.333   3.265  0.9813  0.5385 -1.0360
  252MOL0     H33240   2.232   7.275   3.050  3.2890 -1.5564  0.2777
  252MOL0     H33241   2.264   7.125   3.119  1.5477  0.1886  1.3691
  252MOL0     H33242   2.324   7.336   3.300  0.1442 -0.8615 -0.5305
  252MOL0     H33243   2.426   7.205   3.250 -1.1964 -1.0831 -0.9297
  252MOL0     H33244   2.396   7.484   3.101 -0.6352 -1.0361 -0.9238
  252MOL0     H33245   2.458   7.347   3.034 -2.4273  3.3564 -1.9710
  252MOL0     H33246   1.697   6.794   3.477  0.9805  1.5334  1.2401
  252MOL0     H33247   1.529   6.692   3.652 -1.6639  1.1410  1.2452
  252MOL0     H33248   1.116   6.643   3.850  2.0943  2.4209 -1.9830
  252MOL0     H33249   0.921   6.613   3.988 -0.2466 -0.8052 -0.1827
  252MOL0     H33250   1.591   6.634   4.115  1.3952 -1.9344  0.7450
  252MOL0     H33251   1.781   6.513   4.249 -0.7131 -0.5047 -1.9058
  252MOL0     H33252   2.253   6.354   4.261  0.4553  2.1605 -0.6436
  252MOL0     H33253   2.461   6.328   4.383 -0.7452 -0.3471 -0.3636
  252MOL0     H33254   2.621   6.302   4.530 -1.4916  1.6353 -1.7757
  252MOL0     H33255   2.731   6.401   4.625  0.0404  0.1097 -0.4851
  252MOL0     H33256   2.645   6.464   4.335 -0.8747 -3.0272  0.1232
  252MOL0     H33257   2.735   6.568   4.451 -1.2855 -0.7774  0.9679
  252MOL0     H33258   2.825   6.290   4.349  2.5325 -0.8271  0.4805
  252MOL0     H33259   2.898   6.413   4.466 -2.5524  1.3282  1.3214
  252MOL0     H33260   2.968   6.409   4.213  0.0494  0.7474  1.0091
  252MOL0     H33261   2.802   6.486   4.194 -1.1016 -3.8484 -1.6470
  252MOL0     H33262   2.996   6.810   4.384  0.0831  1.0773 -0.5838
  252MOL0     H33263   2.328   6.604   4.686  0.2057  3.5165 -2.9208
  252MOL0     H33264   2.126   6.645   4.564  0.4047  1.2465 -1.6604
  253MOL0     O33265   0.848   7.627   7.657  0.1636  0.0423  0.6879
  253MOL0     C33266   0.835   7.730   7.715  0.1785 -0.1798  0.1261
  253MOL0     O33267   0.930   7.811   7.764  0.2202 -0.3585  0.0735
  253MOL0     C33268   1.049   7.764   7.815  0.6640 -0.2148 -0.4969
  253MOL0     C33269   1.090   7.634   7.844  0.0419 -0.2133  0.2247
  253MOL0     C33270   1.210   7.600   7.900  0.2673  0.0879 -0.0988
  253MOL0     C33271   1.302   7.695   7.920 -0.1251 -0.8137  1.1908
  253MOL0     O33272   1.425   7.649   7.963  0.1987  0.3378 -0.9448
  253MOL0     C33273   1.550   7.721   7.967 -1.0931  0.4258  0.6206
  253MOL0     C33274   1.666   7.644   7.912 -0.1290 -0.1980 -0.1822
  253MOL0     C33275   1.806   7.709   7.918  0.9445  0.4062 -1.2727
  253MOL0     C33276   1.901   7.604   7.858 -0.3061 -0.0686 -0.4057
  253MOL0     C33277   2.049   7.658   7.858  0.3766 -0.4715  0.4937
  253MOL0     C33278   2.151   7.579   7.801 -0.0870  0.2396 -0.0278
  253MOL0     C33279   2.284   7.646   7.803 -0.6245 -0.0792  1.0972
  253MOL0     C33280   2.408   7.564   7.749  0.2997 -1.1002 -0.5363
  253MOL0     N33281   2.450   7.458   7.840 -0.4162 -0.0561 -0.4649
  253MOL0     C33282   2.535   7.477   7.953  0.1589  0.0709  0.2117
  253MOL0     C33283   2.600   7.364   7.969 -0.1920  0.5918 -0.3248
  253MOL0     C33284   2.699   7.324   8.069 -0.2211 -0.5969 -0.8644
  253MOL0     C33285   2.833   7.270   8.003  0.0675  0.5880  0.0041
  253MOL0     C33286   2.938   7.216   8.099 -0.2168  0.5467 -0.2507
  253MOL0     C33287   3.070   7.188   8.027  0.1401 -0.0513  0.2182
  253MOL0     O33288   3.153   7.104   8.113  0.0455  0.2620 -0.0810
  253MOL0     C33289   3.252   7.173   8.189  0.8576 -1.2121  0.2270
  253MOL0     C33290   3.380   7.194   8.149  0.2662  1.0656  0.5166
  253MOL0     C33291   3.473   7.259   8.230  0.2098  0.7523  0.2133
  253MOL0     C33292   3.437   7.303   8.352 -0.0165 -0.1198 -1.1136
  253MOL0     C33293   3.531   7.373   8.435  0.0127  0.2687 -0.2342
  253MOL0     O33294   3.657   7.387   8.385  0.4462 -0.3636 -0.7013
  253MOL0     C33295   3.759   7.436   8.470 -1.2239  0.4910  0.0976
  253MOL0     C33296   3.835   7.367   8.568 -0.8083  0.1367  0.4766
  253MOL0     C33297   3.934   7.433   8.657  0.0985  0.6595  0.0347
  253MOL0     C33298   3.951   7.570   8.643 -0.7518 -0.4028 -0.4498
  253MOL0     O33299   4.045   7.625   8.730 -0.3980 -0.6392  0.0882
  253MOL0     C33300   4.065   7.766   8.734 -0.1026 -0.8846 -0.2708
  253MOL0     C33301   4.141   7.824   8.856  0.3157  0.1412  0.3261
  253MOL0     C33302   4.107   7.969   8.839 -0.4893  0.1615 -0.6101
  253MOL0     C33303   4.198   8.053   8.929  0.0283 -0.4746 -0.0203
  253MOL0     C33304   4.171   8.202   8.919 -0.1703 -0.1868  0.7598
  253MOL0     C33305   4.265   8.306   8.981 -0.1347  0.6306  1.0405
  253MOL0     C33306   4.390   8.304   8.891 -1.5732  0.6888 -0.3743
  253MOL0     C33307   4.501   8.362   8.967  0.2837 -0.1775 -0.2490
  253MOL0    Cl33308   4.636   8.420   8.859  0.0753  0.2102 -0.6825
  253MOL0     C33309   3.880   7.642   8.554  0.5604  0.1778  0.7145
  253MOL0     C33310   3.802   7.571   8.456 -0.0248  0.6313  0.1503
  253MOL0     O33311   3.492   7.410   8.542 -0.0642 -0.3528 -0.0440
  253MOL0     C33312   3.311   7.282   8.399  0.1232  0.3462 -0.1968
  253MOL0     C33313   3.222   7.204   8.316 -0.3067 -0.7037 -0.9515
  253MOL0     N33314   2.558   7.282   7.860 -0.5066 -0.0381  0.5431
  253MOL0     N33315   2.467   7.339   7.784 -0.3690  0.0100 -0.4853
  253MOL0     C33316   1.275   7.824   7.881  0.6329 -0.2877 -0.6884
  253MOL0     C33317   1.145   7.863   7.837 -0.1529 -0.1449 -1.0678
  253MOL0     C33318   0.701   7.796   7.701 -0.7950  0.2387  0.5434
  253MOL0     C33319   0.671   7.916   7.751 -0.4326  0.2864  0.3117
  253MOL0     C33320   0.543   7.956   7.742  0.3341 -0.5306  0.9110
  253MOL0     C33321   0.445   7.894   7.677  0.4887 -0.0018  0.8445
  253MOL0     O33322   0.314   7.937   7.673 -0.1000 -0.8378 -0.5293
  253MOL0     C33323   0.267   8.015   7.780  0.2988  0.2188  0.3570
  253MOL0     C33324   0.122   7.990   7.809  0.6058 -0.3618  0.0304
  253MOL0     C33325   0.031   8.062   7.703  0.0017  0.4786 -0.7242
  253MOL0     C33326  -0.105   7.996   7.708 -0.9780 -0.5688  0.0144
  253MOL0     C33327  -0.200   8.074   7.622 -0.2163  1.4878 -1.0893
  253MOL0     C33328  -0.298   8.118   7.566  0.2778  1.2492  0.0932
  253MOL0     C33329   0.478   7.776   7.603  0.7890  0.8799  0.7625
  253MOL0     C33330   0.609   7.730   7.622 -0.0892 -0.4060  0.3672
  253MOL0     H33331   1.014   7.558   7.834 -0.2191  0.0233  0.3865
  253MOL0     H33332   1.232   7.494   7.910  2.2577  0.2697 -1.7141
  253MOL0     H33333   1.562   7.734   8.075  0.2682  0.9337  0.4259
  253MOL0     H33334   1.549   7.811   7.905  1.9588 -0.5425 -1.0277
  253MOL0     H33335   1.649   7.633   7.805  3.4999 -0.2813 -0.8755
  253MOL0     H33336   1.668   7.542   7.952  0.2514 -1.0969 -2.3819
  253MOL0     H33337   1.835   7.724   8.023 -0.6493 -2.2205 -0.3752
  253MOL0     H33338   1.802   7.804   7.864  0.7897 -0.8918 -3.6888
  253MOL0     H33339   1.910   7.511   7.914 -1.0123  0.2464  0.2504
  253MOL0     H33340   1.870   7.583   7.755 -0.8223 -1.9150  0.0937
  253MOL0     H33341   2.076   7.679   7.962  1.9920 -2.1189  0.4620
  253MOL0     H33342   2.050   7.749   7.797  2.3247 -1.5864 -1.2603
  253MOL0     H33343   2.128   7.557   7.696  2.0152 -1.2973 -0.2165
  253MOL0     H33344   2.156   7.481   7.850 -2.3082 -0.7402 -1.5555
  253MOL0     H33345   2.270   7.736   7.742  0.7181 -0.4123  0.2557
  253MOL0     H33346   2.308   7.681   7.904 -0.5192 -6.1094  3.5650
  253MOL0     H33347   2.492   7.634   7.739  1.5046 -1.8391  2.9449
  253MOL0     H33348   2.384   7.521   7.651 -1.6623 -0.2360 -0.4842
  253MOL0     H33349   2.540   7.561   8.022  0.6287 -1.9799  2.8626
  253MOL0     H33350   2.670   7.261   8.154  1.6188 -0.3987 -0.0474
  253MOL0     H33351   2.729   7.414   8.124 -0.3509 -0.1871 -1.4543
  253MOL0     H33352   2.881   7.335   7.930  0.1018 -0.4208 -0.8966
  253MOL0     H33353   2.806   7.180   7.946 -1.3821  1.3086 -0.4926
  253MOL0     H33354   2.944   7.278   8.189 -0.6265  0.2875 -0.0373
  253MOL0     H33355   2.907   7.120   8.143 -1.0574  0.9082 -0.0442
  253MOL0     H33356   3.124   7.276   7.990 -0.7164  0.6131  0.5181
  253MOL0     H33357   3.044   7.140   7.933  1.0740  1.5064 -0.8849
  253MOL0     H33358   3.412   7.144   8.058 -0.4148 -2.6140  2.0911
  253MOL0     H33359   3.578   7.259   8.201  0.9362 -0.4510  2.5921
  253MOL0     H33360   3.843   7.259   8.571 -0.8053  0.0298 -1.7856
  253MOL0     H33361   3.997   7.383   8.730 -0.3461  4.1980  3.1908
  253MOL0     H33362   3.970   7.818   8.744  1.6845  2.2999  1.9270
  253MOL0     H33363   4.119   7.799   8.645 -2.1210 -1.3567 -1.7504
  253MOL0     H33364   4.249   7.808   8.853 -0.0859 -3.2893 -0.2405
  253MOL0     H33365   4.105   7.779   8.949 -1.9858  1.4271  0.1274
  253MOL0     H33366   4.003   7.970   8.872 -0.4161 -2.5218 -0.0524
  253MOL0     H33367   4.119   7.995   8.733  2.6881 -1.2531 -0.7305
  253MOL0     H33368   4.191   8.014   9.032 -0.4253 -2.9519 -0.9138
  253MOL0     H33369   4.304   8.037   8.908  0.9444  1.7249  2.3562
  253MOL0     H33370   4.077   8.222   8.972 -0.9712 -0.5204 -0.5034
  253MOL0     H33371   4.150   8.231   8.816 -1.6452 -0.9511  0.8173
  253MOL0     H33372   4.289   8.279   9.085  0.5365 -1.0212  0.4933
  253MOL0     H33373   4.229   8.409   8.987  2.9654  1.9724 -1.1753
  253MOL0     H33374   4.432   8.210   8.853  1.2494  1.2686  1.0397
  253MOL0     H33375   4.384   8.361   8.797  0.2185 -0.6818 -1.4013
  253MOL0     H33376   4.517   8.293   9.050  0.5749  2.8570  2.4233
  253MOL0     H33377   4.463   8.458   9.005 -1.8128 -0.1977 -2.1134
  253MOL0     H33378   3.902   7.747   8.540  1.8094 -0.4106 -3.0133
  253MOL0     H33379   3.763   7.628   8.372 -3.4045 -0.6755  0.6784
  253MOL0     H33380   3.286   7.299   8.503  0.4358 -0.8960  0.0908
  253MOL0     H33381   3.139   7.155   8.366 -0.2681 -0.7852 -0.9666
  253MOL0     H33382   1.350   7.903   7.885 -1.1194  1.4339  2.6405
  253MOL0     H33383   1.139   7.968   7.809 -0.5248 -0.7083 -3.2849
  253MOL0     H33384   0.744   7.981   7.799 -0.1697 -0.2280  0.6151
  253MOL0     H33385   0.537   8.053   7.792  1.4331 -0.2048  0.4381
  253MOL0     H33386   0.268   8.123   7.767 -4.7231  0.6181  1.4079
  253MOL0     H33387   0.318   7.998   7.875 -0.8496 -0.1066  0.9275
  253MOL0     H33388   0.089   7.886   7.808  0.0432 -0.2043 -2.3165
  253MOL0     H33389   0.096   8.039   7.903  4.1816  4.3534 -1.0793
  253MOL0     H33390   0.074   8.046   7.604  0.6460  0.1560 -0.4023
  253MOL0     H33391   0.017   8.168   7.725  0.0321  0.3479 -0.0393
  253MOL0     H33392  -0.104   7.892   7.674  1.9246 -0.4372 -0.6476
  253MOL0     H33393  -0.140   7.994   7.811 -0.9634 -3.6520  0.0397
  253MOL0     H33394  -0.388   8.146   7.516 -1.4566 -2.0727  1.1113
  253MOL0     H33395   0.407   7.708   7.557 -0.7255  1.6079  1.9633
  253MOL0     H33396   0.641   7.636   7.578  1.2176  0.0448  0.2995
  254MOL0     O33397   1.598   2.829   3.366  0.0481 -0.5810  0.2730
  254MOL0     C33398   1.705   2.820   3.314  0.3216 -0.4223 -0.4502
  254MOL0     O33399   1.745   2.734   3.213  0.2588  0.4772 -0.0986
  254MOL0     C33400   1.649   2.658   3.158  0.5450  0.8301 -0.0889
  254MOL0     C33401   1.546   2.720   3.080  1.1190 -1.0629 -0.2323
  254MOL0     C33402   1.435   2.649   3.052  0.0657  0.1052 -0.1264
  254MOL0     C33403   1.433   2.512   3.074  0.7555  0.3865  0.1481
  254MOL0     O33404   1.318   2.438   3.035  0.1539 -0.0303  0.0969
  254MOL0     C33405   1.190   2.502   3.017 -0.1511  1.1083  1.0362
  254MOL0     C33406   1.085   2.396   2.969  0.5355  0.0684  0.1684
  254MOL0     C33407   1.125   2.331   2.839  0.5420  0.1225 -0.0145
  254MOL0     C33408   1.059   2.203   2.805  0.2851 -0.1021 -0.4249
  254MOL0     C33409   0.911   2.222   2.784  0.3848  0.6417  0.0696
  254MOL0     C33410   0.841   2.085   2.746 -0.1304 -0.0224 -0.4539
  254MOL0     C33411   0.690   2.103   2.762 -0.0616  0.2772 -0.7908
  254MOL0     C33412   0.623   2.171   2.640  0.6566  0.2492 -0.3352
  254MOL0     N33413   0.484   2.217   2.670  0.0926  0.5572  0.0301
  254MOL0     C33414   0.418   2.314   2.591 -0.5401  0.3759 -0.6463
  254MOL0     C33415   0.295   2.281   2.614 -0.2203 -0.2438  0.1540
  254MOL0     C33416   0.184   2.350   2.538  0.3454 -0.1673 -0.0007
  254MOL0     C33417   0.060   2.277   2.497  0.9687  0.9265 -0.7896
  254MOL0     C33418  -0.043   2.295   2.614  0.3221  0.9281  1.0761
  254MOL0     C33419  -0.158   2.183   2.599  0.5219  0.1214  0.3502
  254MOL0     O33420  -0.253   2.198   2.490 -0.2465  0.1128  0.0869
  254MOL0     C33421  -0.378   2.256   2.523 -0.7869 -0.3463  0.2501
  254MOL0     C33422  -0.387   2.377   2.597  0.1549 -0.2906  0.1721
  254MOL0     C33423  -0.516   2.436   2.602  0.3237  0.1950 -0.5415
  254MOL0     C33424  -0.625   2.386   2.529 -0.0544 -0.2602  0.2071
  254MOL0     C33425  -0.751   2.458   2.528  0.0587  0.0365  0.1858
  254MOL0     O33426  -0.859   2.406   2.462 -0.2988  0.5433  0.1193
  254MOL0     C33427  -0.955   2.504   2.450 -0.7271  0.6481 -0.2504
  254MOL0     C33428  -1.062   2.521   2.535  0.8804 -0.3133 -0.8005
  254MOL0     C33429  -1.160   2.622   2.517 -0.7731 -0.3335  0.7500
  254MOL0     C33430  -1.149   2.709   2.407  0.3622 -1.0575  0.4551
  254MOL0     O33431  -1.232   2.814   2.385 -0.6324 -0.2598  0.3978
  254MOL0     C33432  -1.310   2.799   2.264  0.2215  0.2555 -0.4128
  254MOL0     C33433  -1.347   2.941   2.243  0.5377  0.0024 -0.1096
  254MOL0     C33434  -1.233   3.042   2.204 -0.3961  0.7565  0.1362
  254MOL0     C33435  -1.162   3.009   2.064 -0.2216 -0.3126 -0.5590
  254MOL0     C33436  -1.074   3.119   2.014 -0.4617  0.2499  0.4453
  254MOL0     C33437  -1.019   3.089   1.876  0.4873 -0.5264 -0.3242
  254MOL0     C33438  -1.136   3.107   1.769  0.0671 -0.2417  0.3373
  254MOL0     C33439  -1.086   3.073   1.630 -0.2786 -0.7770 -0.0818
  254MOL0    Cl33440  -1.217   3.090   1.505  0.4610 -0.2106 -0.1987
  254MOL0     C33441  -1.036   2.689   2.325 -0.1997 -0.9303 -0.1573
  254MOL0     C33442  -0.943   2.584   2.341 -0.3771 -1.1609  0.5706
  254MOL0     O33443  -0.756   2.564   2.589  0.0447  0.0957  0.7276
  254MOL0     C33444  -0.615   2.265   2.463 -0.6557 -0.4277 -0.3396
  254MOL0     C33445  -0.489   2.204   2.461 -0.1113 -0.6329 -0.3618
  254MOL0     N33446   0.287   2.174   2.708  0.1316  0.0008 -0.7307
  254MOL0     N33447   0.402   2.132   2.740 -0.1689  0.0883 -0.1676
  254MOL0     C33448   1.548   2.447   3.120  0.3429 -0.0726  0.2011
  254MOL0     C33449   1.648   2.528   3.170 -1.1039  0.4975  0.0125
  254MOL0     C33450   1.800   2.905   3.389 -0.2838 -0.3335 -0.5463
  254MOL0     C33451   1.919   2.950   3.329 -0.8259 -0.8941 -0.8259
  254MOL0     C33452   2.017   3.020   3.405 -0.0173  0.8217  0.9468
  254MOL0     C33453   2.010   3.037   3.535  0.8668 -0.1254 -0.2584
  254MOL0     O33454   2.115   3.097   3.601 -1.0620 -0.0518  0.0800
  254MOL0     C33455   2.097   3.130   3.739  0.5151 -0.2916 -0.9194
  254MOL0     C33456   2.116   3.006   3.827 -0.5157  0.1874 -0.1561
  254MOL0     C33457   2.108   3.029   3.974  0.5012  0.3521  0.4187
  254MOL0     C33458   2.230   3.108   4.021  0.0858 -0.7447 -0.6075
  254MOL0     C33459   2.303   3.042   4.136 -0.1898 -0.2633  0.1058
  254MOL0     C33460   2.361   3.005   4.234 -0.3527 -1.0081  0.1218
  254MOL0     C33461   1.889   2.992   3.598  0.0374  1.0697  0.0396
  254MOL0     C33462   1.783   2.936   3.528  0.5691  0.0980 -0.4190
  254MOL0     H33463   1.559   2.824   3.051 -0.1273 -1.1738 -1.2898
  254MOL0     H33464   1.355   2.699   2.999 -0.8073 -0.2552  0.8161
  254MOL0     H33465   1.191   2.583   2.944 -1.3679  0.6631  0.4904
  254MOL0     H33466   1.160   2.565   3.101 -1.3418  3.0441 -0.7283
  254MOL0     H33467   0.991   2.449   2.985  1.5576  2.0896 -0.1194
  254MOL0     H33468   1.096   2.323   3.049  0.5008 -1.2859 -1.0099
  254MOL0     H33469   1.232   2.307   2.839  0.8315  1.2525 -1.5966
  254MOL0     H33470   1.097   2.400   2.759  0.7870  0.8251  0.4983
  254MOL0     H33471   1.099   2.170   2.709  0.1790 -1.2079 -0.1008
  254MOL0     H33472   1.086   2.121   2.872  1.0181  0.7035  0.2961
  254MOL0     H33473   0.895   2.290   2.700  0.9205 -1.3203 -1.7086
  254MOL0     H33474   0.866   2.260   2.876  0.9733 -1.0070  1.0931
  254MOL0     H33475   0.881   2.018   2.823  1.2016  2.1749  0.9134
  254MOL0     H33476   0.876   2.056   2.647  1.1110 -0.3822  0.0629
  254MOL0     H33477   0.643   2.005   2.774  0.6739  0.1454  1.5812
  254MOL0     H33478   0.667   2.150   2.858 -0.0970 -1.7985  0.2688
  254MOL0     H33479   0.617   2.093   2.564 -2.5200 -0.1095  0.1434
  254MOL0     H33480   0.677   2.255   2.595  1.8498 -0.4208 -0.1790
  254MOL0     H33481   0.463   2.382   2.520  0.3461 -0.9996 -1.4320
  254MOL0     H33482   0.232   2.391   2.449  0.8559 -1.6330 -0.4419
  254MOL0     H33483   0.159   2.426   2.613 -0.9519 -3.4301  3.1929
  254MOL0     H33484   0.077   2.170   2.482  0.2039  0.9298 -1.7666
  254MOL0     H33485   0.028   2.322   2.402 -0.4881 -3.1549 -2.4698
  254MOL0     H33486  -0.004   2.275   2.713 -0.3551  1.5875  1.4924
  254MOL0     H33487  -0.078   2.399   2.621  1.8384  1.6596 -1.0765
  254MOL0     H33488  -0.219   2.186   2.690 -1.2458 -1.7793 -0.6765
  254MOL0     H33489  -0.108   2.086   2.595 -1.4304 -0.9574  0.7774
  254MOL0     H33490  -0.308   2.428   2.651 -0.2749  1.2077 -0.5573
  254MOL0     H33491  -0.535   2.524   2.662  1.7962 -0.7002  1.3757
  254MOL0     H33492  -1.057   2.471   2.632 -2.1101  0.4517 -0.1220
  254MOL0     H33493  -1.244   2.642   2.584 -1.7468 -1.1579 -0.1835
  254MOL0     H33494  -1.393   2.728   2.279  0.8301 -0.9110 -2.2711
  254MOL0     H33495  -1.256   2.768   2.174  1.2256  3.8890 -1.1962
  254MOL0     H33496  -1.396   2.988   2.329  1.2414  0.4013  0.0849
  254MOL0     H33497  -1.419   2.936   2.161 -0.6400 -2.4447  0.9573
  254MOL0     H33498  -1.147   3.037   2.271 -0.9119  2.6126  0.9789
  254MOL0     H33499  -1.263   3.146   2.191 -0.1047  0.6363 -1.9527
  254MOL0     H33500  -1.108   2.914   2.066 -0.0035 -0.1927 -0.6390
  254MOL0     H33501  -1.252   3.010   2.001  1.2257  2.0111 -2.7780
  254MOL0     H33502  -0.999   3.133   2.092  0.4784  0.7092 -0.5322
  254MOL0     H33503  -1.127   3.215   2.010  0.8950  1.0017 -0.3479
  254MOL0     H33504  -0.988   2.985   1.888 -1.5466 -0.9923  1.5573
  254MOL0     H33505  -0.933   3.147   1.841  0.8416 -1.0074 -0.2604
  254MOL0     H33506  -1.214   3.036   1.795 -1.1657  1.2340  0.8590
  254MOL0     H33507  -1.173   3.210   1.767 -0.3055 -0.3609  0.8662
  254MOL0     H33508  -1.033   2.978   1.641  4.3955  1.7783  3.0313
  254MOL0     H33509  -1.021   3.152   1.590 -0.5174  0.0843  1.1733
  254MOL0     H33510  -1.013   2.756   2.243 -2.0722 -0.6556 -0.4830
  254MOL0     H33511  -0.858   2.574   2.274 -0.8538  0.0649 -0.2342
  254MOL0     H33512  -0.693   2.219   2.403  0.4862 -1.0675 -1.3791
  254MOL0     H33513  -0.486   2.106   2.413 -0.0055 -0.4112 -0.8108
  254MOL0     H33514   1.549   2.339   3.123  0.0049 -0.0814  0.0129
  254MOL0     H33515   1.729   2.485   3.228 -0.0842 -0.7346 -2.1863
  254MOL0     H33516   1.935   2.925   3.225 -1.9340  1.4229 -1.6182
  254MOL0     H33517   2.109   3.063   3.366 -0.2275 -2.1237 -3.4863
  254MOL0     H33518   1.996   3.168   3.759 -0.0147 -2.6546  1.3461
  254MOL0     H33519   2.170   3.207   3.766 -0.8184  1.0191 -0.9034
  254MOL0     H33520   2.057   2.920   3.795 -0.4513  0.3852 -0.8285
  254MOL0     H33521   2.217   2.983   3.792 -0.5209  0.8555 -0.6395
  254MOL0     H33522   2.105   2.930   4.021 -1.6106  0.7042  1.1065
  254MOL0     H33523   2.010   3.073   3.996 -0.8892 -1.9671 -0.6670
  254MOL0     H33524   2.305   3.128   3.944 -0.4510  0.3172 -0.8742
  254MOL0     H33525   2.194   3.209   4.039  0.2905 -0.6254 -0.8681
  254MOL0     H33526   2.422   2.963   4.313  1.7748  1.3220 -0.1305
  254MOL0     H33527   1.863   2.998   3.703 -1.7510  1.3963 -0.3912
  254MOL0     H33528   1.695   2.905   3.584 -0.1226  1.3297 -0.7973
  255MOL0     O33529  10.333   3.750   9.446 -0.7498 -0.1315  0.1746
  255MOL0     C33530  10.324   3.766   9.324 -0.6479  0.1202 -0.3390
  255MOL0     O33531  10.207   3.760   9.247 -1.3522 -0.6200  0.7593
  255MOL0     C33532  10.096   3.711   9.313 -0.0217  0.6090  0.9131
  255MOL0     C33533   9.998   3.802   9.341  0.2203  0.7494 -0.0737
  255MOL0     C33534   9.873   3.754   9.391 -0.8224  0.1482 -0.2327
  255MOL0     C33535   9.861   3.613   9.432 -0.1855  0.7847  0.5134
  255MOL0     O33536   9.751   3.562   9.491  0.0428  0.0441  0.3617
  255MOL0     C33537   9.629   3.638   9.461 -0.8032  0.8278 -0.3338
  255MOL0     C33538   9.508   3.542   9.455 -0.0975 -0.0458 -0.5320
  255MOL0     C33539   9.516   3.445   9.344  0.1282  0.0224  0.0857
  255MOL0     C33540   9.408   3.338   9.370 -0.0478 -0.1696 -0.5780
  255MOL0     C33541   9.390   3.233   9.256 -0.3389  0.2574  0.1918
  255MOL0     C33542   9.258   3.157   9.261  0.6191  0.6034  0.5901
  255MOL0     C33543   9.241   3.070   9.383  0.1364  0.3226  0.1535
  255MOL0     C33544   9.114   2.989   9.364 -0.8355 -0.0872  0.5735
  255MOL0     N33545   8.985   3.068   9.347  0.1196 -1.0198 -0.6678
  255MOL0     C33546   8.893   3.051   9.248 -0.2271 -0.5687  0.6333
  255MOL0     C33547   8.812   3.156   9.257 -0.0761 -0.4032  0.0154
  255MOL0     C33548   8.695   3.159   9.163  0.0957 -0.2971  0.1611
  255MOL0     C33549   8.576   3.228   9.230  1.3796 -0.2720  0.3395
  255MOL0     C33550   8.481   3.297   9.134  0.7382 -0.0047  0.0209
  255MOL0     C33551   8.374   3.395   9.192 -1.0185  0.2221  0.2150
  255MOL0     O33552   8.433   3.517   9.240 -1.3161  0.1373 -0.0805
  255MOL0     C33553   8.353   3.618   9.286  0.0209 -1.2087 -0.3039
  255MOL0     C33554   8.404   3.729   9.357  0.0571 -0.4710  0.7746
  255MOL0     C33555   8.325   3.837   9.405 -0.7677 -0.2292  0.2658
  255MOL0     C33556   8.181   3.826   9.395  0.2941 -0.3536 -0.1203
  255MOL0     C33557   8.091   3.928   9.464 -0.2531  0.0466 -0.0384
  255MOL0     O33558   7.956   3.901   9.466  0.7241 -0.1269  0.2742
  255MOL0     C33559   7.875   3.982   9.548  0.0659 -0.2731 -0.2930
  255MOL0     C33560   7.798   3.920   9.652 -0.4927  0.8239  0.8437
  255MOL0     C33561   7.723   3.991   9.747 -0.2985  0.0030  0.6663
  255MOL0     C33562   7.714   4.130   9.737 -1.1282 -0.6227  0.1294
  255MOL0     O33563   7.644   4.208   9.822  0.5845 -0.9213 -0.0982
  255MOL0     C33564   7.549   4.168   9.922  0.4893  0.0251 -0.4434
  255MOL0     C33565   7.480   4.278   9.985 -0.4557 -0.5548 -0.1700
  255MOL0     C33566   7.427   4.383   9.898  0.2893 -0.4563 -0.2005
  255MOL0     C33567   7.307   4.457   9.970  0.8947 -0.6053 -0.3061
  255MOL0     C33568   7.229   4.566   9.891  0.0552 -0.8921  0.6089
  255MOL0     C33569   7.155   4.516   9.766 -0.1476 -0.2274  0.1811
  255MOL0     C33570   7.070   4.616   9.697  0.4026 -0.7002  0.5676
  255MOL0     C33571   6.959   4.663   9.791  0.4714  0.6680  0.5552
  255MOL0    Cl33572   6.810   4.691   9.698 -0.2086  0.0333  0.2685
  255MOL0     C33573   7.791   4.197   9.634 -0.3533  1.0174 -0.0889
  255MOL0     C33574   7.859   4.125   9.539 -1.0064 -0.4626 -0.3460
  255MOL0     O33575   8.147   4.035   9.509  0.5207  0.0955 -0.2666
  255MOL0     C33576   8.130   3.722   9.320 -0.5589  0.6601  0.0942
  255MOL0     C33577   8.215   3.616   9.274  0.5984  0.0261  0.9366
  255MOL0     N33578   8.859   3.242   9.363  0.0574 -0.1773  0.3195
  255MOL0     N33579   8.964   3.189   9.418  1.2363 -0.3765 -0.4825
  255MOL0     C33580   9.960   3.523   9.403 -0.1209 -0.2575  0.9053
  255MOL0     C33581  10.083   3.571   9.346 -0.1470  0.0006  0.1035
  255MOL0     C33582  10.446   3.790   9.253  1.4694 -0.5123 -0.2325
  255MOL0     C33583  10.448   3.854   9.128  0.4297  0.0624 -1.2299
  255MOL0     C33584  10.562   3.897   9.064 -0.0373  0.7999 -0.3130
  255MOL0     C33585  10.689   3.869   9.125  0.1034  0.9738  0.6066
  255MOL0     O33586  10.811   3.898   9.067 -0.3796  0.1462  0.8609
  255MOL0     C33587  10.818   3.956   8.935  0.1584 -1.1653 -0.1856
  255MOL0     C33588  10.967   3.981   8.895  0.3080 -0.3701  0.2588
  255MOL0     C33589  10.989   4.078   8.776 -0.3434 -0.3107 -0.0206
  255MOL0     C33590  11.137   4.112   8.751 -0.1468  0.8035 -0.0804
  255MOL0     C33591  11.211   3.993   8.705 -0.0343 -0.2662 -1.5092
  255MOL0     C33592  11.263   3.900   8.663 -0.7016  0.2729  0.2250
  255MOL0     C33593  10.692   3.798   9.243  0.1634 -0.3564  0.2256
  255MOL0     C33594  10.567   3.759   9.302 -0.6121 -0.3478  0.0736
  255MOL0     H33595  10.021   3.906   9.321  0.1434  1.0564  1.3185
  255MOL0     H33596   9.785   3.813   9.414 -2.9329 -2.2873 -1.4887
  255MOL0     H33597   9.632   3.683   9.361  1.6680  2.6717  0.4472
  255MOL0     H33598   9.622   3.709   9.545 -0.3158 -0.5024  0.8709
  255MOL0     H33599   9.418   3.603   9.447 -0.6405 -0.9462 -1.7295
  255MOL0     H33600   9.502   3.476   9.541 -0.5363 -1.7850 -1.8265
  255MOL0     H33601   9.613   3.395   9.355  0.0360 -0.5605 -1.5581
  255MOL0     H33602   9.514   3.496   9.247  0.9547  3.0982  1.5279
  255MOL0     H33603   9.444   3.289   9.460 -0.0270 -2.4370 -1.7460
  255MOL0     H33604   9.310   3.382   9.389 -0.6898 -1.6955 -0.2238
  255MOL0     H33605   9.472   3.163   9.234  1.7364  3.0580 -1.8030
  255MOL0     H33606   9.384   3.291   9.163  0.5242  1.5051  0.8817
  255MOL0     H33607   9.250   3.096   9.170 -2.1804 -0.8998  1.6992
  255MOL0     H33608   9.176   3.229   9.252  1.6893  1.7068 -0.6376
  255MOL0     H33609   9.332   3.009   9.391 -0.7943 -1.3764 -1.4644
  255MOL0     H33610   9.217   3.129   9.472 -2.2574  0.9399 -0.8339
  255MOL0     H33611   9.102   2.930   9.456  1.2705  1.3134  1.8318
  255MOL0     H33612   9.129   2.919   9.282 -1.5421  0.7043 -0.2484
  255MOL0     H33613   8.883   2.969   9.177 -1.0801 -0.9542  1.1809
  255MOL0     H33614   8.672   3.053   9.147 -0.7220  0.0734 -1.2286
  255MOL0     H33615   8.732   3.196   9.067  1.6802  0.6424  1.0720
  255MOL0     H33616   8.602   3.309   9.298 -1.0903  0.6350  0.3218
  255MOL0     H33617   8.513   3.154   9.280 -1.7885  1.9691  0.0463
  255MOL0     H33618   8.537   3.338   9.050  1.4990  0.2134  0.6226
  255MOL0     H33619   8.424   3.215   9.090  2.5257 -2.4712  1.9540
  255MOL0     H33620   8.319   3.340   9.269  0.3613  0.1810  1.2206
  255MOL0     H33621   8.309   3.433   9.114 -0.2358  1.5272  0.1623
  255MOL0     H33622   8.509   3.716   9.382 -0.6359 -6.8643  2.0092
  255MOL0     H33623   8.369   3.921   9.459 -4.6281  1.6994  0.7344
  255MOL0     H33624   7.802   3.812   9.640 -0.2546  1.0263 -1.1707
  255MOL0     H33625   7.661   3.943   9.821 -2.5880  1.0293 -0.4798
  255MOL0     H33626   7.600   4.131  10.012  0.6011 -0.2688 -0.6285
  255MOL0     H33627   7.483   4.089   9.887  1.5242 -1.3373  0.5701
  255MOL0     H33628   7.547   4.326  10.057  1.4417 -0.7622 -1.7076
  255MOL0     H33629   7.392   4.245  10.041 -1.7382  0.4755 -1.5025
  255MOL0     H33630   7.373   4.339   9.814  1.0532 -0.8598 -0.4860
  255MOL0     H33631   7.498   4.455   9.857 -0.2475 -0.5145 -1.2876
  255MOL0     H33632   7.232   4.387  10.009 -1.6758  3.4618  2.9814
  255MOL0     H33633   7.345   4.504  10.061  1.3495 -0.7492 -0.4191
  255MOL0     H33634   7.309   4.631   9.856 -1.5900  1.2271  0.6150
  255MOL0     H33635   7.168   4.630   9.955 -0.2112  1.1927 -1.5678
  255MOL0     H33636   7.095   4.427   9.784 -3.2164  1.4927 -0.8723
  255MOL0     H33637   7.223   4.473   9.692 -0.0640 -2.8527  1.6892
  255MOL0     H33638   7.125   4.708   9.674  2.6425 -1.5194  2.3501
  255MOL0     H33639   7.018   4.563   9.616 -0.8304  1.2953 -0.0411
  255MOL0     H33640   6.997   4.741   9.858  3.9440  0.3373 -0.8540
  255MOL0     H33641   6.925   4.582   9.856 -0.6887  0.8329  0.1931
  255MOL0     H33642   7.793   4.305   9.623  0.3795  0.7790 -2.9927
  255MOL0     H33643   7.920   4.165   9.459 -0.2650 -3.0735 -1.1873
  255MOL0     H33644   8.023   3.712   9.305 -0.4294 -0.5962 -0.1524
  255MOL0     H33645   8.163   3.540   9.216 -0.3980  1.1984  0.2447
  255MOL0     H33646   9.958   3.418   9.431  2.6445 -1.8464 -3.7640
  255MOL0     H33647  10.160   3.504   9.310 -0.5789 -2.0410  2.7155
  255MOL0     H33648  10.357   3.876   9.073 -0.9161  0.1107  0.8997
  255MOL0     H33649  10.548   3.945   8.967  0.8850 -0.1333 -0.9420
  255MOL0     H33650  10.767   4.053   8.935  2.5828  0.4894  5.1658
  255MOL0     H33651  10.771   3.882   8.870  0.0234 -1.9368  0.7799
  255MOL0     H33652  11.010   4.028   8.984 -0.5443  1.3157 -0.1746
  255MOL0     H33653  11.015   3.885   8.878  1.5168  0.3854 -0.7922
  255MOL0     H33654  10.946   4.168   8.820  1.2997 -0.5273  2.1994
  255MOL0     H33655  10.933   4.037   8.691  0.1312 -1.5339  0.2257
  255MOL0     H33656  11.132   4.193   8.678 -0.6108  1.7907  1.0099
  255MOL0     H33657  11.184   4.153   8.841  0.0039 -0.9379  0.6737
  255MOL0     H33658  11.305   3.814   8.617  0.9680  1.3529 -0.3326
  255MOL0     H33659  10.786   3.787   9.295 -0.2772 -1.0379  0.9025
  255MOL0     H33660  10.580   3.698   9.391  2.9371  2.1475  1.5214
  256MOL0     O33661   3.120   2.118   4.547  0.1927 -0.2359 -0.1717
  256MOL0     C33662   3.149   2.150   4.435 -0.3528 -0.7734  1.3439
  256MOL0     O33663   3.067   2.217   4.348 -0.4662  0.4025 -0.4117
  256MOL0     C33664   2.934   2.234   4.396 -0.3917  0.7060  0.1429
  256MOL0     C33665   2.836   2.132   4.401  0.1268 -0.4577  0.4288
  256MOL0     C33666   2.709   2.153   4.433  0.3275 -0.2144  0.2025
  256MOL0     C33667   2.664   2.282   4.453  0.4134  1.2899 -0.1926
  256MOL0     O33668   2.531   2.317   4.478  0.2751 -0.1281  0.0755
  256MOL0     C33669   2.426   2.226   4.460 -0.1665 -0.0716 -0.0476
  256MOL0     C33670   2.295   2.305   4.445 -0.3708  0.3145  1.0605
  256MOL0     C33671   2.254   2.348   4.589 -0.0751 -0.1173 -0.5535
  256MOL0     C33672   2.137   2.446   4.591  0.3318 -0.4012  0.7019
  256MOL0     C33673   2.031   2.401   4.690  0.6200  0.2392 -0.2046
  256MOL0     C33674   2.062   2.412   4.844 -0.3606  0.1897  0.3981
  256MOL0     C33675   1.945   2.359   4.929  0.2806 -0.7792 -0.4440
  256MOL0     C33676   1.807   2.426   4.905  0.0072 -1.3341  0.4648
  256MOL0     N33677   1.824   2.576   4.907 -0.3478 -0.3149 -0.3385
  256MOL0     C33678   1.858   2.644   5.026 -0.9762 -0.0277 -0.2977
  256MOL0     C33679   1.835   2.782   4.997  0.6830 -0.1491 -0.4232
  256MOL0     C33680   1.848   2.895   5.099  0.3863 -0.9014 -0.2538
  256MOL0     C33681   1.726   2.904   5.187 -0.6853  0.1726 -0.0617
  256MOL0     C33682   1.596   2.942   5.117 -0.2731 -0.0243  0.2321
  256MOL0     C33683   1.484   2.938   5.214 -0.4303  0.2976 -0.0419
  256MOL0     O33684   1.357   2.996   5.161 -0.3893  0.1104  0.7683
  256MOL0     C33685   1.236   2.987   5.232  0.2430 -0.7019  0.3121
  256MOL0     C33686   1.112   3.026   5.177 -0.5744 -0.0229 -0.6101
  256MOL0     C33687   0.993   3.018   5.246 -0.0819 -0.9362  0.2298
  256MOL0     C33688   0.993   2.972   5.382 -0.3264  0.0196 -0.8771
  256MOL0     C33689   0.869   2.961   5.472  0.0890 -0.4015  1.0245
  256MOL0     O33690   0.755   2.984   5.404  0.3476  0.0526 -0.4044
  256MOL0     C33691   0.630   2.983   5.462 -0.5013  0.0377  0.1153
  256MOL0     C33692   0.534   2.930   5.380  0.3633 -0.3339  0.1395
  256MOL0     C33693   0.398   2.933   5.421  0.1364  0.2061 -0.0388
  256MOL0     C33694   0.362   2.966   5.548 -0.0451  0.0391  0.2169
  256MOL0     O33695   0.232   2.951   5.577 -0.0271  0.0282  0.2996
  256MOL0     C33696   0.176   2.988   5.698 -0.7872 -0.6843 -0.2830
  256MOL0     C33697   0.028   2.958   5.680  0.0499  0.0601  0.9319
  256MOL0     C33698  -0.000   2.805   5.652 -0.0674 -1.0990  0.9466
  256MOL0     C33699   0.043   2.713   5.759  0.3526 -0.6782  0.9327
  256MOL0     C33700  -0.001   2.566   5.749 -0.1252 -0.2804  0.9662
  256MOL0     C33701  -0.148   2.528   5.774 -0.1517 -0.0929 -0.0781
  256MOL0     C33702  -0.253   2.599   5.692 -0.8991  0.2668 -0.7753
  256MOL0     C33703  -0.387   2.528   5.718  0.3984 -0.5740 -0.9994
  256MOL0    Cl33704  -0.410   2.370   5.632  0.2479  0.2897 -0.1964
  256MOL0     C33705   0.457   3.013   5.633 -0.7252  1.2819 -0.5247
  256MOL0     C33706   0.595   3.020   5.587 -0.4792 -0.0060 -0.4181
  256MOL0     O33707   0.876   2.909   5.584  0.0036  0.1611 -0.0651
  256MOL0     C33708   1.118   2.937   5.439  0.1598  1.1462 -0.6628
  256MOL0     C33709   1.234   2.938   5.368  0.9031  0.2827  0.6149
  256MOL0     N33710   1.795   2.779   4.866 -0.5360 -0.4786  0.2346
  256MOL0     N33711   1.787   2.663   4.818  0.2734 -0.0931  0.1392
  256MOL0     C33712   2.760   2.382   4.440 -0.0051 -1.2388 -0.0513
  256MOL0     C33713   2.893   2.357   4.415  0.1624  0.2086  0.5773
  256MOL0     C33714   3.284   2.135   4.394 -0.4659 -0.8901  0.2084
  256MOL0     C33715   3.387   2.100   4.481 -0.1698 -0.8881 -0.3419
  256MOL0     C33716   3.519   2.088   4.441 -0.0584  0.4265  0.8287
  256MOL0     C33717   3.554   2.127   4.306  0.4184  0.6395 -0.3351
  256MOL0     O33718   3.674   2.161   4.258  0.0941 -0.4852  0.1728
  256MOL0     C33719   3.780   2.070   4.273 -0.3074  0.2790 -0.5280
  256MOL0     C33720   3.883   2.072   4.160 -0.5985 -0.4632  1.0017
  256MOL0     C33721   4.021   2.099   4.210  0.2014  0.3710  0.1652
  256MOL0     C33722   4.131   2.104   4.103  0.0911 -0.4732  0.4174
  256MOL0     C33723   4.174   1.991   4.017 -0.3448 -0.9866 -0.8547
  256MOL0     C33724   4.233   1.911   3.947 -0.5572 -0.8917 -0.2128
  256MOL0     C33725   3.446   2.162   4.217 -0.6024 -0.3289 -0.3349
  256MOL0     C33726   3.316   2.168   4.261  0.0381 -0.7371 -0.0298
  256MOL0     H33727   2.850   2.026   4.382  1.2264 -0.0164 -1.5830
  256MOL0     H33728   2.652   2.062   4.451  4.3031 -2.2699  4.7466
  256MOL0     H33729   2.414   2.158   4.545  0.1707 -1.1260 -0.8190
  256MOL0     H33730   2.444   2.169   4.368 -0.1720  0.3477 -0.3108
  256MOL0     H33731   2.215   2.243   4.404  0.1265 -1.8253  3.1232
  256MOL0     H33732   2.309   2.389   4.377  1.7837 -0.7007  0.1303
  256MOL0     H33733   2.340   2.400   4.631  0.0652  0.2898 -1.3223
  256MOL0     H33734   2.248   2.259   4.653  2.9721 -0.1360 -0.1579
  256MOL0     H33735   2.182   2.541   4.624  2.9310 -0.7638 -1.4620
  256MOL0     H33736   2.093   2.470   4.494  0.4694 -1.7758  0.2810
  256MOL0     H33737   1.996   2.302   4.659 -0.3219  0.6351 -0.4439
  256MOL0     H33738   1.948   2.470   4.673  0.4931 -0.1051 -1.0076
  256MOL0     H33739   2.085   2.514   4.877 -1.7907  0.5425  0.3876
  256MOL0     H33740   2.150   2.351   4.866  0.7265  1.3321 -0.6309
  256MOL0     H33741   1.939   2.251   4.912 -0.1313 -1.1840  1.8989
  256MOL0     H33742   1.955   2.367   5.038  0.8811  0.0726 -0.5503
  256MOL0     H33743   1.726   2.403   4.975 -2.0355  0.8039 -1.0050
  256MOL0     H33744   1.776   2.398   4.803 -0.8802 -0.3602  0.4487
  256MOL0     H33745   1.881   2.587   5.116  1.3002  0.4450 -0.5191
  256MOL0     H33746   1.839   2.981   5.032  0.3352 -0.7280 -0.0256
  256MOL0     H33747   1.935   2.903   5.165 -0.0599  1.3932  0.1317
  256MOL0     H33748   1.749   2.986   5.255 -0.7667 -0.8843  1.2795
  256MOL0     H33749   1.714   2.807   5.235 -1.7114  0.3348  0.0279
  256MOL0     H33750   1.593   3.045   5.082  1.6071 -0.8234 -2.7488
  256MOL0     H33751   1.565   2.884   5.029  0.0703  1.2273 -0.7281
  256MOL0     H33752   1.500   2.989   5.309  2.0221 -2.6018  1.2345
  256MOL0     H33753   1.472   2.831   5.233  0.3070  0.4546  1.3703
  256MOL0     H33754   1.120   3.074   5.080  0.2048  1.8690  0.3371
  256MOL0     H33755   0.901   3.053   5.199  0.3152 -0.4761 -0.2130
  256MOL0     H33756   0.539   2.889   5.280 -1.4613  1.2602 -0.6746
  256MOL0     H33757   0.320   2.895   5.356  0.4433  2.0950 -1.6014
  256MOL0     H33758   0.189   3.095   5.718 -1.1983 -1.0769  2.5497
  256MOL0     H33759   0.210   2.934   5.787  0.1450  1.0558  0.4532
  256MOL0     H33760  -0.018   3.025   5.607 -0.9443 -0.4060  1.1200
  256MOL0     H33761  -0.031   2.979   5.770  1.1098  2.1489  1.2074
  256MOL0     H33762   0.053   2.785   5.559  1.3016  0.4078  1.3616
  256MOL0     H33763  -0.106   2.792   5.627  0.1669 -4.0415  1.0894
  256MOL0     H33764   0.153   2.713   5.760  0.3986  1.2173  0.2480
  256MOL0     H33765   0.011   2.764   5.850  1.5668  3.0812 -0.5555
  256MOL0     H33766   0.060   2.505   5.816 -1.2688 -2.6696 -0.0327
  256MOL0     H33767   0.031   2.536   5.648 -2.6799  1.5567 -0.5092
  256MOL0     H33768  -0.160   2.545   5.881  1.2506 -1.6308  0.3674
  256MOL0     H33769  -0.155   2.420   5.759  0.7360 -0.0794 -0.6817
  256MOL0     H33770  -0.268   2.700   5.731  0.0385  0.4213 -0.8071
  256MOL0     H33771  -0.230   2.601   5.585 -2.4208 -0.6222 -1.1528
  256MOL0     H33772  -0.467   2.594   5.683  0.9526  0.8255  0.2882
  256MOL0     H33773  -0.393   2.514   5.826 -1.3955  0.5480 -0.9259
  256MOL0     H33774   0.435   3.040   5.735  1.9845 -1.4192  0.9608
  256MOL0     H33775   0.680   3.066   5.637  0.8871 -0.9087 -1.8223
  256MOL0     H33776   1.113   2.893   5.538  1.5402 -1.7225 -1.7626
  256MOL0     H33777   1.329   2.909   5.411  0.0495 -0.3035  2.1669
  256MOL0     H33778   2.719   2.481   4.455  1.5827 -0.3887 -1.1054
  256MOL0     H33779   2.957   2.444   4.403 -0.9560  0.7185 -3.0961
  256MOL0     H33780   3.350   2.089   4.583  0.9235  1.3545  0.3540
  256MOL0     H33781   3.601   2.068   4.509 -1.1775 -2.0986  1.5551
  256MOL0     H33782   3.747   1.965   4.272 -2.2455  0.8477 -1.7333
  256MOL0     H33783   3.829   2.091   4.369  0.0036 -3.5472  0.3284
  256MOL0     H33784   3.868   1.982   4.099 -3.5156  0.3387  0.3573
  256MOL0     H33785   3.857   2.151   4.089 -1.0545  0.3119  1.9964
  256MOL0     H33786   4.046   2.019   4.280  1.4944  0.6934  0.0929
  256MOL0     H33787   4.028   2.197   4.256 -1.2225  0.2133  0.7663
  256MOL0     H33788   4.119   2.186   4.031  1.0095 -1.9585 -1.5318
  256MOL0     H33789   4.220   2.133   4.159  0.0873 -0.3402  0.3548
  256MOL0     H33790   4.292   1.847   3.885 -0.8291 -0.7685 -0.6058
  256MOL0     H33791   3.480   2.180   4.115  0.0197 -4.4873 -1.0183
  256MOL0     H33792   3.237   2.196   4.192 -0.8202 -1.6339  0.5561
  257MOL0     O33793   0.412   2.245   9.127  0.1617  0.6182  0.9544
  257MOL0     C33794   0.357   2.327   9.051  0.1315 -0.1180  0.2594
  257MOL0     O33795   0.417   2.435   8.990  0.0170  0.0217 -0.4826
  257MOL0     C33796   0.547   2.458   9.016 -0.4742  0.5528 -0.1359
  257MOL0     C33797   0.588   2.493   9.149  0.1692  0.4782 -0.1225
  257MOL0     C33798   0.717   2.515   9.180 -0.0287 -0.0615  0.5294
  257MOL0     C33799   0.824   2.504   9.088  0.3686 -0.2147  0.8536
  257MOL0     O33800   0.950   2.539   9.136 -0.5809 -0.3928  0.4441
  257MOL0     C33801   1.055   2.560   9.030  0.2813  0.0589 -0.3721
  257MOL0     C33802   1.163   2.629   9.097 -0.0672 -0.7635 -0.5360
  257MOL0     C33803   1.263   2.659   8.983 -0.2087  0.5088 -0.0334
  257MOL0     C33804   1.398   2.717   9.036  1.0265  0.2912 -0.8283
  257MOL0     C33805   1.516   2.653   8.985 -0.9447 -0.0116  0.3779
  257MOL0     C33806   1.637   2.688   9.078  0.1484 -0.3140  0.0091
  257MOL0     C33807   1.764   2.652   8.998  0.2798 -0.0072 -0.2720
  257MOL0     C33808   1.887   2.708   9.072 -0.2308 -0.0414 -0.0605
  257MOL0     N33809   2.015   2.674   9.009  0.1792  0.2780  0.8443
  257MOL0     C33810   2.064   2.555   8.958  0.1096  1.0633 -0.7409
  257MOL0     C33811   2.186   2.576   8.916 -0.5566 -0.2115 -0.3833
  257MOL0     C33812   2.269   2.470   8.840 -0.0686  0.2435  0.4703
  257MOL0     C33813   2.295   2.504   8.693  0.0335 -0.3301 -0.6601
  257MOL0     C33814   2.333   2.378   8.608  0.4958  0.3180  0.5184
  257MOL0     C33815   2.430   2.421   8.497 -0.1661  0.2205 -0.8437
  257MOL0     O33816   2.372   2.513   8.402 -0.2461 -0.0593 -0.1378
  257MOL0     C33817   2.249   2.484   8.348 -0.0706  1.3128 -0.1751
  257MOL0     C33818   2.145   2.578   8.356 -0.1318  1.1995  0.4035
  257MOL0     C33819   2.025   2.554   8.301  0.9807  0.0296 -1.2065
  257MOL0     C33820   2.000   2.434   8.241 -0.0184  0.4068 -0.9066
  257MOL0     C33821   1.861   2.394   8.192 -0.3558  0.1475 -0.5902
  257MOL0     O33822   1.845   2.265   8.134  0.0728 -0.0582 -0.5403
  257MOL0     C33823   1.723   2.244   8.076 -0.5399  0.8869 -0.5503
  257MOL0     C33824   1.612   2.238   8.169 -1.6116  0.1848  0.7219
  257MOL0     C33825   1.490   2.202   8.110  0.3221 -0.5332  0.3601
  257MOL0     C33826   1.473   2.154   7.977 -0.1296 -1.0696 -0.9671
  257MOL0     O33827   1.354   2.102   7.956 -0.4731  0.3908  0.2403
  257MOL0     C33828   1.317   2.119   7.817  0.0364 -0.6504  0.0663
  257MOL0     C33829   1.165   2.101   7.805  0.5403  0.1631 -0.6052
  257MOL0     C33830   1.123   2.097   7.660  0.1807 -0.4136  0.1480
  257MOL0     C33831   0.971   2.097   7.650  0.4490 -0.0761  0.1889
  257MOL0     C33832   0.900   2.022   7.530 -0.1859 -0.0909 -0.1860
  257MOL0     C33833   0.762   1.984   7.569 -0.3136  0.5318  0.0327
  257MOL0     C33834   0.695   1.928   7.444  0.8766 -0.6550 -0.1566
  257MOL0     C33835   0.559   1.853   7.476  0.6221  0.6453  0.1683
  257MOL0    Cl33836   0.600   1.690   7.539  0.2852 -0.1576  0.5283
  257MOL0     C33837   1.581   2.163   7.894 -0.0474 -0.7488 -0.5394
  257MOL0     C33838   1.708   2.207   7.935 -0.4178  0.2788  0.0324
  257MOL0     O33839   1.772   2.478   8.203  0.0276 -0.1516 -0.1994
  257MOL0     C33840   2.108   2.337   8.232 -0.4545  0.2665  0.5509
  257MOL0     C33841   2.234   2.361   8.284  1.2943 -0.1773  0.0204
  257MOL0     N33842   2.220   2.707   8.933 -0.0488  0.3537 -0.4190
  257MOL0     N33843   2.114   2.757   8.975 -0.5259  0.0611 -0.0954
  257MOL0     C33844   0.786   2.450   8.960 -0.3974 -0.2214  1.0588
  257MOL0     C33845   0.650   2.438   8.920 -0.2512  0.1282 -0.7413
  257MOL0     C33846   0.214   2.303   9.010  0.1718 -1.0918 -0.5900
  257MOL0     C33847   0.158   2.176   9.041  0.1761  0.0753 -0.4259
  257MOL0     C33848   0.024   2.145   8.996 -0.3005 -0.0362 -0.1214
  257MOL0     C33849  -0.055   2.236   8.924  0.2498 -0.6145  1.0405
  257MOL0     O33850  -0.177   2.198   8.889 -0.3380  0.4059  0.1702
  257MOL0     C33851  -0.229   2.258   8.763  0.3094  0.3433 -0.2800
  257MOL0     C33852  -0.377   2.222   8.746 -0.8345 -0.1900  0.7189
  257MOL0     C33853  -0.461   2.263   8.870 -0.0446  0.3925  0.3533
  257MOL0     C33854  -0.616   2.257   8.851 -0.1351 -0.1167  0.1328
  257MOL0     C33855  -0.668   2.146   8.779  1.2153  0.8432  0.0950
  257MOL0     C33856  -0.717   2.041   8.736  0.6905 -0.2719  0.4951
  257MOL0     C33857   0.012   2.361   8.886 -0.3452  0.3214  0.1804
  257MOL0     C33858   0.137   2.393   8.931  0.4077  0.2581 -0.8698
  257MOL0     H33859   0.510   2.502   9.223  0.4034  1.9789 -0.0181
  257MOL0     H33860   0.745   2.552   9.278 -5.4064  1.9368  1.6541
  257MOL0     H33861   1.012   2.625   8.953  0.8649  4.0576  2.4044
  257MOL0     H33862   1.086   2.461   8.995 -2.5552 -1.5438  1.3043
  257MOL0     H33863   1.217   2.572   9.173  1.9509  1.5373 -0.1270
  257MOL0     H33864   1.136   2.725   9.143 -1.1074 -1.9876  1.5388
  257MOL0     H33865   1.219   2.723   8.906  0.3367  1.1146  0.1539
  257MOL0     H33866   1.288   2.563   8.936  0.8250  0.1672  1.1734
  257MOL0     H33867   1.403   2.822   9.005 -1.5045  0.5428 -0.6118
  257MOL0     H33868   1.403   2.700   9.144 -0.9268 -1.3973 -0.9494
  257MOL0     H33869   1.537   2.686   8.883  3.1726  0.1909  1.1397
  257MOL0     H33870   1.507   2.545   8.970  0.0980 -0.8127  4.3354
  257MOL0     H33871   1.633   2.631   9.171  1.5879  0.0573  0.3123
  257MOL0     H33872   1.640   2.795   9.100 -1.4914  0.5144 -3.0957
  257MOL0     H33873   1.772   2.544   8.982 -3.4430 -0.4240 -0.1892
  257MOL0     H33874   1.757   2.704   8.902  0.8950 -1.6162 -1.2465
  257MOL0     H33875   1.883   2.681   9.178 -0.6415 -2.4202 -0.6252
  257MOL0     H33876   1.883   2.817   9.072 -0.3113 -0.0253 -1.3331
  257MOL0     H33877   2.034   2.452   8.943 -0.3729  1.0943 -0.0563
  257MOL0     H33878   2.235   2.366   8.853  0.3455 -0.1770 -1.4897
  257MOL0     H33879   2.363   2.460   8.896  0.2082 -4.1204 -0.4069
  257MOL0     H33880   2.374   2.580   8.694 -1.6725  1.5403  0.5246
  257MOL0     H33881   2.211   2.556   8.645 -1.2576 -0.7881  0.9984
  257MOL0     H33882   2.386   2.298   8.659  4.6860  1.6319 -1.2972
  257MOL0     H33883   2.243   2.336   8.562  0.6683 -1.5181  1.7613
  257MOL0     H33884   2.457   2.331   8.442 -1.0007 -1.4335  1.3261
  257MOL0     H33885   2.520   2.453   8.551 -0.2956 -0.0819 -0.4460
  257MOL0     H33886   2.184   2.668   8.402  4.0266 -2.1792  4.4992
  257MOL0     H33887   1.953   2.635   8.313  1.6613  0.2423  2.8832
  257MOL0     H33888   1.629   2.257   8.275 -0.9770 -2.5421  1.1950
  257MOL0     H33889   1.403   2.201   8.174 -0.5859  1.2177 -0.7777
  257MOL0     H33890   1.357   2.029   7.768  1.3360 -0.6110  0.9949
  257MOL0     H33891   1.353   2.215   7.779 -3.0408  1.4565  2.0144
  257MOL0     H33892   1.124   2.182   7.865  0.7383 -0.2874  0.1502
  257MOL0     H33893   1.121   2.013   7.853  0.9400  1.3943  2.2379
  257MOL0     H33894   1.175   2.024   7.598 -2.2072 -0.3696 -2.0858
  257MOL0     H33895   1.146   2.195   7.616  2.7523 -0.6106  0.8848
  257MOL0     H33896   0.939   2.048   7.743 -2.3517 -1.6630 -1.4985
  257MOL0     H33897   0.936   2.201   7.654  1.6525  0.3698 -0.4433
  257MOL0     H33898   0.957   1.930   7.517  0.3531 -0.1426  2.1323
  257MOL0     H33899   0.909   2.093   7.447  1.3726  0.2519  0.2413
  257MOL0     H33900   0.699   2.067   7.602  0.5611  1.6452 -1.0202
  257MOL0     H33901   0.771   1.910   7.649 -2.4869  0.1923  0.0277
  257MOL0     H33902   0.659   2.018   7.393 -0.7272 -0.6532  0.8946
  257MOL0     H33903   0.755   1.857   7.387 -1.1666  0.0421 -3.4471
  257MOL0     H33904   0.494   1.832   7.391  0.0967  0.3208  0.6489
  257MOL0     H33905   0.495   1.912   7.542  0.4455  2.1681 -1.2912
  257MOL0     H33906   1.568   2.137   7.790 -0.4565  1.5698 -1.1302
  257MOL0     H33907   1.792   2.210   7.866  0.1333 -0.4144  0.6476
  257MOL0     H33908   2.085   2.242   8.184  0.0292  0.3766  0.0914
  257MOL0     H33909   2.319   2.294   8.279  1.2136 -0.2965  0.2496
  257MOL0     H33910   0.869   2.435   8.892  2.9865  1.4004  4.4504
  257MOL0     H33911   0.611   2.430   8.819  2.1110  0.2116 -1.7245
  257MOL0     H33912   0.217   2.099   9.088 -0.1553  0.9204  1.4486
  257MOL0     H33913  -0.004   2.040   9.001  4.2408 -1.4307  1.6237
  257MOL0     H33914  -0.179   2.228   8.670 -0.2015  1.0080 -0.7804
  257MOL0     H33915  -0.219   2.366   8.775  1.2481  0.1893  0.4462
  257MOL0     H33916  -0.428   2.259   8.656 -0.4525 -1.2455  0.0574
  257MOL0     H33917  -0.371   2.113   8.743 -0.8461 -0.2062  1.1658
  257MOL0     H33918  -0.434   2.365   8.900  2.9318 -0.8414  2.3681
  257MOL0     H33919  -0.434   2.195   8.951 -2.0055  0.8546  1.4454
  257MOL0     H33920  -0.674   2.273   8.942 -1.3804 -0.1336 -0.6285
  257MOL0     H33921  -0.640   2.352   8.801  1.9142 -1.1736 -3.2191
  257MOL0     H33922  -0.756   1.950   8.696 -0.1866 -0.2212  1.2175
  257MOL0     H33923  -0.035   2.434   8.821  0.9639  0.6609 -0.4022
  257MOL0     H33924   0.182   2.488   8.902 -1.9305  1.8543  0.4219
  258MOL0     O33925  10.540   1.857  10.778 -0.3413  0.5955  0.2604
  258MOL0     C33926  10.637   1.782  10.778  1.1646  0.4492  0.3770
  258MOL0     O33927  10.658   1.678  10.862  0.5842  0.3602 -0.2232
  258MOL0     C33928  10.546   1.657  10.946 -0.0743  0.2349  0.2350
  258MOL0     C33929  10.477   1.539  10.928  1.0514  0.4822  0.5918
  258MOL0     C33930  10.380   1.495  11.014  0.6629 -0.6454 -0.4634
  258MOL0     C33931  10.359   1.565  11.135  0.3822  0.1465 -0.0023
  258MOL0     O33932  10.275   1.514  11.232 -0.1004 -0.1711  0.9626
  258MOL0     C33933  10.302   1.378  11.273 -1.2715 -0.2697 -0.7912
  258MOL0     C33934  10.194   1.318  11.363  0.0122  1.2397  0.8723
  258MOL0     C33935  10.096   1.251  11.271 -0.2854 -0.1048  0.6660
  258MOL0     C33936   9.978   1.197  11.357  0.1760  0.1073 -0.1814
  258MOL0     C33937   9.924   1.066  11.298  0.8310  0.0628 -0.4026
  258MOL0     C33938   9.784   1.030  11.360 -0.6568 -0.0983 -0.0638
  258MOL0     C33939   9.736   0.892  11.311 -0.2566 -0.5522 -0.3716
  258MOL0     C33940   9.603   0.847  11.373  0.2777  0.4730  0.1647
  258MOL0     N33941   9.549   0.711  11.326 -0.8896  0.1692  0.0018
  258MOL0     C33942   9.580   0.586  11.373 -0.0921 -0.0608 -0.0067
  258MOL0     C33943   9.467   0.512  11.340 -0.5326 -0.5236 -0.7635
  258MOL0     C33944   9.467   0.370  11.354 -0.3270  0.2565 -0.3723
  258MOL0     C33945   9.330   0.308  11.301 -0.9691 -0.4652  0.3371
  258MOL0     C33946   9.326   0.163  11.319  0.3184  1.0404  0.8558
  258MOL0     C33947   9.389   0.093  11.202  0.0361 -0.3814  0.3653
  258MOL0     O33948   9.400  -0.042  11.229  0.2946 -0.0741 -0.9675
  258MOL0     C33949   9.409  -0.134  11.132 -0.6639 -0.3044  0.8082
  258MOL0     C33950   9.478  -0.107  11.013 -0.1562  0.1893  0.4660
  258MOL0     C33951   9.470  -0.186  10.897 -0.4880  1.8178  0.3159
  258MOL0     C33952   9.384  -0.300  10.900  0.0686  0.3618  0.3997
  258MOL0     C33953   9.380  -0.386  10.775 -0.4535 -1.0585  0.1283
  258MOL0     O33954   9.278  -0.478  10.781 -0.3585  0.0800 -0.0926
  258MOL0     C33955   9.243  -0.558  10.671  0.2160 -0.0676 -0.1990
  258MOL0     C33956   9.247  -0.505  10.537  0.0474  0.2092 -0.0309
  258MOL0     C33957   9.215  -0.595  10.437  0.1575 -0.3036 -0.2929
  258MOL0     C33958   9.140  -0.719  10.452 -0.8479  0.4404 -0.5631
  258MOL0     O33959   9.114  -0.798  10.348  0.2201 -0.1969  0.2052
  258MOL0     C33960   9.232  -0.826  10.271  0.8656  0.9920  0.7115
  258MOL0     C33961   9.211  -0.957  10.190  0.2879  0.5692  1.2920
  258MOL0     C33962   9.084  -0.952  10.087 -0.4190  0.3138  0.1585
  258MOL0     C33963   9.112  -0.875   9.946 -0.4016  0.2835  0.8138
  258MOL0     C33964   8.980  -0.864   9.871  0.0194 -0.0256 -0.1706
  258MOL0     C33965   8.897  -0.737   9.906 -1.4230 -0.5583 -0.9583
  258MOL0     C33966   8.772  -0.732   9.823  0.2802 -0.5573  0.3572
  258MOL0     C33967   8.661  -0.649   9.904 -0.2830  0.3293 -0.0579
  258MOL0    Cl33968   8.706  -0.472   9.901 -0.0009 -0.1714 -0.7911
  258MOL0     C33969   9.147  -0.769  10.582  0.5000  0.1272  0.2764
  258MOL0     C33970   9.195  -0.686  10.685 -0.1677 -0.8087  0.0457
  258MOL0     O33971   9.448  -0.366  10.677 -0.3848  0.2456  0.0342
  258MOL0     C33972   9.324  -0.336  11.020 -0.6991  0.4200  0.3049
  258MOL0     C33973   9.331  -0.248  11.131 -0.3176  0.2386 -0.3695
  258MOL0     N33974   9.384   0.590  11.261 -0.5998  0.2839  0.7860
  258MOL0     N33975   9.438   0.704  11.254  0.0818 -0.3246 -0.5947
  258MOL0     C33976  10.408   1.693  11.151  0.3709 -0.6056  0.1100
  258MOL0     C33977  10.508   1.739  11.060  0.5582  0.2852  0.4559
  258MOL0     C33978  10.741   1.821  10.693  0.3486 -0.3052 -0.4335
  258MOL0     C33979  10.869   1.767  10.717  0.5183  0.0210  0.7519
  258MOL0     C33980  10.980   1.810  10.636 -0.1737 -0.0088 -1.1627
  258MOL0     C33981  10.964   1.902  10.524 -0.5233  0.7877 -0.7528
  258MOL0     O33982  11.059   1.932  10.433 -0.1406 -0.7439 -0.0003
  258MOL0     C33983  11.197   1.905  10.459  0.0985  0.3616 -0.0663
  258MOL0     C33984  11.279   1.967  10.346 -0.3288  0.5401 -0.6432
  258MOL0     C33985  11.422   1.947  10.375  0.9967 -0.7177 -0.3742
  258MOL0     C33986  11.499   2.031  10.260 -0.3507 -0.5869 -0.5185
  258MOL0     C33987  11.612   1.957  10.217  0.0756  0.2639 -0.6521
  258MOL0     C33988  11.710   1.895  10.178 -0.7707 -0.5242  0.0138
  258MOL0     C33989  10.830   1.929  10.492  0.1371 -0.0182  0.2459
  258MOL0     C33990  10.723   1.896  10.574  0.6217 -0.1622 -0.3577
  258MOL0     H33991  10.485   1.477  10.840  0.4993  1.8625 -0.4555
  258MOL0     H33992  10.340   1.397  10.990  0.6752 -0.6677 -0.3923
  258MOL0     H33993  10.390   1.393  11.337 -0.7924 -0.8969 -1.2966
  258MOL0     H33994  10.320   1.305  11.194 -2.5233 -1.6117  0.1183
  258MOL0     H33995  10.135   1.395  11.413 -0.3842  1.4015  0.1692
  258MOL0     H33996  10.233   1.250  11.440  3.8602 -0.0750 -1.9097
  258MOL0     H33997  10.147   1.166  11.226  2.3430  0.7043  1.9079
  258MOL0     H33998  10.052   1.316  11.194 -0.4786 -1.4413 -0.3762
  258MOL0     H33999   9.999   1.195  11.465 -0.3282  3.4872  0.1134
  258MOL0     H34000   9.907   1.280  11.367  3.8161  3.3521  1.0707
  258MOL0     H34001   9.988   0.978  11.314 -0.1525 -0.6045 -0.0555
  258MOL0     H34002   9.907   1.068  11.190 -2.8893  0.5095  0.0703
  258MOL0     H34003   9.703   1.096  11.330 -2.3963 -1.6441  1.0387
  258MOL0     H34004   9.792   1.027  11.469 -0.0140 -2.2412 -0.1255
  258MOL0     H34005   9.733   0.897  11.202  0.5203  4.0450 -0.3952
  258MOL0     H34006   9.818   0.830  11.347 -1.3598 -0.6782  2.1800
  258MOL0     H34007   9.527   0.919  11.342 -3.4927 -4.4499 -3.8525
  258MOL0     H34008   9.602   0.864  11.481 -0.2784  4.7746 -0.3618
  258MOL0     H34009   9.668   0.547  11.423  0.8738  0.5143 -1.2256
  258MOL0     H34010   9.480   0.342  11.459 -0.2816  0.2560 -0.3783
  258MOL0     H34011   9.555   0.341  11.296 -0.8119  1.4464 -1.7678
  258MOL0     H34012   9.322   0.325  11.193  4.2122 -0.8675 -0.3789
  258MOL0     H34013   9.247   0.350  11.359 -1.0721  1.1345 -0.8872
  258MOL0     H34014   9.380   0.134  11.410  3.9583 -0.6363 -1.6175
  258MOL0     H34015   9.221   0.135  11.307  0.3218  1.4009 -0.0646
  258MOL0     H34016   9.488   0.132  11.175  1.0948 -1.5156  2.3519
  258MOL0     H34017   9.325   0.108  11.115  1.8220  2.9055 -0.5713
  258MOL0     H34018   9.553  -0.029  11.007  1.6928 -1.0934  3.8609
  258MOL0     H34019   9.533  -0.168  10.810 -0.6712 -0.6087 -0.3934
  258MOL0     H34020   9.280  -0.404  10.516  1.4940 -0.6275 -2.1181
  258MOL0     H34021   9.225  -0.562  10.334 -0.4394 -0.7516 -0.5022
  258MOL0     H34022   9.313  -0.847  10.343 -2.5318 -2.2540  4.0666
  258MOL0     H34023   9.255  -0.739  10.210 -0.7472 -0.0054 -1.4169
  258MOL0     H34024   9.177  -1.036  10.257 -0.5578 -2.2158 -2.1618
  258MOL0     H34025   9.302  -0.984  10.136 -0.2829  3.0198 -1.1635
  258MOL0     H34026   8.997  -0.912  10.140 -1.7288 -3.4027  1.1143
  258MOL0     H34027   9.056  -1.056  10.067 -1.4513  0.6125  0.0010
  258MOL0     H34028   9.149  -0.775   9.971  0.4519  1.1942 -3.3668
  258MOL0     H34029   9.188  -0.932   9.892 -1.7418  0.4614 -1.4122
  258MOL0     H34030   8.922  -0.955   9.887  0.2101 -1.3279 -5.0157
  258MOL0     H34031   9.019  -0.861   9.768  0.4309 -0.0634 -0.0156
  258MOL0     H34032   8.957  -0.646   9.906  0.7522 -1.8918  0.6896
  258MOL0     H34033   8.865  -0.751  10.010 -1.6907  2.2582 -0.5973
  258MOL0     H34034   8.795  -0.692   9.724  0.2449 -1.6969 -0.1318
  258MOL0     H34035   8.741  -0.837   9.825  0.3843 -0.5958  3.1668
  258MOL0     H34036   8.660  -0.694  10.004  1.3751  0.8498  0.2293
  258MOL0     H34037   8.569  -0.666   9.848 -0.9109 -0.6828  1.2428
  258MOL0     H34038   9.118  -0.870  10.607 -2.1696  1.7478  4.9435
  258MOL0     H34039   9.206  -0.725  10.786  0.7556 -0.6918 -0.0041
  258MOL0     H34040   9.264  -0.425  11.004 -2.1159  1.0536  1.8132
  258MOL0     H34041   9.282  -0.279  11.223  0.4790  1.8078  0.6237
  258MOL0     H34042  10.377   1.752  11.236 -1.5201 -2.0825  0.5052
  258MOL0     H34043  10.552   1.836  11.078 -0.5723  0.9123 -0.0580
  258MOL0     H34044  10.882   1.701  10.802 -2.4737  1.1830  2.2493
  258MOL0     H34045  11.081   1.785  10.669 -1.2128 -3.9973 -0.4724
  258MOL0     H34046  11.198   1.796  10.465 -1.3262  0.3886  1.6202
  258MOL0     H34047  11.240   1.948  10.550 -0.7464  1.1530 -0.0225
  258MOL0     H34048  11.237   1.928  10.253 -1.3244  2.4209 -1.0120
  258MOL0     H34049  11.256   2.072  10.329 -1.0040  0.5894  0.4786
  258MOL0     H34050  11.446   1.840  10.376 -1.2161 -1.2769 -0.5471
  258MOL0     H34051  11.439   1.995  10.472 -0.4051 -0.0825 -0.4239
  258MOL0     H34052  11.437   2.041  10.171 -2.6714 -0.6561  1.0010
  258MOL0     H34053  11.540   2.123  10.305 -0.4736 -0.4922 -0.6014
  258MOL0     H34054  11.800   1.848  10.147 -0.6421  0.9356 -2.0457
  258MOL0     H34055  10.806   1.992  10.406 -1.2096  0.6906  1.0904
  258MOL0     H34056  10.625   1.928  10.542  0.3473 -1.7853 -1.2918
  259MOL0     O34057   1.192   6.128  10.986  0.5347 -0.2702 -0.5830
  259MOL0     C34058   1.273   6.200  11.032 -0.6454  0.0707 -1.1649
  259MOL0     O34059   1.279   6.341  11.024 -0.3100  0.2371  0.2153
  259MOL0     C34060   1.166   6.422  10.991 -0.1340  0.0089 -0.3555
  259MOL0     C34061   1.185   6.514  10.887  0.2175 -0.6396 -0.4100
  259MOL0     C34062   1.069   6.583  10.845 -0.2925 -0.8912 -0.2434
  259MOL0     C34063   0.942   6.564  10.897 -0.0615  0.4630  0.5208
  259MOL0     O34064   0.845   6.637  10.834 -0.1820 -0.1337 -0.0075
  259MOL0     C34065   0.711   6.581  10.857  0.1309  0.5288 -0.0080
  259MOL0     C34066   0.623   6.645  10.754  0.7764  0.9069 -0.3120
  259MOL0     C34067   0.482   6.573  10.732  0.5649 -0.8770 -0.2347
  259MOL0     C34068   0.391   6.572  10.859  0.1797 -0.8745 -0.3506
  259MOL0     C34069   0.250   6.513  10.845  1.3471 -0.0307 -1.5340
  259MOL0     C34070   0.226   6.388  10.922  0.3340  0.0538  0.1143
  259MOL0     C34071   0.311   6.278  10.856 -1.0985  0.6623 -0.1544
  259MOL0     C34072   0.298   6.150  10.949 -0.4112  0.0967  0.6737
  259MOL0     N34073   0.229   6.040  10.881  0.8140 -0.4698 -0.1855
  259MOL0     C34074   0.105   6.048  10.814 -0.2778 -0.8168 -0.2240
  259MOL0     C34075   0.073   5.927  10.766  0.2649 -0.1094 -0.4181
  259MOL0     C34076  -0.052   5.892  10.692  0.6246  1.1888  0.2063
  259MOL0     C34077  -0.110   5.751  10.732  0.5073  0.8667 -0.0043
  259MOL0     C34078  -0.252   5.715  10.676  0.7655 -0.3826  0.3242
  259MOL0     C34079  -0.340   5.836  10.711  0.0510  0.1695 -0.2722
  259MOL0     O34080  -0.473   5.812  10.683  0.3355 -0.5360 -0.0776
  259MOL0     C34081  -0.553   5.745  10.772  0.2620  0.8299  1.2249
  259MOL0     C34082  -0.497   5.668  10.874  0.8561  0.7308  0.5045
  259MOL0     C34083  -0.598   5.600  10.954  0.3513 -0.6734 -0.2843
  259MOL0     C34084  -0.734   5.601  10.929  0.3890  0.0890  0.5803
  259MOL0     C34085  -0.835   5.534  11.021 -0.1895 -0.7895  0.3158
  259MOL0     O34086  -0.964   5.572  10.996 -0.2754  0.0863 -0.3501
  259MOL0     C34087  -1.070   5.495  11.032 -0.3537  0.2807  0.7772
  259MOL0     C34088  -1.172   5.486  10.940  0.0929  0.0261  0.1252
  259MOL0     C34089  -1.277   5.396  10.955 -0.4905  0.9413  0.0216
  259MOL0     C34090  -1.273   5.306  11.049  0.3913  0.2377  0.5592
  259MOL0     O34091  -1.371   5.202  11.043  0.4872 -0.6355 -0.2033
  259MOL0     C34092  -1.330   5.073  11.086 -0.5079 -0.8755 -0.7265
  259MOL0     C34093  -1.464   4.989  11.085  0.1456 -0.0488  0.5294
  259MOL0     C34094  -1.586   5.063  11.135 -0.1813 -0.1545 -0.7345
  259MOL0     C34095  -1.694   4.965  11.184  0.7596 -0.4513  0.0913
  259MOL0     C34096  -1.804   5.062  11.234 -0.3417 -0.9152  0.8726
  259MOL0     C34097  -1.915   4.984  11.293 -0.7512  0.0791 -0.5596
  259MOL0     C34098  -2.009   5.070  11.380  0.6164  1.3477 -0.1832
  259MOL0     C34099  -2.128   5.125  11.301  0.1465  0.3017  0.0129
  259MOL0    Cl34100  -2.271   5.160  11.404 -0.5735  0.2990 -0.3920
  259MOL0     C34101  -1.181   5.313  11.151  0.4059  0.1113  0.6672
  259MOL0     C34102  -1.074   5.407  11.138 -0.0842  0.0897 -0.7110
  259MOL0     O34103  -0.802   5.439  11.089  0.6589  0.6835 -0.3083
  259MOL0     C34104  -0.783   5.682  10.826  0.2660 -0.8567  0.2323
  259MOL0     C34105  -0.694   5.754  10.747 -0.0451  0.3833 -0.1708
  259MOL0     N34106   0.174   5.843  10.808  0.2921 -0.1566  0.1983
  259MOL0     N34107   0.262   5.912  10.881 -0.2136  0.1635 -0.1231
  259MOL0     C34108   0.923   6.479  11.006 -0.0960  0.0075  0.1100
  259MOL0     C34109   1.039   6.398  11.049  0.6345  1.0576  1.1520
  259MOL0     C34110   1.394   6.134  11.091  0.6285 -0.1428  0.1019
  259MOL0     C34111   1.399   6.001  11.136  0.1437  0.0167 -0.5107
  259MOL0     C34112   1.510   5.946  11.206  0.3426 -0.2777  0.0764
  259MOL0     C34113   1.622   6.031  11.230 -1.1316 -0.1762 -0.2073
  259MOL0     O34114   1.734   5.986  11.295 -0.1082 -0.2471 -0.4008
  259MOL0     C34115   1.787   5.851  11.298  0.0791 -1.4728 -0.1856
  259MOL0     C34116   1.807   5.785  11.162 -0.0726 -0.2740  0.7856
  259MOL0     C34117   1.853   5.643  11.174 -0.3240  0.0598 -0.8144
  259MOL0     C34118   1.984   5.609  11.250  0.6163  1.1506  0.3751
  259MOL0     C34119   2.108   5.673  11.218 -0.8153 -0.8534  0.1994
  259MOL0     C34120   2.213   5.736  11.196 -0.7285 -0.1021  0.0452
  259MOL0     C34121   1.621   6.153  11.170 -0.3437 -0.4303  1.0204
  259MOL0     C34122   1.508   6.201  11.104 -0.4383  0.2139 -0.4630
  259MOL0     H34123   1.278   6.529  10.834  0.6323 -4.1042 -0.8767
  259MOL0     H34124   1.076   6.655  10.764  2.0022  0.2351  0.8871
  259MOL0     H34125   0.679   6.615  10.956  2.4699 -1.8932  1.7363
  259MOL0     H34126   0.699   6.472  10.860  1.4014  0.3863  2.1395
  259MOL0     H34127   0.676   6.640  10.658  0.7052 -0.7456 -0.2834
  259MOL0     H34128   0.612   6.748  10.790 -2.8477  0.3756  0.4484
  259MOL0     H34129   0.502   6.471  10.697 -1.7717 -1.6244  0.4568
  259MOL0     H34130   0.439   6.626  10.647  3.8590  1.2146 -0.7859
  259MOL0     H34131   0.441   6.513  10.936 -1.8288 -0.1992  1.5671
  259MOL0     H34132   0.384   6.669  10.909  3.2298 -2.5805  3.9772
  259MOL0     H34133   0.219   6.495  10.742 -2.0167 -0.7844 -0.4923
  259MOL0     H34134   0.178   6.583  10.889 -0.5901 -1.9302 -1.5508
  259MOL0     H34135   0.124   6.358  10.900  0.0261  2.5420 -2.4349
  259MOL0     H34136   0.243   6.402  11.029  1.3640  3.7014 -0.3823
  259MOL0     H34137   0.260   6.262  10.760 -0.2952  0.7885 -0.6092
  259MOL0     H34138   0.414   6.301  10.827 -0.8854 -0.3318 -0.2267
  259MOL0     H34139   0.242   6.179  11.037  1.2646  0.6497  1.6020
  259MOL0     H34140   0.397   6.117  10.983  1.1780  1.4261 -2.2112
  259MOL0     H34141   0.046   6.138  10.798  0.2263 -0.4786 -0.1814
  259MOL0     H34142  -0.034   5.891  10.584 -2.1945 -1.4727 -0.3747
  259MOL0     H34143  -0.119   5.974  10.716 -0.3857  0.3063  0.4527
  259MOL0     H34144  -0.118   5.747  10.841 -1.6886 -2.0451 -0.1485
  259MOL0     H34145  -0.040   5.669  10.716  0.2220  0.5376  0.4332
  259MOL0     H34146  -0.259   5.706  10.567 -0.6768 -1.5749  0.4924
  259MOL0     H34147  -0.299   5.622  10.707 -2.3581  1.5251  1.7202
  259MOL0     H34148  -0.322   5.914  10.635  0.3944 -0.4616 -0.8523
  259MOL0     H34149  -0.310   5.863  10.812  4.1131  1.6634 -1.6579
  259MOL0     H34150  -0.392   5.659  10.899  0.1041 -0.7736  3.7374
  259MOL0     H34151  -0.571   5.554  11.048 -3.4361  0.2179  1.4449
  259MOL0     H34152  -1.176   5.547  10.850 -2.4991 -0.7700 -0.3922
  259MOL0     H34153  -1.365   5.390  10.891 -0.8301 -0.8663  0.5887
  259MOL0     H34154  -1.302   5.075  11.192  2.3133 -0.2293 -1.4053
  259MOL0     H34155  -1.252   5.020  11.032 -1.0390 -2.4532 -0.0320
  259MOL0     H34156  -1.447   4.904  11.152  0.0759 -0.1731  0.3905
  259MOL0     H34157  -1.505   4.946  10.993 -2.0055  0.7050  1.0960
  259MOL0     H34158  -1.627   5.133  11.061 -0.3348 -0.8393 -1.3047
  259MOL0     H34159  -1.551   5.126  11.218  2.3367 -0.1148 -1.7301
  259MOL0     H34160  -1.725   4.896  11.105  2.0204 -2.4779  1.2831
  259MOL0     H34161  -1.659   4.907  11.269  1.6976  1.4454  1.0600
  259MOL0     H34162  -1.839   5.119  11.147  1.7342 -0.0790  0.5164
  259MOL0     H34163  -1.758   5.124  11.312  1.2421 -0.0599 -0.6584
  259MOL0     H34164  -1.869   4.923  11.371  1.6281  0.0287 -1.9262
  259MOL0     H34165  -1.964   4.915  11.225  0.6851 -2.0752  0.4741
  259MOL0     H34166  -2.052   5.008  11.460  1.8843  2.9806  1.8865
  259MOL0     H34167  -1.963   5.157  11.429 -0.5396  2.0152 -0.2328
  259MOL0     H34168  -2.154   5.045  11.231  0.2213  2.3350 -2.4936
  259MOL0     H34169  -2.101   5.212  11.241  0.4495 -0.0813 -0.4142
  259MOL0     H34170  -1.192   5.244  11.235  0.8481 -1.8589 -0.8134
  259MOL0     H34171  -1.002   5.399  11.219 -3.9302 -6.2260  2.9353
  259MOL0     H34172  -0.888   5.707  10.811  0.0555 -0.2202  2.4106
  259MOL0     H34173  -0.732   5.814  10.665  2.0848 -0.4311 -1.8338
  259MOL0     H34174   0.833   6.453  11.061  1.3796 -2.8511  1.3775
  259MOL0     H34175   1.030   6.317  11.120 -0.5696  1.3523  1.3628
  259MOL0     H34176   1.307   5.945  11.127  0.7316 -1.1060  0.1945
  259MOL0     H34177   1.511   5.841  11.233  2.8981 -0.5534 -0.7929
  259MOL0     H34178   1.730   5.792  11.370 -2.1604  1.6265  0.8128
  259MOL0     H34179   1.884   5.860  11.347  0.3605 -1.8662 -0.6625
  259MOL0     H34180   1.710   5.788  11.113 -0.0311  1.5198  0.7556
  259MOL0     H34181   1.891   5.830  11.108  0.9692 -1.5016  1.3156
  259MOL0     H34182   1.857   5.601  11.073 -0.9530  0.3808 -0.9822
  259MOL0     H34183   1.770   5.591  11.222  0.4416 -1.5253 -1.1493
  259MOL0     H34184   1.964   5.619  11.357  0.7695 -0.3837  0.5694
  259MOL0     H34185   1.990   5.503  11.227 -0.4147  1.4235 -1.3702
  259MOL0     H34186   2.296   5.800  11.176 -0.3335 -0.0990  1.5341
  259MOL0     H34187   1.709   6.211  11.195 -1.6817  1.8940  0.6338
  259MOL0     H34188   1.534   6.295  11.057  0.7109 -0.5529 -1.4344
  260MOL0     O34189   9.657   5.869   3.885 -0.4224  0.2600 -0.5325
  260MOL0     C34190   9.716   5.913   3.992 -0.4157 -0.0069 -1.1815
  260MOL0     O34191   9.653   5.943   4.112 -0.0911  0.8001  0.3913
  260MOL0     C34192   9.525   5.895   4.130  0.2022 -0.1486  0.0033
  260MOL0     C34193   9.520   5.781   4.213 -0.8867  0.1324 -0.2530
  260MOL0     C34194   9.409   5.733   4.259  0.1190  0.0373 -0.1882
  260MOL0     C34195   9.285   5.767   4.203 -0.0688  0.0940 -0.2786
  260MOL0     O34196   9.172   5.718   4.259 -0.9981 -0.1615  0.0751
  260MOL0     C34197   9.062   5.701   4.175 -1.0456 -0.0082 -0.7814
  260MOL0     C34198   8.982   5.581   4.239  0.4497  0.7404 -0.1283
  260MOL0     C34199   8.871   5.523   4.151  0.0553 -0.3614 -0.3895
  260MOL0     C34200   8.784   5.415   4.212 -0.5803 -0.2524  0.4693
  260MOL0     C34201   8.670   5.367   4.124  0.1586  0.1166  0.1835
  260MOL0     C34202   8.574   5.262   4.180 -0.0105  0.0453  0.9889
  260MOL0     C34203   8.486   5.205   4.075 -0.0601 -0.0408 -0.4437
  260MOL0     C34204   8.394   5.096   4.120  1.0470  0.3376  0.3120
  260MOL0     N34205   8.285   5.159   4.210 -0.0890  0.0667  0.0176
  260MOL0     C34206   8.266   5.112   4.333  0.1174  0.9355  0.2778
  260MOL0     C34207   8.157   5.179   4.394 -0.5756 -0.1422  0.6019
  260MOL0     C34208   8.103   5.160   4.531 -0.4708 -0.0506  0.0177
  260MOL0     C34209   7.960   5.135   4.548  0.7628 -0.9100  0.0646
  260MOL0     C34210   7.879   5.266   4.546  0.3412  0.1754 -1.2142
  260MOL0     C34211   7.734   5.237   4.561  0.6297 -0.6004  0.1580
  260MOL0     O34212   7.694   5.129   4.471  0.1651  0.5981  0.7290
  260MOL0     C34213   7.569   5.065   4.482 -0.1824 -0.2637 -0.3336
  260MOL0     C34214   7.477   5.107   4.586 -0.0387 -0.7448  1.0546
  260MOL0     C34215   7.350   5.049   4.595  0.5624 -0.6573  0.3023
  260MOL0     C34216   7.315   4.948   4.506  0.4533 -0.5679  0.1634
  260MOL0     C34217   7.169   4.895   4.523  0.4234  0.5436  0.1492
  260MOL0     O34218   7.109   4.917   4.645 -0.1385  0.4679 -0.1265
  260MOL0     C34219   6.974   4.891   4.655  1.2363  0.2711  0.8533
  260MOL0     C34220   6.880   4.929   4.557  0.8955 -1.0390 -0.8007
  260MOL0     C34221   6.742   4.927   4.574  0.0702 -0.8775 -0.0954
  260MOL0     C34222   6.697   4.881   4.696  0.6213  0.7017  0.2868
  260MOL0     O34223   6.562   4.894   4.710 -0.2354  0.8098  0.1962
  260MOL0     C34224   6.510   4.837   4.839  0.1303 -0.7689 -0.0833
  260MOL0     C34225   6.360   4.824   4.820  0.6908 -0.8507 -0.5094
  260MOL0     C34226   6.287   4.970   4.814 -0.8080 -0.8948 -0.8063
  260MOL0     C34227   6.324   5.054   4.936  0.3537 -0.2395  1.2071
  260MOL0     C34228   6.241   5.181   4.938  0.3510 -0.5837 -0.1474
  260MOL0     C34229   6.101   5.181   4.999 -0.8913  0.1839  0.8967
  260MOL0     C34230   6.034   5.314   4.997  0.1523 -0.1839 -0.0402
  260MOL0     C34231   5.892   5.304   5.049 -0.1304  0.3288  0.8188
  260MOL0    Cl34232   5.806   5.455   5.072 -0.2937  0.4088 -0.3545
  260MOL0     C34233   6.789   4.845   4.799  0.4442 -0.2770  0.5050
  260MOL0     C34234   6.924   4.844   4.775  0.2397 -0.3317  0.0256
  260MOL0     O34235   7.121   4.836   4.427  0.1154  0.3737  0.7454
  260MOL0     C34236   7.397   4.908   4.402 -0.7149 -0.0341  0.2837
  260MOL0     C34237   7.533   4.969   4.390  0.6691 -0.4956  0.4549
  260MOL0     N34238   8.103   5.260   4.294  0.4728  0.1300 -0.1181
  260MOL0     N34239   8.167   5.237   4.186  0.1066  0.2013 -0.0472
  260MOL0     C34240   9.292   5.874   4.098 -0.2882  0.6736 -0.2767
  260MOL0     C34241   9.411   5.937   4.066  0.0794 -0.4946  0.0199
  260MOL0     C34242   9.862   5.941   3.979 -0.6586  0.4041  0.5235
  260MOL0     C34243   9.941   5.997   4.081 -0.0623 -0.9569  0.1367
  260MOL0     C34244  10.082   6.040   4.057  0.3280  0.7825 -0.0731
  260MOL0     C34245  10.141   6.018   3.926  0.5639  0.6699  0.2910
  260MOL0     O34246  10.271   6.068   3.896  0.2549 -0.9359  0.0952
  260MOL0     C34247  10.335   6.166   3.988 -0.2045  0.3681 -0.1144
  260MOL0     C34248  10.326   6.302   3.941  0.4204 -1.5969 -0.4422
  260MOL0     C34249  10.429   6.342   3.826  0.0438  0.3698 -0.2098
  260MOL0     C34250  10.426   6.251   3.696 -0.8674  0.0197  0.2638
  260MOL0     C34251  10.540   6.274   3.603  0.0626 -0.7489 -0.6523
  260MOL0     C34252  10.651   6.287   3.551  0.6000  0.4961 -0.0982
  260MOL0     C34253  10.063   5.948   3.831 -0.6014  0.0867  0.0313
  260MOL0     C34254   9.925   5.916   3.852 -0.8931 -0.2445 -0.6022
  260MOL0     H34255   9.616   5.744   4.247 -1.4087  0.9645  2.3192
  260MOL0     H34256   9.412   5.652   4.331  2.3316 -0.4562 -0.7584
  260MOL0     H34257   9.086   5.660   4.077  1.2144  0.7752 -0.6249
  260MOL0     H34258   9.003   5.793   4.176 -2.8671 -1.0801 -3.0479
  260MOL0     H34259   8.936   5.618   4.331 -0.1895 -1.2621  0.4131
  260MOL0     H34260   9.052   5.499   4.260 -0.2983  0.5045  1.5751
  260MOL0     H34261   8.904   5.489   4.052  0.5814  0.8537 -0.6606
  260MOL0     H34262   8.797   5.603   4.140  0.3364  0.1095  0.9324
  260MOL0     H34263   8.852   5.333   4.239 -0.7272 -1.0716 -1.4926
  260MOL0     H34264   8.740   5.464   4.299  1.4626 -1.0911  2.0653
  260MOL0     H34265   8.721   5.330   4.034 -2.0327  0.7385 -1.4121
  260MOL0     H34266   8.620   5.452   4.076  4.0273  2.1697 -0.6295
  260MOL0     H34267   8.506   5.312   4.249  1.8934  0.7820  2.4221
  260MOL0     H34268   8.630   5.188   4.237  2.4545 -1.3360 -2.8350
  260MOL0     H34269   8.422   5.280   4.029 -0.3571 -0.2247 -0.3312
  260MOL0     H34270   8.556   5.175   3.997  1.3004  1.2064  0.2407
  260MOL0     H34271   8.433   5.014   4.181 -0.2718  0.5004  1.4108
  260MOL0     H34272   8.355   5.053   4.027  4.2359 -1.3664 -0.4062
  260MOL0     H34273   8.298   5.020   4.382  0.3953  0.3844 -0.9087
  260MOL0     H34274   8.134   5.241   4.597 -1.4597  0.2686  0.1000
  260MOL0     H34275   8.156   5.072   4.568  1.6011  0.8300 -0.7247
  260MOL0     H34276   7.939   5.070   4.634 -2.5465  1.5669  1.3166
  260MOL0     H34277   7.939   5.082   4.454 -0.7371 -1.2102  0.5519
  260MOL0     H34278   7.908   5.329   4.630  1.2707  1.0233 -2.1564
  260MOL0     H34279   7.899   5.318   4.452 -2.0321 -2.0233 -3.1151
  260MOL0     H34280   7.675   5.329   4.554 -2.0232 -2.3442 -3.0831
  260MOL0     H34281   7.716   5.199   4.662 -1.6613  1.3086  0.5662
  260MOL0     H34282   7.495   5.190   4.653  0.1573  1.7136 -1.7976
  260MOL0     H34283   7.272   5.089   4.659  1.5837  1.2580  0.3931
  260MOL0     H34284   6.906   4.967   4.459 -0.8443  1.6107 -0.3416
  260MOL0     H34285   6.679   4.958   4.491  2.5617 -1.0172 -2.1787
  260MOL0     H34286   6.529   4.897   4.929 -3.2631 -1.2805  1.1596
  260MOL0     H34287   6.561   4.745   4.867  1.9374  1.2493  4.1505
  260MOL0     H34288   6.310   4.775   4.904 -0.1107  0.3920 -0.2340
  260MOL0     H34289   6.343   4.761   4.733 -2.1874  1.1709 -1.5760
  260MOL0     H34290   6.178   4.972   4.806 -0.7742  1.3349 -1.6387
  260MOL0     H34291   6.316   5.018   4.720  0.2340 -1.2381 -0.6700
  260MOL0     H34292   6.302   5.000   5.029  1.9703  0.6207  2.1421
  260MOL0     H34293   6.429   5.085   4.934  0.1202  0.6906 -1.9029
  260MOL0     H34294   6.226   5.218   4.836 -3.8419  3.2863  1.5077
  260MOL0     H34295   6.291   5.253   5.004 -1.7255  0.9583 -0.1668
  260MOL0     H34296   6.109   5.163   5.106  1.5742  3.6359  1.4241
  260MOL0     H34297   6.038   5.105   4.950 -0.7999 -0.1588  1.3056
  260MOL0     H34298   6.087   5.386   5.060 -2.5420  0.6175  1.4656
  260MOL0     H34299   6.048   5.341   4.892  1.1975 -0.0376  0.1246
  260MOL0     H34300   5.904   5.247   5.142  0.9112  2.0260  1.7683
  260MOL0     H34301   5.840   5.231   4.987 -0.4124  0.9394  0.3319
  260MOL0     H34302   6.750   4.833   4.900  2.5958 -1.5300  1.2609
  260MOL0     H34303   7.003   4.833   4.849  1.5659  0.5926 -1.2104
  260MOL0     H34304   7.357   4.832   4.336 -0.5783  0.1372 -0.0023
  260MOL0     H34305   7.598   4.943   4.307  1.2653 -1.9483  1.3205
  260MOL0     H34306   9.203   5.899   4.041 -0.6096 -0.1061 -0.1324
  260MOL0     H34307   9.417   6.006   3.983  0.9343 -0.0653  0.4309
  260MOL0     H34308   9.884   6.022   4.169  0.2505 -0.2180  0.1340
  260MOL0     H34309  10.138   6.098   4.129  1.7428  1.6353 -1.7951
  260MOL0     H34310  10.440   6.137   3.997 -0.3008 -0.6792 -1.9273
  260MOL0     H34311  10.297   6.173   4.090  0.1714 -1.9333  0.2469
  260MOL0     H34312  10.222   6.304   3.907  0.3914 -0.4288 -0.3291
  260MOL0     H34313  10.332   6.373   4.024 -0.2975 -2.1795  0.1176
  260MOL0     H34314  10.526   6.361   3.873 -0.5578  0.8203  0.8834
  260MOL0     H34315  10.377   6.436   3.805  1.4358  1.0209 -0.8861
  260MOL0     H34316  10.445   6.149   3.731 -1.6261 -0.7023 -1.3152
  260MOL0     H34317  10.326   6.261   3.653  0.3381  1.9543 -2.2918
  260MOL0     H34318  10.744   6.295   3.497 -0.8085  0.1992 -2.7640
  260MOL0     H34319  10.110   5.928   3.735  1.4117  1.4539  0.6776
  260MOL0     H34320   9.879   5.870   3.766 -1.6188 -2.8297  1.0419
  261MOL0     O34321   6.565   5.651   0.444  0.0616  1.0377  0.3572
  261MOL0     C34322   6.593   5.635   0.563  1.0541 -0.3234 -0.2024
  261MOL0     O34323   6.509   5.675   0.654  0.7035 -0.2989 -0.0528
  261MOL0     C34324   6.371   5.695   0.645 -0.0297  0.5865 -0.0310
  261MOL0     C34325   6.295   5.709   0.523 -0.5158  0.6901 -0.5537
  261MOL0     C34326   6.166   5.738   0.530  0.3727  0.4944  0.4459
  261MOL0     C34327   6.102   5.761   0.651 -0.0197 -0.8791 -0.3577
  261MOL0     O34328   5.982   5.829   0.640  0.0237 -0.2872  0.1564
  261MOL0     C34329   5.954   5.931   0.744  0.3107  0.3253 -0.4011
  261MOL0     C34330   6.049   6.056   0.730  0.6257 -0.6926  0.1191
  261MOL0     C34331   6.012   6.132   0.597  0.1282  0.4768  0.1401
  261MOL0     C34332   6.080   6.265   0.571 -0.1371  0.4349 -0.7626
  261MOL0     C34333   6.236   6.262   0.561 -0.1403 -0.7076 -0.2168
  261MOL0     C34334   6.286   6.336   0.688  0.3571  0.3766 -0.1302
  261MOL0     C34335   6.440   6.309   0.707  0.0814 -0.6275  0.0763
  261MOL0     C34336   6.498   6.401   0.817 -0.6253 -0.5219  0.4976
  261MOL0     N34337   6.468   6.546   0.800  0.4109 -0.4589  0.2541
  261MOL0     C34338   6.503   6.631   0.692 -0.4979  0.6048  0.3430
  261MOL0     C34339   6.425   6.743   0.707  0.6403 -0.5980 -0.8419
  261MOL0     C34340   6.438   6.864   0.622  0.9675 -0.7203  0.4019
  261MOL0     C34341   6.328   6.853   0.509  0.0880  0.1828 -0.8697
  261MOL0     C34342   6.366   6.742   0.411 -0.7022 -0.9678 -0.4676
  261MOL0     C34343   6.258   6.718   0.307  0.4227  0.3048  0.7804
  261MOL0     O34344   6.134   6.693   0.360 -0.5764  0.2242 -0.4014
  261MOL0     C34345   6.022   6.772   0.361 -0.2482 -0.4008  0.2613
  261MOL0     C34346   5.904   6.715   0.393  0.9489 -0.2073  0.0588
  261MOL0     C34347   5.779   6.778   0.375  0.2441  0.2198  0.2559
  261MOL0     C34348   5.778   6.917   0.337 -0.0465  0.1084 -0.0151
  261MOL0     C34349   5.663   6.994   0.362  1.6463  0.0552  0.4686
  261MOL0     O34350   5.670   7.132   0.334  0.4861  1.1126  0.0369
  261MOL0     C34351   5.568   7.210   0.378  0.6030  0.0340  0.3740
  261MOL0     C34352   5.430   7.204   0.337 -0.1340 -0.1460 -0.6627
  261MOL0     C34353   5.334   7.300   0.387 -0.5238  0.3474  0.0422
  261MOL0     C34354   5.374   7.405   0.478  0.1394  0.6595  0.1958
  261MOL0     O34355   5.280   7.497   0.525 -0.6078  1.3035 -0.1110
  261MOL0     C34356   5.316   7.608   0.607  0.0496 -0.0525 -0.1185
  261MOL0     C34357   5.216   7.721   0.610  0.6309 -0.0766  0.2763
  261MOL0     C34358   5.092   7.686   0.689 -0.9652  0.6249 -0.2011
  261MOL0     C34359   4.981   7.792   0.718 -0.0239 -0.3525  0.1397
  261MOL0     C34360   4.856   7.739   0.787  0.2303  0.0638 -1.3840
  261MOL0     C34361   4.738   7.839   0.819  0.0442  0.5005  0.3725
  261MOL0     C34362   4.657   7.899   0.697  0.2037  0.6030 -0.2486
  261MOL0     C34363   4.612   7.802   0.581 -1.1899  0.1748 -0.3883
  261MOL0    Cl34364   4.443   7.727   0.609 -0.0503 -0.2101 -0.2277
  261MOL0     C34365   5.509   7.397   0.521 -0.8556  0.4513 -0.3101
  261MOL0     C34366   5.604   7.301   0.475 -0.1398 -0.4006  0.1715
  261MOL0     O34367   5.559   6.939   0.401 -0.3418  0.1782  0.3653
  261MOL0     C34368   5.902   6.976   0.307 -0.0118 -0.0806  0.8076
  261MOL0     C34369   6.020   6.908   0.316 -0.5230  0.3934  0.4536
  261MOL0     N34370   6.351   6.717   0.820 -0.3667 -0.1766 -0.5479
  261MOL0     N34371   6.368   6.601   0.876  0.2897  1.3829  0.5622
  261MOL0     C34372   6.174   5.747   0.772  0.5081  0.3587 -0.9167
  261MOL0     C34373   6.308   5.712   0.764  0.9680  0.5276 -0.1548
  261MOL0     C34374   6.732   5.592   0.602  0.6456 -0.0159  0.3953
  261MOL0     C34375   6.834   5.592   0.513 -0.5837 -0.3552 -0.4522
  261MOL0     C34376   6.967   5.543   0.536  0.4216  0.0735 -1.1222
  261MOL0     C34377   6.997   5.505   0.674  0.2814 -0.0225  0.0155
  261MOL0     O34378   7.117   5.443   0.697  0.5651  0.2075 -0.4894
  261MOL0     C34379   7.144   5.396   0.829  0.4673 -0.2260 -0.4292
  261MOL0     C34380   7.295   5.358   0.824 -0.3135 -0.0122  0.4164
  261MOL0     C34381   7.318   5.212   0.780  0.7322 -0.0322 -0.1063
  261MOL0     C34382   7.398   5.137   0.888 -0.7205 -0.9184  0.4505
  261MOL0     C34383   7.481   5.025   0.841  0.3008 -0.4322  0.2899
  261MOL0     C34384   7.556   4.936   0.810 -0.3875 -0.0332 -0.3899
  261MOL0     C34385   6.886   5.497   0.763 -0.3674  0.2280 -0.0714
  261MOL0     C34386   6.760   5.547   0.729  0.4543 -0.0931 -0.2462
  261MOL0     H34387   6.343   5.700   0.426  1.7547  3.0578  0.2573
  261MOL0     H34388   6.123   5.751   0.431  1.3497 -2.5825 -0.4966
  261MOL0     H34389   5.955   5.888   0.845 -0.0960  0.9108 -0.1453
  261MOL0     H34390   5.856   5.975   0.726  1.3304  1.3549 -4.3931
  261MOL0     H34391   6.156   6.039   0.738  0.8844  0.6757 -0.1258
  261MOL0     H34392   6.030   6.130   0.808  3.0981  1.3915 -1.1082
  261MOL0     H34393   5.909   6.164   0.614 -0.1368  1.2706 -2.5525
  261MOL0     H34394   5.999   6.062   0.514 -1.1190  0.1350  0.6050
  261MOL0     H34395   6.042   6.321   0.485  0.9797  0.2783 -1.3689
  261MOL0     H34396   6.059   6.323   0.662 -0.3481  0.5123 -0.8603
  261MOL0     H34397   6.264   6.310   0.466  1.3584 -2.4941 -0.7208
  261MOL0     H34398   6.280   6.162   0.562  1.3491 -0.1328  2.7968
  261MOL0     H34399   6.221   6.318   0.774 -0.7221  0.8278 -0.8237
  261MOL0     H34400   6.270   6.441   0.661 -1.8803 -0.1254 -1.0173
  261MOL0     H34401   6.459   6.202   0.717  2.4392 -0.6161 -2.9028
  261MOL0     H34402   6.489   6.331   0.612 -0.1459  0.4221  0.1835
  261MOL0     H34403   6.605   6.379   0.819 -0.8489 -2.1880 -2.3002
  261MOL0     H34404   6.445   6.361   0.904 -1.9172 -4.1254 -1.7330
  261MOL0     H34405   6.590   6.611   0.629 -0.7563  2.4305 -0.6614
  261MOL0     H34406   6.539   6.875   0.583  1.4512 -0.1893  1.7704
  261MOL0     H34407   6.410   6.948   0.686 -1.3802 -0.7948 -0.4314
  261MOL0     H34408   6.326   6.951   0.462  0.7085  1.2609  1.2314
  261MOL0     H34409   6.226   6.851   0.549  0.3842  0.6963 -0.0561
  261MOL0     H34410   6.459   6.769   0.360  0.0702 -1.7002  0.5192
  261MOL0     H34411   6.366   6.645   0.463  1.0507 -0.5563  0.3773
  261MOL0     H34412   6.293   6.640   0.239 -0.8016  1.3496 -1.1541
  261MOL0     H34413   6.244   6.804   0.241  0.8488  2.8009  3.6833
  261MOL0     H34414   5.913   6.617   0.437  3.2563  0.1270  0.4594
  261MOL0     H34415   5.692   6.728   0.416 -0.5051  3.0838  2.4598
  261MOL0     H34416   5.404   7.115   0.281 -0.7535 -1.4379  1.5389
  261MOL0     H34417   5.230   7.300   0.354  0.0396  3.5805 -2.2579
  261MOL0     H34418   5.413   7.653   0.587 -0.4359  1.3507  0.5630
  261MOL0     H34419   5.329   7.562   0.705  2.1871 -2.3925 -1.3780
  261MOL0     H34420   5.193   7.760   0.510 -0.2798  0.6618  0.7607
  261MOL0     H34421   5.258   7.809   0.660 -2.5184  1.7687 -0.0212
  261MOL0     H34422   5.134   7.649   0.784 -2.9207 -0.1685  0.3919
  261MOL0     H34423   5.042   7.604   0.637  0.1378 -1.1549  1.4062
  261MOL0     H34424   5.027   7.875   0.772  0.3168  1.2860 -2.4836
  261MOL0     H34425   4.959   7.841   0.623 -1.9596 -0.7269  0.3610
  261MOL0     H34426   4.901   7.712   0.883  1.2174  0.5673 -1.6892
  261MOL0     H34427   4.804   7.661   0.731 -2.1888  2.1895 -2.2522
  261MOL0     H34428   4.756   7.915   0.896  0.5956 -0.1378  0.8904
  261MOL0     H34429   4.675   7.767   0.871  3.4997 -1.1812  2.6717
  261MOL0     H34430   4.563   7.926   0.746 -0.0546 -1.2659  0.3754
  261MOL0     H34431   4.715   7.984   0.662 -0.7167  2.4081  2.3224
  261MOL0     H34432   4.683   7.719   0.576 -0.4262  0.5270  2.6811
  261MOL0     H34433   4.616   7.856   0.486 -5.2318  2.4484  0.5084
  261MOL0     H34434   5.528   7.474   0.596 -3.9719  2.7735 -1.6700
  261MOL0     H34435   5.705   7.300   0.513  0.5843 -0.5471 -1.6474
  261MOL0     H34436   5.910   7.083   0.291  0.6164 -0.4317 -1.4668
  261MOL0     H34437   6.113   6.961   0.303  0.5916 -1.3959  0.7073
  261MOL0     H34438   6.142   5.762   0.875 -0.2797  2.8328 -1.4748
  261MOL0     H34439   6.365   5.706   0.856  0.7112  1.4419  0.0774
  261MOL0     H34440   6.811   5.611   0.409 -1.6227 -1.8527 -0.5301
  261MOL0     H34441   7.037   5.528   0.454 -2.4103 -1.7343 -3.3814
  261MOL0     H34442   7.089   5.307   0.860  0.0777 -0.0797 -0.6969
  261MOL0     H34443   7.130   5.477   0.902 -1.6147 -2.2227  1.5582
  261MOL0     H34444   7.343   5.425   0.752 -1.8512 -1.8251 -2.5166
  261MOL0     H34445   7.345   5.391   0.916 -0.9103 -0.2085  0.8180
  261MOL0     H34446   7.383   5.209   0.692  0.7499 -3.1864 -0.0916
  261MOL0     H34447   7.220   5.164   0.773  1.0518 -0.7849  0.5341
  261MOL0     H34448   7.463   5.212   0.935 -2.1096  0.3566  0.4255
  261MOL0     H34449   7.339   5.105   0.975 -0.6715  2.5737  1.9330
  261MOL0     H34450   7.648   4.886   0.787 -0.3685 -1.9876  3.2953
  261MOL0     H34451   6.900   5.477   0.869  1.3571 -0.2973 -0.3683
  261MOL0     H34452   6.686   5.530   0.806  1.1925  3.0588  1.3668
  262MOL0     O34453  11.144  10.837   8.176 -0.8123  0.4128  0.4784
  262MOL0     C34454  11.184  10.948   8.216 -0.1465 -0.6193  0.2622
  262MOL0     O34455  11.117  11.036   8.298 -0.6792 -1.1018  0.8340
  262MOL0     C34456  10.987  11.010   8.292 -0.5705  0.3425  0.1825
  262MOL0     C34457  10.939  10.915   8.371 -0.1634  0.1190  0.6397
  262MOL0     C34458  10.800  10.872   8.361 -0.3202  0.7484 -0.2804
  262MOL0     C34459  10.716  10.939   8.268  0.0313 -0.3601  0.0813
  262MOL0     O34460  10.583  10.913   8.255 -1.0378 -0.0940 -0.6468
  262MOL0     C34461  10.512  10.956   8.376  0.5144  0.4330  0.8673
  262MOL0     C34462  10.374  10.952   8.314 -0.3434 -0.5551  0.6652
  262MOL0     C34463  10.269  10.997   8.413 -0.4044  0.2984  0.8630
  262MOL0     C34464  10.129  10.976   8.351  0.3528 -0.0679  0.4290
  262MOL0     C34465  10.027  11.065   8.424  0.5172  0.0365  0.3355
  262MOL0     C34466   9.944  10.993   8.529  1.1388 -0.6486  0.1371
  262MOL0     C34467   9.846  11.090   8.594 -0.5792  0.3069 -0.1411
  262MOL0     C34468   9.709  11.017   8.610  0.4543  0.1554 -0.6484
  262MOL0     N34469   9.602  11.113   8.631 -0.5810 -0.2175  0.2466
  262MOL0     C34470   9.558  11.147   8.757 -0.0968 -0.9619  1.0990
  262MOL0     C34471   9.432  11.205   8.724  0.5116  1.0840 -0.3451
  262MOL0     C34472   9.318  11.244   8.811 -0.3184  0.7206 -0.5441
  262MOL0     C34473   9.182  11.273   8.734  0.0529  1.3021 -0.3566
  262MOL0     C34474   9.074  11.342   8.821  0.3483 -0.3069 -0.2200
  262MOL0     C34475   8.940  11.357   8.757 -0.4729  1.1988  0.2863
  262MOL0     O34476   8.835  11.402   8.841  0.0992  0.3748 -0.3592
  262MOL0     C34477   8.705  11.419   8.794  0.7100 -0.5702  0.0772
  262MOL0     C34478   8.625  11.507   8.868  0.8720 -0.3540 -0.2823
  262MOL0     C34479   8.492  11.541   8.829 -0.5515  0.4838 -0.3078
  262MOL0     C34480   8.434  11.479   8.718  0.4129 -0.8391  0.1517
  262MOL0     C34481   8.284  11.507   8.693  0.3348  0.3997 -0.7531
  262MOL0     O34482   8.215  11.412   8.616  0.0248  0.0609  0.3450
  262MOL0     C34483   8.074  11.393   8.625 -1.5217 -0.5301  0.7732
  262MOL0     C34484   8.023  11.267   8.625  0.2628 -0.0709  1.0921
  262MOL0     C34485   7.886  11.241   8.630  0.5534 -0.5280  0.4882
  262MOL0     C34486   7.800  11.354   8.621 -0.5058  0.3798  0.5770
  262MOL0     O34487   7.665  11.332   8.613 -0.3604 -0.0952  0.6542
  262MOL0     C34488   7.625  11.258   8.496  0.6400  0.0411  0.0763
  262MOL0     C34489   7.483  11.218   8.509  0.6633  0.0146 -0.2983
  262MOL0     C34490   7.397  11.344   8.477 -0.0415  0.8859 -0.7651
  262MOL0     C34491   7.244  11.305   8.510 -0.2483  0.6901  0.2199
  262MOL0     C34492   7.153  11.429   8.511  0.2804  0.5503  0.0101
  262MOL0     C34493   7.028  11.415   8.598  0.6230  1.2588 -0.5618
  262MOL0     C34494   6.948  11.538   8.579  0.1173  0.0164  0.8899
  262MOL0     C34495   6.891  11.587   8.716  0.1011 -0.2193 -0.2468
  262MOL0    Cl34496   6.800  11.736   8.676 -0.1557 -0.0771  0.2050
  262MOL0     C34497   7.846  11.486   8.627 -0.0147 -0.1419  0.9041
  262MOL0     C34498   7.988  11.500   8.628 -0.7845  0.0641  0.3844
  262MOL0     O34499   8.239  11.590   8.775 -0.4048  0.4031 -0.1264
  262MOL0     C34500   8.515  11.387   8.654 -0.1551  0.5297 -0.4526
  262MOL0     C34501   8.637  11.348   8.686 -0.3536  0.7610 -0.2928
  262MOL0     N34502   9.415  11.207   8.584 -0.1588  0.3095 -0.5207
  262MOL0     N34503   9.518  11.139   8.530 -0.5954 -0.7429 -0.3604
  262MOL0     C34504  10.777  11.034   8.182 -0.4299 -0.7366 -0.2793
  262MOL0     C34505  10.916  11.065   8.194 -0.2216  0.0220 -0.7147
  262MOL0     C34506  11.324  10.983   8.173  0.3964  0.1627 -0.5468
  262MOL0     C34507  11.366  10.946   8.046 -0.1322  1.0350 -0.8544
  262MOL0     C34508  11.497  10.987   8.013 -0.3809 -0.2397  0.2367
  262MOL0     C34509  11.581  11.060   8.104 -0.4222 -0.2860  0.3828
  262MOL0     O34510  11.709  11.098   8.067  0.6557 -0.1081 -0.6771
  262MOL0     C34511  11.802  11.005   8.002  0.4454 -0.3046  0.6439
  262MOL0     C34512  11.886  10.927   8.102  0.1551  0.4553 -0.5998
  262MOL0     C34513  11.797  10.830   8.182  0.0240 -0.7394 -0.3473
  262MOL0     C34514  11.832  10.827   8.332 -0.4814  0.2017 -0.4599
  262MOL0     C34515  11.964  10.762   8.348  0.2659 -0.4909 -0.0611
  262MOL0     C34516  12.075  10.714   8.365 -0.2534  1.0120  0.0976
  262MOL0     C34517  11.535  11.091   8.228 -0.8417 -0.7221 -0.2528
  262MOL0     C34518  11.398  11.061   8.255 -1.2311  0.8788  0.3555
  262MOL0     H34519  10.989  10.858   8.449 -1.0337 -1.5026  0.0585
  262MOL0     H34520  10.746  10.797   8.418 -1.4978  0.9424 -1.1048
  262MOL0     H34521  10.533  11.060   8.403  3.4896 -0.0729  0.8708
  262MOL0     H34522  10.548  10.880   8.446  3.7792  0.6340 -0.4379
  262MOL0     H34523  10.360  10.858   8.261  4.2148 -1.1909  0.1786
  262MOL0     H34524  10.376  11.032   8.239 -1.5503 -1.4646 -0.3835
  262MOL0     H34525  10.275  11.105   8.427 -2.4830  0.6405 -0.5675
  262MOL0     H34526  10.282  10.960   8.516  2.2327  3.5676  1.9052
  262MOL0     H34527  10.134  11.008   8.247 -1.7419  0.1348  0.3457
  262MOL0     H34528  10.087  10.875   8.356  1.6022 -0.6342  0.0065
  262MOL0     H34529   9.968  11.108   8.343 -0.4329  2.0206  1.9737
  262MOL0     H34530  10.076  11.152   8.467 -0.7208  0.7330  0.3846
  262MOL0     H34531  10.000  10.957   8.616 -0.7402 -0.5229  1.4635
  262MOL0     H34532   9.893  10.908   8.484  2.6034 -1.2246 -0.4939
  262MOL0     H34533   9.870  11.119   8.696 -2.9576 -1.5332  1.0436
  262MOL0     H34534   9.823  11.177   8.532 -0.5737  0.0080 -0.5685
  262MOL0     H34535   9.712  10.958   8.702 -1.7924  1.4178  0.3124
  262MOL0     H34536   9.687  10.943   8.533  0.4481 -1.9406  1.2730
  262MOL0     H34537   9.604  11.127   8.853  1.0966 -3.5465  0.1066
  262MOL0     H34538   9.340  11.338   8.863 -1.2222  0.1119  1.0176
  262MOL0     H34539   9.288  11.163   8.879 -2.8080  0.6218 -1.6520
  262MOL0     H34540   9.146  11.175   8.702  0.4018  0.0485  2.7126
  262MOL0     H34541   9.198  11.342   8.651 -1.1848  2.5386  0.3808
  262MOL0     H34542   9.064  11.287   8.915 -2.6663  1.8015  0.8245
  262MOL0     H34543   9.106  11.442   8.850 -1.1647  0.9424 -2.5010
  262MOL0     H34544   8.910  11.260   8.716 -0.5062  1.0894  0.5659
  262MOL0     H34545   8.972  11.421   8.675  0.8305 -1.6136 -1.5480
  262MOL0     H34546   8.678  11.565   8.942  0.4732 -2.7678  2.0252
  262MOL0     H34547   8.445  11.622   8.885 -0.3616  0.0647  0.4777
  262MOL0     H34548   8.092  11.183   8.627  1.4023  0.8280  0.2929
  262MOL0     H34549   7.851  11.140   8.647  2.0683 -0.9617  1.3231
  262MOL0     H34550   7.677  11.164   8.478  1.8533  1.0719 -2.1813
  262MOL0     H34551   7.638  11.322   8.408  1.3862 -0.9062 -0.5228
  262MOL0     H34552   7.443  11.169   8.598  0.3600  0.8868  0.0541
  262MOL0     H34553   7.462  11.140   8.435 -2.8233  0.1587  0.3613
  262MOL0     H34554   7.393  11.376   8.373 -6.6586  0.5657 -1.0423
  262MOL0     H34555   7.415  11.432   8.540 -0.8605 -1.0688  2.4855
  262MOL0     H34556   7.225  11.228   8.435  1.1561  0.6024 -0.0803
  262MOL0     H34557   7.225  11.270   8.612  0.6787  1.4009  0.6578
  262MOL0     H34558   7.120  11.443   8.408 -0.8763  0.3542  0.3370
  262MOL0     H34559   7.201  11.524   8.539  1.5256  0.0513 -0.3643
  262MOL0     H34560   7.064  11.399   8.700  0.7385 -3.0548 -1.1117
  262MOL0     H34561   6.970  11.327   8.569 -1.6623  2.8765 -1.2451
  262MOL0     H34562   7.014  11.614   8.536 -1.1584  1.1221  0.8367
  262MOL0     H34563   6.866  11.529   8.508 -1.0646  4.4656  1.3993
  262MOL0     H34564   6.963  11.618   8.791 -0.8735  0.6998  0.3383
  262MOL0     H34565   6.828  11.512   8.765  0.9584  0.0824  1.3506
  262MOL0     H34566   7.773  11.565   8.618  0.1104 -0.1623 -0.5024
  262MOL0     H34567   8.034  11.599   8.621  1.4351 -1.0397 -2.5907
  262MOL0     H34568   8.470  11.328   8.575 -2.3743  1.4269  0.0555
  262MOL0     H34569   8.690  11.267   8.635 -1.3514 -0.2445  0.2241
  262MOL0     H34570  10.725  11.093   8.107  0.7325  0.1237 -0.4231
  262MOL0     H34571  10.956  11.136   8.123 -2.7047  0.6501 -1.5878
  262MOL0     H34572  11.309  10.870   7.994  0.2896  1.7155 -2.3870
  262MOL0     H34573  11.521  10.959   7.910 -1.1762  0.2611 -0.0983
  262MOL0     H34574  11.876  11.066   7.949 -0.0466  2.6304  3.0451
  262MOL0     H34575  11.755  10.933   7.934 -1.0291 -1.1983  2.5048
  262MOL0     H34576  11.953  10.864   8.044  0.8241 -1.1550  1.7506
  262MOL0     H34577  11.942  10.998   8.165  1.0323 -0.7738  0.0379
  262MOL0     H34578  11.823  10.732   8.141  1.4304 -0.6839  0.3735
  262MOL0     H34579  11.690  10.845   8.165 -0.5613 -2.3305  1.5374
  262MOL0     H34580  11.828  10.923   8.384  0.9655  1.0066 -1.7295
  262MOL0     H34581  11.767  10.762   8.390  0.0927  0.1862  0.1884
  262MOL0     H34582  12.165  10.658   8.364 -1.5188 -1.2249  1.8882
  262MOL0     H34583  11.604  11.139   8.298  0.1192 -0.9672 -1.0112
  262MOL0     H34584  11.345  11.088   8.345  0.5793  1.8885  1.1674
  263MOL0     O34585   0.164   6.412   3.522  0.2534 -0.4988  0.0934
  263MOL0     C34586   0.081   6.485   3.475  0.4642  0.0490 -0.2344
  263MOL0     O34587  -0.044   6.455   3.435 -0.3174  0.4186 -0.1876
  263MOL0     C34588  -0.107   6.331   3.465  0.6842 -0.3765 -0.3096
  263MOL0     C34589  -0.235   6.327   3.524 -0.6459  0.0392  0.7060
  263MOL0     C34590  -0.308   6.207   3.538 -0.1963 -0.1467 -0.8049
  263MOL0     C34591  -0.246   6.084   3.506 -0.6944  0.0006 -0.4152
  263MOL0     O34592  -0.301   5.961   3.503 -0.3522  0.5029  0.1924
  263MOL0     C34593  -0.414   5.937   3.589 -0.3402  0.2016 -1.3241
  263MOL0     C34594  -0.457   5.801   3.562  0.2886  0.7196  0.4883
  263MOL0     C34595  -0.555   5.751   3.657 -0.1584 -1.1776  0.4257
  263MOL0     C34596  -0.592   5.612   3.629  0.3759  0.8706  1.3573
  263MOL0     C34597  -0.649   5.526   3.741  0.6170 -0.3563  0.2696
  263MOL0     C34598  -0.543   5.433   3.796  0.0440  0.0610 -0.4615
  263MOL0     C34599  -0.593   5.376   3.932 -0.5087 -0.3588 -0.3449
  263MOL0     C34600  -0.699   5.261   3.915 -0.1112  0.0155  0.2442
  263MOL0     N34601  -0.743   5.186   4.032  0.5142  0.9509  0.3203
  263MOL0     C34602  -0.738   5.220   4.167 -0.6332  0.0532  0.5644
  263MOL0     C34603  -0.795   5.123   4.236 -1.3169 -0.9811 -1.6033
  263MOL0     C34604  -0.802   5.129   4.391  0.0340  0.2465 -0.8266
  263MOL0     C34605  -0.664   5.116   4.452 -0.0289 -0.8377  1.0895
  263MOL0     C34606  -0.669   5.067   4.595 -0.4093 -0.3863  0.7121
  263MOL0     C34607  -0.528   5.050   4.658 -0.1021 -0.4260 -0.6693
  263MOL0     O34608  -0.464   5.183   4.667  0.2621  0.3818  0.3412
  263MOL0     C34609  -0.327   5.175   4.662  0.6731 -0.3751  0.3479
  263MOL0     C34610  -0.253   5.085   4.741  0.3198 -0.4866  0.0453
  263MOL0     C34611  -0.116   5.066   4.710 -0.0792  0.2762 -0.1698
  263MOL0     C34612  -0.047   5.145   4.610 -0.3063 -0.8787  0.3110
  263MOL0     C34613   0.106   5.125   4.587  0.0308 -0.2894  0.2394
  263MOL0     O34614   0.175   5.028   4.667  0.4086  0.4326  0.5585
  263MOL0     C34615   0.312   5.033   4.656 -0.4440 -0.4893 -0.0341
  263MOL0     C34616   0.393   4.934   4.595 -0.6827  0.1032 -0.9740
  263MOL0     C34617   0.534   4.961   4.596  0.8048 -0.1745 -0.1705
  263MOL0     C34618   0.589   5.076   4.646 -0.4537  0.1443 -0.0690
  263MOL0     O34619   0.725   5.085   4.639  0.5891  0.5002  0.7825
  263MOL0     C34620   0.772   5.216   4.599 -0.4474  0.3801 -0.4271
  263MOL0     C34621   0.896   5.193   4.514  0.5910 -0.6769  0.1929
  263MOL0     C34622   0.965   5.328   4.482 -0.5043  0.7394 -0.1989
  263MOL0     C34623   1.092   5.304   4.407 -0.1001  0.2639 -0.9479
  263MOL0     C34624   1.162   5.435   4.361 -0.0748  0.9390  0.1812
  263MOL0     C34625   1.274   5.415   4.256 -0.4362 -0.5367  0.5139
  263MOL0     C34626   1.341   5.549   4.206 -0.4707  0.0713  0.0278
  263MOL0     C34627   1.315   5.577   4.066  0.7692  0.0977 -0.2957
  263MOL0    Cl34628   1.153   5.643   4.035  0.2647 -0.2290  0.2611
  263MOL0     C34629   0.501   5.168   4.701 -0.3056  0.7944 -0.1182
  263MOL0     C34630   0.364   5.138   4.718 -0.0985 -0.2440  0.1491
  263MOL0     O34631   0.154   5.178   4.487  0.4113  0.2748  0.5548
  263MOL0     C34632  -0.126   5.233   4.532 -0.3685  0.9448 -0.9749
  263MOL0     C34633  -0.258   5.252   4.565  0.0201 -0.5232 -0.6495
  263MOL0     N34634  -0.847   5.031   4.153 -0.1795  0.2162  0.3666
  263MOL0     N34635  -0.803   5.065   4.028 -0.3980 -0.0505 -0.2896
  263MOL0     C34636  -0.118   6.092   3.443  0.0957 -0.5311 -0.7337
  263MOL0     C34637  -0.046   6.207   3.427 -0.4578  0.1242 -0.3033
  263MOL0     C34638   0.131   6.625   3.483  0.6504  0.3003 -0.3781
  263MOL0     C34639   0.267   6.664   3.493  0.2591  0.4230 -0.1219
  263MOL0     C34640   0.313   6.799   3.478  0.8086 -0.1933  0.6512
  263MOL0     C34641   0.216   6.902   3.470  0.0422  0.2262 -0.0187
  263MOL0     O34642   0.265   7.030   3.476  0.4102 -0.1457  0.1347
  263MOL0     C34643   0.173   7.143   3.507  0.6875  0.2150  0.0364
  263MOL0     C34644   0.151   7.158   3.660 -0.4532  0.2848  0.2140
  263MOL0     C34645   0.275   7.235   3.711  0.8677  0.1115 -1.5595
  263MOL0     C34646   0.250   7.281   3.849 -0.2980  0.0806  0.7691
  263MOL0     C34647   0.135   7.368   3.875 -0.9438  0.1236  0.0807
  263MOL0     C34648   0.035   7.434   3.884  0.7062  0.4829 -0.3018
  263MOL0     C34649   0.087   6.864   3.447  0.3454 -0.0288  0.4610
  263MOL0     C34650   0.046   6.729   3.445 -0.4879 -0.8371 -0.5085
  263MOL0     H34651  -0.288   6.417   3.555 -0.6389  0.6000 -0.8204
  263MOL0     H34652  -0.409   6.207   3.579  0.1412 -0.5654  0.0333
  263MOL0     H34653  -0.495   6.006   3.565 -0.2219 -0.2933 -3.2678
  263MOL0     H34654  -0.387   5.946   3.695  0.4646  3.8770 -1.7180
  263MOL0     H34655  -0.367   5.740   3.565 -1.1816 -1.6913 -0.9729
  263MOL0     H34656  -0.506   5.798   3.464 -5.4558 -2.7081  2.9298
  263MOL0     H34657  -0.638   5.822   3.668  1.9512  1.4315  0.3549
  263MOL0     H34658  -0.505   5.745   3.754 -0.0520  1.8113  0.6397
  263MOL0     H34659  -0.673   5.612   3.555 -1.1149 -0.9810  2.8475
  263MOL0     H34660  -0.507   5.559   3.586  1.0442  1.9850  1.2863
  263MOL0     H34661  -0.733   5.462   3.712  2.0004 -2.9753  1.6347
  263MOL0     H34662  -0.670   5.600   3.819  1.6334 -0.0829  0.2941
  263MOL0     H34663  -0.441   5.474   3.795 -0.0331  0.2533 -0.5254
  263MOL0     H34664  -0.545   5.342   3.735 -1.0842  0.4920 -1.0869
  263MOL0     H34665  -0.510   5.329   3.985 -0.0685  1.7396  0.9161
  263MOL0     H34666  -0.639   5.449   3.999  0.5454 -0.0955  0.1094
  263MOL0     H34667  -0.656   5.181   3.854  1.5139  1.0174  0.0138
  263MOL0     H34668  -0.787   5.305   3.868 -0.5263 -1.6972 -0.6628
  263MOL0     H34669  -0.713   5.320   4.200  2.3507  1.5997 -5.0325
  263MOL0     H34670  -0.870   5.051   4.428  1.4919 -0.8842 -0.4575
  263MOL0     H34671  -0.843   5.227   4.419 -0.7659  1.0770 -4.4074
  263MOL0     H34672  -0.617   5.215   4.445 -1.3305 -0.3316 -2.9861
  263MOL0     H34673  -0.616   5.040   4.389 -0.4981  0.3108 -0.7329
  263MOL0     H34674  -0.738   5.135   4.645  0.6652 -0.4165  2.3126
  263MOL0     H34675  -0.705   4.964   4.582  1.1812 -0.8624 -0.2511
  263MOL0     H34676  -0.465   4.985   4.597 -0.7392 -2.0149  0.3047
  263MOL0     H34677  -0.535   5.006   4.758  1.0360  2.5909  0.8751
  263MOL0     H34678  -0.289   5.016   4.815 -0.2239  0.2477  0.4851
  263MOL0     H34679  -0.062   4.985   4.759 -1.7853 -1.8762 -1.6241
  263MOL0     H34680   0.352   4.848   4.544  0.1433 -1.2206  0.5088
  263MOL0     H34681   0.606   4.888   4.559  0.6917  0.9328 -2.7960
  263MOL0     H34682   0.787   5.286   4.681  1.2079  3.6225 -3.2387
  263MOL0     H34683   0.698   5.269   4.539 -4.3214 -0.4284  3.1742
  263MOL0     H34684   0.867   5.141   4.422 -2.9767  1.2733  0.0684
  263MOL0     H34685   0.974   5.136   4.566  0.6903  1.1123  2.1025
  263MOL0     H34686   0.988   5.382   4.574 -0.7510 -0.4877  0.6054
  263MOL0     H34687   0.899   5.392   4.424  0.2062  0.6897 -1.0765
  263MOL0     H34688   1.163   5.251   4.471  0.1729  3.4539  1.6283
  263MOL0     H34689   1.068   5.242   4.320 -3.0497 -1.4313  0.9101
  263MOL0     H34690   1.201   5.488   4.448 -0.6628  0.1352  0.9471
  263MOL0     H34691   1.083   5.486   4.306  0.6991 -0.0763 -2.0071
  263MOL0     H34692   1.222   5.373   4.170  2.3197  1.2222 -2.2030
  263MOL0     H34693   1.356   5.355   4.294  1.8609  2.3050  0.4205
  263MOL0     H34694   1.308   5.639   4.260 -1.2434  1.0369 -1.9654
  263MOL0     H34695   1.449   5.536   4.219 -0.1371  0.9302 -1.5426
  263MOL0     H34696   1.332   5.484   4.011  0.7324 -0.5438  0.7505
  263MOL0     H34697   1.380   5.656   4.028  0.7226  0.8609  1.1417
  263MOL0     H34698   0.533   5.258   4.752 -1.6769 -0.0347  2.3866
  263MOL0     H34699   0.308   5.201   4.787  1.7245  2.2473 -0.5184
  263MOL0     H34700  -0.080   5.298   4.458  0.9288 -1.5310 -2.4382
  263MOL0     H34701  -0.308   5.327   4.505 -0.7898 -0.4637  0.0881
  263MOL0     H34702  -0.068   5.999   3.418 -0.6042 -1.0616 -0.2015
  263MOL0     H34703   0.056   6.207   3.391 -0.0775  1.2158  0.7346
  263MOL0     H34704   0.350   6.595   3.501 -0.9867 -1.6157 -3.0077
  263MOL0     H34705   0.418   6.822   3.495  0.3847  3.5993 -0.8602
  263MOL0     H34706   0.071   7.118   3.475  0.6922 -0.3518  0.4628
  263MOL0     H34707   0.205   7.241   3.470 -3.3759  3.2620  3.5127
  263MOL0     H34708   0.068   7.219   3.697  1.0082  0.7913  2.9745
  263MOL0     H34709   0.141   7.057   3.702 -0.7821 -0.4511 -1.5565
  263MOL0     H34710   0.287   7.328   3.655  1.3549  0.3655 -1.0373
  263MOL0     H34711   0.363   7.171   3.700  0.1980 -1.1262 -0.0042
  263MOL0     H34712   0.258   7.202   3.925  1.9221 -1.4095 -0.8807
  263MOL0     H34713   0.343   7.333   3.876  0.7237 -2.4978  2.6213
  263MOL0     H34714  -0.059   7.486   3.886  0.4100 -0.0213 -0.6956
  263MOL0     H34715  -0.000   6.928   3.436  0.3619  0.3229  2.1275
  263MOL0     H34716  -0.061   6.716   3.433 -1.1252  1.7485  1.4280
  264MOL0     O34717   2.767   0.857   7.095 -0.4544  0.9934  0.2235
  264MOL0     C34718   2.723   0.894   7.203 -0.4666 -0.7973  0.7741
  264MOL0     O34719   2.787   0.964   7.290 -0.7034 -0.4247 -0.2046
  264MOL0     C34720   2.924   0.973   7.290  0.2953 -0.4884  0.3307
  264MOL0     C34721   3.022   0.898   7.216  0.2428 -0.3980 -0.3344
  264MOL0     C34722   3.161   0.936   7.213  0.2952 -0.4622 -0.1723
  264MOL0     C34723   3.195   1.060   7.271  0.3859  0.3147 -0.1557
  264MOL0     O34724   3.326   1.096   7.277  0.0958  0.2418  0.4618
  264MOL0     C34725   3.409   1.070   7.158  1.5838  1.4516 -0.6433
  264MOL0     C34726   3.466   1.215   7.111 -0.4987  1.9461  0.5177
  264MOL0     C34727   3.554   1.209   6.987 -0.1136  0.3432 -0.5645
  264MOL0     C34728   3.476   1.252   6.863 -0.0677 -0.7202  0.4707
  264MOL0     C34729   3.355   1.164   6.830  0.1304 -0.0312 -0.0212
  264MOL0     C34730   3.316   1.169   6.685 -0.0111 -0.1025 -1.3126
  264MOL0     C34731   3.175   1.132   6.642  0.5007  0.3272  0.1165
  264MOL0     C34732   3.083   1.251   6.651  1.5234 -0.4362  0.9116
  264MOL0     N34733   2.951   1.212   6.582  0.0788 -0.3254 -0.8869
  264MOL0     C34734   2.842   1.163   6.656 -1.2074 -0.5928  0.0099
  264MOL0     C34735   2.759   1.115   6.557 -1.0347 -0.0098  0.5752
  264MOL0     C34736   2.625   1.051   6.591 -0.6161 -0.1028 -0.1771
  264MOL0     C34737   2.573   0.950   6.488  0.6472  0.0052  0.5802
  264MOL0     C34738   2.426   0.917   6.499  0.3144  0.3494 -0.4895
  264MOL0     C34739   2.348   0.855   6.384 -0.8753 -0.4549  0.5636
  264MOL0     O34740   2.218   0.809   6.427  0.5488  0.3095 -0.0200
  264MOL0     C34741   2.120   0.763   6.341 -0.0359 -0.2170 -0.3997
  264MOL0     C34742   2.005   0.709   6.397  0.5318  0.2827  0.3112
  264MOL0     C34743   1.893   0.687   6.317 -0.3681  0.6297 -0.5993
  264MOL0     C34744   1.902   0.712   6.175 -0.0499  0.3286 -0.6783
  264MOL0     C34745   1.776   0.710   6.099  0.6367  0.2698  0.2623
  264MOL0     O34746   1.666   0.660   6.161 -0.1495  0.4161 -0.5365
  264MOL0     C34747   1.543   0.644   6.099  0.4590  0.0003 -0.2715
  264MOL0     C34748   1.467   0.524   6.102  0.0445  0.2924  0.2248
  264MOL0     C34749   1.344   0.513   6.042  0.4244  0.5259 -0.1210
  264MOL0     C34750   1.290   0.624   5.967  0.1522 -0.0584 -0.0675
  264MOL0     O34751   1.177   0.611   5.891 -0.9502 -0.2044  0.0817
  264MOL0     C34752   1.097   0.731   5.896  1.3295 -0.9041  0.2512
  264MOL0     C34753   1.103   0.808   5.772 -0.1317 -0.6036 -0.4766
  264MOL0     C34754   1.032   0.741   5.657 -0.3652  0.1119  0.2366
  264MOL0     C34755   1.016   0.836   5.540 -0.9588  1.0816  0.5291
  264MOL0     C34756   0.947   0.763   5.422  0.2651  0.4857 -0.3521
  264MOL0     C34757   0.800   0.787   5.421 -0.1578 -0.5299 -0.4277
  264MOL0     C34758   0.733   0.759   5.279 -0.5440 -0.1259 -0.6570
  264MOL0     C34759   0.715   0.614   5.239 -0.3400 -0.2699  0.0823
  264MOL0    Cl34760   0.551   0.563   5.272 -0.0771  0.2410  0.0115
  264MOL0     C34761   1.370   0.749   5.974 -0.1893 -0.3151 -0.4709
  264MOL0     C34762   1.489   0.758   6.043 -0.3685  0.3234 -0.4854
  264MOL0     O34763   1.769   0.748   5.987  0.2263 -0.2395  0.6279
  264MOL0     C34764   2.024   0.738   6.117 -0.9466 -0.4677 -0.2693
  264MOL0     C34765   2.122   0.776   6.201  0.4920  0.5517  0.3599
  264MOL0     N34766   2.809   1.156   6.433 -0.0324 -0.5584  0.6541
  264MOL0     N34767   2.924   1.208   6.455 -0.3203  0.0280  0.6516
  264MOL0     C34768   3.102   1.134   7.342 -0.2529  0.2354  0.1545
  264MOL0     C34769   2.968   1.090   7.352  0.3831 -0.2248 -0.1016
  264MOL0     C34770   2.584   0.859   7.225  0.0363  0.7668  0.3447
  264MOL0     C34771   2.528   0.752   7.155  0.0350  0.1892  1.0816
  264MOL0     C34772   2.397   0.715   7.180 -0.1755 -0.4937 -0.5838
  264MOL0     C34773   2.321   0.793   7.265 -0.1010  0.0982  0.1099
  264MOL0     O34774   2.193   0.756   7.286  0.0237  0.1530  0.1034
  264MOL0     C34775   2.162   0.699   7.418  0.6929 -0.1807  0.1237
  264MOL0     C34776   2.226   0.562   7.429  0.2431 -0.7412 -0.6757
  264MOL0     C34777   2.185   0.494   7.559  0.5115  0.0260 -0.1299
  264MOL0     C34778   2.170   0.337   7.545 -0.1831 -0.6388 -0.5275
  264MOL0     C34779   2.075   0.288   7.444  0.7202 -0.3352  0.7502
  264MOL0     C34780   1.994   0.242   7.365 -0.3658  0.0515 -0.1854
  264MOL0     C34781   2.373   0.888   7.344 -0.9170 -0.3240  0.2284
  264MOL0     C34782   2.501   0.923   7.318 -0.3407  0.0333 -0.3356
  264MOL0     H34783   2.996   0.808   7.162  0.7457 -1.0596  0.4868
  264MOL0     H34784   3.216   0.871   7.146 -1.3997 -2.8797  0.6465
  264MOL0     H34785   3.370   1.016   7.071  1.7640 -0.1975  0.2626
  264MOL0     H34786   3.494   1.011   7.192  0.0793 -1.2004 -1.2164
  264MOL0     H34787   3.542   1.235   7.188  0.5625 -1.9336  0.7007
  264MOL0     H34788   3.396   1.299   7.105 -1.6997  0.8547 -3.8211
  264MOL0     H34789   3.586   1.106   6.968 -2.6511 -0.1807 -2.4944
  264MOL0     H34790   3.642   1.273   6.999 -0.3894  0.6248  0.0005
  264MOL0     H34791   3.442   1.355   6.881  3.6456  0.2731  3.1292
  264MOL0     H34792   3.553   1.240   6.787  1.6781 -2.0072  2.3259
  264MOL0     H34793   3.279   1.207   6.895  0.8521  0.8931  0.2287
  264MOL0     H34794   3.356   1.060   6.864  1.8177  0.3713  1.3358
  264MOL0     H34795   3.378   1.105   6.621  0.1388  0.5294 -1.8077
  264MOL0     H34796   3.340   1.270   6.651  2.7513  0.2885  1.3387
  264MOL0     H34797   3.173   1.083   6.543 -1.2777  1.3872 -0.4119
  264MOL0     H34798   3.134   1.056   6.709 -1.9724  1.6360  0.1706
  264MOL0     H34799   3.122   1.345   6.613 -2.7142  2.2356  2.4364
  264MOL0     H34800   3.063   1.282   6.754 -2.0608 -0.8517  0.4533
  264MOL0     H34801   2.837   1.126   6.758  1.8997 -1.5083 -0.0588
  264MOL0     H34802   2.550   1.130   6.602 -0.4465  0.3072 -1.6772
  264MOL0     H34803   2.638   0.997   6.685 -1.6280  1.5149  0.9370
  264MOL0     H34804   2.631   0.860   6.511 -1.2462 -1.6862 -0.8774
  264MOL0     H34805   2.592   0.990   6.387  1.0733 -3.1183 -0.6980
  264MOL0     H34806   2.417   0.841   6.577 -1.6390  1.9829  1.0112
  264MOL0     H34807   2.358   0.997   6.533 -2.0151 -1.3454 -0.9178
  264MOL0     H34808   2.418   0.777   6.350  2.0233  0.8989  2.9812
  264MOL0     H34809   2.354   0.931   6.305  2.4254  0.9744  1.9917
  264MOL0     H34810   2.004   0.699   6.506  1.6763  2.7966  0.6413
  264MOL0     H34811   1.796   0.664   6.360  0.8796 -1.3649  1.3003
  264MOL0     H34812   1.503   0.443   6.165 -4.6334 -0.7535  1.9635
  264MOL0     H34813   1.284   0.423   6.050  1.8848 -0.3519  1.5852
  264MOL0     H34814   1.108   0.807   5.974 -0.6280  0.5526 -0.7771
  264MOL0     H34815   0.994   0.695   5.907  1.2521 -0.8868 -0.3879
  264MOL0     H34816   1.208   0.836   5.755 -0.1355  2.7783  3.4642
  264MOL0     H34817   1.052   0.903   5.788  2.8321  1.4588 -2.1631
  264MOL0     H34818   0.932   0.707   5.684 -0.4684  0.4623  0.3025
  264MOL0     H34819   1.093   0.654   5.630 -0.9631  0.6649 -3.3189
  264MOL0     H34820   0.962   0.923   5.578 -0.3588  0.2863  3.4555
  264MOL0     H34821   1.117   0.861   5.508 -0.5492 -2.3286 -1.3025
  264MOL0     H34822   0.963   0.655   5.424 -1.0921  0.2487  2.5149
  264MOL0     H34823   0.987   0.803   5.328 -1.1823  1.5795 -0.5402
  264MOL0     H34824   0.784   0.892   5.447  2.5534 -0.2326  0.4421
  264MOL0     H34825   0.758   0.716   5.494  0.6532 -1.2573 -0.6479
  264MOL0     H34826   0.641   0.819   5.281  0.2908  1.1652  0.6041
  264MOL0     H34827   0.797   0.812   5.207 -2.0597  2.8635  0.0227
  264MOL0     H34828   0.785   0.548   5.290  1.7715 -0.8615 -3.2674
  264MOL0     H34829   0.744   0.600   5.134  0.1816 -1.6877  0.3981
  264MOL0     H34830   1.336   0.823   5.901 -1.7341 -0.4990  0.0226
  264MOL0     H34831   1.547   0.847   6.021  3.1545 -0.8450  2.9204
  264MOL0     H34832   2.040   0.742   6.010 -0.5094 -1.8338 -0.2757
  264MOL0     H34833   2.209   0.815   6.148 -0.4946  0.6772 -1.2273
  264MOL0     H34834   3.125   1.230   7.388  0.8113  0.5044 -0.9022
  264MOL0     H34835   2.904   1.150   7.416 -1.6957 -3.9323  1.6294
  264MOL0     H34836   2.573   0.694   7.075  4.2509  3.0235  1.1038
  264MOL0     H34837   2.347   0.632   7.130 -0.0313 -0.8028 -0.2249
  264MOL0     H34838   2.052   0.698   7.420  0.6513  1.5660  0.3337
  264MOL0     H34839   2.189   0.774   7.492 -2.2687  1.4584 -0.2936
  264MOL0     H34840   2.196   0.506   7.340  0.2320 -0.5553 -0.7886
  264MOL0     H34841   2.335   0.573   7.424  0.1805  2.5711  1.8166
  264MOL0     H34842   2.094   0.530   7.606  0.8471  0.3487  0.2754
  264MOL0     H34843   2.263   0.525   7.629 -0.7179  0.8430  0.9223
  264MOL0     H34844   2.267   0.289   7.530 -1.2404 -3.3637  0.7111
  264MOL0     H34845   2.131   0.303   7.641  0.6435  0.4225  0.2024
  264MOL0     H34846   1.912   0.197   7.314 -0.4478 -0.3412  0.2831
  264MOL0     H34847   2.327   0.952   7.419 -1.1476 -0.1850 -0.0314
  264MOL0     H34848   2.549   0.993   7.386  0.2888 -0.8338  0.1394
  265MOL0     O34849   8.899   3.751   2.909  0.5740 -0.0224  0.3771
  265MOL0     C34850   8.970   3.741   3.007  0.2022  0.1553  0.5066
  265MOL0     O34851   8.918   3.735   3.136  0.0091  0.1276  1.1702
  265MOL0     C34852   8.804   3.677   3.160  0.1289  0.2057  0.5284
  265MOL0     C34853   8.796   3.580   3.255  0.0449 -0.2721 -0.6402
  265MOL0     C34854   8.673   3.542   3.309 -0.1544  0.0535  0.2921
  265MOL0     C34855   8.553   3.581   3.258  0.5547 -0.0820  0.0050
  265MOL0     O34856   8.429   3.552   3.316  0.4593  0.6524 -0.4487
  265MOL0     C34857   8.417   3.622   3.445  0.0131 -0.1673  0.2985
  265MOL0     C34858   8.317   3.547   3.532  0.2864  0.0781  0.8945
  265MOL0     C34859   8.269   3.641   3.651  0.8742 -0.1804  0.1476
  265MOL0     C34860   8.190   3.549   3.735  0.2472 -0.4269 -0.7339
  265MOL0     C34861   8.129   3.624   3.852 -0.7045 -0.6121  0.0100
  265MOL0     C34862   8.073   3.520   3.948  0.0239  0.4878  0.6668
  265MOL0     C34863   7.987   3.587   4.056 -0.5486 -0.3747 -0.0128
  265MOL0     C34864   8.071   3.676   4.152 -0.2932 -0.7472 -0.6025
  265MOL0     N34865   8.194   3.616   4.212  0.7850  0.4578 -0.0189
  265MOL0     C34866   8.322   3.631   4.182 -0.9020  0.6779  0.8009
  265MOL0     C34867   8.382   3.520   4.240  0.4183  0.1895  0.3870
  265MOL0     C34868   8.532   3.492   4.248 -0.0504  0.5142  0.3689
  265MOL0     C34869   8.573   3.404   4.132 -0.9614 -0.3710  0.2773
  265MOL0     C34870   8.653   3.489   4.030 -1.3103 -0.1573  0.1945
  265MOL0     C34871   8.650   3.411   3.887  0.7943 -0.2700 -1.2097
  265MOL0     O34872   8.678   3.507   3.788 -0.3113 -0.0666 -0.7196
  265MOL0     C34873   8.809   3.529   3.751 -0.0248 -0.5175 -0.2176
  265MOL0     C34874   8.919   3.476   3.818  0.0923 -1.0486  0.4252
  265MOL0     C34875   9.047   3.511   3.785  0.2878  0.1833  1.0429
  265MOL0     C34876   9.072   3.605   3.678  0.7089  0.2986 -0.1952
  265MOL0     C34877   9.211   3.642   3.642 -0.4746  0.5123  1.1249
  265MOL0     O34878   9.308   3.575   3.697 -0.7995 -0.6890 -0.2275
  265MOL0     C34879   9.445   3.601   3.693  0.1880  0.5541 -0.8771
  265MOL0     C34880   9.528   3.503   3.754  0.3947  0.4347  1.0971
  265MOL0     C34881   9.665   3.506   3.734  0.3287  0.6343  0.1875
  265MOL0     C34882   9.723   3.617   3.672  0.3895  0.4878  0.7041
  265MOL0     O34883   9.862   3.612   3.655 -0.1596 -0.1542 -0.8707
  265MOL0     C34884   9.936   3.721   3.700 -0.1091  1.3955 -0.6116
  265MOL0     C34885  10.048   3.750   3.605 -0.1390 -0.5355 -0.4134
  265MOL0     C34886  10.146   3.845   3.669 -0.5790 -0.7309 -1.1130
  265MOL0     C34887  10.235   3.776   3.772  0.6311 -0.3405  0.4222
  265MOL0     C34888  10.381   3.812   3.778  0.0629 -0.3767  0.0719
  265MOL0     C34889  10.443   3.781   3.917  0.0213  0.2753  0.1286
  265MOL0     C34890  10.585   3.846   3.914  0.1447 -0.3635 -0.8707
  265MOL0     C34891  10.585   4.007   3.928  0.0298  0.0476  0.4766
  265MOL0    Cl34892  10.744   4.066   3.978 -0.3308 -0.1080  0.1077
  265MOL0     C34893   9.642   3.719   3.619 -0.3815 -0.1996 -0.9955
  265MOL0     C34894   9.508   3.710   3.624  0.7725 -0.3397 -0.5707
  265MOL0     O34895   9.229   3.725   3.555 -0.5052 -0.4050  0.4124
  265MOL0     C34896   8.957   3.666   3.620  0.6052  0.4950 -0.4494
  265MOL0     C34897   8.831   3.632   3.660  0.4860 -0.7987  0.3613
  265MOL0     N34898   8.287   3.437   4.294  0.9263  0.6909 -0.0923
  265MOL0     N34899   8.173   3.493   4.273 -0.4332  0.2914 -0.3422
  265MOL0     C34900   8.558   3.678   3.153 -0.0438 -0.2545 -0.7804
  265MOL0     C34901   8.683   3.729   3.109 -0.5339  0.2087 -0.1980
  265MOL0     C34902   9.121   3.724   2.999  0.4215 -0.2815  0.2937
  265MOL0     C34903   9.182   3.689   2.880 -0.1111  0.0126  0.7209
  265MOL0     C34904   9.310   3.640   2.872 -0.3433  0.3144 -0.0563
  265MOL0     C34905   9.382   3.630   2.986 -0.3381  0.2282 -0.5708
  265MOL0     O34906   9.503   3.572   2.993 -0.3292  0.2002 -0.0226
  265MOL0     C34907   9.599   3.645   2.922  0.2936  0.1021  0.6729
  265MOL0     C34908   9.622   3.795   2.971  0.6521  0.4006  0.0478
  265MOL0     C34909   9.751   3.848   2.904  0.2476 -0.5757  0.0782
  265MOL0     C34910   9.729   3.952   2.792 -0.1523 -0.0276 -0.2808
  265MOL0     C34911   9.692   3.871   2.671  0.8505 -0.1596 -0.3407
  265MOL0     C34912   9.666   3.799   2.585  0.5770 -0.0153  0.1551
  265MOL0     C34913   9.336   3.691   3.106  0.3159  0.1263  0.1961
  265MOL0     C34914   9.207   3.734   3.113  0.8006 -0.3902  0.4583
  265MOL0     H34915   8.885   3.537   3.299  0.8087  0.4145 -1.4822
  265MOL0     H34916   8.662   3.472   3.392 -2.5320  2.5111  2.2483
  265MOL0     H34917   8.390   3.727   3.430  4.9765  1.3305  0.1714
  265MOL0     H34918   8.512   3.610   3.499  0.9260  0.8910 -1.0250
  265MOL0     H34919   8.375   3.463   3.572  3.3238  1.9967  0.7980
  265MOL0     H34920   8.232   3.522   3.468 -0.7275  3.6764  0.6014
  265MOL0     H34921   8.201   3.714   3.606  2.4408  0.2089 -1.7517
  265MOL0     H34922   8.352   3.691   3.703  0.0713  2.1213 -0.6399
  265MOL0     H34923   8.112   3.500   3.677 -0.6911 -0.9989  0.9403
  265MOL0     H34924   8.259   3.469   3.765 -1.1543 -1.5926 -0.5439
  265MOL0     H34925   8.042   3.673   3.809 -1.8562 -2.7080 -0.1670
  265MOL0     H34926   8.202   3.689   3.902  2.5806 -2.8995 -1.4105
  265MOL0     H34927   8.155   3.468   3.997  1.6080  2.0055 -0.2447
  265MOL0     H34928   8.003   3.454   3.895  2.2506 -0.4028 -1.3809
  265MOL0     H34929   7.911   3.657   4.021 -1.7895  0.8720  4.5842
  265MOL0     H34930   7.943   3.501   4.107 -0.3122 -0.8981 -0.6711
  265MOL0     H34931   8.010   3.703   4.238  1.0730  2.9002 -0.6075
  265MOL0     H34932   8.108   3.763   4.097  1.1352 -0.5599  0.6111
  265MOL0     H34933   8.376   3.706   4.125 -1.7121 -0.6173 -1.8470
  265MOL0     H34934   8.549   3.449   4.348 -1.1057  1.9676  1.2056
  265MOL0     H34935   8.588   3.586   4.249  0.7469  0.0553  1.0291
  265MOL0     H34936   8.480   3.370   4.084 -0.9228 -0.5213  0.3096
  265MOL0     H34937   8.632   3.322   4.175 -2.1599 -1.8883 -0.8255
  265MOL0     H34938   8.613   3.590   4.021  0.7891  0.9562  2.3211
  265MOL0     H34939   8.759   3.501   4.054 -0.4891  0.3288 -3.1523
  265MOL0     H34940   8.547   3.378   3.868  0.9443 -1.2910 -0.3367
  265MOL0     H34941   8.704   3.316   3.887  0.2007 -0.6165 -0.7522
  265MOL0     H34942   8.910   3.409   3.903  0.7261 -1.7990 -0.0939
  265MOL0     H34943   9.129   3.457   3.832 -0.8569 -0.6927  2.1097
  265MOL0     H34944   9.479   3.429   3.815 -2.1359  0.4963 -0.7086
  265MOL0     H34945   9.725   3.425   3.774 -0.2573  1.4258  2.9428
  265MOL0     H34946   9.980   3.678   3.790  2.5934  0.2462 -2.3264
  265MOL0     H34947   9.881   3.811   3.730 -0.1530  1.2538 -0.2730
  265MOL0     H34948  10.016   3.806   3.516  3.9534  0.6090 -1.4225
  265MOL0     H34949  10.094   3.660   3.562 -2.7043 -1.9008 -0.4558
  265MOL0     H34950  10.090   3.928   3.713 -0.4776  1.2184 -4.3338
  265MOL0     H34951  10.204   3.894   3.590 -0.2400  0.9453  0.1350
  265MOL0     H34952  10.193   3.809   3.867  3.4081  0.2073  1.5566
  265MOL0     H34953  10.239   3.667   3.771  0.7168 -0.3421  0.8598
  265MOL0     H34954  10.369   3.919   3.760 -3.9954 -0.6890 -0.0366
  265MOL0     H34955  10.439   3.777   3.692 -0.5829 -2.9544  0.6128
  265MOL0     H34956  10.452   3.673   3.926  1.1149  0.3922  0.5594
  265MOL0     H34957  10.389   3.813   4.006  1.7781 -1.0274  1.7580
  265MOL0     H34958  10.635   3.805   4.002 -2.9026 -2.7677 -0.1037
  265MOL0     H34959  10.637   3.816   3.823  1.5170 -1.6248  0.2888
  265MOL0     H34960  10.519   4.042   4.008  2.5945  1.5743  2.0654
  265MOL0     H34961  10.553   4.064   3.840 -0.7279  4.4090  3.2605
  265MOL0     H34962   9.690   3.803   3.571  0.6455  0.1782  0.5932
  265MOL0     H34963   9.458   3.786   3.564  0.5479  0.6768  0.8452
  265MOL0     H34964   8.968   3.740   3.542 -1.4931 -0.0749 -1.3700
  265MOL0     H34965   8.748   3.691   3.622 -0.9514 -0.5947  3.4376
  265MOL0     H34966   8.466   3.717   3.111 -1.7467 -3.9284 -0.8601
  265MOL0     H34967   8.679   3.811   3.038  0.7216 -0.1906 -0.7490
  265MOL0     H34968   9.118   3.678   2.793  0.5750  0.0286  0.1967
  265MOL0     H34969   9.343   3.588   2.783  0.1036  0.1549  0.2005
  265MOL0     H34970   9.566   3.635   2.818  1.2035 -4.7534  0.5990
  265MOL0     H34971   9.690   3.586   2.935 -0.6140 -0.9553  2.6375
  265MOL0     H34972   9.533   3.858   2.964 -1.0299 -1.7426  0.9384
  265MOL0     H34973   9.642   3.792   3.079 -1.4775  3.6482  0.6740
  265MOL0     H34974   9.823   3.768   2.883  3.0765  1.5015  1.2857
  265MOL0     H34975   9.808   3.905   2.978  0.5321  0.2644 -0.7671
  265MOL0     H34976   9.650   4.022   2.824 -0.5775 -2.0555  3.6261
  265MOL0     H34977   9.815   4.015   2.769  1.9757 -1.9741  1.9135
  265MOL0     H34978   9.642   3.726   2.511  1.7825 -1.2490  0.9545
  265MOL0     H34979   9.407   3.706   3.186  1.8909  0.4568 -1.2106
  265MOL0     H34980   9.172   3.758   3.213  1.3411  1.7897  0.1823
  266MOL0     O34981   2.855   5.486   5.615 -0.6052 -0.3890  0.5177
  266MOL0     C34982   2.908   5.466   5.723 -0.1346 -0.1975 -0.0329
  266MOL0     O34983   2.835   5.442   5.831  0.7659  0.4006  0.1930
  266MOL0     C34984   2.697   5.440   5.839  0.1907  0.4250  0.0345
  266MOL0     C34985   2.642   5.371   5.946 -0.3843 -0.1246 -0.4132
  266MOL0     C34986   2.503   5.358   5.956  0.2001  0.6312 -0.3253
  266MOL0     C34987   2.414   5.429   5.879 -0.8363  0.6184 -0.2714
  266MOL0     O34988   2.280   5.415   5.902 -0.2953  0.1944  0.3263
  266MOL0     C34989   2.215   5.537   5.932 -1.1476  0.0441  0.2289
  266MOL0     C34990   2.159   5.523   6.076 -1.1858 -0.5118  0.4486
  266MOL0     C34991   2.024   5.462   6.101 -0.6193  0.1005 -0.2910
  266MOL0     C34992   1.975   5.489   6.242  0.0201 -0.0841 -0.1993
  266MOL0     C34993   1.866   5.390   6.304  0.4192 -0.8725 -0.6150
  266MOL0     C34994   1.746   5.347   6.219 -0.2661 -0.2405  0.3015
  266MOL0     C34995   1.657   5.248   6.295 -0.0567  0.0651 -0.1042
  266MOL0     C34996   1.690   5.103   6.263 -0.0414 -0.0033 -0.1599
  266MOL0     N34997   1.576   5.011   6.294 -0.3490  0.3874 -0.8558
  266MOL0     C34998   1.514   4.991   6.415 -0.1319  0.6810  0.0725
  266MOL0     C34999   1.402   4.921   6.389 -0.4295 -0.0563  0.1447
  266MOL0     C35000   1.288   4.885   6.488 -0.6139  0.9164  0.1162
  266MOL0     C35001   1.327   4.750   6.552 -0.3664 -0.3940 -0.2856
  266MOL0     C35002   1.291   4.628   6.466 -0.8210  0.0460 -0.1686
  266MOL0     C35003   1.146   4.586   6.464 -0.0751  0.2824  0.3236
  266MOL0     O35004   1.130   4.507   6.345 -0.3016  1.3806 -0.6536
  266MOL0     C35005   0.998   4.473   6.328  0.1528  0.4577  0.7297
  266MOL0     C35006   0.882   4.483   6.417 -0.5066 -0.6139  0.0281
  266MOL0     C35007   0.759   4.434   6.370  0.9612 -0.3551 -0.9688
  266MOL0     C35008   0.743   4.380   6.241  0.5135  0.9850 -0.0150
  266MOL0     C35009   0.607   4.333   6.189 -0.4525 -0.3056  0.0949
  266MOL0     O35010   0.506   4.305   6.277  0.5316 -0.5645 -0.1653
  266MOL0     C35011   0.388   4.237   6.244  1.0679 -0.4916  0.1111
  266MOL0     C35012   0.357   4.171   6.133  0.3958  0.4292  0.7696
  266MOL0     C35013   0.249   4.086   6.112  0.2134  0.4082 -0.8931
  266MOL0     C35014   0.158   4.060   6.217 -0.1182 -0.0210  0.8786
  266MOL0     O35015   0.045   3.977   6.208  0.0539 -0.2533 -0.1350
  266MOL0     C35016   0.016   3.935   6.075 -0.7716  0.9388 -0.6781
  266MOL0     C35017  -0.108   3.853   6.069  0.3001  0.4469  0.2617
  266MOL0     C35018  -0.236   3.944   6.074  0.0687 -0.2222  0.5158
  266MOL0     C35019  -0.362   3.883   6.024 -0.0037 -0.2909 -0.3558
  266MOL0     C35020  -0.481   3.991   6.017 -0.4698 -0.1897 -0.3369
  266MOL0     C35021  -0.508   4.041   6.160  0.1386 -0.3514 -0.5910
  266MOL0     C35022  -0.620   4.152   6.158  0.2778 -0.7655  0.8020
  266MOL0     C35023  -0.603   4.243   6.278  0.1574  0.9878  0.0222
  266MOL0    Cl35024  -0.750   4.337   6.294  0.1088  0.1212 -0.0634
  266MOL0     C35025   0.178   4.136   6.334 -0.2575  0.1711 -0.3263
  266MOL0     C35026   0.294   4.216   6.348 -0.3590 -0.2300  0.5858
  266MOL0     O35027   0.599   4.316   6.070 -0.4696  0.0170 -0.3091
  266MOL0     C35028   0.858   4.370   6.162  0.7732 -0.5376 -0.8983
  266MOL0     C35029   0.976   4.411   6.210  0.1041 -0.0389 -0.1670
  266MOL0     N35030   1.387   4.907   6.248  0.1311 -0.5648 -0.0428
  266MOL0     N35031   1.492   4.974   6.198  0.4106  0.7171  0.1625
  266MOL0     C35032   2.474   5.516   5.784  1.0293  0.3942 -0.2369
  266MOL0     C35033   2.612   5.512   5.759 -0.2031 -0.2289  0.2868
  266MOL0     C35034   3.054   5.464   5.722  0.8696 -0.7570  0.3076
  266MOL0     C35035   3.128   5.440   5.607  0.1635 -0.1777  0.8403
  266MOL0     C35036   3.268   5.469   5.592  0.9764  0.4939  0.5472
  266MOL0     C35037   3.340   5.491   5.707 -0.2341 -0.6451  0.2638
  266MOL0     O35038   3.475   5.520   5.688  0.7364  0.5616 -0.2469
  266MOL0     C35039   3.566   5.487   5.785 -0.2550 -0.6622 -0.5169
  266MOL0     C35040   3.706   5.478   5.730 -0.1767 -0.4418  0.0731
  266MOL0     C35041   3.748   5.610   5.666  0.3534  0.2132  0.5289
  266MOL0     C35042   3.752   5.724   5.773 -0.5849 -0.0342  0.9710
  266MOL0     C35043   3.858   5.714   5.877 -0.2741  1.3012 -0.0095
  266MOL0     C35044   3.953   5.709   5.956 -0.7568 -0.3673 -0.7170
  266MOL0     C35045   3.275   5.494   5.827  0.5388  0.0147  0.2717
  266MOL0     C35046   3.132   5.487   5.836 -0.5948  0.7432 -0.3267
  266MOL0     H35047   2.698   5.325   6.027 -1.8434  1.7594  1.7990
  266MOL0     H35048   2.464   5.296   6.035 -1.9449  1.4507 -0.6846
  266MOL0     H35049   2.132   5.544   5.861  0.4875  0.6716 -1.7414
  266MOL0     H35050   2.278   5.626   5.927  1.0395 -1.4274 -0.4117
  266MOL0     H35051   2.159   5.622   6.125  0.1322 -0.2412 -0.0425
  266MOL0     H35052   2.234   5.469   6.135 -0.5800  0.2151  0.3761
  266MOL0     H35053   2.013   5.355   6.080 -2.7691  0.2006  0.0625
  266MOL0     H35054   1.960   5.515   6.030  1.8589  2.0690 -1.1655
  266MOL0     H35055   2.055   5.483   6.316 -0.5046  1.0864  0.4884
  266MOL0     H35056   1.923   5.585   6.246 -1.7030 -1.0163  1.1134
  266MOL0     H35057   1.818   5.434   6.393 -0.8976 -4.0688  0.3978
  266MOL0     H35058   1.913   5.302   6.347  1.6329  0.0061 -0.0709
  266MOL0     H35059   1.770   5.298   6.125 -0.0397 -0.4850  0.4851
  266MOL0     H35060   1.682   5.434   6.201 -2.1862 -1.5204  0.5574
  266MOL0     H35061   1.669   5.268   6.402  3.5933  0.7080 -0.4839
  266MOL0     H35062   1.554   5.272   6.267  0.2365  2.3110  0.4963
  266MOL0     H35063   1.780   5.076   6.320 -0.3069  0.0663  0.2960
  266MOL0     H35064   1.726   5.087   6.161 -0.7585 -0.3371 -0.3663
  266MOL0     H35065   1.540   5.029   6.513  0.6656  0.2234  0.0418
  266MOL0     H35066   1.191   4.887   6.438  0.0692 -0.8149 -1.4185
  266MOL0     H35067   1.288   4.957   6.570 -0.5429  0.1942  0.7580
  266MOL0     H35068   1.286   4.743   6.653  1.6868 -1.1697  0.5517
  266MOL0     H35069   1.435   4.751   6.569 -0.5082 -0.6041  0.6547
  266MOL0     H35070   1.323   4.655   6.365  0.7607  1.8806  0.7562
  266MOL0     H35071   1.357   4.544   6.490  0.1820  0.8548 -0.0379
  266MOL0     H35072   1.097   4.683   6.448 -0.7259 -0.1914 -0.6079
  266MOL0     H35073   1.115   4.533   6.555 -1.1134  0.5135  0.1180
  266MOL0     H35074   0.891   4.527   6.515 -1.9643 -2.8235  1.2394
  266MOL0     H35075   0.672   4.428   6.435  0.8379 -2.4474 -1.2451
  266MOL0     H35076   0.426   4.177   6.049  4.3279  3.4453  3.8194
  266MOL0     H35077   0.246   4.019   6.028 -0.2536 -3.0354  1.6390
  266MOL0     H35078   0.101   3.878   6.037 -1.8536 -0.3008 -1.3298
  266MOL0     H35079  -0.004   4.022   6.013 -0.6979  2.7184  1.6916
  266MOL0     H35080  -0.110   3.786   6.155 -2.5708  0.9299  0.6663
  266MOL0     H35081  -0.122   3.791   5.979 -1.8939  1.4155 -0.1218
  266MOL0     H35082  -0.218   4.028   6.007 -0.9803 -0.3251  0.1011
  266MOL0     H35083  -0.248   3.966   6.181 -4.2134  0.6367  0.0314
  266MOL0     H35084  -0.347   3.844   5.923  2.5056 -2.3163  0.6885
  266MOL0     H35085  -0.394   3.804   6.091 -1.6705 -0.5609 -1.4091
  266MOL0     H35086  -0.565   3.929   5.986 -0.9146  0.4727 -0.4698
  266MOL0     H35087  -0.467   4.074   5.948 -3.6417 -0.5553 -1.6005
  266MOL0     H35088  -0.413   4.083   6.195 -0.4127  2.4323 -2.1643
  266MOL0     H35089  -0.551   3.965   6.225 -1.1383  2.0174  1.4987
  266MOL0     H35090  -0.606   4.222   6.075 -1.0759 -1.0172  0.3412
  266MOL0     H35091  -0.724   4.121   6.145 -1.2110  4.5005 -4.7831
  266MOL0     H35092  -0.525   4.317   6.257  0.4079  0.0446 -2.9509
  266MOL0     H35093  -0.581   4.179   6.364  0.1022 -2.0851 -2.0757
  266MOL0     H35094   0.097   4.128   6.407  1.4072  0.0238  1.5844
  266MOL0     H35095   0.311   4.285   6.430  1.5844  0.2458 -0.1625
  266MOL0     H35096   0.864   4.317   6.068  0.6618  1.3190 -1.9836
  266MOL0     H35097   1.066   4.390   6.154  0.3000  1.4340 -0.4455
  266MOL0     H35098   2.414   5.586   5.727 -0.0465  0.8991  1.4449
  266MOL0     H35099   2.649   5.585   5.688  3.8410  0.3662  2.6681
  266MOL0     H35100   3.078   5.418   5.513  1.3175 -1.3383  0.4713
  266MOL0     H35101   3.310   5.463   5.492 -0.8322  0.5110 -0.2447
  266MOL0     H35102   3.540   5.396   5.840 -0.6992 -0.6016 -0.6215
  266MOL0     H35103   3.555   5.553   5.871 -0.0569 -2.4845  0.9863
  266MOL0     H35104   3.770   5.466   5.817  0.0173  1.3039  0.1904
  266MOL0     H35105   3.716   5.394   5.660 -1.9147  0.5960 -1.5210
  266MOL0     H35106   3.687   5.639   5.579  2.0503 -5.5659 -3.1353
  266MOL0     H35107   3.846   5.594   5.622 -0.0117  0.2683 -0.3285
  266MOL0     H35108   3.790   5.809   5.716 -1.5474 -0.9886 -1.2277
  266MOL0     H35109   3.649   5.738   5.806 -0.9895  0.9460 -0.5805
  266MOL0     H35110   4.038   5.713   6.022  2.3838  1.3382 -4.4899
  266MOL0     H35111   3.334   5.495   5.919 -1.0900 -4.1489  1.5869
  266MOL0     H35112   3.071   5.494   5.925 -2.0995  3.4073 -1.4426
  267MOL0     O35113   0.414   2.807   7.337  0.5753  0.6360 -0.5550
  267MOL0     C35114   0.519   2.859   7.372  0.7148 -0.7044 -0.3906
  267MOL0     O35115   0.580   2.970   7.310  0.4045 -0.0191  0.4089
  267MOL0     C35116   0.547   3.004   7.183 -0.1689 -0.1365  0.2058
  267MOL0     C35117   0.510   2.917   7.078  0.2264  0.4336  1.0059
  267MOL0     C35118   0.490   2.958   6.942  0.0438 -0.1186  0.1397
  267MOL0     C35119   0.507   3.091   6.911 -0.6451  0.5101  0.4786
  267MOL0     O35120   0.485   3.150   6.792  0.6389 -0.6861 -0.2909
  267MOL0     C35121   0.425   3.061   6.690  0.2852 -0.0829 -0.5594
  267MOL0     C35122   0.369   3.158   6.587 -0.6502 -0.2640 -0.1849
  267MOL0     C35123   0.274   3.093   6.489 -0.1427  0.7607  0.0928
  267MOL0     C35124   0.133   3.065   6.559 -0.0983  0.0418  0.1625
  267MOL0     C35125   0.024   3.013   6.469  0.1995  0.4490 -0.5615
  267MOL0     C35126   0.061   2.873   6.413 -0.8976  0.5531 -0.4909
  267MOL0     C35127  -0.053   2.799   6.358 -0.0105  0.3548 -0.5934
  267MOL0     C35128  -0.116   2.878   6.239  0.1337 -0.3697 -0.5511
  267MOL0     N35129  -0.234   2.826   6.175  0.0829 -0.0528 -0.3663
  267MOL0     C35130  -0.330   2.739   6.226 -0.0074 -0.6201 -0.0597
  267MOL0     C35131  -0.394   2.694   6.117  0.1514  1.0771  0.2741
  267MOL0     C35132  -0.482   2.572   6.120  0.7957 -0.5589  0.3009
  267MOL0     C35133  -0.616   2.632   6.082  1.0106  0.1301  0.2139
  267MOL0     C35134  -0.726   2.527   6.126  0.7039  1.2005  0.1522
  267MOL0     C35135  -0.857   2.546   6.063 -0.6370  0.8858 -0.2945
  267MOL0     O35136  -0.941   2.429   6.093  1.3539 -0.0022 -0.6744
  267MOL0     C35137  -1.070   2.422   6.055  0.8027 -0.0522 -0.7757
  267MOL0     C35138  -1.142   2.504   5.966  0.3130 -0.3284 -0.8682
  267MOL0     C35139  -1.277   2.490   5.936  0.2709 -0.1422  0.7551
  267MOL0     C35140  -1.354   2.393   6.006 -0.6310  0.0608 -0.5371
  267MOL0     C35141  -1.508   2.394   5.996 -0.0467 -0.4690 -0.2726
  267MOL0     O35142  -1.581   2.496   5.938 -0.1508 -0.0038 -0.5947
  267MOL0     C35143  -1.718   2.485   5.943  0.7235 -0.7374  0.1907
  267MOL0     C35144  -1.781   2.431   5.827  0.1650  0.2922  0.6281
  267MOL0     C35145  -1.915   2.410   5.818  0.0331  0.6869 -0.1434
  267MOL0     C35146  -1.997   2.438   5.923 -0.1604 -0.2009  0.1407
  267MOL0     O35147  -2.131   2.431   5.919  0.3842  0.4254 -0.1686
  267MOL0     C35148  -2.189   2.336   5.822 -0.5524 -0.9130  0.2578
  267MOL0     C35149  -2.341   2.331   5.850  0.3239 -1.1542  0.1317
  267MOL0     C35150  -2.362   2.234   5.959 -0.1869  0.0470  0.0015
  267MOL0     C35151  -2.492   2.245   6.036  0.5364 -0.3102  0.1651
  267MOL0     C35152  -2.625   2.226   5.957 -0.2130 -0.3723 -0.5368
  267MOL0     C35153  -2.746   2.247   6.050  0.0473 -0.2898 -0.6336
  267MOL0     C35154  -2.867   2.238   5.963 -0.3683 -0.2749 -0.4476
  267MOL0     C35155  -3.003   2.246   6.034 -0.6932 -0.6032 -0.3888
  267MOL0    Cl35156  -3.119   2.256   5.891  0.2866  0.4879 -0.3792
  267MOL0     C35157  -1.934   2.499   6.034 -0.0267  0.0190 -0.1849
  267MOL0     C35158  -1.798   2.527   6.045  0.0480  0.7361  0.0261
  267MOL0     O35159  -1.558   2.288   6.036  0.3968 -0.2837 -0.1957
  267MOL0     C35160  -1.283   2.313   6.094 -0.2448 -0.1566  0.0615
  267MOL0     C35161  -1.135   2.323   6.119  0.0247  0.0810  0.3834
  267MOL0     N35162  -0.354   2.760   6.006 -0.4367  1.0566  0.9753
  267MOL0     N35163  -0.257   2.837   6.040  0.2294  0.0209 -0.2934
  267MOL0     C35164   0.539   3.176   7.014  1.2172  1.5108  0.5719
  267MOL0     C35165   0.545   3.135   7.146 -1.2817  0.6170  0.6762
  267MOL0     C35166   0.581   2.808   7.495 -0.5418 -1.2922  1.0089
  267MOL0     C35167   0.546   2.677   7.540 -0.3828  0.1103 -0.4311
  267MOL0     C35168   0.611   2.614   7.653  0.1859 -0.5076 -0.5182
  267MOL0     C35169   0.707   2.690   7.717 -0.4353  0.0051  0.3495
  267MOL0     O35170   0.776   2.619   7.809  0.6754 -0.0015 -1.1036
  267MOL0     C35171   0.899   2.666   7.855  0.5143 -0.0788 -0.3332
  267MOL0     C35172   0.989   2.553   7.910 -0.6724 -0.3366  0.2842
  267MOL0     C35173   1.134   2.585   7.889 -0.6722  0.1317 -0.2226
  267MOL0     C35174   1.242   2.484   7.915  0.2147 -0.1798  0.4042
  267MOL0     C35175   1.240   2.456   8.057  0.1400 -0.3609  0.4831
  267MOL0     C35176   1.243   2.436   8.180  1.0259  0.9039  0.6186
  267MOL0     C35177   0.743   2.813   7.669 -0.0460  0.0795 -0.6023
  267MOL0     C35178   0.694   2.871   7.552  0.4462  0.1771 -0.5891
  267MOL0     H35179   0.496   2.813   7.108  2.1370  0.7654  3.4299
  267MOL0     H35180   0.471   2.887   6.862 -0.5615  0.3518 -0.1438
  267MOL0     H35181   0.345   3.000   6.733  1.4354 -0.8876  0.5045
  267MOL0     H35182   0.492   2.986   6.647 -0.6984 -1.4468  0.1897
  267MOL0     H35183   0.456   3.199   6.535 -0.9686  0.5426 -0.0910
  267MOL0     H35184   0.322   3.247   6.629 -1.3539 -0.5085 -0.4551
  267MOL0     H35185   0.317   2.997   6.457 -1.8038  0.4599 -1.3996
  267MOL0     H35186   0.260   3.166   6.408  3.3794  1.0355 -0.4346
  267MOL0     H35187   0.157   2.995   6.639  2.4635  2.1623  1.3860
  267MOL0     H35188   0.096   3.160   6.600 -1.1855 -1.1806  2.1307
  267MOL0     H35189   0.031   3.078   6.382  2.2245  0.4621 -0.4374
  267MOL0     H35190  -0.075   3.005   6.516  1.1985 -0.8965  1.4786
  267MOL0     H35191   0.093   2.822   6.505  0.2349 -0.3476 -1.3601
  267MOL0     H35192   0.142   2.884   6.341 -2.7784  1.9309 -2.5099
  267MOL0     H35193  -0.021   2.697   6.332  1.8548  0.8144 -0.2741
  267MOL0     H35194  -0.129   2.779   6.433  1.6054 -0.6583  0.8633
  267MOL0     H35195  -0.037   2.905   6.168  1.5551  1.5856  1.5937
  267MOL0     H35196  -0.149   2.976   6.275 -2.9184 -1.8069  0.9270
  267MOL0     H35197  -0.328   2.690   6.323  1.3580 -1.7316 -0.6088
  267MOL0     H35198  -0.491   2.516   6.214  1.0854 -0.4027  0.4259
  267MOL0     H35199  -0.451   2.494   6.051 -1.5062 -0.2815 -1.1488
  267MOL0     H35200  -0.623   2.640   5.973 -1.0267  1.0866  0.3641
  267MOL0     H35201  -0.636   2.730   6.125 -2.5131 -0.5685  0.5393
  267MOL0     H35202  -0.685   2.435   6.082 -1.3854 -1.1155  2.6704
  267MOL0     H35203  -0.740   2.513   6.234 -0.5373 -0.1637 -0.1537
  267MOL0     H35204  -0.856   2.579   5.959 -0.8052  2.1882  0.1074
  267MOL0     H35205  -0.898   2.635   6.112 -1.9279 -0.7824  1.8772
  267MOL0     H35206  -1.093   2.593   5.928 -3.8403  3.9121  2.5146
  267MOL0     H35207  -1.337   2.549   5.868 -0.0826 -0.7129  0.5628
  267MOL0     H35208  -1.719   2.404   5.743 -2.7378 -0.4503 -1.4183
  267MOL0     H35209  -1.953   2.365   5.727  0.4478  1.5200 -0.7363
  267MOL0     H35210  -2.140   2.238   5.831  1.0091 -0.1787  0.1322
  267MOL0     H35211  -2.186   2.385   5.724  1.2671 -2.3093 -0.4606
  267MOL0     H35212  -2.393   2.315   5.755  2.1939  1.1105 -1.3876
  267MOL0     H35213  -2.371   2.424   5.901  0.2569 -0.5252 -1.0140
  267MOL0     H35214  -2.275   2.238   6.026  0.6079  1.2984 -1.0494
  267MOL0     H35215  -2.372   2.136   5.912 -2.4748  0.4079 -0.3766
  267MOL0     H35216  -2.481   2.165   6.111 -1.2612 -2.7260 -1.9559
  267MOL0     H35217  -2.500   2.345   6.079  3.8770  2.3342 -4.4367
  267MOL0     H35218  -2.629   2.125   5.915  1.2839 -0.3841 -0.7077
  267MOL0     H35219  -2.623   2.277   5.860  0.4032  1.2665  0.2991
  267MOL0     H35220  -2.742   2.341   6.106 -3.8261 -0.5433  0.3093
  267MOL0     H35221  -2.751   2.164   6.121  0.7925  0.4022  0.2700
  267MOL0     H35222  -2.856   2.322   5.894  1.1210  0.5104  0.6744
  267MOL0     H35223  -2.855   2.155   5.893  0.9343 -0.1587 -0.3872
  267MOL0     H35224  -2.997   2.342   6.086  2.2442 -0.7802 -0.2102
  267MOL0     H35225  -3.021   2.156   6.094 -0.7947  0.2980  0.9852
  267MOL0     H35226  -1.999   2.516   6.120  1.8697 -0.5542  1.4158
  267MOL0     H35227  -1.764   2.579   6.134 -0.7148  1.0258  0.1549
  267MOL0     H35228  -1.331   2.231   6.147 -4.6838  0.8784 -1.8594
  267MOL0     H35229  -1.090   2.263   6.197 -2.9295 -0.5115  1.7785
  267MOL0     H35230   0.528   3.279   6.981  1.7419  1.1524 -0.7751
  267MOL0     H35231   0.562   3.204   7.228  0.9851 -1.2020  1.8636
  267MOL0     H35232   0.467   2.629   7.485 -0.2392 -0.2754 -0.3016
  267MOL0     H35233   0.600   2.513   7.691  1.5823  0.3542  2.4710
  267MOL0     H35234   0.883   2.739   7.935 -0.3422  1.2548 -1.6846
  267MOL0     H35235   0.967   2.718   7.787  2.0391 -0.1862  1.0347
  267MOL0     H35236   0.965   2.539   8.016 -0.8197 -0.0471  0.2921
  267MOL0     H35237   0.968   2.466   7.847 -1.2596  0.1958 -0.2709
  267MOL0     H35238   1.145   2.679   7.945 -0.7159 -1.9997  3.7164
  267MOL0     H35239   1.145   2.615   7.784  1.2553  0.3293 -0.0040
  267MOL0     H35240   1.207   2.398   7.857  3.2105 -0.5050 -1.1138
  267MOL0     H35241   1.338   2.506   7.868 -1.7961  1.0605 -3.6325
  267MOL0     H35242   1.245   2.411   8.284 -2.5998  0.0239  0.6143
  267MOL0     H35243   0.816   2.866   7.729  0.8444  2.3243 -3.4672
  267MOL0     H35244   0.741   2.961   7.514 -1.4365  0.4661 -2.4344
  268MOL0     O35245   8.065  10.381  10.937 -0.8017  0.4482  1.0649
  268MOL0     C35246   7.951  10.426  10.955  0.1857  0.1179 -0.3181
  268MOL0     O35247   7.831  10.375  10.901  0.1151 -0.1756  0.2863
  268MOL0     C35248   7.825  10.266  10.828  0.6038  0.6556 -0.0647
  268MOL0     C35249   7.738  10.260  10.722  0.1545 -0.3341 -0.8119
  268MOL0     C35250   7.726  10.148  10.645  0.5695 -0.2488 -0.0392
  268MOL0     C35251   7.809  10.039  10.666  1.1560 -0.2782  0.0970
  268MOL0     O35252   7.776   9.926  10.589 -0.2778 -0.6027  0.4328
  268MOL0     C35253   7.870   9.824  10.578 -0.9834 -0.9998 -0.7009
  268MOL0     C35254   7.821   9.720  10.486 -0.6615 -0.0446  0.4500
  268MOL0     C35255   7.918   9.607  10.439 -0.2290  1.2341  0.1854
  268MOL0     C35256   7.978   9.529  10.564  0.3241  0.1490  1.3129
  268MOL0     C35257   8.068   9.408  10.514  0.3275 -0.3038  0.2075
  268MOL0     C35258   8.204   9.449  10.451  0.3165  0.5719  0.6125
  268MOL0     C35259   8.308   9.464  10.560  0.0493 -0.2043  0.1890
  268MOL0     C35260   8.409   9.575  10.547  0.2589  0.4779 -0.4832
  268MOL0     N35261   8.350   9.708  10.544  0.7167  0.8485 -0.3604
  268MOL0     C35262   8.395   9.820  10.481 -0.7936 -0.6361 -0.3619
  268MOL0     C35263   8.316   9.923  10.518 -0.3537 -1.1663  1.1880
  268MOL0     C35264   8.318  10.065  10.488 -0.4534  0.3491  0.3568
  268MOL0     C35265   8.238  10.158  10.589  0.0174  0.1919  0.5626
  268MOL0     C35266   8.237  10.299  10.548  0.2755  0.1528  0.8438
  268MOL0     C35267   8.132  10.373  10.625  0.4237 -0.8995  0.2926
  268MOL0     O35268   8.104  10.493  10.557 -0.6688 -0.1603  0.2258
  268MOL0     C35269   8.043  10.586  10.634  0.3920 -0.7578  0.4462
  268MOL0     C35270   8.112  10.687  10.696 -0.1511 -0.3706  0.0944
  268MOL0     C35271   8.048  10.787  10.774  0.4342  0.4127  1.8359
  268MOL0     C35272   7.904  10.793  10.773  0.1191  0.1071 -0.0650
  268MOL0     C35273   7.828  10.900  10.840 -0.0718 -0.0453  0.6897
  268MOL0     O35274   7.694  10.880  10.858  0.3999  1.0421 -0.6264
  268MOL0     C35275   7.606  10.962  10.924 -0.1441 -1.5118  0.0865
  268MOL0     C35276   7.631  11.004  11.057 -0.3583  0.4466 -0.4798
  268MOL0     C35277   7.525  11.073  11.119  0.9986 -0.5190  0.3124
  268MOL0     C35278   7.401  11.105  11.059 -0.1363 -0.5546  0.8006
  268MOL0     O35279   7.299  11.162  11.125  0.1877 -0.7407  0.6404
  268MOL0     C35280   7.329  11.273  11.211  0.4909 -0.4052  1.1977
  268MOL0     C35281   7.222  11.367  11.198  0.3916  0.4918 -0.3653
  268MOL0     C35282   7.088  11.308  11.220  0.8134  0.2194 -0.6117
  268MOL0     C35283   6.984  11.417  11.262 -0.6267 -1.1534 -0.5487
  268MOL0     C35284   6.849  11.365  11.306  0.1533 -0.0079 -0.2391
  268MOL0     C35285   6.857  11.283  11.433 -0.3705 -0.0622 -0.6140
  268MOL0     C35286   6.865  11.368  11.559 -0.4623  0.0039 -0.0635
  268MOL0     C35287   6.746  11.464  11.584  1.2981  0.4068  0.8320
  268MOL0    Cl35288   6.801  11.628  11.590 -0.0541  0.1763  0.3468
  268MOL0     C35289   7.377  11.066  10.926 -0.5314 -0.2865  0.6109
  268MOL0     C35290   7.486  11.002  10.855  0.3014 -0.1129  0.1728
  268MOL0     O35291   7.890  11.002  10.881  0.2630  0.2834 -0.0718
  268MOL0     C35292   7.829  10.690  10.705  0.1814  0.5706  0.1295
  268MOL0     C35293   7.902  10.591  10.641 -0.1557 -0.7312  0.7426
  268MOL0     N35294   8.227   9.868  10.609  0.5935  0.3744  0.0412
  268MOL0     N35295   8.258   9.741  10.628  0.3563  0.9180 -0.2123
  268MOL0     C35296   7.899  10.048  10.770  0.7298  0.3551 -0.7085
  268MOL0     C35297   7.907  10.161  10.848 -0.2914  0.6326  0.0051
  268MOL0     C35298   7.909  10.530  11.058  0.2193 -0.8099  0.1589
  268MOL0     C35299   7.780  10.579  11.069  0.0167  1.1906 -0.3681
  268MOL0     C35300   7.762  10.670  11.171  0.1458  0.0427 -0.7499
  268MOL0     C35301   7.850  10.730  11.259  0.0820 -0.4049 -0.2794
  268MOL0     O35302   7.825  10.829  11.345  0.2375 -0.2108 -0.3615
  268MOL0     C35303   7.693  10.857  11.398 -0.2446 -0.1492  0.3407
  268MOL0     C35304   7.644  10.737  11.475  0.0193 -0.4406  0.4841
  268MOL0     C35305   7.508  10.773  11.559  0.5487  0.3686  0.3784
  268MOL0     C35306   7.433  10.649  11.613  0.8450  0.5399 -0.3453
  268MOL0     C35307   7.302  10.678  11.681 -0.5721 -0.4671  0.5450
  268MOL0     C35308   7.195  10.706  11.726  0.6715 -0.4013  0.0308
  268MOL0     C35309   7.978  10.683  11.242  0.5605 -0.0569 -0.9401
  268MOL0     C35310   8.007  10.597  11.133 -0.0860 -0.3788  0.9415
  268MOL0     H35311   7.679  10.349  10.702  0.2377  0.9562  3.6375
  268MOL0     H35312   7.652  10.135  10.566  1.2879 -1.2652 -0.5818
  268MOL0     H35313   7.870   9.782  10.679  0.5086 -0.8753 -0.6295
  268MOL0     H35314   7.967   9.870  10.558 -2.2772  3.2899  1.6384
  268MOL0     H35315   7.796   9.775  10.395 -0.2640 -0.2097  0.2394
  268MOL0     H35316   7.734   9.683  10.541  0.0708 -2.0696  0.3275
  268MOL0     H35317   7.998   9.636  10.370  2.0186 -1.5799  1.4092
  268MOL0     H35318   7.851   9.536  10.388 -0.8042  1.4653  0.6103
  268MOL0     H35319   8.031   9.599  10.629 -0.0040  1.0874  0.6058
  268MOL0     H35320   7.902   9.482  10.627  1.5911 -0.4197  2.4605
  268MOL0     H35321   8.019   9.353  10.432 -0.1908  0.7679 -0.2121
  268MOL0     H35322   8.094   9.339  10.595  2.5341 -1.5008 -1.4067
  268MOL0     H35323   8.197   9.535  10.383  2.4648 -0.2717 -0.7894
  268MOL0     H35324   8.228   9.359  10.394 -1.7953 -0.3042  0.9995
  268MOL0     H35325   8.259   9.473  10.658 -1.9063 -1.0762 -0.6617
  268MOL0     H35326   8.365   9.371  10.571  0.6916  0.1723  0.0779
  268MOL0     H35327   8.469   9.570  10.456 -1.3203 -3.3092 -1.5252
  268MOL0     H35328   8.474   9.571  10.635 -0.5948  0.4990  0.1668
  268MOL0     H35329   8.488   9.822  10.425 -0.0695 -1.1490  0.7736
  268MOL0     H35330   8.293  10.086  10.383  1.4111  2.0199  0.1871
  268MOL0     H35331   8.423  10.094  10.491  0.8265 -3.1196 -3.0724
  268MOL0     H35332   8.282  10.153  10.689 -2.9836 -0.2300  1.9914
  268MOL0     H35333   8.137  10.116  10.591 -0.0635  0.3395 -0.3084
  268MOL0     H35334   8.328  10.356  10.570  0.6392  0.4903 -1.3023
  268MOL0     H35335   8.240  10.298  10.438  0.7900 -0.5021  0.8578
  268MOL0     H35336   8.177  10.385  10.724 -1.8298 -0.4417  1.3122
  268MOL0     H35337   8.034  10.325  10.630 -2.1038  3.8725  2.7021
  268MOL0     H35338   8.220  10.692  10.688  0.0548 -1.8650  1.5000
  268MOL0     H35339   8.115  10.855  10.826  3.2052  0.7233 -1.6970
  268MOL0     H35340   7.728  11.001  11.105 -0.3192 -0.1555 -0.5904
  268MOL0     H35341   7.536  11.102  11.223  0.9923  1.0991 -0.1073
  268MOL0     H35342   7.426  11.321  11.199  0.5362 -0.4596  1.3532
  268MOL0     H35343   7.328  11.243  11.316  2.0922 -0.8269  1.1209
  268MOL0     H35344   7.232  11.410  11.098  3.0307 -2.2275 -1.4284
  268MOL0     H35345   7.246  11.447  11.269 -0.3949 -1.8333  2.7498
  268MOL0     H35346   7.088  11.219  11.284 -4.4829  0.3762  0.0501
  268MOL0     H35347   7.058  11.259  11.127  3.2949  0.9976 -1.9070
  268MOL0     H35348   7.021  11.477  11.345 -0.4510 -2.2174  0.1530
  268MOL0     H35349   6.963  11.485  11.179  5.4254  3.2638  0.8152
  268MOL0     H35350   6.805  11.308  11.224 -3.5332  3.0769 -0.6428
  268MOL0     H35351   6.777  11.447  11.309 -2.1931 -1.9522  1.8407
  268MOL0     H35352   6.929  11.201  11.432 -1.8880 -1.4403 -1.8795
  268MOL0     H35353   6.766  11.224  11.446 -0.1503 -0.1816  0.5217
  268MOL0     H35354   6.873  11.299  11.644  2.1363 -0.8092 -0.8875
  268MOL0     H35355   6.961  11.419  11.567  0.4319 -1.0611 -2.9133
  268MOL0     H35356   6.695  11.434  11.676 -1.4141 -1.7883 -1.2586
  268MOL0     H35357   6.662  11.453  11.516 -1.4803 -0.7006  4.1313
  268MOL0     H35358   7.278  11.071  10.882  0.4218 -2.3761 -2.0525
  268MOL0     H35359   7.463  10.972  10.753 -1.4986  1.8985 -0.0799
  268MOL0     H35360   7.721  10.685  10.715  0.2419 -1.7279  0.1896
  268MOL0     H35361   7.854  10.509  10.588 -1.0730  0.8082 -0.9202
  268MOL0     H35362   7.973   9.971  10.790  0.9457  0.2619 -1.7955
  268MOL0     H35363   7.989  10.171  10.919  1.3639  0.7988 -1.8252
  268MOL0     H35364   7.696  10.542  11.011 -0.4637  0.9902  0.4548
  268MOL0     H35365   7.658  10.699  11.178  0.6544  2.3033 -1.4772
  268MOL0     H35366   7.625  10.898  11.322  0.8883 -2.3840 -2.0394
  268MOL0     H35367   7.702  10.942  11.465 -1.4115  0.9264 -0.8020
  268MOL0     H35368   7.629  10.652  11.408 -0.8632  0.9929 -1.2181
  268MOL0     H35369   7.716  10.702  11.550  0.1078 -1.2097  0.0540
  268MOL0     H35370   7.441  10.829  11.494  2.2264  0.3532 -1.4778
  268MOL0     H35371   7.552  10.832  11.640  2.0392  1.1965 -0.9813
  268MOL0     H35372   7.419  10.567  11.541  0.3655 -1.3602  1.7747
  268MOL0     H35373   7.507  10.600  11.676 -1.4593 -1.1606  1.2357
  268MOL0     H35374   7.095  10.721  11.762  0.1371  0.9531 -1.8630
  268MOL0     H35375   8.044  10.723  11.318 -2.6171  1.9823  0.9796
  268MOL0     H35376   8.112  10.574  11.119 -0.0621  0.8017 -1.1219
  269MOL0     O35377   6.247   3.773  10.995  0.8943  0.2981  0.0986
  269MOL0     C35378   6.230   3.787  10.877 -0.4334 -0.2632  0.3010
  269MOL0     O35379   6.126   3.844  10.817  0.0851 -0.1482 -0.5209
  269MOL0     C35380   6.056   3.930  10.898 -0.1991  0.6015  0.4372
  269MOL0     C35381   6.093   4.061  10.905 -0.6380 -0.6436 -1.6958
  269MOL0     C35382   6.015   4.149  10.993 -0.0820  0.2097 -0.7667
  269MOL0     C35383   5.906   4.114  11.064  0.8738  0.1584 -0.5587
  269MOL0     O35384   5.823   4.198  11.129 -0.3870  0.0266 -0.3177
  269MOL0     C35385   5.846   4.193  11.277 -0.7809 -0.4482 -0.3540
  269MOL0     C35386   5.853   4.332  11.351  0.8258 -0.5980  0.8531
  269MOL0     C35387   5.731   4.428  11.365  0.2566 -0.2356 -0.3104
  269MOL0     C35388   5.762   4.544  11.460  0.7427  0.2338  0.5474
  269MOL0     C35389   5.643   4.632  11.484  0.3510  0.5313  0.3378
  269MOL0     C35390   5.560   4.568  11.596  0.2358 -0.0331 -0.2389
  269MOL0     C35391   5.417   4.613  11.589 -0.0726  0.4731 -0.3527
  269MOL0     C35392   5.336   4.539  11.700  0.5671  0.4013 -0.4226
  269MOL0     N35393   5.192   4.526  11.681  0.2885  0.4263 -0.6172
  269MOL0     C35394   5.125   4.644  11.651 -0.5346 -0.0043 -0.1614
  269MOL0     C35395   4.997   4.606  11.668  0.7288 -0.4462 -0.0604
  269MOL0     C35396   4.879   4.695  11.637 -0.5604  0.6797  0.3896
  269MOL0     C35397   4.803   4.740  11.757 -0.1123  0.2105  0.4407
  269MOL0     C35398   4.680   4.836  11.727  0.1269  0.3047 -0.2368
  269MOL0     C35399   4.563   4.749  11.702  0.1642  0.3734 -0.2501
  269MOL0     O35400   4.534   4.686  11.823 -0.3157 -0.3840 -0.5324
  269MOL0     C35401   4.435   4.594  11.815 -0.6353 -0.1165 -0.6227
  269MOL0     C35402   4.319   4.608  11.731 -0.0882  0.0457  0.4227
  269MOL0     C35403   4.209   4.534  11.751 -0.9427  0.2376  0.6105
  269MOL0     C35404   4.212   4.427  11.844 -0.8062 -0.1895 -0.2245
  269MOL0     C35405   4.096   4.338  11.857  1.8879 -0.5026  0.2638
  269MOL0     O35406   3.975   4.391  11.831  0.5386  0.3573  0.0429
  269MOL0     C35407   3.853   4.328  11.840  0.2892 -0.2674 -1.1220
  269MOL0     C35408   3.816   4.202  11.791  0.1478  0.2660  0.2885
  269MOL0     C35409   3.688   4.141  11.808  0.3734  0.2888  0.2372
  269MOL0     C35410   3.578   4.213  11.864 -0.1935 -0.2067  0.3688
  269MOL0     O35411   3.459   4.153  11.870 -0.3214 -0.6655 -1.0874
  269MOL0     C35412   3.426   4.092  11.996 -0.5910 -0.0739 -0.5642
  269MOL0     C35413   3.273   4.116  12.020 -0.6399 -0.1875  0.3026
  269MOL0     C35414   3.180   4.050  11.918 -0.1948  0.4747  1.0490
  269MOL0     C35415   3.048   4.013  11.985 -0.7409  0.3103  0.3225
  269MOL0     C35416   2.932   4.009  11.884  0.1181  1.2168  0.3039
  269MOL0     C35417   2.965   3.931  11.754 -1.7110  0.0321  0.1028
  269MOL0     C35418   2.836   3.899  11.683 -0.2317  0.4641 -0.8371
  269MOL0     C35419   2.869   3.814  11.560 -0.2422 -0.2518 -0.2701
  269MOL0    Cl35420   2.721   3.822  11.455  0.4373 -0.3252 -0.2875
  269MOL0     C35421   3.612   4.349  11.909 -0.5783 -0.4527  0.6164
  269MOL0     C35422   3.743   4.405  11.883 -0.3259  0.3225  0.1972
  269MOL0     O35423   4.107   4.223  11.891 -0.0827  0.1892 -0.1913
  269MOL0     C35424   4.328   4.406  11.913  0.1514  0.4896 -0.3153
  269MOL0     C35425   4.432   4.499  11.914  0.5493 -1.2456 -0.0385
  269MOL0     N35426   4.987   4.488  11.744 -0.5749  0.0906 -0.6108
  269MOL0     N35427   5.106   4.441  11.739  0.7483  0.5247  0.8657
  269MOL0     C35428   5.880   3.978  11.056 -0.4080 -0.6846 -0.1790
  269MOL0     C35429   5.949   3.885  10.974  0.3227  0.5551 -0.5195
  269MOL0     C35430   6.329   3.724  10.784  0.2949 -0.0357  0.5202
  269MOL0     C35431   6.341   3.751  10.643  0.2475 -0.8321 -0.1499
  269MOL0     C35432   6.431   3.683  10.565  0.7397 -0.0229  0.9264
  269MOL0     C35433   6.520   3.593  10.623  0.3222 -0.2795 -0.2394
  269MOL0     O35434   6.626   3.527  10.559 -0.8155  0.9986  0.3087
  269MOL0     C35435   6.633   3.542  10.410 -1.2161 -0.2414  1.1159
  269MOL0     C35436   6.746   3.470  10.338  0.5760 -0.4120  1.1340
  269MOL0     C35437   6.882   3.545  10.359 -0.2731 -0.0312  1.2762
  269MOL0     C35438   6.996   3.457  10.306 -0.1842 -0.3181 -0.1153
  269MOL0     C35439   7.121   3.530  10.337  0.3888  0.3994  0.1246
  269MOL0     C35440   7.217   3.605  10.360 -0.0350  0.3081  0.2211
  269MOL0     C35441   6.515   3.579  10.762 -0.5817  0.4423 -0.2074
  269MOL0     C35442   6.420   3.633  10.845  0.4085 -0.2128 -0.6081
  269MOL0     H35443   6.170   4.105  10.842 -0.6693  1.3831 -0.4382
  269MOL0     H35444   6.029   4.257  10.996 -1.0349  0.3364 -0.6135
  269MOL0     H35445   5.943   4.145  11.287 -0.9679 -0.8124 -0.2866
  269MOL0     H35446   5.774   4.125  11.324  0.2805 -3.5438 -2.8306
  269MOL0     H35447   5.929   4.393  11.302 -0.7219  1.3898  0.8280
  269MOL0     H35448   5.891   4.309  11.451  0.9321  2.3404  1.5547
  269MOL0     H35449   5.635   4.379  11.387 -0.4836  1.1776 -0.2270
  269MOL0     H35450   5.723   4.479  11.269  1.2366 -1.0767 -0.8575
  269MOL0     H35451   5.795   4.494  11.551 -2.2830  1.6397  2.5773
  269MOL0     H35452   5.844   4.599  11.414  2.4641 -2.8105 -0.2949
  269MOL0     H35453   5.574   4.649  11.401  0.0527  0.2403  0.5234
  269MOL0     H35454   5.671   4.732  11.516  0.4234  0.5776  0.1323
  269MOL0     H35455   5.600   4.605  11.691  3.0802 -0.1456 -1.2854
  269MOL0     H35456   5.563   4.459  11.596 -0.2379 -0.0524 -0.8873
  269MOL0     H35457   5.410   4.722  11.589 -2.8787  0.3704  0.2152
  269MOL0     H35458   5.373   4.575  11.497 -1.1461  2.4675 -0.7279
  269MOL0     H35459   5.356   4.587  11.797  2.2947 -0.3940 -0.3663
  269MOL0     H35460   5.373   4.436  11.700 -0.4141  0.0323 -1.0100
  269MOL0     H35461   5.161   4.739  11.613  1.1975 -0.5319  0.0550
  269MOL0     H35462   4.820   4.632  11.570 -0.2528  1.3044 -0.4770
  269MOL0     H35463   4.910   4.786  11.585 -0.6027 -0.4552 -1.7250
  269MOL0     H35464   4.875   4.795  11.819  0.8249  4.8620 -4.0865
  269MOL0     H35465   4.776   4.653  11.817  2.3134  0.9834  2.9296
  269MOL0     H35466   4.653   4.898  11.813 -1.4739 -0.0724 -0.4454
  269MOL0     H35467   4.696   4.910  11.648  3.2667  3.5279  3.0157
  269MOL0     H35468   4.575   4.680  11.618 -1.6005 -1.7193  1.1226
  269MOL0     H35469   4.479   4.816  11.681  1.2729  1.4811 -1.3898
  269MOL0     H35470   4.300   4.688  11.661 -1.6208  1.8223  2.7251
  269MOL0     H35471   4.126   4.544  11.682 -0.5763  1.9698  0.3719
  269MOL0     H35472   3.891   4.145  11.739  2.0021  1.9514  0.9760
  269MOL0     H35473   3.670   4.048  11.755 -0.2884  2.5800 -3.9572
  269MOL0     H35474   3.482   4.142  12.076  1.5783 -3.5400  0.2700
  269MOL0     H35475   3.467   3.991  11.991  2.6260  1.0582  0.2166
  269MOL0     H35476   3.251   4.221  11.997 -0.9429 -0.5867 -1.4242
  269MOL0     H35477   3.249   4.096  12.124  2.2528  0.8056  1.2617
  269MOL0     H35478   3.211   3.960  11.865  1.5865  0.8611  1.3463
  269MOL0     H35479   3.169   4.128  11.843  1.6047  0.7742  1.0520
  269MOL0     H35480   3.057   3.907  12.012  0.6370 -0.8040 -3.7140
  269MOL0     H35481   3.011   4.082  12.060 -0.6427  1.3291 -0.5437
  269MOL0     H35482   2.885   4.105  11.860 -2.4001 -0.2384 -1.0532
  269MOL0     H35483   2.839   3.967  11.922 -2.1393  3.6909 -2.0403
  269MOL0     H35484   3.012   3.835  11.777 -1.4745  0.6663  2.6078
  269MOL0     H35485   3.036   3.994  11.699 -0.6919  1.2045  2.5823
  269MOL0     H35486   2.770   3.839  11.746  0.4951  0.9118  0.3815
  269MOL0     H35487   2.779   3.988  11.654 -3.6706 -1.2461  0.1885
  269MOL0     H35488   2.896   3.711  11.584  0.3814 -1.2556 -4.4674
  269MOL0     H35489   2.944   3.864  11.498 -0.4004 -0.2686 -0.4766
  269MOL0     H35490   3.529   4.404  11.951  0.2346  5.2926 -4.1376
  269MOL0     H35491   3.759   4.499  11.935  0.0564 -0.7289  2.0674
  269MOL0     H35492   4.332   4.317  11.976  0.6593  1.0767  0.4910
  269MOL0     H35493   4.493   4.506  12.004 -2.5215 -0.9597  2.1653
  269MOL0     H35494   5.796   3.935  11.108 -1.7110  0.5729 -1.1571
  269MOL0     H35495   5.920   3.781  10.972  0.6864  0.2591  3.3810
  269MOL0     H35496   6.274   3.822  10.596  0.4961  0.2359  1.0662
  269MOL0     H35497   6.431   3.704  10.458 -0.8183 -0.9338  0.7155
  269MOL0     H35498   6.647   3.650  10.399 -1.2097 -0.4387 -1.6335
  269MOL0     H35499   6.539   3.518  10.361 -0.4487 -0.8021 -0.1364
  269MOL0     H35500   6.745   3.364  10.364  2.1645 -0.7108  0.0795
  269MOL0     H35501   6.731   3.480  10.230  1.5103 -0.1968  1.0164
  269MOL0     H35502   6.890   3.556  10.467  0.8333  2.3647  1.0177
  269MOL0     H35503   6.876   3.638  10.303  0.6395 -1.4802 -1.4201
  269MOL0     H35504   6.983   3.361  10.357 -3.2367  1.0908  2.0275
  269MOL0     H35505   7.005   3.433  10.199  1.5816 -4.1331  0.7079
  269MOL0     H35506   7.288   3.677  10.396 -2.9295  1.7531  3.7328
  269MOL0     H35507   6.584   3.509  10.806  0.4388  0.1325 -2.1792
  269MOL0     H35508   6.422   3.616  10.952 -2.1592  4.5852  0.5090
  270MOL0     O35509  11.237   0.176   3.384 -0.1159 -0.2623  0.1551
  270MOL0     C35510  11.198   0.224   3.494  0.4055 -0.1268 -0.3913
  270MOL0     O35511  11.078   0.277   3.515 -0.3212 -0.3113 -0.1982
  270MOL0     C35512  11.001   0.305   3.410  0.2196 -0.4796  0.5150
  270MOL0     C35513  10.946   0.434   3.414  0.8396  0.0047  0.8132
  270MOL0     C35514  10.838   0.474   3.326 -0.2955  0.4947 -0.2215
  270MOL0     C35515  10.771   0.371   3.255 -0.2829 -0.0463 -0.2356
  270MOL0     O35516  10.662   0.419   3.189  0.9084 -0.2243 -0.6627
  270MOL0     C35517  10.589   0.328   3.112 -0.5281  0.1615 -0.1042
  270MOL0     C35518  10.467   0.391   3.040  0.1213 -0.9029 -0.2259
  270MOL0     C35519  10.364   0.458   3.136 -0.2765 -0.4478  0.8925
  270MOL0     C35520  10.242   0.503   3.053 -0.0845 -0.1959 -0.0003
  270MOL0     C35521  10.117   0.550   3.141 -0.3147 -0.2651  0.9839
  270MOL0     C35522  10.049   0.668   3.060  0.3700  0.0971  0.3929
  270MOL0     C35523   9.913   0.692   3.122  0.0930  0.2302  0.1397
  270MOL0     C35524   9.830   0.793   3.042 -0.4334  0.5536  0.0206
  270MOL0     N35525   9.802   0.775   2.898  0.8286  0.0490  0.4153
  270MOL0     C35526   9.831   0.860   2.797 -0.4899 -0.1912  0.5130
  270MOL0     C35527   9.809   0.788   2.688  0.9439  0.5663  0.1924
  270MOL0     C35528   9.843   0.838   2.550  0.3690 -0.0017  0.4333
  270MOL0     C35529   9.722   0.923   2.500  0.6355  0.6000  0.7438
  270MOL0     C35530   9.654   0.841   2.384 -0.3744  0.5041  0.4972
  270MOL0     C35531   9.592   0.715   2.445  0.1908  0.6963  0.6387
  270MOL0     O35532   9.491   0.673   2.351 -0.7734 -1.0948 -0.0743
  270MOL0     C35533   9.404   0.579   2.387 -0.4272 -0.7579 -0.2873
  270MOL0     C35534   9.287   0.581   2.315  0.5000 -0.2483 -0.1739
  270MOL0     C35535   9.195   0.487   2.339 -0.5380  1.2083 -0.0811
  270MOL0     C35536   9.224   0.376   2.420 -0.2563  0.7773  0.3204
  270MOL0     C35537   9.133   0.264   2.425  0.5439 -0.0144 -0.4349
  270MOL0     O35538   9.037   0.277   2.324 -0.5736  0.9938  0.6248
  270MOL0     C35539   8.914   0.244   2.360  1.2035 -0.4902  0.1654
  270MOL0     C35540   8.855   0.137   2.303  0.7781 -0.4966  0.3221
  270MOL0     C35541   8.729   0.095   2.344  0.1215 -0.4655 -0.2988
  270MOL0     C35542   8.657   0.162   2.448  0.4238 -0.1181  0.2997
  270MOL0     O35543   8.530   0.114   2.484 -0.3835 -0.5062 -0.2747
  270MOL0     C35544   8.492   0.124   2.623 -0.3615  0.5290  1.0145
  270MOL0     C35545   8.372   0.219   2.639  0.1558  0.1483  0.6144
  270MOL0     C35546   8.254   0.157   2.703  0.1078  0.1287 -0.4570
  270MOL0     C35547   8.117   0.229   2.665  0.3917  0.1458 -0.3805
  270MOL0     C35548   7.998   0.165   2.733 -0.1634  0.8639  0.8786
  270MOL0     C35549   7.989   0.007   2.710  0.4212 -0.5647 -0.1256
  270MOL0     C35550   7.956  -0.036   2.572 -0.5141  0.5249  0.4159
  270MOL0     C35551   7.920  -0.186   2.567 -0.2919 -0.4606 -0.2823
  270MOL0    Cl35552   7.895  -0.210   2.399  0.3907  0.3639 -0.2276
  270MOL0     C35553   8.714   0.269   2.509 -0.5971 -0.3039  0.9828
  270MOL0     C35554   8.842   0.303   2.466  0.4930 -0.1287 -0.4771
  270MOL0     O35555   9.145   0.174   2.509  0.5568  0.3210  0.4013
  270MOL0     C35556   9.345   0.360   2.485  0.2406  0.2214 -0.3359
  270MOL0     C35557   9.436   0.462   2.460 -0.0895 -0.4626  0.4031
  270MOL0     N35558   9.760   0.660   2.719  0.6100 -0.3557  0.1000
  270MOL0     N35559   9.749   0.663   2.846  0.3201  0.4583  0.3213
  270MOL0     C35560  10.824   0.239   3.247  0.4465  0.1886 -0.7488
  270MOL0     C35561  10.943   0.210   3.318  0.1437  0.1372 -0.9480
  270MOL0     C35562  11.286   0.190   3.609 -0.3874  0.1739 -0.2106
  270MOL0     C35563  11.384   0.105   3.589 -0.0406 -0.1233  1.0221
  270MOL0     C35564  11.478   0.085   3.690 -0.4106  0.0471  0.7926
  270MOL0     C35565  11.482   0.143   3.806  0.9991  0.2101  0.9509
  270MOL0     O35566  11.574   0.100   3.897 -0.3681 -0.3190 -0.0225
  270MOL0     C35567  11.529   0.086   4.035 -0.5004  0.0130  0.2785
  270MOL0     C35568  11.587  -0.036   4.101  0.2101  0.7375  0.0128
  270MOL0     C35569  11.555  -0.062   4.243  1.1299 -0.5053  0.0007
  270MOL0     C35570  11.630  -0.174   4.325  1.5043 -0.4785 -0.3006
  270MOL0     C35571  11.773  -0.146   4.319 -1.6508  0.2239  0.4248
  270MOL0     C35572  11.886  -0.089   4.316  0.3839  0.9965 -0.0828
  270MOL0     C35573  11.368   0.222   3.834  0.8493 -0.2282 -0.2321
  270MOL0     C35574  11.278   0.256   3.735  0.9267 -0.5016 -0.4472
  270MOL0     H35575  10.984   0.509   3.483 -0.4064  1.2145  0.2286
  270MOL0     H35576  10.802   0.576   3.335  1.7391  1.2543 -0.3756
  270MOL0     H35577  10.555   0.242   3.170  0.8856 -0.6294 -0.4102
  270MOL0     H35578  10.649   0.292   3.028 -0.8570  1.8336 -1.1028
  270MOL0     H35579  10.433   0.299   2.993  2.5462 -2.3179  0.5850
  270MOL0     H35580  10.492   0.470   2.968 -3.0784  1.1073  0.6752
  270MOL0     H35581  10.408   0.549   3.179 -2.0354  0.7260  0.3121
  270MOL0     H35582  10.318   0.397   3.213  1.1146 -1.6445  0.8105
  270MOL0     H35583  10.280   0.582   2.987  0.6054 -1.7227 -1.5093
  270MOL0     H35584  10.212   0.427   2.981 -2.7819  2.7697 -2.2729
  270MOL0     H35585  10.132   0.599   3.238 -0.9214  1.9556  0.0368
  270MOL0     H35586  10.049   0.465   3.142 -1.4666  0.6201  2.2685
  270MOL0     H35587  10.039   0.638   2.956 -0.6577  1.2760  0.1258
  270MOL0     H35588  10.104   0.762   3.073 -3.7453  2.8622 -0.3062
  270MOL0     H35589   9.861   0.597   3.128 -0.2087  0.4782  3.1597
  270MOL0     H35590   9.916   0.728   3.225  0.7184  0.9424 -0.1117
  270MOL0     H35591   9.880   0.890   3.047  0.3305  0.1618  0.0893
  270MOL0     H35592   9.741   0.809   3.104 -0.6700  0.7077 -0.3494
  270MOL0     H35593   9.880   0.957   2.790 -1.1356  0.0515 -1.2300
  270MOL0     H35594   9.873   0.745   2.500 -0.1500 -1.7108  3.0897
  270MOL0     H35595   9.931   0.902   2.546 -2.1313  3.7535  0.6405
  270MOL0     H35596   9.761   1.016   2.457  0.3637 -0.9899 -3.4390
  270MOL0     H35597   9.650   0.937   2.581  0.6180  1.3537  0.6018
  270MOL0     H35598   9.572   0.901   2.343 -2.7658 -3.5015 -1.2583
  270MOL0     H35599   9.717   0.809   2.300 -0.0724 -2.2301  1.6501
  270MOL0     H35600   9.539   0.735   2.538 -0.7927  1.8828 -0.1499
  270MOL0     H35601   9.669   0.639   2.460  1.3023  2.0794  2.1802
  270MOL0     H35602   9.272   0.663   2.246 -0.9555 -1.4011 -1.2923
  270MOL0     H35603   9.109   0.475   2.274 -1.1462 -4.1686  1.2495
  270MOL0     H35604   8.907   0.087   2.222  1.3606  0.3379  0.1665
  270MOL0     H35605   8.683   0.011   2.292 -0.7510 -2.1004  2.8732
  270MOL0     H35606   8.568   0.157   2.695  0.0804 -0.5725  1.0631
  270MOL0     H35607   8.472   0.024   2.663  2.2614 -1.8721 -3.0350
  270MOL0     H35608   8.340   0.246   2.538  2.4402  0.1400 -0.1834
  270MOL0     H35609   8.409   0.308   2.691  0.3271  1.6564 -1.9235
  270MOL0     H35610   8.267   0.158   2.811  0.3055 -2.7488 -0.3664
  270MOL0     H35611   8.247   0.051   2.675 -0.7217 -0.4066  1.6401
  270MOL0     H35612   8.111   0.332   2.701 -0.0122  0.5381 -1.5233
  270MOL0     H35613   8.102   0.230   2.557  2.1753  1.7364 -0.6633
  270MOL0     H35614   7.908   0.211   2.690  0.2349 -0.6889 -1.8201
  270MOL0     H35615   8.003   0.185   2.841 -2.5350  2.7339  0.7294
  270MOL0     H35616   7.920  -0.034   2.784 -0.4440 -0.5973 -0.9339
  270MOL0     H35617   8.084  -0.045   2.724  0.1753 -1.2628 -0.9280
  270MOL0     H35618   7.868   0.019   2.537  0.3396  1.9341  0.4008
  270MOL0     H35619   8.037  -0.020   2.500 -0.8795  0.2633 -0.0641
  270MOL0     H35620   7.823  -0.196   2.617 -1.3267 -0.1213 -2.1357
  270MOL0     H35621   7.996  -0.261   2.592 -0.4011 -0.3522  0.4019
  270MOL0     H35622   8.670   0.323   2.592 -1.3089 -3.3067  2.7139
  270MOL0     H35623   8.896   0.382   2.518  0.5168 -0.0450 -0.6284
  270MOL0     H35624   9.369   0.270   2.542 -1.1257 -0.2931 -0.5425
  270MOL0     H35625   9.542   0.445   2.474 -0.3476 -1.7360  0.9196
  270MOL0     H35626  10.784   0.159   3.186  1.0317 -0.4170 -0.3527
  270MOL0     H35627  10.994   0.114   3.323  2.3520  1.2898  0.2402
  270MOL0     H35628  11.393   0.039   3.503  3.3844  0.7846  0.5590
  270MOL0     H35629  11.558   0.015   3.665 -1.7838 -1.8088  1.3855
  270MOL0     H35630  11.421   0.092   4.051 -0.2427 -0.9920  2.9445
  270MOL0     H35631  11.563   0.181   4.079 -0.7626  2.2895 -3.9521
  270MOL0     H35632  11.559  -0.120   4.036  3.2797  0.2083 -0.8160
  270MOL0     H35633  11.695  -0.019   4.087  1.0404 -1.7617  2.3451
  270MOL0     H35634  11.447  -0.078   4.244  0.6588  2.2656  0.4419
  270MOL0     H35635  11.570   0.036   4.289  0.9007 -0.5110  0.0900
  270MOL0     H35636  11.597  -0.176   4.429 -1.0586 -1.5985 -1.0682
  270MOL0     H35637  11.600  -0.269   4.282 -5.3503  1.2533 -0.4607
  270MOL0     H35638  11.972  -0.028   4.301  2.5920 -1.4199  1.6423
  270MOL0     H35639  11.344   0.253   3.935 -1.0851  0.2185 -0.7976
  270MOL0     H35640  11.200   0.327   3.761 -0.8191 -1.1206 -3.5084
  271MOL0     O35641   2.976   0.045  10.980  0.6260 -0.6077  0.2496
  271MOL0     C35642   2.930   0.140  10.913  0.3677 -0.3604 -0.4354
  271MOL0     O35643   3.000   0.252  10.859  0.3978  0.4790  0.5383
  271MOL0     C35644   3.139   0.240  10.868 -0.0957  0.3184  0.3550
  271MOL0     C35645   3.207   0.138  10.802  0.7867 -0.2214  0.2822
  271MOL0     C35646   3.350   0.126  10.788  0.8248  1.0509  0.3193
  271MOL0     C35647   3.422   0.194  10.879  0.3116 -0.8419 -0.0859
  271MOL0     O35648   3.555   0.181  10.880  0.0803 -0.8078  0.2336
  271MOL0     C35649   3.610   0.130  11.001  0.1442  0.2280  0.4526
  271MOL0     C35650   3.755   0.121  10.972 -1.2247 -0.5412  0.0970
  271MOL0     C35651   3.836   0.079  11.092 -1.2483 -1.0092 -0.8322
  271MOL0     C35652   3.981   0.043  11.051  0.8103  1.0180 -0.0665
  271MOL0     C35653   4.062   0.033  11.176 -0.0955 -0.7453  0.5471
  271MOL0     C35654   4.199  -0.008  11.142  0.8590  0.0793  0.5239
  271MOL0     C35655   4.266  -0.061  11.261 -0.2982 -0.0162 -0.0460
  271MOL0     C35656   4.425  -0.067  11.235  0.1781 -0.2668 -0.1722
  271MOL0     N35657   4.514  -0.065  11.361  0.6647 -0.3558 -0.0825
  271MOL0     C35658   4.524   0.044  11.446  0.6628  0.2041 -0.4271
  271MOL0     C35659   4.601  -0.001  11.548 -0.2328  0.5184 -0.2102
  271MOL0     C35660   4.640   0.074  11.676 -0.6085  0.2300 -0.6892
  271MOL0     C35661   4.525   0.166  11.716 -0.2716  0.5280 -0.7079
  271MOL0     C35662   4.388   0.094  11.748 -0.6328 -0.1318 -0.3924
  271MOL0     C35663   4.269   0.179  11.764  1.0122  0.9343 -0.7390
  271MOL0     O35664   4.217   0.209  11.637 -0.8499 -0.0468  0.3144
  271MOL0     C35665   4.094   0.272  11.621  0.2653  0.5989 -1.0395
  271MOL0     C35666   4.058   0.300  11.490  0.2992  0.4444  0.1275
  271MOL0     C35667   3.926   0.341  11.463  0.1063 -1.0368  0.5890
  271MOL0     C35668   3.833   0.369  11.569 -0.2987  0.2060  0.8611
  271MOL0     C35669   3.687   0.384  11.541 -0.3180 -0.3589 -0.1389
  271MOL0     O35670   3.647   0.432  11.416 -0.1256 -0.1747 -0.0985
  271MOL0     C35671   3.520   0.488  11.383 -0.1475 -0.1850  0.7271
  271MOL0     C35672   3.426   0.515  11.477  0.6776 -0.2764 -1.0165
  271MOL0     C35673   3.305   0.573  11.434  0.8595  0.3787  0.2914
  271MOL0     C35674   3.285   0.602  11.305 -0.2678 -0.1345 -0.4339
  271MOL0     O35675   3.176   0.653  11.248  0.9592  0.2679 -0.0027
  271MOL0     C35676   3.048   0.674  11.317 -0.1843 -0.6371 -1.0366
  271MOL0     C35677   2.980   0.547  11.347 -0.3598 -0.1842 -0.1953
  271MOL0     C35678   2.839   0.574  11.384 -0.0850 -0.5721 -0.1666
  271MOL0     C35679   2.743   0.576  11.266 -0.5816 -0.0528 -0.2308
  271MOL0     C35680   2.600   0.596  11.318 -0.0612 -0.1653  0.2054
  271MOL0     C35681   2.522   0.635  11.189 -0.3707  0.0634 -0.3604
  271MOL0     C35682   2.380   0.658  11.223 -0.2826  0.2654  0.4389
  271MOL0     C35683   2.315   0.716  11.097 -0.1618  0.4898 -0.0981
  271MOL0    Cl35684   2.138   0.710  11.130 -0.1677  0.6229  0.0482
  271MOL0     C35685   3.381   0.567  11.209  0.1778  0.3384 -0.1714
  271MOL0     C35686   3.504   0.507  11.247  0.6538  0.2071 -0.7633
  271MOL0     O35687   3.612   0.369  11.643 -0.3958 -0.0933  0.0656
  271MOL0     C35688   3.872   0.351  11.703 -0.4506 -0.3354  0.4036
  271MOL0     C35689   4.002   0.296  11.728 -0.0519 -0.1111  0.1345
  271MOL0     N35690   4.634  -0.132  11.522  0.6697 -0.4339  0.3629
  271MOL0     N35691   4.592  -0.169  11.404 -0.3717 -0.1625  0.0757
  271MOL0     C35692   3.365   0.298  10.954 -1.0188 -1.0408 -0.3689
  271MOL0     C35693   3.228   0.324  10.946  0.2789 -0.0473 -0.1874
  271MOL0     C35694   2.780   0.152  10.909 -0.1986 -0.0699 -0.2729
  271MOL0     C35695   2.696   0.037  10.907  0.3878 -0.3745  0.4147
  271MOL0     C35696   2.559   0.048  10.919 -0.4017  0.0593 -0.7220
  271MOL0     C35697   2.497   0.171  10.919 -0.5294  0.5407 -0.3039
  271MOL0     O35698   2.365   0.182  10.944  0.3216 -0.4014 -0.0478
  271MOL0     C35699   2.280   0.299  10.946  0.4495 -0.5935  0.1633
  271MOL0     C35700   2.218   0.328  10.813  0.5581  0.5810  0.3613
  271MOL0     C35701   2.322   0.366  10.705  0.1426 -0.3054  0.3908
  271MOL0     C35702   2.265   0.351  10.569  0.2738  0.8710 -0.6675
  271MOL0     C35703   2.358   0.351  10.459  0.1963  0.4980 -0.2700
  271MOL0     C35704   2.422   0.342  10.359  0.6780  0.5580 -0.0291
  271MOL0     C35705   2.578   0.287  10.916  0.0045 -0.4882  0.9319
  271MOL0     C35706   2.719   0.280  10.906  0.2135 -0.8028 -0.1229
  271MOL0     H35707   3.141   0.070  10.748  1.1969  0.6430 -1.4041
  271MOL0     H35708   3.390   0.041  10.733  0.3190  1.5133 -0.7864
  271MOL0     H35709   3.570   0.031  11.026  0.1795  0.2849  0.7348
  271MOL0     H35710   3.606   0.194  11.089 -0.1382  0.0957  0.5394
  271MOL0     H35711   3.787   0.223  10.950 -1.3759 -0.6600 -0.7015
  271MOL0     H35712   3.782   0.064  10.882  0.5185  0.1323  0.1642
  271MOL0     H35713   3.782   0.001  11.145 -1.4052  1.6715  3.4276
  271MOL0     H35714   3.830   0.170  11.153 -1.6454  1.9218 -4.8286
  271MOL0     H35715   3.975  -0.048  10.990 -0.1532  1.0114  0.0258
  271MOL0     H35716   4.016   0.122  10.983 -0.6833  0.6747 -1.2839
  271MOL0     H35717   4.026  -0.045  11.244 -0.4741 -0.1596  1.0187
  271MOL0     H35718   4.054   0.126  11.232 -0.4893 -0.8318  0.6319
  271MOL0     H35719   4.256   0.077  11.105 -0.0885  1.3447  1.8320
  271MOL0     H35720   4.203  -0.089  11.069  4.8943  1.1983 -0.7030
  271MOL0     H35721   4.247   0.014  11.338 -0.3673  1.0686 -1.0958
  271MOL0     H35722   4.232  -0.161  11.291 -1.0826  0.3914  0.4531
  271MOL0     H35723   4.448   0.026  11.184 -1.3519 -0.0337 -0.4811
  271MOL0     H35724   4.454  -0.157  11.180  1.7981 -0.4263  0.8715
  271MOL0     H35725   4.481   0.139  11.416  0.4277 -0.0960 -1.0509
  271MOL0     H35726   4.731   0.130  11.655  0.1490 -1.2432 -1.4527
  271MOL0     H35727   4.668   0.003  11.755  0.5609  0.0529 -1.2525
  271MOL0     H35728   4.510   0.249  11.647  1.8777  0.8321 -0.8582
  271MOL0     H35729   4.555   0.211  11.811  5.1082 -0.7182 -1.5206
  271MOL0     H35730   4.369   0.026  11.664  1.6287  0.5452 -1.5395
  271MOL0     H35731   4.383   0.035  11.840  3.0289  1.3986  0.9403
  271MOL0     H35732   4.285   0.261  11.835 -0.6218  1.1876 -0.6165
  271MOL0     H35733   4.198   0.121  11.824  3.4085  0.1321  1.4960
  271MOL0     H35734   4.128   0.292  11.408 -0.9865  0.5891 -1.0249
  271MOL0     H35735   3.899   0.345  11.358  1.0021  0.4902  0.3734
  271MOL0     H35736   3.437   0.487  11.581 -1.7119 -2.5960 -1.2862
  271MOL0     H35737   3.232   0.583  11.513  2.3234 -0.5943  1.8323
  271MOL0     H35738   2.984   0.738  11.255 -2.4575  0.0426  1.7846
  271MOL0     H35739   3.061   0.727  11.412 -0.0603 -1.2732 -0.6947
  271MOL0     H35740   3.035   0.509  11.434 -0.0088 -1.4131 -0.9333
  271MOL0     H35741   3.006   0.491  11.257  1.2804 -0.2076  0.2467
  271MOL0     H35742   2.829   0.664  11.446 -1.4321 -2.0852  1.9378
  271MOL0     H35743   2.805   0.492  11.448  0.3857  0.6139  1.6906
  271MOL0     H35744   2.767   0.670  11.215  1.2633 -0.7325 -0.6697
  271MOL0     H35745   2.760   0.501  11.188 -0.3674 -1.4351  1.1082
  271MOL0     H35746   2.582   0.689  11.373  1.3140  2.0635 -2.7918
  271MOL0     H35747   2.552   0.512  11.368 -1.0755 -1.4509 -2.7458
  271MOL0     H35748   2.530   0.557  11.113 -2.4603 -0.0951 -0.4768
  271MOL0     H35749   2.558   0.732  11.154 -1.3391  0.8293  0.6872
  271MOL0     H35750   2.331   0.565  11.255 -1.9423  0.5864 -1.0428
  271MOL0     H35751   2.383   0.731  11.305  0.8023 -0.6183  1.2376
  271MOL0     H35752   2.331   0.659  11.005 -1.0819  1.0176 -0.6081
  271MOL0     H35753   2.337   0.820  11.071  1.3392 -0.6287 -4.0791
  271MOL0     H35754   3.362   0.577  11.103 -3.9710 -1.9994  0.1487
  271MOL0     H35755   3.590   0.480  11.187  1.8692  1.7949  0.1615
  271MOL0     H35756   3.808   0.355  11.790 -0.1726 -3.1296  0.8323
  271MOL0     H35757   4.029   0.267  11.829 -1.0488  0.0279  0.4496
  271MOL0     H35758   3.426   0.362  11.016 -1.6828 -1.5623  0.8591
  271MOL0     H35759   3.176   0.395  11.009 -1.5977 -1.0521 -0.5318
  271MOL0     H35760   2.741  -0.062  10.902 -4.5868 -2.9765  0.7884
  271MOL0     H35761   2.493  -0.037  10.933 -0.7386  0.0218 -2.3444
  271MOL0     H35762   2.331   0.386  10.989  0.0376 -0.7125  0.9234
  271MOL0     H35763   2.201   0.279  11.019 -1.3816 -3.6763 -2.4633
  271MOL0     H35764   2.151   0.245  10.790  1.2237  0.4454 -1.1690
  271MOL0     H35765   2.153   0.414  10.829 -1.8710 -0.5884 -2.3778
  271MOL0     H35766   2.415   0.309  10.717  1.7479  1.7425 -1.4571
  271MOL0     H35767   2.349   0.470  10.723  1.1058 -0.4883  0.1118
  271MOL0     H35768   2.214   0.254  10.568 -0.8435  1.3877  1.0088
  271MOL0     H35769   2.183   0.422  10.554  3.0726  4.2750 -1.1389
  271MOL0     H35770   2.471   0.340  10.264 -1.5042  1.2948 -1.2466
  271MOL0     H35771   2.530   0.380  10.944  0.1940 -1.2217  4.0495
  271MOL0     H35772   2.775   0.373  10.904  1.4327 -1.5275 -1.1488
  272MOL0     O35773   8.544  11.219   0.706 -0.2528  0.4334  0.4873
  272MOL0     C35774   8.477  11.172   0.618 -0.1032 -0.6366 -0.4779
  272MOL0     O35775   8.516  11.103   0.514  0.2534  0.0876  0.3742
  272MOL0     C35776   8.635  11.041   0.513 -0.4410 -0.7700 -0.4447
  272MOL0     C35777   8.643  10.916   0.449 -0.6124 -0.4885  0.7591
  272MOL0     C35778   8.765  10.845   0.452 -0.0249 -0.7370  0.4736
  272MOL0     C35779   8.882  10.908   0.497 -0.2037 -0.1233 -0.2170
  272MOL0     O35780   8.993  10.830   0.482  0.3547 -0.2322  0.4752
  272MOL0     C35781   9.120  10.885   0.500  0.9777 -0.0158  0.0046
  272MOL0     C35782   9.240  10.792   0.458  0.3001 -0.4680  0.1077
  272MOL0     C35783   9.375  10.863   0.504 -0.1689 -0.9023 -0.3257
  272MOL0     C35784   9.480  10.753   0.491 -0.0275 -0.4745 -0.2280
  272MOL0     C35785   9.608  10.825   0.525 -0.3180 -0.2164 -0.5815
  272MOL0     C35786   9.731  10.730   0.504 -0.4106  0.0398 -0.1184
  272MOL0     C35787   9.860  10.808   0.507  0.4260  0.3231  0.5193
  272MOL0     C35788   9.922  10.828   0.647  0.3483 -0.6402 -0.8822
  272MOL0     N35789  10.055  10.900   0.639 -0.2458 -0.0959  0.1203
  272MOL0     C35790  10.160  10.844   0.567  0.3076  0.6931 -0.0924
  272MOL0     C35791  10.258  10.934   0.580  0.1190 -0.5067  0.3997
  272MOL0     C35792  10.399  10.937   0.533  0.3097  0.4145  1.3156
  272MOL0     C35793  10.499  10.867   0.625 -0.6168  1.5532  0.1033
  272MOL0     C35794  10.530  10.949   0.750  0.5044  0.6385  0.6742
  272MOL0     C35795  10.672  10.930   0.791 -0.5510 -0.6231 -0.1444
  272MOL0     O35796  10.706  10.993   0.914  0.6072 -0.1059 -0.4380
  272MOL0     C35797  10.836  10.980   0.959 -0.4933 -0.4162  0.2116
  272MOL0     C35798  10.947  10.936   0.887  0.7482 -0.0820  0.2583
  272MOL0     C35799  11.067  10.915   0.951 -0.1697 -0.1338  0.3574
  272MOL0     C35800  11.094  10.953   1.091 -0.1916 -0.1323 -0.4736
  272MOL0     C35801  11.221  10.945   1.164 -0.0188 -0.2176  0.0832
  272MOL0     O35802  11.326  10.891   1.091  0.8515  0.2827  0.2267
  272MOL0     C35803  11.453  10.882   1.126  0.5459  0.3598 -0.0361
  272MOL0     C35804  11.555  10.956   1.052  0.7374 -0.5615  0.2414
  272MOL0     C35805  11.687  10.959   1.090 -0.0442 -0.7608  0.5289
  272MOL0     C35806  11.721  10.875   1.196  0.1762 -0.0091 -0.7336
  272MOL0     O35807  11.846  10.872   1.254 -0.3664  0.6031  0.0894
  272MOL0     C35808  11.957  10.852   1.168  0.8787  1.1098  0.1282
  272MOL0     C35809  12.077  10.867   1.255  0.3787  0.3710  0.3329
  272MOL0     C35810  12.212  10.835   1.187  0.4606  0.5599 -0.5241
  272MOL0     C35811  12.322  10.833   1.282 -0.1696  0.3581 -0.3882
  272MOL0     C35812  12.434  10.745   1.229 -0.7435 -0.5559  0.5605
  272MOL0     C35813  12.574  10.815   1.247  0.4609  0.3633 -0.4745
  272MOL0     C35814  12.681  10.759   1.151  0.8264  0.9023  0.7595
  272MOL0     C35815  12.818  10.821   1.187  0.6000 -0.4574  0.7270
  272MOL0    Cl35816  12.875  10.769   1.344  0.5215  0.2116 -0.2577
  272MOL0     C35817  11.627  10.791   1.260  0.0246  0.8042 -0.4043
  272MOL0     C35818  11.494  10.790   1.223  0.1881  0.1499 -0.5237
  272MOL0     O35819  11.239  10.985   1.273 -0.4267  1.1822 -0.7101
  272MOL0     C35820  10.980  11.010   1.153 -0.3707 -0.3122  0.4217
  272MOL0     C35821  10.857  11.024   1.089 -0.2366  0.1332  0.0182
  272MOL0     N35822  10.202  11.059   0.627 -0.1567  0.3761  0.7835
  272MOL0     N35823  10.081  11.040   0.654 -0.0233  0.9018 -0.2555
  272MOL0     C35824   8.885  11.040   0.556  0.3827  0.4985  0.0933
  272MOL0     C35825   8.760  11.108   0.563  0.0894  1.4544 -0.2122
  272MOL0     C35826   8.335  11.194   0.637  0.3270  0.3306 -0.0077
  272MOL0     C35827   8.244  11.147   0.547  0.0335 -1.4273  0.5258
  272MOL0     C35828   8.107  11.174   0.557  0.0186 -0.0749  0.8023
  272MOL0     C35829   8.055  11.247   0.663  0.3410  0.1367  0.0796
  272MOL0     O35830   7.916  11.263   0.680 -0.3807  0.5485 -0.4765
  272MOL0     C35831   7.847  11.137   0.698  0.7101 -1.0434  0.2885
  272MOL0     C35832   7.905  11.068   0.820  0.1124  0.1117 -0.1358
  272MOL0     C35833   7.830  10.949   0.856  0.3239  0.5342  0.5634
  272MOL0     C35834   7.902  10.889   0.983 -0.6909  0.9437 -0.0342
  272MOL0     C35835   7.791  10.830   1.066  0.1302 -0.5884  0.7866
  272MOL0     C35836   7.698  10.788   1.132 -0.1859 -0.5685  0.4675
  272MOL0     C35837   8.148  11.310   0.746  0.1940 -0.1744  0.1407
  272MOL0     C35838   8.284  11.279   0.735 -0.3444 -0.2112 -0.7512
  272MOL0     H35839   8.549  10.874   0.413 -1.8876  4.5296 -2.8372
  272MOL0     H35840   8.785  10.751   0.401  0.8820  1.6863 -4.1573
  272MOL0     H35841   9.133  10.901   0.608  1.4583 -0.3761  0.0038
  272MOL0     H35842   9.131  10.979   0.446 -1.6228  0.4412  0.0972
  272MOL0     H35843   9.238  10.778   0.349 -0.3962  1.7364 -0.2163
  272MOL0     H35844   9.239  10.700   0.517  1.3433  0.4764  1.6353
  272MOL0     H35845   9.363  10.896   0.608  0.4329 -1.7118  0.0123
  272MOL0     H35846   9.391  10.951   0.441 -0.6257  0.7245  1.6993
  272MOL0     H35847   9.478  10.664   0.554  4.0999 -1.5767 -1.3537
  272MOL0     H35848   9.491  10.725   0.386  2.0829 -1.2628  0.1511
  272MOL0     H35849   9.592  10.825   0.634 -0.9904 -0.4618 -0.6760
  272MOL0     H35850   9.619  10.922   0.475  1.3639  2.2755  3.9954
  272MOL0     H35851   9.711  10.685   0.406 -0.8597  0.1382 -0.0745
  272MOL0     H35852   9.726  10.650   0.579 -1.9415 -0.2478 -0.4877
  272MOL0     H35853   9.933  10.754   0.445  0.0505 -0.0189  0.3657
  272MOL0     H35854   9.842  10.906   0.463 -2.5398 -0.0413  0.7421
  272MOL0     H35855   9.931  10.734   0.702  1.6101  0.5034  0.9564
  272MOL0     H35856   9.857  10.892   0.707  1.2734 -0.4501 -0.0601
  272MOL0     H35857  10.169  10.749   0.516  0.2985  0.0977  0.9870
  272MOL0     H35858  10.423  11.042   0.516  0.0427  0.6144  2.1555
  272MOL0     H35859  10.402  10.900   0.429 -2.0458  2.6143  0.3750
  272MOL0     H35860  10.588  10.835   0.570 -2.3702 -1.6632 -1.1646
  272MOL0     H35861  10.460  10.770   0.657  0.5833  0.5943 -1.2282
  272MOL0     H35862  10.513  11.057   0.737  2.2938  1.0213  1.2942
  272MOL0     H35863  10.473  10.919   0.838  1.1701 -2.7953  0.0752
  272MOL0     H35864  10.738  10.964   0.710 -2.9020  4.2582 -0.3601
  272MOL0     H35865  10.681  10.821   0.799 -0.5121 -0.5580  0.7590
  272MOL0     H35866  10.941  10.903   0.784  0.5190  0.1922  0.1829
  272MOL0     H35867  11.147  10.861   0.901  0.7717  2.8082 -1.6005
  272MOL0     H35868  11.522  11.039   0.991 -2.3419 -1.4632  0.4977
  272MOL0     H35869  11.730  11.035   1.026 -1.0011  0.5507  1.3982
  272MOL0     H35870  11.961  10.921   1.083 -1.0011 -0.8498 -1.7030
  272MOL0     H35871  11.961  10.749   1.130  3.4184  0.2540  2.4669
  272MOL0     H35872  12.063  10.804   1.343  1.2870 -1.0510 -0.4898
  272MOL0     H35873  12.075  10.971   1.288 -3.1482  0.0424  1.5115
  272MOL0     H35874  12.227  10.912   1.111 -2.9372  1.7023 -0.2292
  272MOL0     H35875  12.193  10.744   1.129  1.2985  0.3198 -0.4367
  272MOL0     H35876  12.354  10.935   1.305 -1.6012  0.8281 -0.3439
  272MOL0     H35877  12.302  10.780   1.376  3.0485  1.4523  1.0512
  272MOL0     H35878  12.422  10.708   1.127  1.6026 -0.8984  0.3471
  272MOL0     H35879  12.444  10.657   1.294  1.2266 -0.2653  0.7013
  272MOL0     H35880  12.614  10.815   1.348 -2.3229 -1.2431  0.7653
  272MOL0     H35881  12.555  10.921   1.233  2.9696  0.9680  0.2660
  272MOL0     H35882  12.677  10.652   1.128  2.1529  1.1401 -0.7968
  272MOL0     H35883  12.650  10.806   1.057 -3.7885  0.0321  1.6356
  272MOL0     H35884  12.806  10.930   1.190  1.6081 -0.3219  0.3859
  272MOL0     H35885  12.893  10.792   1.113  1.6070  2.7236  0.3436
  272MOL0     H35886  11.666  10.721   1.333 -3.1754 -1.6678 -0.8641
  272MOL0     H35887  11.422  10.731   1.278 -2.9239  0.8130 -3.4700
  272MOL0     H35888  11.001  11.046   1.253 -0.8019  0.8184  0.1207
  272MOL0     H35889  10.772  11.064   1.144 -1.2746 -0.1202 -1.3269
  272MOL0     H35890   8.971  11.095   0.593 -0.1901  2.7846 -1.8165
  272MOL0     H35891   8.765  11.208   0.606  0.6554  1.4832 -0.3375
  272MOL0     H35892   8.285  11.099   0.459  1.8189  0.7255  0.0947
  272MOL0     H35893   8.050  11.127   0.477  3.5758  0.2794 -2.2328
  272MOL0     H35894   7.866  11.072   0.613  2.0630  2.5052 -2.3811
  272MOL0     H35895   7.739  11.146   0.716 -0.0512 -1.0586 -3.5402
  272MOL0     H35896   8.002  11.022   0.799  0.1461 -0.0919  0.4686
  272MOL0     H35897   7.921  11.137   0.904 -2.4546 -0.0735  0.5779
  272MOL0     H35898   7.824  10.874   0.777  3.9862 -0.6413  1.2282
  272MOL0     H35899   7.727  10.979   0.878  0.0017 -0.5676  0.6146
  272MOL0     H35900   7.967  10.805   0.953 -0.1950  0.6471  1.7419
  272MOL0     H35901   7.966  10.960   1.035  2.7151 -0.3320 -2.0855
  272MOL0     H35902   7.618  10.753   1.195  1.0880 -1.3740  1.7144
  272MOL0     H35903   8.116  11.382   0.821  3.4939  1.5394  0.1293
  272MOL0     H35904   8.344  11.316   0.817 -3.0759  1.4892  0.6391
  273MOL0     O35905   8.818   7.396   5.855  0.3306 -0.0012  0.0982
  273MOL0     C35906   8.815   7.419   5.734  0.1562 -0.2852  0.7377
  273MOL0     O35907   8.696   7.439   5.662 -0.8240  0.1323 -0.3821
  273MOL0     C35908   8.574   7.459   5.723 -0.1637  0.6732 -0.1918
  273MOL0     C35909   8.515   7.358   5.798  0.9859 -0.0573  0.5347
  273MOL0     C35910   8.383   7.380   5.847  0.0427 -0.2652 -0.0990
  273MOL0     C35911   8.313   7.492   5.805  0.3902 -0.6625  0.6030
  273MOL0     O35912   8.185   7.509   5.854 -0.2766  0.1424  0.0593
  273MOL0     C35913   8.095   7.552   5.760  0.6534  0.9567  0.0101
  273MOL0     C35914   7.952   7.576   5.813  0.3432 -0.1022 -0.7430
  273MOL0     C35915   7.875   7.670   5.720  0.4686  0.2472 -0.2470
  273MOL0     C35916   7.805   7.595   5.605  0.2225 -0.1921  0.3362
  273MOL0     C35917   7.709   7.688   5.529  0.6516 -0.1272  0.0814
  273MOL0     C35918   7.560   7.663   5.562  0.2519 -0.8408  0.6769
  273MOL0     C35919   7.458   7.745   5.468 -0.2756  0.5029 -0.1205
  273MOL0     C35920   7.317   7.691   5.496 -0.4881  0.0220 -0.3455
  273MOL0     N35921   7.219   7.751   5.398 -0.2452  0.1688  0.3741
  273MOL0     C35922   7.203   7.883   5.367 -0.3413  1.1061  0.0580
  273MOL0     C35923   7.111   7.874   5.268 -0.3445 -0.2284  0.6516
  273MOL0     C35924   7.056   7.977   5.178  0.6592  0.6152 -0.4038
  273MOL0     C35925   6.954   8.070   5.244  0.0190  0.1855 -0.3110
  273MOL0     C35926   6.850   7.999   5.341  0.0063 -0.5591  0.6687
  273MOL0     C35927   6.741   7.910   5.269  0.5247  0.7905  0.2878
  273MOL0     O35928   6.670   7.989   5.166  0.1321  0.3898  0.8682
  273MOL0     C35929   6.561   8.065   5.196  0.9950 -0.2973 -0.1060
  273MOL0     C35930   6.515   8.094   5.326 -0.5224  0.0031  0.0445
  273MOL0     C35931   6.395   8.173   5.340 -0.0588 -0.0126  0.5224
  273MOL0     C35932   6.331   8.226   5.224  0.7182  1.3478 -0.6093
  273MOL0     C35933   6.202   8.299   5.252 -0.9582 -0.1816  0.1024
  273MOL0     O35934   6.155   8.299   5.378 -0.7751 -0.8548 -0.5184
  273MOL0     C35935   6.086   8.401   5.432  0.3560 -0.2602  0.4087
  273MOL0     C35936   5.998   8.378   5.542 -0.3483 -1.4050  0.4462
  273MOL0     C35937   5.937   8.483   5.608  0.5352 -0.2302 -0.6498
  273MOL0     C35938   5.937   8.604   5.537  0.0386 -0.6295  0.2263
  273MOL0     O35939   5.841   8.694   5.568  0.3417  1.1588  0.3630
  273MOL0     C35940   5.705   8.638   5.580  0.3383 -0.1301  0.0257
  273MOL0     C35941   5.598   8.745   5.560  0.1548 -0.1990 -0.2666
  273MOL0     C35942   5.606   8.872   5.645 -0.1907  0.5071 -0.1792
  273MOL0     C35943   5.497   8.981   5.615 -0.6064  0.4777 -0.1430
  273MOL0     C35944   5.506   9.087   5.726  0.2918 -0.6138 -0.1989
  273MOL0     C35945   5.375   9.175   5.730 -0.0280 -0.2096 -0.0381
  273MOL0     C35946   5.238   9.103   5.775  0.4521  0.8987 -0.2287
  273MOL0     C35947   5.120   9.199   5.774 -0.3785 -0.9856 -0.5148
  273MOL0    Cl35948   4.973   9.111   5.827  0.6795  0.1946 -0.3791
  273MOL0     C35949   6.022   8.634   5.429 -0.7024  0.0386  0.5722
  273MOL0     C35950   6.103   8.532   5.384 -0.4420  1.0282  0.3376
  273MOL0     O35951   6.149   8.359   5.162 -0.6699  0.1277  0.4783
  273MOL0     C35952   6.382   8.198   5.097 -0.1067 -0.3893  0.6426
  273MOL0     C35953   6.500   8.123   5.079 -0.7100  1.1427 -0.1735
  273MOL0     N35954   7.072   7.738   5.247 -0.7171 -0.8884  1.0877
  273MOL0     N35955   7.126   7.665   5.337 -0.4938  0.0755  0.0009
  273MOL0     C35956   8.366   7.584   5.718 -0.4519  0.8014  0.3230
  273MOL0     C35957   8.499   7.570   5.671  0.0712  0.7591  0.3420
  273MOL0     C35958   8.942   7.414   5.661  0.0152  0.1608  1.1390
  273MOL0     C35959   9.060   7.385   5.742  0.2855  0.1617  0.5811
  273MOL0     C35960   9.181   7.379   5.677  0.3606 -0.5077 -0.0662
  273MOL0     C35961   9.205   7.423   5.547  0.2931  0.6782  0.6732
  273MOL0     O35962   9.340   7.415   5.492  0.2779  0.1747 -0.6246
  273MOL0     C35963   9.425   7.513   5.544 -0.2414  0.2346  0.2235
  273MOL0     C35964   9.486   7.586   5.426 -0.4939  0.2890 -0.4410
  273MOL0     C35965   9.570   7.483   5.351 -0.1127 -0.1086  0.9871
  273MOL0     C35966   9.663   7.557   5.254 -0.0722 -0.2210 -0.0094
  273MOL0     C35967   9.715   7.453   5.180 -0.4895 -0.6252  0.6743
  273MOL0     C35968   9.741   7.376   5.095 -1.2469  0.7490  0.6582
  273MOL0     C35969   9.092   7.452   5.469  0.1270  0.1185 -0.3909
  273MOL0     C35970   8.964   7.445   5.532  0.5467 -0.5618 -0.3318
  273MOL0     H35971   8.580   7.276   5.829  1.1012  0.2692  1.1652
  273MOL0     H35972   8.330   7.315   5.916  0.7248 -1.9683 -1.1134
  273MOL0     H35973   8.091   7.491   5.669  2.8065  1.6513 -0.6184
  273MOL0     H35974   8.112   7.655   5.727 -2.2406  1.7142  0.5751
  273MOL0     H35975   7.982   7.620   5.910 -0.2223 -0.5953 -0.3411
  273MOL0     H35976   7.897   7.483   5.823 -0.5980  0.6127  1.5470
  273MOL0     H35977   7.942   7.745   5.677  0.6369  1.4446  1.9725
  273MOL0     H35978   7.808   7.730   5.782  2.5958 -0.0921  2.5916
  273MOL0     H35979   7.882   7.556   5.538  0.2766  1.7386 -0.8126
  273MOL0     H35980   7.752   7.521   5.666 -2.5380  2.1552  1.0135
  273MOL0     H35981   7.709   7.651   5.426 -3.0282  0.0783 -0.1024
  273MOL0     H35982   7.746   7.791   5.527  1.9151 -0.5541  0.4738
  273MOL0     H35983   7.544   7.703   5.662 -1.7653  1.1589 -0.3659
  273MOL0     H35984   7.529   7.558   5.564  1.0255 -1.1379 -1.0245
  273MOL0     H35985   7.462   7.853   5.478 -1.3040  0.4133  1.7427
  273MOL0     H35986   7.483   7.704   5.370 -0.2242  2.7639 -1.1115
  273MOL0     H35987   7.288   7.707   5.600 -0.9711 -4.7329  0.5104
  273MOL0     H35988   7.325   7.582   5.487 -0.8911 -0.0095 -0.3564
  273MOL0     H35989   7.261   7.969   5.401  1.9826 -0.5422  0.4614
  273MOL0     H35990   6.999   7.936   5.094 -0.5593  1.0716  0.1702
  273MOL0     H35991   7.140   8.035   5.138  0.8449 -0.8581 -2.2763
  273MOL0     H35992   6.890   8.115   5.168 -0.5562  1.8175  1.0784
  273MOL0     H35993   6.999   8.150   5.304 -0.3531  2.4800 -2.8836
  273MOL0     H35994   6.894   7.952   5.429  0.0785  0.1381  1.0068
  273MOL0     H35995   6.801   8.084   5.388 -1.4057 -0.7323 -0.4359
  273MOL0     H35996   6.677   7.861   5.343  2.6946 -1.4349  0.8375
  273MOL0     H35997   6.795   7.830   5.218 -1.0089  1.5566 -2.7281
  273MOL0     H35998   6.565   8.064   5.418 -1.3034 -2.6083 -0.3075
  273MOL0     H35999   6.368   8.204   5.440  1.7293 -0.2029  1.0946
  273MOL0     H36000   5.977   8.274   5.566 -4.4117 -1.2034 -1.3994
  273MOL0     H36001   5.867   8.463   5.689  0.8741  0.8879 -0.0666
  273MOL0     H36002   5.690   8.588   5.676 -3.3860  0.7901  0.0678
  273MOL0     H36003   5.684   8.561   5.505  0.1043  0.2566 -0.3089
  273MOL0     H36004   5.501   8.698   5.577 -1.1564  1.3446 -2.7741
  273MOL0     H36005   5.599   8.778   5.456  1.7541 -0.2673 -0.3097
  273MOL0     H36006   5.707   8.915   5.643  0.0059  0.9233  4.9481
  273MOL0     H36007   5.585   8.830   5.744  1.7719 -0.8557 -0.2807
  273MOL0     H36008   5.509   9.030   5.518 -3.7201 -0.6834 -1.2534
  273MOL0     H36009   5.402   8.927   5.613 -0.7138  0.6314  0.6184
  273MOL0     H36010   5.597   9.145   5.711 -1.0601  1.4018 -1.1287
  273MOL0     H36011   5.508   9.035   5.822 -4.0532  0.8022  0.8857
  273MOL0     H36012   5.362   9.217   5.629 -2.9310  1.9995  1.0883
  273MOL0     H36013   5.400   9.255   5.800  0.2102  0.2457 -0.6358
  273MOL0     H36014   5.209   9.016   5.715 -0.5366  1.4163 -0.5132
  273MOL0     H36015   5.250   9.062   5.876 -0.4341 -2.7540 -1.4295
  273MOL0     H36016   5.113   9.237   5.672 -1.2279 -1.3074 -0.5811
  273MOL0     H36017   5.144   9.285   5.836 -2.1291 -0.9664  0.1767
  273MOL0     H36018   6.008   8.724   5.369  1.3412 -0.2934 -0.4871
  273MOL0     H36019   6.171   8.550   5.301 -1.5639 -0.6905 -1.0226
  273MOL0     H36020   6.338   8.244   5.010 -0.1890 -0.4436  0.6549
  273MOL0     H36021   6.555   8.099   4.989  1.1355  1.1783  0.8829
  273MOL0     H36022   8.310   7.670   5.684 -0.7130 -0.4190 -2.6220
  273MOL0     H36023   8.531   7.638   5.592  0.0695 -0.8091 -1.0456
  273MOL0     H36024   9.046   7.363   5.847  1.3803  3.2869  1.4893
  273MOL0     H36025   9.264   7.340   5.736  0.8486 -0.0374 -0.4329
  273MOL0     H36026   9.503   7.463   5.602  0.5572  1.4045  0.1986
  273MOL0     H36027   9.382   7.584   5.616 -0.0794 -0.0222  0.5752
  273MOL0     H36028   9.416   7.636   5.358  1.0744  1.4311 -1.2973
  273MOL0     H36029   9.565   7.649   5.467  1.5146 -0.5908 -2.7085
  273MOL0     H36030   9.504   7.406   5.311  1.4689 -1.8952  1.6078
  273MOL0     H36031   9.631   7.427   5.423 -0.3379 -2.5429 -0.6142
  273MOL0     H36032   9.613   7.625   5.185  1.2387  2.5940  1.6264
  273MOL0     H36033   9.748   7.612   5.296  0.6859 -0.1333 -1.5636
  273MOL0     H36034   9.773   7.305   5.022  0.3545 -0.7939  2.7564
  273MOL0     H36035   9.094   7.470   5.362  1.9737  0.1199 -0.3879
  273MOL0     H36036   8.872   7.486   5.490 -0.1395 -0.8989  0.8099
  274MOL0     O36037   1.389   9.623   1.003  0.2408  0.7722  0.4006
  274MOL0     C36038   1.362   9.587   0.889 -0.1500 -0.4249 -0.8267
  274MOL0     O36039   1.258   9.506   0.854  0.7402 -0.6685 -0.2675
  274MOL0     C36040   1.166   9.481   0.946  0.7401  0.8767 -0.2927
  274MOL0     C36041   1.126   9.351   0.970 -0.6764  0.3238 -0.3470
  274MOL0     C36042   1.009   9.326   1.049 -0.0818 -0.8529  0.3168
  274MOL0     C36043   0.931   9.425   1.109 -1.0256 -0.8986  0.7692
  274MOL0     O36044   0.827   9.397   1.194 -0.2116  0.6254  0.1162
  274MOL0     C36045   0.806   9.270   1.250  0.2939 -0.1872  0.1995
  274MOL0     C36046   0.702   9.299   1.368  0.1967  0.6325  0.2852
  274MOL0     C36047   0.569   9.352   1.305 -0.8096  0.6240 -0.6683
  274MOL0     C36048   0.462   9.372   1.415  0.5748  0.0795  0.7291
  274MOL0     C36049   0.331   9.448   1.360  0.2068 -0.2635 -0.1766
  274MOL0     C36050   0.267   9.554   1.458  0.0366 -0.3294  0.0563
  274MOL0     C36051   0.219   9.493   1.586  0.5980  0.9753 -0.1701
  274MOL0     C36052   0.137   9.594   1.675  0.0548 -1.0574 -0.8299
  274MOL0     N36053   0.116   9.547   1.809 -0.1177  0.2087 -1.2049
  274MOL0     C36054   0.005   9.501   1.875 -0.3601  0.5614 -0.2251
  274MOL0     C36055   0.052   9.465   1.993 -0.0217 -0.0653  0.7007
  274MOL0     C36056  -0.045   9.410   2.092 -0.3201 -0.8620 -0.4663
  274MOL0     C36057   0.013   9.294   2.181  0.0389 -0.4186  0.6999
  274MOL0     C36058  -0.095   9.228   2.271  0.0888 -0.1043  0.0245
  274MOL0     C36059  -0.036   9.117   2.355  0.3165 -0.4399  0.7752
  274MOL0     O36060   0.051   9.179   2.455 -0.2573  0.5504 -0.2983
  274MOL0     C36061   0.123   9.110   2.552 -0.3220 -0.6433 -0.2284
  274MOL0     C36062   0.108   8.976   2.588  0.1761 -0.9833 -0.7422
  274MOL0     C36063   0.187   8.907   2.682  0.1210 -0.0162  0.3730
  274MOL0     C36064   0.286   8.980   2.758 -0.6754  0.0490 -0.2124
  274MOL0     C36065   0.361   8.923   2.870  0.0553  0.0895 -0.3742
  274MOL0     O36066   0.306   8.797   2.906 -0.4031  0.1371 -0.2511
  274MOL0     C36067   0.318   8.731   3.030 -0.5908 -0.1854  0.3178
  274MOL0     C36068   0.407   8.772   3.141  1.7195 -0.4130 -0.8646
  274MOL0     C36069   0.398   8.691   3.258  0.4878  0.0807 -0.1896
  274MOL0     C36070   0.301   8.584   3.277 -0.2072  0.5651  1.3796
  274MOL0     O36071   0.299   8.500   3.380 -0.5206  0.0930  0.5276
  274MOL0     C36072   0.406   8.505   3.477  0.1359  0.1575  0.9029
  274MOL0     C36073   0.391   8.392   3.572  1.1959 -0.3511 -0.0721
  274MOL0     C36074   0.334   8.426   3.709  0.3328  0.0581 -0.7620
  274MOL0     C36075   0.417   8.527   3.785 -0.5190  0.5147 -0.4185
  274MOL0     C36076   0.334   8.587   3.894 -0.4367  0.4010  0.1242
  274MOL0     C36077   0.252   8.711   3.868  0.4038  0.1256  0.8678
  274MOL0     C36078   0.167   8.744   4.000 -0.5860  0.5993 -1.3795
  274MOL0     C36079   0.041   8.654   4.012  0.5301  1.3794  0.1972
  274MOL0    Cl36080  -0.041   8.704   4.170  0.3708  0.7767  0.3133
  274MOL0     C36081   0.224   8.545   3.169  0.4814 -0.8479  0.5401
  274MOL0     C36082   0.225   8.628   3.055 -0.5695 -0.0984  0.7771
  274MOL0     O36083   0.469   8.969   2.897 -0.1983  0.3056 -0.3598
  274MOL0     C36084   0.308   9.119   2.719 -0.8760 -0.6379  0.4777
  274MOL0     C36085   0.231   9.180   2.617  0.6224 -0.4066  0.2734
  274MOL0     N36086   0.185   9.487   1.996  0.6974 -0.0994 -0.6051
  274MOL0     N36087   0.229   9.547   1.893  0.6536 -0.1043 -0.0197
  274MOL0     C36088   0.971   9.559   1.080  0.5949 -0.7725 -0.6813
  274MOL0     C36089   1.085   9.589   0.994  0.0296  0.5650  0.4611
  274MOL0     C36090   1.469   9.616   0.786 -0.4775 -0.1278 -0.6994
  274MOL0     C36091   1.556   9.724   0.804  0.2576  0.3137 -0.3320
  274MOL0     C36092   1.671   9.728   0.733 -0.5311 -0.1116  0.9903
  274MOL0     C36093   1.691   9.643   0.619 -0.1946  0.0131  0.0002
  274MOL0     O36094   1.801   9.652   0.538  0.7056  1.0886  0.1221
  274MOL0     C36095   1.917   9.711   0.586  0.2600  0.8691  0.3819
  274MOL0     C36096   1.919   9.868   0.557  0.4691 -0.6238  0.1180
  274MOL0     C36097   2.064   9.912   0.592 -0.0756 -0.1915  0.1530
  274MOL0     C36098   2.048  10.066   0.597  0.6999 -0.1181 -0.1643
  274MOL0     C36099   2.165  10.137   0.656  0.2643  0.2638 -0.6788
  274MOL0     C36100   2.247  10.186   0.734 -0.8642 -0.0491  0.6172
  274MOL0     C36101   1.590   9.547   0.584 -0.0367  0.4490  0.2890
  274MOL0     C36102   1.484   9.535   0.670 -0.1731 -0.8256  0.3185
  274MOL0     H36103   1.187   9.265   0.943  0.5944  1.4124 -1.0346
  274MOL0     H36104   0.979   9.223   1.065 -3.6832 -0.1337 -0.9255
  274MOL0     H36105   0.901   9.223   1.279  0.7225  0.9267  0.6673
  274MOL0     H36106   0.768   9.206   1.170  1.0930  1.6294 -1.7519
  274MOL0     H36107   0.727   9.369   1.448  1.6641  1.2136 -0.6345
  274MOL0     H36108   0.685   9.207   1.424 -2.0800 -0.8830 -2.5943
  274MOL0     H36109   0.531   9.279   1.234 -2.4342  0.8840 -0.1045
  274MOL0     H36110   0.590   9.444   1.250  3.7856  0.3471  0.1440
  274MOL0     H36111   0.444   9.277   1.466  0.6709  1.2298  3.0029
  274MOL0     H36112   0.499   9.436   1.495 -0.2184  1.3176  0.1477
  274MOL0     H36113   0.259   9.370   1.334  0.7961 -0.7637 -0.3283
  274MOL0     H36114   0.356   9.490   1.262  1.6260  0.5519  0.4883
  274MOL0     H36115   0.185   9.600   1.402  1.2447  0.4089 -1.1673
  274MOL0     H36116   0.336   9.635   1.482 -2.3530  2.0809 -0.6966
  274MOL0     H36117   0.152   9.410   1.565  0.0385  2.0787 -3.2278
  274MOL0     H36118   0.305   9.450   1.638  0.9102 -0.1849 -1.5943
  274MOL0     H36119   0.039   9.610   1.630 -0.2462 -2.8775 -0.8988
  274MOL0     H36120   0.194   9.688   1.681 -2.0765  0.2786 -0.3193
  274MOL0     H36121  -0.098   9.504   1.842  0.0225  3.8438 -1.5621
  274MOL0     H36122  -0.136   9.384   2.037 -0.3655  0.4303 -1.0246
  274MOL0     H36123  -0.065   9.494   2.159  1.9979  0.0988 -0.8856
  274MOL0     H36124   0.085   9.344   2.246 -0.7458 -0.3619  1.5584
  274MOL0     H36125   0.056   9.232   2.102  2.5062  0.8378  0.9572
  274MOL0     H36126  -0.147   9.302   2.332 -0.8714 -1.3351  0.7512
  274MOL0     H36127  -0.174   9.177   2.215  0.1377 -1.2138  0.9317
  274MOL0     H36128   0.022   9.050   2.290 -2.1793 -1.7876 -0.2142
  274MOL0     H36129  -0.110   9.047   2.396  1.4616 -2.3986 -0.3275
  274MOL0     H36130   0.025   8.918   2.548  0.0599 -0.2961 -1.5065
  274MOL0     H36131   0.157   8.808   2.716 -0.2552 -0.0552 -0.0659
  274MOL0     H36132   0.486   8.845   3.128  0.4260  1.7420  2.1118
  274MOL0     H36133   0.475   8.705   3.333 -0.3790 -1.6639  1.0919
  274MOL0     H36134   0.405   8.607   3.516  0.7005  1.2398 -1.7171
  274MOL0     H36135   0.503   8.478   3.435  0.5613 -1.8510  2.9489
  274MOL0     H36136   0.486   8.341   3.589 -0.3912 -3.3871  0.5249
  274MOL0     H36137   0.322   8.316   3.533  0.4367  0.7995 -1.0593
  274MOL0     H36138   0.342   8.334   3.767 -1.2262  0.4241  0.0812
  274MOL0     H36139   0.233   8.468   3.702  0.2251 -0.2657 -1.1817
  274MOL0     H36140   0.513   8.488   3.820 -0.4869  0.5904 -0.4210
  274MOL0     H36141   0.437   8.621   3.733  0.4007  1.9028  2.2717
  274MOL0     H36142   0.404   8.612   3.974 -0.0816 -0.2551  0.0233
  274MOL0     H36143   0.270   8.508   3.935  2.0531 -0.3959  2.7833
  274MOL0     H36144   0.187   8.691   3.782 -0.7856  2.1228  1.2514
  274MOL0     H36145   0.313   8.797   3.838 -0.0717 -0.0228 -0.6438
  274MOL0     H36146   0.223   8.736   4.094 -3.8788 -0.2960  0.7008
  274MOL0     H36147   0.130   8.846   3.991 -3.0799  0.2009  2.2993
  274MOL0     H36148   0.072   8.550   4.031  3.4033  2.3565  1.3624
  274MOL0     H36149  -0.025   8.653   3.925  2.2835  1.6817 -1.1949
  274MOL0     H36150   0.163   8.456   3.181  0.0314 -0.4538  1.2512
  274MOL0     H36151   0.155   8.610   2.974  0.7060 -1.1178 -0.1631
  274MOL0     H36152   0.392   9.172   2.763 -0.1443  0.8275 -2.3727
  274MOL0     H36153   0.255   9.279   2.580  0.5903 -0.5147 -0.0448
  274MOL0     H36154   0.911   9.644   1.113  1.3554 -0.0973 -1.0126
  274MOL0     H36155   1.113   9.688   0.959 -0.1444  0.1565 -0.9126
  274MOL0     H36156   1.541   9.782   0.894 -2.9030 -2.2921  1.0192
  274MOL0     H36157   1.747   9.798   0.766 -0.7143  1.7465 -2.0495
  274MOL0     H36158   2.000   9.659   0.537  0.7885 -2.4112  4.2782
  274MOL0     H36159   1.937   9.696   0.692  0.1905  0.1372  0.2966
  274MOL0     H36160   1.901   9.876   0.450  2.1273 -6.5695 -0.9965
  274MOL0     H36161   1.845   9.924   0.615  0.2209 -1.3468  0.5151
  274MOL0     H36162   2.120   9.874   0.506 -2.9858 -1.1368 -1.4780
  274MOL0     H36163   2.095   9.884   0.693  0.7897 -0.7272 -0.2576
  274MOL0     H36164   2.032  10.100   0.494 -0.0029  0.9337  0.2830
  274MOL0     H36165   1.956  10.083   0.652  0.2051 -3.4201  0.2626
  274MOL0     H36166   2.320  10.239   0.792  0.7022 -2.0642  0.5784
  274MOL0     H36167   1.581   9.503   0.485 -0.3160  0.3638  0.3515
  274MOL0     H36168   1.400   9.468   0.654 -2.0270  1.3470  0.4024
  275MOL0     O36169   0.017   5.042   5.002 -0.2207  0.7400  0.6096
  275MOL0     C36170   0.084   5.072   5.099  0.5673 -0.1904 -0.1396
  275MOL0     O36171   0.050   5.146   5.205  0.3964 -0.0429  0.0994
  275MOL0     C36172  -0.083   5.189   5.195 -0.4962  0.1455  0.1954
  275MOL0     C36173  -0.163   5.170   5.308 -0.8006 -0.0538  0.1219
  275MOL0     C36174  -0.298   5.194   5.301  0.0479 -0.0065  0.1954
  275MOL0     C36175  -0.361   5.241   5.182  0.6538  0.4839  0.4056
  275MOL0     O36176  -0.502   5.240   5.182 -0.1077  0.1489  0.3046
  275MOL0     C36177  -0.573   5.271   5.058 -0.0721  0.8815 -1.1443
  275MOL0     C36178  -0.585   5.418   5.052  0.1297 -0.5981 -0.5505
  275MOL0     C36179  -0.651   5.486   5.178  0.0422 -0.7216  0.1334
  275MOL0     C36180  -0.652   5.647   5.178  0.0338  0.6948 -0.5006
  275MOL0     C36181  -0.755   5.702   5.281 -0.0637  0.2680  0.5623
  275MOL0     C36182  -0.728   5.629   5.419 -0.0029 -0.6501 -0.1167
  275MOL0     C36183  -0.825   5.676   5.516  0.0570  0.1035 -0.9453
  275MOL0     C36184  -0.968   5.609   5.492 -0.0166 -0.1034 -0.2949
  275MOL0     N36185  -1.086   5.648   5.583 -0.3484 -0.4633  0.5404
  275MOL0     C36186  -1.111   5.623   5.717  0.4625  0.7075  0.4043
  275MOL0     C36187  -1.210   5.713   5.749  0.3845 -0.0998 -0.8075
  275MOL0     C36188  -1.295   5.711   5.878 -0.1344 -0.0093 -0.7237
  275MOL0     C36189  -1.377   5.577   5.897  0.6060 -0.1178 -0.4000
  275MOL0     C36190  -1.489   5.558   5.787 -0.0336 -0.3899  0.5934
  275MOL0     C36191  -1.622   5.518   5.849 -0.8824  0.0956  0.1059
  275MOL0     O36192  -1.714   5.514   5.747 -0.3635 -0.2633 -0.2722
  275MOL0     C36193  -1.837   5.470   5.785  0.8449  0.7124  0.0644
  275MOL0     C36194  -1.883   5.461   5.917 -0.3681  0.1248 -0.4203
  275MOL0     C36195  -2.003   5.416   5.955 -0.3237 -0.1456 -0.3512
  275MOL0     C36196  -2.094   5.379   5.851  0.0151  0.1588  0.1877
  275MOL0     C36197  -2.230   5.323   5.886 -0.5283 -0.1261 -0.4775
  275MOL0     O36198  -2.255   5.291   6.022  0.3081 -1.0780  0.0120
  275MOL0     C36199  -2.388   5.278   6.061 -0.2677  0.4350  0.7021
  275MOL0     C36200  -2.453   5.393   6.119 -0.4205  0.6209  0.0661
  275MOL0     C36201  -2.594   5.398   6.146  0.5255 -0.2455  1.4502
  275MOL0     C36202  -2.667   5.283   6.118  0.1802  0.0770  0.2427
  275MOL0     O36203  -2.794   5.266   6.164 -0.2202 -0.1568 -0.3828
  275MOL0     C36204  -2.858   5.382   6.218 -0.1091  0.0615  0.0247
  275MOL0     C36205  -2.993   5.352   6.272 -0.4204  0.2138  0.2908
  275MOL0     C36206  -3.083   5.464   6.314  0.5971 -0.0103 -0.3905
  275MOL0     C36207  -3.222   5.406   6.341  0.1959  0.8569  0.4481
  275MOL0     C36208  -3.340   5.504   6.322 -0.5529 -0.2349  0.0407
  275MOL0     C36209  -3.473   5.441   6.297  0.2142 -0.5284  0.5820
  275MOL0     C36210  -3.588   5.556   6.273 -0.5957  0.0277  0.0439
  275MOL0     C36211  -3.709   5.488   6.213  0.0870 -0.1168  0.2409
  275MOL0    Cl36212  -3.782   5.349   6.309  0.1415  0.2635 -0.5889
  275MOL0     C36213  -2.605   5.164   6.069  0.3585  0.1716 -0.9097
  275MOL0     C36214  -2.470   5.168   6.034  0.2349  0.3726 -0.5789
  275MOL0     O36215  -2.315   5.316   5.797 -0.1890 -0.2054  0.2680
  275MOL0     C36216  -2.047   5.398   5.715  0.7170  0.6221  0.9389
  275MOL0     C36217  -1.922   5.441   5.679  0.0674 -0.4099 -1.5109
  275MOL0     N36218  -1.255   5.772   5.624 -0.2954  0.0851 -0.6558
  275MOL0     N36219  -1.178   5.734   5.530  0.5092 -0.1520 -0.2364
  275MOL0     C36220  -0.282   5.268   5.072  0.3520  0.2107  0.7174
  275MOL0     C36221  -0.140   5.249   5.084  0.9228  0.8727  1.1732
  275MOL0     C36222   0.215   5.006   5.091 -0.0825 -0.2454 -0.4113
  275MOL0     C36223   0.305   5.023   5.196 -0.7387 -0.9521  0.4195
  275MOL0     C36224   0.438   4.967   5.199 -0.0934  0.6423 -0.0601
  275MOL0     C36225   0.487   4.913   5.081  0.3029  0.1513  0.0501
  275MOL0     O36226   0.615   4.871   5.072 -0.2222  0.1113 -0.0294
  275MOL0     C36227   0.683   4.934   4.965  1.0653  0.0053 -0.1073
  275MOL0     C36228   0.826   4.946   5.007  0.2715  0.1738 -0.4408
  275MOL0     C36229   0.908   5.013   4.892  0.1721 -0.5626 -0.4754
  275MOL0     C36230   1.054   5.045   4.940  0.6996  0.6670 -0.2035
  275MOL0     C36231   1.140   5.101   4.836 -0.7609  0.6196  0.4404
  275MOL0     C36232   1.211   5.144   4.744  0.2509  0.9581  1.2716
  275MOL0     C36233   0.402   4.891   4.985  0.2406 -0.8444 -0.2427
  275MOL0     C36234   0.271   4.926   4.987 -1.3200 -1.2696 -0.1864
  275MOL0     H36235  -0.102   5.148   5.395  2.4035  3.2198 -0.9894
  275MOL0     H36236  -0.367   5.173   5.382  0.2654  2.6028  1.1443
  275MOL0     H36237  -0.672   5.225   5.058  1.0262 -1.6889 -0.9269
  275MOL0     H36238  -0.529   5.231   4.966 -0.8190 -2.6324 -0.1633
  275MOL0     H36239  -0.635   5.452   4.961  0.5025  1.2688 -0.0967
  275MOL0     H36240  -0.487   5.467   5.054 -0.2491  0.2209 -1.2556
  275MOL0     H36241  -0.606   5.450   5.271  2.3133  5.2507  1.8045
  275MOL0     H36242  -0.752   5.447   5.194  0.0638 -0.1289  1.9623
  275MOL0     H36243  -0.557   5.693   5.206  0.7453 -1.7084  1.2942
  275MOL0     H36244  -0.679   5.670   5.074  1.8139  0.4937 -1.0420
  275MOL0     H36245  -0.856   5.674   5.247 -1.1806 -0.4088  4.0870
  275MOL0     H36246  -0.750   5.809   5.303  0.8235  0.0281  1.5354
  275MOL0     H36247  -0.628   5.653   5.456  0.2144 -3.0408  1.0496
  275MOL0     H36248  -0.722   5.519   5.417  1.5523 -0.5843 -2.2958
  275MOL0     H36249  -0.789   5.660   5.619 -0.9575  2.3233 -0.1822
  275MOL0     H36250  -0.841   5.784   5.510 -2.7653 -0.2812 -1.8941
  275MOL0     H36251  -0.958   5.507   5.531  0.0973  1.3330  3.8860
  275MOL0     H36252  -0.997   5.611   5.386 -3.3994 -1.2460  0.4812
  275MOL0     H36253  -1.057   5.561   5.788 -0.0270  3.3636  3.3219
  275MOL0     H36254  -1.351   5.804   5.893  0.2868 -0.1837  2.5339
  275MOL0     H36255  -1.217   5.712   5.954 -0.0051 -1.9807 -0.7789
  275MOL0     H36256  -1.424   5.581   5.995 -0.1726 -1.3338 -0.6961
  275MOL0     H36257  -1.304   5.496   5.891  1.7707  0.6846  1.9326
  275MOL0     H36258  -1.511   5.652   5.735 -1.1470  0.0046  1.7370
  275MOL0     H36259  -1.461   5.485   5.711  0.8391  1.4526 -0.9504
  275MOL0     H36260  -1.655   5.589   5.926  4.5328 -0.7505  3.8421
  275MOL0     H36261  -1.617   5.421   5.900 -1.4497 -0.8900 -1.6490
  275MOL0     H36262  -1.819   5.491   6.000 -2.3935  0.4007  1.1219
  275MOL0     H36263  -2.025   5.384   6.056 -1.3969  0.1315 -0.4864
  275MOL0     H36264  -2.388   5.473   6.152  1.2531  0.2692 -2.1393
  275MOL0     H36265  -2.633   5.488   6.192  0.6415  0.8280 -0.4675
  275MOL0     H36266  -2.869   5.445   6.130  1.0315 -1.2380 -1.1125
  275MOL0     H36267  -2.795   5.424   6.297  2.3431 -1.8723 -0.7399
  275MOL0     H36268  -2.973   5.280   6.352  0.4829 -0.3001 -0.3725
  275MOL0     H36269  -3.045   5.288   6.200 -0.8777  0.3833  0.4656
  275MOL0     H36270  -3.095   5.544   6.240 -0.2434  1.6699  1.4581
  275MOL0     H36271  -3.043   5.511   6.404  2.0497 -1.5377 -0.2006
  275MOL0     H36272  -3.244   5.326   6.270 -0.5385  1.8648 -0.4855
  275MOL0     H36273  -3.208   5.366   6.442  1.3296  0.6822  0.2329
  275MOL0     H36274  -3.321   5.568   6.235  1.6878 -0.2507  0.4613
  275MOL0     H36275  -3.341   5.576   6.404  0.7393  1.6504 -1.5000
  275MOL0     H36276  -3.490   5.376   6.384 -1.4582 -0.9818 -0.0397
  275MOL0     H36277  -3.461   5.367   6.218  2.4028 -1.8569  2.0590
  275MOL0     H36278  -3.610   5.603   6.369  1.8585  0.7443  0.3280
  275MOL0     H36279  -3.554   5.633   6.203  1.8550 -0.6121  0.4210
  275MOL0     H36280  -3.688   5.454   6.111 -0.5573  1.6183 -0.5114
  275MOL0     H36281  -3.789   5.559   6.191 -2.0158 -2.1785  0.8957
  275MOL0     H36282  -2.654   5.067   6.065  0.2293  0.2712 -2.5678
  275MOL0     H36283  -2.434   5.075   5.991  1.6410  0.5740  0.1003
  275MOL0     H36284  -2.113   5.377   5.632  1.7236  0.6078  0.1351
  275MOL0     H36285  -1.895   5.462   5.576  1.7746 -0.9710 -1.2167
  275MOL0     H36286  -0.326   5.281   4.974  1.6019 -3.2000 -0.4645
  275MOL0     H36287  -0.074   5.272   5.001 -1.5647 -1.6494 -1.7470
  275MOL0     H36288   0.274   5.080   5.283 -0.6648 -0.1625 -0.0615
  275MOL0     H36289   0.503   4.970   5.286 -1.1031  0.5882  0.7081
  275MOL0     H36290   0.645   5.035   4.947 -2.0087 -0.5472  2.5218
  275MOL0     H36291   0.664   4.869   4.878 -0.4754 -2.2475  1.8056
  275MOL0     H36292   0.834   5.024   5.085  1.4986  0.6751 -1.0398
  275MOL0     H36293   0.866   4.850   5.038 -1.3648 -0.1107  0.9522
  275MOL0     H36294   0.857   5.108   4.872  1.5801  0.1116 -0.9614
  275MOL0     H36295   0.915   4.951   4.802  0.3094  2.2700 -2.5564
  275MOL0     H36296   1.058   5.113   5.026 -1.7126  0.5486  0.0627
  275MOL0     H36297   1.091   4.944   4.963 -2.1013 -1.4197 -3.7699
  275MOL0     H36298   1.252   5.198   4.661  0.1073 -0.5765  0.1646
  275MOL0     H36299   0.440   4.844   4.894 -0.2509  1.5897 -1.8137
  275MOL0     H36300   0.221   4.899   4.895  0.7232 -0.2457 -1.6868
  276MOL0     O36301   4.510   3.762   6.723  0.0382 -0.8388 -0.3555
  276MOL0     C36302   4.586   3.733   6.818  0.7748  0.6272  0.8884
  276MOL0     O36303   4.558   3.748   6.955  0.7285 -0.0890 -0.4219
  276MOL0     C36304   4.441   3.797   7.004  0.6268 -0.3051  0.7171
  276MOL0     C36305   4.326   3.856   6.937 -0.0825 -0.3013  0.1270
  276MOL0     C36306   4.213   3.905   6.999 -0.0598 -0.0045 -0.9032
  276MOL0     C36307   4.192   3.876   7.132 -0.9014  0.5885  0.1100
  276MOL0     O36308   4.075   3.901   7.194  0.3593  0.3896  0.2531
  276MOL0     C36309   4.036   4.042   7.169 -0.5691  0.7879  0.5584
  276MOL0     C36310   3.931   4.082   7.282 -0.0691  0.3353  0.3969
  276MOL0     C36311   3.792   4.037   7.263 -0.9921  0.1390 -0.1275
  276MOL0     C36312   3.691   4.086   7.376 -0.0543 -0.1496 -0.0536
  276MOL0     C36313   3.561   3.999   7.360 -0.0398  0.7976  0.3033
  276MOL0     C36314   3.460   4.025   7.469  0.6054  0.0451  0.6487
  276MOL0     C36315   3.347   3.918   7.454  0.2171 -0.0865  0.2833
  276MOL0     C36316   3.240   3.941   7.566  0.2292 -0.8824  0.5336
  276MOL0     N36317   3.141   3.838   7.565  0.2427 -0.0153  0.1690
  276MOL0     C36318   3.042   3.826   7.469 -0.3327 -0.3001  0.9718
  276MOL0     C36319   2.995   3.704   7.477 -0.3286 -0.7362  0.7843
  276MOL0     C36320   2.899   3.639   7.382  0.1446 -0.2080  0.2490
  276MOL0     C36321   2.775   3.606   7.454  0.0183  0.0974 -0.5727
  276MOL0     C36322   2.733   3.455   7.457  0.4495  0.1597 -0.9987
  276MOL0     C36323   2.636   3.442   7.576  0.0959 -0.5998  0.1350
  276MOL0     O36324   2.580   3.315   7.578 -0.3682  0.0553 -0.4517
  276MOL0     C36325   2.444   3.298   7.588 -0.0569 -0.0957  0.1672
  276MOL0     C36326   2.396   3.177   7.533  0.4200  1.0944  0.4282
  276MOL0     C36327   2.267   3.128   7.559  0.2627 -0.8037  0.1732
  276MOL0     C36328   2.179   3.210   7.627  0.2314 -0.8273 -0.4551
  276MOL0     C36329   2.043   3.160   7.653  0.4854 -0.5620 -0.6180
  276MOL0     O36330   1.940   3.258   7.667  0.4633  0.7605 -0.1269
  276MOL0     C36331   1.811   3.210   7.660 -0.1470 -0.5272  1.4097
  276MOL0     C36332   1.717   3.280   7.746 -0.9799  0.2602 -0.1925
  276MOL0     C36333   1.591   3.240   7.750 -0.3709  0.4100  0.0662
  276MOL0     C36334   1.547   3.122   7.694 -0.3240  0.2698 -0.9504
  276MOL0     O36335   1.413   3.084   7.719 -0.0964 -0.8828  0.2893
  276MOL0     C36336   1.360   2.969   7.651  0.9952  0.1961 -0.3233
  276MOL0     C36337   1.214   2.937   7.711 -0.7973 -0.4215 -0.5880
  276MOL0     C36338   1.117   3.043   7.674 -0.1115  0.7452 -1.0520
  276MOL0     C36339   1.129   3.175   7.753  1.3223 -0.0498 -0.1744
  276MOL0     C36340   1.004   3.263   7.726  0.1372  0.0308 -0.3960
  276MOL0     C36341   0.979   3.296   7.576 -0.5193  0.7096  0.5129
  276MOL0     C36342   1.101   3.364   7.500 -0.5063 -0.1351  0.6919
  276MOL0     C36343   1.082   3.373   7.344  0.0912  0.5880 -0.3881
  276MOL0    Cl36344   1.024   3.209   7.286  0.0649  0.0558 -0.4013
  276MOL0     C36345   1.629   3.052   7.608 -0.0086  0.1767 -0.1528
  276MOL0     C36346   1.759   3.101   7.590  0.2003  0.7393 -0.2630
  276MOL0     O36347   2.019   3.040   7.651  0.0041 -0.8980  0.5883
  276MOL0     C36348   2.213   3.343   7.660 -1.0156 -0.0843  1.0127
  276MOL0     C36349   2.350   3.383   7.638  0.1980 -1.3888 -0.3150
  276MOL0     N36350   3.063   3.639   7.582  0.1172 -0.1788 -0.3467
  276MOL0     N36351   3.150   3.717   7.641 -0.1617 -0.6562  1.0741
  276MOL0     C36352   4.292   3.806   7.204  0.2797  1.2724 -0.0342
  276MOL0     C36353   4.415   3.776   7.138 -0.1174 -0.4349 -0.3548
  276MOL0     C36354   4.716   3.718   6.765  0.3730  0.2000 -0.1645
  276MOL0     C36355   4.749   3.667   6.634 -1.0238 -0.5317 -0.3833
  276MOL0     C36356   4.883   3.642   6.599  0.1705 -1.1488  0.5680
  276MOL0     C36357   4.987   3.680   6.689 -0.1959 -0.1094 -0.3216
  276MOL0     O36358   5.115   3.648   6.652 -0.2767  0.3303  0.1713
  276MOL0     C36359   5.214   3.645   6.753 -0.4022 -0.4010  0.2866
  276MOL0     C36360   5.279   3.783   6.777 -0.6891  1.2362  0.3394
  276MOL0     C36361   5.358   3.826   6.655  0.6568 -0.5825 -0.3479
  276MOL0     C36362   5.496   3.767   6.649  0.3343 -0.6772  0.5300
  276MOL0     C36363   5.499   3.636   6.591  0.2620 -0.5145 -0.2133
  276MOL0     C36364   5.507   3.523   6.554  0.5457  0.9104  0.3058
  276MOL0     C36365   4.954   3.745   6.814  0.5492 -0.1629  0.7178
  276MOL0     C36366   4.823   3.754   6.848  0.5287 -0.4511  0.0716
  276MOL0     H36367   4.322   3.881   6.832 -2.0933 -0.4976  0.1147
  276MOL0     H36368   4.143   3.968   6.946  1.0845  2.1992  0.0472
  276MOL0     H36369   3.999   4.062   7.068 -2.5635  1.3530  1.3547
  276MOL0     H36370   4.129   4.098   7.184 -0.8120  0.7822  2.3065
  276MOL0     H36371   3.937   4.189   7.307  1.1705  1.7847 -4.8278
  276MOL0     H36372   3.961   4.035   7.376 -0.0897 -0.0644  0.2041
  276MOL0     H36373   3.785   3.928   7.258  0.5658 -0.0847  1.7704
  276MOL0     H36374   3.773   4.078   7.163 -1.1505  0.9064  0.2140
  276MOL0     H36375   3.734   4.070   7.475  1.6345  0.6602 -0.6020
  276MOL0     H36376   3.671   4.192   7.354 -3.2808 -0.9383 -1.4647
  276MOL0     H36377   3.587   3.893   7.369 -1.2917  0.2729 -1.6394
  276MOL0     H36378   3.521   4.001   7.258  2.9367 -1.5692 -1.0844
  276MOL0     H36379   3.415   4.124   7.456 -0.8741 -0.8932 -2.3645
  276MOL0     H36380   3.515   4.019   7.563  4.6783 -2.1400 -1.6012
  276MOL0     H36381   3.291   3.911   7.360 -3.7104  0.3105  2.3891
  276MOL0     H36382   3.387   3.820   7.478 -0.2955  0.1658  2.2687
  276MOL0     H36383   3.196   4.041   7.559 -1.1112 -1.4872 -0.1194
  276MOL0     H36384   3.284   3.932   7.665 -0.4511 -1.7397  0.7667
  276MOL0     H36385   3.009   3.900   7.397  1.5029 -1.6560 -1.3852
  276MOL0     H36386   2.944   3.548   7.342 -3.4081 -1.8521 -0.3142
  276MOL0     H36387   2.873   3.709   7.302  1.4878  0.4913  0.3833
  276MOL0     H36388   2.691   3.665   7.415 -0.5965  0.9877  1.8898
  276MOL0     H36389   2.778   3.642   7.557  0.5705 -0.1467 -0.4989
  276MOL0     H36390   2.691   3.434   7.358  1.2167 -2.4930 -0.8525
  276MOL0     H36391   2.810   3.378   7.471 -0.3662 -0.3061  1.4672
  276MOL0     H36392   2.564   3.524   7.562  1.3697  0.4981 -0.1511
  276MOL0     H36393   2.691   3.456   7.669 -1.6567 -0.9858  1.2849
  276MOL0     H36394   2.457   3.100   7.486 -0.7056  1.3986 -1.6385
  276MOL0     H36395   2.237   3.031   7.522 -1.0856 -2.1273  4.2104
  276MOL0     H36396   1.757   3.359   7.809  1.0238 -0.7887 -0.1021
  276MOL0     H36397   1.515   3.286   7.812  0.8631  0.6611  1.4347
  276MOL0     H36398   1.412   2.879   7.685 -0.3564 -0.0355  1.2243
  276MOL0     H36399   1.374   2.975   7.543 -2.3682 -0.7191 -0.9259
  276MOL0     H36400   1.217   2.923   7.819  1.4033 -1.3741 -0.7280
  276MOL0     H36401   1.171   2.841   7.682  2.2922 -2.9297  2.3142
  276MOL0     H36402   1.017   2.998   7.682  1.5508 -3.0158  3.5621
  276MOL0     H36403   1.137   3.061   7.569  2.8512 -0.1047 -0.7230
  276MOL0     H36404   1.136   3.148   7.858  0.0831 -0.3209 -0.1488
  276MOL0     H36405   1.220   3.221   7.712  1.8978 -0.7777  0.2535
  276MOL0     H36406   1.023   3.354   7.784  1.1317 -0.4932  0.1371
  276MOL0     H36407   0.910   3.220   7.760 -1.4928  1.4045 -2.8549
  276MOL0     H36408   0.898   3.370   7.570 -0.9514  0.2746  0.9416
  276MOL0     H36409   0.947   3.208   7.520  0.4996  1.0185 -0.6041
  276MOL0     H36410   1.120   3.463   7.543  2.4157 -1.1135  1.9245
  276MOL0     H36411   1.198   3.315   7.514  0.0349  0.1395 -1.7086
  276MOL0     H36412   1.183   3.385   7.303  1.0842  1.2544  2.0771
  276MOL0     H36413   1.012   3.455   7.324  0.4696  1.6404  2.2444
  276MOL0     H36414   1.603   2.961   7.553  0.0024 -0.0975  0.2926
  276MOL0     H36415   1.808   3.022   7.533 -3.5036 -2.0546  0.0372
  276MOL0     H36416   2.144   3.412   7.708  1.0442  3.0977 -0.2399
  276MOL0     H36417   2.380   3.478   7.683 -3.0132 -0.4399  0.0620
  276MOL0     H36418   4.270   3.777   7.306 -5.5077 -1.0538 -1.5067
  276MOL0     H36419   4.482   3.716   7.199 -0.5722  1.9207  2.7248
  276MOL0     H36420   4.690   3.627   6.552 -0.8495 -2.0121  0.1845
  276MOL0     H36421   4.908   3.599   6.502 -0.2185  0.1948 -0.1437
  276MOL0     H36422   5.294   3.574   6.731  0.8104  1.3755 -1.3754
  276MOL0     H36423   5.171   3.614   6.849  1.7034 -0.8743  1.1243
  276MOL0     H36424   5.194   3.845   6.805 -1.4176 -0.5096  2.3104
  276MOL0     H36425   5.354   3.767   6.855  0.5138 -0.3116 -1.0650
  276MOL0     H36426   5.356   3.935   6.654  4.2882 -0.3978 -1.1093
  276MOL0     H36427   5.294   3.803   6.569 -2.1367  2.4805  0.7360
  276MOL0     H36428   5.540   3.834   6.575 -1.5453  0.7066  0.5973
  276MOL0     H36429   5.559   3.772   6.738  2.3666 -2.0723 -0.7470
  276MOL0     H36430   5.517   3.419   6.529 -0.9500  0.6400  0.7741
  276MOL0     H36431   5.021   3.762   6.898  0.8162  1.0726  0.2778
  276MOL0     H36432   4.791   3.785   6.947 -0.9689  0.3582 -0.6280
  277MOL0     O36433  10.444   9.857   5.091 -0.0878  0.0906  0.3284
  277MOL0     C36434  10.492   9.746   5.059 -0.5743  0.1719 -0.0589
  277MOL0     O36435  10.423   9.652   4.991 -0.2598 -0.2526  0.5144
  277MOL0     C36436  10.297   9.662   4.948  0.9249 -0.2344 -0.0412
  277MOL0     C36437  10.242   9.785   4.906 -0.5347 -0.2000  0.4549
  277MOL0     C36438  10.119   9.783   4.838  0.2800  0.2881  0.0791
  277MOL0     C36439  10.049   9.670   4.814  0.3683 -0.4906  0.2254
  277MOL0     O36440   9.920   9.683   4.764  0.8263  1.0425  0.7241
  277MOL0     C36441   9.846   9.570   4.709 -0.5531 -0.7069  0.4889
  277MOL0     C36442   9.778   9.522   4.832  0.3010  0.2631 -0.6999
  277MOL0     C36443   9.638   9.586   4.832  0.8089  0.0368 -0.2348
  277MOL0     C36444   9.543   9.531   4.728  0.0725  0.3605 -0.6858
  277MOL0     C36445   9.398   9.584   4.762 -0.5016  0.4492  0.2542
  277MOL0     C36446   9.293   9.529   4.657 -0.2733 -1.0780 -0.2834
  277MOL0     C36447   9.310   9.615   4.529  0.4054  0.6754  0.0879
  277MOL0     C36448   9.255   9.761   4.555  0.4472 -0.6789 -0.0214
  277MOL0     N36449   9.104   9.760   4.568 -0.2572  0.3546 -0.0740
  277MOL0     C36450   9.032   9.860   4.606  0.3391 -0.7119 -1.0778
  277MOL0     C36451   8.903   9.824   4.598  0.1571 -0.1025 -0.2158
  277MOL0     C36452   8.803   9.900   4.678  0.9204  0.2233 -0.8201
  277MOL0     C36453   8.734   9.813   4.782  0.5876  0.2097 -0.8552
  277MOL0     C36454   8.657   9.900   4.886  0.4765 -0.2454  0.3975
  277MOL0     C36455   8.525   9.830   4.927 -0.0971 -0.0583  1.3649
  277MOL0     O36456   8.468   9.904   5.040 -0.9383 -0.9264  0.8503
  277MOL0     C36457   8.344   9.866   5.086  0.4442 -0.1791 -0.6319
  277MOL0     C36458   8.296   9.938   5.199 -0.9595  0.0566 -0.3096
  277MOL0     C36459   8.171   9.899   5.249 -0.4971  0.2566  0.3841
  277MOL0     C36460   8.102   9.796   5.193  0.9374  0.1161  0.4847
  277MOL0     C36461   7.959   9.763   5.246 -0.4013 -0.8421 -0.2982
  277MOL0     O36462   7.893   9.683   5.166  0.0652  0.6291 -0.9293
  277MOL0     C36463   7.763   9.647   5.184  0.7274 -0.5810 -0.7294
  277MOL0     C36464   7.668   9.722   5.252 -0.9909 -1.6393 -0.8283
  277MOL0     C36465   7.542   9.680   5.278  0.6112  0.3705  0.4766
  277MOL0     C36466   7.502   9.558   5.226 -0.1808 -0.8259 -0.5541
  277MOL0     O36467   7.374   9.508   5.222  0.0533  0.7583 -0.2836
  277MOL0     C36468   7.266   9.601   5.254 -0.2725 -0.3826  0.4672
  277MOL0     C36469   7.134   9.524   5.218  0.1553  0.2466  0.3037
  277MOL0     C36470   7.011   9.576   5.305 -0.2798  0.3587  0.3868
  277MOL0     C36471   6.889   9.477   5.298  0.6872  0.4301  0.1808
  277MOL0     C36472   6.756   9.549   5.353 -0.3575 -0.8182 -0.1319
  277MOL0     C36473   6.626   9.488   5.296  0.1710  0.7526  0.2789
  277MOL0     C36474   6.574   9.556   5.173 -0.7760  1.0690  0.4570
  277MOL0     C36475   6.422   9.520   5.158  1.0857  0.1804  0.4595
  277MOL0    Cl36476   6.377   9.354   5.143 -0.2128 -0.4572  0.2449
  277MOL0     C36477   7.589   9.492   5.148 -0.1014  0.8303  0.2129
  277MOL0     C36478   7.720   9.524   5.139 -0.7963  0.7189 -0.2995
  277MOL0     O36479   7.932   9.805   5.359 -0.3714  0.3371  0.3661
  277MOL0     C36480   8.149   9.727   5.080 -0.8233  0.3805  0.5249
  277MOL0     C36481   8.272   9.765   5.020  0.4036 -0.1149  0.8613
  277MOL0     N36482   8.890   9.701   4.545 -0.6148 -0.0537 -1.1593
  277MOL0     N36483   9.011   9.658   4.524  0.0323 -0.6773  0.5378
  277MOL0     C36484  10.105   9.554   4.856  0.8737  0.6454  1.5084
  277MOL0     C36485  10.234   9.546   4.912 -0.4485 -0.7703  0.1387
  277MOL0     C36486  10.628   9.711   5.104  0.1420 -0.4009 -0.1622
  277MOL0     C36487  10.686   9.584   5.066  0.0840 -0.6430  0.2153
  277MOL0     C36488  10.826   9.563   5.082  0.1636  0.3963 -0.5477
  277MOL0     C36489  10.888   9.654   5.166 -0.1883 -0.8592 -0.4446
  277MOL0     O36490  11.018   9.625   5.205 -0.0180  0.3188  0.0050
  277MOL0     C36491  11.051   9.484   5.221  0.2480  0.4380 -0.1331
  277MOL0     C36492  11.155   9.474   5.328 -0.1658 -0.5712 -0.5267
  277MOL0     C36493  11.115   9.524   5.471 -0.4988 -0.2801  0.5440
  277MOL0     C36494  11.224   9.492   5.581  0.8906 -1.0915  0.5219
  277MOL0     C36495  11.349   9.554   5.556 -0.1236 -0.4049  0.2958
  277MOL0     C36496  11.463   9.584   5.530 -0.4688  0.2138 -0.3351
  277MOL0     C36497  10.830   9.766   5.226 -0.2645  0.4162  0.5519
  277MOL0     C36498  10.701   9.791   5.199  0.1684  0.1390  0.3541
  277MOL0     H36499  10.285   9.884   4.924 -2.5327  0.4406  2.0901
  277MOL0     H36500  10.080   9.879   4.804 -1.7765 -0.9169 -1.1782
  277MOL0     H36501   9.905   9.491   4.663 -0.6183 -0.2400 -0.4185
  277MOL0     H36502   9.770   9.603   4.637  2.5812  1.1367 -2.2549
  277MOL0     H36503   9.831   9.542   4.926 -0.1820  5.8579 -1.3032
  277MOL0     H36504   9.758   9.415   4.820  2.1460 -0.4244  1.5732
  277MOL0     H36505   9.661   9.690   4.805 -0.4058  0.2310 -0.6054
  277MOL0     H36506   9.590   9.580   4.930  2.2603  0.0797  0.5039
  277MOL0     H36507   9.578   9.553   4.626  0.5104  2.4302 -0.1331
  277MOL0     H36508   9.552   9.422   4.729  3.8459  0.5615  0.8791
  277MOL0     H36509   9.392   9.693   4.754 -1.4982  0.2797 -3.5965
  277MOL0     H36510   9.373   9.556   4.865  0.9627 -1.7511  0.0695
  277MOL0     H36511   9.200   9.550   4.710  0.0318  0.4065 -0.2824
  277MOL0     H36512   9.311   9.427   4.624  0.4066 -0.3893 -2.1567
  277MOL0     H36513   9.413   9.626   4.493  0.7242 -1.9873  0.0351
  277MOL0     H36514   9.261   9.573   4.440  2.9376  2.9347 -2.5993
  277MOL0     H36515   9.289   9.820   4.469 -2.6323  1.4744  0.0795
  277MOL0     H36516   9.295   9.818   4.639 -1.6839 -0.3796  0.8716
  277MOL0     H36517   9.057   9.946   4.667 -4.7461 -0.8385  1.7004
  277MOL0     H36518   8.724   9.923   4.605  0.0673 -0.1811 -0.0383
  277MOL0     H36519   8.832  10.000   4.712 -2.3296  1.4838 -1.3658
  277MOL0     H36520   8.809   9.753   4.834  0.3455 -2.1428 -3.0400
  277MOL0     H36521   8.667   9.742   4.733  0.8847 -0.5246 -0.2111
  277MOL0     H36522   8.723   9.922   4.970  1.3445 -3.9457  0.8510
  277MOL0     H36523   8.634   9.997   4.840 -1.0390 -0.0929  1.3848
  277MOL0     H36524   8.544   9.724   4.943  0.8635 -0.3276 -1.1765
  277MOL0     H36525   8.459   9.840   4.841 -0.9910  0.5460  2.0935
  277MOL0     H36526   8.358  10.014   5.246  3.2689 -3.5909  0.6686
  277MOL0     H36527   8.111   9.962   5.313 -1.3045  2.8378 -2.6580
  277MOL0     H36528   7.694   9.823   5.284 -3.2269 -1.2099 -0.2296
  277MOL0     H36529   7.468   9.735   5.335  2.0525  0.2885  2.5223
  277MOL0     H36530   7.278   9.694   5.197  2.5486 -0.4613  0.7753
  277MOL0     H36531   7.267   9.614   5.362  0.1493 -3.1104  0.8524
  277MOL0     H36532   7.154   9.420   5.246  0.9668  0.2653 -0.1814
  277MOL0     H36533   7.118   9.524   5.110  0.3552  0.8807  0.2765
  277MOL0     H36534   6.987   9.673   5.262  3.9681  0.9061 -1.2798
  277MOL0     H36535   7.046   9.574   5.409 -1.3468 -1.0306  0.7520
  277MOL0     H36536   6.865   9.465   5.191  0.1961  1.3935  0.1714
  277MOL0     H36537   6.900   9.372   5.326  0.3294  0.5032  0.6123
  277MOL0     H36538   6.757   9.657   5.338  0.7052 -0.9311 -1.0137
  277MOL0     H36539   6.744   9.541   5.462 -3.2151 -0.9016 -0.3793
  277MOL0     H36540   6.549   9.480   5.373 -0.2763  1.0948 -0.1276
  277MOL0     H36541   6.659   9.387   5.272  3.0212  1.7489 -0.4146
  277MOL0     H36542   6.583   9.665   5.172 -0.1428  1.0573  2.2252
  277MOL0     H36543   6.626   9.522   5.082  1.5909  0.7707  1.8472
  277MOL0     H36544   6.389   9.582   5.074  3.3646  0.0634 -0.5740
  277MOL0     H36545   6.362   9.547   5.246 -0.1663 -3.7235  0.9944
  277MOL0     H36546   7.547   9.404   5.101 -3.7170  2.3518  0.3101
  277MOL0     H36547   7.790   9.472   5.075 -0.3776 -0.4830  1.0725
  277MOL0     H36548   8.103   9.646   5.023 -0.9562  2.4066 -2.5261
  277MOL0     H36549   8.313   9.722   4.929  2.6866  0.3022  1.6170
  277MOL0     H36550  10.049   9.461   4.851 -0.4606  1.4248  1.4267
  277MOL0     H36551  10.281   9.450   4.927 -1.3438 -1.4575 -1.2112
  277MOL0     H36552  10.640   9.517   4.994  0.7614  0.3462 -1.1835
  277MOL0     H36553  10.875   9.471   5.053 -0.6273 -0.8996  1.9505
  277MOL0     H36554  11.091   9.454   5.124 -2.8080  2.6398 -2.2454
  277MOL0     H36555  10.973   9.414   5.251  1.7111 -0.8218  0.8573
  277MOL0     H36556  11.194   9.372   5.333  1.3448  0.0401  1.2756
  277MOL0     H36557  11.230   9.541   5.283 -2.2139  1.0042 -1.7678
  277MOL0     H36558  11.029   9.463   5.500 -1.9390  1.3037 -0.2154
  277MOL0     H36559  11.067   9.622   5.486 -0.9876 -0.0161 -2.2400
  277MOL0     H36560  11.192   9.543   5.672 -0.9223  0.4699 -0.9141
  277MOL0     H36561  11.245   9.389   5.612  0.4274 -0.4712  3.1075
  277MOL0     H36562  11.566   9.596   5.504 -0.8552  1.3855 -1.4070
  277MOL0     H36563  10.890   9.838   5.281 -0.4659 -0.9319  2.6384
  277MOL0     H36564  10.648   9.865   5.258  0.9766  1.7161 -0.8031
  278MOL0     O36565   6.867   1.733   2.368 -0.1739 -0.0507 -0.1580
  278MOL0     C36566   6.941   1.828   2.331  0.4622  0.5377 -0.7022
  278MOL0     O36567   6.893   1.954   2.299 -0.1474 -0.4537  0.4088
  278MOL0     C36568   6.752   1.967   2.279 -0.1235  0.8671  0.5477
  278MOL0     C36569   6.690   1.920   2.163  0.1678  0.0652 -0.4820
  278MOL0     C36570   6.550   1.939   2.137  0.5987  0.5495  0.7140
  278MOL0     C36571   6.474   2.000   2.237 -0.2451 -0.0406 -0.0261
  278MOL0     O36572   6.333   2.024   2.224 -0.0675 -0.3218  0.3292
  278MOL0     C36573   6.261   2.023   2.105  0.2314  0.0589  0.6921
  278MOL0     C36574   6.110   2.057   2.128  0.5572  0.2845 -0.4007
  278MOL0     C36575   6.044   2.081   1.991 -0.1163 -0.2337 -0.6485
  278MOL0     C36576   6.039   1.963   1.902 -0.1666  0.2702 -0.5355
  278MOL0     C36577   6.132   1.973   1.779  0.2572 -1.1604  0.0692
  278MOL0     C36578   6.101   1.860   1.682 -1.0056 -0.3316 -0.1530
  278MOL0     C36579   6.180   1.874   1.554 -0.0293  0.2302  0.1216
  278MOL0     C36580   6.170   1.750   1.454  0.1993 -0.1091 -1.1144
  278MOL0     N36581   6.040   1.698   1.424  0.4362  0.2078 -0.5383
  278MOL0     C36582   5.964   1.738   1.323 -0.2411  0.2216  0.8472
  278MOL0     C36583   5.875   1.638   1.311  0.1321  0.4091  0.8333
  278MOL0     C36584   5.768   1.642   1.211 -0.4793  0.8233 -0.0261
  278MOL0     C36585   5.712   1.504   1.174  0.9326 -0.1900 -0.2437
  278MOL0     C36586   5.586   1.507   1.092 -0.2116  0.0283  0.7445
  278MOL0     C36587   5.460   1.518   1.178  0.1440  0.9126  0.0630
  278MOL0     O36588   5.352   1.548   1.093  0.4906  0.0847  0.2111
  278MOL0     C36589   5.232   1.545   1.155 -0.2340 -0.0980  0.2990
  278MOL0     C36590   5.166   1.426   1.165  0.0925  0.2262 -0.1476
  278MOL0     C36591   5.050   1.411   1.243 -0.6734  0.1235 -0.0214
  278MOL0     C36592   4.996   1.522   1.306  0.4716  0.2738 -0.8223
  278MOL0     C36593   4.873   1.503   1.391  0.3672  0.4934  0.3163
  278MOL0     O36594   4.829   1.612   1.464 -0.1935  0.4898  0.0358
  278MOL0     C36595   4.714   1.588   1.543 -0.4791  0.5992  0.4272
  278MOL0     C36596   4.589   1.550   1.489  0.0449  0.3649  0.0685
  278MOL0     C36597   4.473   1.530   1.570 -1.4063  0.2079  0.6689
  278MOL0     C36598   4.481   1.568   1.703  0.5999  0.5014 -0.2116
  278MOL0     O36599   4.383   1.548   1.790 -0.2356 -0.6419 -0.0652
  278MOL0     C36600   4.241   1.578   1.755  0.2702  0.3014  0.2682
  278MOL0     C36601   4.153   1.450   1.766  0.0957  0.1451 -0.7138
  278MOL0     C36602   4.028   1.444   1.684 -0.3676  0.4144  0.5975
  278MOL0     C36603   3.922   1.546   1.723  0.1283 -0.2607  0.1686
  278MOL0     C36604   3.801   1.541   1.639 -0.3020  0.8777 -0.3364
  278MOL0     C36605   3.677   1.611   1.693  0.7297 -0.8258 -0.2026
  278MOL0     C36606   3.700   1.766   1.709  0.4902  0.2243 -0.0501
  278MOL0     C36607   3.564   1.844   1.721  0.1489 -0.6182 -0.5802
  278MOL0    Cl36608   3.472   1.820   1.878  0.2297  0.0711  0.1775
  278MOL0     C36609   4.600   1.606   1.757 -0.3258  0.0101  0.1274
  278MOL0     C36610   4.719   1.611   1.677 -0.2695  0.1481  0.1860
  278MOL0     O36611   4.830   1.390   1.402  0.5602 -0.7495  0.8921
  278MOL0     C36612   5.061   1.651   1.290 -1.1704  0.3867 -0.1316
  278MOL0     C36613   5.183   1.664   1.218  0.8368  0.5433  0.6315
  278MOL0     N36614   5.889   1.540   1.413 -0.6461 -0.0575 -0.0933
  278MOL0     N36615   5.996   1.577   1.482  0.1970  1.3085  0.5572
  278MOL0     C36616   6.530   2.039   2.361  1.2201  0.1494  0.1625
  278MOL0     C36617   6.668   2.025   2.379 -0.7920  0.5720 -0.2983
  278MOL0     C36618   7.084   1.797   2.317 -0.4996  0.0596  0.0933
  278MOL0     C36619   7.173   1.901   2.281 -0.7882  0.2463 -0.9593
  278MOL0     C36620   7.312   1.875   2.247  0.3968  0.2431 -1.6980
  278MOL0     C36621   7.362   1.745   2.266  0.0855  0.3811 -1.4445
  278MOL0     O36622   7.494   1.708   2.230 -0.2516 -0.4663 -0.5069
  278MOL0     C36623   7.582   1.794   2.155 -0.1614 -0.2784  0.2606
  278MOL0     C36624   7.684   1.698   2.085 -0.2093  0.5713  0.4842
  278MOL0     C36625   7.771   1.626   2.184  0.7225 -0.2036 -0.0401
  278MOL0     C36626   7.902   1.688   2.217  0.2467 -0.3175  0.8202
  278MOL0     C36627   7.900   1.828   2.252  0.1776  0.1234  0.5110
  278MOL0     C36628   7.907   1.946   2.288 -0.1448 -1.0275  0.2840
  278MOL0     C36629   7.276   1.646   2.310 -0.8345  0.5712  0.3758
  278MOL0     C36630   7.138   1.669   2.323 -0.0278  0.3913  0.7567
  278MOL0     H36631   6.749   1.870   2.087 -0.2643  3.0885 -3.0227
  278MOL0     H36632   6.494   1.900   2.052 -1.6083  5.4851 -0.4382
  278MOL0     H36633   6.271   1.933   2.044 -1.1524  0.6261 -0.4366
  278MOL0     H36634   6.305   2.098   2.037  2.4343 -0.4719  1.4482
  278MOL0     H36635   6.096   2.156   2.171  1.9272  1.7273 -3.0210
  278MOL0     H36636   6.062   1.982   2.191  0.5696  1.4145  0.9941
  278MOL0     H36637   6.098   2.172   1.963 -0.4482  0.5409  1.1181
  278MOL0     H36638   5.938   2.105   2.004 -0.0757  0.4065 -1.4155
  278MOL0     H36639   6.071   1.870   1.951 -1.8836 -1.2497 -2.1007
  278MOL0     H36640   5.937   1.936   1.871 -0.5906 -0.3052  1.2344
  278MOL0     H36641   6.236   1.961   1.811  0.6148  1.3854  0.0936
  278MOL0     H36642   6.116   2.073   1.739 -1.7452 -0.8874  1.3865
  278MOL0     H36643   5.994   1.855   1.660 -0.9039 -1.8792 -0.4432
  278MOL0     H36644   6.126   1.768   1.736 -1.5548 -0.0838  0.5480
  278MOL0     H36645   6.130   1.956   1.502  0.7419 -0.8190 -2.4285
  278MOL0     H36646   6.284   1.901   1.576  0.2614 -2.2927  2.3990
  278MOL0     H36647   6.242   1.675   1.487  2.4894  2.2918 -0.2320
  278MOL0     H36648   6.215   1.792   1.363 -1.4591 -0.9854 -2.3913
  278MOL0     H36649   5.974   1.821   1.253  1.2260 -0.1385  0.5899
  278MOL0     H36650   5.803   1.692   1.120 -1.3020 -1.3780 -1.6796
  278MOL0     H36651   5.682   1.698   1.249 -0.7731 -0.3225  1.0532
  278MOL0     H36652   5.690   1.461   1.272  2.5192  2.9802  1.6838
  278MOL0     H36653   5.794   1.450   1.128  1.0475  0.0321 -0.3042
  278MOL0     H36654   5.582   1.596   1.029  1.8039 -0.2872  0.1074
  278MOL0     H36655   5.579   1.427   1.018 -1.7386  0.4535  0.3988
  278MOL0     H36656   5.481   1.592   1.256  2.8137 -1.3609  1.7264
  278MOL0     H36657   5.441   1.420   1.223 -0.5252  1.1844  0.3751
  278MOL0     H36658   5.203   1.333   1.122 -1.8356 -1.3473  1.3756
  278MOL0     H36659   5.009   1.314   1.268 -0.5122  0.6584  2.5405
  278MOL0     H36660   4.574   1.535   1.383 -3.6257  1.3136  0.3295
  278MOL0     H36661   4.376   1.497   1.536 -1.5794  0.4034  0.9660
  278MOL0     H36662   4.231   1.612   1.652  2.4677  1.3588  0.3288
  278MOL0     H36663   4.196   1.647   1.827  1.8124  0.9817  0.6280
  278MOL0     H36664   4.124   1.434   1.871 -2.0664  0.3130 -1.2374
  278MOL0     H36665   4.213   1.371   1.720 -1.8942 -1.8394 -0.1359
  278MOL0     H36666   3.984   1.345   1.693  2.9829 -1.1264  1.8028
  278MOL0     H36667   4.065   1.455   1.582 -0.0296 -0.0722  0.6634
  278MOL0     H36668   3.896   1.529   1.828 -1.4299  3.1615  0.4741
  278MOL0     H36669   3.967   1.645   1.716  1.4370 -0.8385  0.1921
  278MOL0     H36670   3.775   1.435   1.634  1.4891  0.4053 -0.2357
  278MOL0     H36671   3.829   1.584   1.542 -1.5618  2.4156 -0.0589
  278MOL0     H36672   3.647   1.589   1.796 -4.8783  2.5501 -0.6904
  278MOL0     H36673   3.588   1.599   1.631  1.8547 -1.0982 -1.8487
  278MOL0     H36674   3.771   1.775   1.792  0.5721 -2.7628  0.2951
  278MOL0     H36675   3.752   1.806   1.621  0.2680 -0.5145 -0.5207
  278MOL0     H36676   3.497   1.833   1.636 -0.5085 -0.4475 -0.0867
  278MOL0     H36677   3.589   1.950   1.725  0.6456 -0.7521  0.4312
  278MOL0     H36678   4.610   1.615   1.865  0.1136 -0.8536  0.1590
  278MOL0     H36679   4.816   1.632   1.723 -0.3840 -0.1266  0.5635
  278MOL0     H36680   5.015   1.741   1.329 -1.3126  0.5346 -0.6395
  278MOL0     H36681   5.231   1.761   1.219 -1.6513  1.8302  2.2738
  278MOL0     H36682   6.469   2.090   2.435  2.6733  2.1081  0.1103
  278MOL0     H36683   6.707   2.073   2.468  2.4705  1.4725 -2.0472
  278MOL0     H36684   7.152   2.007   2.286  2.7848  1.0159  0.8351
  278MOL0     H36685   7.376   1.960   2.222  3.4567 -0.0335  3.5701
  278MOL0     H36686   7.644   1.858   2.219 -1.5200  1.1723  0.1647
  278MOL0     H36687   7.528   1.855   2.083 -1.3858 -1.9059 -0.2685
  278MOL0     H36688   7.619   1.630   2.030 -0.7346  2.3645 -1.2344
  278MOL0     H36689   7.743   1.752   2.010 -0.3309 -1.0977 -0.8781
  278MOL0     H36690   7.800   1.526   2.153 -1.1241 -0.6158 -0.5363
  278MOL0     H36691   7.708   1.607   2.272 -0.2254 -2.5190 -1.1439
  278MOL0     H36692   7.929   1.621   2.299 -0.7611  0.2129  1.6044
  278MOL0     H36693   7.970   1.678   2.131  0.3996 -1.8687  1.0978
  278MOL0     H36694   7.893   2.047   2.323 -4.9442 -1.5869  0.6188
  278MOL0     H36695   7.329   1.552   2.326  2.8794  2.6546  1.3512
  278MOL0     H36696   7.077   1.587   2.357 -0.8282  0.3294 -0.7524
  279MOL0     O36697   4.497   5.767   1.574 -0.3980  0.8146 -0.5327
  279MOL0     C36698   4.540   5.845   1.487  1.3920  0.4739 -0.1877
  279MOL0     O36699   4.455   5.925   1.414 -0.1926  0.3707 -0.5384
  279MOL0     C36700   4.318   5.925   1.398  0.3282 -0.2261  0.0538
  279MOL0     C36701   4.230   5.880   1.491  0.2904 -0.1100  0.5027
  279MOL0     C36702   4.090   5.887   1.456 -1.2678  0.8629 -0.6449
  279MOL0     C36703   4.051   5.939   1.336  0.3305  1.0465  0.4505
  279MOL0     O36704   3.917   5.943   1.303  0.0165 -0.3544  0.1618
  279MOL0     C36705   3.836   6.048   1.356 -0.1771 -0.6357 -0.1966
  279MOL0     C36706   3.692   5.995   1.366 -0.1225  1.5395  0.2297
  279MOL0     C36707   3.598   6.101   1.402  0.1489  0.0446  0.0581
  279MOL0     C36708   3.457   6.038   1.438 -0.7873  0.3659  0.4171
  279MOL0     C36709   3.334   6.093   1.372 -0.6948 -0.3633 -0.2676
  279MOL0     C36710   3.325   6.242   1.412 -0.0199  0.3442 -0.4200
  279MOL0     C36711   3.189   6.303   1.364  0.5798  1.7477  0.5062
  279MOL0     C36712   3.148   6.411   1.465 -0.4734 -1.0213 -0.1968
  279MOL0     N36713   3.016   6.437   1.420  0.4019 -0.3593  0.5395
  279MOL0     C36714   2.901   6.438   1.495 -0.3825 -0.2437 -0.1174
  279MOL0     C36715   2.812   6.504   1.421 -0.4521 -0.7393  0.7102
  279MOL0     C36716   2.681   6.558   1.449  0.3444  0.2131 -0.0931
  279MOL0     C36717   2.683   6.668   1.556  0.7033  1.3146 -0.4468
  279MOL0     C36718   2.747   6.802   1.507  0.3888 -0.5827  1.3114
  279MOL0     C36719   2.749   6.919   1.609 -0.0173 -0.3005 -0.0916
  279MOL0     O36720   2.619   6.944   1.653  0.0472 -0.0354 -0.4601
  279MOL0     C36721   2.602   7.000   1.777  0.0138 -0.2366 -0.6466
  279MOL0     C36722   2.485   6.983   1.846 -0.1550 -0.1412  0.1992
  279MOL0     C36723   2.466   7.037   1.969  0.5213 -0.8119  0.2674
  279MOL0     C36724   2.554   7.139   2.016  0.3717 -0.3356  0.2117
  279MOL0     C36725   2.523   7.211   2.146 -0.0494  0.5159  0.8231
  279MOL0     O36726   2.590   7.330   2.171 -0.2675  0.1269 -0.5379
  279MOL0     C36727   2.599   7.400   2.285  0.7681  0.3411 -0.0019
  279MOL0     C36728   2.584   7.347   2.413 -0.0068 -0.7046  0.1728
  279MOL0     C36729   2.581   7.428   2.524 -0.1115  0.3848 -0.1808
  279MOL0     C36730   2.606   7.570   2.513 -0.5762 -0.4038 -0.4146
  279MOL0     O36731   2.587   7.643   2.629  0.0667  0.8195  0.2987
  279MOL0     C36732   2.632   7.785   2.636  0.4241  0.2313  0.3741
  279MOL0     C36733   2.534   7.886   2.567 -0.4471  0.3226  0.5342
  279MOL0     C36734   2.612   8.017   2.513  0.4531  0.3976 -0.5801
  279MOL0     C36735   2.673   8.103   2.622 -0.1351  0.6352 -0.2858
  279MOL0     C36736   2.660   8.255   2.619  0.3829  0.2997  0.1792
  279MOL0     C36737   2.692   8.322   2.748 -0.0310 -0.7482  0.0643
  279MOL0     C36738   2.685   8.474   2.727  0.9564  0.4618 -0.1788
  279MOL0     C36739   2.644   8.550   2.853 -0.1914 -0.5065  0.0871
  279MOL0    Cl36740   2.478   8.501   2.884  0.5764  0.2184 -0.3255
  279MOL0     C36741   2.616   7.627   2.383 -0.7025 -0.0475 -0.7501
  279MOL0     C36742   2.620   7.543   2.276 -0.2287  0.7226  0.4960
  279MOL0     O36743   2.434   7.160   2.214 -0.1670 -0.6611 -0.1164
  279MOL0     C36744   2.670   7.170   1.942  0.3647  0.2611  0.2034
  279MOL0     C36745   2.686   7.108   1.818 -0.0038 -0.9149  0.0352
  279MOL0     N36746   2.857   6.537   1.301  0.0992  0.1891  0.8075
  279MOL0     N36747   2.977   6.509   1.307  0.6530  0.7000  0.1032
  279MOL0     C36748   4.145   5.998   1.252  0.9650 -0.4011  0.3512
  279MOL0     C36749   4.279   5.986   1.283  0.1900 -0.3007 -0.7649
  279MOL0     C36750   4.683   5.856   1.467 -0.4931  0.6213 -1.1446
  279MOL0     C36751   4.735   5.917   1.354  0.2794 -0.5892  0.2717
  279MOL0     C36752   4.875   5.929   1.332  1.0202 -0.3767  0.0576
  279MOL0     C36753   4.961   5.853   1.412 -0.8288  0.6468  0.2136
  279MOL0     O36754   5.097   5.848   1.373 -0.0971  0.2935  0.1175
  279MOL0     C36755   5.178   5.741   1.415 -0.7456 -0.2255 -0.1451
  279MOL0     C36756   5.265   5.781   1.534 -0.3077  0.3543  1.1873
  279MOL0     C36757   5.396   5.836   1.476  0.1221  0.3316 -0.6573
  279MOL0     C36758   5.471   5.926   1.582 -0.8902 -0.3860 -0.3756
  279MOL0     C36759   5.601   5.982   1.550 -0.1155 -0.4553  0.8021
  279MOL0     C36760   5.698   6.039   1.515 -0.5293 -0.1138 -0.1475
  279MOL0     C36761   4.908   5.787   1.521 -0.9158 -1.0412 -0.1331
  279MOL0     C36762   4.777   5.796   1.549 -0.3974 -0.0113  0.2346
  279MOL0     H36763   4.264   5.854   1.590 -1.3229  1.6220  1.5762
  279MOL0     H36764   4.014   5.864   1.530 -0.3288 -1.4481 -0.2950
  279MOL0     H36765   3.833   6.130   1.284 -0.1994 -0.5698 -0.1213
  279MOL0     H36766   3.865   6.082   1.456  1.2664 -1.7143 -0.2155
  279MOL0     H36767   3.673   5.913   1.436  2.9860  1.4147  1.0433
  279MOL0     H36768   3.667   5.970   1.262  1.2784 -0.1769  0.2693
  279MOL0     H36769   3.577   6.177   1.327 -1.5057  0.9725  1.3750
  279MOL0     H36770   3.644   6.151   1.488 -0.9029  1.2871 -0.0717
  279MOL0     H36771   3.453   5.934   1.404  0.0042  0.6975 -0.7987
  279MOL0     H36772   3.437   6.041   1.545 -1.7580 -1.1276  0.2971
  279MOL0     H36773   3.243   6.038   1.400  0.2666 -1.9091 -0.0666
  279MOL0     H36774   3.355   6.078   1.265 -1.1740 -1.6177 -0.2080
  279MOL0     H36775   3.411   6.300   1.376 -0.0714  0.5644 -0.1918
  279MOL0     H36776   3.327   6.255   1.521  1.1235 -2.4304 -0.0173
  279MOL0     H36777   3.205   6.330   1.259 -0.1061 -1.7796 -0.6310
  279MOL0     H36778   3.116   6.224   1.349  1.6437  1.1216 -1.7631
  279MOL0     H36779   3.212   6.498   1.445  0.1998 -1.4518  0.0602
  279MOL0     H36780   3.157   6.394   1.573  1.4606 -0.0748 -0.1551
  279MOL0     H36781   2.890   6.406   1.598  2.1571  0.1370  0.3497
  279MOL0     H36782   2.625   6.470   1.483  1.4020 -0.4281  0.0385
  279MOL0     H36783   2.635   6.592   1.356 -0.0880 -0.4406 -0.1271
  279MOL0     H36784   2.738   6.627   1.641 -1.1557 -2.0110 -0.6936
  279MOL0     H36785   2.579   6.688   1.581 -0.0311  0.4512 -2.5603
  279MOL0     H36786   2.849   6.788   1.471 -0.3472  0.0483 -1.2527
  279MOL0     H36787   2.685   6.839   1.425 -0.3744 -3.4539  0.4876
  279MOL0     H36788   2.799   7.006   1.567  1.0273 -0.2537  1.2103
  279MOL0     H36789   2.811   6.880   1.690  1.1465 -1.4154 -1.4664
  279MOL0     H36790   2.402   6.920   1.816 -0.0951  0.6442 -1.7592
  279MOL0     H36791   2.378   7.011   2.026 -1.1158  1.0996 -1.2281
  279MOL0     H36792   2.571   7.239   2.420  3.7525 -1.2104  2.6333
  279MOL0     H36793   2.538   7.385   2.615  0.0357 -0.4333 -0.4895
  279MOL0     H36794   2.730   7.800   2.592 -0.2042  0.9748 -0.8175
  279MOL0     H36795   2.634   7.808   2.743  0.8743  1.6876  0.0645
  279MOL0     H36796   2.449   7.909   2.631 -3.1714  1.0667 -3.0490
  279MOL0     H36797   2.485   7.845   2.478 -0.0091 -0.0718  0.4674
  279MOL0     H36798   2.521   8.065   2.478 -0.8909 -0.8786  1.0074
  279MOL0     H36799   2.683   7.982   2.437  0.1902 -0.8982 -0.2590
  279MOL0     H36800   2.635   8.067   2.719 -0.9924  0.3656 -0.7087
  279MOL0     H36801   2.780   8.081   2.619 -0.4681 -1.0710 -1.1121
  279MOL0     H36802   2.559   8.281   2.586  0.1658 -0.1625  0.4817
  279MOL0     H36803   2.728   8.296   2.544  3.0735 -0.8663  1.8326
  279MOL0     H36804   2.790   8.287   2.783  0.4682 -2.0560 -2.4015
  279MOL0     H36805   2.624   8.292   2.827  0.0780  0.7637  0.7732
  279MOL0     H36806   2.777   8.525   2.695  1.4890 -0.1120  0.4009
  279MOL0     H36807   2.609   8.500   2.652  0.6469 -0.2338 -0.1177
  279MOL0     H36808   2.638   8.657   2.830 -3.3299 -1.3054 -3.8348
  279MOL0     H36809   2.698   8.527   2.945 -0.3723 -0.9849  0.0764
  279MOL0     H36810   2.627   7.732   2.359 -1.6057  0.0059 -0.9688
  279MOL0     H36811   2.631   7.590   2.179 -1.5343  0.2454  0.1044
  279MOL0     H36812   2.744   7.238   1.981 -0.0380  0.5262  0.5140
  279MOL0     H36813   2.775   7.140   1.763  0.2345 -1.0750  0.3227
  279MOL0     H36814   4.109   6.047   1.162 -0.6922  1.9087  2.1543
  279MOL0     H36815   4.362   6.019   1.220  0.7346  2.3577  1.1987
  279MOL0     H36816   4.667   5.973   1.291  0.4905 -0.7791 -0.1276
  279MOL0     H36817   4.916   5.988   1.250  5.1438 -1.5245  1.0797
  279MOL0     H36818   5.235   5.699   1.331  0.3718  1.4454 -0.2808
  279MOL0     H36819   5.113   5.664   1.455 -1.4587  1.5051  2.2441
  279MOL0     H36820   5.210   5.853   1.596 -1.7726  0.4749 -0.1810
  279MOL0     H36821   5.289   5.695   1.596 -1.7130 -1.3066 -0.4644
  279MOL0     H36822   5.368   5.900   1.392 -3.7871  1.0223  0.9867
  279MOL0     H36823   5.462   5.750   1.458  0.5452  0.0343  1.9251
  279MOL0     H36824   5.419   6.022   1.595  2.3520  1.5531 -0.6728
  279MOL0     H36825   5.491   5.862   1.668  0.9311  0.2152 -0.3032
  279MOL0     H36826   5.792   6.080   1.486 -1.0221  1.1885  0.0296
  279MOL0     H36827   4.960   5.727   1.595  1.2627  1.5101  0.5535
  279MOL0     H36828   4.747   5.747   1.641  1.9714 -4.4941 -1.0855
  280MOL0     O36829   9.754   5.092   1.592 -0.2851 -0.3135 -0.2709
  280MOL0     C36830   9.845   5.115   1.515  0.0411  0.0474 -0.0339
  280MOL0     O36831   9.840   5.073   1.383  0.1256 -0.0656  0.4330
  280MOL0     C36832   9.739   5.007   1.321  0.8535  0.3021  0.0922
  280MOL0     C36833   9.601   5.000   1.361 -0.1462  0.8948 -0.5493
  280MOL0     C36834   9.513   4.919   1.287  0.7645  0.5902 -0.3965
  280MOL0     C36835   9.552   4.836   1.181 -0.7995  0.4999  0.1377
  280MOL0     O36836   9.466   4.755   1.105  0.9805 -0.1575 -0.9997
  280MOL0     C36837   9.340   4.708   1.162 -0.3825  0.0157 -0.4422
  280MOL0     C36838   9.265   4.624   1.055  0.3048  0.2668 -0.1317
  280MOL0     C36839   9.135   4.582   1.130 -0.8496  0.4695 -0.8457
  280MOL0     C36840   9.054   4.479   1.049  0.4604 -0.3629 -0.1793
  280MOL0     C36841   8.927   4.441   1.120 -0.2456 -0.0152  0.2381
  280MOL0     C36842   8.947   4.339   1.225  0.1179  0.2096 -0.1269
  280MOL0     C36843   8.814   4.288   1.277 -0.1817  1.1893 -0.1049
  280MOL0     C36844   8.823   4.202   1.399  0.4118 -0.1225 -0.6970
  280MOL0     N36845   8.694   4.162   1.450 -0.3228  0.0330 -0.3915
  280MOL0     C36846   8.623   4.068   1.389 -0.3944  1.3198  0.7245
  280MOL0     C36847   8.494   4.079   1.433 -0.4601  0.3096  0.0067
  280MOL0     C36848   8.383   3.996   1.392  0.9828  0.8327 -0.3492
  280MOL0     C36849   8.257   4.070   1.339 -0.1871  0.0353  0.3871
  280MOL0     C36850   8.186   4.159   1.447 -0.4641 -0.2225 -0.1957
  280MOL0     C36851   8.040   4.186   1.416 -0.1030 -0.3929 -0.1879
  280MOL0     O36852   8.014   4.201   1.279 -0.2655  0.5840 -0.0627
  280MOL0     C36853   7.879   4.210   1.240  0.4097 -0.1731  0.5043
  280MOL0     C36854   7.843   4.221   1.107 -0.4042 -0.0312  0.2778
  280MOL0     C36855   7.710   4.226   1.068 -0.6381 -0.5985  0.7892
  280MOL0     C36856   7.615   4.254   1.169 -0.4803 -0.5449 -1.1139
  280MOL0     C36857   7.476   4.284   1.135 -0.0996 -0.3398  0.9926
  280MOL0     O36858   7.400   4.337   1.226  0.6315  0.1999  0.5160
  280MOL0     C36859   7.258   4.319   1.210  1.4380 -0.1882 -0.6125
  280MOL0     C36860   7.165   4.425   1.203 -0.3497  0.4012 -0.5444
  280MOL0     C36861   7.029   4.388   1.208  0.9782 -0.7634  0.8128
  280MOL0     C36862   6.975   4.260   1.190 -0.2259 -0.2079  0.7641
  280MOL0     O36863   6.838   4.245   1.176 -0.0551  0.1849  0.3256
  280MOL0     C36864   6.788   4.124   1.121 -1.1134  0.7521 -0.2138
  280MOL0     C36865   6.638   4.128   1.086  1.2061 -0.1021  0.1528
  280MOL0     C36866   6.542   4.182   1.193  0.0563  0.9514  0.5171
  280MOL0     C36867   6.402   4.183   1.135  0.1953 -0.5518 -1.1057
  280MOL0     C36868   6.284   4.184   1.233 -0.2689 -0.4144 -0.0347
  280MOL0     C36869   6.155   4.201   1.155  0.2185 -0.1212  0.2015
  280MOL0     C36870   6.041   4.224   1.247 -0.6921  0.0385 -0.2385
  280MOL0     C36871   5.910   4.228   1.179  0.4225  0.1909 -0.6362
  280MOL0    Cl36872   5.787   4.261   1.311 -0.1063  0.3494 -0.2937
  280MOL0     C36873   7.072   4.159   1.183 -0.1048 -0.8978  0.4651
  280MOL0     C36874   7.206   4.191   1.199  0.1196  0.7458  0.2164
  280MOL0     O36875   7.444   4.257   1.019 -0.4461  0.3597  0.2388
  280MOL0     C36876   7.645   4.256   1.304 -0.8159 -0.1735 -0.2176
  280MOL0     C36877   7.775   4.229   1.337 -0.7188 -0.2018  0.3832
  280MOL0     N36878   8.501   4.171   1.533 -0.6021  0.2078  0.0751
  280MOL0     N36879   8.614   4.225   1.536  0.4320  0.1593 -0.0712
  280MOL0     C36880   9.679   4.847   1.137  0.0557 -0.2474  0.1284
  280MOL0     C36881   9.770   4.931   1.200  0.0852 -0.4854 -0.7899
  280MOL0     C36882   9.963   5.187   1.554 -0.2959  0.3364  0.4015
  280MOL0     C36883  10.085   5.185   1.471  0.8245  0.3500  0.6586
  280MOL0     C36884  10.200   5.239   1.524  0.7100 -0.2134 -0.6807
  280MOL0     C36885  10.198   5.303   1.651  0.2231  0.3329  0.5074
  280MOL0     O36886  10.303   5.380   1.705 -0.6003 -0.1536  0.7308
  280MOL0     C36887  10.436   5.357   1.655  0.2956 -0.1775 -0.1028
  280MOL0     C36888  10.547   5.405   1.752  1.1360  0.6455 -0.0563
  280MOL0     C36889  10.587   5.557   1.728  0.4276 -0.3510 -0.5604
  280MOL0     C36890  10.722   5.594   1.793  0.2739 -0.0540  0.1308
  280MOL0     C36891  10.761   5.733   1.775  0.2619 -0.5947  0.6731
  280MOL0     C36892  10.781   5.851   1.764  0.0092  0.0354  0.4919
  280MOL0     C36893  10.079   5.312   1.724  0.8996  1.1298  0.4208
  280MOL0     C36894   9.964   5.251   1.679 -0.2448 -0.4191  0.4129
  280MOL0     H36895   9.587   5.065   1.446  2.4776 -0.0955  0.7560
  280MOL0     H36896   9.413   4.903   1.326  0.1914  2.2068 -1.1375
  280MOL0     H36897   9.269   4.784   1.198 -1.7743 -1.5924  0.3177
  280MOL0     H36898   9.368   4.647   1.247  1.7916 -0.8983 -1.7385
  280MOL0     H36899   9.320   4.536   1.018  1.4022  0.3866  1.1554
  280MOL0     H36900   9.238   4.681   0.966  0.8879 -0.3478 -0.7193
  280MOL0     H36901   9.067   4.667   1.145 -0.9176  0.2075  0.5412
  280MOL0     H36902   9.163   4.544   1.229 -0.2399  2.1687 -0.3344
  280MOL0     H36903   9.026   4.524   0.953 -0.1713 -0.0268  0.1568
  280MOL0     H36904   9.119   4.392   1.032  3.7256  2.0845 -1.2480
  280MOL0     H36905   8.859   4.401   1.045 -0.5460 -0.6381  0.8242
  280MOL0     H36906   8.868   4.529   1.150 -1.2448  0.3688 -2.5913
  280MOL0     H36907   9.012   4.370   1.307  0.1449 -0.4806  0.1209
  280MOL0     H36908   9.008   4.257   1.185  2.9516  2.5850 -0.9890
  280MOL0     H36909   8.765   4.386   1.287 -0.7202  0.8482  0.8141
  280MOL0     H36910   8.757   4.237   1.199  0.0546 -0.4700  0.7689
  280MOL0     H36911   8.884   4.247   1.479  0.6324 -1.2398 -0.2112
  280MOL0     H36912   8.875   4.114   1.360 -1.2201 -1.6117  0.3499
  280MOL0     H36913   8.659   3.985   1.329 -0.8431 -0.7439  3.1178
  280MOL0     H36914   8.347   3.940   1.479 -0.8072  0.4800 -1.2657
  280MOL0     H36915   8.415   3.930   1.311 -3.5834 -2.0541 -0.1448
  280MOL0     H36916   8.185   3.992   1.313 -0.3673  0.5256 -0.6356
  280MOL0     H36917   8.272   4.129   1.248  0.2628  0.1645  0.5400
  280MOL0     H36918   8.202   4.116   1.547  4.5352  1.3140 -0.0516
  280MOL0     H36919   8.240   4.254   1.457 -0.2840 -0.3311 -0.1166
  280MOL0     H36920   8.004   4.264   1.483  0.9219 -2.4308  2.9669
  280MOL0     H36921   7.985   4.095   1.443  1.4524 -1.5690 -0.7697
  280MOL0     H36922   7.922   4.211   1.034 -0.7067 -0.3309 -0.0140
  280MOL0     H36923   7.670   4.223   0.967  2.2472 -0.8224 -0.4307
  280MOL0     H36924   7.191   4.530   1.193 -0.4914  0.4248 -0.6703
  280MOL0     H36925   6.950   4.462   1.202  3.0636  1.4141 -1.7742
  280MOL0     H36926   6.801   4.053   1.204  3.2222  0.8909 -0.5238
  280MOL0     H36927   6.844   4.083   1.036 -0.4671 -0.1708  0.6312
  280MOL0     H36928   6.590   4.034   1.059 -1.8480  1.2446  0.3702
  280MOL0     H36929   6.637   4.200   1.004  0.3116  0.7676  0.9003
  280MOL0     H36930   6.589   4.274   1.229  4.1586 -0.1444 -1.4347
  280MOL0     H36931   6.535   4.109   1.274 -2.6834  1.7046  1.0713
  280MOL0     H36932   6.403   4.267   1.065  0.8720  1.8467  1.6084
  280MOL0     H36933   6.388   4.090   1.077  0.1105  0.7604 -3.3083
  280MOL0     H36934   6.287   4.257   1.314 -2.3408  0.9593 -1.1184
  280MOL0     H36935   6.281   4.084   1.278 -1.6472 -1.8288 -2.9831
  280MOL0     H36936   6.136   4.131   1.072 -1.8870  3.8369 -3.0284
  280MOL0     H36937   6.170   4.294   1.099  0.7646  0.8091  1.8496
  280MOL0     H36938   6.020   4.141   1.315 -3.2267  0.2143 -0.7047
  280MOL0     H36939   6.055   4.317   1.302 -2.6489 -0.3854  1.0854
  280MOL0     H36940   5.894   4.134   1.125  2.9464 -1.4092  1.1586
  280MOL0     H36941   5.900   4.308   1.105 -5.5955 -0.7639 -1.3583
  280MOL0     H36942   7.048   4.053   1.172 -0.8720 -1.0074  2.6079
  280MOL0     H36943   7.278   4.113   1.222 -0.4168  0.1555 -0.0536
  280MOL0     H36944   7.572   4.282   1.381 -0.5995 -1.4814  0.4726
  280MOL0     H36945   7.803   4.233   1.442  0.6064  1.0656  0.0130
  280MOL0     H36946   9.690   4.799   1.040  1.9764  2.8815 -1.3605
  280MOL0     H36947   9.873   4.921   1.168  0.2444 -2.1247  0.1457
  280MOL0     H36948  10.090   5.136   1.374  1.2993 -0.8839  1.2803
  280MOL0     H36949  10.291   5.249   1.466 -0.3378 -0.4502 -2.4461
  280MOL0     H36950  10.452   5.388   1.551  0.1378 -0.8737 -0.3358
  280MOL0     H36951  10.439   5.248   1.647  0.1117 -0.1547 -0.4617
  280MOL0     H36952  10.506   5.388   1.852 -1.9292 -1.0573 -1.4658
  280MOL0     H36953  10.639   5.347   1.742  2.1737  2.2137  0.0095
  280MOL0     H36954  10.511   5.620   1.774  2.0230  1.0122  0.3192
  280MOL0     H36955  10.599   5.588   1.624  1.8661  0.2332 -0.2389
  280MOL0     H36956  10.711   5.573   1.900 -0.0197 -1.9812 -0.2482
  280MOL0     H36957  10.792   5.518   1.758 -1.7639 -3.0720  2.0906
  280MOL0     H36958  10.798   5.956   1.777 -1.4058  0.5482 -1.2386
  280MOL0     H36959  10.088   5.371   1.815  5.5450  1.3751  0.0171
  280MOL0     H36960   9.879   5.247   1.747 -2.9005 -1.7831 -2.6844
  281MOL0     O36961   4.659   1.729   9.248  0.5478  0.3365  0.1164
  281MOL0     C36962   4.657   1.646   9.337 -0.0580  0.0175  0.3901
  281MOL0     O36963   4.602   1.525   9.329  0.0217 -0.3880 -0.2403
  281MOL0     C36964   4.485   1.497   9.258  0.0752  0.3431  0.2361
  281MOL0     C36965   4.433   1.557   9.142  0.6616 -0.4480 -0.2383
  281MOL0     C36966   4.317   1.511   9.076  0.8762 -0.9320  0.5412
  281MOL0     C36967   4.247   1.401   9.116 -0.1417  0.3021 -0.1631
  281MOL0     O36968   4.127   1.349   9.065  0.0112 -0.4897  0.2871
  281MOL0     C36969   4.045   1.428   8.972 -0.4491 -0.5686 -0.6204
  281MOL0     C36970   3.898   1.400   8.995 -0.6480  0.3160 -0.1683
  281MOL0     C36971   3.863   1.265   8.933  0.0548  0.4588  0.1417
  281MOL0     C36972   3.755   1.181   9.002  0.0693 -0.0384 -0.2413
  281MOL0     C36973   3.756   1.027   8.992 -1.0063  0.3582 -0.4216
  281MOL0     C36974   3.751   0.996   8.838 -0.4052 -0.3343 -0.1155
  281MOL0     C36975   3.751   0.845   8.832 -0.0331  0.4152 -0.2663
  281MOL0     C36976   3.796   0.796   8.691 -0.5933  0.1669  0.7310
  281MOL0     N36977   3.688   0.756   8.602 -0.1690 -0.4705  0.4245
  281MOL0     C36978   3.566   0.811   8.593  0.0740  0.2040  0.3452
  281MOL0     C36979   3.505   0.754   8.484 -0.0977  0.3206  0.0928
  281MOL0     C36980   3.360   0.772   8.432 -0.1879 -0.2819  0.2746
  281MOL0     C36981   3.272   0.658   8.486 -0.3670  0.3930  0.5209
  281MOL0     C36982   3.302   0.514   8.423 -0.7544 -0.5032 -0.9537
  281MOL0     C36983   3.356   0.422   8.530 -0.4298  0.1743 -0.1512
  281MOL0     O36984   3.417   0.300   8.475 -0.5520 -0.2440  0.2499
  281MOL0     C36985   3.334   0.205   8.428 -0.3461 -0.3198  0.2365
  281MOL0     C36986   3.246   0.132   8.508 -0.1786  0.5816  0.1943
  281MOL0     C36987   3.161   0.042   8.442  0.0042  0.6984  1.0189
  281MOL0     C36988   3.139   0.048   8.306  0.6578 -0.5188  0.8308
  281MOL0     C36989   3.023  -0.012   8.232 -0.3033 -0.0588 -0.0595
  281MOL0     O36990   2.990   0.039   8.111  0.1663 -0.3061 -0.5023
  281MOL0     C36991   2.873  -0.005   8.043 -0.1592 -0.1421 -0.5930
  281MOL0     C36992   2.755  -0.048   8.109 -0.3148  0.2711 -0.9065
  281MOL0     C36993   2.649  -0.086   8.031  0.6423  0.6533  0.4799
  281MOL0     C36994   2.647  -0.086   7.892 -0.5201  0.0740  1.0165
  281MOL0     O36995   2.532  -0.121   7.817 -0.9494 -0.2087  0.0472
  281MOL0     C36996   2.512  -0.060   7.684  0.6463 -0.1084  0.5989
  281MOL0     C36997   2.372  -0.093   7.634 -0.0108 -0.5544  0.5277
  281MOL0     C36998   2.259  -0.007   7.691  0.5327  0.3447  0.0794
  281MOL0     C36999   2.131  -0.062   7.628 -0.2914 -0.2468  0.1879
  281MOL0     C37000   2.007  -0.030   7.711  0.0895 -0.5306 -0.3247
  281MOL0     C37001   1.888  -0.031   7.621  0.7191  0.4182 -0.5224
  281MOL0     C37002   1.758  -0.049   7.698 -0.2570 -0.1230 -0.0702
  281MOL0     C37003   1.634  -0.013   7.606 -0.3445  0.6360 -0.6187
  281MOL0    Cl37004   1.507   0.036   7.718  0.1382  0.2248 -0.0911
  281MOL0     C37005   2.760  -0.037   7.832 -0.7157  0.2646 -0.5193
  281MOL0     C37006   2.879  -0.004   7.902 -0.3633  0.3114  0.4285
  281MOL0     O37007   2.965  -0.107   8.294  0.2145 -0.1795  0.3803
  281MOL0     C37008   3.228   0.126   8.230 -0.2776 -0.1122  0.4690
  281MOL0     C37009   3.323   0.197   8.294 -0.2746 -1.1496  0.4969
  281MOL0     N37010   3.596   0.663   8.428  0.2372  0.6832 -0.3529
  281MOL0     N37011   3.706   0.682   8.491 -0.2897  0.1441  0.3981
  281MOL0     C37012   4.294   1.335   9.229  0.0852  0.5984  0.0918
  281MOL0     C37013   4.401   1.386   9.311 -0.0108 -0.6063  0.8410
  281MOL0     C37014   4.754   1.668   9.448  0.0654  0.3086  0.1526
  281MOL0     C37015   4.735   1.604   9.568  0.0081  0.5942  0.5924
  281MOL0     C37016   4.807   1.638   9.680 -0.6561 -0.2461 -0.4901
  281MOL0     C37017   4.918   1.730   9.667 -1.1059 -0.3004 -0.0020
  281MOL0     O37018   4.990   1.754   9.781 -0.0562  0.6031  0.6714
  281MOL0     C37019   5.070   1.878   9.781  0.7531  1.0333  0.0091
  281MOL0     C37020   5.101   1.905   9.930 -0.0782 -0.7218 -0.4876
  281MOL0     C37021   5.188   1.801   9.996 -0.7588 -0.2474  0.2970
  281MOL0     C37022   5.238   1.846  10.134  1.1560 -0.1406 -0.2211
  281MOL0     C37023   5.345   1.758  10.186  1.0830 -0.0755  0.8252
  281MOL0     C37024   5.430   1.680  10.216  0.1279  0.2067  0.3053
  281MOL0     C37025   4.948   1.788   9.537  0.3403 -0.4499 -0.0575
  281MOL0     C37026   4.870   1.744   9.425 -0.0584 -0.3380  0.4783
  281MOL0     H37027   4.475   1.649   9.102 -1.0450  0.3918 -0.1836
  281MOL0     H37028   4.278   1.579   9.001  1.4312 -0.4409  0.6864
  281MOL0     H37029   4.075   1.415   8.868  2.2305  2.2130 -0.3230
  281MOL0     H37030   4.058   1.535   8.986  1.4988 -0.6701 -1.3679
  281MOL0     H37031   3.843   1.486   8.956  2.0267  1.4964 -1.6115
  281MOL0     H37032   3.871   1.399   9.101 -2.4386 -0.0179 -0.6009
  281MOL0     H37033   3.947   1.196   8.927 -1.3194 -1.3947  1.2017
  281MOL0     H37034   3.827   1.298   8.835 -0.4494  0.7826  0.4339
  281MOL0     H37035   3.759   1.202   9.110 -0.4399  0.2581 -0.2737
  281MOL0     H37036   3.658   1.218   8.965 -0.5801 -0.1883  1.2351
  281MOL0     H37037   3.676   0.986   9.054  0.6242  0.6384  2.0249
  281MOL0     H37038   3.849   0.990   9.036 -3.0034 -1.1173  3.0374
  281MOL0     H37039   3.846   1.036   8.800 -0.2321  0.0709  0.7344
  281MOL0     H37040   3.671   1.042   8.781  0.2950  1.8321  0.5791
  281MOL0     H37041   3.833   0.805   8.893 -1.2836  1.6848  2.3750
  281MOL0     H37042   3.653   0.808   8.865  0.8793 -1.6650  0.2927
  281MOL0     H37043   3.864   0.711   8.684 -1.6164 -0.7292  1.5048
  281MOL0     H37044   3.848   0.875   8.636  2.1619 -2.0451 -0.0804
  281MOL0     H37045   3.521   0.886   8.658  1.5426  1.0779  0.4050
  281MOL0     H37046   3.363   0.770   8.323 -2.5252 -1.1054  0.1672
  281MOL0     H37047   3.315   0.867   8.460 -0.2040 -0.4627  0.8823
  281MOL0     H37048   3.172   0.681   8.447 -0.4574 -0.2671  0.3504
  281MOL0     H37049   3.274   0.645   8.595  0.7524  0.6845  0.5422
  281MOL0     H37050   3.202   0.478   8.395 -1.7442  0.8825  0.5841
  281MOL0     H37051   3.351   0.523   8.326  3.3556  4.4276  1.1193
  281MOL0     H37052   3.269   0.404   8.595 -0.5884  0.5034 -0.2664
  281MOL0     H37053   3.437   0.470   8.586 -2.0274  1.2584  1.3811
  281MOL0     H37054   3.226   0.145   8.614  0.5547 -0.1253  0.4299
  281MOL0     H37055   3.109  -0.025   8.510  0.8737 -2.6442 -1.3262
  281MOL0     H37056   2.739  -0.063   8.216 -1.5632  1.5372 -0.8981
  281MOL0     H37057   2.565  -0.117   8.092  0.7546  2.9597  1.9362
  281MOL0     H37058   2.584  -0.107   7.617  1.5380  0.6914  0.9681
  281MOL0     H37059   2.526   0.048   7.695 -0.4639  0.3384 -1.8708
  281MOL0     H37060   2.365  -0.200   7.655 -1.2970 -1.0723 -2.1154
  281MOL0     H37061   2.373  -0.077   7.526 -1.6948  0.1400  0.5793
  281MOL0     H37062   2.280   0.095   7.658 -0.0043  1.6666  3.4755
  281MOL0     H37063   2.265  -0.011   7.800  1.9480 -0.9984 -0.0086
  281MOL0     H37064   2.125  -0.013   7.530  1.8164  1.9565  1.0446
  281MOL0     H37065   2.142  -0.170   7.615 -0.3947 -0.1013 -1.3291
  281MOL0     H37066   2.013   0.070   7.755  0.3495 -1.5345  2.0545
  281MOL0     H37067   1.996  -0.111   7.784 -0.1637 -1.5591 -1.4507
  281MOL0     H37068   1.900  -0.105   7.542  1.7414  0.2455 -0.2313
  281MOL0     H37069   1.891   0.063   7.566 -1.4803  1.2668  0.6984
  281MOL0     H37070   1.750  -0.154   7.728  1.1744 -0.9739 -2.4048
  281MOL0     H37071   1.764   0.023   7.780 -1.2585 -0.8109  0.6292
  281MOL0     H37072   1.604  -0.084   7.528  1.7597 -3.0025  1.5678
  281MOL0     H37073   1.666   0.069   7.542  2.4159  0.1350  0.0155
  281MOL0     H37074   2.764  -0.029   7.724  2.6738 -0.2840 -0.5146
  281MOL0     H37075   2.968   0.026   7.848  1.2256 -1.1239  2.1090
  281MOL0     H37076   3.226   0.120   8.121 -2.6183 -0.3019  0.4707
  281MOL0     H37077   3.374   0.269   8.231 -0.5273 -0.0988  1.4568
  281MOL0     H37078   4.233   1.248   9.247 -1.9140  1.4639 -1.9741
  281MOL0     H37079   4.427   1.337   9.404 -1.3037 -0.0393  1.5290
  281MOL0     H37080   4.639   1.556   9.580  0.0167 -0.0231 -1.4111
  281MOL0     H37081   4.796   1.600   9.781  3.4952 -0.0567  0.2375
  281MOL0     H37082   5.017   1.962   9.734 -1.6061 -1.7199 -2.7340
  281MOL0     H37083   5.158   1.853   9.722  3.9728  0.0902  4.6893
  281MOL0     H37084   5.163   1.994   9.918 -1.4587  0.3203 -0.2375
  281MOL0     H37085   5.011   1.927   9.989 -0.0113 -1.1707 -0.2235
  281MOL0     H37086   5.274   1.763   9.940 -0.1446 -0.2438  1.2012
  281MOL0     H37087   5.113   1.726  10.025 -2.0986  1.7180  2.1767
  281MOL0     H37088   5.282   1.946  10.125 -2.1264  1.3471 -1.9948
  281MOL0     H37089   5.153   1.852  10.203 -0.6434 -3.6455 -1.8621
  281MOL0     H37090   5.513   1.616  10.238 -0.9838 -0.1159  4.3952
  281MOL0     H37091   5.030   1.857   9.523 -1.4485  2.4146  2.3244
  281MOL0     H37092   4.885   1.789   9.328 -1.2014  0.9576  0.8737
  282MOL0     O37093   1.771   1.559   6.947 -0.5773 -0.4662  0.1239
  282MOL0     C37094   1.724   1.564   7.062  0.0011  0.2292  0.9365
  282MOL0     O37095   1.584   1.562   7.096 -0.3744 -1.4392 -0.5820
  282MOL0     C37096   1.477   1.580   7.010 -0.0800  0.2314 -0.5244
  282MOL0     C37097   1.483   1.547   6.872 -0.4231  1.4762 -0.0437
  282MOL0     C37098   1.381   1.564   6.780  1.0445 -0.1084  1.1729
  282MOL0     C37099   1.261   1.616   6.820  0.2594 -1.0585 -0.0836
  282MOL0     O37100   1.170   1.651   6.720  0.0080  0.2298 -0.3993
  282MOL0     C37101   1.039   1.705   6.750  0.0039 -0.0374  0.0042
  282MOL0     C37102   0.942   1.587   6.747  0.4105 -0.1016 -0.6081
  282MOL0     C37103   0.831   1.613   6.644  0.2238  1.1029  0.3765
  282MOL0     C37104   0.725   1.498   6.673 -0.5534  0.5439 -0.0107
  282MOL0     C37105   0.616   1.509   6.575 -1.3003 -0.2023 -0.0659
  282MOL0     C37106   0.536   1.383   6.562  0.4741 -0.2992  0.6751
  282MOL0     C37107   0.402   1.411   6.471 -1.1317 -0.0390  0.2053
  282MOL0     C37108   0.400   1.343   6.334 -0.7068 -0.7647 -1.5850
  282MOL0     N37109   0.374   1.203   6.334 -0.7894 -0.4489  0.0640
  282MOL0     C37110   0.414   1.101   6.424 -0.3296  0.0452  0.7466
  282MOL0     C37111   0.353   0.985   6.372  0.8055 -0.3080 -1.2844
  282MOL0     C37112   0.366   0.849   6.422  0.0260  0.6845 -0.0794
  282MOL0     C37113   0.492   0.767   6.394 -0.0453 -0.5276  0.3068
  282MOL0     C37114   0.546   0.796   6.246  0.9035  0.3882  0.1948
  282MOL0     C37115   0.674   0.725   6.215  0.5074 -0.4377  0.0993
  282MOL0     O37116   0.647   0.589   6.198 -0.2074 -0.0548  0.2983
  282MOL0     C37117   0.750   0.504   6.209  0.3196  0.6111 -0.2142
  282MOL0     C37118   0.869   0.508   6.134 -0.4811  1.1648  0.4924
  282MOL0     C37119   0.980   0.435   6.185 -0.8470 -0.9030 -0.4014
  282MOL0     C37120   0.977   0.370   6.308 -0.0005 -0.3229 -0.5924
  282MOL0     C37121   1.104   0.313   6.378 -0.6043 -0.4261  0.9664
  282MOL0     O37122   1.087   0.221   6.472  0.2063 -0.0727  0.4454
  282MOL0     C37123   1.188   0.173   6.543  0.0584  1.0516  0.3531
  282MOL0     C37124   1.248   0.048   6.501  0.2678 -0.8332  0.8602
  282MOL0     C37125   1.339  -0.004   6.573 -0.2956  0.6689 -0.2953
  282MOL0     C37126   1.395   0.063   6.684  0.2820  0.3151  0.2230
  282MOL0     O37127   1.497   0.003   6.761 -0.8002 -0.4060  0.2268
  282MOL0     C37128   1.575  -0.097   6.712 -0.5829  0.6524 -0.2194
  282MOL0     C37129   1.714  -0.092   6.782 -0.3031  0.3606 -0.2749
  282MOL0     C37130   1.809  -0.188   6.700 -0.0045 -0.0604 -0.3611
  282MOL0     C37131   1.941  -0.189   6.784  0.9802 -0.0360 -0.5331
  282MOL0     C37132   2.054  -0.269   6.717  0.9674  0.0859  0.3465
  282MOL0     C37133   2.189  -0.293   6.787  0.0843 -0.7549 -0.4475
  282MOL0     C37134   2.168  -0.322   6.941  1.2955 -0.7714  0.6275
  282MOL0     C37135   2.289  -0.396   6.995  0.2457  0.3004 -0.2170
  282MOL0    Cl37136   2.424  -0.292   6.982 -0.2371 -0.2186  0.4153
  282MOL0     C37137   1.343   0.188   6.724 -1.2714  0.1074 -0.2548
  282MOL0     C37138   1.227   0.237   6.657 -0.8570  0.5738 -0.1014
  282MOL0     O37139   1.208   0.359   6.340 -0.2339 -0.1036  1.2216
  282MOL0     C37140   0.858   0.362   6.377 -0.0432  0.3336 -0.0441
  282MOL0     C37141   0.738   0.418   6.319 -0.8614 -0.5174  0.3958
  282MOL0     N37142   0.281   1.019   6.259  0.9838  0.5220  0.1075
  282MOL0     N37143   0.301   1.146   6.235  0.2454 -0.3413  0.3307
  282MOL0     C37144   1.241   1.647   6.952 -0.4568  0.0005 -0.3186
  282MOL0     C37145   1.348   1.630   7.051 -0.1700 -0.0397 -0.4391
  282MOL0     C37146   1.817   1.552   7.179  0.3591  0.3779  0.2332
  282MOL0     C37147   1.959   1.570   7.166 -0.2128  0.0721  1.1410
  282MOL0     C37148   2.043   1.565   7.271 -0.0211  0.6350  0.8778
  282MOL0     C37149   1.993   1.539   7.403  0.3323  0.0053 -0.2830
  282MOL0     O37150   2.077   1.512   7.506 -0.4726 -0.0731  0.2505
  282MOL0     C37151   2.090   1.627   7.583 -0.5830 -0.2725 -1.1398
  282MOL0     C37152   2.223   1.612   7.656  0.1336  0.3541 -0.6901
  282MOL0     C37153   2.266   1.736   7.746 -0.2769  0.1752 -0.5716
  282MOL0     C37154   2.368   1.687   7.854 -0.4422 -0.6053  0.6970
  282MOL0     C37155   2.327   1.580   7.946  0.3404 -0.0448 -0.7867
  282MOL0     C37156   2.297   1.513   8.045  0.3663  0.0744  0.2885
  282MOL0     C37157   1.849   1.536   7.411  0.2904  0.8723  0.7010
  282MOL0     C37158   1.762   1.532   7.306  0.0044  0.0922  0.1480
  282MOL0     H37159   1.571   1.504   6.825 -0.9676  0.1091  0.1322
  282MOL0     H37160   1.415   1.546   6.678  0.3225 -1.6275  1.1770
  282MOL0     H37161   1.019   1.775   6.669  3.5401 -1.3458 -2.2134
  282MOL0     H37162   1.024   1.759   6.844 -1.6117 -1.5469  0.6816
  282MOL0     H37163   0.899   1.581   6.847 -1.0581 -0.7413 -1.2466
  282MOL0     H37164   0.995   1.494   6.726  0.1975 -0.3639  0.0112
  282MOL0     H37165   0.875   1.614   6.544  0.2062  2.7542  0.3648
  282MOL0     H37166   0.783   1.710   6.653 -1.6004  0.2250  0.5971
  282MOL0     H37167   0.765   1.398   6.658 -1.1471  0.8519 -6.2575
  282MOL0     H37168   0.686   1.522   6.773 -0.2630  3.7864 -0.5499
  282MOL0     H37169   0.669   1.520   6.480 -2.3584  1.8606 -0.4882
  282MOL0     H37170   0.551   1.595   6.595 -1.1531 -0.8491  4.2535
  282MOL0     H37171   0.509   1.347   6.661 -0.8741 -1.0020  0.0843
  282MOL0     H37172   0.586   1.298   6.514 -2.0680 -0.8013 -1.3521
  282MOL0     H37173   0.321   1.393   6.543 -2.7951  1.3834 -1.2235
  282MOL0     H37174   0.395   1.519   6.458  1.1013  0.3611  1.7993
  282MOL0     H37175   0.490   1.356   6.274  1.0318 -1.5596  0.7048
  282MOL0     H37176   0.321   1.395   6.278 -0.6683 -0.9157 -1.7792
  282MOL0     H37177   0.466   1.117   6.518  0.2544  3.1627  0.0084
  282MOL0     H37178   0.277   0.796   6.387 -0.7684 -0.7793  3.6555
  282MOL0     H37179   0.364   0.853   6.531  3.7337 -1.4799  0.2115
  282MOL0     H37180   0.470   0.661   6.411  0.0013 -0.4103  1.1350
  282MOL0     H37181   0.572   0.805   6.458  0.1490  0.9732 -0.7683
  282MOL0     H37182   0.473   0.773   6.167  0.3735 -0.2218  0.8451
  282MOL0     H37183   0.572   0.902   6.245 -3.0423  1.5569  2.2293
  282MOL0     H37184   0.741   0.737   6.300 -2.1742 -1.2701  2.5093
  282MOL0     H37185   0.695   0.764   6.115 -1.3571  1.6591  0.4562
  282MOL0     H37186   0.882   0.565   6.043 -4.3880 -0.7324 -1.4638
  282MOL0     H37187   1.074   0.422   6.132 -0.5023 -2.9969  0.6347
  282MOL0     H37188   1.196   0.006   6.415  1.7067 -3.4103  1.1674
  282MOL0     H37189   1.376  -0.104   6.554  0.2962  1.2253 -2.3587
  282MOL0     H37190   1.600  -0.095   6.606  3.4324  0.7141  0.5643
  282MOL0     H37191   1.519  -0.188   6.738 -3.5569  2.6570  0.9501
  282MOL0     H37192   1.714  -0.130   6.884  1.2468  3.0318  0.8079
  282MOL0     H37193   1.758   0.008   6.783 -1.9270  1.1302 -1.2385
  282MOL0     H37194   1.827  -0.146   6.601  0.0945 -0.2444 -0.4197
  282MOL0     H37195   1.759  -0.286   6.696 -3.0159  1.3705 -3.3093
  282MOL0     H37196   1.963  -0.082   6.798 -2.3256  0.5533  1.1277
  282MOL0     H37197   1.916  -0.225   6.884 -4.2834  2.4192 -0.6592
  282MOL0     H37198   2.079  -0.211   6.628 -4.0306  0.3320 -1.1552
  282MOL0     H37199   2.014  -0.364   6.681 -3.2614  2.5210 -2.1480
  282MOL0     H37200   2.249  -0.205   6.764 -1.6953  0.5202 -0.4536
  282MOL0     H37201   2.236  -0.383   6.747  5.6241  1.3991  0.4177
  282MOL0     H37202   2.154  -0.219   6.975  0.8862  0.3784 -2.6613
  282MOL0     H37203   2.070  -0.369   6.953  0.9128 -0.6877 -1.6335
  282MOL0     H37204   2.300  -0.500   6.960 -1.6591 -0.1533  0.4130
  282MOL0     H37205   2.263  -0.412   7.100  1.0816  2.9924  0.4802
  282MOL0     H37206   1.381   0.242   6.810 -1.6183  0.1998 -0.1583
  282MOL0     H37207   1.158   0.302   6.711 -1.6422  0.0760 -0.4818
  282MOL0     H37208   0.839   0.318   6.474 -4.3860 -1.7215 -1.5377
  282MOL0     H37209   0.640   0.424   6.365 -1.8024  4.6797 -1.5954
  282MOL0     H37210   1.151   1.682   7.001  0.4022 -1.5303  2.6056
  282MOL0     H37211   1.335   1.644   7.158  0.4890 -1.4139 -0.1574
  282MOL0     H37212   1.997   1.588   7.066 -0.5651  1.3858  1.2247
  282MOL0     H37213   2.149   1.582   7.253 -0.4181  2.5796  0.1653
  282MOL0     H37214   2.004   1.631   7.650 -0.8161 -4.1330 -0.9651
  282MOL0     H37215   2.102   1.721   7.528  3.3034  2.1792  3.1655
  282MOL0     H37216   2.214   1.522   7.717  3.4206 -1.0429 -2.0052
  282MOL0     H37217   2.302   1.595   7.582  3.0531 -0.3510  2.3793
  282MOL0     H37218   2.177   1.778   7.795  1.5656  1.4928  1.8164
  282MOL0     H37219   2.302   1.815   7.680  0.0725 -0.5484 -1.2713
  282MOL0     H37220   2.451   1.650   7.793 -0.2822  0.1740  0.4210
  282MOL0     H37221   2.410   1.774   7.905  1.2643  0.1150 -1.7237
  282MOL0     H37222   2.284   1.466   8.141 -0.5422 -0.2001  0.0387
  282MOL0     H37223   1.809   1.522   7.511  1.2640 -0.2833  0.9378
  282MOL0     H37224   1.655   1.533   7.326 -0.4839 -4.2466 -1.0953
  283MOL0     O37225   0.031   0.896   3.432 -1.2493 -0.4300  0.7528
  283MOL0     C37226   0.011   0.943   3.320  0.2150 -0.3345  0.6806
  283MOL0     O37227   0.110   0.982   3.229  0.4089 -0.5588 -0.9434
  283MOL0     C37228   0.241   1.015   3.265  0.6695  0.4496 -0.2315
  283MOL0     C37229   0.295   1.032   3.395  0.4243 -0.3198  0.4668
  283MOL0     C37230   0.433   1.065   3.415 -1.2838  0.1119  0.4025
  283MOL0     C37231   0.511   1.081   3.296 -0.2588  1.0710  0.2533
  283MOL0     O37232   0.650   1.097   3.283  0.7656 -0.0520 -0.6718
  283MOL0     C37233   0.726   1.100   3.398 -0.1882  0.3648  0.2354
  283MOL0     C37234   0.866   1.076   3.336 -0.2757  0.5190 -0.6015
  283MOL0     C37235   0.956   1.031   3.449  0.7706 -0.0596  0.0925
  283MOL0     C37236   0.984   1.141   3.553  0.2059 -0.0361 -0.1149
  283MOL0     C37237   1.075   1.084   3.665  0.0095 -0.4038 -0.3354
  283MOL0     C37238   1.015   0.975   3.757  0.2704 -0.7013 -0.4648
  283MOL0     C37239   0.894   1.031   3.841  0.1178  1.0049  0.7757
  283MOL0     C37240   0.826   0.924   3.930  0.9259 -0.4166 -0.4655
  283MOL0     N37241   0.759   0.822   3.851  0.5135  0.1653  0.2735
  283MOL0     C37242   0.682   0.849   3.750 -0.6065 -0.3479  0.5350
  283MOL0     C37243   0.634   0.733   3.700  0.7984  0.1300  0.2500
  283MOL0     C37244   0.554   0.730   3.577 -0.3270 -0.1262  0.3836
  283MOL0     C37245   0.619   0.630   3.475 -0.3299 -0.7877  0.1957
  283MOL0     C37246   0.593   0.668   3.327 -0.1475  0.1425 -0.5332
  283MOL0     C37247   0.445   0.664   3.276 -0.4114 -0.0787  0.1377
  283MOL0     O37248   0.457   0.687   3.135 -0.7321 -0.7245  0.7465
  283MOL0     C37249   0.350   0.699   3.052 -0.8443 -0.7156  0.6746
  283MOL0     C37250   0.377   0.732   2.915  0.5474 -0.0602  0.7295
  283MOL0     C37251   0.267   0.739   2.832  0.7119  0.7511  1.0194
  283MOL0     C37252   0.132   0.723   2.868  0.1943 -0.1403  0.6423
  283MOL0     C37253   0.015   0.753   2.793  0.3374 -0.1592  0.6702
  283MOL0     O37254  -0.108   0.718   2.843  0.3831 -0.1440  0.1897
  283MOL0     C37255  -0.214   0.766   2.766 -0.4011 -0.1577 -0.4113
  283MOL0     C37256  -0.248   0.903   2.759 -0.5825  0.9872 -0.0469
  283MOL0     C37257  -0.343   0.941   2.664 -0.3524 -0.8454 -0.1117
  283MOL0     C37258  -0.410   0.845   2.582  0.2636 -0.1501  0.6542
  283MOL0     O37259  -0.506   0.884   2.491 -0.6862  0.7393 -0.2778
  283MOL0     C37260  -0.605   0.971   2.528  0.0748  0.3930 -0.2509
  283MOL0     C37261  -0.670   1.016   2.392 -0.0382  0.3374  0.2121
  283MOL0     C37262  -0.821   1.051   2.404  0.2866 -0.2095 -0.1396
  283MOL0     C37263  -0.902   0.922   2.413 -0.0314 -1.2490  0.0191
  283MOL0     C37264  -1.054   0.951   2.425  0.0932  0.2172  0.4975
  283MOL0     C37265  -1.111   1.000   2.292  0.3712 -0.0777 -0.6282
  283MOL0     C37266  -1.265   0.998   2.293  0.2229 -0.1410 -0.0811
  283MOL0     C37267  -1.313   1.026   2.151 -0.7743 -0.3513  0.9298
  283MOL0    Cl37268  -1.485   1.075   2.141  0.0795 -0.0157 -0.3511
  283MOL0     C37269  -0.374   0.713   2.586 -0.4236  0.3832 -0.1385
  283MOL0     C37270  -0.272   0.674   2.674 -0.3900  0.1164  0.5878
  283MOL0     O37271   0.028   0.835   2.706 -0.2176  0.5012  0.5522
  283MOL0     C37272   0.122   0.677   3.000 -0.0539  0.1597 -0.3927
  283MOL0     C37273   0.222   0.676   3.091  0.4937 -0.1550  0.1033
  283MOL0     N37274   0.675   0.629   3.780 -0.4726  0.0449  0.2302
  283MOL0     N37275   0.755   0.687   3.860  0.3026  0.3925  0.1043
  283MOL0     C37276   0.452   1.059   3.170  0.2966  0.6262  0.6266
  283MOL0     C37277   0.326   1.019   3.157  0.2035 -0.0653  0.0932
  283MOL0     C37278  -0.129   0.941   3.281  0.6574  0.5844 -0.3039
  283MOL0     C37279  -0.229   0.926   3.381  0.1726  1.0754 -0.5090
  283MOL0     C37280  -0.368   0.962   3.350 -0.1583  0.1752  0.4583
  283MOL0     C37281  -0.399   0.998   3.214  0.5353  1.1137 -0.3233
  283MOL0     O37282  -0.529   1.031   3.191 -0.0731  0.0013  0.5372
  283MOL0     C37283  -0.568   1.063   3.050  0.0314  0.3280 -0.1936
  283MOL0     C37284  -0.720   1.061   3.061 -1.0479  0.3907 -0.3986
  283MOL0     C37285  -0.777   1.129   2.935 -0.6320 -0.0108 -1.0745
  283MOL0     C37286  -0.922   1.108   2.929 -0.5617  0.8730  0.3212
  283MOL0     C37287  -0.954   0.965   2.903  0.0820 -0.5618 -0.4543
  283MOL0     C37288  -0.988   0.852   2.889 -0.2679  0.6181 -0.1916
  283MOL0     C37289  -0.305   0.978   3.116 -0.5764 -0.0273 -0.3691
  283MOL0     C37290  -0.169   0.962   3.145 -0.1237  0.4700  0.3804
  283MOL0     H37291   0.223   1.006   3.472  0.5823  1.8538  1.4294
  283MOL0     H37292   0.484   1.070   3.510  0.2220 -0.3763 -0.3540
  283MOL0     H37293   0.698   1.025   3.473  3.8274 -0.7838  0.8229
  283MOL0     H37294   0.725   1.201   3.441 -4.0029  1.2472 -1.4964
  283MOL0     H37295   0.902   1.167   3.288  1.2350  0.7011  0.8013
  283MOL0     H37296   0.872   0.982   3.280  0.4985 -0.7423  1.4981
  283MOL0     H37297   1.053   0.999   3.411  0.2475  0.2284 -1.6004
  283MOL0     H37298   0.912   0.939   3.490  0.3143 -0.3882 -1.0861
  283MOL0     H37299   1.043   1.218   3.502  2.5165 -1.2282  0.6375
  283MOL0     H37300   0.895   1.178   3.605 -0.2812 -2.4113  0.8611
  283MOL0     H37301   1.121   1.171   3.713  1.1000 -1.4775  0.6534
  283MOL0     H37302   1.153   1.033   3.609 -0.8283 -0.4117 -1.5414
  283MOL0     H37303   1.093   0.936   3.823  2.4320  1.3452 -1.6868
  283MOL0     H37304   0.976   0.902   3.685 -3.8254  1.4229 -0.6836
  283MOL0     H37305   0.940   1.108   3.902 -0.7895 -0.6396  3.7557
  283MOL0     H37306   0.818   1.081   3.780  0.2178  0.5891  0.2991
  283MOL0     H37307   0.755   0.968   4.000 -0.8836 -2.4487 -0.9168
  283MOL0     H37308   0.909   0.882   3.989  0.6985 -1.6346 -0.9802
  283MOL0     H37309   0.676   0.949   3.709 -0.3683  0.1618  1.6861
  283MOL0     H37310   0.543   0.834   3.546 -1.2046 -0.7661 -1.5969
  283MOL0     H37311   0.448   0.707   3.590 -0.8708  1.9412 -0.1368
  283MOL0     H37312   0.573   0.534   3.498 -2.7366  0.7572  2.5124
  283MOL0     H37313   0.725   0.619   3.499 -0.6289 -1.0558  1.4594
  283MOL0     H37314   0.642   0.762   3.297  0.6780  0.0094  0.3280
  283MOL0     H37315   0.636   0.580   3.279  0.0259  0.5094 -1.0695
  283MOL0     H37316   0.390   0.742   3.330  1.0357  0.5138  0.8156
  283MOL0     H37317   0.392   0.575   3.308  0.1889  0.1260  1.8196
  283MOL0     H37318   0.475   0.757   2.876  0.7032 -0.6528  0.7309
  283MOL0     H37319   0.285   0.782   2.734  1.3508  3.9334  2.4076
  283MOL0     H37320  -0.195   0.980   2.814  1.0961  2.6391 -3.5966
  283MOL0     H37321  -0.364   1.047   2.657 -2.2176 -1.2695 -2.9521
  283MOL0     H37322  -0.559   1.053   2.585  3.4921 -1.9354  0.6820
  283MOL0     H37323  -0.670   0.912   2.594  0.2768  0.7044  0.2349
  283MOL0     H37324  -0.659   0.931   2.324 -0.3749  0.2532  0.2597
  283MOL0     H37325  -0.625   1.111   2.362 -1.2224  0.8986  0.1420
  283MOL0     H37326  -0.858   1.100   2.313 -0.9646  0.4297  0.6979
  283MOL0     H37327  -0.846   1.111   2.492 -0.8367  0.3775 -0.8291
  283MOL0     H37328  -0.895   0.858   2.325 -0.5128  1.3009 -1.9977
  283MOL0     H37329  -0.868   0.880   2.508  1.8510 -0.0875 -0.0870
  283MOL0     H37330  -1.095   1.018   2.501 -1.7749 -0.5142  0.1841
  283MOL0     H37331  -1.090   0.855   2.463 -1.2151 -0.0834 -1.3772
  283MOL0     H37332  -1.077   0.936   2.210 -0.2685 -0.5234 -0.5519
  283MOL0     H37333  -1.087   1.105   2.273 -0.2135  0.2544  0.4008
  283MOL0     H37334  -1.308   0.904   2.331  2.0574 -0.2259  1.9951
  283MOL0     H37335  -1.299   1.084   2.351  1.0320  1.0617 -1.3291
  283MOL0     H37336  -1.294   0.946   2.079  2.6696  1.9590 -1.0518
  283MOL0     H37337  -1.268   1.119   2.114 -3.6874 -0.3902 -3.2967
  283MOL0     H37338  -0.406   0.634   2.519 -1.9887  1.7770 -1.1072
  283MOL0     H37339  -0.215   0.582   2.680  1.0663  0.3237 -4.7418
  283MOL0     H37340   0.026   0.655   3.044  0.1778 -0.1804 -0.0487
  283MOL0     H37341   0.206   0.654   3.196  0.7672 -1.9165 -0.1836
  283MOL0     H37342   0.507   1.060   3.076  0.4416 -0.9993  0.6672
  283MOL0     H37343   0.288   0.994   3.058 -1.9229 -1.1802  1.1315
  283MOL0     H37344  -0.211   0.913   3.488  3.9590  0.1835 -1.0799
  283MOL0     H37345  -0.442   0.977   3.428 -0.3582 -3.7011  1.2132
  283MOL0     H37346  -0.528   0.986   2.984  1.2187 -0.2613  1.1639
  283MOL0     H37347  -0.530   1.160   3.014 -0.9415  0.1568 -1.7835
  283MOL0     H37348  -0.746   0.956   3.078 -0.7193  0.1053 -1.5783
  283MOL0     H37349  -0.749   1.126   3.144 -4.3698  0.0079 -1.1198
  283MOL0     H37350  -0.727   1.095   2.843 -1.0450 -0.2786 -1.2043
  283MOL0     H37351  -0.752   1.235   2.946  1.1135 -0.6627  3.1167
  283MOL0     H37352  -0.968   1.141   3.023 -0.1250  1.1428  0.4416
  283MOL0     H37353  -0.950   1.161   2.838  2.3941 -0.2257 -1.3851
  283MOL0     H37354  -1.008   0.746   2.887  5.8758 -0.9397 -0.6181
  283MOL0     H37355  -0.326   1.000   3.012  0.2827 -2.1677 -1.0489
  283MOL0     H37356  -0.090   0.974   3.071 -1.2347  0.5430 -0.8075
  284MOL0     O37357   2.384   9.986  10.829 -0.3698 -0.7522 -0.3356
  284MOL0     C37358   2.440  10.094  10.819  1.1156  1.2129 -0.6447
  284MOL0     O37359   2.385  10.215  10.769 -0.5981  1.4176 -0.0007
  284MOL0     C37360   2.271  10.213  10.696  0.0730  0.0739  0.0690
  284MOL0     C37361   2.164  10.125  10.721 -0.1412 -0.2822  1.2738
  284MOL0     C37362   2.050  10.129  10.641 -0.3124  0.0551 -0.1003
  284MOL0     C37363   2.038  10.234  10.547 -0.2011 -0.3138  0.2774
  284MOL0     O37364   1.925  10.261  10.483  0.5750 -0.2596  0.9805
  284MOL0     C37365   1.804  10.233  10.553  0.2819 -0.1412 -0.6285
  284MOL0     C37366   1.685  10.282  10.464 -1.4828  0.3472 -0.0835
  284MOL0     C37367   1.547  10.255  10.524 -0.0930 -0.8820 -0.1950
  284MOL0     C37368   1.436  10.329  10.445 -0.1416  0.3726  0.5747
  284MOL0     C37369   1.316  10.347  10.537  0.3083 -0.7417  0.9380
  284MOL0     C37370   1.200  10.408  10.459  1.3935  0.0408  0.3539
  284MOL0     C37371   1.062  10.402  10.533 -0.4904  0.0712 -0.1194
  284MOL0     C37372   0.944  10.472  10.459 -0.9139 -0.7297 -0.5750
  284MOL0     N37373   0.915  10.398  10.336  0.4150  0.0763 -0.4518
  284MOL0     C37374   0.845  10.277  10.341  0.3268 -0.0941 -1.2721
  284MOL0     C37375   0.826  10.234  10.214  0.2301  1.2338  0.4052
  284MOL0     C37376   0.753  10.110  10.157 -0.5036 -1.5246  0.6803
  284MOL0     C37377   0.599  10.114  10.179  0.3502  0.5935  0.1743
  284MOL0     C37378   0.517  10.205  10.088 -0.3187  0.0875 -0.3905
  284MOL0     C37379   0.370  10.195  10.096 -0.0924  1.0902 -0.1292
  284MOL0     O37380   0.298  10.289  10.021  0.4263 -0.9443  0.3746
  284MOL0     C37381   0.157  10.262  10.020  0.4723 -0.0644  0.3463
  284MOL0     C37382   0.093  10.138  10.042  0.0351  0.0251 -0.2365
  284MOL0     C37383  -0.046  10.128  10.056 -1.2723  0.2304  0.5418
  284MOL0     C37384  -0.126  10.246  10.024 -0.2944  0.7089  0.3021
  284MOL0     C37385  -0.271  10.237  10.009 -1.2308  0.5535 -0.2169
  284MOL0     O37386  -0.339  10.329   9.931  0.1941 -0.3572  0.2841
  284MOL0     C37387  -0.475  10.344   9.949 -0.1934  1.0404  0.6119
  284MOL0     C37388  -0.538  10.447   9.875  0.3042 -0.2588 -1.1928
  284MOL0     C37389  -0.673  10.471   9.892  0.2468 -0.1569 -0.1363
  284MOL0     C37390  -0.759  10.397   9.974  0.2758  0.6383  0.2655
  284MOL0     O37391  -0.891  10.421   9.991  0.6787  0.3137 -0.1183
  284MOL0     C37392  -0.954  10.543   9.924  0.6389  1.4705 -0.3349
  284MOL0     C37393  -1.105  10.500   9.949 -0.0938 -0.2420  0.3729
  284MOL0     C37394  -1.199  10.620   9.927 -0.1075  0.0275  0.4548
  284MOL0     C37395  -1.172  10.703   9.798  0.4300  0.4570  0.4784
  284MOL0     C37396  -1.285  10.800   9.763 -0.0083  0.0987 -0.1719
  284MOL0     C37397  -1.261  10.854   9.628  0.5113 -0.1977 -1.1701
  284MOL0     C37398  -1.381  10.925   9.581 -0.3297 -0.0288 -0.6179
  284MOL0     C37399  -1.371  10.960   9.431  0.2613  0.5530  0.0866
  284MOL0    Cl37400  -1.258  11.091   9.404  0.0797  0.0575 -0.3408
  284MOL0     C37401  -0.699  10.302  10.048 -0.7178  0.8048  0.6163
  284MOL0     C37402  -0.560  10.266  10.037 -0.3640 -0.4559  0.2834
  284MOL0     O37403  -0.312  10.129  10.043  0.7702  0.2617  0.3200
  284MOL0     C37404  -0.060  10.369   9.997  0.2605  0.2117  0.3709
  284MOL0     C37405   0.078  10.374   9.989 -0.5737  0.4033 -0.7308
  284MOL0     N37406   0.886  10.326  10.134  0.1765  0.1320  1.5811
  284MOL0     N37407   0.925  10.426  10.203  0.3399 -0.5337  0.1818
  284MOL0     C37408   2.147  10.314  10.516  0.1209  0.6759 -1.2011
  284MOL0     C37409   2.261  10.304  10.592  0.1398  0.7449  0.1880
  284MOL0     C37410   2.573  10.104  10.885  0.5149 -0.5181  0.0005
  284MOL0     C37411   2.646  10.227  10.874 -0.6543  0.2051 -0.6941
  284MOL0     C37412   2.763  10.248  10.954 -0.3363  0.6971  0.8901
  284MOL0     C37413   2.812  10.143  11.022 -1.1738 -0.9630 -0.6600
  284MOL0     O37414   2.932  10.169  11.091 -0.0464 -0.6031 -0.3557
  284MOL0     C37415   3.056  10.131  11.030 -0.8675  0.4931 -0.5715
  284MOL0     C37416   3.175  10.162  11.122 -0.8612  0.2564 -0.1209
  284MOL0     C37417   3.303  10.165  11.045 -0.0180 -1.3979 -0.4366
  284MOL0     C37418   3.426  10.183  11.135 -0.1552  0.1039  0.2267
  284MOL0     C37419   3.547  10.188  11.057 -0.2739 -0.7253 -0.3078
  284MOL0     C37420   3.639  10.173  10.984  0.3897 -0.0038 -0.2350
  284MOL0     C37421   2.751  10.018  11.024 -0.1308  0.0532 -0.2481
  284MOL0     C37422   2.629  10.002  10.957 -0.6719 -0.7926  0.3741
  284MOL0     H37423   2.173  10.060  10.807 -1.6872  1.1677  2.6031
  284MOL0     H37424   1.976  10.053  10.660  2.0742 -1.6564  3.3846
  284MOL0     H37425   1.818  10.281  10.650  0.4981  2.0280 -1.6606
  284MOL0     H37426   1.806  10.124  10.563  0.1798 -0.6031 -4.2184
  284MOL0     H37427   1.690  10.235  10.365 -0.3584 -2.9527  1.4058
  284MOL0     H37428   1.714  10.386  10.446  1.2325 -0.1813  0.8537
  284MOL0     H37429   1.544  10.281  10.630  0.7059 -2.0774  0.1395
  284MOL0     H37430   1.524  10.148  10.527 -2.9972 -0.3830 -1.4549
  284MOL0     H37431   1.470  10.431  10.422 -0.6990  0.4785  0.2025
  284MOL0     H37432   1.422  10.281  10.347 -1.7535 -3.1365  2.3484
  284MOL0     H37433   1.340  10.404  10.627 -2.4480 -2.0493  2.6321
  284MOL0     H37434   1.284  10.247  10.569 -0.5287 -0.9641 -0.4834
  284MOL0     H37435   1.176  10.350  10.369 -4.7777  1.6195  0.5543
  284MOL0     H37436   1.227  10.511  10.433  2.8645  0.1115  2.0196
  284MOL0     H37437   1.031  10.304  10.568  0.6309 -0.2125  0.1157
  284MOL0     H37438   1.082  10.464  10.621 -0.7765  2.7335 -1.8120
  284MOL0     H37439   0.973  10.574  10.431  1.4245  0.3578  4.6217
  284MOL0     H37440   0.859  10.490  10.524  0.7157  0.1966  1.4078
  284MOL0     H37441   0.818  10.229  10.434  2.7129 -1.2185 -1.0798
  284MOL0     H37442   0.797  10.025  10.210 -0.7542 -3.0262 -1.4058
  284MOL0     H37443   0.782  10.105  10.052  0.9989  4.1163  0.5078
  284MOL0     H37444   0.577  10.124  10.285 -0.3511 -0.7029  0.1685
  284MOL0     H37445   0.565  10.015  10.148  2.1259  0.4381 -1.4564
  284MOL0     H37446   0.553  10.305  10.114 -3.4993  1.1028  0.4804
  284MOL0     H37447   0.548  10.197   9.984  0.5542 -0.9633 -0.0779
  284MOL0     H37448   0.334  10.181  10.199 -2.1789 -1.2002 -1.0659
  284MOL0     H37449   0.354  10.099  10.046  2.3517 -0.4209  1.7011
  284MOL0     H37450   0.146  10.048  10.070  1.1976  0.3439 -1.3156
  284MOL0     H37451  -0.089  10.032  10.081 -1.2963  0.6391  2.1664
  284MOL0     H37452  -0.483  10.509   9.806 -1.2003  1.9034 -0.5525
  284MOL0     H37453  -0.709  10.556   9.834  1.9843 -0.7495 -2.2067
  284MOL0     H37454  -0.934  10.553   9.817 -2.2974  1.6489 -0.9400
  284MOL0     H37455  -0.932  10.637   9.974  0.7441  0.3737  1.7969
  284MOL0     H37456  -1.097  10.464  10.052  2.9850  1.5127  0.8907
  284MOL0     H37457  -1.127  10.414   9.886  3.0705 -0.3758 -0.7199
  284MOL0     H37458  -1.198  10.684  10.016 -0.3186  0.1691  0.3569
  284MOL0     H37459  -1.301  10.579   9.925  0.6132 -2.1146 -3.7305
  284MOL0     H37460  -1.086  10.768   9.814  0.3062  1.2149 -1.6916
  284MOL0     H37461  -1.160  10.628   9.719 -2.3689  0.4278 -0.0113
  284MOL0     H37462  -1.298  10.883   9.833  1.0523  1.0020 -1.0084
  284MOL0     H37463  -1.383  10.751   9.763  0.1110 -0.1900  1.5636
  284MOL0     H37464  -1.231  10.782   9.552  0.6892  0.5089 -1.7867
  284MOL0     H37465  -1.184  10.932   9.637 -1.6768  1.8454  1.1316
  284MOL0     H37466  -1.467  10.858   9.589 -0.2286 -0.1079 -0.2159
  284MOL0     H37467  -1.409  11.003   9.652  0.2014 -3.0924  3.2470
  284MOL0     H37468  -1.475  10.982   9.407 -0.0822  0.6168  1.5477
  284MOL0     H37469  -1.344  10.869   9.376 -1.2917  0.1563 -0.0436
  284MOL0     H37470  -0.771  10.252  10.113 -1.0742 -1.4876 -1.4280
  284MOL0     H37471  -0.529  10.183  10.101 -1.9515 -0.0615  1.6471
  284MOL0     H37472  -0.115  10.455   9.960 -0.6497  0.1632  1.5270
  284MOL0     H37473   0.121  10.470   9.966 -2.0506  0.8762 -1.6410
  284MOL0     H37474   2.147  10.386  10.436  2.0830  1.2385 -0.7538
  284MOL0     H37475   2.339  10.375  10.566 -0.8347  0.6316 -3.6096
  284MOL0     H37476   2.610  10.317  10.824 -1.7757 -0.2012 -0.6475
  284MOL0     H37477   2.800  10.350  10.954 -2.6709  1.6544 -1.4212
  284MOL0     H37478   3.074  10.177  10.932 -1.4385  3.9049  0.7999
  284MOL0     H37479   3.050  10.024  11.005  0.5769 -0.1615  1.5549
  284MOL0     H37480   3.166  10.254  11.182 -1.0968  0.0339  0.1884
  284MOL0     H37481   3.184  10.082  11.196 -2.8924 -1.4874 -1.6382
  284MOL0     H37482   3.294  10.243  10.968  0.9449 -1.4852 -0.6466
  284MOL0     H37483   3.315  10.075  10.983  2.7595 -0.1335 -1.9198
  284MOL0     H37484   3.411  10.281  11.180  0.7011  1.5020 -2.3519
  284MOL0     H37485   3.435  10.113  11.218 -0.9711  1.0151  1.1046
  284MOL0     H37486   3.723  10.177  10.918  0.7137 -2.2212 -0.0143
  284MOL0     H37487   2.776   9.934  11.089  1.0928  1.0250  0.5811
  284MOL0     H37488   2.561   9.919  10.966 -0.4820 -0.8738  1.1297
  285MOL0     O37489  10.833   5.714   9.202 -0.0338 -1.1227 -0.4207
  285MOL0     C37490  10.925   5.637   9.189 -0.1601 -0.8655 -0.7926
  285MOL0     O37491  10.917   5.501   9.198 -0.1431  0.6092 -0.2671
  285MOL0     C37492  10.809   5.429   9.216  0.2204  0.8692  0.5582
  285MOL0     C37493  10.785   5.316   9.128 -0.1218 -0.1428 -0.6934
  285MOL0     C37494  10.659   5.257   9.145 -0.6189  1.0179 -0.0333
  285MOL0     C37495  10.571   5.288   9.238  0.0774 -0.0260 -0.2425
  285MOL0     O37496  10.455   5.222   9.240  0.7371  0.3132  0.0941
  285MOL0     C37497  10.338   5.283   9.298 -0.8158 -0.5497  0.0355
  285MOL0     C37498  10.208   5.217   9.250  0.0576  0.9590 -0.2993
  285MOL0     C37499  10.188   5.085   9.326  0.3744 -0.4405 -0.5968
  285MOL0     C37500  10.051   5.030   9.315  0.5733  0.2816  0.0490
  285MOL0     C37501  10.044   4.886   9.378  0.3584 -0.1979 -1.0648
  285MOL0     C37502   9.912   4.818   9.363  0.3834  0.4437  0.4338
  285MOL0     C37503   9.899   4.689   9.431 -0.4870 -0.1088  0.0772
  285MOL0     C37504   9.838   4.584   9.345  0.0017  0.2629  0.4861
  285MOL0     N37505   9.835   4.452   9.405  0.1723  0.7087 -0.1368
  285MOL0     C37506   9.922   4.399   9.492 -0.5218 -0.3544 -0.3801
  285MOL0     C37507   9.880   4.277   9.508 -0.2816 -0.0921 -0.6587
  285MOL0     C37508   9.949   4.190   9.607  0.2156 -0.5595  0.7866
  285MOL0     C37509  10.090   4.150   9.558  1.2866 -0.9607 -0.2867
  285MOL0     C37510  10.133   4.035   9.658  0.9152  0.2006 -0.4375
  285MOL0     C37511  10.286   4.002   9.640 -0.8101 -0.6253  0.3719
  285MOL0     O37512  10.359   4.122   9.677  0.4786  0.3449  0.4156
  285MOL0     C37513  10.478   4.146   9.623  0.1453  0.4186  0.6190
  285MOL0     C37514  10.541   4.263   9.659 -0.9273 -1.2382 -0.6060
  285MOL0     C37515  10.669   4.289   9.612 -0.6048  0.0224 -0.4668
  285MOL0     C37516  10.742   4.202   9.532 -0.4571  0.0952  0.9570
  285MOL0     C37517  10.865   4.217   9.472 -0.8686  0.2024  1.1237
  285MOL0     O37518  10.900   4.153   9.351 -0.4984  0.3136 -0.4857
  285MOL0     C37519  11.025   4.181   9.297  0.7786 -0.4248  0.2099
  285MOL0     C37520  11.098   4.070   9.256 -0.2200 -0.1027 -0.2931
  285MOL0     C37521  11.227   4.086   9.200  0.6520  0.1839 -0.3520
  285MOL0     C37522  11.279   4.215   9.186 -0.8992 -0.3603 -0.2720
  285MOL0     O37523  11.408   4.246   9.144 -0.3937  0.0277 -0.0010
  285MOL0     C37524  11.474   4.163   9.050 -0.1586  0.0190  0.9593
  285MOL0     C37525  11.576   4.251   8.983 -1.0160  0.3995  0.7639
  285MOL0     C37526  11.567   4.213   8.833  0.6353  0.3892  0.9367
  285MOL0     C37527  11.469   4.297   8.751  0.5827 -0.2774  0.5805
  285MOL0     C37528  11.533   4.427   8.690 -0.9255  0.4063 -0.1622
  285MOL0     C37529  11.418   4.519   8.633  0.7403  0.2944 -0.6335
  285MOL0     C37530  11.463   4.653   8.597  0.4219  0.5093 -0.2553
  285MOL0     C37531  11.344   4.727   8.544  0.7330 -0.3945 -0.8676
  285MOL0    Cl37532  11.308   4.661   8.389  0.5138  0.0360 -0.1156
  285MOL0     C37533  11.208   4.329   9.239 -0.2949  0.4088  0.1521
  285MOL0     C37534  11.080   4.308   9.280 -0.5005  1.0784 -0.8453
  285MOL0     O37535  10.943   4.282   9.538 -0.4312  0.2982  0.5582
  285MOL0     C37536  10.688   4.077   9.507 -0.7295 -0.3421  0.3033
  285MOL0     C37537  10.557   4.047   9.551 -0.9232 -0.4923  0.6829
  285MOL0     N37538   9.763   4.245   9.443  0.4598  0.1098  0.2815
  285MOL0     N37539   9.739   4.359   9.381 -0.1134 -0.2399 -0.7586
  285MOL0     C37540  10.601   5.392   9.330  0.0418  0.2032 -0.0951
  285MOL0     C37541  10.722   5.465   9.317 -0.2709  1.0255 -0.7092
  285MOL0     C37542  11.050   5.696   9.155  0.2464  1.1251  0.9818
  285MOL0     C37543  11.054   5.830   9.113 -0.4898 -0.5220  0.7404
  285MOL0     C37544  11.172   5.887   9.075  0.6879  0.4937  0.3829
  285MOL0     C37545  11.289   5.812   9.055  0.2782 -0.3853 -0.1057
  285MOL0     O37546  11.402   5.886   9.025 -0.0071  0.1497 -0.1971
  285MOL0     C37547  11.518   5.813   8.991 -0.3116  0.5594  0.4374
  285MOL0     C37548  11.610   5.931   8.944 -0.2450  0.1929  0.6786
  285MOL0     C37549  11.747   5.894   8.910 -0.7892  0.4476  0.3820
  285MOL0     C37550  11.842   5.849   9.025  0.2259  0.0560 -0.6575
  285MOL0     C37551  11.826   5.704   9.051 -1.0249 -0.1362 -0.3061
  285MOL0     C37552  11.813   5.585   9.081 -0.1710  0.1779  0.4236
  285MOL0     C37553  11.292   5.676   9.102  0.2512  1.4961  1.2587
  285MOL0     C37554  11.165   5.618   9.141 -0.7039 -0.5482  0.1867
  285MOL0     H37555  10.850   5.279   9.049  1.7754 -1.8575  1.5279
  285MOL0     H37556  10.625   5.176   9.081 -2.8379  0.0859  2.1484
  285MOL0     H37557  10.334   5.388   9.267  1.6440 -0.2033  0.6742
  285MOL0     H37558  10.335   5.278   9.408 -1.2418 -0.8349  0.0111
  285MOL0     H37559  10.218   5.187   9.146  1.1197  4.1486 -1.2608
  285MOL0     H37560  10.124   5.282   9.276 -0.5675 -0.0478  0.2607
  285MOL0     H37561  10.205   5.103   9.433  1.5193  1.7124 -1.0693
  285MOL0     H37562  10.258   5.015   9.282  0.6717  0.4649 -1.6267
  285MOL0     H37563   9.978   5.101   9.356 -1.1205 -1.2177 -0.2719
  285MOL0     H37564  10.036   5.009   9.209  3.0459 -3.1571  0.2087
  285MOL0     H37565  10.079   4.883   9.482  1.8684 -0.2952 -1.5506
  285MOL0     H37566  10.120   4.822   9.332 -1.5097 -3.0323 -0.5479
  285MOL0     H37567   9.887   4.819   9.256  0.3327 -0.5864  0.4205
  285MOL0     H37568   9.830   4.870   9.412 -1.0088 -1.7635  0.6067
  285MOL0     H37569  10.003   4.662   9.454  1.2378  2.9890 -3.0924
  285MOL0     H37570   9.839   4.694   9.522 -1.4887 -2.2981 -0.4101
  285MOL0     H37571   9.887   4.580   9.247 -0.1608  2.4137  0.2842
  285MOL0     H37572   9.733   4.610   9.324  0.9230  3.0950 -1.1879
  285MOL0     H37573   9.999   4.440   9.557 -2.9372  0.8595  1.8950
  285MOL0     H37574   9.880   4.105   9.615 -2.5901  1.4651 -0.5183
  285MOL0     H37575   9.965   4.231   9.707  4.3059 -1.2920  0.6044
  285MOL0     H37576  10.145   4.244   9.551 -0.9518  0.3333 -2.2213
  285MOL0     H37577  10.103   4.115   9.455 -1.5492 -1.5603 -0.5380
  285MOL0     H37578  10.109   4.068   9.760 -2.1577  1.1010 -1.3442
  285MOL0     H37579  10.084   3.941   9.631 -0.0632  0.3570  0.7257
  285MOL0     H37580  10.289   3.971   9.535 -0.7526 -1.6985  0.6818
  285MOL0     H37581  10.312   3.910   9.693  0.7868 -0.8776 -0.7768
  285MOL0     H37582  10.496   4.329   9.732 -0.8481 -0.2106 -1.4629
  285MOL0     H37583  10.714   4.383   9.642 -0.5604  0.1789 -1.0096
  285MOL0     H37584  11.065   3.969   9.280 -2.9931  0.7267 -0.3346
  285MOL0     H37585  11.281   3.996   9.176 -0.0139  0.1972 -2.0291
  285MOL0     H37586  11.406   4.120   8.976  2.1706 -2.9325  0.3404
  285MOL0     H37587  11.520   4.079   9.104 -0.4938 -1.9058 -1.5703
  285MOL0     H37588  11.676   4.220   9.016 -0.5183  0.0055 -0.9692
  285MOL0     H37589  11.561   4.358   8.998 -0.3497  1.0525 -2.4847
  285MOL0     H37590  11.551   4.108   8.804  3.0026  0.3777 -0.6429
  285MOL0     H37591  11.667   4.238   8.796 -0.1869  1.7459 -0.4779
  285MOL0     H37592  11.424   4.238   8.671  3.3077 -2.4577  0.5123
  285MOL0     H37593  11.392   4.322   8.825  0.8945  3.1267 -0.1152
  285MOL0     H37594  11.606   4.401   8.613 -0.3810 -2.3231  1.1493
  285MOL0     H37595  11.592   4.491   8.755  0.3438  0.4001 -1.2594
  285MOL0     H37596  11.351   4.533   8.718  3.5356  2.3757  1.4403
  285MOL0     H37597  11.374   4.471   8.545 -0.6691  0.5856 -0.1040
  285MOL0     H37598  11.504   4.695   8.689 -1.7804 -1.8892  1.9792
  285MOL0     H37599  11.537   4.639   8.518 -0.1287 -2.7502 -0.3343
  285MOL0     H37600  11.375   4.831   8.534 -2.6840  0.7598 -0.8152
  285MOL0     H37601  11.251   4.732   8.603  1.3575 -2.5588  0.4178
  285MOL0     H37602  11.251   4.428   9.250  0.1299  0.2028  0.3619
  285MOL0     H37603  11.020   4.385   9.327  0.9292 -0.3854  4.0229
  285MOL0     H37604  10.736   4.008   9.438  0.2819 -0.9726  1.5901
  285MOL0     H37605  10.519   3.945   9.552 -3.9268  0.5129  0.5323
  285MOL0     H37606  10.534   5.422   9.410  1.4664  2.6894  0.2628
  285MOL0     H37607  10.745   5.540   9.393  0.9825 -1.7120  1.7853
  285MOL0     H37608  10.965   5.892   9.117 -1.7526 -2.2796  4.5106
  285MOL0     H37609  11.162   5.993   9.055 -1.8558  0.4645  1.0667
  285MOL0     H37610  11.496   5.751   8.904  2.3691 -2.4079  1.6748
  285MOL0     H37611  11.560   5.749   9.069  0.2011 -0.5889 -0.7414
  285MOL0     H37612  11.569   5.986   8.859  4.5218  3.0984 -0.1490
  285MOL0     H37613  11.613   6.002   9.027  0.4978 -1.1421  1.8317
  285MOL0     H37614  11.791   5.983   8.863 -1.0211 -0.1071 -0.9476
  285MOL0     H37615  11.752   5.812   8.838 -0.4830  0.5545  0.2800
  285MOL0     H37616  11.947   5.866   8.999 -0.4725  2.0812 -2.3671
  285MOL0     H37617  11.817   5.898   9.119  0.2265  1.4331 -1.3574
  285MOL0     H37618  11.788   5.481   9.091 -1.4234 -0.2438 -4.5690
  285MOL0     H37619  11.377   5.611   9.121 -2.0146 -1.7233  1.1738
  285MOL0     H37620  11.142   5.516   9.170 -3.1327 -0.8823 -2.4281
  286MOL0     O37621   0.518   5.447   2.013 -0.3488 -0.0403  0.6611
  286MOL0     C37622   0.581   5.348   1.982  0.6919  0.0055  0.4644
  286MOL0     O37623   0.567   5.279   1.867  0.7130 -0.6418 -0.2053
  286MOL0     C37624   0.480   5.330   1.769  0.6859  0.2999  0.1221
  286MOL0     C37625   0.506   5.261   1.647 -0.2473 -0.0024 -0.0415
  286MOL0     C37626   0.429   5.282   1.536  0.4434  1.1732  0.5911
  286MOL0     C37627   0.326   5.381   1.541 -0.6380  0.4475 -0.4991
  286MOL0     O37628   0.268   5.396   1.419 -0.4126 -0.4632  0.3894
  286MOL0     C37629   0.199   5.515   1.382 -0.4709  0.5183  0.2698
  286MOL0     C37630   0.165   5.507   1.234  0.4021  0.9881 -0.0309
  286MOL0     C37631   0.286   5.526   1.138 -0.3026  0.0403 -0.0234
  286MOL0     C37632   0.247   5.492   0.995  0.4739  0.0889  0.2192
  286MOL0     C37633   0.383   5.507   0.914  0.0289 -0.0338  0.1187
  286MOL0     C37634   0.366   5.519   0.751 -0.3470  0.2427 -0.0255
  286MOL0     C37635   0.497   5.559   0.674  0.4276  0.0818 -0.0808
  286MOL0     C37636   0.561   5.693   0.729 -1.2393 -0.8649 -0.1140
  286MOL0     N37637   0.473   5.805   0.736  0.1341 -0.2555  0.1414
  286MOL0     C37638   0.402   5.849   0.632  0.0248 -0.1192 -0.1443
  286MOL0     C37639   0.313   5.926   0.693  0.9055  0.4145  0.3370
  286MOL0     C37640   0.199   6.002   0.620 -0.2958 -0.2767 -0.1157
  286MOL0     C37641   0.069   6.023   0.694 -0.0945  0.2868 -0.4353
  286MOL0     C37642  -0.044   5.937   0.638  0.4215 -1.0268 -0.1066
  286MOL0     C37643  -0.174   5.973   0.699  0.4900  0.2742  0.0212
  286MOL0     O37644  -0.275   5.899   0.634 -0.5085  0.4699  0.1100
  286MOL0     C37645  -0.404   5.944   0.645  0.3730  0.6375 -0.5501
  286MOL0     C37646  -0.481   5.959   0.530 -0.6833  0.3316 -0.4280
  286MOL0     C37647  -0.617   5.993   0.544 -0.1521  0.4306  1.0439
  286MOL0     C37648  -0.685   5.997   0.663  0.1514  0.9765 -0.4036
  286MOL0     C37649  -0.824   6.027   0.666 -0.0782 -0.7888  0.1718
  286MOL0     O37650  -0.892   6.060   0.551 -0.0919  0.4263  0.2521
  286MOL0     C37651  -1.029   6.093   0.563 -0.0926  0.1920  0.0944
  286MOL0     C37652  -1.065   6.214   0.624  0.4507 -0.2447  0.1415
  286MOL0     C37653  -1.192   6.253   0.638 -0.7615 -0.7986  0.6848
  286MOL0     C37654  -1.294   6.186   0.572 -0.5360  0.0877 -0.1698
  286MOL0     O37655  -1.415   6.246   0.587  0.3734  0.3310 -0.3267
  286MOL0     C37656  -1.517   6.223   0.490  0.1814 -0.4818  1.1002
  286MOL0     C37657  -1.628   6.312   0.513  0.3077  0.6382  0.8177
  286MOL0     C37658  -1.723   6.322   0.397 -0.8979 -0.4856 -0.2453
  286MOL0     C37659  -1.839   6.407   0.439  0.8301 -0.0005  0.0299
  286MOL0     C37660  -1.939   6.428   0.321  1.0177 -0.2449 -0.0083
  286MOL0     C37661  -2.032   6.549   0.325  0.0871 -0.1744  0.2488
  286MOL0     C37662  -2.123   6.554   0.445 -0.4027  0.3210 -0.4563
  286MOL0     C37663  -2.265   6.520   0.420 -0.3987 -0.5875 -0.0790
  286MOL0    Cl37664  -2.364   6.575   0.560 -0.4113  0.1060  0.6201
  286MOL0     C37665  -1.264   6.062   0.505  0.5685 -0.4881  0.7759
  286MOL0     C37666  -1.133   6.024   0.504 -0.6289  0.5291  0.2848
  286MOL0     O37667  -0.875   6.028   0.778  0.7459 -0.6314  0.2196
  286MOL0     C37668  -0.601   5.965   0.780  0.2421 -0.0828 -0.0226
  286MOL0     C37669  -0.468   5.944   0.773  0.1632 -0.5328 -0.4947
  286MOL0     N37670   0.337   5.935   0.828 -0.6804  1.1301 -0.1454
  286MOL0     N37671   0.443   5.877   0.854 -0.6859  1.1682 -0.4130
  286MOL0     C37672   0.304   5.454   1.663 -0.1543  0.4123 -0.0992
  286MOL0     C37673   0.383   5.428   1.770 -0.0852 -0.2576 -0.1731
  286MOL0     C37674   0.680   5.313   2.091  0.1609 -0.3410  0.9734
  286MOL0     C37675   0.743   5.185   2.099  0.4744 -0.6604  0.7559
  286MOL0     C37676   0.857   5.162   2.177 -0.0602  0.5348 -1.0982
  286MOL0     C37677   0.903   5.252   2.271  0.6829 -0.3560  0.1834
  286MOL0     O37678   1.004   5.233   2.357  0.1265 -0.0146 -1.1410
  286MOL0     C37679   1.086   5.113   2.356 -0.2879  0.2832  0.5165
  286MOL0     C37680   1.216   5.144   2.428  0.7690  0.5828 -0.2783
  286MOL0     C37681   1.191   5.226   2.551 -0.4649 -0.0649  0.1801
  286MOL0     C37682   1.327   5.226   2.618 -0.7406 -0.8148  0.0327
  286MOL0     C37683   1.326   5.336   2.717 -0.3098 -0.2661  0.5565
  286MOL0     C37684   1.313   5.432   2.790 -0.4409  0.0451 -0.5243
  286MOL0     C37685   0.829   5.373   2.276 -0.6591 -0.0515 -0.0278
  286MOL0     C37686   0.722   5.404   2.187 -0.0388  0.2535  0.3397
  286MOL0     H37687   0.581   5.183   1.634 -0.1487  0.1628 -0.4901
  286MOL0     H37688   0.433   5.213   1.453 -1.1137  1.8858 -0.1066
  286MOL0     H37689   0.253   5.609   1.386 -0.4903  0.4737  2.1067
  286MOL0     H37690   0.113   5.528   1.448 -1.2299 -3.2799  0.2588
  286MOL0     H37691   0.101   5.594   1.218 -0.0519  0.7004  0.2311
  286MOL0     H37692   0.112   5.414   1.212 -3.0471  2.4818  1.2641
  286MOL0     H37693   0.357   5.451   1.175  0.1169 -0.3601 -1.5646
  286MOL0     H37694   0.327   5.628   1.144 -1.2220  0.3607  1.5541
  286MOL0     H37695   0.212   5.389   0.981 -1.3179  0.7746 -0.5701
  286MOL0     H37696   0.163   5.551   0.960  0.1326 -0.2988  0.3729
  286MOL0     H37697   0.441   5.416   0.933 -0.1649 -1.1032 -3.5894
  286MOL0     H37698   0.436   5.596   0.950  0.5377 -0.3226  0.0925
  286MOL0     H37699   0.297   5.604   0.744  0.3538  0.7142 -2.0849
  286MOL0     H37700   0.324   5.427   0.709 -1.3827  0.7573 -0.1560
  286MOL0     H37701   0.568   5.476   0.667 -1.7265 -1.7464 -4.1394
  286MOL0     H37702   0.471   5.569   0.568 -1.3766 -1.2481  0.1677
  286MOL0     H37703   0.649   5.720   0.670 -1.0431 -1.0943  0.0665
  286MOL0     H37704   0.609   5.674   0.826 -1.0511 -1.1796 -0.2669
  286MOL0     H37705   0.407   5.819   0.528  0.8283 -1.0127  0.1361
  286MOL0     H37706   0.181   5.964   0.519  0.7080 -2.2684  0.3984
  286MOL0     H37707   0.238   6.103   0.606 -1.9583  0.6379  1.4872
  286MOL0     H37708   0.039   6.129   0.697 -4.6007 -0.7935  0.4476
  286MOL0     H37709   0.087   5.989   0.796  1.7246 -2.1161 -1.4594
  286MOL0     H37710  -0.060   5.947   0.530 -2.2994  1.4471  0.4116
  286MOL0     H37711  -0.035   5.832   0.668 -1.3146 -2.7518 -4.7601
  286MOL0     H37712  -0.184   6.081   0.688  3.2679  0.4086 -1.9668
  286MOL0     H37713  -0.174   5.953   0.807 -0.5850  1.3386  0.2392
  286MOL0     H37714  -0.431   5.953   0.434  1.3893  3.8814  0.2631
  286MOL0     H37715  -0.665   5.986   0.447 -0.9801 -2.6946  1.5619
  286MOL0     H37716  -0.986   6.269   0.673  0.0299  2.5021 -1.9962
  286MOL0     H37717  -1.213   6.346   0.690  2.5163 -0.2156  1.1401
  286MOL0     H37718  -1.543   6.117   0.502 -2.6724  0.0058  0.0219
  286MOL0     H37719  -1.482   6.244   0.388  0.4853  0.1521  1.3305
  286MOL0     H37720  -1.594   6.415   0.529 -1.8692  1.4114  0.9212
  286MOL0     H37721  -1.675   6.274   0.605  1.1539 -2.4300  0.0933
  286MOL0     H37722  -1.762   6.221   0.382  1.7635 -1.7569  0.8977
  286MOL0     H37723  -1.677   6.373   0.312  0.9208 -2.3078 -0.4335
  286MOL0     H37724  -1.893   6.367   0.525 -4.1340  2.6754 -1.4662
  286MOL0     H37725  -1.803   6.509   0.458 -0.6381  0.5318  0.0676
  286MOL0     H37726  -2.009   6.344   0.316 -1.8695  2.0515 -3.2883
  286MOL0     H37727  -1.897   6.430   0.220 -1.7695 -0.0146 -1.2489
  286MOL0     H37728  -2.098   6.545   0.238 -0.1732 -0.1527  0.4461
  286MOL0     H37729  -1.980   6.645   0.323 -2.6969  1.4721  1.5286
  286MOL0     H37730  -2.079   6.489   0.521  3.2558  3.5917  0.5324
  286MOL0     H37731  -2.117   6.652   0.492 -0.2316 -1.1468  2.8458
  286MOL0     H37732  -2.259   6.412   0.407  1.3428 -0.3318 -1.8893
  286MOL0     H37733  -2.298   6.559   0.323  0.6021 -1.9029 -0.9883
  286MOL0     H37734  -1.338   6.001   0.454  0.1553 -1.0253  1.9985
  286MOL0     H37735  -1.102   5.945   0.435  0.9800  4.4483 -3.9946
  286MOL0     H37736  -0.661   5.960   0.871  0.5104  0.7506  0.2148
  286MOL0     H37737  -0.423   5.926   0.870 -1.7502 -0.2905  0.4900
  286MOL0     H37738   0.238   5.540   1.667  0.9567  1.2581  0.7494
  286MOL0     H37739   0.363   5.489   1.858 -0.0270 -1.0041  0.3644
  286MOL0     H37740   0.709   5.100   2.041 -2.2463 -1.1613  2.8832
  286MOL0     H37741   0.900   5.062   2.179 -0.3915  0.4031 -0.2697
  286MOL0     H37742   1.107   5.088   2.251 -0.5316 -1.2641  0.8074
  286MOL0     H37743   1.030   5.028   2.395 -0.8131  0.5424  0.3359
  286MOL0     H37744   1.264   5.050   2.454 -3.3226 -1.8924 -0.7579
  286MOL0     H37745   1.285   5.193   2.359  1.6213 -1.2755 -0.8198
  286MOL0     H37746   1.115   5.177   2.614 -0.0270  1.4498  1.9539
  286MOL0     H37747   1.153   5.326   2.527  1.6616  0.1180 -2.8845
  286MOL0     H37748   1.351   5.123   2.644  1.0969 -0.5554 -0.4990
  286MOL0     H37749   1.411   5.250   2.552 -2.0006 -0.1358 -1.4085
  286MOL0     H37750   1.324   5.522   2.848 -1.1460 -0.0291 -0.2701
  286MOL0     H37751   0.854   5.456   2.342  0.7883 -1.6678  1.5593
  286MOL0     H37752   0.686   5.505   2.199 -0.9936 -0.0429  0.0536
  287MOL0     O37753   7.673   8.188   9.853  0.2196  0.1533  0.4895
  287MOL0     C37754   7.638   8.221   9.741  0.4596 -0.4353  0.8971
  287MOL0     O37755   7.725   8.224   9.629 -0.6190  0.8677  0.2431
  287MOL0     C37756   7.852   8.165   9.649  0.9586  0.3184 -0.0120
  287MOL0     C37757   7.964   8.240   9.629  0.4030 -0.6990 -0.2907
  287MOL0     C37758   8.087   8.176   9.633  0.4150 -0.4738  0.5272
  287MOL0     C37759   8.104   8.041   9.676 -0.6204  1.1564 -0.3787
  287MOL0     O37760   8.225   7.985   9.692  0.6054 -0.0423  1.0998
  287MOL0     C37761   8.249   7.867   9.619 -1.1066  0.3915  0.4609
  287MOL0     C37762   8.399   7.822   9.633  0.6001  0.2074 -0.1391
  287MOL0     C37763   8.499   7.911   9.564  0.5485  0.2714 -0.1453
  287MOL0     C37764   8.626   7.824   9.550  0.0231 -0.1210 -0.3667
  287MOL0     C37765   8.738   7.903   9.474  0.4855  0.0201  0.3793
  287MOL0     C37766   8.869   7.818   9.466  0.7468 -0.7070 -0.2970
  287MOL0     C37767   8.973   7.868   9.566 -0.2595  0.0322  0.0848
  287MOL0     C37768   9.030   8.002   9.533  0.3542  0.3837  0.9291
  287MOL0     N37769   9.107   7.990   9.402 -0.2970  0.0109 -0.6270
  287MOL0     C37770   9.057   8.033   9.279 -0.0629  0.0522 -0.1677
  287MOL0     C37771   9.130   7.973   9.175  0.4994  0.4601  0.4948
  287MOL0     C37772   9.114   7.992   9.029  0.0320  0.4149  0.4255
  287MOL0     C37773   9.009   7.882   8.966  0.2795  0.4706  0.4194
  287MOL0     C37774   8.857   7.910   8.994  0.5111 -0.0166  0.9264
  287MOL0     C37775   8.798   8.027   8.915 -0.3921 -0.1757 -0.3624
  287MOL0     O37776   8.807   8.155   8.976  0.6079  0.9233  0.6949
  287MOL0     C37777   8.694   8.208   9.037 -0.6815 -0.0474 -0.1310
  287MOL0     C37778   8.643   8.149   9.153 -0.7927 -0.1856  0.0992
  287MOL0     C37779   8.520   8.172   9.208  0.0705 -0.8964 -0.0634
  287MOL0     C37780   8.436   8.284   9.156 -0.6209 -0.5351  0.2588
  287MOL0     C37781   8.310   8.325   9.217  0.6483 -0.4285  0.1981
  287MOL0     O37782   8.255   8.455   9.188 -0.1541  0.1745  0.5623
  287MOL0     C37783   8.118   8.473   9.241 -0.6415 -0.9128  0.2807
  287MOL0     C37784   8.088   8.560   9.335  0.2663  0.4344 -0.5103
  287MOL0     C37785   7.964   8.571   9.394  0.2949  0.0590  0.5887
  287MOL0     C37786   7.857   8.497   9.345  2.0403 -0.7862  0.4350
  287MOL0     O37787   7.728   8.521   9.382  0.9303 -0.2058  0.2234
  287MOL0     C37788   7.625   8.491   9.292  0.4366  0.1541  0.7421
  287MOL0     C37789   7.497   8.557   9.344  0.3355 -0.0404 -0.0949
  287MOL0     C37790   7.385   8.533   9.251 -0.5218  0.1529  0.3524
  287MOL0     C37791   7.274   8.633   9.271  0.6753 -0.4440 -1.1749
  287MOL0     C37792   7.152   8.596   9.190 -0.4822 -0.2221  0.3762
  287MOL0     C37793   7.038   8.532   9.261 -0.5400 -0.5220 -0.4349
  287MOL0     C37794   6.923   8.498   9.172  0.6758  0.0262  0.2485
  287MOL0     C37795   6.830   8.407   9.254  0.6099  0.0335 -0.3182
  287MOL0    Cl37796   6.686   8.388   9.156  0.5293  0.6631  0.3962
  287MOL0     C37797   7.880   8.413   9.235  0.2253  0.7671 -0.0479
  287MOL0     C37798   8.007   8.396   9.186 -0.5563  0.5457 -0.3664
  287MOL0     O37799   8.259   8.234   9.290  0.5964 -0.3280 -0.2792
  287MOL0     C37800   8.487   8.363   9.051  0.3550 -0.0289 -0.0787
  287MOL0     C37801   8.617   8.324   9.004 -0.2649  0.4385  0.3933
  287MOL0     N37802   9.222   7.892   9.243  0.4661  0.2821  0.8857
  287MOL0     N37803   9.203   7.903   9.368  0.8804  0.1307  0.7293
  287MOL0     C37804   7.988   7.966   9.698  0.5444 -0.3796 -0.6742
  287MOL0     C37805   7.862   8.031   9.696 -0.7243  0.4503 -0.3291
  287MOL0     C37806   7.490   8.253   9.723  0.9641 -0.4162  0.6974
  287MOL0     C37807   7.441   8.311   9.602  0.6216  0.2091  0.1273
  287MOL0     C37808   7.305   8.332   9.584 -0.1808  0.2913  0.5364
  287MOL0     C37809   7.209   8.311   9.684 -0.2960 -0.5912 -1.8405
  287MOL0     O37810   7.072   8.340   9.661 -0.4902  0.3985  0.5988
  287MOL0     C37811   6.981   8.289   9.766  0.1955  0.1204  0.5299
  287MOL0     C37812   6.836   8.343   9.757 -0.6493 -0.1859  0.5368
  287MOL0     C37813   6.780   8.295   9.622 -0.0288  0.3587  0.3921
  287MOL0     C37814   6.625   8.279   9.609 -0.5143 -0.4551  0.1893
  287MOL0     C37815   6.565   8.385   9.530  0.0985  0.7443  1.6713
  287MOL0     C37816   6.499   8.455   9.454 -0.1852  0.3769 -0.0181
  287MOL0     C37817   7.262   8.256   9.801  0.6083  0.6519 -0.2630
  287MOL0     C37818   7.395   8.214   9.815  0.5850 -0.0268 -0.5964
  287MOL0     H37819   7.962   8.340   9.586  0.3934 -0.0491  1.1395
  287MOL0     H37820   8.178   8.230   9.609 -0.4524  0.9645  0.3750
  287MOL0     H37821   8.211   7.886   9.518 -2.4777 -0.2689  0.8287
  287MOL0     H37822   8.202   7.777   9.661  3.0221 -2.0736  0.3387
  287MOL0     H37823   8.401   7.719   9.595 -0.2395 -0.0863  0.5713
  287MOL0     H37824   8.424   7.816   9.739  1.0749 -0.3433 -0.2794
  287MOL0     H37825   8.527   7.997   9.627  1.3224 -0.3500  0.3901
  287MOL0     H37826   8.458   7.959   9.475  2.1222 -0.6341 -1.4022
  287MOL0     H37827   8.656   7.803   9.653 -3.2608  1.8157  1.1780
  287MOL0     H37828   8.610   7.730   9.496 -1.4361  1.3853 -2.7494
  287MOL0     H37829   8.742   8.000   9.525  0.8723 -0.9865  2.3802
  287MOL0     H37830   8.706   7.925   9.372 -0.3653  0.3534  0.7099
  287MOL0     H37831   8.902   7.818   9.361  3.2621 -0.7080  0.4302
  287MOL0     H37832   8.844   7.719   9.504 -1.3968 -0.0442  0.1876
  287MOL0     H37833   8.928   7.879   9.665  1.8794 -1.6675  1.3298
  287MOL0     H37834   9.055   7.798   9.551 -2.2335 -1.7925 -3.6297
  287MOL0     H37835   9.097   8.028   9.616 -1.6047 -0.0641  2.7125
  287MOL0     H37836   8.949   8.075   9.534 -0.7461 -0.8209  1.5091
  287MOL0     H37837   8.969   8.097   9.275  0.3338  0.7118  1.2201
  287MOL0     H37838   9.209   7.982   8.975 -0.6456 -2.7410 -0.3491
  287MOL0     H37839   9.064   8.088   9.008 -0.0920  0.0736 -0.8979
  287MOL0     H37840   9.037   7.781   8.997 -2.4696 -0.7241 -0.6859
  287MOL0     H37841   9.018   7.877   8.857 -2.2060  3.6904 -0.0652
  287MOL0     H37842   8.797   7.824   8.963 -0.6621 -0.1159  3.2592
  287MOL0     H37843   8.839   7.904   9.101  0.0545 -3.2536  0.7754
  287MOL0     H37844   8.693   8.011   8.893 -0.5749  3.0103 -2.4419
  287MOL0     H37845   8.859   8.028   8.824 -0.0975 -0.0078 -0.1665
  287MOL0     H37846   8.700   8.065   9.191  0.7756  0.4256 -0.7947
  287MOL0     H37847   8.491   8.109   9.292 -3.2226  0.3397 -0.1030
  287MOL0     H37848   8.174   8.613   9.375 -0.8352  1.9527 -0.0655
  287MOL0     H37849   7.961   8.645   9.474  0.6950 -0.1266  0.7773
  287MOL0     H37850   7.614   8.382   9.289 -2.2094  0.2509  2.9121
  287MOL0     H37851   7.651   8.527   9.193 -1.3759 -0.6854 -0.0873
  287MOL0     H37852   7.494   8.667   9.347  1.7373 -0.0120  1.2000
  287MOL0     H37853   7.467   8.533   9.446  0.3089 -0.4650 -0.2021
  287MOL0     H37854   7.344   8.434   9.272  0.1214 -0.2003  0.0036
  287MOL0     H37855   7.417   8.538   9.146  0.2816  0.2254  0.5889
  287MOL0     H37856   7.246   8.621   9.376 -1.2064  0.0401 -1.5875
  287MOL0     H37857   7.302   8.738   9.260 -2.7792  1.1024  2.3285
  287MOL0     H37858   7.183   8.547   9.098  1.4216  0.0488  0.8248
  287MOL0     H37859   7.115   8.693   9.156  1.9668  0.4058 -0.7340
  287MOL0     H37860   7.003   8.599   9.340  3.4724  1.4552 -0.1145
  287MOL0     H37861   7.072   8.436   9.301  0.7003 -0.9102 -2.3357
  287MOL0     H37862   6.874   8.585   9.126 -0.3755 -1.4389 -1.5426
  287MOL0     H37863   6.974   8.446   9.091  1.7523  0.8064  0.3982
  287MOL0     H37864   6.813   8.451   9.353 -0.2496  0.3567 -0.5975
  287MOL0     H37865   6.869   8.306   9.267 -1.4641 -0.9279 -1.2508
  287MOL0     H37866   7.801   8.360   9.184 -0.5744  3.5012 -1.8974
  287MOL0     H37867   8.031   8.318   9.114 -5.6984 -0.8580 -0.9088
  287MOL0     H37868   8.424   8.438   9.003  0.4271  0.2145  0.2057
  287MOL0     H37869   8.649   8.386   8.920 -1.4329 -0.8126 -1.0417
  287MOL0     H37870   8.001   7.865   9.734  1.5429 -0.5192 -1.3941
  287MOL0     H37871   7.774   7.985   9.738 -0.9897  1.4772  0.2857
  287MOL0     H37872   7.514   8.324   9.522 -0.1996 -3.1850 -1.3578
  287MOL0     H37873   7.263   8.360   9.489 -0.8233  0.7521  0.9485
  287MOL0     H37874   7.006   8.321   9.868 -0.4872  4.0850 -0.3862
  287MOL0     H37875   6.975   8.181   9.753  2.0108 -0.4185  3.2261
  287MOL0     H37876   6.770   8.306   9.837 -0.2753 -0.3421  0.7747
  287MOL0     H37877   6.834   8.451   9.769 -0.2352 -0.1206  0.0552
  287MOL0     H37878   6.807   8.189   9.622 -0.9825  0.1005  0.6495
  287MOL0     H37879   6.826   8.342   9.535 -1.0387  0.9254  0.1452
  287MOL0     H37880   6.610   8.180   9.565  2.1574  0.3922 -3.0861
  287MOL0     H37881   6.578   8.282   9.708  2.2724  0.0486  1.5932
  287MOL0     H37882   6.437   8.513   9.388 -1.5277 -2.0811 -1.0475
  287MOL0     H37883   7.193   8.238   9.883  2.7118  2.2903  2.0272
  287MOL0     H37884   7.430   8.175   9.910  1.6475 -0.5376 -1.1880
  288MOL0     O37885   8.401   2.619   1.123  0.2502 -1.0426  0.0948
  288MOL0     C37886   8.385   2.638   1.000 -0.9335 -0.3141 -0.1822
  288MOL0     O37887   8.484   2.657   0.910  0.3652 -0.2369 -0.4126
  288MOL0     C37888   8.614   2.650   0.960 -0.4245 -0.2674  0.1843
  288MOL0     C37889   8.694   2.762   0.924 -0.5705 -0.2104 -0.3223
  288MOL0     C37890   8.832   2.760   0.970  0.9715  0.2348 -0.5144
  288MOL0     C37891   8.888   2.649   1.043 -0.2552  0.1365 -1.2394
  288MOL0     O37892   9.016   2.634   1.079 -0.3246  0.3332  0.7456
  288MOL0     C37893   9.099   2.747   1.058 -0.6209  1.2697  0.6155
  288MOL0     C37894   9.235   2.729   1.136  0.3781 -0.2280 -0.3499
  288MOL0     C37895   9.315   2.608   1.093 -0.3840 -0.8001 -0.3005
  288MOL0     C37896   9.382   2.616   0.952  0.4041 -0.2126  0.7800
  288MOL0     C37897   9.432   2.479   0.906 -0.3541  0.1041 -0.6545
  288MOL0     C37898   9.436   2.483   0.752 -0.1473 -0.0095  0.5715
  288MOL0     C37899   9.528   2.376   0.689 -0.2508 -0.6127 -0.7766
  288MOL0     C37900   9.440   2.258   0.669 -0.1620 -0.9898 -0.1585
  288MOL0     N37901   9.510   2.141   0.603  0.4800 -0.6129 -0.4136
  288MOL0     C37902   9.598   2.054   0.660 -1.3536 -0.5281 -0.3334
  288MOL0     C37903   9.626   1.960   0.571  1.1992 -0.2915 -0.3851
  288MOL0     C37904   9.729   1.850   0.597  0.6168 -0.8530 -0.1585
  288MOL0     C37905   9.691   1.764   0.726 -0.7517  0.0479 -0.0660
  288MOL0     C37906   9.557   1.698   0.703 -0.1485  0.4753 -0.4274
  288MOL0     C37907   9.548   1.568   0.617  0.3564 -0.8684  0.2132
  288MOL0     O37908   9.450   1.478   0.668  0.5706  0.3582  0.0703
  288MOL0     C37909   9.493   1.401   0.772  0.2352  0.0920  0.4927
  288MOL0     C37910   9.408   1.381   0.892 -0.1702 -0.4828 -0.4575
  288MOL0     C37911   9.446   1.289   0.988  0.3009 -0.6942 -0.5863
  288MOL0     C37912   9.565   1.215   0.979 -0.0596  0.4966  0.3717
  288MOL0     C37913   9.594   1.106   1.069  0.2580  0.8682 -0.2019
  288MOL0     O37914   9.489   1.075   1.150  0.1456  0.2707  0.2382
  288MOL0     C37915   9.492   0.984   1.251 -0.0179  0.4368 -0.0119
  288MOL0     C37916   9.423   1.004   1.370  0.1486  0.3859 -0.5669
  288MOL0     C37917   9.401   0.908   1.473  0.2155  0.9564  0.1457
  288MOL0     C37918   9.462   0.783   1.443  0.1924  0.4199 -0.4641
  288MOL0     O37919   9.438   0.676   1.527 -0.8310  0.3068  0.2858
  288MOL0     C37920   9.473   0.709   1.664 -0.5036 -0.6386 -0.1880
  288MOL0     C37921   9.544   0.600   1.743  0.0311 -0.6187 -0.4859
  288MOL0     C37922   9.656   0.529   1.668  0.7561  0.3097 -0.0934
  288MOL0     C37923   9.767   0.613   1.602 -0.9368 -0.4369  0.7771
  288MOL0     C37924   9.843   0.673   1.712 -0.0298 -0.3512 -0.8287
  288MOL0     C37925   9.956   0.770   1.668 -0.6753 -0.3446 -0.1487
  288MOL0     C37926  10.034   0.831   1.778  0.2684  0.3337  0.5466
  288MOL0     C37927  10.177   0.825   1.747  0.2133 -0.6692 -0.4135
  288MOL0    Cl37928  10.263   0.897   1.894  0.2684  0.4124  0.0660
  288MOL0     C37929   9.531   0.752   1.323 -0.5927 -0.4368  0.1199
  288MOL0     C37930   9.540   0.854   1.232 -1.0033  1.1183  0.1787
  288MOL0     O37931   9.700   1.059   1.071 -0.2870  0.3599 -0.8388
  288MOL0     C37932   9.646   1.236   0.876  0.2562 -0.1526  1.0908
  288MOL0     C37933   9.611   1.320   0.772  0.1918 -0.4935  0.1174
  288MOL0     N37934   9.560   1.995   0.452  0.7924 -0.4107 -0.3794
  288MOL0     N37935   9.495   2.105   0.480  0.6403  0.5899  0.1042
  288MOL0     C37936   8.802   2.550   1.078 -1.2534  0.1017 -0.4996
  288MOL0     C37937   8.673   2.548   1.036 -0.5048  1.4084  0.4741
  288MOL0     C37938   8.246   2.645   0.953  0.6553  0.2639 -0.2969
  288MOL0     C37939   8.133   2.608   1.022  1.0858 -0.1665 -0.1666
  288MOL0     C37940   8.001   2.621   0.973 -0.3247 -1.5765 -0.3079
  288MOL0     C37941   7.973   2.702   0.866 -0.5932  0.1759  0.1196
  288MOL0     O37942   7.848   2.730   0.820 -0.3044  0.2912  0.0690
  288MOL0     C37943   7.729   2.704   0.887 -0.7838 -0.4635  0.3446
  288MOL0     C37944   7.621   2.801   0.847 -0.4866 -0.7490 -0.1390
  288MOL0     C37945   7.491   2.723   0.821  0.0189  0.2883 -0.3120
  288MOL0     C37946   7.374   2.816   0.829  0.3941 -0.6870 -0.0115
  288MOL0     C37947   7.248   2.744   0.835  0.2606 -1.1241  0.8538
  288MOL0     C37948   7.142   2.691   0.803 -0.5411  0.4330 -0.0913
  288MOL0     C37949   8.078   2.743   0.791  0.1504 -0.1978 -0.0996
  288MOL0     C37950   8.215   2.705   0.826  0.6576 -0.8254  1.1048
  288MOL0     H37951   8.660   2.840   0.858 -0.7858 -0.8162 -0.9318
  288MOL0     H37952   8.889   2.850   0.953 -0.4323  1.2601  0.0483
  288MOL0     H37953   9.062   2.846   1.085  1.1258  3.1402 -3.0134
  288MOL0     H37954   9.127   2.754   0.952  1.1759  1.3524  1.0725
  288MOL0     H37955   9.202   2.716   1.240  0.1037 -3.0508 -0.7106
  288MOL0     H37956   9.295   2.821   1.142 -2.0392  1.3761  0.9793
  288MOL0     H37957   9.260   2.514   1.107  2.2230 -2.3924  0.0931
  288MOL0     H37958   9.401   2.596   1.159  3.0222 -1.3613 -4.3805
  288MOL0     H37959   9.314   2.649   0.873  2.4660 -0.4573 -1.2104
  288MOL0     H37960   9.458   2.694   0.961 -2.1675  2.4039  1.2064
  288MOL0     H37961   9.359   2.404   0.938 -0.4061 -0.6781 -2.4651
  288MOL0     H37962   9.528   2.457   0.953  0.0122 -0.7644 -1.7787
  288MOL0     H37963   9.485   2.579   0.730 -0.8313 -0.1026 -1.5831
  288MOL0     H37964   9.336   2.464   0.713  0.0056  1.0309 -0.4068
  288MOL0     H37965   9.567   2.413   0.593  4.6495 -1.7929  0.4848
  288MOL0     H37966   9.620   2.349   0.741 -0.9989 -2.0075 -0.1121
  288MOL0     H37967   9.359   2.283   0.599  0.6917  1.8001 -0.2785
  288MOL0     H37968   9.401   2.221   0.764  1.1666  0.5301  1.0266
  288MOL0     H37969   9.648   2.054   0.757 -2.5002  1.0688  0.3104
  288MOL0     H37970   9.824   1.901   0.614 -0.3070  1.2797 -1.0412
  288MOL0     H37971   9.746   1.792   0.506  1.6105 -2.7155  1.1397
  288MOL0     H37972   9.697   1.826   0.815  5.5909 -1.0690  0.7736
  288MOL0     H37973   9.767   1.687   0.740 -2.2413 -1.5305 -0.3024
  288MOL0     H37974   9.531   1.663   0.804 -1.9999 -0.0376 -1.0356
  288MOL0     H37975   9.481   1.770   0.673 -1.1349 -1.3197 -2.4966
  288MOL0     H37976   9.646   1.520   0.613  1.5974  1.5086  0.3058
  288MOL0     H37977   9.518   1.610   0.521 -0.6409  2.8610  1.9466
  288MOL0     H37978   9.334   1.461   0.901  0.6057  0.0935  1.0182
  288MOL0     H37979   9.383   1.278   1.076  3.1747 -3.2998  1.3510
  288MOL0     H37980   9.365   1.094   1.388 -1.3408 -0.7320  0.4576
  288MOL0     H37981   9.336   0.928   1.557  0.9961 -2.0746  1.6045
  288MOL0     H37982   9.381   0.723   1.721  0.3725  0.5451  1.0044
  288MOL0     H37983   9.534   0.800   1.664  0.4515 -1.0562 -4.2998
  288MOL0     H37984   9.466   0.531   1.777 -2.2826  0.8218 -2.5071
  288MOL0     H37985   9.577   0.645   1.836 -1.1590  0.2596 -0.4649
  288MOL0     H37986   9.609   0.483   1.581 -2.0108 -0.2377  1.5649
  288MOL0     H37987   9.701   0.455   1.736  1.6641  0.8761 -0.0665
  288MOL0     H37988   9.824   0.545   1.538  0.0650  1.7373 -0.7631
  288MOL0     H37989   9.721   0.684   1.533 -0.4509 -0.2457  0.6432
  288MOL0     H37990   9.889   0.600   1.780  0.8532  3.0769  2.5880
  288MOL0     H37991   9.775   0.724   1.780  1.5965 -2.5566  2.7590
  288MOL0     H37992   9.910   0.853   1.613 -1.1818  0.6555  1.7232
  288MOL0     H37993  10.014   0.723   1.588 -0.2637  1.2727 -0.8469
  288MOL0     H37994  10.010   0.936   1.795  1.5054  0.3193  2.7829
  288MOL0     H37995  10.008   0.786   1.874 -2.2414  2.1384  0.8045
  288MOL0     H37996  10.200   0.874   1.652  1.5573  0.4726  0.4639
  288MOL0     H37997  10.214   0.722   1.746  0.2867 -0.7997  2.9224
  288MOL0     H37998   9.567   0.650   1.315  3.3676  0.9335 -2.6926
  288MOL0     H37999   9.599   0.825   1.145 -0.7221  0.3973  0.5999
  288MOL0     H38000   9.740   1.186   0.859  1.1541  2.4423 -2.6792
  288MOL0     H38001   9.691   1.342   0.702  0.1946  0.9367  0.5568
  288MOL0     H38002   8.841   2.465   1.134  3.7562  1.3869 -1.5786
  288MOL0     H38003   8.612   2.460   1.057  1.8679 -0.2987  0.5410
  288MOL0     H38004   8.143   2.561   1.119 -0.5416  2.2423  1.2693
  288MOL0     H38005   7.922   2.587   1.039 -1.8064  1.1085 -0.5335
  288MOL0     H38006   7.745   2.703   0.995 -0.9716 -2.0479  0.3793
  288MOL0     H38007   7.712   2.600   0.855  1.0185 -0.1941 -1.8360
  288MOL0     H38008   7.585   2.866   0.928 -2.0217 -0.7061 -0.8193
  288MOL0     H38009   7.646   2.846   0.751  1.7312 -1.3683  0.0946
  288MOL0     H38010   7.476   2.631   0.879 -0.5128 -1.8133 -3.5639
  288MOL0     H38011   7.502   2.683   0.720 -0.8148  0.0565 -0.3240
  288MOL0     H38012   7.387   2.880   0.917  1.0796  1.7072 -1.7538
  288MOL0     H38013   7.364   2.875   0.737 -0.0921 -1.0004 -0.1629
  288MOL0     H38014   7.051   2.641   0.776  0.1405 -1.2455  0.6285
  288MOL0     H38015   8.074   2.800   0.698  1.9831 -0.7507 -0.5551
  288MOL0     H38016   8.292   2.735   0.755 -2.7842  2.1964 -1.7726
  289MOL0     O38017   1.560   8.872  10.289  0.1197 -0.1112 -0.2346
  289MOL0     C38018   1.544   8.827  10.399 -0.2955 -0.1398 -1.5149
  289MOL0     O38019   1.421   8.834  10.474 -1.0282  0.1710 -0.3740
  289MOL0     C38020   1.297   8.857  10.414  0.9884  0.2895  0.2602
  289MOL0     C38021   1.273   8.872  10.277  0.0366  0.3594 -0.2914
  289MOL0     C38022   1.146   8.871  10.232 -0.4273  0.0238  0.7396
  289MOL0     C38023   1.035   8.856  10.312  0.3753  0.3742 -0.3290
  289MOL0     O38024   0.910   8.855  10.254 -0.0516 -0.6576  0.3747
  289MOL0     C38025   0.787   8.803  10.314 -0.5648 -0.2294  0.3179
  289MOL0     C38026   0.668   8.794  10.219  0.0382 -1.3119 -0.3447
  289MOL0     C38027   0.678   8.688  10.119  0.3531 -0.0742 -0.2878
  289MOL0     C38028   0.537   8.653  10.051 -0.6254 -0.4010  0.4537
  289MOL0     C38029   0.424   8.592  10.131  0.6137  0.5319 -0.7388
  289MOL0     C38030   0.291   8.587  10.057  0.3410  0.1092  0.1453
  289MOL0     C38031   0.179   8.480  10.113  0.2636 -0.1999  0.1082
  289MOL0     C38032   0.165   8.474  10.263  0.0996 -0.2593  0.3677
  289MOL0     N38033   0.042   8.399  10.304  0.1440  0.2887 -0.1164
  289MOL0     C38034   0.034   8.265  10.344 -0.0747 -0.1317 -0.0661
  289MOL0     C38035  -0.085   8.252  10.409 -0.2864  0.1095  0.1692
  289MOL0     C38036  -0.150   8.128  10.469 -0.5590 -0.6928 -0.1887
  289MOL0     C38037  -0.082   7.992  10.444  0.9063 -0.5501  0.0299
  289MOL0     C38038  -0.137   7.885  10.537  1.0240 -0.0706 -0.1440
  289MOL0     C38039  -0.283   7.840  10.511 -0.3146  0.7131  0.6589
  289MOL0     O38040  -0.321   7.727  10.592  0.3123  0.2389 -0.2857
  289MOL0     C38041  -0.455   7.688  10.599 -0.6660 -0.0350  0.0482
  289MOL0     C38042  -0.496   7.581  10.691 -0.1119 -0.0995 -0.0321
  289MOL0     C38043  -0.631   7.544  10.693 -0.4185  0.4055  0.0007
  289MOL0     C38044  -0.724   7.599  10.612  0.1440 -0.5672 -0.2393
  289MOL0     C38045  -0.869   7.554  10.610  0.1145  0.2881  0.2295
  289MOL0     O38046  -0.889   7.441  10.674  0.4009  0.2383 -0.0388
  289MOL0     C38047  -1.014   7.392  10.700  0.2923  0.4306 -0.0660
  289MOL0     C38048  -1.133   7.417  10.623 -0.1008 -0.3587 -0.5119
  289MOL0     C38049  -1.255   7.362  10.667 -0.7625 -0.5263  0.9188
  289MOL0     C38050  -1.253   7.276  10.780  0.0660 -0.5343 -0.4825
  289MOL0     O38051  -1.361   7.195  10.814 -0.0942  0.9219  0.6004
  289MOL0     C38052  -1.473   7.161  10.717 -0.5645  0.4350 -0.3357
  289MOL0     C38053  -1.585   7.263  10.731  0.0543  0.3912  0.6917
  289MOL0     C38054  -1.661   7.240  10.861  0.2337  0.2767 -0.9636
  289MOL0     C38055  -1.789   7.323  10.878 -0.0136 -0.1304  0.2777
  289MOL0     C38056  -1.829   7.361  11.024  0.1711  0.3320  0.5445
  289MOL0     C38057  -1.858   7.231  11.102  1.3474  0.1743  0.0600
  289MOL0     C38058  -1.983   7.151  11.050 -0.0981  1.1971  0.9608
  289MOL0     C38059  -2.118   7.215  11.045 -0.9214  0.0176  0.1402
  289MOL0    Cl38060  -2.180   7.218  11.216 -0.1259  0.3472 -0.0428
  289MOL0     C38061  -1.136   7.257  10.858  0.2236  1.1750  0.6794
  289MOL0     C38062  -1.019   7.317  10.820 -0.1391  0.2279 -0.3117
  289MOL0     O38063  -0.957   7.630  10.573 -0.0510 -0.3816  0.0684
  289MOL0     C38064  -0.685   7.708  10.526 -0.1998  0.3416  0.3448
  289MOL0     C38065  -0.551   7.756  10.524 -0.4987  0.1843  0.6131
  289MOL0     N38066  -0.144   8.379  10.405 -0.1283 -0.0154 -0.1803
  289MOL0     N38067  -0.071   8.467  10.347  0.1543 -0.3310  0.1456
  289MOL0     C38068   1.055   8.845  10.451  1.1109 -0.5625 -0.0487
  289MOL0     C38069   1.187   8.850  10.502  0.0120 -0.1386 -0.1998
  289MOL0     C38070   1.658   8.770  10.467  0.3007 -0.7376 -1.8765
  289MOL0     C38071   1.787   8.785  10.417  0.4309  1.0489 -0.1088
  289MOL0     C38072   1.902   8.738  10.485 -0.4931 -0.0095 -0.3371
  289MOL0     C38073   1.884   8.669  10.604  0.6032  0.5309  0.0343
  289MOL0     O38074   1.993   8.616  10.680  0.3405  0.7697 -0.6035
  289MOL0     C38075   2.112   8.565  10.622  0.8001  0.5856  0.5689
  289MOL0     C38076   2.216   8.522  10.723 -0.7262  0.1332 -0.5260
  289MOL0     C38077   2.265   8.634  10.821 -0.3359 -0.8207 -0.4387
  289MOL0     C38078   2.374   8.726  10.760 -0.4334  0.0906 -0.4669
  289MOL0     C38079   2.491   8.649  10.728  0.5492 -0.1845 -0.0170
  289MOL0     C38080   2.593   8.589  10.699  0.1839 -1.4709  0.1943
  289MOL0     C38081   1.757   8.655  10.662  0.6762  1.1120  0.5829
  289MOL0     C38082   1.649   8.709  10.592 -0.1090 -0.0494 -0.0932
  289MOL0     H38083   1.352   8.900  10.208  0.1507 -0.9716 -0.7355
  289MOL0     H38084   1.127   8.895  10.128  2.4309 -2.3764 -0.4921
  289MOL0     H38085   0.768   8.868  10.400 -0.2573 -0.6811  0.7353
  289MOL0     H38086   0.793   8.704  10.361  0.4902  0.1174  0.9527
  289MOL0     H38087   0.647   8.892  10.175  0.8455 -0.7042  0.5845
  289MOL0     H38088   0.586   8.767  10.286  0.6809 -0.9990  0.5793
  289MOL0     H38089   0.714   8.595  10.162  0.1983  0.8253  1.9319
  289MOL0     H38090   0.749   8.721  10.042 -1.4988  0.8843 -1.6852
  289MOL0     H38091   0.505   8.749  10.008  1.5190  0.8666  1.4961
  289MOL0     H38092   0.554   8.578   9.973  0.4525 -2.5264  2.5949
  289MOL0     H38093   0.400   8.652  10.219 -0.4297  1.0933 -1.4005
  289MOL0     H38094   0.457   8.491  10.159 -0.6161  0.5342  0.8551
  289MOL0     H38095   0.292   8.576   9.948 -2.5096  2.1458 -0.1931
  289MOL0     H38096   0.248   8.686  10.074  3.0051  1.1330  1.6990
  289MOL0     H38097   0.082   8.498  10.066  0.1578 -3.2087 -1.1060
  289MOL0     H38098   0.208   8.379  10.082  2.1872  0.1538  0.6516
  289MOL0     H38099   0.150   8.578  10.295  0.4277  0.6385 -2.1562
  289MOL0     H38100   0.256   8.429  10.302  0.6063  1.4738  1.3045
  289MOL0     H38101   0.108   8.187  10.328 -1.7676 -1.6563 -0.8451
  289MOL0     H38102  -0.252   8.122  10.431 -0.8376 -1.2669  0.6035
  289MOL0     H38103  -0.151   8.157  10.575 -1.0427 -1.2278 -0.0390
  289MOL0     H38104   0.025   8.008  10.456  1.4393 -1.9471 -2.1828
  289MOL0     H38105  -0.095   7.961  10.339 -1.0975  1.6166 -0.4665
  289MOL0     H38106  -0.062   7.806  10.528 -1.1591 -2.2813  0.0100
  289MOL0     H38107  -0.117   7.915  10.640  0.4210 -3.3075  1.0281
  289MOL0     H38108  -0.291   7.805  10.407  1.8492  1.1567  0.2793
  289MOL0     H38109  -0.357   7.915  10.539 -2.9997 -1.9997  1.3975
  289MOL0     H38110  -0.415   7.527  10.739  1.4862  1.5599 -0.7005
  289MOL0     H38111  -0.659   7.466  10.763 -3.0056  2.6285  1.6667
  289MOL0     H38112  -1.141   7.471  10.529  3.3503 -1.3670 -1.5187
  289MOL0     H38113  -1.343   7.376  10.605 -0.9226  0.2868  1.3138
  289MOL0     H38114  -1.502   7.059  10.742  2.5999 -0.4519  0.2100
  289MOL0     H38115  -1.440   7.156  10.613 -0.8554  2.1489 -0.5332
  289MOL0     H38116  -1.645   7.261  10.639  2.0272  1.5563 -0.6907
  289MOL0     H38117  -1.546   7.364  10.719  2.1076 -0.3586  0.7128
  289MOL0     H38118  -1.596   7.273  10.943 -1.9617 -1.0546  1.4788
  289MOL0     H38119  -1.687   7.133  10.864 -2.1443  0.8251  0.5289
  289MOL0     H38120  -1.786   7.417  10.822 -0.1951 -1.7837 -2.6829
  289MOL0     H38121  -1.868   7.268  10.825  1.3617 -1.7698 -0.1480
  289MOL0     H38122  -1.924   7.415  11.020 -1.3030 -2.1007  0.3495
  289MOL0     H38123  -1.746   7.419  11.065  2.2867 -1.1231 -1.4185
  289MOL0     H38124  -1.877   7.258  11.207 -1.8334  0.0931 -0.3865
  289MOL0     H38125  -1.771   7.166  11.100  2.2938  1.2254  2.7619
  289MOL0     H38126  -1.969   7.136  10.942  0.8985  0.0571  1.2382
  289MOL0     H38127  -1.983   7.052  11.094  1.9687  0.0713 -1.3409
  289MOL0     H38128  -2.191   7.165  10.982 -1.7131  0.1766  0.8998
  289MOL0     H38129  -2.121   7.322  11.020  1.5161  0.4944  1.5045
  289MOL0     H38130  -1.129   7.190  10.943  3.3316 -0.0343 -0.3843
  289MOL0     H38131  -0.921   7.311  10.868  1.5531  1.3767 -3.3548
  289MOL0     H38132  -0.764   7.741  10.460 -1.5403 -3.0264  0.0758
  289MOL0     H38133  -0.535   7.836  10.452  0.1915  0.6458  1.2680
  289MOL0     H38134   0.978   8.829  10.525  0.5418 -0.3510 -0.5891
  289MOL0     H38135   1.197   8.828  10.607 -1.5529  3.6872  0.9228
  289MOL0     H38136   1.797   8.827  10.318  1.1102 -2.2662 -1.5573
  289MOL0     H38137   2.003   8.753  10.449 -0.4581 -0.5807 -0.4822
  289MOL0     H38138   2.146   8.638  10.548 -2.6009  1.9123  0.1422
  289MOL0     H38139   2.085   8.481  10.557 -0.0657 -1.2624  3.1249
  289MOL0     H38140   2.166   8.437  10.771 -1.4167  0.8707  0.0821
  289MOL0     H38141   2.303   8.471  10.680 -1.9233 -0.6689 -2.1115
  289MOL0     H38142   2.309   8.595  10.913  2.9192  2.0400 -0.6133
  289MOL0     H38143   2.184   8.696  10.861  0.5876  0.4714 -0.5218
  289MOL0     H38144   2.336   8.784  10.675 -0.8856 -1.0413 -1.0553
  289MOL0     H38145   2.396   8.798  10.839 -0.5104  1.8954 -2.0210
  289MOL0     H38146   2.680   8.538  10.662  1.7311  1.2517 -0.1448
  289MOL0     H38147   1.757   8.593  10.752 -1.4620 -2.4552 -1.6527
  289MOL0     H38148   1.552   8.691  10.636  1.4494  1.4200  4.5974
  290MOL0     O38149   9.774   9.760   3.396 -0.3616 -0.9190  0.2938
  290MOL0     C38150   9.789   9.880   3.376 -0.7589  0.3515 -0.7883
  290MOL0     O38151   9.697   9.965   3.309 -0.0442  0.9309 -0.4337
  290MOL0     C38152   9.601   9.918   3.229  0.7375 -0.5277  0.2113
  290MOL0     C38153   9.623   9.809   3.138 -0.1468 -0.0707 -0.2909
  290MOL0     C38154   9.525   9.775   3.042 -0.4145 -1.3317 -0.9482
  290MOL0     C38155   9.399   9.827   3.048 -0.0308 -0.6543 -0.2605
  290MOL0     O38156   9.285   9.794   2.971  0.5471  0.1116 -0.7571
  290MOL0     C38157   9.271   9.652   2.940  0.1341  0.0076  0.2228
  290MOL0     C38158   9.169   9.640   2.835  0.6533  0.1173  0.5667
  290MOL0     C38159   9.159   9.486   2.797 -0.0600 -0.4435 -0.2713
  290MOL0     C38160   9.042   9.466   2.696 -0.1878  0.8902 -0.1375
  290MOL0     C38161   9.034   9.323   2.636 -0.2755  1.2794  0.6030
  290MOL0     C38162   8.898   9.295   2.562 -0.5244 -0.1800 -0.4395
  290MOL0     C38163   8.934   9.305   2.417 -1.0704  0.3425  0.4632
  290MOL0     C38164   8.804   9.334   2.335 -0.4198  0.6399 -0.6340
  290MOL0     N38165   8.713   9.214   2.340 -0.0164 -0.1371 -0.7755
  290MOL0     C38166   8.614   9.181   2.436 -0.5807 -0.4518  0.2846
  290MOL0     C38167   8.543   9.077   2.379  0.1723  0.5672 -0.5925
  290MOL0     C38168   8.419   9.023   2.439 -0.2826 -0.1194  0.2734
  290MOL0     C38169   8.303   9.037   2.341  0.2117 -0.1169 -0.8753
  290MOL0     C38170   8.307   9.169   2.271  0.4546 -0.4354  1.0382
  290MOL0     C38171   8.182   9.191   2.184  0.2653 -0.6283 -0.5811
  290MOL0     O38172   8.069   9.197   2.285 -0.7807 -0.0808 -0.6566
  290MOL0     C38173   7.941   9.197   2.242 -0.6658  0.7076  0.0293
  290MOL0     C38174   7.838   9.166   2.327  0.2917 -0.3574  0.7016
  290MOL0     C38175   7.707   9.163   2.283 -0.4523  0.3988  0.4132
  290MOL0     C38176   7.676   9.191   2.141  0.5524  0.1754  0.4345
  290MOL0     C38177   7.537   9.181   2.101  0.6124 -0.8804  0.2001
  290MOL0     O38178   7.512   9.185   1.964 -0.8199  0.0521  0.1955
  290MOL0     C38179   7.395   9.153   1.904 -0.2202 -0.7163 -1.1412
  290MOL0     C38180   7.397   9.170   1.773  0.1483 -0.9028 -0.7693
  290MOL0     C38181   7.288   9.132   1.692  1.4307 -0.5780  0.3204
  290MOL0     C38182   7.169   9.086   1.749  0.0553  0.4828 -0.1673
  290MOL0     O38183   7.055   9.052   1.673  0.1415  0.2282  0.1435
  290MOL0     C38184   6.970   9.167   1.654  0.7204  0.0987 -0.4694
  290MOL0     C38185   6.828   9.129   1.686  0.0560 -0.1085  0.1891
  290MOL0     C38186   6.722   9.250   1.667  0.4142  0.0161  0.7120
  290MOL0     C38187   6.687   9.292   1.521  0.0794 -0.8726 -0.1106
  290MOL0     C38188   6.548   9.380   1.506 -0.5567  0.5311  0.1901
  290MOL0     C38189   6.525   9.419   1.352 -0.2752 -0.1358 -0.3850
  290MOL0     C38190   6.404   9.522   1.349 -0.0160  0.2901  0.7652
  290MOL0     C38191   6.348   9.536   1.208 -0.2480  0.6281  0.3030
  290MOL0    Cl38192   6.487   9.584   1.102 -0.3026  0.4554 -0.3799
  290MOL0     C38193   7.171   9.044   1.881  0.4484  1.0402 -0.5540
  290MOL0     C38194   7.280   9.090   1.960 -0.1434 -0.6848  0.2043
  290MOL0     O38195   7.454   9.171   2.193  0.1278  0.0439  1.1120
  290MOL0     C38196   7.783   9.232   2.055 -0.2864  0.0839  0.5674
  290MOL0     C38197   7.910   9.224   2.104  0.7168  0.0363 -0.1237
  290MOL0     N38198   8.607   9.041   2.265  0.0275  0.2593  0.3010
  290MOL0     N38199   8.705   9.120   2.237  0.4279 -0.3401 -0.2292
  290MOL0     C38200   9.370   9.927   3.149  0.0850 -0.2320  0.9231
  290MOL0     C38201   9.477   9.977   3.234 -0.2715 -0.5592  0.0276
  290MOL0     C38202   9.920   9.947   3.404 -0.6447 -1.1197  0.3434
  290MOL0     C38203  10.020   9.883   3.479 -0.6579  0.6827 -0.0602
  290MOL0     C38204  10.151   9.934   3.499 -0.6721 -1.5707 -0.3100
  290MOL0     C38205  10.178  10.068   3.452 -0.6249 -0.1761 -0.1705
  290MOL0     O38206  10.301  10.125   3.482  0.1241  0.1232  0.1843
  290MOL0     C38207  10.414  10.084   3.393  0.1342 -0.4383  0.4412
  290MOL0     C38208  10.547  10.145   3.430 -0.3079  0.1681 -0.1764
  290MOL0     C38209  10.663  10.065   3.357  0.3130 -0.8795  0.3559
  290MOL0     C38210  10.675  10.102   3.205 -0.2001  0.6615  0.1203
  290MOL0     C38211  10.767  10.004   3.143  0.0138 -0.5095  0.0752
  290MOL0     C38212  10.839   9.915   3.099  0.0054 -0.4731  0.2221
  290MOL0     C38213  10.074  10.142   3.394  0.9976  0.3814 -0.3048
  290MOL0     C38214   9.953  10.078   3.363  0.0557  0.9388  0.7408
  290MOL0     H38215   9.722   9.764   3.139  1.4429  3.1301 -1.3083
  290MOL0     H38216   9.547   9.695   2.971 -0.5086 -2.5637  0.3531
  290MOL0     H38217   9.240   9.600   3.031  1.4279 -1.3820 -0.0918
  290MOL0     H38218   9.361   9.610   2.893 -0.7388 -0.9570 -0.6336
  290MOL0     H38219   9.184   9.698   2.743 -1.4890  0.4105  0.3533
  290MOL0     H38220   9.070   9.668   2.872  0.7213  1.6862 -0.3536
  290MOL0     H38221   9.158   9.414   2.878  0.8329 -0.7442 -0.5168
  290MOL0     H38222   9.252   9.462   2.743 -0.0656 -0.4168 -0.2921
  290MOL0     H38223   8.945   9.493   2.740  0.5947  2.5982  0.6288
  290MOL0     H38224   9.054   9.538   2.614  2.1878  2.0311  1.1069
  290MOL0     H38225   9.043   9.249   2.716  0.0825 -2.0155 -2.2490
  290MOL0     H38226   9.124   9.307   2.576 -0.2196  1.2632  0.6901
  290MOL0     H38227   8.833   9.383   2.575  1.2662  1.7377 -3.2308
  290MOL0     H38228   8.841   9.206   2.588 -2.3552  1.2236  0.6850
  290MOL0     H38229   8.998   9.391   2.396  0.5461 -1.3565 -2.1786
  290MOL0     H38230   8.980   9.224   2.360 -1.3290  2.7974 -3.6841
  290MOL0     H38231   8.826   9.358   2.231 -0.1086 -0.2436 -0.7799
  290MOL0     H38232   8.742   9.414   2.376 -0.6335  0.5305 -0.7428
  290MOL0     H38233   8.605   9.238   2.527 -1.2522  3.6954 -2.1295
  290MOL0     H38234   8.396   9.070   2.534  0.0318  2.2262 -0.7357
  290MOL0     H38235   8.432   8.916   2.456 -0.9671 -0.0752  1.0829
  290MOL0     H38236   8.216   9.032   2.408  0.3104 -3.9245 -0.8458
  290MOL0     H38237   8.315   8.952   2.273 -1.7829 -1.0690 -0.1269
  290MOL0     H38238   8.319   9.253   2.340 -0.4599 -0.3476  1.1074
  290MOL0     H38239   8.390   9.167   2.200 -1.7482  1.3951 -1.8547
  290MOL0     H38240   8.172   9.106   2.116 -1.4827 -1.1306  0.2611
  290MOL0     H38241   8.184   9.284   2.126  0.5502 -0.9486 -1.0905
  290MOL0     H38242   7.870   9.136   2.427  5.1065 -2.1645 -1.0667
  290MOL0     H38243   7.633   9.129   2.355  0.3079  0.7766  1.3944
  290MOL0     H38244   7.492   9.203   1.731 -1.8313  2.3733 -3.0554
  290MOL0     H38245   7.288   9.131   1.583  1.2311  3.5000  0.1080
  290MOL0     H38246   6.980   9.206   1.552 -1.0285  0.1835 -0.6427
  290MOL0     H38247   6.997   9.247   1.724 -1.3311 -0.7839  1.4439
  290MOL0     H38248   6.805   9.084   1.784 -0.3633  0.1896  0.2308
  290MOL0     H38249   6.794   9.056   1.612 -0.3662  2.4679 -2.3268
  290MOL0     H38250   6.756   9.344   1.711 -0.2233  0.9153 -0.6533
  290MOL0     H38251   6.635   9.217   1.724 -1.3754  1.4165 -1.0596
  290MOL0     H38252   6.769   9.345   1.472 -0.2323  1.1907  1.4601
  290MOL0     H38253   6.662   9.211   1.452 -0.8165  0.2061 -1.1078
  290MOL0     H38254   6.555   9.470   1.568 -1.0806 -0.0102  1.0562
  290MOL0     H38255   6.468   9.314   1.543 -0.9195  1.2521  0.7188
  290MOL0     H38256   6.511   9.329   1.290  0.6986 -0.0139 -0.7885
  290MOL0     H38257   6.614   9.469   1.315  1.2200 -2.0884  0.4125
  290MOL0     H38258   6.322   9.500   1.418 -0.8749  0.1236 -0.2746
  290MOL0     H38259   6.444   9.618   1.381  1.1380  0.6350 -1.4719
  290MOL0     H38260   6.269   9.611   1.200  0.0678  0.8005 -2.0093
  290MOL0     H38261   6.311   9.443   1.165  0.7302 -0.6187  2.0267
  290MOL0     H38262   7.095   8.981   1.926  1.6888  0.2878  0.5388
  290MOL0     H38263   7.282   9.046   2.059  3.4515 -0.8396  0.1845
  290MOL0     H38264   7.772   9.255   1.949  2.1330  0.3378  0.3051
  290MOL0     H38265   7.985   9.265   2.037 -0.2076  0.3600 -0.9782
  290MOL0     H38266   9.277   9.982   3.158  2.3043  3.9939  0.7342
  290MOL0     H38267   9.453  10.059   3.301 -2.0492 -1.0954  0.0938
  290MOL0     H38268   9.985   9.791   3.523 -1.9291  0.7746 -0.8153
  290MOL0     H38269  10.228   9.871   3.541  1.1361 -1.5801 -3.3555
  290MOL0     H38270  10.400  10.105   3.286 -0.9418 -4.3091 -0.3597
  290MOL0     H38271  10.399   9.976   3.404  0.2313 -1.0159 -3.4845
  290MOL0     H38272  10.545  10.248   3.394  2.5037  0.6060  0.7173
  290MOL0     H38273  10.561  10.137   3.539 -0.3709 -1.0875 -0.2365
  290MOL0     H38274  10.640   9.959   3.373  0.3736 -0.6098  2.4447
  290MOL0     H38275  10.759  10.104   3.392  0.1660  2.0379 -2.1124
  290MOL0     H38276  10.576  10.077   3.167 -1.6354  0.1073  3.7710
  290MOL0     H38277  10.708  10.204   3.183  1.7837  0.1553  0.5073
  290MOL0     H38278  10.912   9.841   3.073 -0.3693 -0.2212 -1.7115
  290MOL0     H38279  10.085  10.245   3.362 -0.4110  1.3001  1.9390
  290MOL0     H38280   9.879  10.136   3.308 -1.1927 -0.0062  1.3622
  291MOL0     O38281   6.241   1.954   7.966 -0.4389  0.6277  0.2448
  291MOL0     C38282   6.273   1.964   7.848 -0.5748  0.2673 -0.3518
  291MOL0     O38283   6.194   2.031   7.758 -1.3999  0.3053  0.7442
  291MOL0     C38284   6.094   2.114   7.796 -0.0566 -0.2740  0.1045
  291MOL0     C38285   5.981   2.096   7.706 -0.7663  0.9002 -0.1096
  291MOL0     C38286   5.867   2.170   7.714  0.3870 -0.9128 -0.3015
  291MOL0     C38287   5.859   2.253   7.823  0.3723  0.0062  0.1271
  291MOL0     O38288   5.738   2.310   7.846 -0.7040  0.4460 -0.4719
  291MOL0     C38289   5.732   2.429   7.775  0.5340 -0.1543  0.2908
  291MOL0     C38290   5.717   2.533   7.885  0.0264 -0.2026  0.7490
  291MOL0     C38291   5.576   2.544   7.951  0.0988 -0.6653 -0.7793
  291MOL0     C38292   5.472   2.587   7.848  0.1306  0.4527  1.1169
  291MOL0     C38293   5.334   2.624   7.918  0.0387  0.5923 -0.6600
  291MOL0     C38294   5.219   2.671   7.819  0.6104 -0.0042 -0.4273
  291MOL0     C38295   5.091   2.664   7.903  0.1737  0.2372 -0.0522
  291MOL0     C38296   4.971   2.675   7.810  0.5783  0.3110 -0.8670
  291MOL0     N38297   4.842   2.662   7.889 -1.4970 -0.9655 -0.1774
  291MOL0     C38298   4.771   2.781   7.908 -0.5952  0.2676 -0.5912
  291MOL0     C38299   4.700   2.758   8.019 -0.1055  0.2942 -0.4930
  291MOL0     C38300   4.616   2.848   8.104 -0.0190 -0.1946 -0.9313
  291MOL0     C38301   4.481   2.864   8.043  0.1652 -0.5053  0.0481
  291MOL0     C38302   4.382   2.936   8.137  0.1643 -0.5275  0.3434
  291MOL0     C38303   4.238   2.945   8.073 -0.3573 -0.2837  0.6405
  291MOL0     O38304   4.162   3.025   8.170  0.3269  0.1927  0.2681
  291MOL0     C38305   4.036   3.072   8.131  0.6596  0.2485  0.8454
  291MOL0     C38306   3.963   3.038   8.012  0.1288  0.2335  0.1294
  291MOL0     C38307   3.849   3.108   7.980  0.6895  0.8123 -0.9465
  291MOL0     C38308   3.796   3.204   8.063  1.0548  0.7762 -0.2162
  291MOL0     C38309   3.663   3.265   8.025 -0.2850 -0.3343 -0.1172
  291MOL0     O38310   3.626   3.371   8.103  0.5442 -0.2858 -0.5240
  291MOL0     C38311   3.497   3.412   8.096  0.3241 -0.2728 -0.0405
  291MOL0     C38312   3.463   3.518   8.000 -0.6115  0.8535 -0.7103
  291MOL0     C38313   3.336   3.558   7.981 -0.6138  0.0307  0.4366
  291MOL0     C38314   3.237   3.501   8.077  0.8327 -0.0054  0.4265
  291MOL0     O38315   3.105   3.529   8.061 -0.8140  0.2218  0.0275
  291MOL0     C38316   3.057   3.600   7.947  0.3722  0.5995 -0.2245
  291MOL0     C38317   2.900   3.618   7.958  0.2988  0.6930  0.0486
  291MOL0     C38318   2.836   3.480   7.970  0.1144  0.4285  0.1356
  291MOL0     C38319   2.680   3.487   7.990 -0.1144 -0.5157  0.1393
  291MOL0     C38320   2.620   3.358   8.054  0.0522  0.7769 -0.4321
  291MOL0     C38321   2.462   3.365   8.058 -0.9113 -0.8815  0.0077
  291MOL0     C38322   2.408   3.233   8.110  0.1355 -0.1184  0.1176
  291MOL0     C38323   2.261   3.211   8.112  0.0074  1.1705 -0.1518
  291MOL0    Cl38324   2.177   3.335   8.211  0.2525 -0.0182 -0.0297
  291MOL0     C38325   3.272   3.422   8.180 -0.7886  0.5442  0.3721
  291MOL0     C38326   3.397   3.377   8.189  0.3056 -0.3757 -0.2241
  291MOL0     O38327   3.596   3.216   7.938  0.1460  0.0713  0.5713
  291MOL0     C38328   3.869   3.236   8.181  0.0736 -0.2986  0.5277
  291MOL0     C38329   3.996   3.180   8.214 -0.3870 -0.0900  0.6388
  291MOL0     N38330   4.728   2.631   8.061 -0.4472 -0.1554  0.2921
  291MOL0     N38331   4.806   2.572   7.985  0.3114 -1.2327  0.3405
  291MOL0     C38332   5.962   2.269   7.919 -0.8003 -0.6172 -0.2453
  291MOL0     C38333   6.080   2.195   7.908 -0.3170 -0.2231  0.0821
  291MOL0     C38334   6.401   1.908   7.799 -1.0611 -0.5063  0.2716
  291MOL0     C38335   6.492   1.838   7.880  0.2251 -0.7784  0.0189
  291MOL0     C38336   6.618   1.792   7.834 -0.5357 -0.0760 -0.6860
  291MOL0     C38337   6.649   1.805   7.699 -0.0644 -0.7147 -0.4994
  291MOL0     O38338   6.760   1.741   7.667 -0.0323 -0.1797  0.1428
  291MOL0     C38339   6.794   1.728   7.525 -0.1903 -0.5258  1.3111
  291MOL0     C38340   6.899   1.616   7.509  0.3456 -0.6847  0.3784
  291MOL0     C38341   6.910   1.551   7.369  0.1460  0.7378  0.9710
  291MOL0     C38342   7.034   1.463   7.379  0.2181 -0.3901 -0.1054
  291MOL0     C38343   7.043   1.388   7.255 -0.9876 -0.9373 -0.0790
  291MOL0     C38344   7.046   1.322   7.163  1.1220  0.0144  0.8427
  291MOL0     C38345   6.553   1.864   7.612  0.0390 -0.7287  0.0243
  291MOL0     C38346   6.431   1.916   7.657  0.7455 -0.5661  0.3387
  291MOL0     H38347   5.997   2.013   7.637  0.7175  2.8727 -2.3044
  291MOL0     H38348   5.771   2.152   7.667 -0.8779  1.6507  1.1142
  291MOL0     H38349   5.640   2.423   7.717  1.0794 -1.5848 -0.4645
  291MOL0     H38350   5.819   2.451   7.711 -0.1309  4.8631  0.6603
  291MOL0     H38351   5.737   2.624   7.827  0.2448 -0.9031 -0.2967
  291MOL0     H38352   5.790   2.529   7.966  0.0796 -0.2894  0.6963
  291MOL0     H38353   5.583   2.623   8.026  0.1418 -1.6463  0.2841
  291MOL0     H38354   5.545   2.453   8.005  2.5953  0.0225  2.0678
  291MOL0     H38355   5.502   2.663   7.776  2.7262 -1.4159  0.0614
  291MOL0     H38356   5.440   2.501   7.788 -2.6445 -0.5299  3.7440
  291MOL0     H38357   5.345   2.717   7.974  0.8475  0.2381 -0.2128
  291MOL0     H38358   5.313   2.547   7.992  2.5114  0.0163 -0.4630
  291MOL0     H38359   5.211   2.604   7.733 -0.0314 -0.4597 -0.0199
  291MOL0     H38360   5.235   2.773   7.784  2.6235 -0.6009 -1.3598
  291MOL0     H38361   5.088   2.577   7.969  1.2299  0.8535  0.8373
  291MOL0     H38362   5.100   2.752   7.967  2.5645  0.1648 -0.1950
  291MOL0     H38363   4.967   2.589   7.742 -1.5158 -1.5134  1.3440
  291MOL0     H38364   4.969   2.767   7.752 -1.2297  0.0835 -1.2421
  291MOL0     H38365   4.776   2.877   7.858  3.4628  0.2228 -0.6152
  291MOL0     H38366   4.663   2.946   8.119 -2.8663  1.2328 -0.5309
  291MOL0     H38367   4.609   2.808   8.205  0.4552  1.1821 -0.3272
  291MOL0     H38368   4.450   2.760   8.028 -0.3631 -0.8127  2.6982
  291MOL0     H38369   4.478   2.903   7.941 -2.3101  0.1134  0.2819
  291MOL0     H38370   4.366   2.881   8.231  1.9761  0.8581  1.5345
  291MOL0     H38371   4.411   3.036   8.168  0.8529 -0.8933  0.9082
  291MOL0     H38372   4.192   2.848   8.052 -3.0021  0.6194  1.7367
  291MOL0     H38373   4.231   3.002   7.980  0.9487 -0.0478  0.6684
  291MOL0     H38374   3.990   2.953   7.951 -0.2696 -0.4106  0.8231
  291MOL0     H38375   3.804   3.077   7.886  2.0334 -4.2466 -0.2127
  291MOL0     H38376   3.536   3.555   7.929 -0.8934  0.1987 -1.3521
  291MOL0     H38377   3.309   3.612   7.891 -0.6107 -0.9113 -0.1485
  291MOL0     H38378   3.091   3.550   7.856 -0.2228 -0.4554  0.1098
  291MOL0     H38379   3.090   3.704   7.939  0.9267  0.3152 -2.2204
  291MOL0     H38380   2.858   3.686   7.882  0.8529 -0.0125 -0.9018
  291MOL0     H38381   2.872   3.665   8.053  0.9818 -1.5421  1.4150
  291MOL0     H38382   2.884   3.431   8.055 -0.0319 -0.3512 -0.2265
  291MOL0     H38383   2.860   3.405   7.895  1.3631 -0.0652  0.9901
  291MOL0     H38384   2.654   3.577   8.045  1.4014 -0.0041  0.0738
  291MOL0     H38385   2.640   3.499   7.889  0.7779  0.2471 -0.1382
  291MOL0     H38386   2.654   3.359   8.158 -1.4451  1.8817  0.0750
  291MOL0     H38387   2.654   3.264   8.010 -0.5344 -0.0241  0.7690
  291MOL0     H38388   2.425   3.391   7.958 -1.0372  1.4126  0.5750
  291MOL0     H38389   2.435   3.455   8.114 -3.6830 -1.1483 -0.7619
  291MOL0     H38390   2.449   3.154   8.047  2.5755  1.1270  0.0130
  291MOL0     H38391   2.444   3.229   8.213  0.5291  2.4690  0.1492
  291MOL0     H38392   2.240   3.113   8.157 -0.2970  1.0786 -0.4966
  291MOL0     H38393   2.223   3.203   8.010  2.3756 -1.5727 -0.9619
  291MOL0     H38394   3.199   3.378   8.248 -0.5033  0.6343  0.7411
  291MOL0     H38395   3.432   3.319   8.274 -0.5865  0.3996  0.7036
  291MOL0     H38396   3.830   3.312   8.249  0.7722  0.9912 -0.4702
  291MOL0     H38397   4.052   3.198   8.305  1.5158 -3.1863  0.1989
  291MOL0     H38398   5.947   2.341   8.000 -1.0943 -1.8531  0.8244
  291MOL0     H38399   6.155   2.198   7.987 -1.7684 -1.9785  1.6125
  291MOL0     H38400   6.468   1.838   7.986  4.3167  1.8044  1.1876
  291MOL0     H38401   6.684   1.741   7.903 -0.1471  1.8668  0.4443
  291MOL0     H38402   6.810   1.819   7.466 -0.9462 -1.8082 -0.9664
  291MOL0     H38403   6.707   1.691   7.470  0.2110  2.1935 -1.4338
  291MOL0     H38404   6.995   1.662   7.534  0.0556  0.8443 -1.1538
  291MOL0     H38405   6.885   1.541   7.587 -0.3524  1.1586  2.1129
  291MOL0     H38406   6.921   1.616   7.281  1.6547 -1.8479 -0.8938
  291MOL0     H38407   6.821   1.490   7.352 -0.3593  2.1009 -1.9699
  291MOL0     H38408   7.120   1.525   7.408 -0.0977 -0.0181  0.0441
  291MOL0     H38409   7.023   1.402   7.468  0.0939  3.4367  2.7514
  291MOL0     H38410   7.048   1.252   7.081  2.9383 -1.3931  2.0088
  291MOL0     H38411   6.570   1.850   7.505  3.0188 -0.5174  0.3870
  291MOL0     H38412   6.367   1.973   7.590 -0.9961  0.5248  2.7846
  292MOL0     O38413   9.056   2.868   9.062 -0.0066 -1.3630 -0.2740
  292MOL0     C38414   9.063   2.746   9.067  0.8229 -0.0423 -0.5873
  292MOL0     O38415   8.970   2.667   9.132  0.4697  0.1320  0.1878
  292MOL0     C38416   8.857   2.722   9.182 -0.3350  0.9528  0.2820
  292MOL0     C38417   8.837   2.718   9.319 -0.4958  0.2827  0.4477
  292MOL0     C38418   8.718   2.773   9.366 -0.4798  0.3480 -0.5793
  292MOL0     C38419   8.623   2.823   9.278 -0.2427 -0.6627 -0.0383
  292MOL0     O38420   8.507   2.878   9.338 -0.6237 -0.1277  0.5388
  292MOL0     C38421   8.390   2.795   9.330 -0.8117 -0.9865  0.1413
  292MOL0     C38422   8.302   2.809   9.208  0.4564 -0.6846 -0.1362
  292MOL0     C38423   8.259   2.959   9.192 -0.2802 -1.0983 -0.1957
  292MOL0     C38424   8.127   2.970   9.122  0.1490 -0.5363  0.0148
  292MOL0     C38425   8.090   3.121   9.128 -0.4826  0.6184 -0.4199
  292MOL0     C38426   7.944   3.140   9.103  0.3690  0.5173  0.2182
  292MOL0     C38427   7.885   3.281   9.099  0.3951  0.4246 -0.5306
  292MOL0     C38428   7.947   3.374   8.996 -0.1958 -0.1127 -0.3381
  292MOL0     N38429   7.899   3.515   8.999 -0.6129  0.4315  0.0939
  292MOL0     C38430   7.771   3.563   9.010 -0.0030 -0.2849 -0.6628
  292MOL0     C38431   7.782   3.698   9.036 -0.5082  0.2939 -0.4520
  292MOL0     C38432   7.664   3.795   9.050 -0.3580 -0.3516 -0.0792
  292MOL0     C38433   7.631   3.865   9.180 -0.2076 -0.4392 -0.8777
  292MOL0     C38434   7.544   3.989   9.159  0.3379  0.5698 -0.3989
  292MOL0     C38435   7.540   4.076   9.284  0.1452 -0.1997 -0.5495
  292MOL0     O38436   7.441   4.188   9.274 -0.2482  0.7510  0.6079
  292MOL0     C38437   7.447   4.283   9.371 -0.0703  0.0160  0.3973
  292MOL0     C38438   7.349   4.382   9.350 -0.1828 -0.1202 -0.4575
  292MOL0     C38439   7.354   4.507   9.416  1.0798  0.6494  0.3673
  292MOL0     C38440   7.452   4.537   9.514  0.1269 -0.0984  0.1387
  292MOL0     C38441   7.465   4.670   9.572  1.0421  0.2411 -0.4023
  292MOL0     O38442   7.369   4.778   9.530 -0.2835  0.4504 -0.6870
  292MOL0     C38443   7.395   4.907   9.567  0.7907 -0.2936  0.2214
  292MOL0     C38444   7.477   4.979   9.493 -0.2456 -0.3955  0.5536
  292MOL0     C38445   7.529   5.094   9.549 -0.2749 -0.0881 -0.4421
  292MOL0     C38446   7.488   5.156   9.665  0.4192 -0.0093 -0.4105
  292MOL0     O38447   7.543   5.276   9.685  0.5341 -0.3967  0.1597
  292MOL0     C38448   7.474   5.363   9.776 -0.0003 -0.3757 -0.8176
  292MOL0     C38449   7.532   5.324   9.912 -0.8486 -0.1501 -0.1262
  292MOL0     C38450   7.685   5.365   9.916 -1.3576  0.3254  0.8959
  292MOL0     C38451   7.720   5.398  10.064  0.1208 -0.0422 -0.6298
  292MOL0     C38452   7.870   5.440  10.068  0.8302 -0.5952 -0.6454
  292MOL0     C38453   7.966   5.319  10.041 -0.0793  0.0587  0.0270
  292MOL0     C38454   8.120   5.339  10.052  0.2550 -0.2306 -0.8661
  292MOL0     C38455   8.162   5.317  10.196  0.2069  0.3128  0.2646
  292MOL0    Cl38456   8.346   5.328  10.207 -0.0051  0.1267  0.1896
  292MOL0     C38457   7.372   5.093   9.726  0.5832  0.4204  0.5846
  292MOL0     C38458   7.334   4.975   9.675  0.7904  0.4393  0.8807
  292MOL0     O38459   7.551   4.685   9.655  0.3855  0.0209 -0.8908
  292MOL0     C38460   7.537   4.432   9.544 -0.3188  0.3878  0.4575
  292MOL0     C38461   7.531   4.308   9.477 -0.7546  0.3778  0.1125
  292MOL0     N38462   7.917   3.721   9.033 -0.3758 -0.0411 -0.1453
  292MOL0     N38463   7.981   3.618   9.020 -0.8768 -0.6856 -0.0911
  292MOL0     C38464   8.639   2.809   9.137  0.6312  0.5024  0.3184
  292MOL0     C38465   8.760   2.755   9.090  0.2908 -0.1218 -0.1302
  292MOL0     C38466   9.158   2.668   9.007  0.8052  0.3911  0.4457
  292MOL0     C38467   9.188   2.544   9.068  0.5247 -0.2981 -0.1816
  292MOL0     C38468   9.296   2.463   9.013  0.1477  0.1445 -0.6708
  292MOL0     C38469   9.364   2.502   8.900 -0.1839  0.2960 -1.2179
  292MOL0     O38470   9.460   2.425   8.832  0.0160  0.0687 -0.1518
  292MOL0     C38471   9.538   2.324   8.905 -1.1426  0.8330 -0.0872
  292MOL0     C38472   9.668   2.302   8.841 -0.6053 -0.3869 -0.1690
  292MOL0     C38473   9.787   2.240   8.914 -0.1999 -0.1669  0.5618
  292MOL0     C38474   9.824   2.315   9.043  0.4554 -0.3494  0.1807
  292MOL0     C38475   9.752   2.269   9.163  0.6450  0.1437  0.1523
  292MOL0     C38476   9.673   2.232   9.253  0.8067 -0.3571 -0.4043
  292MOL0     C38477   9.324   2.623   8.836  0.2652  0.6248 -0.5108
  292MOL0     C38478   9.219   2.699   8.894 -0.5121  1.0543  0.3242
  292MOL0     H38479   8.908   2.666   9.382 -0.0695 -2.6899 -2.2366
  292MOL0     H38480   8.699   2.764   9.472  0.9689 -0.5363 -0.3746
  292MOL0     H38481   8.339   2.828   9.421  0.9861 -2.4642  1.7697
  292MOL0     H38482   8.431   2.694   9.335 -2.2985 -1.5708  3.9694
  292MOL0     H38483   8.213   2.746   9.209  1.5211 -2.2396  1.0578
  292MOL0     H38484   8.363   2.795   9.118 -0.1696 -1.4616 -0.4464
  292MOL0     H38485   8.334   3.026   9.149 -0.8914  0.3193  0.8862
  292MOL0     H38486   8.256   3.011   9.288 -0.5336  2.3409 -1.9216
  292MOL0     H38487   8.143   2.932   9.020  3.6926 -2.2246  1.0279
  292MOL0     H38488   8.055   2.914   9.182 -1.9886  1.1644 -0.8342
  292MOL0     H38489   8.138   3.171   9.043  0.1470 -3.9223 -3.0527
  292MOL0     H38490   8.112   3.168   9.225 -1.1651  0.2674 -0.0913
  292MOL0     H38491   7.883   3.092   9.180 -1.2293  1.1746 -0.5841
  292MOL0     H38492   7.912   3.093   9.010 -2.0967  3.6642 -0.7204
  292MOL0     H38493   7.776   3.281   9.084 -0.1361  0.3197  2.5004
  292MOL0     H38494   7.898   3.325   9.199 -2.9574 -0.0550  0.2527
  292MOL0     H38495   7.935   3.331   8.896 -0.7248  3.1951 -1.8152
  292MOL0     H38496   8.055   3.373   9.012 -0.4952  0.1179  2.0685
  292MOL0     H38497   7.675   3.515   8.997 -0.5047  0.2997  0.6627
  292MOL0     H38498   7.572   3.748   9.016 -2.1931  2.3230  0.8485
  292MOL0     H38499   7.681   3.875   8.977 -3.7244  0.6730  0.1091
  292MOL0     H38500   7.728   3.902   9.215 -0.1698  1.9367 -3.1728
  292MOL0     H38501   7.576   3.799   9.248 -3.3326  3.3878  0.7124
  292MOL0     H38502   7.583   4.047   9.075  0.3429 -2.0897 -2.3606
  292MOL0     H38503   7.446   3.962   9.119  1.6059  1.1239 -4.2843
  292MOL0     H38504   7.631   4.136   9.289  0.8576 -1.3650  2.3049
  292MOL0     H38505   7.527   4.013   9.372 -3.0169  0.6787 -0.2689
  292MOL0     H38506   7.273   4.372   9.273 -3.4321 -2.1526  2.6765
  292MOL0     H38507   7.278   4.581   9.392 -0.8037 -0.5076  2.3602
  292MOL0     H38508   7.516   4.948   9.397  0.2360 -0.1514  0.6680
  292MOL0     H38509   7.606   5.156   9.505  1.1235 -1.3313  0.1585
  292MOL0     H38510   7.367   5.345   9.761 -0.2263 -0.2728  0.5859
  292MOL0     H38511   7.498   5.469   9.762  3.1752 -1.3622 -4.8789
  292MOL0     H38512   7.514   5.217   9.927 -3.1100  0.0396 -1.1750
  292MOL0     H38513   7.473   5.374   9.989 -2.7921  3.2564 -3.5068
  292MOL0     H38514   7.704   5.454   9.855 -0.6814 -0.0331  0.5704
  292MOL0     H38515   7.760   5.290   9.891  1.7171  2.5649  2.6736
  292MOL0     H38516   7.660   5.483  10.097  1.5222  1.5956 -2.1227
  292MOL0     H38517   7.708   5.309  10.128 -0.7533 -0.6574 -1.6123
  292MOL0     H38518   7.891   5.485  10.166 -0.7889 -3.6725  1.2788
  292MOL0     H38519   7.875   5.515   9.989 -3.9524 -0.5742 -1.1901
  292MOL0     H38520   7.951   5.295   9.936 -1.1039 -0.3550  0.2516
  292MOL0     H38521   7.939   5.240  10.112 -0.1388  1.5462  1.7704
  292MOL0     H38522   8.176   5.263   9.996  2.1828  0.6922 -0.2667
  292MOL0     H38523   8.156   5.439  10.027  0.9097  0.7385  3.1790
  292MOL0     H38524   8.132   5.223  10.244  1.1502 -0.3735 -0.4329
  292MOL0     H38525   8.119   5.394  10.260 -0.4892 -1.0521  1.5017
  292MOL0     H38526   7.333   5.146   9.813 -0.4089  0.0768  0.3677
  292MOL0     H38527   7.263   4.918   9.735  0.6881  1.8272  2.1185
  292MOL0     H38528   7.617   4.450   9.615  0.3018 -0.5299  0.0086
  292MOL0     H38529   7.600   4.231   9.508 -1.1075  0.4379  1.0989
  292MOL0     H38530   8.561   2.837   9.067  0.4355 -2.0820 -0.6189
  292MOL0     H38531   8.772   2.742   8.983  0.0536  0.1186 -0.1874
  292MOL0     H38532   9.127   2.518   9.154 -1.8803 -1.6026 -2.1342
  292MOL0     H38533   9.326   2.377   9.070  3.3015  1.0291 -0.8292
  292MOL0     H38534   9.482   2.230   8.897  2.3620 -1.3333 -1.4671
  292MOL0     H38535   9.564   2.359   9.005  0.8230 -0.7281  0.0144
  292MOL0     H38536   9.654   2.237   8.755  3.9800 -0.4298 -1.1184
  292MOL0     H38537   9.699   2.396   8.795 -0.8709 -1.5933 -2.9740
  292MOL0     H38538   9.874   2.238   8.848  0.3444 -1.2530  1.2967
  292MOL0     H38539   9.786   2.131   8.924  1.7917 -0.4690 -1.5802
  292MOL0     H38540   9.931   2.302   9.059  0.0170 -1.0084  3.1400
  292MOL0     H38541   9.807   2.422   9.030 -4.5595 -0.8961  0.1448
  292MOL0     H38542   9.618   2.186   9.332  0.0997  0.8124 -0.1992
  292MOL0     H38543   9.365   2.658   8.742  0.2584 -0.8043 -1.0641
  292MOL0     H38544   9.209   2.788   8.833  0.0433 -1.5960 -4.0826
  293MOL0     O38545   4.306   9.781   8.003 -0.0956 -0.3347  0.0273
  293MOL0     C38546   4.283   9.663   7.974  0.8121 -0.1342  1.2930
  293MOL0     O38547   4.321   9.598   7.855 -0.1007 -0.0123 -0.9062
  293MOL0     C38548   4.416   9.663   7.778  0.3274  0.6401  0.1722
  293MOL0     C38549   4.547   9.677   7.818  0.1653  0.1848  0.2686
  293MOL0     C38550   4.635   9.755   7.743  0.1995 -0.3658  0.2504
  293MOL0     C38551   4.599   9.816   7.618  1.0213  0.0972 -1.3034
  293MOL0     O38552   4.681   9.895   7.543 -0.0111  0.7787  0.2177
  293MOL0     C38553   4.816   9.841   7.538  0.6713 -0.1135 -0.6741
  293MOL0     C38554   4.892   9.965   7.610  0.0323  0.8036 -0.0576
  293MOL0     C38555   4.906  10.096   7.532 -0.7158 -0.7431  0.5032
  293MOL0     C38556   5.006  10.082   7.417 -0.3800  0.3656 -0.1202
  293MOL0     C38557   5.070  10.210   7.380 -0.4545 -0.0787  0.1977
  293MOL0     C38558   5.107  10.213   7.230  0.0170 -0.5601  0.7748
  293MOL0     C38559   4.984  10.237   7.125  0.9055 -0.7824 -0.4053
  293MOL0     C38560   5.032  10.231   6.985 -0.4091 -0.3361  0.7683
  293MOL0     N38561   5.096  10.107   6.935  0.2688  0.0254  0.3908
  293MOL0     C38562   5.235  10.082   6.944 -0.0525 -0.6300 -0.1397
  293MOL0     C38563   5.258   9.962   6.879  0.5291  0.3586  0.2082
  293MOL0     C38564   5.386   9.878   6.917  0.0777 -0.0794 -0.2134
  293MOL0     C38565   5.380   9.855   7.068  0.3788 -0.2144 -0.4870
  293MOL0     C38566   5.254   9.783   7.117 -0.0233 -0.3255 -0.4490
  293MOL0     C38567   5.276   9.737   7.270  0.4340  0.4021  1.0231
  293MOL0     O38568   5.298   9.850   7.357  0.8456  0.6982  0.1203
  293MOL0     C38569   5.384   9.838   7.468 -0.2801  0.1545 -0.0504
  293MOL0     C38570   5.426   9.714   7.518 -0.1831 -1.0438  0.3410
  293MOL0     C38571   5.523   9.708   7.627  0.7278 -0.5118  0.1818
  293MOL0     C38572   5.569   9.829   7.682 -0.0465 -0.5240  0.6973
  293MOL0     C38573   5.671   9.833   7.790  0.0779  0.3200 -0.4545
  293MOL0     O38574   5.711   9.702   7.825 -0.8496 -1.0785 -0.6227
  293MOL0     C38575   5.809   9.691   7.928  0.1334  1.1835 -0.8636
  293MOL0     C38576   5.938   9.750   7.925  0.8190 -0.1174 -0.1275
  293MOL0     C38577   6.028   9.721   8.024  0.1550 -0.2825 -0.1151
  293MOL0     C38578   5.998   9.646   8.132 -0.2603 -0.0802 -0.8266
  293MOL0     O38579   6.089   9.630   8.231  0.1660 -0.5446  0.1036
  293MOL0     C38580   6.084   9.517   8.336 -0.2029 -0.4871  0.1138
  293MOL0     C38581   6.127   9.595   8.462 -0.1656 -0.1030 -0.0144
  293MOL0     C38582   6.159   9.490   8.570  0.3712 -0.0700 -0.0462
  293MOL0     C38583   6.200   9.547   8.706 -0.0458 -0.2289 -0.9453
  293MOL0     C38584   6.347   9.582   8.709  0.7434 -0.1041 -0.9151
  293MOL0     C38585   6.389   9.636   8.845 -1.3869  0.9857  0.1264
  293MOL0     C38586   6.537   9.661   8.864 -1.0070 -0.8645  0.6490
  293MOL0     C38587   6.560   9.728   8.997 -0.4352 -0.9777 -0.3069
  293MOL0    Cl38588   6.738   9.754   9.036  0.3317  0.2014 -0.2118
  293MOL0     C38589   5.868   9.595   8.140 -1.3026  0.4257  0.4728
  293MOL0     C38590   5.778   9.613   8.042 -0.5030  0.5748  0.6895
  293MOL0     O38591   5.710   9.935   7.847  0.6233 -0.0789  0.6855
  293MOL0     C38592   5.525   9.956   7.629 -0.1899 -0.3086 -0.0332
  293MOL0     C38593   5.431   9.956   7.524 -0.4352  0.1041  0.1050
  293MOL0     N38594   5.124   9.923   6.843  0.6984  0.3212 -0.5911
  293MOL0     N38595   5.032  10.016   6.854 -0.5121  0.0427  0.5120
  293MOL0     C38596   4.467   9.803   7.580  0.0500  0.6856  0.3760
  293MOL0     C38597   4.371   9.734   7.664  0.2494  0.5392  0.0034
  293MOL0     C38598   4.214   9.577   8.075 -0.7216 -0.0604  0.6365
  293MOL0     C38599   4.200   9.433   8.058  0.0046 -0.2097 -0.2006
  293MOL0     C38600   4.114   9.356   8.144 -0.0592 -0.2633 -0.2478
  293MOL0     C38601   4.050   9.416   8.251 -0.2584 -0.4560  0.6792
  293MOL0     O38602   3.969   9.356   8.340  0.0856 -0.5065  0.6576
  293MOL0     C38603   3.848   9.307   8.278 -0.2400 -0.5814 -0.3747
  293MOL0     C38604   3.729   9.321   8.366  0.5927 -0.6895 -0.5921
  293MOL0     C38605   3.593   9.287   8.304 -0.7920 -0.2634 -0.1430
  293MOL0     C38606   3.610   9.152   8.230  0.0479 -0.6690  0.2083
  293MOL0     C38607   3.490   9.104   8.181  0.7443  0.2469 -0.0336
  293MOL0     C38608   3.385   9.058   8.135  0.0016 -0.0718  0.3058
  293MOL0     C38609   4.075   9.549   8.264  0.6676 -0.0517 -0.0373
  293MOL0     C38610   4.147   9.631   8.177 -0.4625  1.1004 -0.1481
  293MOL0     H38611   4.586   9.629   7.908  0.9134  0.0709 -0.1058
  293MOL0     H38612   4.733   9.772   7.787  0.3747  0.1866 -0.3292
  293MOL0     H38613   4.847   9.832   7.434 -1.0349  2.2069 -1.4645
  293MOL0     H38614   4.840   9.747   7.588 -0.0307 -0.2245 -0.5345
  293MOL0     H38615   4.991   9.938   7.649 -0.8232  0.6509  2.1793
  293MOL0     H38616   4.833   9.993   7.699  0.5193  0.9909  0.2093
  293MOL0     H38617   4.942  10.170   7.604  3.2670  1.5736 -3.3936
  293MOL0     H38618   4.813  10.140   7.495 -0.5282 -0.8803 -0.1355
  293MOL0     H38619   5.079  10.007   7.446 -1.3923 -0.6240 -0.0540
  293MOL0     H38620   4.947  10.037   7.337 -1.0024  1.4852 -0.3100
  293MOL0     H38621   5.161  10.219   7.440  2.0688 -1.5640 -3.0741
  293MOL0     H38622   5.003  10.295   7.396 -0.8725 -0.7745  2.4215
  293MOL0     H38623   5.150  10.119   7.193 -0.1852  0.1603 -1.4153
  293MOL0     H38624   5.188  10.284   7.214  3.4239 -4.3288 -0.4992
  293MOL0     H38625   4.908  10.161   7.146  1.3472 -2.0173 -2.9466
  293MOL0     H38626   4.941  10.338   7.132  1.2540 -0.7350  3.3115
  293MOL0     H38627   5.094  10.320   6.971 -1.5602  0.5129  0.9795
  293MOL0     H38628   4.940  10.250   6.928 -1.4011  0.3491  2.5336
  293MOL0     H38629   5.313  10.137   6.995 -0.2997  0.1473 -0.5885
  293MOL0     H38630   5.482   9.925   6.895  2.0614 -3.4585  0.5215
  293MOL0     H38631   5.397   9.783   6.863  2.9367  0.6751 -1.1564
  293MOL0     H38632   5.394   9.951   7.118 -0.3793 -1.6383  2.6684
  293MOL0     H38633   5.475   9.802   7.078  0.3314 -0.9292 -3.0667
  293MOL0     H38634   5.172   9.856   7.118  0.3166  0.0686 -0.8324
  293MOL0     H38635   5.218   9.697   7.061  2.1543 -2.8694  1.7679
  293MOL0     H38636   5.366   9.676   7.265  0.5156  0.6074 -0.3488
  293MOL0     H38637   5.188   9.680   7.302 -0.3608  0.7161 -0.5150
  293MOL0     H38638   5.380   9.622   7.483  0.4527 -1.2992  0.1787
  293MOL0     H38639   5.560   9.614   7.666 -0.1466 -0.8992  0.1120
  293MOL0     H38640   5.968   9.807   7.837  0.6122  1.4527  0.7936
  293MOL0     H38641   6.126   9.768   8.010 -0.0770  0.2595  0.0486
  293MOL0     H38642   6.162   9.445   8.309  1.1298  0.8256  0.3495
  293MOL0     H38643   5.986   9.468   8.334 -1.1212  1.1080  2.2357
  293MOL0     H38644   6.047   9.659   8.503 -1.2299 -2.3389  1.6282
  293MOL0     H38645   6.214   9.661   8.463 -1.1737  1.3647  2.9706
  293MOL0     H38646   6.231   9.416   8.535 -0.1754 -1.0902  0.9139
  293MOL0     H38647   6.071   9.427   8.590 -0.9168  1.4480 -0.7226
  293MOL0     H38648   6.142   9.639   8.722 -1.4363 -1.3288  0.6244
  293MOL0     H38649   6.181   9.469   8.780 -2.4226 -0.5424 -1.8127
  293MOL0     H38650   6.370   9.649   8.625  0.4059  0.0468 -0.8895
  293MOL0     H38651   6.406   9.492   8.693  1.0033 -0.2562  0.7669
  293MOL0     H38652   6.343   9.572   8.921  0.3214  0.7492  0.9898
  293MOL0     H38653   6.332   9.729   8.853 -2.4460  0.3666 -0.0423
  293MOL0     H38654   6.594   9.567   8.864  1.1882  0.3023 -2.3586
  293MOL0     H38655   6.577   9.719   8.780 -1.5160 -1.7612 -0.2380
  293MOL0     H38656   6.506   9.685   9.082 -0.6320 -0.0708  0.0347
  293MOL0     H38657   6.527   9.830   8.980 -3.2540 -1.7885 -0.1685
  293MOL0     H38658   5.830   9.557   8.235 -0.9329 -1.8132 -0.2287
  293MOL0     H38659   5.675   9.580   8.040 -0.4295  0.3898 -0.9050
  293MOL0     H38660   5.563  10.052   7.662 -2.0999 -0.0116  1.5323
  293MOL0     H38661   5.407  10.053   7.481  1.4434  0.2444 -0.7275
  293MOL0     H38662   4.444   9.867   7.495  0.5983  0.6583  0.2043
  293MOL0     H38663   4.271   9.716   7.626  0.7962 -4.0703  0.1431
  293MOL0     H38664   4.245   9.395   7.966  0.1031  1.4585 -0.8740
  293MOL0     H38665   4.101   9.248   8.140 -3.0609 -0.0319  1.0186
  293MOL0     H38666   3.868   9.202   8.252  0.8431 -1.8174  4.4865
  293MOL0     H38667   3.820   9.354   8.183 -2.7906 -1.1317  0.0424
  293MOL0     H38668   3.748   9.248   8.446 -0.2892 -0.5406 -0.2320
  293MOL0     H38669   3.733   9.418   8.418  1.5402  0.1131 -2.0849
  293MOL0     H38670   3.565   9.353   8.222 -1.9863 -1.5320 -0.7915
  293MOL0     H38671   3.509   9.274   8.373 -1.0435 -2.1942 -0.7535
  293MOL0     H38672   3.678   9.166   8.145 -2.2441  0.7979 -1.4946
  293MOL0     H38673   3.647   9.068   8.290  3.8823  0.0275 -0.8990
  293MOL0     H38674   3.297   9.037   8.077 -1.2750  2.9897  0.9644
  293MOL0     H38675   4.015   9.599   8.340 -2.2115  0.1215 -2.2527
  293MOL0     H38676   4.148   9.739   8.193  1.1784  1.7621 -3.6699
  294MOL0     O38677   2.032   5.303   8.427  0.0674 -0.6270 -0.5583
  294MOL0     C38678   2.001   5.396   8.503 -0.1117 -0.2627 -0.4305
  294MOL0     O38679   2.089   5.497   8.542  0.4607  0.3818 -0.7218
  294MOL0     C38680   2.222   5.493   8.519 -0.4716 -0.0464 -0.2069
  294MOL0     C38681   2.276   5.469   8.391  0.1368 -0.4710  0.3652
  294MOL0     C38682   2.414   5.467   8.371 -0.3805 -0.2205 -0.1931
  294MOL0     C38683   2.502   5.475   8.483 -0.3690 -0.8878 -0.2605
  294MOL0     O38684   2.637   5.476   8.458  0.8157  0.1917 -0.1212
  294MOL0     C38685   2.723   5.571   8.521 -0.0460 -0.2502  1.0002
  294MOL0     C38686   2.867   5.575   8.459  0.1165  0.2486  0.0627
  294MOL0     C38687   2.954   5.672   8.540  0.0671 -0.1666 -0.5849
  294MOL0     C38688   3.109   5.685   8.498 -0.2501  0.3160 -0.6588
  294MOL0     C38689   3.209   5.755   8.600  0.3938  0.0828  0.3014
  294MOL0     C38690   3.356   5.719   8.561  0.6132  0.1247  0.3627
  294MOL0     C38691   3.429   5.790   8.676 -0.5568  1.0212  0.3504
  294MOL0     C38692   3.584   5.783   8.674 -0.0661  0.1525 -0.1769
  294MOL0     N38693   3.647   5.905   8.618  0.5749  0.4119 -0.0329
  294MOL0     C38694   3.667   5.938   8.487  1.0389 -0.3720  0.2788
  294MOL0     C38695   3.718   6.067   8.489 -0.3153  0.0722 -0.2144
  294MOL0     C38696   3.772   6.141   8.363  0.2271 -0.5140  0.1517
  294MOL0     C38697   3.672   6.207   8.272 -0.3642  0.5135 -0.5065
  294MOL0     C38698   3.732   6.285   8.160 -1.2686 -0.1291 -0.8117
  294MOL0     C38699   3.782   6.426   8.195 -0.7152  0.5422 -0.8423
  294MOL0     O38700   3.895   6.417   8.289 -0.0695  0.3100 -0.0855
  294MOL0     C38701   4.023   6.386   8.241 -0.1898  0.1812  0.2411
  294MOL0     C38702   4.072   6.367   8.107 -0.0326  0.7266 -0.2026
  294MOL0     C38703   4.200   6.343   8.076 -0.5817  0.1463  0.4812
  294MOL0     C38704   4.293   6.323   8.179  0.7015  0.4593 -0.9389
  294MOL0     C38705   4.441   6.308   8.156  0.3792 -0.7733  0.1419
  294MOL0     O38706   4.524   6.303   8.260 -0.3504  0.2512 -0.4639
  294MOL0     C38707   4.671   6.295   8.236  0.0344 -0.7652  0.1923
  294MOL0     C38708   4.743   6.368   8.136 -0.8408  0.4553 -0.2529
  294MOL0     C38709   4.887   6.350   8.136  1.1252 -0.1059 -0.1733
  294MOL0     C38710   4.948   6.240   8.209 -0.3971  0.3209  0.4639
  294MOL0     O38711   5.079   6.221   8.206  0.4614 -0.4718 -0.3854
  294MOL0     C38712   5.167   6.320   8.160 -0.0667  0.6404  1.0782
  294MOL0     C38713   5.182   6.298   8.004  0.1021 -0.0006 -0.0538
  294MOL0     C38714   5.282   6.383   7.934  0.6275 -0.1970 -0.3840
  294MOL0     C38715   5.286   6.360   7.786  0.2769 -0.9198 -0.2782
  294MOL0     C38716   5.151   6.376   7.715  0.2211 -0.6045  0.1871
  294MOL0     C38717   5.077   6.509   7.736 -0.4854  0.1063  0.4043
  294MOL0     C38718   4.942   6.513   7.659  0.8975 -0.1002  0.8675
  294MOL0     C38719   4.873   6.652   7.676 -0.1280  0.6658  0.7043
  294MOL0    Cl38720   4.778   6.632   7.826  0.0686  0.5605 -0.1521
  294MOL0     C38721   4.875   6.164   8.288  0.6441 -0.2674 -0.8050
  294MOL0     C38722   4.736   6.202   8.309 -0.6356  0.5801  0.0847
  294MOL0     O38723   4.464   6.310   8.034  0.1397  0.2545  0.2924
  294MOL0     C38724   4.250   6.339   8.315  0.7895  0.0110 -0.3409
  294MOL0     C38725   4.121   6.375   8.338 -0.4971 -1.0043 -0.0332
  294MOL0     N38726   3.717   6.113   8.616  0.8469  0.3395 -0.6059
  294MOL0     N38727   3.665   6.017   8.695 -1.1027 -0.2653 -0.2744
  294MOL0     C38728   2.452   5.497   8.615 -0.9974  0.5626  1.0031
  294MOL0     C38729   2.311   5.517   8.630 -0.4289 -0.0995  0.5811
  294MOL0     C38730   1.861   5.427   8.543  0.7175  0.5451 -0.0477
  294MOL0     C38731   1.827   5.521   8.635 -0.0430 -0.2001 -0.5977
  294MOL0     C38732   1.695   5.526   8.699  0.7997  0.1569 -0.4986
  294MOL0     C38733   1.591   5.444   8.639  0.4474  0.3208 -0.1233
  294MOL0     O38734   1.462   5.431   8.683 -0.2409  0.2050  0.0798
  294MOL0     C38735   1.413   5.505   8.798 -0.2195 -0.7943 -0.2524
  294MOL0     C38736   1.264   5.497   8.814  0.0782 -1.1034 -0.4613
  294MOL0     C38737   1.186   5.568   8.702  0.2588  0.2695  0.2872
  294MOL0     C38738   1.053   5.495   8.660 -0.2910  0.2280  0.2874
  294MOL0     C38739   0.974   5.505   8.785 -0.0167  0.9526 -0.8544
  294MOL0     C38740   0.895   5.478   8.874 -0.0860  0.7633  0.6102
  294MOL0     C38741   1.624   5.363   8.528  0.3023  0.6763 -0.2780
  294MOL0     C38742   1.756   5.348   8.483 -0.1864 -0.9112 -0.7976
  294MOL0     H38743   2.203   5.448   8.313 -0.2922  0.6819  0.4390
  294MOL0     H38744   2.450   5.466   8.269  1.9685 -3.5654  0.4869
  294MOL0     H38745   2.736   5.541   8.626 -0.7213 -0.1145  1.1242
  294MOL0     H38746   2.686   5.674   8.520  1.6536  0.3906  0.0805
  294MOL0     H38747   2.849   5.613   8.357 -4.8511  3.3440  1.7327
  294MOL0     H38748   2.907   5.475   8.446 -0.1925  0.3330 -1.9175
  294MOL0     H38749   2.953   5.626   8.639 -0.7751  3.7785  1.4569
  294MOL0     H38750   2.923   5.777   8.546 -1.7886 -0.7292  0.4229
  294MOL0     H38751   3.151   5.589   8.466 -0.4896  0.2675 -0.8293
  294MOL0     H38752   3.109   5.742   8.405  0.0765  0.0796 -0.8050
  294MOL0     H38753   3.180   5.720   8.700 -3.3695 -1.0254 -1.0236
  294MOL0     H38754   3.185   5.860   8.579 -1.4642 -0.2689  0.5015
  294MOL0     H38755   3.369   5.754   8.459  0.6852 -0.1726  0.2688
  294MOL0     H38756   3.377   5.611   8.555  1.0376  0.0990  1.8472
  294MOL0     H38757   3.402   5.894   8.698  2.7874  2.0913 -0.0341
  294MOL0     H38758   3.395   5.738   8.766  0.1690  0.5065  0.3355
  294MOL0     H38759   3.617   5.693   8.622 -0.5373 -0.2356  0.1863
  294MOL0     H38760   3.627   5.770   8.774  2.4743  1.1754 -1.0703
  294MOL0     H38761   3.640   5.878   8.401 -0.4840  2.6585 -1.5120
  294MOL0     H38762   3.841   6.067   8.321 -1.4300 -1.0205 -1.8135
  294MOL0     H38763   3.836   6.220   8.405  2.6798 -1.8174 -0.8914
  294MOL0     H38764   3.601   6.268   8.330 -1.0552  1.1597 -1.9843
  294MOL0     H38765   3.608   6.132   8.225  0.5129 -0.9226  0.5190
  294MOL0     H38766   3.820   6.231   8.125 -1.8092 -2.2199  0.8472
  294MOL0     H38767   3.648   6.299   8.092 -5.2374 -0.4844  3.4754
  294MOL0     H38768   3.701   6.490   8.228  1.5540  1.8462  2.8842
  294MOL0     H38769   3.818   6.468   8.101  0.4568  0.5390 -0.4215
  294MOL0     H38770   4.007   6.379   8.021  0.9251 -0.5041 -1.1140
  294MOL0     H38771   4.219   6.340   7.969  2.5322 -1.4721  0.9596
  294MOL0     H38772   4.702   6.453   8.084 -2.4060 -1.0436 -1.6166
  294MOL0     H38773   4.943   6.424   8.079 -1.6780  2.2551 -0.0897
  294MOL0     H38774   5.262   6.288   8.204  1.1030 -3.1963 -3.3544
  294MOL0     H38775   5.147   6.426   8.177  0.6878  0.8435  0.7517
  294MOL0     H38776   5.084   6.312   7.957  0.5533  3.1007 -0.2657
  294MOL0     H38777   5.207   6.192   7.994  2.0082  0.4732 -0.6359
  294MOL0     H38778   5.379   6.355   7.974 -0.0544 -1.4814  0.4312
  294MOL0     H38779   5.256   6.485   7.965 -1.2459 -1.0897  1.2039
  294MOL0     H38780   5.356   6.434   7.747  0.9039  0.4061  3.0274
  294MOL0     H38781   5.325   6.258   7.773  1.2127 -1.2170  3.6581
  294MOL0     H38782   5.084   6.290   7.722  0.0523 -0.4510  0.4774
  294MOL0     H38783   5.179   6.376   7.609  0.6322  2.6777  0.1722
  294MOL0     H38784   5.142   6.592   7.706 -0.7531  0.5195  0.9652
  294MOL0     H38785   5.046   6.517   7.841 -5.4314  1.9101 -0.9276
  294MOL0     H38786   4.943   6.502   7.551 -1.4831 -0.3506  0.8206
  294MOL0     H38787   4.871   6.441   7.702  0.6864  0.4805  1.5102
  294MOL0     H38788   4.807   6.680   7.593  1.0751  1.2009 -0.1016
  294MOL0     H38789   4.934   6.742   7.693 -2.9401  2.3285  3.0188
  294MOL0     H38790   4.927   6.083   8.340  3.4341  0.1014 -2.7855
  294MOL0     H38791   4.676   6.158   8.388  1.1467 -1.3924  0.4527
  294MOL0     H38792   4.318   6.330   8.399  2.9682 -2.2947 -2.1755
  294MOL0     H38793   4.085   6.391   8.439 -1.8463  0.5330 -0.6970
  294MOL0     H38794   2.522   5.501   8.697 -1.8579 -0.3280  1.8042
  294MOL0     H38795   2.265   5.544   8.725  0.2936 -0.2323  0.9789
  294MOL0     H38796   1.908   5.562   8.694  3.9406 -3.5140 -3.2152
  294MOL0     H38797   1.677   5.580   8.791 -3.3751 -1.8015  0.0582
  294MOL0     H38798   1.427   5.611   8.779 -1.1746 -0.6334 -0.0736
  294MOL0     H38799   1.465   5.476   8.890 -1.0066 -3.6651 -0.6105
  294MOL0     H38800   1.239   5.391   8.814  0.2315 -1.1653  1.3738
  294MOL0     H38801   1.243   5.533   8.915 -2.2757 -2.5908 -0.3541
  294MOL0     H38802   1.251   5.581   8.614 -1.1565  1.0606 -0.6772
  294MOL0     H38803   1.148   5.668   8.724 -3.2361 -0.6376 -0.8964
  294MOL0     H38804   1.011   5.535   8.568  1.3556 -2.5974 -1.8537
  294MOL0     H38805   1.092   5.396   8.634  1.0189  1.2286 -1.8709
  294MOL0     H38806   0.842   5.460   8.965  1.7390  0.7525  1.7018
  294MOL0     H38807   1.558   5.291   8.480 -0.1641 -0.0911  1.4417
  294MOL0     H38808   1.789   5.270   8.415 -1.2660 -0.3334 -2.0359
  295MOL0     O38809   0.914   3.462   8.506 -0.3020 -0.6114  0.2995
  295MOL0     C38810   0.941   3.429   8.615 -0.2149 -0.6628  1.0458
  295MOL0     O38811   0.876   3.329   8.685 -0.4915 -0.4153  0.2940
  295MOL0     C38812   0.762   3.275   8.633  0.0041  0.0183  0.3335
  295MOL0     C38813   0.649   3.280   8.707 -0.7819 -0.0212  0.2017
  295MOL0     C38814   0.528   3.219   8.660  0.3267  0.0712  0.3891
  295MOL0     C38815   0.518   3.165   8.533 -0.0208 -0.0838 -0.1304
  295MOL0     O38816   0.391   3.123   8.500 -0.3497  0.0307  0.4817
  295MOL0     C38817   0.373   3.066   8.366  0.1452  0.8231  0.7597
  295MOL0     C38818   0.241   3.001   8.363 -0.3040 -0.7833  0.6950
  295MOL0     C38819   0.231   2.914   8.237  0.5165  0.0665 -0.0456
  295MOL0     C38820   0.090   2.862   8.240  0.5720  0.2275 -0.6301
  295MOL0     C38821   0.075   2.744   8.152 -0.4845 -0.8368  0.2980
  295MOL0     C38822  -0.083   2.715   8.130 -0.2347 -0.5200 -1.3722
  295MOL0     C38823  -0.097   2.574   8.076 -0.1209 -0.0453 -0.2039
  295MOL0     C38824  -0.149   2.572   7.931  0.2475  0.1363  0.8944
  295MOL0     N38825  -0.167   2.441   7.880 -0.2624  1.0442 -0.8938
  295MOL0     C38826  -0.286   2.372   7.869 -0.8023  0.3887  0.2188
  295MOL0     C38827  -0.244   2.238   7.849  0.5510 -1.2391 -0.5438
  295MOL0     C38828  -0.340   2.121   7.833 -1.5206  0.0699 -0.3583
  295MOL0     C38829  -0.426   2.076   7.960 -0.4530  0.8625 -0.2519
  295MOL0     C38830  -0.531   1.970   7.919 -0.0582  0.2947 -0.0335
  295MOL0     C38831  -0.474   1.823   7.921 -0.2110  0.3889 -0.0587
  295MOL0     O38832  -0.585   1.735   7.921 -0.2733 -0.2216 -0.5208
  295MOL0     C38833  -0.669   1.720   7.809  0.7753  1.1272  0.6726
  295MOL0     C38834  -0.794   1.665   7.838  0.9697 -0.9033 -0.1106
  295MOL0     C38835  -0.889   1.643   7.741 -0.3580  0.3451 -0.3354
  295MOL0     C38836  -0.853   1.686   7.610  0.0290 -1.4864 -0.7422
  295MOL0     C38837  -0.954   1.688   7.507  0.9426 -0.0910 -0.5893
  295MOL0     O38838  -0.918   1.704   7.381 -0.1216  0.1413  0.2608
  295MOL0     C38839  -1.003   1.686   7.280 -0.6070  0.3708  0.1863
  295MOL0     C38840  -1.142   1.676   7.288 -0.6056 -0.5818  0.2056
  295MOL0     C38841  -1.210   1.661   7.170 -0.6234  0.3761  0.0124
  295MOL0     C38842  -1.145   1.639   7.042 -0.3805  0.5866  0.0984
  295MOL0     O38843  -1.226   1.604   6.937 -0.0743 -0.5845  0.8117
  295MOL0     C38844  -1.365   1.580   6.949  0.2673  0.0126 -0.0725
  295MOL0     C38845  -1.434   1.580   6.807 -0.8011  0.1333  0.3964
  295MOL0     C38846  -1.585   1.561   6.824  0.2897  0.5038 -0.1423
  295MOL0     C38847  -1.643   1.536   6.690  0.3636  1.3821 -0.7926
  295MOL0     C38848  -1.796   1.532   6.725 -0.8273  0.7416 -1.6125
  295MOL0     C38849  -1.863   1.514   6.585  0.5027  0.4368 -0.6529
  295MOL0     C38850  -2.001   1.436   6.604  0.8330 -0.7873  0.2195
  295MOL0     C38851  -2.115   1.534   6.631 -0.0233  1.2050  0.3096
  295MOL0    Cl38852  -2.270   1.438   6.650  0.1083 -0.2817  0.4956
  295MOL0     C38853  -1.008   1.653   7.039 -0.8979 -0.5968 -0.2462
  295MOL0     C38854  -0.939   1.688   7.156  0.0478 -0.0666  0.4787
  295MOL0     O38855  -1.070   1.663   7.555 -0.8174 -0.2232  0.0707
  295MOL0     C38856  -0.725   1.734   7.582 -0.6787  0.1719  0.8191
  295MOL0     C38857  -0.629   1.744   7.675  0.8886  0.3249  0.6042
  295MOL0     N38858  -0.116   2.236   7.816 -0.5039  0.6746 -0.3958
  295MOL0     N38859  -0.068   2.358   7.837 -0.1805  0.6316 -0.6545
  295MOL0     C38860   0.641   3.151   8.456 -0.7359  0.3846  0.3311
  295MOL0     C38861   0.763   3.206   8.506  0.3039 -0.0847  0.6856
  295MOL0     C38862   1.070   3.473   8.668 -0.3448 -1.0196  0.2144
  295MOL0     C38863   1.155   3.538   8.571 -0.0315 -0.3062  0.0598
  295MOL0     C38864   1.283   3.563   8.613 -0.5326 -0.0044  0.1310
  295MOL0     C38865   1.337   3.537   8.739  0.1146 -0.6372 -0.0161
  295MOL0     O38866   1.474   3.557   8.761  0.2291 -0.6843 -0.3427
  295MOL0     C38867   1.535   3.444   8.723  0.1250  0.4503  0.0699
  295MOL0     C38868   1.692   3.446   8.716 -0.3083 -0.5206 -0.5870
  295MOL0     C38869   1.740   3.506   8.580  0.5520  0.4094 -0.3417
  295MOL0     C38870   1.889   3.481   8.556 -0.2789 -0.7385 -0.0552
  295MOL0     C38871   1.924   3.521   8.417  0.0561  0.2038  0.6438
  295MOL0     C38872   1.969   3.557   8.305  0.1676 -0.0358 -0.5370
  295MOL0     C38873   1.255   3.479   8.829  0.8034  1.8221  0.0991
  295MOL0     C38874   1.120   3.447   8.791 -0.6281  0.5438 -0.0068
  295MOL0     H38875   0.661   3.336   8.799  4.1804  0.6772 -0.6110
  295MOL0     H38876   0.444   3.252   8.720  0.7665  3.2390 -0.5336
  295MOL0     H38877   0.449   2.989   8.347  0.8945  2.4204 -4.1832
  295MOL0     H38878   0.390   3.138   8.286  0.9269 -0.0262  0.1340
  295MOL0     H38879   0.165   3.079   8.361  0.9662  0.4948  0.9242
  295MOL0     H38880   0.238   2.944   8.457 -0.7013 -0.8498  0.6452
  295MOL0     H38881   0.300   2.830   8.254 -1.0251 -0.9368  1.7292
  295MOL0     H38882   0.244   2.964   8.141 -1.8588 -0.3951 -0.6684
  295MOL0     H38883   0.053   2.838   8.340 -0.7234  4.3117  0.0505
  295MOL0     H38884   0.018   2.942   8.221 -1.1565 -0.0992  3.5644
  295MOL0     H38885   0.116   2.652   8.192 -0.8652 -1.7512 -1.3058
  295MOL0     H38886   0.123   2.772   8.057 -1.6126  3.7395  0.8198
  295MOL0     H38887  -0.124   2.797   8.071  0.2464  2.3006  1.9043
  295MOL0     H38888  -0.148   2.716   8.218 -0.7180 -2.8103 -1.6348
  295MOL0     H38889  -0.005   2.515   8.080 -0.0964 -0.0029 -0.1432
  295MOL0     H38890  -0.184   2.529   8.126  0.9466 -0.8048  1.0288
  295MOL0     H38891  -0.082   2.637   7.873 -1.9821  2.2007  0.4657
  295MOL0     H38892  -0.248   2.618   7.939  0.2423  0.2934 -0.0031
  295MOL0     H38893  -0.388   2.401   7.891 -2.6888 -4.7201 -0.4409
  295MOL0     H38894  -0.281   2.033   7.807 -2.7260 -1.1455  0.8233
  295MOL0     H38895  -0.401   2.138   7.744 -0.7092 -0.1948 -0.9725
  295MOL0     H38896  -0.479   2.162   8.003 -0.4518  0.6701  0.1473
  295MOL0     H38897  -0.375   2.027   8.044 -1.3676 -0.5537 -0.4984
  295MOL0     H38898  -0.592   1.958   8.009 -1.1039  0.7751 -0.6653
  295MOL0     H38899  -0.586   1.992   7.827 -0.7415 -1.7394 -0.1726
  295MOL0     H38900  -0.424   1.817   8.018  0.6023 -1.3389 -0.5492
  295MOL0     H38901  -0.395   1.807   7.847  1.8152 -0.3746  2.1621
  295MOL0     H38902  -0.805   1.626   7.938  3.6336 -3.2375 -0.6009
  295MOL0     H38903  -0.985   1.597   7.761  0.3397 -0.8396  0.4177
  295MOL0     H38904  -1.202   1.663   7.377 -0.6465 -1.3620  0.0677
  295MOL0     H38905  -1.317   1.671   7.181 -0.6921 -2.1461  3.0838
  295MOL0     H38906  -1.417   1.667   6.991 -1.3301 -0.9974  0.1478
  295MOL0     H38907  -1.398   1.488   6.998 -0.0695  0.4386  0.5199
  295MOL0     H38908  -1.389   1.505   6.740  0.8508  1.5638 -0.1940
  295MOL0     H38909  -1.412   1.683   6.777  0.9513 -0.5718 -0.9515
  295MOL0     H38910  -1.633   1.643   6.877 -3.7274 -3.0258  2.2878
  295MOL0     H38911  -1.608   1.473   6.884 -1.1990  0.1137 -1.2366
  295MOL0     H38912  -1.623   1.606   6.608 -1.2890  1.0726 -1.4964
  295MOL0     H38913  -1.624   1.436   6.651 -1.8383  0.4463  0.3270
  295MOL0     H38914  -1.820   1.624   6.779 -2.0683 -0.1365 -0.6160
  295MOL0     H38915  -1.828   1.448   6.787 -1.3331  1.3856 -0.9874
  295MOL0     H38916  -1.805   1.448   6.520 -1.4132 -2.6835  0.5505
  295MOL0     H38917  -1.888   1.606   6.532 -2.3054  0.5857  0.7603
  295MOL0     H38918  -2.036   1.405   6.505  1.5106 -1.4397  0.1745
  295MOL0     H38919  -1.997   1.350   6.671  2.0239  0.0710  1.2937
  295MOL0     H38920  -2.131   1.609   6.553  0.1071 -0.5628 -1.4750
  295MOL0     H38921  -2.102   1.586   6.726  0.2684 -0.4162  1.1887
  295MOL0     H38922  -0.947   1.653   6.949  1.2836 -0.4963  1.1648
  295MOL0     H38923  -0.830   1.690   7.148 -0.1179  0.3286 -3.3643
  295MOL0     H38924  -0.705   1.756   7.478  0.2887 -0.9357  0.7430
  295MOL0     H38925  -0.533   1.794   7.661 -0.5754  3.0246 -0.4124
  295MOL0     H38926   0.635   3.104   8.358 -2.0166 -1.7583  1.3666
  295MOL0     H38927   0.852   3.222   8.446  0.0955 -0.7760  0.1799
  295MOL0     H38928   1.137   3.561   8.466  0.2190  0.9508  0.2767
  295MOL0     H38929   1.354   3.612   8.546 -0.2002 -0.4189  0.1791
  295MOL0     H38930   1.513   3.414   8.620  1.6129 -3.0895  0.6455
  295MOL0     H38931   1.504   3.360   8.785  0.5159 -0.0494 -0.3967
  295MOL0     H38932   1.737   3.489   8.806  1.5328 -0.9162 -1.2758
  295MOL0     H38933   1.718   3.339   8.714 -3.1987 -1.3074 -0.9327
  295MOL0     H38934   1.726   3.614   8.589  0.3215  0.3602 -0.1118
  295MOL0     H38935   1.680   3.464   8.499  0.1615 -1.1052  0.6778
  295MOL0     H38936   1.957   3.545   8.614  0.4492  0.7307 -2.3813
  295MOL0     H38937   1.924   3.380   8.580  0.3140 -1.0292 -2.0074
  295MOL0     H38938   2.012   3.594   8.214  3.1136 -1.6447  0.1033
  295MOL0     H38939   1.291   3.439   8.923 -1.2834  1.2488  0.7130
  295MOL0     H38940   1.057   3.388   8.857  1.2637  0.6133  1.9597
  296MOL0     O38941  10.241   6.060   8.592  0.8266 -0.5277 -0.3640
  296MOL0     C38942  10.307   5.961   8.618 -0.2475  0.3892  0.2758
  296MOL0     O38943  10.259   5.854   8.688 -0.5734 -0.2002  0.7844
  296MOL0     C38944  10.127   5.851   8.715  0.1255  0.0036 -0.2559
  296MOL0     C38945  10.066   5.938   8.811 -0.7855  0.7227  0.8659
  296MOL0     C38946   9.932   5.914   8.844 -0.3162  0.0777 -0.1341
  296MOL0     C38947   9.862   5.809   8.793 -0.5656 -0.0259 -0.2965
  296MOL0     O38948   9.731   5.796   8.802  0.0790  0.2592  0.2167
  296MOL0     C38949   9.650   5.915   8.778 -0.3185 -0.2955  0.1977
  296MOL0     C38950   9.497   5.872   8.741  0.4102  0.1442  0.6970
  296MOL0     C38951   9.408   5.993   8.732 -0.6795 -0.5550  0.3800
  296MOL0     C38952   9.289   5.970   8.643  0.0955  0.6596  0.7864
  296MOL0     C38953   9.201   5.857   8.687 -0.6230  0.7706 -0.7657
  296MOL0     C38954   9.115   5.894   8.804  0.2171 -0.5095 -0.5299
  296MOL0     C38955   9.018   5.787   8.849  0.1728  0.6188 -0.7096
  296MOL0     C38956   8.888   5.844   8.913 -0.0074 -0.6605  0.7066
  296MOL0     N38957   8.804   5.929   8.831 -0.4875 -0.3814  0.5164
  296MOL0     C38958   8.777   6.054   8.871 -0.2640 -0.8841 -0.3576
  296MOL0     C38959   8.691   6.100   8.784  0.0070  0.7947 -0.4599
  296MOL0     C38960   8.613   6.226   8.790  0.3874 -0.5917  0.9372
  296MOL0     C38961   8.527   6.262   8.660 -0.0356  0.3008  0.2719
  296MOL0     C38962   8.435   6.366   8.684 -0.0974  0.1315  0.1601
  296MOL0     C38963   8.317   6.311   8.769  0.6783  0.2227 -0.8351
  296MOL0     O38964   8.199   6.373   8.719 -0.4903  0.0897 -0.9338
  296MOL0     C38965   8.081   6.344   8.783  0.0731 -0.7905  1.0510
  296MOL0     C38966   8.057   6.226   8.854  0.2635 -0.8486 -0.4033
  296MOL0     C38967   7.937   6.212   8.929 -0.6010 -1.1616  0.5291
  296MOL0     C38968   7.841   6.316   8.929  0.6465  0.5937 -0.3404
  296MOL0     C38969   7.716   6.317   9.013 -0.2799  0.7465  0.1010
  296MOL0     O38970   7.630   6.424   8.990  0.4445  0.6319 -0.0237
  296MOL0     C38971   7.511   6.413   9.064 -0.2681 -0.7551 -0.6501
  296MOL0     C38972   7.512   6.427   9.201  0.4280  0.8585  0.2655
  296MOL0     C38973   7.387   6.417   9.273  0.0393 -0.3616  0.5182
  296MOL0     C38974   7.270   6.395   9.211  1.2714  0.5354  0.4092
  296MOL0     O38975   7.162   6.393   9.287 -0.5679  0.3971  0.4270
  296MOL0     C38976   7.031   6.371   9.226 -0.4288 -0.1174 -0.2045
  296MOL0     C38977   6.932   6.346   9.334 -0.3581 -0.6817  0.1510
  296MOL0     C38978   6.791   6.312   9.288  0.0718 -0.1065  0.0746
  296MOL0     C38979   6.700   6.271   9.411  0.7535  0.0072 -0.2003
  296MOL0     C38980   6.558   6.216   9.364 -0.7656 -0.0220  1.0743
  296MOL0     C38981   6.453   6.253   9.462  0.4504  1.1561  0.3611
  296MOL0     C38982   6.327   6.192   9.412  0.5140 -0.4829 -0.2523
  296MOL0     C38983   6.209   6.261   9.483  0.4161  0.5454 -0.5958
  296MOL0    Cl38984   6.194   6.191   9.651 -0.0155 -0.2257  0.4032
  296MOL0     C38985   7.268   6.390   9.072  0.1079 -0.4363 -0.8516
  296MOL0     C38986   7.389   6.399   9.007  0.3914  0.5823  0.1975
  296MOL0     O38987   7.695   6.220   9.082  0.1120  0.3081 -0.1970
  296MOL0     C38988   7.866   6.427   8.843 -0.1973  0.1230 -0.5885
  296MOL0     C38989   7.986   6.441   8.765 -0.1321  1.0963 -0.0820
  296MOL0     N38990   8.661   6.003   8.685 -0.3914 -0.0419 -0.8436
  296MOL0     N38991   8.737   5.904   8.713 -0.4945  0.0911 -0.7390
  296MOL0     C38992   9.930   5.711   8.713  0.0156 -0.2847  0.3979
  296MOL0     C38993  10.057   5.735   8.671  0.2011 -0.0302  0.3543
  296MOL0     C38994  10.445   5.964   8.564 -0.9938  0.2004  0.2743
  296MOL0     C38995  10.487   6.068   8.477  0.0652 -0.7082  0.3529
  296MOL0     C38996  10.611   6.060   8.425  0.7150 -0.3779  0.3991
  296MOL0     C38997  10.691   5.954   8.444 -0.5645  0.0102  0.3369
  296MOL0     O38998  10.805   5.934   8.369  0.3303 -0.0328 -0.6475
  296MOL0     C38999  10.922   5.919   8.456 -0.8977 -0.1616  0.3652
  296MOL0     C39000  11.046   5.962   8.379 -0.2917  0.0689  0.6373
  296MOL0     C39001  11.168   5.931   8.467 -0.7962  0.0815 -0.4672
  296MOL0     C39002  11.298   5.950   8.394 -1.1433  0.4966 -0.7048
  296MOL0     C39003  11.422   5.925   8.480 -0.0375  0.0292 -0.0155
  296MOL0     C39004  11.519   5.909   8.535  1.0401 -0.0868 -0.0035
  296MOL0     C39005  10.657   5.855   8.530 -0.3288  0.3209 -1.0990
  296MOL0     C39006  10.538   5.867   8.595  0.2113 -0.0770 -0.6885
  296MOL0     H39007  10.123   6.021   8.851 -0.1639  0.7218  0.0203
  296MOL0     H39008   9.878   5.985   8.906 -3.5864 -2.8502  0.6217
  296MOL0     H39009   9.676   5.976   8.692  0.2415 -1.4748 -0.4973
  296MOL0     H39010   9.655   5.972   8.871  3.1641 -1.4002  0.8283
  296MOL0     H39011   9.459   5.798   8.813 -1.3065  1.7114  1.4795
  296MOL0     H39012   9.518   5.823   8.645  0.5302  2.0663 -0.3190
  296MOL0     H39013   9.465   6.073   8.682 -1.4964 -2.1344 -3.4822
  296MOL0     H39014   9.367   6.009   8.832 -1.0514  2.2539 -0.1300
  296MOL0     H39015   9.225   6.058   8.634  0.2179  0.5215 -2.9500
  296MOL0     H39016   9.333   5.951   8.544  1.4059 -1.9276  1.7706
  296MOL0     H39017   9.262   5.772   8.720  0.5226  2.2998  1.2969
  296MOL0     H39018   9.135   5.819   8.609  1.2564  1.3153 -2.7298
  296MOL0     H39019   9.060   5.983   8.771 -1.5004 -0.7697  1.4357
  296MOL0     H39020   9.174   5.916   8.893 -2.2779  0.8727  0.8861
  296MOL0     H39021   8.992   5.721   8.765 -1.0069 -1.6272  1.2712
  296MOL0     H39022   9.065   5.720   8.921 -2.2695 -1.4563 -0.8921
  296MOL0     H39023   8.921   5.907   8.997 -0.3141 -1.5127  1.4910
  296MOL0     H39024   8.835   5.754   8.945  1.7535 -3.2437 -2.9189
  296MOL0     H39025   8.787   6.099   8.969 -0.3743 -3.4711  0.9438
  296MOL0     H39026   8.689   6.304   8.806  0.2567 -0.3247  0.2919
  296MOL0     H39027   8.545   6.236   8.875  0.7777  0.9618  1.1022
  296MOL0     H39028   8.468   6.174   8.634  0.6051 -1.2231  3.4695
  296MOL0     H39029   8.603   6.289   8.587  0.0870  0.2761  0.3893
  296MOL0     H39030   8.477   6.457   8.728  0.4680  0.3305 -0.7679
  296MOL0     H39031   8.388   6.389   8.588 -2.3329  0.8789  1.3585
  296MOL0     H39032   8.337   6.332   8.875  0.0816  1.7012 -0.9860
  296MOL0     H39033   8.307   6.203   8.761  1.1256 -0.0315  1.3758
  296MOL0     H39034   8.129   6.146   8.867 -1.7982 -2.7247  0.1183
  296MOL0     H39035   7.906   6.125   8.985 -1.2901  0.6192  3.0945
  296MOL0     H39036   7.601   6.464   9.250 -0.1358  2.2969  0.2523
  296MOL0     H39037   7.402   6.427   9.380  1.8466  1.7722  0.1482
  296MOL0     H39038   7.038   6.294   9.149 -0.1808  0.5733 -0.8738
  296MOL0     H39039   6.999   6.462   9.175  0.0312 -0.7510 -1.6765
  296MOL0     H39040   6.917   6.438   9.392  1.0040 -0.2446 -0.1528
  296MOL0     H39041   6.974   6.267   9.397 -1.9163 -1.9786 -0.3859
  296MOL0     H39042   6.799   6.220   9.229  0.5055  0.0057 -0.0506
  296MOL0     H39043   6.756   6.397   9.228  2.4519  2.4126  1.9896
  296MOL0     H39044   6.749   6.192   9.468 -0.1437 -0.0590  0.5092
  296MOL0     H39045   6.688   6.350   9.486  0.3362 -0.2088 -0.0373
  296MOL0     H39046   6.566   6.109   9.342 -0.3891  0.8253 -4.3595
  296MOL0     H39047   6.533   6.260   9.267  2.2769  1.5058  0.8533
  296MOL0     H39048   6.449   6.362   9.454  0.4538  1.3108  2.1056
  296MOL0     H39049   6.469   6.209   9.561 -1.4060  0.6977  0.4899
  296MOL0     H39050   6.309   6.224   9.309  2.0960 -0.0944 -0.4294
  296MOL0     H39051   6.333   6.085   9.435 -0.3638 -0.8732 -1.7096
  296MOL0     H39052   6.117   6.232   9.431 -0.9422  1.1275  1.3924
  296MOL0     H39053   6.228   6.368   9.494  1.9426  0.0198  4.8402
  296MOL0     H39054   7.177   6.388   9.013  0.6594  1.4939 -1.8636
  296MOL0     H39055   7.399   6.370   8.903  1.0455  1.1463  0.1012
  296MOL0     H39056   7.813   6.518   8.817  3.9885  3.2545  0.6145
  296MOL0     H39057   8.006   6.526   8.701  0.2307  0.4011 -0.9207
  296MOL0     H39058   9.867   5.642   8.659 -3.9950  1.4960  2.3581
  296MOL0     H39059  10.107   5.676   8.595  1.9771  2.4806 -0.5139
  296MOL0     H39060  10.421   6.150   8.453 -2.0086 -3.3058 -3.9688
  296MOL0     H39061  10.634   6.129   8.344 -1.2553  0.7999  0.7599
  296MOL0     H39062  10.933   5.815   8.486  2.3233 -0.6864 -2.0857
  296MOL0     H39063  10.907   5.985   8.542 -1.1343  2.4033 -1.5063
  296MOL0     H39064  11.061   5.912   8.283 -0.0038  1.3680 -0.0048
  296MOL0     H39065  11.042   6.067   8.349  3.6506  0.0301 -0.5833
  296MOL0     H39066  11.162   5.829   8.507  2.9113 -0.8264 -1.8418
  296MOL0     H39067  11.167   6.012   8.541 -0.4576  2.2693 -2.7290
  296MOL0     H39068  11.319   5.880   8.313  1.3126  1.2376 -0.8004
  296MOL0     H39069  11.302   6.052   8.355  0.4060 -0.1979 -2.5354
  296MOL0     H39070  11.606   5.921   8.596  1.4793 -0.5406 -0.5328
  296MOL0     H39071  10.720   5.768   8.548  0.1467  0.6984 -0.9411
  296MOL0     H39072  10.500   5.788   8.658 -0.9403 -0.7753 -2.1960
  297MOL0     O39073   6.499   1.185   8.188  0.5966  0.0331 -0.5046
  297MOL0     C39074   6.591   1.259   8.231  0.4724 -0.2169  0.5550
  297MOL0     O39075   6.586   1.398   8.244 -0.3013 -0.3999  0.1756
  297MOL0     C39076   6.476   1.460   8.194 -0.4624  0.4380  0.2090
  297MOL0     C39077   6.369   1.498   8.275 -1.1059 -0.2282 -0.3735
  297MOL0     C39078   6.261   1.557   8.214  1.1032  0.0441 -0.8262
  297MOL0     C39079   6.262   1.575   8.074 -0.6156 -0.5070 -0.9771
  297MOL0     O39080   6.153   1.623   8.005  0.4076  0.5179  0.7350
  297MOL0     C39081   6.040   1.682   8.064  0.4490  0.2964  0.3994
  297MOL0     C39082   5.946   1.720   7.950  0.1480  0.9274 -0.4226
  297MOL0     C39083   5.816   1.793   7.995 -0.2614  0.6931  0.5618
  297MOL0     C39084   5.712   1.818   7.874 -0.6342 -0.6251  0.3697
  297MOL0     C39085   5.601   1.914   7.919 -0.1129 -1.1160  0.0168
  297MOL0     C39086   5.481   1.927   7.827  0.0542  1.0831  0.6229
  297MOL0     C39087   5.498   1.989   7.692 -0.2404  0.0453  0.2177
  297MOL0     C39088   5.488   2.139   7.697 -0.9048 -0.1281 -0.1254
  297MOL0     N39089   5.351   2.178   7.716 -0.5813  0.2947  0.0963
  297MOL0     C39090   5.240   2.135   7.652 -0.0336 -0.2517  1.1944
  297MOL0     C39091   5.143   2.226   7.674  0.6454 -0.2629 -0.1757
  297MOL0     C39092   5.018   2.223   7.592 -0.3039 -0.5095  0.6081
  297MOL0     C39093   4.957   2.351   7.573 -0.0638 -0.7749 -0.6907
  297MOL0     C39094   4.845   2.339   7.457  0.3494 -0.5254  0.3891
  297MOL0     C39095   4.721   2.259   7.501  0.3842 -0.7156 -0.1585
  297MOL0     O39096   4.630   2.269   7.389 -0.5585 -0.4709  0.2656
  297MOL0     C39097   4.497   2.268   7.411  0.0063 -0.6915  0.0860
  297MOL0     C39098   4.431   2.268   7.533  0.4073  0.2444  0.2122
  297MOL0     C39099   4.294   2.270   7.542  0.8580 -0.3596 -0.0095
  297MOL0     C39100   4.219   2.272   7.427  0.2593  0.5726  0.1797
  297MOL0     C39101   4.068   2.275   7.416  0.0349  0.7136 -0.1285
  297MOL0     O39102   4.014   2.231   7.303  0.0857 -0.7395  0.1120
  297MOL0     C39103   3.878   2.220   7.274 -0.6914 -0.6551 -0.0531
  297MOL0     C39104   3.857   2.190   7.137 -0.1394 -0.6118 -0.3636
  297MOL0     C39105   3.727   2.188   7.072 -0.0514 -0.5559 -0.6327
  297MOL0     C39106   3.621   2.215   7.151  0.4557  0.1616 -0.2430
  297MOL0     O39107   3.504   2.200   7.089  0.4267 -0.1006 -1.0842
  297MOL0     C39108   3.381   2.221   7.169  0.2468 -0.0529  0.5866
  297MOL0     C39109   3.322   2.086   7.194  0.3261  0.9223 -0.2730
  297MOL0     C39110   3.179   2.104   7.263  0.1866  0.4742  0.0748
  297MOL0     C39111   3.094   1.994   7.212  0.4747  0.3726  0.3824
  297MOL0     C39112   2.960   2.010   7.276 -0.0908  0.3135  0.0035
  297MOL0     C39113   2.857   1.898   7.241 -0.0524  0.6442  0.2790
  297MOL0     C39114   2.727   1.921   7.325  0.1776 -0.5752  0.2239
  297MOL0     C39115   2.618   1.811   7.298 -0.6120  0.2746 -0.6073
  297MOL0    Cl39116   2.476   1.834   7.406 -0.2055 -0.1567  0.1855
  297MOL0     C39117   3.637   2.248   7.287  0.6214 -0.0683  0.4308
  297MOL0     C39118   3.761   2.249   7.347  0.4638  0.0744  0.7152
  297MOL0     O39119   4.004   2.310   7.518 -0.8586 -0.2523  0.3676
  297MOL0     C39120   4.285   2.275   7.304  0.0598 -0.0609 -0.3143
  297MOL0     C39121   4.424   2.277   7.293  0.7437  0.3778  0.0993
  297MOL0     N39122   5.193   2.314   7.764 -0.7117 -0.3612  0.6258
  297MOL0     N39123   5.316   2.280   7.795 -0.1348 -0.1883  0.7390
  297MOL0     C39124   6.372   1.539   8.004  1.0331  0.1432 -0.5702
  297MOL0     C39125   6.466   1.474   8.060  0.2248 -0.4858  0.6613
  297MOL0     C39126   6.718   1.188   8.278  0.5751  0.1792  0.5096
  297MOL0     C39127   6.814   1.263   8.339 -0.4045 -0.1764 -0.5731
  297MOL0     C39128   6.935   1.216   8.375 -0.3717 -0.1175  0.0762
  297MOL0     C39129   6.970   1.083   8.340 -0.3826  0.9604 -0.4891
  297MOL0     O39130   7.095   1.048   8.387 -0.5720 -0.1257  0.3034
  297MOL0     C39131   7.156   0.928   8.332 -1.4252  0.1026  0.3653
  297MOL0     C39132   7.130   0.811   8.423  0.0594 -0.0500 -0.2185
  297MOL0     C39133   7.235   0.701   8.390 -0.0758  0.6337  0.0066
  297MOL0     C39134   7.366   0.716   8.469 -0.5081 -0.3820 -0.3711
  297MOL0     C39135   7.440   0.591   8.478  1.0886 -0.1912 -0.2632
  297MOL0     C39136   7.490   0.481   8.486  0.4352 -1.0037  0.4447
  297MOL0     C39137   6.873   1.005   8.272  1.4309  0.3525 -0.0204
  297MOL0     C39138   6.746   1.056   8.236  0.0321  0.0887  0.7985
  297MOL0     H39139   6.382   1.481   8.381  1.4310 -0.2725 -0.6257
  297MOL0     H39140   6.178   1.589   8.275  0.0150  1.7705 -3.0701
  297MOL0     H39141   6.054   1.770   8.128 -0.9861  0.2961  0.7469
  297MOL0     H39142   5.985   1.613   8.128  0.3243  1.2730  1.3902
  297MOL0     H39143   5.907   1.636   7.891 -2.9022  2.8023 -1.2750
  297MOL0     H39144   5.999   1.782   7.877 -1.2053  1.0149 -1.3617
  297MOL0     H39145   5.844   1.892   8.032  0.4041  0.1358  1.6269
  297MOL0     H39146   5.779   1.740   8.083 -0.4938  0.6804  0.4562
  297MOL0     H39147   5.776   1.865   7.799  1.6096 -2.8458  0.7724
  297MOL0     H39148   5.677   1.725   7.828  1.4561  0.1757 -3.2467
  297MOL0     H39149   5.645   2.014   7.914  3.6859 -2.7102 -2.6117
  297MOL0     H39150   5.569   1.888   8.021  0.3540  2.8549  1.3714
  297MOL0     H39151   5.408   1.984   7.885 -0.5334  0.0392  0.9487
  297MOL0     H39152   5.455   1.825   7.795  0.2058  1.2587 -0.0778
  297MOL0     H39153   5.597   1.954   7.662 -1.7223 -1.0342 -4.2946
  297MOL0     H39154   5.437   1.933   7.620  2.1675 -0.2186 -1.7664
  297MOL0     H39155   5.511   2.174   7.596  1.2453 -1.4895 -0.1578
  297MOL0     H39156   5.554   2.179   7.774 -1.8746  1.7491 -0.1965
  297MOL0     H39157   5.225   2.047   7.590 -0.5989  0.3182  0.5040
  297MOL0     H39158   4.947   2.157   7.642 -0.4438  0.4967  1.8074
  297MOL0     H39159   5.043   2.179   7.495  1.5682  0.5699  0.5476
  297MOL0     H39160   5.034   2.424   7.548  1.5597 -1.4489  1.9387
  297MOL0     H39161   4.904   2.381   7.664  2.2321  0.1117  0.4431
  297MOL0     H39162   4.827   2.445   7.435  1.2858  0.1433  2.5795
  297MOL0     H39163   4.895   2.298   7.369 -0.1254  0.6622 -0.4635
  297MOL0     H39164   4.682   2.309   7.589  0.9499 -3.4420  1.7657
  297MOL0     H39165   4.750   2.155   7.520 -0.0573 -1.0851 -1.3751
  297MOL0     H39166   4.490   2.278   7.624 -0.9079 -2.1647  1.4374
  297MOL0     H39167   4.231   2.276   7.630 -4.2238 -0.9495 -3.2099
  297MOL0     H39168   3.950   2.173   7.083  0.5038 -1.6288  1.0206
  297MOL0     H39169   3.720   2.160   6.967  0.3656  1.9704 -1.4146
  297MOL0     H39170   3.310   2.272   7.104  0.9281  1.4281  0.9811
  297MOL0     H39171   3.400   2.283   7.256 -1.2188 -0.9037  1.5581
  297MOL0     H39172   3.388   2.023   7.254 -0.1692  0.6173 -0.0472
  297MOL0     H39173   3.304   2.045   7.094 -2.1634  0.4780  0.3016
  297MOL0     H39174   3.134   2.203   7.248 -0.6032  0.1174  0.0192
  297MOL0     H39175   3.187   2.096   7.372 -0.9747 -0.7621  0.1010
  297MOL0     H39176   3.083   2.005   7.104 -0.4061  1.4726  0.5606
  297MOL0     H39177   3.140   1.896   7.225  1.1400  0.7395  0.8751
  297MOL0     H39178   2.912   2.100   7.236  1.2452 -0.0846 -2.7531
  297MOL0     H39179   2.970   2.020   7.384 -0.2978 -0.2788  0.0805
  297MOL0     H39180   2.885   1.797   7.269 -3.6372 -0.8913 -1.0579
  297MOL0     H39181   2.829   1.889   7.135 -0.3179  1.6703  0.2484
  297MOL0     H39182   2.749   1.901   7.430 -1.4950 -1.7179  0.3992
  297MOL0     H39183   2.692   2.023   7.304 -0.1618 -0.2826  2.0371
  297MOL0     H39184   2.659   1.710   7.312 -0.1223  0.0521 -3.0955
  297MOL0     H39185   2.578   1.804   7.196  0.7583 -0.9814 -1.1035
  297MOL0     H39186   3.551   2.255   7.353  0.4542 -0.0398  0.2157
  297MOL0     H39187   3.766   2.269   7.454  1.0567 -1.7291  1.0694
  297MOL0     H39188   4.240   2.286   7.206  0.1050  2.8164 -0.0744
  297MOL0     H39189   4.474   2.273   7.196  0.8770 -0.7177  0.1993
  297MOL0     H39190   6.368   1.551   7.896 -1.1076 -1.1816 -0.6939
  297MOL0     H39191   6.533   1.426   7.989 -1.1048 -3.0258  1.0159
  297MOL0     H39192   6.793   1.368   8.356 -4.9030 -0.5793 -2.1678
  297MOL0     H39193   7.021   1.269   8.417 -0.5411 -0.7059  1.2101
  297MOL0     H39194   7.263   0.938   8.315 -1.6105 -1.4785 -2.3969
  297MOL0     H39195   7.106   0.916   8.235 -1.1206  1.5450  0.0206
  297MOL0     H39196   7.128   0.831   8.530  2.3367 -1.8645  0.2423
  297MOL0     H39197   7.031   0.772   8.395 -0.5556  1.7247 -0.6289
  297MOL0     H39198   7.257   0.703   8.282 -0.8459 -1.1034 -0.2169
  297MOL0     H39199   7.182   0.605   8.400 -0.4567  0.7933 -0.4028
  297MOL0     H39200   7.438   0.792   8.438  0.7919 -0.2652  2.6076
  297MOL0     H39201   7.340   0.748   8.570 -2.4105 -2.8227  0.0007
  297MOL0     H39202   7.530   0.383   8.502 -0.1614 -1.0462  1.7854
  297MOL0     H39203   6.890   0.900   8.253  2.1560  0.8512 -2.4262
  297MOL0     H39204   6.679   0.995   8.176 -1.1744  1.0204  1.1581
  298MOL0     O39205   9.477   8.321   3.361  0.5536 -0.4442 -0.6505
  298MOL0     C39206   9.358   8.360   3.365  0.0351  0.4860 -0.2727
  298MOL0     O39207   9.297   8.443   3.272 -0.0968 -0.2378 -0.7365
  298MOL0     C39208   9.378   8.506   3.177  0.2539  0.6311 -0.0953
  298MOL0     C39209   9.493   8.574   3.207  0.3753  0.3053  0.5152
  298MOL0     C39210   9.576   8.646   3.118  0.0998  0.8088  0.0860
  298MOL0     C39211   9.550   8.644   2.981  0.7405 -0.4060  0.1539
  298MOL0     O39212   9.622   8.717   2.887  0.2136  0.7560 -0.9442
  298MOL0     C39213   9.764   8.734   2.926  0.1518  0.2433 -0.4316
  298MOL0     C39214   9.847   8.785   2.805 -0.2475 -0.0981 -0.0759
  298MOL0     C39215   9.781   8.908   2.737  0.3619  0.5606  0.5185
  298MOL0     C39216   9.888   9.002   2.672 -0.9778  0.0081  0.4196
  298MOL0     C39217   9.835   9.121   2.588 -0.6238  0.3154  0.3160
  298MOL0     C39218   9.961   9.211   2.559  0.9401 -0.9049  0.9123
  298MOL0     C39219   9.940   9.341   2.471  0.4123  0.6445 -0.3818
  298MOL0     C39220   9.890   9.304   2.333  0.0095 -0.3019  0.5019
  298MOL0     N39221   9.872   9.423   2.242  0.2442 -0.5343 -0.5175
  298MOL0     C39222   9.972   9.520   2.216  0.4721  0.8580 -0.9852
  298MOL0     C39223   9.934   9.592   2.108  0.0228  0.5459 -0.4534
  298MOL0     C39224  10.003   9.717   2.065 -0.0800 -1.0401  0.1655
  298MOL0     C39225   9.932   9.839   2.122  0.0195 -0.5840 -0.1179
  298MOL0     C39226   9.939   9.855   2.281  0.2510  0.8219 -1.1005
  298MOL0     C39227  10.079   9.883   2.328  0.2107 -0.3326  0.4875
  298MOL0     O39228  10.083   9.928   2.469  1.0575  0.1478  0.3518
  298MOL0     C39229  10.202   9.966   2.528 -0.0557  0.6195 -0.1114
  298MOL0     C39230  10.329   9.927   2.482  0.0316  0.3211  0.6046
  298MOL0     C39231  10.443   9.957   2.554  0.6582 -0.0075 -0.3706
  298MOL0     C39232  10.427  10.036   2.674 -0.4853 -0.4757 -0.7707
  298MOL0     C39233  10.550  10.063   2.755  0.4316 -1.0511  0.0886
  298MOL0     O39234  10.681  10.047   2.695  0.1076 -0.0000 -0.4485
  298MOL0     C39235  10.800  10.086   2.749  0.4768 -0.0653 -0.8019
  298MOL0     C39236  10.802  10.182   2.850  0.3566 -0.0649  0.1506
  298MOL0     C39237  10.931  10.227   2.886  0.9049  0.0909 -0.1749
  298MOL0     C39238  11.048  10.181   2.818  0.0403  0.3267  0.1139
  298MOL0     O39239  11.161  10.253   2.841  0.5341  0.2799  0.0377
  298MOL0     C39240  11.272  10.265   2.748 -0.2983 -0.0709 -1.8992
  298MOL0     C39241  11.309  10.411   2.730 -0.8147  0.0304  0.0555
  298MOL0     C39242  11.438  10.451   2.798 -0.7681 -0.1007  0.4679
  298MOL0     C39243  11.416  10.442   2.952  0.6003  0.9923 -0.0803
  298MOL0     C39244  11.533  10.515   3.021 -0.2624 -0.5257  1.1293
  298MOL0     C39245  11.521  10.517   3.174 -0.0650  0.1862 -0.2573
  298MOL0     C39246  11.412  10.609   3.239 -1.3233 -0.1526  0.3606
  298MOL0     C39247  11.433  10.760   3.195  0.7976  0.0724  0.6217
  298MOL0    Cl39248  11.611  10.814   3.198  0.1399  0.2501 -0.5925
  298MOL0     C39249  11.042  10.072   2.730 -0.8133  0.1229  0.0153
  298MOL0     C39250  10.912  10.024   2.698  0.4178  0.4714 -0.2114
  298MOL0     O39251  10.525  10.084   2.872  0.4962  0.7861  0.4855
  298MOL0     C39252  10.299  10.072   2.727 -0.2515  0.9329  0.2732
  298MOL0     C39253  10.190  10.029   2.647  0.0754  0.1929 -0.1131
  298MOL0     N39254   9.802   9.544   2.076  0.2233  0.0579  0.1543
  298MOL0     N39255   9.773   9.437   2.150  0.2765  0.3267  0.1166
  298MOL0     C39256   9.429   8.570   2.943  0.1861  0.1164  1.0164
  298MOL0     C39257   9.338   8.516   3.044 -0.6560 -0.3449  0.0724
  298MOL0     C39258   9.277   8.300   3.476  0.3827  0.4616  0.7889
  298MOL0     C39259   9.138   8.316   3.474  0.0158  0.6862 -0.7331
  298MOL0     C39260   9.062   8.287   3.581  0.1611  0.2879 -0.5073
  298MOL0     C39261   9.107   8.223   3.692 -0.6259  0.3566  0.4782
  298MOL0     O39262   9.022   8.197   3.800 -0.0487 -0.2723  0.1405
  298MOL0     C39263   9.078   8.113   3.904  0.7306  0.8797 -0.0605
  298MOL0     C39264   8.958   8.061   3.988 -0.4490 -0.6232 -0.2548
  298MOL0     C39265   8.887   8.180   4.047 -0.2987  0.6626  0.2651
  298MOL0     C39266   8.763   8.131   4.125  0.0017  0.7598  0.6610
  298MOL0     C39267   8.695   8.249   4.174  0.1650 -0.3371  0.1667
  298MOL0     C39268   8.632   8.345   4.221 -0.3489  0.1906  0.8544
  298MOL0     C39269   9.242   8.190   3.691  0.0143 -0.3905 -1.1841
  298MOL0     C39270   9.330   8.237   3.589  0.7201  0.5614  0.3998
  298MOL0     H39271   9.542   8.572   3.304  2.2487  2.0418 -0.3263
  298MOL0     H39272   9.673   8.686   3.145  1.7786 -1.7890 -1.7275
  298MOL0     H39273   9.802   8.638   2.961  1.0564  1.4554  2.2009
  298MOL0     H39274   9.776   8.797   3.015  3.0968  0.5459 -0.9237
  298MOL0     H39275   9.849   8.702   2.734  0.4091  0.6219 -0.9139
  298MOL0     H39276   9.949   8.811   2.834  0.4709 -1.6403 -1.1068
  298MOL0     H39277   9.723   8.962   2.813 -1.2706  1.7590 -1.4662
  298MOL0     H39278   9.709   8.879   2.660  0.2248  0.5258  0.6573
  298MOL0     H39279   9.964   9.030   2.746  0.5434 -1.6576 -0.4431
  298MOL0     H39280   9.944   8.940   2.602 -2.2080 -0.0522 -0.5591
  298MOL0     H39281   9.777   9.188   2.652 -0.2609  0.0240  0.9571
  298MOL0     H39282   9.775   9.088   2.504 -3.2402 -0.5787  2.4118
  298MOL0     H39283  10.052   9.166   2.518 -0.2397 -0.1657 -2.8516
  298MOL0     H39284   9.986   9.252   2.658 -2.1023 -0.2128  1.5107
  298MOL0     H39285   9.869   9.407   2.521  0.7454 -0.5460  1.7811
  298MOL0     H39286  10.033   9.399   2.470  0.6652  0.2458 -0.4472
  298MOL0     H39287   9.791   9.258   2.335 -0.2441  0.1264 -0.9855
  298MOL0     H39288   9.970   9.238   2.298  1.7880  1.5560  0.9014
  298MOL0     H39289  10.051   9.545   2.284 -0.7464 -1.6767  1.5876
  298MOL0     H39290   9.994   9.731   1.957 -0.3985 -0.3098  0.2742
  298MOL0     H39291  10.107   9.714   2.098 -0.5197  0.4277  1.8619
  298MOL0     H39292   9.827   9.828   2.093  0.2496  1.7497 -2.1738
  298MOL0     H39293   9.972   9.925   2.067 -0.3393 -0.4485 -0.1706
  298MOL0     H39294   9.875   9.934   2.320 -0.3288 -0.2857  0.2724
  298MOL0     H39295   9.910   9.756   2.319  3.3193 -1.0535 -3.1156
  298MOL0     H39296  10.119   9.955   2.256  0.5187 -0.2718  0.7172
  298MOL0     H39297  10.136   9.790   2.318  1.3989  0.3560  0.7835
  298MOL0     H39298  10.333   9.861   2.396 -2.4109  1.7631 -0.7287
  298MOL0     H39299  10.538   9.923   2.514  1.8737  1.9448  0.6527
  298MOL0     H39300  10.710  10.225   2.887  1.5619  1.8747  1.0318
  298MOL0     H39301  10.941  10.313   2.951 -0.1398  1.8827 -2.2910
  298MOL0     H39302  11.241  10.232   2.649 -2.6586  0.7269 -1.4789
  298MOL0     H39303  11.356  10.201   2.778 -0.1385  0.5813 -0.8813
  298MOL0     H39304  11.224  10.477   2.752  0.3904  2.8689 -2.8996
  298MOL0     H39305  11.341  10.427   2.626  1.5675  0.6129  0.8186
  298MOL0     H39306  11.473  10.549   2.764 -0.0183 -0.9620 -1.3572
  298MOL0     H39307  11.516  10.382   2.763 -0.7086  1.0743 -1.8983
  298MOL0     H39308  11.321  10.490   2.977 -0.1464 -1.5708  2.5004
  298MOL0     H39309  11.405  10.339   2.986  2.0549  1.1619  1.0068
  298MOL0     H39310  11.549  10.616   2.984  1.5489 -1.1518  0.0754
  298MOL0     H39311  11.628  10.472   2.990 -0.9383  0.1864 -2.3277
  298MOL0     H39312  11.612  10.552   3.224 -1.5737  0.2715  2.6114
  298MOL0     H39313  11.500  10.415   3.207 -1.7473  0.8958  1.0528
  298MOL0     H39314  11.316  10.569   3.206  0.1414 -2.1931 -1.7959
  298MOL0     H39315  11.408  10.605   3.348  1.4654  0.8614  0.5915
  298MOL0     H39316  11.370  10.829   3.254  1.9577  2.8483 -1.1870
  298MOL0     H39317  11.394  10.763   3.093  0.4982 -0.5187  0.7142
  298MOL0     H39318  11.132  10.033   2.685 -1.6150  0.7683 -2.2578
  298MOL0     H39319  10.904   9.930   2.645 -2.9011 -0.2368  1.2961
  298MOL0     H39320  10.299  10.132   2.817  2.8310  0.9270  0.3846
  298MOL0     H39321  10.093  10.058   2.685 -0.5833  1.6875 -2.6454
  298MOL0     H39322   9.400   8.580   2.839 -0.1528  0.6130  1.1576
  298MOL0     H39323   9.252   8.463   3.003 -0.7713 -0.2561  0.2010
  298MOL0     H39324   9.090   8.379   3.399 -2.1425 -0.2886 -0.2662
  298MOL0     H39325   8.963   8.330   3.596  0.9325  2.2791 -0.8753
  298MOL0     H39326   9.148   8.164   3.971 -0.3022  2.1036  0.1229
  298MOL0     H39327   9.132   8.030   3.857  2.5228  1.7071  0.4361
  298MOL0     H39328   8.904   8.006   3.910 -1.0609  0.4814 -0.6315
  298MOL0     H39329   8.986   7.990   4.067 -0.3487 -0.0906  0.1979
  298MOL0     H39330   8.849   8.250   3.972 -1.2810  0.0853  0.2052
  298MOL0     H39331   8.965   8.221   4.112  1.7978  1.4448 -2.5409
  298MOL0     H39332   8.687   8.088   4.060 -0.2469  2.0831  0.0438
  298MOL0     H39333   8.789   8.063   4.206 -0.6377  0.6005  0.7318
  298MOL0     H39334   8.584   8.428   4.268  0.8623  1.9682 -0.8628
  298MOL0     H39335   9.299   8.138   3.767  0.1817  2.6510  0.9709
  298MOL0     H39336   9.435   8.211   3.598  0.0088 -2.9638  0.0488
  299MOL0     O39337   9.958   5.279   7.595  0.2780 -0.2134  0.3675
  299MOL0     C39338   9.868   5.312   7.515 -0.8606 -0.3460 -0.0434
  299MOL0     O39339   9.893   5.348   7.386 -0.6276 -0.7092 -0.7115
  299MOL0     C39340  10.012   5.398   7.341 -0.3290  0.1167 -0.4063
  299MOL0     C39341  10.003   5.527   7.292  0.0559 -0.4251  0.2070
  299MOL0     C39342  10.116   5.585   7.252 -0.1008 -0.5203 -0.1695
  299MOL0     C39343  10.238   5.515   7.253 -0.6245  0.2026  0.7097
  299MOL0     O39344  10.339   5.575   7.186  0.2142  0.0202 -0.0402
  299MOL0     C39345  10.466   5.508   7.192 -0.1951  0.4661 -0.5177
  299MOL0     C39346  10.552   5.597   7.103  0.0737  0.7074  0.0276
  299MOL0     C39347  10.696   5.544   7.094 -0.4641  0.1940  0.3873
  299MOL0     C39348  10.788   5.644   7.012  0.0705  0.1778  0.6331
  299MOL0     C39349  10.796   5.793   7.044 -0.5049  0.6839 -0.2302
  299MOL0     C39350  10.857   5.833   7.188 -0.4529  0.5747 -0.4819
  299MOL0     C39351  11.009   5.783   7.204 -0.6062  1.4483 -0.4278
  299MOL0     C39352  11.090   5.884   7.138 -0.4669 -0.2976 -0.9526
  299MOL0     N39353  11.235   5.856   7.134  0.2134  0.7460  0.8327
  299MOL0     C39354  11.309   5.893   7.023 -0.8947 -0.2281  0.9486
  299MOL0     C39355  11.434   5.853   7.055  1.2311 -0.0686  0.6550
  299MOL0     C39356  11.554   5.875   6.970  0.5363 -0.4840 -0.4936
  299MOL0     C39357  11.623   5.750   6.933 -0.0286 -0.1745 -0.6671
  299MOL0     C39358  11.597   5.716   6.783 -0.5836 -0.5727  0.2434
  299MOL0     C39359  11.460   5.673   6.744 -0.2672  0.4281 -0.3680
  299MOL0     O39360  11.385   5.791   6.719 -0.1435 -0.1413 -0.6646
  299MOL0     C39361  11.252   5.787   6.686  0.2906  0.4028  0.3410
  299MOL0     C39362  11.175   5.670   6.673 -0.3690  0.0796  0.2835
  299MOL0     C39363  11.054   5.679   6.618  0.6622  0.5087  0.7863
  299MOL0     C39364  10.997   5.802   6.577 -0.1121 -0.1885  0.6636
  299MOL0     C39365  10.865   5.810   6.503  0.0578  0.5900  0.9291
  299MOL0     O39366  10.834   5.910   6.416  0.5257  0.0382  0.2486
  299MOL0     C39367  10.722   5.904   6.326  0.4832  0.4044 -0.4804
  299MOL0     C39368  10.726   6.002   6.228 -0.0387  0.3403 -0.3775
  299MOL0     C39369  10.614   6.020   6.133 -0.2639  0.0852 -0.3816
  299MOL0     C39370  10.498   5.951   6.147  0.0695 -0.1296  0.1581
  299MOL0     O39371  10.393   5.964   6.061 -0.9838 -0.6262  0.0202
  299MOL0     C39372  10.368   6.082   5.981 -0.2656 -0.0502 -0.3008
  299MOL0     C39373  10.212   6.077   5.959 -0.2818 -0.2430  0.2881
  299MOL0     C39374  10.117   6.128   6.062  0.9305  0.1834 -0.0212
  299MOL0     C39375  10.137   6.275   6.090 -0.6147  0.6624 -0.1699
  299MOL0     C39376  10.013   6.332   6.164 -0.0022  0.3777  0.9249
  299MOL0     C39377  10.022   6.486   6.187  0.4376 -1.4513  0.7501
  299MOL0     C39378  10.152   6.523   6.250 -0.7949 -0.6299 -0.2563
  299MOL0     C39379  10.166   6.672   6.299 -0.2498  0.4971  0.8573
  299MOL0    Cl39380  10.172   6.783   6.153 -0.5569 -0.4841 -0.0121
  299MOL0     C39381  10.494   5.852   6.251 -0.0945  0.0144  0.0472
  299MOL0     C39382  10.602   5.828   6.334  0.3960  0.6728 -1.0729
  299MOL0     O39383  10.786   5.716   6.529 -0.1453 -0.1745  0.5391
  299MOL0     C39384  11.078   5.924   6.590  0.3187  0.2267 -0.3704
  299MOL0     C39385  11.205   5.909   6.645 -0.3588  0.1308 -0.0129
  299MOL0     N39386  11.426   5.785   7.178 -0.4200  0.0191 -0.4711
  299MOL0     N39387  11.304   5.789   7.224 -1.1564  0.4040 -0.1427
  299MOL0     C39388  10.245   5.386   7.294 -0.1004 -0.1358  0.3501
  299MOL0     C39389  10.133   5.324   7.347  0.2207  0.0921 -0.3964
  299MOL0     C39390   9.731   5.287   7.556  0.2347  0.1084 -0.6024
  299MOL0     C39391   9.695   5.261   7.684  0.2786  0.3769  0.6647
  299MOL0     C39392   9.557   5.235   7.715 -0.8164  1.1359 -0.5581
  299MOL0     C39393   9.453   5.242   7.625 -0.2555  0.3596 -0.7126
  299MOL0     O39394   9.318   5.235   7.656 -0.3865 -0.0741  0.1935
  299MOL0     C39395   9.276   5.192   7.786  0.4462  0.4600  0.3122
  299MOL0     C39396   9.122   5.178   7.776  0.3708  0.1854  0.2498
  299MOL0     C39397   9.095   5.066   7.670  0.1115  0.2155  0.3183
  299MOL0     C39398   9.024   4.947   7.731 -0.2403  0.3290 -0.3666
  299MOL0     C39399   8.936   4.872   7.635  0.1849 -0.3422 -0.8432
  299MOL0     C39400   8.840   4.807   7.592 -0.3691  0.6080 -0.2698
  299MOL0     C39401   9.493   5.254   7.492 -0.0135 -0.1052 -0.1936
  299MOL0     C39402   9.627   5.283   7.464 -0.2827 -0.0673 -0.0204
  299MOL0     H39403   9.912   5.582   7.270  2.0116  2.5501 -1.0414
  299MOL0     H39404  10.127   5.681   7.204 -0.5800 -1.6710 -2.8190
  299MOL0     H39405  10.460   5.409   7.145 -2.5560  0.3065 -0.0123
  299MOL0     H39406  10.506   5.499   7.293  1.9248 -1.1757 -1.4393
  299MOL0     H39407  10.541   5.695   7.151 -2.3677  0.8722 -0.6980
  299MOL0     H39408  10.514   5.629   7.005  0.1774  0.2039 -0.1805
  299MOL0     H39409  10.698   5.444   7.050  0.8573 -0.4286  1.7726
  299MOL0     H39410  10.743   5.547   7.193  1.3920  0.6180 -0.4710
  299MOL0     H39411  10.883   5.591   7.001 -0.2661 -0.2210 -0.5891
  299MOL0     H39412  10.747   5.642   6.911 -1.9799 -1.0847  1.4118
  299MOL0     H39413  10.695   5.833   7.059 -0.0285  2.3958 -1.2217
  299MOL0     H39414  10.851   5.848   6.967  1.6968  1.2543  1.6362
  299MOL0     H39415  10.800   5.779   7.263 -1.5928 -2.8230 -3.4838
  299MOL0     H39416  10.850   5.941   7.204 -2.5225  0.0921  2.8216
  299MOL0     H39417  11.021   5.785   7.312  2.8700  0.4876 -0.6783
  299MOL0     H39418  11.031   5.680   7.176  0.8835  0.1957  4.5210
  299MOL0     H39419  11.082   5.980   7.189  0.7233 -1.4009  1.4690
  299MOL0     H39420  11.066   5.902   7.033  3.4589 -2.4311 -2.4370
  299MOL0     H39421  11.279   5.950   6.935  1.3039  0.2626  0.4426
  299MOL0     H39422  11.620   5.935   7.034  0.2777 -0.9049  0.1779
  299MOL0     H39423  11.535   5.930   6.878  0.0969  1.0934  0.4924
  299MOL0     H39424  11.598   5.669   7.002 -1.3411 -1.4590 -2.5522
  299MOL0     H39425  11.731   5.763   6.923  0.1095 -2.1779 -2.7225
  299MOL0     H39426  11.636   5.793   6.716  2.0157 -2.5947 -0.7650
  299MOL0     H39427  11.669   5.637   6.760  3.1458  3.2799 -2.9317
  299MOL0     H39428  11.407   5.619   6.823 -0.9371 -0.3702 -1.3320
  299MOL0     H39429  11.462   5.625   6.645 -2.7093 -0.6129  0.0175
  299MOL0     H39430  11.226   5.575   6.688 -0.0164  0.4569  1.5552
  299MOL0     H39431  11.006   5.582   6.614  2.1767 -0.3021 -3.5094
  299MOL0     H39432  10.812   6.067   6.238 -1.4037  1.9276  2.3373
  299MOL0     H39433  10.629   6.093   6.054  2.4721  2.6722  2.2659
  299MOL0     H39434  10.415   6.069   5.883 -0.7119 -2.3554 -0.2633
  299MOL0     H39435  10.386   6.175   6.035 -0.0477 -0.8420  1.0574
  299MOL0     H39436  10.185   5.978   5.920  3.4983 -1.3506  0.1574
  299MOL0     H39437  10.200   6.157   5.886  2.9619  0.7815  0.7596
  299MOL0     H39438  10.121   6.065   6.151  3.6941  2.2206  1.4350
  299MOL0     H39439  10.021   6.127   6.009  2.1483 -2.1962 -2.4179
  299MOL0     H39440  10.230   6.287   6.146  0.6937 -2.5817 -1.3891
  299MOL0     H39441  10.152   6.320   5.992 -0.8479 -0.6996 -0.8577
  299MOL0     H39442   9.995   6.286   6.262 -2.5875  1.3914  0.9932
  299MOL0     H39443   9.919   6.316   6.112 -0.2505 -5.4461  2.4878
  299MOL0     H39444   9.939   6.505   6.256 -1.3784  1.5314 -1.9549
  299MOL0     H39445  10.008   6.547   6.097  2.9340 -2.0977 -0.1496
  299MOL0     H39446  10.167   6.452   6.332 -0.2242  0.7137  0.8533
  299MOL0     H39447  10.234   6.509   6.179  2.6833 -2.6597  3.6560
  299MOL0     H39448  10.255   6.696   6.358  0.3968  5.1855 -1.5135
  299MOL0     H39449  10.086   6.698   6.369  0.1174 -2.8374  2.7342
  299MOL0     H39450  10.407   5.788   6.239  0.2286  0.0195 -3.0644
  299MOL0     H39451  10.583   5.753   6.410  1.9580  1.2416 -0.0539
  299MOL0     H39452  11.043   6.022   6.560 -0.8559  0.4060  1.4745
  299MOL0     H39453  11.272   5.995   6.648 -1.6787  1.3408 -2.3510
  299MOL0     H39454  10.336   5.326   7.289  0.2133  0.4715 -2.4490
  299MOL0     H39455  10.117   5.221   7.378 -0.6643  0.4843  0.5069
  299MOL0     H39456   9.778   5.268   7.753  0.4966  1.4423  0.3115
  299MOL0     H39457   9.544   5.206   7.819  0.0506 -2.2052 -1.2827
  299MOL0     H39458   9.290   5.263   7.869 -1.9417  0.5356  0.7321
  299MOL0     H39459   9.316   5.092   7.806 -2.4001 -0.8852 -0.2408
  299MOL0     H39460   9.092   5.143   7.875  1.2213  1.5992  1.0468
  299MOL0     H39461   9.072   5.275   7.766  0.2736  0.1084 -0.0215
  299MOL0     H39462   9.188   5.027   7.628 -1.1427 -1.8555 -0.6983
  299MOL0     H39463   9.031   5.112   7.594  3.1082  0.6739 -2.0879
  299MOL0     H39464   9.087   4.869   7.774 -2.2854 -0.4717  1.3664
  299MOL0     H39465   8.959   4.984   7.812  1.1516 -0.1443  1.0185
  299MOL0     H39466   8.775   4.724   7.572  2.7881 -1.7334 -1.6196
  299MOL0     H39467   9.439   5.274   7.400  0.1962 -0.2529 -0.3495
  299MOL0     H39468   9.652   5.305   7.360 -2.0461 -0.9871 -0.6788
  300MOL0     O39469   2.096   8.419  11.012 -0.1530 -0.4817 -0.6800
  300MOL0     C39470   2.098   8.303  11.056  0.1370 -0.4373 -0.2655
  300MOL0     O39471   2.018   8.195  11.014  0.4701 -0.2237 -0.4191
  300MOL0     C39472   1.927   8.216  10.916  0.4497  0.0121  0.7565
  300MOL0     C39473   1.952   8.259  10.788 -0.7629 -0.3981 -0.4597
  300MOL0     C39474   1.844   8.295  10.706  0.6277  0.3482  0.1147
  300MOL0     C39475   1.708   8.280  10.744 -0.4825 -0.8200  0.4424
  300MOL0     O39476   1.612   8.305  10.645  0.0977  0.1204  0.1778
  300MOL0     C39477   1.492   8.334  10.697  0.1860  0.1607 -0.0958
  300MOL0     C39478   1.406   8.404  10.598 -1.8213 -0.1829  0.0440
  300MOL0     C39479   1.260   8.377  10.616  0.2579  0.6629 -0.9531
  300MOL0     C39480   1.172   8.469  10.538 -0.1334  0.4357  0.2076
  300MOL0     C39481   1.027   8.453  10.555  0.4766  0.1318 -0.5404
  300MOL0     C39482   0.982   8.305  10.555  0.5109 -0.1238 -0.4759
  300MOL0     C39483   0.830   8.288  10.573 -0.4347 -1.2763 -0.6556
  300MOL0     C39484   0.763   8.322  10.441  0.4457  0.0873 -1.3021
  300MOL0     N39485   0.624   8.312  10.478  0.8838 -0.5650  0.4723
  300MOL0     C39486   0.557   8.193  10.488 -0.9858 -0.2329 -0.5256
  300MOL0     C39487   0.432   8.225  10.505 -0.6362 -0.1105 -0.6073
  300MOL0     C39488   0.319   8.146  10.540 -0.0900  0.4044 -0.8603
  300MOL0     C39489   0.350   8.066  10.667 -0.1027  0.6015  0.7192
  300MOL0     C39490   0.239   7.961  10.684 -0.2866 -1.0944 -0.1968
  300MOL0     C39491   0.265   7.878  10.802 -1.3986  0.2712  0.0629
  300MOL0     O39492   0.169   7.770  10.819 -0.1161 -0.8539 -0.5589
  300MOL0     C39493   0.046   7.777  10.870  0.5460 -0.4099  0.3441
  300MOL0     C39494  -0.035   7.661  10.855 -0.1894  0.6767 -0.4531
  300MOL0     C39495  -0.170   7.653  10.898 -1.1425 -0.5945 -0.2795
  300MOL0     C39496  -0.216   7.767  10.966 -0.2813  0.2369  0.2490
  300MOL0     C39497  -0.354   7.769  11.034  0.6137  0.3768 -0.3668
  300MOL0     O39498  -0.437   7.667  10.994  0.2087  0.4024 -0.2476
  300MOL0     C39499  -0.577   7.676  11.004 -0.5022  0.1629 -0.7287
  300MOL0     C39500  -0.637   7.805  10.975  0.2289 -0.3473  0.7909
  300MOL0     C39501  -0.775   7.802  10.995  0.4351  0.1689  1.1537
  300MOL0     C39502  -0.852   7.685  11.006 -0.2565  0.3147 -0.7574
  300MOL0     O39503  -0.984   7.677  10.973  1.1948  0.7617 -0.5264
  300MOL0     C39504  -1.044   7.786  10.897 -1.0026  0.5070  0.3592
  300MOL0     C39505  -1.195   7.774  10.896 -0.0056 -0.2811  0.1499
  300MOL0     C39506  -1.263   7.640  10.858 -0.2598 -0.1322 -0.4045
  300MOL0     C39507  -1.372   7.587  10.960 -0.5351 -0.0473 -0.2198
  300MOL0     C39508  -1.316   7.504  11.073  0.0130 -0.1795 -0.2235
  300MOL0     C39509  -1.417   7.430  11.159  0.2063  0.1189 -1.1499
  300MOL0     C39510  -1.329   7.333  11.259 -0.4732 -0.3481  0.6442
  300MOL0     C39511  -1.406   7.284  11.387  0.1415 -0.4966  0.1653
  300MOL0    Cl39512  -1.568   7.212  11.338  0.0390 -0.3642 -0.2390
  300MOL0     C39513  -0.789   7.564  11.042  0.9212 -0.1428  0.2901
  300MOL0     C39514  -0.654   7.558  11.036 -0.9307 -0.1921 -0.2282
  300MOL0     O39515  -0.383   7.859  11.116  0.5161 -0.0645  0.0644
  300MOL0     C39516  -0.142   7.892  10.965  0.1189  0.0318  0.8426
  300MOL0     C39517  -0.012   7.891  10.915  1.4152 -0.5308 -0.1086
  300MOL0     N39518   0.420   8.369  10.500  0.7664  0.2085  0.4308
  300MOL0     N39519   0.532   8.413  10.485 -0.2723 -0.0892 -0.3107
  300MOL0     C39520   1.690   8.242  10.876  0.2153 -1.5104  0.3598
  300MOL0     C39521   1.800   8.215  10.969  0.3723  0.5268  0.7943
  300MOL0     C39522   2.188   8.265  11.167 -0.4284  0.7139 -0.3051
  300MOL0     C39523   2.168   8.139  11.230 -0.1352 -0.2140 -0.7551
  300MOL0     C39524   2.261   8.101  11.333  0.6991  0.3018  0.1103
  300MOL0     C39525   2.373   8.185  11.368  0.2999 -0.0307 -1.1098
  300MOL0     O39526   2.473   8.150  11.460 -0.5991  0.3449  0.5447
  300MOL0     C39527   2.500   8.007  11.485  0.6769 -0.2289  1.0146
  300MOL0     C39528   2.635   7.978  11.537 -0.7828 -0.0175 -0.9048
  300MOL0     C39529   2.642   7.992  11.683  1.0473 -0.0702  0.4655
  300MOL0     C39530   2.577   7.865  11.749  0.3305 -0.4487  0.5310
  300MOL0     C39531   2.620   7.871  11.888  0.1594 -0.3992  0.1312
  300MOL0     C39532   2.661   7.885  12.007 -0.1201 -0.3107  0.2188
  300MOL0     C39533   2.387   8.307  11.307  0.5718 -0.0692 -0.3103
  300MOL0     C39534   2.298   8.346  11.200  0.4441 -0.1474  0.6503
  300MOL0     H39535   2.054   8.263  10.753 -1.8761  1.3044 -3.9895
  300MOL0     H39536   1.867   8.317  10.603  0.6622 -1.9785 -0.4267
  300MOL0     H39537   1.496   8.408  10.777 -1.6065  0.9980 -0.7387
  300MOL0     H39538   1.445   8.238  10.720 -0.6894  1.2592  3.3586
  300MOL0     H39539   1.434   8.371  10.498 -1.0881 -0.1824  0.2448
  300MOL0     H39540   1.427   8.511  10.605  3.5644 -0.8641 -1.4119
  300MOL0     H39541   1.244   8.404  10.721 -1.0520 -2.4064 -0.2596
  300MOL0     H39542   1.244   8.270  10.599 -2.7265  0.9271 -0.2570
  300MOL0     H39543   1.187   8.573  10.568  1.3052 -0.1380  1.6038
  300MOL0     H39544   1.205   8.440  10.438  1.1936 -0.8513  0.9871
  300MOL0     H39545   0.972   8.514  10.482 -1.6033  0.3646  1.1148
  300MOL0     H39546   0.993   8.497  10.649  2.5534 -0.1735  0.4026
  300MOL0     H39547   1.033   8.262  10.642  1.8390  0.9253 -0.7078
  300MOL0     H39548   1.019   8.250  10.468  2.6591 -1.6811  1.3154
  300MOL0     H39549   0.791   8.192  10.609 -4.3426  1.6274  4.1275
  300MOL0     H39550   0.817   8.361  10.653  1.2527 -0.8580 -0.7161
  300MOL0     H39551   0.786   8.248  10.364  1.7154 -0.0284 -0.8272
  300MOL0     H39552   0.791   8.426  10.425 -0.3854  0.7643  1.1567
  300MOL0     H39553   0.589   8.089  10.487  0.4591  0.1866 -0.1531
  300MOL0     H39554   0.290   8.099  10.446 -0.7481  3.2198 -2.2049
  300MOL0     H39555   0.233   8.213  10.548 -1.2316 -0.5915 -3.7278
  300MOL0     H39556   0.345   8.140  10.748  2.0688  2.5912 -0.8650
  300MOL0     H39557   0.447   8.017  10.656 -0.7682 -0.2099 -2.2412
  300MOL0     H39558   0.135   7.993  10.672 -0.0498  0.4122  1.3514
  300MOL0     H39559   0.252   7.889  10.602  1.0075 -3.3940  1.8802
  300MOL0     H39560   0.268   7.946  10.888  0.0060  2.6425 -1.7305
  300MOL0     H39561   0.368   7.848  10.785 -2.3038 -3.0952 -0.2826
  300MOL0     H39562   0.008   7.570  10.813 -1.4852 -1.4228  2.4667
  300MOL0     H39563  -0.225   7.560  10.889  1.8670 -2.2913 -4.9641
  300MOL0     H39564  -0.571   7.885  10.943  1.3445 -1.9425 -1.1406
  300MOL0     H39565  -0.825   7.896  10.976  1.0211  0.5183  1.3154
  300MOL0     H39566  -0.992   7.781  10.801 -1.1979  0.1097  0.2737
  300MOL0     H39567  -1.026   7.883  10.946  1.0350  0.4232 -0.1408
  300MOL0     H39568  -1.236   7.851  10.830 -3.4402 -1.5629  0.6044
  300MOL0     H39569  -1.227   7.812  10.993 -0.9370  2.3208 -1.0746
  300MOL0     H39570  -1.189   7.562  10.842  0.0865  0.0256  0.3849
  300MOL0     H39571  -1.308   7.666  10.762 -1.3924  3.5367  0.9719
  300MOL0     H39572  -1.408   7.679  11.006 -0.0923  0.5129 -0.9596
  300MOL0     H39573  -1.462   7.538  10.923  0.0347 -1.3136  0.0218
  300MOL0     H39574  -1.243   7.556  11.135 -0.2404 -1.6681  1.3965
  300MOL0     H39575  -1.247   7.427  11.038  1.5186  0.4905  1.1355
  300MOL0     H39576  -1.485   7.368  11.099  0.8817 -0.9120 -0.8846
  300MOL0     H39577  -1.482   7.496  11.217  2.3414  0.1208  1.4160
  300MOL0     H39578  -1.298   7.247  11.199  3.2819  0.1927  1.5562
  300MOL0     H39579  -1.246   7.386  11.306 -3.3188  2.8747  2.5047
  300MOL0     H39580  -1.440   7.371  11.444  0.0259  0.9411 -1.9841
  300MOL0     H39581  -1.340   7.216  11.441  0.8103 -1.9434 -2.3504
  300MOL0     H39582  -0.839   7.477  11.083  0.8654 -0.3387 -0.1916
  300MOL0     H39583  -0.597   7.467  11.054  2.0410  1.3943 -0.9165
  300MOL0     H39584  -0.188   7.985  11.000 -0.4910 -0.4155  1.2662
  300MOL0     H39585   0.042   7.983  10.933  3.0481 -1.0829 -1.8841
  300MOL0     H39586   1.589   8.227  10.911  0.2087 -0.9994  0.5653
  300MOL0     H39587   1.762   8.176  11.063 -1.3261 -0.9477 -0.4419
  300MOL0     H39588   2.090   8.067  11.209  1.4700 -1.3719 -3.0695
  300MOL0     H39589   2.254   8.011  11.393 -1.6280 -0.3655 -1.0465
  300MOL0     H39590   2.493   7.943  11.396 -0.0771 -1.7744  2.1289
  300MOL0     H39591   2.421   7.973  11.553 -1.1534  1.6891 -0.0450
  300MOL0     H39592   2.666   7.882  11.496 -3.7278 -0.6671 -1.8246
  300MOL0     H39593   2.717   8.038  11.496  1.4800 -1.0529  1.7858
  300MOL0     H39594   2.598   8.085  11.720 -0.4212  1.0815 -3.5782
  300MOL0     H39595   2.746   7.997  11.715  0.7251 -0.1564  1.5388
  300MOL0     H39596   2.468   7.872  11.747  0.4274  2.6876 -1.5973
  300MOL0     H39597   2.606   7.767  11.710 -1.1725 -0.5361 -0.4379
  300MOL0     H39598   2.712   7.907  12.098  0.7992 -1.6732  0.0560
  300MOL0     H39599   2.458   8.384  11.335 -0.1609  0.8993 -1.0459
  300MOL0     H39600   2.303   8.447  11.162 -2.3025  1.1748  3.4132
  301MOL0     O39601   6.687  10.201   4.078  0.8237 -0.3087  0.4496
  301MOL0     C39602   6.673  10.133   4.170 -0.3350 -0.1120 -0.6678
  301MOL0     O39603   6.561  10.075   4.208 -0.0797 -0.1803  0.0704
  301MOL0     C39604   6.448  10.107   4.133 -0.1503  0.5473 -1.4326
  301MOL0     C39605   6.367  10.215   4.178  1.0733 -0.5417  0.0193
  301MOL0     C39606   6.244  10.230   4.115 -0.0712 -0.3623  0.5605
  301MOL0     C39607   6.212  10.167   3.998  1.5832  0.2702  0.1882
  301MOL0     O39608   6.098  10.215   3.945 -0.1792  0.6207  0.5836
  301MOL0     C39609   6.090  10.194   3.802  0.6661  0.2282  0.1961
  301MOL0     C39610   5.965  10.282   3.753  0.3797  0.2659 -0.3479
  301MOL0     C39611   5.834  10.247   3.830  0.2945  0.1030 -0.4165
  301MOL0     C39612   5.808  10.093   3.838 -0.1533  0.1815  0.2109
  301MOL0     C39613   5.667  10.054   3.885 -0.4135  0.8595 -0.0506
  301MOL0     C39614   5.614  10.133   4.017  0.3751  0.7664 -0.7997
  301MOL0     C39615   5.533  10.264   3.995  0.2529  0.9780 -1.1835
  301MOL0     C39616   5.416  10.264   3.898  0.2081 -0.0021  0.2004
  301MOL0     N39617   5.306  10.185   3.953 -0.1048  0.4075 -0.1292
  301MOL0     C39618   5.216  10.225   4.055 -0.6494  0.4895 -0.2384
  301MOL0     C39619   5.149  10.108   4.078  0.8160 -0.0296  0.2301
  301MOL0     C39620   5.019  10.076   4.164  0.7450  0.2198 -0.2371
  301MOL0     C39621   4.890  10.154   4.118  0.5382 -1.2781 -0.1009
  301MOL0     C39622   4.761  10.089   4.170 -1.6440  0.1422  0.4656
  301MOL0     C39623   4.645  10.181   4.140 -0.2743  0.2225 -0.3673
  301MOL0     O39624   4.530  10.099   4.104  0.7449 -0.5062  0.5374
  301MOL0     C39625   4.428  10.124   4.190 -0.1282  0.1730 -1.0612
  301MOL0     C39626   4.316  10.211   4.146 -0.6231  0.0044 -0.1963
  301MOL0     C39627   4.207  10.226   4.229  0.2282 -0.5017 -0.8814
  301MOL0     C39628   4.210  10.163   4.360 -0.0199 -0.5501 -0.2677
  301MOL0     C39629   4.100  10.159   4.452  0.1045  0.9230 -0.5356
  301MOL0     O39630   4.102  10.069   4.559 -0.2061 -0.9396  0.3202
  301MOL0     C39631   3.981  10.042   4.616 -0.5074  0.6469 -0.3289
  301MOL0     C39632   3.873   9.997   4.541  0.1587  0.3779  0.1930
  301MOL0     C39633   3.748   9.954   4.600  1.0634  0.9883  0.8350
  301MOL0     C39634   3.743   9.935   4.737  0.9338  0.7289  0.4749
  301MOL0     O39635   3.622   9.875   4.779  0.4873  0.3564 -0.2034
  301MOL0     C39636   3.627   9.818   4.908 -0.3726 -0.4444 -0.4299
  301MOL0     C39637   3.480   9.790   4.939 -0.5188 -0.5804  0.5703
  301MOL0     C39638   3.415   9.686   4.855  0.2212  0.0431 -0.0326
  301MOL0     C39639   3.276   9.664   4.899  0.3582 -0.8603  0.3613
  301MOL0     C39640   3.260   9.579   5.028 -0.8051  0.0958 -0.4102
  301MOL0     C39641   3.113   9.573   5.079  0.7046 -0.0125 -0.4073
  301MOL0     C39642   3.082   9.699   5.162  0.3519  0.2086  0.2618
  301MOL0     C39643   3.000   9.655   5.280 -0.1645 -0.1319 -0.1343
  301MOL0    Cl39644   2.830   9.599   5.249  0.0548  0.3078 -0.4152
  301MOL0     C39645   3.859   9.965   4.816 -1.1928 -0.0606 -0.1719
  301MOL0     C39646   3.967  10.031   4.757 -0.4780  0.6599 -0.3739
  301MOL0     O39647   4.010  10.229   4.421 -0.1140  0.1620 -0.0322
  301MOL0     C39648   4.324  10.104   4.401 -0.1768 -0.4195 -0.2349
  301MOL0     C39649   4.440  10.087   4.320  0.5299  0.1912 -1.9831
  301MOL0     N39650   5.183  10.010   3.986  0.3083 -0.3426 -0.1257
  301MOL0     N39651   5.278  10.055   3.916  0.2088  0.3145  0.6230
  301MOL0     C39652   6.292  10.056   3.956 -0.6275 -0.0966  0.3940
  301MOL0     C39653   6.409  10.031   4.017  0.2003  0.6347  0.1312
  301MOL0     C39654   6.789  10.112   4.267 -0.4026 -0.0601  0.2778
  301MOL0     C39655   6.889  10.210   4.264  0.4270 -0.3348 -0.0584
  301MOL0     C39656   7.006  10.190   4.337 -0.0428 -0.1510  0.2321
  301MOL0     C39657   7.023  10.082   4.420  0.4023 -0.0893  0.5011
  301MOL0     O39658   7.144  10.060   4.483 -0.1297 -0.4569  0.1639
  301MOL0     C39659   7.179   9.924   4.508  0.5840 -0.9312  0.5213
  301MOL0     C39660   7.337   9.902   4.486  0.0590  0.1872 -0.6763
  301MOL0     C39661   7.375   9.760   4.459 -0.9388 -0.0500  0.6621
  301MOL0     C39662   7.532   9.761   4.437 -0.4787  0.1213 -0.6049
  301MOL0     C39663   7.583   9.629   4.395  0.0329 -0.0353 -0.2047
  301MOL0     C39664   7.633   9.525   4.366  0.3684  0.2912  0.2332
  301MOL0     C39665   6.908  10.002   4.453 -0.7635 -0.0372 -0.1044
  301MOL0     C39666   6.794  10.013   4.369  0.5414 -0.3924 -0.4002
  301MOL0     H39667   6.401  10.282   4.256 -0.5547  1.2452 -0.7166
  301MOL0     H39668   6.177  10.302   4.161 -0.5194  0.5913 -1.4663
  301MOL0     H39669   6.073  10.087   3.782 -2.4386 -0.0595  3.3689
  301MOL0     H39670   6.173  10.224   3.738 -0.9225  0.0274 -2.0778
  301MOL0     H39671   5.948  10.255   3.648  0.5918 -1.8389  0.1080
  301MOL0     H39672   5.986  10.387   3.772  3.1102 -0.0724 -1.0599
  301MOL0     H39673   5.739  10.289   3.796 -0.0299  0.0647  0.4137
  301MOL0     H39674   5.841  10.296   3.928  2.6918  2.1936 -1.5120
  301MOL0     H39675   5.820  10.054   3.736  1.2256  0.7885  0.1203
  301MOL0     H39676   5.877  10.039   3.903 -1.0643 -1.5711 -0.2165
  301MOL0     H39677   5.662   9.946   3.898 -2.2798  1.1718  2.4912
  301MOL0     H39678   5.602  10.079   3.800 -0.3774 -2.2196 -1.1130
  301MOL0     H39679   5.700  10.153   4.082 -1.4980 -0.9431  2.4672
  301MOL0     H39680   5.553  10.064   4.075  4.5642 -1.4380  1.4650
  301MOL0     H39681   5.492  10.293   4.092 -1.5369 -1.2691 -1.1894
  301MOL0     H39682   5.609  10.339   3.973  0.6790  0.5503 -1.1800
  301MOL0     H39683   5.441  10.229   3.797 -1.0058  1.2973 -0.5858
  301MOL0     H39684   5.385  10.365   3.870 -1.5692 -0.2714  1.0517
  301MOL0     H39685   5.210  10.316   4.112 -0.1896 -1.3163  2.9309
  301MOL0     H39686   5.040  10.099   4.269  1.0855 -1.8817  0.2139
  301MOL0     H39687   4.996   9.969   4.157 -2.4350  0.7461  0.6047
  301MOL0     H39688   4.881  10.162   4.009 -2.8906 -2.0929  0.0027
  301MOL0     H39689   4.885  10.254   4.161 -1.2552 -0.6685 -1.5639
  301MOL0     H39690   4.740   9.998   4.113 -2.9417 -0.1956  1.4355
  301MOL0     H39691   4.777  10.077   4.277  4.1201 -2.9096 -0.3270
  301MOL0     H39692   4.667  10.242   4.052  3.3840  0.1497  0.3523
  301MOL0     H39693   4.631  10.247   4.226 -1.3222  1.0397 -1.1353
  301MOL0     H39694   4.325  10.251   4.046  1.0997  1.6694  0.5525
  301MOL0     H39695   4.127  10.280   4.180  1.0087 -0.3010 -1.9914
  301MOL0     H39696   3.891   9.993   4.434 -1.4218 -4.1965 -0.1126
  301MOL0     H39697   3.666   9.925   4.535  0.8049 -0.2599  1.6919
  301MOL0     H39698   3.662   9.890   4.981 -4.0064 -1.1210  2.2950
  301MOL0     H39699   3.677   9.720   4.909  0.1451 -0.1851 -0.8238
  301MOL0     H39700   3.426   9.885   4.927 -1.9692 -0.8223  3.9336
  301MOL0     H39701   3.463   9.789   5.047 -0.2640  2.6977  0.7578
  301MOL0     H39702   3.478   9.598   4.866  0.9632 -0.0078 -3.4846
  301MOL0     H39703   3.418   9.717   4.750 -0.3582 -1.6168 -0.5725
  301MOL0     H39704   3.235   9.761   4.927  0.5111 -0.7650  0.2539
  301MOL0     H39705   3.203   9.627   4.827  1.1334 -3.2573  0.7035
  301MOL0     H39706   3.327   9.616   5.106  0.9462 -3.6638  0.0743
  301MOL0     H39707   3.305   9.480   5.022  0.1077  0.5778 -1.8462
  301MOL0     H39708   3.105   9.484   5.142  3.2754  0.6174  0.9427
  301MOL0     H39709   3.041   9.555   4.998  0.8824 -0.9246 -0.3758
  301MOL0     H39710   3.175   9.743   5.199  1.5367  0.0584 -2.3106
  301MOL0     H39711   3.019   9.769   5.106 -2.0901 -1.0846  1.2577
  301MOL0     H39712   2.998   9.747   5.340 -1.4308  0.5612 -1.1784
  301MOL0     H39713   3.049   9.574   5.335 -2.3936 -2.2299 -1.0662
  301MOL0     H39714   3.859   9.959   4.925 -1.4582 -1.4222 -0.2217
  301MOL0     H39715   4.052  10.067   4.814  0.1898  1.2705 -1.6988
  301MOL0     H39716   4.335  10.059   4.500  1.5428 -0.2737 -0.3324
  301MOL0     H39717   4.526  10.041   4.366 -0.1269  0.3626 -0.5255
  301MOL0     H39718   6.273  10.001   3.864  0.9843  1.5722 -0.9985
  301MOL0     H39719   6.477   9.953   3.984  1.6133  1.4171  1.1024
  301MOL0     H39720   6.882  10.300   4.204 -0.2695 -0.0910  0.3678
  301MOL0     H39721   7.080  10.269   4.321 -0.1162  0.7664  3.6309
  301MOL0     H39722   7.123   9.858   4.441 -1.9706 -0.6564  2.2459
  301MOL0     H39723   7.144   9.892   4.606 -2.7043  1.6561  0.3663
  301MOL0     H39724   7.377   9.961   4.403  0.8024  0.2776 -0.2618
  301MOL0     H39725   7.394   9.938   4.572  0.2839 -0.0943 -0.7094
  301MOL0     H39726   7.323   9.709   4.377 -1.2182 -2.1074  2.0264
  301MOL0     H39727   7.358   9.704   4.552  1.1152 -1.3125  0.3446
  301MOL0     H39728   7.565   9.847   4.377 -0.7376 -0.1264 -1.1085
  301MOL0     H39729   7.571   9.786   4.536  2.6049 -1.0839 -1.4142
  301MOL0     H39730   7.677   9.437   4.325  2.8208  1.2808  0.5762
  301MOL0     H39731   6.915   9.925   4.530  1.8077 -1.8540 -1.9458
  301MOL0     H39732   6.703   9.956   4.383 -1.1618  1.7478 -2.1220
  302MOL0     O39733   2.010   7.337   2.805 -0.2626 -0.1955  0.4154
  302MOL0     C39734   2.096   7.400   2.755 -0.7322 -1.0151  0.6724
  302MOL0     O39735   2.136   7.393   2.630  0.8639  0.2298 -0.1281
  302MOL0     C39736   2.098   7.289   2.548  1.1195  1.3256  0.3240
  302MOL0     C39737   1.979   7.206   2.559 -1.2190  0.7952  0.2723
  302MOL0     C39738   1.955   7.108   2.467 -0.7477 -0.7649  0.7635
  302MOL0     C39739   2.044   7.082   2.363  0.4588 -0.3205 -0.2706
  302MOL0     O39740   2.026   6.962   2.293 -0.8906 -0.5660  0.3174
  302MOL0     C39741   2.100   6.930   2.172  0.2465  0.3714  0.7580
  302MOL0     C39742   2.068   6.784   2.152  0.1191  1.1851  0.2770
  302MOL0     C39743   2.016   6.755   2.006  0.1143 -0.0756 -0.4615
  302MOL0     C39744   1.893   6.835   1.954 -0.2695  0.5919 -0.8188
  302MOL0     C39745   1.772   6.803   2.052  0.3050  0.0508 -0.7231
  302MOL0     C39746   1.637   6.894   2.043 -0.5796 -0.5644  0.2933
  302MOL0     C39747   1.577   6.872   1.901  0.5039 -0.1041 -0.4269
  302MOL0     C39748   1.425   6.914   1.894  0.0911  0.1704  0.7394
  302MOL0     N39749   1.361   6.858   1.771  0.0744  0.0911 -0.9186
  302MOL0     C39750   1.301   6.736   1.747 -0.1175 -0.4882 -0.3220
  302MOL0     C39751   1.256   6.739   1.619  0.0492  0.0593  0.5757
  302MOL0     C39752   1.182   6.652   1.523  0.8618  1.1057  1.4644
  302MOL0     C39753   1.262   6.605   1.402  1.3498  0.0972 -0.1061
  302MOL0     C39754   1.172   6.525   1.313 -0.2785  0.0986 -0.8688
  302MOL0     C39755   1.248   6.467   1.189  0.7423 -0.1379  0.6998
  302MOL0     O39756   1.367   6.398   1.241  0.8020  0.4154  0.2741
  302MOL0     C39757   1.495   6.443   1.194  1.8037 -0.1567  0.4731
  302MOL0     C39758   1.521   6.555   1.115  0.3797  0.0478 -0.7349
  302MOL0     C39759   1.646   6.598   1.072 -0.3005  0.1252  0.1725
  302MOL0     C39760   1.755   6.523   1.113 -0.1977  0.2267  0.7607
  302MOL0     C39761   1.896   6.565   1.082  0.5059 -0.9409 -0.0117
  302MOL0     O39762   1.901   6.677   0.985 -0.8553  0.5599  0.2354
  302MOL0     C39763   2.021   6.730   0.950  0.2680 -0.1443 -0.7122
  302MOL0     C39764   2.095   6.817   1.032 -0.6769 -0.8910 -0.3479
  302MOL0     C39765   2.220   6.875   0.993  0.1876 -0.2341  0.0708
  302MOL0     C39766   2.285   6.832   0.874 -0.7332 -0.4022 -0.2224
  302MOL0     O39767   2.405   6.891   0.831 -0.2756  0.6177 -0.3108
  302MOL0     C39768   2.394   6.988   0.727  0.1452 -0.0072  0.3000
  302MOL0     C39769   2.494   7.107   0.755  0.1047 -1.7931  0.1897
  302MOL0     C39770   2.634   7.065   0.781 -0.3710 -0.1973 -0.3169
  302MOL0     C39771   2.731   7.077   0.662  0.7794 -0.2041 -0.4859
  302MOL0     C39772   2.861   7.005   0.688  0.2645  0.0599  0.3199
  302MOL0     C39773   2.961   7.015   0.575 -1.3673 -0.0521  0.1276
  302MOL0     C39774   3.084   6.916   0.607  0.2891  0.4789 -0.1990
  302MOL0     C39775   3.183   6.896   0.493  0.1845 -0.0521  0.9391
  302MOL0    Cl39776   3.248   6.741   0.515 -0.1396 -0.3532  0.3468
  302MOL0     C39777   2.214   6.741   0.789  0.6282 -1.0226  0.2599
  302MOL0     C39778   2.083   6.699   0.820 -0.9277 -0.2077 -0.3831
  302MOL0     O39779   1.987   6.520   1.145 -0.4994 -1.0275 -0.3553
  302MOL0     C39780   1.737   6.412   1.199 -0.0206  0.2223  0.6059
  302MOL0     C39781   1.608   6.372   1.237 -1.1709 -0.8681  0.2906
  302MOL0     N39782   1.296   6.861   1.567 -0.6770 -0.9311  0.3273
  302MOL0     N39783   1.347   6.936   1.660  0.7239  0.3002  0.6755
  302MOL0     C39784   2.148   7.168   2.338  0.6918 -0.1069 -0.1543
  302MOL0     C39785   2.176   7.274   2.434 -0.0959  0.9667  0.4764
  302MOL0     C39786   2.155   7.520   2.827 -0.9362  0.0409 -0.2300
  302MOL0     C39787   2.113   7.557   2.956 -0.6422 -0.5257  0.1232
  302MOL0     C39788   2.179   7.658   3.025 -0.5998 -0.3100  0.1030
  302MOL0     C39789   2.288   7.730   2.964  0.4206  0.3218  0.7174
  302MOL0     O39790   2.347   7.847   3.011  0.5062  0.0450 -0.0898
  302MOL0     C39791   2.459   7.898   2.938 -0.6062  0.6340 -0.2239
  302MOL0     C39792   2.526   8.007   3.018  0.5185  0.4204  0.5737
  302MOL0     C39793   2.437   8.126   3.064  0.6989  0.0957 -1.2733
  302MOL0     C39794   2.505   8.236   3.140 -0.0664 -0.5237 -0.0493
  302MOL0     C39795   2.654   8.230   3.175  0.6938  0.2251 -0.3724
  302MOL0     C39796   2.768   8.236   3.207 -0.0463 -0.2133  0.0224
  302MOL0     C39797   2.337   7.675   2.841 -0.0829  0.7392  0.0589
  302MOL0     C39798   2.263   7.575   2.781 -1.3387  0.0108  0.2810
  302MOL0     H39799   1.902   7.208   2.636 -0.8132 -2.2471  0.8919
  302MOL0     H39800   1.873   7.042   2.494 -0.5338  0.2759  4.6571
  302MOL0     H39801   2.205   6.958   2.175 -0.7098  5.4861 -1.7894
  302MOL0     H39802   2.062   6.992   2.091 -0.3036  0.8530  1.3724
  302MOL0     H39803   1.999   6.750   2.230  0.2900 -0.1684 -0.1475
  302MOL0     H39804   2.167   6.740   2.164 -1.6501 -2.7229  2.1594
  302MOL0     H39805   1.994   6.648   1.996 -1.7033  0.3784 -1.8793
  302MOL0     H39806   2.095   6.781   1.935  1.1288 -0.7093  0.4088
  302MOL0     H39807   1.902   6.944   1.949 -3.5446  1.0727  1.0896
  302MOL0     H39808   1.867   6.806   1.852 -1.0197 -1.4350 -0.0856
  302MOL0     H39809   1.803   6.822   2.155 -0.5689 -3.1308  0.2553
  302MOL0     H39810   1.733   6.701   2.061 -2.2743  1.0725  1.3859
  302MOL0     H39811   1.662   6.998   2.064 -0.7404 -0.5137  0.2325
  302MOL0     H39812   1.564   6.857   2.116 -0.8979  2.4042  1.6064
  302MOL0     H39813   1.628   6.924   1.820  1.4904  0.8986  0.7924
  302MOL0     H39814   1.595   6.769   1.867 -0.9201 -0.4639 -0.1305
  302MOL0     H39815   1.413   7.023   1.899  2.3612  0.6159 -1.3647
  302MOL0     H39816   1.371   6.883   1.984 -1.3211 -0.4928 -0.2975
  302MOL0     H39817   1.276   6.651   1.811 -0.7949  0.8940  1.3106
  302MOL0     H39818   1.094   6.703   1.482 -0.2994 -1.3826  0.6008
  302MOL0     H39819   1.151   6.560   1.574  0.9442  0.2894  0.1114
  302MOL0     H39820   1.342   6.547   1.448  3.7625  1.0260 -2.8374
  302MOL0     H39821   1.306   6.693   1.354 -0.5126  1.7754  1.0802
  302MOL0     H39822   1.124   6.444   1.368  0.3656 -0.0397 -0.5011
  302MOL0     H39823   1.098   6.598   1.281  0.7042  1.3542 -0.3570
  302MOL0     H39824   1.262   6.550   1.120  0.1439 -0.0143  0.7194
  302MOL0     H39825   1.180   6.393   1.146  1.3991 -0.0359 -0.5419
  302MOL0     H39826   1.438   6.621   1.091 -1.9552 -3.6064 -3.9233
  302MOL0     H39827   1.652   6.687   1.011 -0.8550  1.2229  1.6697
  302MOL0     H39828   2.051   6.838   1.129 -2.4355 -0.6966 -1.1440
  302MOL0     H39829   2.271   6.943   1.060 -1.8425  0.9028  0.5424
  302MOL0     H39830   2.292   7.019   0.702  0.2542 -1.0191 -1.5763
  302MOL0     H39831   2.427   6.942   0.633 -0.9684  0.1301 -0.1726
  302MOL0     H39832   2.461   7.159   0.845 -2.1652  2.2284 -2.6470
  302MOL0     H39833   2.494   7.180   0.673 -1.1024  0.4934  2.1021
  302MOL0     H39834   2.638   6.968   0.831 -1.8764 -0.4560 -0.6532
  302MOL0     H39835   2.674   7.122   0.866 -0.2873 -0.2010 -0.3542
  302MOL0     H39836   2.669   7.025   0.588 -2.0356 -0.7750  2.0537
  302MOL0     H39837   2.732   7.184   0.641 -0.0305  0.2672  1.6190
  302MOL0     H39838   2.832   6.901   0.707 -0.3295  0.7778  4.2084
  302MOL0     H39839   2.905   7.030   0.785 -1.9953 -4.1050  2.7339
  302MOL0     H39840   3.000   7.117   0.575 -0.7086 -0.2513 -1.9652
  302MOL0     H39841   2.914   6.995   0.478  0.5753  0.6100 -1.0062
  302MOL0     H39842   3.127   6.943   0.704  3.5478  0.6460 -1.5715
  302MOL0     H39843   3.039   6.816   0.616 -0.2735  0.6146 -1.3264
  302MOL0     H39844   3.268   6.964   0.505 -0.9833  1.3850  1.3938
  302MOL0     H39845   3.135   6.898   0.395 -0.7428 -1.9042  1.3043
  302MOL0     H39846   2.255   6.726   0.689  1.5583  2.2448  0.0353
  302MOL0     H39847   2.024   6.633   0.758 -0.7685  0.3020 -1.0870
  302MOL0     H39848   1.817   6.353   1.244  0.4763  0.9526  0.6991
  302MOL0     H39849   1.601   6.282   1.298  1.4073 -1.9273 -0.7828
  302MOL0     H39850   2.211   7.162   2.249  1.1747  2.1497 -0.0308
  302MOL0     H39851   2.262   7.337   2.416 -0.5553  1.2458 -0.8362
  302MOL0     H39852   2.036   7.512   3.018  0.1291  1.7170  2.9457
  302MOL0     H39853   2.154   7.686   3.127  0.5914  1.0965  0.0411
  302MOL0     H39854   2.422   7.938   2.844 -0.5928 -1.9297 -1.3968
  302MOL0     H39855   2.534   7.821   2.920 -1.4772  0.0531 -1.5027
  302MOL0     H39856   2.566   7.964   3.110 -1.0316 -1.5029  0.4301
  302MOL0     H39857   2.606   8.043   2.952 -0.2184 -0.6916 -1.0130
  302MOL0     H39858   2.355   8.085   3.124  1.1616 -3.0579 -2.5575
  302MOL0     H39859   2.399   8.168   2.970  0.8095  0.5345 -1.1241
  302MOL0     H39860   2.484   8.327   3.084 -0.1238  0.3987  1.4063
  302MOL0     H39861   2.449   8.254   3.232 -1.5564 -1.7704 -0.6580
  302MOL0     H39862   2.870   8.241   3.239  0.1371  0.5243 -0.6594
  302MOL0     H39863   2.423   7.702   2.780  0.4219 -3.7598 -1.6037
  302MOL0     H39864   2.301   7.532   2.689 -1.6521 -1.0964  0.6581
  303MOL0     O39865   3.651   6.287   6.460 -0.1933 -0.2531  0.2975
  303MOL0     C39866   3.656   6.411   6.481  0.1544  0.0599  0.9308
  303MOL0     O39867   3.638   6.507   6.372 -0.0746 -0.2551  0.2162
  303MOL0     C39868   3.633   6.449   6.250 -0.1240  0.5073 -0.5923
  303MOL0     C39869   3.744   6.459   6.163  0.6261  0.8469 -0.2606
  303MOL0     C39870   3.733   6.414   6.033 -0.2630 -0.1663  0.5443
  303MOL0     C39871   3.601   6.379   5.980 -0.0296 -0.0570 -0.4503
  303MOL0     O39872   3.568   6.343   5.855 -0.7597  0.1275  0.8648
  303MOL0     C39873   3.676   6.280   5.782 -0.3396  0.4899 -0.2658
  303MOL0     C39874   3.622   6.201   5.668  0.3449  0.0826 -0.6902
  303MOL0     C39875   3.542   6.078   5.723  0.1355 -0.5016 -0.6866
  303MOL0     C39876   3.526   5.980   5.605 -1.0056 -0.1119  0.5665
  303MOL0     C39877   3.429   5.873   5.642 -0.8777  0.3596  0.2477
  303MOL0     C39878   3.277   5.912   5.639  0.0625  0.3869 -0.6399
  303MOL0     C39879   3.184   5.815   5.699 -0.0089  0.2982  0.3758
  303MOL0     C39880   3.041   5.866   5.727  0.1728  0.3653 -0.2498
  303MOL0     N39881   2.954   5.888   5.610  0.5648 -0.6930 -0.2439
  303MOL0     C39882   2.992   5.956   5.495  0.2678  1.4468 -0.2827
  303MOL0     C39883   2.884   5.948   5.418  0.0817 -1.5734  0.2637
  303MOL0     C39884   2.882   6.019   5.282  0.4429  1.3580 -0.2083
  303MOL0     C39885   2.751   6.094   5.246  0.8649  0.5381  0.5141
  303MOL0     C39886   2.638   6.010   5.191  0.3501  0.1243 -0.0523
  303MOL0     C39887   2.515   6.092   5.166  0.1300 -0.2198  0.7068
  303MOL0     O39888   2.413   6.006   5.112 -0.5700 -0.3056 -0.5851
  303MOL0     C39889   2.287   6.030   5.151  0.5199  1.1524 -0.4007
  303MOL0     C39890   2.244   6.119   5.244  0.0208  0.8266  0.2112
  303MOL0     C39891   2.109   6.139   5.258  0.4078 -0.8518  0.7988
  303MOL0     C39892   2.011   6.067   5.189 -0.1720 -1.2717  0.4542
  303MOL0     C39893   1.864   6.090   5.220 -0.3468  0.3578  0.1855
  303MOL0     O39894   1.778   6.052   5.121 -0.7364 -0.9797 -0.4000
  303MOL0     C39895   1.643   6.072   5.126 -0.2319  0.4066  0.4650
  303MOL0     C39896   1.571   6.175   5.188 -0.9712 -0.6192  0.6106
  303MOL0     C39897   1.432   6.184   5.177 -1.0836  0.2376  0.3024
  303MOL0     C39898   1.359   6.101   5.091 -0.0890  0.0681  0.4918
  303MOL0     O39899   1.223   6.109   5.082 -0.1802 -0.1890 -0.1275
  303MOL0     C39900   1.142   6.032   4.998 -1.2386  0.4736  1.2723
  303MOL0     C39901   1.015   6.113   4.979  0.6121  0.1747  0.3728
  303MOL0     C39902   0.911   6.022   4.912  0.2453 -0.1093 -0.0459
  303MOL0     C39903   0.772   6.078   4.935  0.3826  0.3824 -0.2576
  303MOL0     C39904   0.674   5.961   4.883 -0.1087 -0.5629 -0.4492
  303MOL0     C39905   0.539   5.964   4.955  0.9421  0.6702  0.5073
  303MOL0     C39906   0.448   6.076   4.919 -0.3229  0.4383 -0.0239
  303MOL0     C39907   0.311   6.060   4.973  0.0127 -1.2316 -0.1593
  303MOL0    Cl39908   0.195   6.155   4.880  0.1644  0.6721  0.0361
  303MOL0     C39909   1.430   5.996   5.030  0.3472 -0.1802  0.6227
  303MOL0     C39910   1.569   5.987   5.041  0.1142 -0.4372 -0.1150
  303MOL0     O39911   1.838   6.152   5.317  0.4030 -0.4439  0.2005
  303MOL0     C39912   2.060   5.981   5.094  0.4641 -0.0558  0.2351
  303MOL0     C39913   2.194   5.965   5.075 -0.3341 -0.1693  0.1848
  303MOL0     N39914   2.791   5.869   5.479  0.2838 -0.2703  0.3312
  303MOL0     N39915   2.835   5.830   5.592 -0.5267  0.3097 -0.2948
  303MOL0     C39916   3.502   6.364   6.069 -0.9655  0.5372  0.0819
  303MOL0     C39917   3.512   6.405   6.202  0.7876 -0.9110 -0.3645
  303MOL0     C39918   3.691   6.466   6.608 -0.2071 -0.5250 -1.1017
  303MOL0     C39919   3.643   6.593   6.649  0.5054  0.3985 -0.1429
  303MOL0     C39920   3.679   6.637   6.774 -0.0257 -0.2131  0.3443
  303MOL0     C39921   3.757   6.567   6.860  0.4436  0.3044 -0.1369
  303MOL0     O39922   3.795   6.634   6.972  0.2175  0.5739  0.6647
  303MOL0     C39923   3.886   6.580   7.062 -0.7151  0.9625 -1.0179
  303MOL0     C39924   3.813   6.518   7.183 -0.2951  0.5117 -0.2545
  303MOL0     C39925   3.718   6.610   7.265 -0.6327  0.5720  0.5161
  303MOL0     C39926   3.663   6.541   7.394 -0.3853 -0.0726  0.3080
  303MOL0     C39927   3.524   6.565   7.420 -0.2628 -0.2724  0.1086
  303MOL0     C39928   3.409   6.569   7.438  0.6462 -1.1824 -0.7609
  303MOL0     C39929   3.800   6.441   6.819  0.4216 -0.1250  0.3333
  303MOL0     C39930   3.769   6.395   6.700  0.1814 -0.2196  0.2045
  303MOL0     H39931   3.840   6.502   6.190  1.8306 -0.8335 -1.6073
  303MOL0     H39932   3.822   6.436   5.974  0.8482 -0.5112  2.0439
  303MOL0     H39933   3.740   6.210   5.836 -2.3208 -0.7784  0.5658
  303MOL0     H39934   3.739   6.362   5.746 -1.5779  0.7227 -2.0361
  303MOL0     H39935   3.698   6.184   5.591 -1.0334  0.8470 -2.3131
  303MOL0     H39936   3.551   6.268   5.617  1.6838  0.1884 -2.5429
  303MOL0     H39937   3.444   6.109   5.761  0.8071 -1.2619  1.8858
  303MOL0     H39938   3.586   6.036   5.813 -3.9094  0.3189  1.9495
  303MOL0     H39939   3.483   6.030   5.518  0.6059 -0.2216 -0.3382
  303MOL0     H39940   3.624   5.941   5.577 -0.4796  0.7155  1.1951
  303MOL0     H39941   3.452   5.838   5.743 -0.0645 -2.9521 -0.9719
  303MOL0     H39942   3.447   5.784   5.582 -0.2943 -1.1975  2.5966
  303MOL0     H39943   3.252   5.927   5.534 -0.0246 -1.2198 -0.8630
  303MOL0     H39944   3.258   6.010   5.685 -0.7812  1.4710 -3.1486
  303MOL0     H39945   3.178   5.734   5.624 -0.8840  0.9058 -0.2397
  303MOL0     H39946   3.220   5.787   5.798 -1.2023  0.5210  0.8927
  303MOL0     H39947   3.039   5.964   5.776 -0.5371 -0.5043  1.5822
  303MOL0     H39948   2.994   5.797   5.798 -2.2463  0.9275 -1.1971
  303MOL0     H39949   3.081   6.008   5.461  0.6328  0.9445 -0.1182
  303MOL0     H39950   2.886   5.946   5.200 -2.8571  2.0970 -1.1623
  303MOL0     H39951   2.968   6.087   5.284  1.6026 -0.0616  1.9289
  303MOL0     H39952   2.767   6.167   5.166 -3.7092  0.1763 -1.0045
  303MOL0     H39953   2.705   6.147   5.330 -2.4123  1.7993 -1.8471
  303MOL0     H39954   2.671   5.960   5.100 -2.8406  0.1152 -1.3204
  303MOL0     H39955   2.610   5.931   5.261  2.3948 -1.9424 -1.4211
  303MOL0     H39956   2.542   6.179   5.106  2.1876 -1.3349 -0.0936
  303MOL0     H39957   2.500   6.137   5.264  2.3178 -1.2678  1.5881
  303MOL0     H39958   2.314   6.157   5.317  0.7289 -2.9601  1.7107
  303MOL0     H39959   2.082   6.212   5.335 -2.9633  0.3707 -1.3127
  303MOL0     H39960   1.633   6.243   5.246  2.1826 -2.4766 -0.3609
  303MOL0     H39961   1.378   6.267   5.223  1.9531  1.8455  1.2939
  303MOL0     H39962   1.118   5.935   5.041 -3.0029 -0.2534 -1.1383
  303MOL0     H39963   1.184   6.007   4.900 -3.0162 -2.1251  1.0750
  303MOL0     H39964   1.034   6.193   4.906 -2.2423 -1.0620 -1.9116
  303MOL0     H39965   0.972   6.151   5.072 -1.5391 -0.0389 -0.4727
  303MOL0     H39966   0.919   5.925   4.962  3.1479  1.2958  2.5400
  303MOL0     H39967   0.923   6.017   4.803  1.0650 -0.7482  0.0670
  303MOL0     H39968   0.767   6.096   5.043  2.6876 -0.5269  0.0487
  303MOL0     H39969   0.747   6.172   4.883 -1.1725 -0.7441 -1.6870
  303MOL0     H39970   0.718   5.861   4.895 -0.7831 -0.9286 -0.9567
  303MOL0     H39971   0.655   5.978   4.776  1.5864  0.0068 -0.6880
  303MOL0     H39972   0.560   5.961   5.062 -0.4390 -0.4319  0.7822
  303MOL0     H39973   0.490   5.867   4.935 -0.2050  1.1916  0.6808
  303MOL0     H39974   0.498   6.165   4.960  0.0081 -0.7246  2.2651
  303MOL0     H39975   0.445   6.089   4.810  1.8592  2.7296  0.1047
  303MOL0     H39976   0.304   6.078   5.081  0.3673 -0.2810 -0.2838
  303MOL0     H39977   0.295   5.953   4.957 -3.6679 -0.9554  0.6995
  303MOL0     H39978   1.382   5.927   4.961  0.4379  2.0546 -1.8301
  303MOL0     H39979   1.626   5.912   4.987  2.4405  2.1873 -1.5535
  303MOL0     H39980   1.995   5.924   5.028  1.2146 -1.9763  1.0508
  303MOL0     H39981   2.231   5.890   5.005 -1.1898 -0.2836 -0.1552
  303MOL0     H39982   3.411   6.310   6.048  0.3625 -2.6874  1.9178
  303MOL0     H39983   3.421   6.394   6.261  0.0803  0.3959 -1.1814
  303MOL0     H39984   3.575   6.651   6.587 -0.0449  0.6636  0.6872
  303MOL0     H39985   3.623   6.728   6.793 -1.0242 -0.5735 -0.7632
  303MOL0     H39986   3.949   6.662   7.098  1.2083  1.4677 -5.0064
  303MOL0     H39987   3.951   6.504   7.018 -2.6658 -0.0383 -2.3085
  303MOL0     H39988   3.744   6.441   7.148  0.3985  0.3462 -1.3299
  303MOL0     H39989   3.880   6.479   7.259 -0.1387  6.7903  3.5153
  303MOL0     H39990   3.630   6.632   7.204 -2.0310  0.6338  2.4435
  303MOL0     H39991   3.775   6.701   7.291  0.7595 -0.1455  0.0768
  303MOL0     H39992   3.693   6.436   7.387  2.5964  0.7150  0.0067
  303MOL0     H39993   3.704   6.580   7.488  0.2766 -1.3153  0.5496
  303MOL0     H39994   3.303   6.559   7.456  0.2958  0.4521 -1.6524
  303MOL0     H39995   3.868   6.384   6.881 -0.4406 -2.8650 -1.0900
  303MOL0     H39996   3.818   6.302   6.673  1.2656  0.3605  0.1067
  304MOL0     O39997   5.938   4.647   3.364 -0.9832 -0.8827 -0.0298
  304MOL0     C39998   6.006   4.554   3.324 -1.4381 -0.2037 -0.8522
  304MOL0     O39999   5.963   4.446   3.260 -0.9500  0.1593 -0.2659
  304MOL0     C40000   5.823   4.420   3.241 -0.3685  0.0772  0.0307
  304MOL0     C40001   5.772   4.397   3.111  0.1648 -0.4137 -1.1883
  304MOL0     C40002   5.634   4.386   3.085  0.1296  0.2943  0.4741
  304MOL0     C40003   5.546   4.372   3.189 -0.0629 -0.4140  0.2855
  304MOL0     O40004   5.414   4.370   3.166  0.2969  0.1798 -0.2648
  304MOL0     C40005   5.358   4.410   3.037 -0.1991 -0.0301  0.1746
  304MOL0     C40006   5.212   4.453   3.054 -0.1208 -0.0279  0.5003
  304MOL0     C40007   5.197   4.562   3.155 -0.2164  1.5903 -0.3688
  304MOL0     C40008   5.056   4.600   3.181 -0.3545 -0.9704  0.0276
  304MOL0     C40009   5.051   4.704   3.300  0.5570 -0.1483  0.3072
  304MOL0     C40010   5.084   4.854   3.247  0.3881 -1.2029 -0.1871
  304MOL0     C40011   5.036   4.963   3.345  0.0077 -0.2049  0.5861
  304MOL0     C40012   4.886   4.969   3.371  0.4996  0.0655  0.6040
  304MOL0     N40013   4.809   5.032   3.265  0.6049  0.0282 -0.1026
  304MOL0     C40014   4.685   5.090   3.295 -0.7802 -0.0484  0.4021
  304MOL0     C40015   4.641   5.128   3.171  0.1528 -0.0869 -1.1309
  304MOL0     C40016   4.513   5.200   3.133 -0.0726  0.5293 -0.6992
  304MOL0     C40017   4.385   5.117   3.144  0.8578 -0.1769  0.3702
  304MOL0     C40018   4.332   5.120   3.286  0.8973  0.3419  0.1066
  304MOL0     C40019   4.201   5.022   3.303  0.3657 -0.7272  0.5928
  304MOL0     O40020   4.092   5.093   3.256 -0.0571  0.4154  0.5424
  304MOL0     C40021   3.975   5.023   3.240  0.4616 -0.9751 -0.4761
  304MOL0     C40022   3.925   4.924   3.316 -0.4797  0.4343 -0.2788
  304MOL0     C40023   3.811   4.854   3.276 -0.5747 -0.5506 -0.1442
  304MOL0     C40024   3.732   4.902   3.169  0.6793  0.1918  0.8179
  304MOL0     C40025   3.603   4.833   3.150  0.7481  0.0292  0.0288
  304MOL0     O40026   3.503   4.910   3.093 -0.0976  0.0821 -0.2294
  304MOL0     C40027   3.373   4.873   3.061  0.3068  0.8844 -0.2753
  304MOL0     C40028   3.295   4.955   2.979  0.6388  0.3388  0.6781
  304MOL0     C40029   3.168   4.918   2.936  0.8189  0.5538 -0.6042
  304MOL0     C40030   3.106   4.800   2.993 -1.4154  0.0109  0.2005
  304MOL0     O40031   2.969   4.774   2.998  0.9371 -0.0311  0.0451
  304MOL0     C40032   2.901   4.770   2.873  0.9085  0.4843 -0.1059
  304MOL0     C40033   2.937   4.628   2.805  0.0582  0.1547  0.2719
  304MOL0     C40034   2.814   4.574   2.721  0.0128  0.3274 -0.0173
  304MOL0     C40035   2.852   4.439   2.662  0.4800  0.1544 -1.0253
  304MOL0     C40036   2.740   4.368   2.595 -0.1563  0.1071  0.0240
  304MOL0     C40037   2.795   4.243   2.535  0.6584 -0.3685 -0.8245
  304MOL0     C40038   2.678   4.178   2.469  0.4445  0.9779 -0.5576
  304MOL0     C40039   2.555   4.137   2.549 -0.1667 -0.1652 -0.5501
  304MOL0    Cl40040   2.444   4.035   2.443  0.6610  0.4797  0.1540
  304MOL0     C40041   3.184   4.714   3.077  0.9668 -0.6717  0.2653
  304MOL0     C40042   3.306   4.750   3.113 -1.1964 -0.0540 -0.4956
  304MOL0     O40043   3.596   4.715   3.168  0.3122 -0.1327  0.2920
  304MOL0     C40044   3.786   5.005   3.091  0.3454 -0.1435 -0.6233
  304MOL0     C40045   3.903   5.058   3.125 -0.2800 -0.5618 -0.1609
  304MOL0     N40046   4.729   5.078   3.076 -0.6065  0.9959 -0.1824
  304MOL0     N40047   4.829   5.021   3.138  0.3936  0.1370 -0.0271
  304MOL0     C40048   5.593   4.373   3.322 -0.2330  0.4344  1.3906
  304MOL0     C40049   5.735   4.403   3.347  0.2638  0.2854 -0.0343
  304MOL0     C40050   6.153   4.565   3.343  0.2853  0.1245  0.1430
  304MOL0     C40051   6.226   4.677   3.360 -0.5399 -0.0233 -0.0725
  304MOL0     C40052   6.372   4.670   3.372 -0.0205 -0.3957  0.4085
  304MOL0     C40053   6.443   4.549   3.386  0.4333 -0.4003 -0.1412
  304MOL0     O40054   6.579   4.551   3.373  0.2355  0.2936 -0.0998
  304MOL0     C40055   6.660   4.446   3.435  0.5429 -0.4833  0.2630
  304MOL0     C40056   6.782   4.510   3.506 -0.7885  0.5095 -0.4533
  304MOL0     C40057   6.890   4.400   3.543  0.9629 -0.6095  0.7675
  304MOL0     C40058   7.013   4.460   3.585  0.0916  0.2471  0.1554
  304MOL0     C40059   7.118   4.360   3.559 -0.3939 -0.0536  0.0022
  304MOL0     C40060   7.196   4.269   3.553 -0.4750  0.3009  0.6077
  304MOL0     C40061   6.363   4.438   3.358  0.3252 -0.3356  0.4888
  304MOL0     C40062   6.226   4.446   3.351  1.1490 -0.1929 -0.5919
  304MOL0     H40063   5.844   4.404   3.030 -1.7891  0.5170 -2.9445
  304MOL0     H40064   5.607   4.359   2.983  3.2479  2.4060 -1.0942
  304MOL0     H40065   5.373   4.331   2.963  0.4653 -3.3922  3.5728
  304MOL0     H40066   5.396   4.507   3.006  0.6888 -0.4640 -0.1318
  304MOL0     H40067   5.145   4.367   3.063 -2.4608  1.6259 -0.0868
  304MOL0     H40068   5.175   4.476   2.953  0.2605  2.0036  0.7852
  304MOL0     H40069   5.254   4.649   3.120  0.4545  1.7475  1.0251
  304MOL0     H40070   5.246   4.538   3.250 -1.3502 -1.7343 -0.4887
  304MOL0     H40071   5.012   4.647   3.092 -1.4703 -0.0168  1.0429
  304MOL0     H40072   4.991   4.519   3.214  2.9848 -2.1688  4.5153
  304MOL0     H40073   5.118   4.682   3.384  1.2081  4.8282  1.4123
  304MOL0     H40074   4.950   4.704   3.341  0.6854 -1.7283  0.6902
  304MOL0     H40075   5.018   4.868   3.162  0.0472  0.9980  0.3813
  304MOL0     H40076   5.189   4.857   3.215  0.4840 -2.8440 -0.0988
  304MOL0     H40077   5.086   4.970   3.442  0.5325  2.0566  0.2057
  304MOL0     H40078   5.057   5.058   3.294  1.4844 -0.7502  0.1329
  304MOL0     H40079   4.862   5.027   3.461  0.0372  0.6583  0.1095
  304MOL0     H40080   4.844   4.872   3.397 -0.9327  0.0964 -1.3355
  304MOL0     H40081   4.635   5.116   3.388 -1.9898  0.7124 -0.4356
  304MOL0     H40082   4.524   5.239   3.031 -0.4857  3.0240  0.1435
  304MOL0     H40083   4.507   5.287   3.198  2.3375 -1.9197  3.1670
  304MOL0     H40084   4.406   5.019   3.101  2.2883  0.2533 -0.0089
  304MOL0     H40085   4.309   5.164   3.080  1.5101  1.4497  0.7337
  304MOL0     H40086   4.404   5.085   3.361  1.6831 -1.3766 -1.3782
  304MOL0     H40087   4.298   5.221   3.310  1.2830  0.5965 -0.4120
  304MOL0     H40088   4.183   5.012   3.410 -3.4040  2.6391  0.5185
  304MOL0     H40089   4.207   4.922   3.259 -0.9189 -0.5055 -0.1373
  304MOL0     H40090   3.985   4.890   3.400  1.0391  0.4749 -1.3062
  304MOL0     H40091   3.779   4.764   3.327  2.1422 -1.4302  0.1632
  304MOL0     H40092   3.333   5.048   2.938  1.4959 -0.6664 -0.8814
  304MOL0     H40093   3.100   4.973   2.871 -2.4573 -0.8705  1.3559
  304MOL0     H40094   2.940   4.851   2.810  0.5336  0.5632 -0.2377
  304MOL0     H40095   2.795   4.774   2.897  0.8900  1.7724 -0.3279
  304MOL0     H40096   2.978   4.566   2.885 -1.5911  0.8298  1.7389
  304MOL0     H40097   3.014   4.660   2.734 -1.0532  1.8897 -0.2121
  304MOL0     H40098   2.797   4.651   2.645  1.0847  2.0193  1.3584
  304MOL0     H40099   2.725   4.567   2.784 -3.3136 -1.2305 -4.3591
  304MOL0     H40100   2.925   4.467   2.586  1.5003  1.4370  0.3483
  304MOL0     H40101   2.902   4.377   2.737 -0.6417  0.5723  0.1082
  304MOL0     H40102   2.701   4.427   2.512  2.0115  1.9427  0.1972
  304MOL0     H40103   2.666   4.361   2.675 -0.9746  3.1860 -0.3247
  304MOL0     H40104   2.835   4.186   2.619  0.9343  1.6313  0.4551
  304MOL0     H40105   2.865   4.270   2.455 -0.3035  1.4559 -1.1200
  304MOL0     H40106   2.630   4.250   2.403 -2.5224 -1.2246 -1.0431
  304MOL0     H40107   2.712   4.091   2.411 -3.6934  1.2816 -3.8904
  304MOL0     H40108   2.493   4.223   2.574  0.1257  0.2708 -1.2755
  304MOL0     H40109   2.590   4.084   2.638 -1.7468  2.1815  1.5991
  304MOL0     H40110   3.131   4.629   3.121 -3.6526  1.4426 -0.5719
  304MOL0     H40111   3.360   4.684   3.181 -1.1784  0.5465  0.0777
  304MOL0     H40112   3.719   5.033   3.011 -2.1834 -0.0403  1.4107
  304MOL0     H40113   3.930   5.148   3.071 -2.8957 -1.1776 -2.7838
  304MOL0     H40114   5.518   4.360   3.400  0.6201  1.0617  2.3340
  304MOL0     H40115   5.764   4.406   3.451 -4.3045 -1.7373  1.5024
  304MOL0     H40116   6.169   4.767   3.343 -1.4136 -1.0023 -2.9275
  304MOL0     H40117   6.427   4.763   3.356  1.3239 -1.3911 -1.0361
  304MOL0     H40118   6.693   4.370   3.363  1.7995 -0.7638  1.1033
  304MOL0     H40119   6.605   4.390   3.512  0.5993  0.9735  1.4029
  304MOL0     H40120   6.826   4.584   3.439 -2.7600  3.0738  0.8854
  304MOL0     H40121   6.749   4.563   3.596 -0.2981  2.7834 -1.5486
  304MOL0     H40122   6.915   4.342   3.454  1.7791  0.5925  0.1842
  304MOL0     H40123   6.847   4.338   3.622 -0.1908  3.6693  3.9013
  304MOL0     H40124   7.046   4.547   3.528  0.5472  0.6418  1.0060
  304MOL0     H40125   7.019   4.500   3.687  2.4543  0.6652 -0.0921
  304MOL0     H40126   7.283   4.207   3.544 -2.2535 -2.3534  0.7957
  304MOL0     H40127   6.410   4.340   3.347  0.8634 -0.1835  1.3417
  304MOL0     H40128   6.173   4.351   3.349  2.6569 -1.3496  3.4847
  305MOL0     O40129  11.326   1.870  11.119 -0.9855  0.3832  0.6568
  305MOL0     C40130  11.378   1.802  11.203  0.2459 -0.1255 -0.4073
  305MOL0     O40131  11.316   1.707  11.273  0.4230  0.1768 -0.8572
  305MOL0     C40132  11.183   1.675  11.277 -0.4884 -0.6905 -0.0900
  305MOL0     C40133  11.144   1.599  11.380 -0.0128 -0.3159 -0.8682
  305MOL0     C40134  11.010   1.565  11.393 -0.2831 -0.6435 -0.7319
  305MOL0     C40135  10.915   1.612  11.302 -0.9584 -0.2948  0.2866
  305MOL0     O40136  10.779   1.580  11.302  0.6245 -0.0812 -0.0640
  305MOL0     C40137  10.714   1.492  11.401 -0.3818  0.0223  0.7328
  305MOL0     C40138  10.732   1.356  11.348  1.2082  0.0946 -0.0512
  305MOL0     C40139  10.661   1.339  11.207  0.2478 -0.2541 -0.6232
  305MOL0     C40140  10.604   1.196  11.200 -0.0384 -0.4359  0.5268
  305MOL0     C40141  10.589   1.161  11.053  0.2302 -0.7852 -0.4537
  305MOL0     C40142  10.523   1.021  11.053 -0.6246  0.7841  0.0107
  305MOL0     C40143  10.462   0.987  10.921  0.4321 -0.7632 -0.1901
  305MOL0     C40144  10.565   0.992  10.810  0.4874  0.3871  0.7523
  305MOL0     N40145  10.501   0.975  10.677 -0.1999  0.6997  0.5315
  305MOL0     C40146  10.471   0.854  10.616 -0.5798  0.1587  0.0540
  305MOL0     C40147  10.416   0.879  10.491 -0.3297 -0.1557 -0.5595
  305MOL0     C40148  10.345   0.780  10.401  0.5035 -0.5067 -0.2553
  305MOL0     C40149  10.236   0.694  10.465 -0.1133  0.6008 -0.6097
  305MOL0     C40150  10.095   0.759  10.469 -0.0846 -0.4794  0.9770
  305MOL0     C40151  10.001   0.667  10.532  1.2992 -0.1533  0.1377
  305MOL0     O40152   9.863   0.725  10.535  0.0926 -0.1176  0.2727
  305MOL0     C40153   9.776   0.643  10.463  0.4429 -0.1525 -0.0980
  305MOL0     C40154   9.770   0.639  10.324 -1.3540  0.3115 -0.2160
  305MOL0     C40155   9.673   0.566  10.246 -0.2288 -0.1008 -0.2121
  305MOL0     C40156   9.561   0.523  10.320 -0.0469 -0.2526 -0.2645
  305MOL0     C40157   9.454   0.459  10.257 -0.7893  0.8275  0.6664
  305MOL0     O40158   9.369   0.382  10.347  0.8450 -0.4004  1.0179
  305MOL0     C40159   9.253   0.315  10.311 -0.2621  0.1095 -0.2776
  305MOL0     C40160   9.142   0.381  10.253 -0.0899 -0.5201 -0.0903
  305MOL0     C40161   9.027   0.315  10.216  0.5020 -0.8566  1.3418
  305MOL0     C40162   9.012   0.184  10.249 -0.4456 -0.5106 -0.1668
  305MOL0     O40163   8.894   0.129  10.227 -0.2005  0.8619 -1.1873
  305MOL0     C40164   8.888  -0.021  10.218  0.4252  0.8439  0.0738
  305MOL0     C40165   8.761  -0.061  10.145 -0.6488 -0.7253  0.2264
  305MOL0     C40166   8.772  -0.019  10.000  0.3386 -0.1531 -0.0099
  305MOL0     C40167   8.646  -0.058   9.923 -0.9021  0.5367  0.0930
  305MOL0     C40168   8.686  -0.097   9.780  0.9577  0.0163  0.5491
  305MOL0     C40169   8.546  -0.117   9.705 -0.2803  0.1376  0.1422
  305MOL0     C40170   8.475  -0.252   9.730  0.6008  0.3029 -0.5759
  305MOL0     C40171   8.332  -0.258   9.652  0.1834 -0.8569 -1.0018
  305MOL0    Cl40172   8.253  -0.412   9.705 -0.3345  0.2096 -0.5868
  305MOL0     C40173   9.113   0.117  10.326  0.4277  0.0570  0.3120
  305MOL0     C40174   9.229   0.191  10.365  0.2775  0.4962  0.3218
  305MOL0     O40175   9.434   0.465  10.139  0.6766 -0.0268 -0.4204
  305MOL0     C40176   9.560   0.548  10.459 -0.3409 -0.5566 -0.0665
  305MOL0     C40177   9.666   0.599  10.531 -0.0260  0.1555 -1.2647
  305MOL0     N40178  10.421   1.015  10.484  0.2749 -0.6859 -1.1528
  305MOL0     N40179  10.469   1.071  10.591  0.8368  0.1106 -0.2818
  305MOL0     C40180  10.957   1.681  11.190 -0.3912 -0.5309 -0.3491
  305MOL0     C40181  11.097   1.714  11.172  0.4372 -0.7041 -0.7037
  305MOL0     C40182  11.519   1.819  11.235 -0.2607 -1.2724 -0.1260
  305MOL0     C40183  11.612   1.860  11.135  0.2837  0.0214  0.6691
  305MOL0     C40184  11.744   1.886  11.170  0.1223  0.3545 -0.0230
  305MOL0     C40185  11.800   1.861  11.301  0.2250  0.2143  0.0146
  305MOL0     O40186  11.932   1.898  11.312  0.5235 -0.0874 -0.2077
  305MOL0     C40187  12.003   1.884  11.445  0.1201 -0.0341  0.4302
  305MOL0     C40188  12.142   1.953  11.457 -1.5131  0.2757  0.1013
  305MOL0     C40189  12.241   1.895  11.351 -0.5713 -0.8035  0.3116
  305MOL0     C40190  12.377   1.958  11.371 -0.9036 -0.2515 -0.0790
  305MOL0     C40191  12.444   1.939  11.499  0.2921  0.4895 -0.6400
  305MOL0     C40192  12.483   1.933  11.613 -0.3162  0.6747  0.3354
  305MOL0     C40193  11.710   1.813  11.395  0.0664  0.9458  0.8660
  305MOL0     C40194  11.568   1.797  11.362 -0.0780 -0.1558  0.4080
  305MOL0     H40195  11.215   1.558  11.451  0.3631  1.3646 -0.2282
  305MOL0     H40196  10.979   1.495  11.470  0.5945 -0.9959 -0.6770
  305MOL0     H40197  10.607   1.517  11.406 -1.0595 -2.4021  0.1092
  305MOL0     H40198  10.759   1.497  11.500  3.3315 -1.0279 -0.7301
  305MOL0     H40199  10.691   1.282  11.418  2.7624 -0.2519  0.5373
  305MOL0     H40200  10.839   1.338  11.338  1.1808 -0.8282  1.1171
  305MOL0     H40201  10.740   1.346  11.131  1.2862 -1.0644  0.3544
  305MOL0     H40202  10.582   1.413  11.189  0.0031 -0.2197  0.5406
  305MOL0     H40203  10.662   1.119  11.252  1.2541  0.6862  0.8121
  305MOL0     H40204  10.503   1.190  11.240  0.0822 -3.7569  0.6540
  305MOL0     H40205  10.687   1.166  11.004  0.4366  1.5831  0.0735
  305MOL0     H40206  10.510   1.223  11.009  0.5458  0.2574  0.4289
  305MOL0     H40207  10.446   1.004  11.129 -1.1754  1.3801 -0.4135
  305MOL0     H40208  10.598   0.944  11.075 -2.4285 -0.2220  3.2530
  305MOL0     H40209  10.423   0.885  10.918  2.3278 -1.5848  1.1439
  305MOL0     H40210  10.378   1.051  10.893  0.5516 -0.4000  0.2760
  305MOL0     H40211  10.644   0.920  10.831  0.9495  0.5859 -0.2789
  305MOL0     H40212  10.621   1.086  10.802 -1.0750  1.4224  1.3837
  305MOL0     H40213  10.473   0.758  10.668 -3.6990  1.2328  2.4356
  305MOL0     H40214  10.426   0.721  10.358  2.4092  0.5952  1.6097
  305MOL0     H40215  10.301   0.835  10.317  1.7535  3.0148  1.2083
  305MOL0     H40216  10.274   0.679  10.567  2.0746  1.5519 -1.2334
  305MOL0     H40217  10.225   0.596  10.419  0.2684  1.0155 -1.6080
  305MOL0     H40218  10.085   0.852  10.526 -3.7505  0.2889 -0.5967
  305MOL0     H40219  10.063   0.775  10.366  0.9989 -2.0015  0.3696
  305MOL0     H40220  10.025   0.654  10.638  1.8992  2.1128  0.3391
  305MOL0     H40221  10.002   0.571  10.481  1.5803  1.5963 -3.5264
  305MOL0     H40222   9.849   0.695  10.275 -2.2899  2.8371  0.9424
  305MOL0     H40223   9.677   0.548  10.139  2.3043  1.3938 -0.4502
  305MOL0     H40224   9.158   0.488  10.240 -0.0152 -0.3460  1.2772
  305MOL0     H40225   8.959   0.366  10.149  2.5045  3.4044  2.2144
  305MOL0     H40226   8.887  -0.070  10.316  3.2036 -0.6304 -0.5333
  305MOL0     H40227   8.974  -0.055  10.159 -0.3719  2.1315 -1.9539
  305MOL0     H40228   8.681   0.003  10.184  0.0571 -0.8808  2.0309
  305MOL0     H40229   8.746  -0.168  10.162  2.0448 -1.5437 -1.8148
  305MOL0     H40230   8.860  -0.065   9.955  0.3966 -0.9737  0.9066
  305MOL0     H40231   8.792   0.089   9.991  1.3568 -0.3896 -0.7782
  305MOL0     H40232   8.599  -0.147   9.966 -0.0028  1.0723  2.3247
  305MOL0     H40233   8.573   0.022   9.911 -0.1139  1.0728 -1.4376
  305MOL0     H40234   8.741  -0.192   9.780  1.0165  0.0441  1.0706
  305MOL0     H40235   8.755  -0.022   9.744  0.9160  0.1231  0.6900
  305MOL0     H40236   8.565  -0.101   9.598 -3.4945  2.3862 -0.1989
  305MOL0     H40237   8.483  -0.032   9.731  0.8599  0.2893  2.7776
  305MOL0     H40238   8.542  -0.327   9.688 -1.1713 -2.1712  0.7721
  305MOL0     H40239   8.476  -0.274   9.837 -2.0468  1.2144 -0.2971
  305MOL0     H40240   8.343  -0.259   9.544  0.1524  1.3252 -1.0875
  305MOL0     H40241   8.281  -0.168   9.690  1.8936 -0.1709 -0.2008
  305MOL0     H40242   9.095   0.018  10.368 -1.4519  1.0466  2.0494
  305MOL0     H40243   9.306   0.151  10.430  0.1927 -1.6020 -0.7622
  305MOL0     H40244   9.474   0.519  10.519 -0.3495 -2.0202 -0.7435
  305MOL0     H40245   9.648   0.616  10.637 -1.8500  1.9750 -1.8034
  305MOL0     H40246  10.880   1.710  11.120 -1.8678 -0.4377  1.2328
  305MOL0     H40247  11.128   1.763  11.080  1.0212 -0.2362 -0.2662
  305MOL0     H40248  11.583   1.881  11.032  0.0026 -0.7934  0.5776
  305MOL0     H40249  11.800   1.917  11.082  2.1108  0.4868  1.2295
  305MOL0     H40250  12.019   1.781  11.478  3.7360 -0.7493 -2.7093
  305MOL0     H40251  11.930   1.924  11.515 -2.8441 -0.2652 -2.2700
  305MOL0     H40252  12.140   2.061  11.444  1.5362  0.3897 -0.3622
  305MOL0     H40253  12.178   1.926  11.557 -2.5360 -0.4263  0.2918
  305MOL0     H40254  12.198   1.921  11.254 -1.6146 -0.8906  0.7418
  305MOL0     H40255  12.241   1.786  11.365  0.1085 -0.9762 -0.8956
  305MOL0     H40256  12.443   1.919  11.294 -1.1469  0.8159 -0.8527
  305MOL0     H40257  12.369   2.066  11.354  2.2345  0.4632  1.9884
  305MOL0     H40258  12.515   1.920  11.715 -2.3475  0.3122  0.9821
  305MOL0     H40259  11.736   1.826  11.499  1.0254  3.6754  0.3675
  305MOL0     H40260  11.509   1.790  11.453  0.5247 -2.8246  0.6621
  306MOL0     O40261   0.052  10.543   1.618  0.2387  0.6566  0.3271
  306MOL0     C40262   0.134  10.488   1.694 -0.1537  0.3664  0.9051
  306MOL0     O40263   0.111  10.395   1.784 -0.3002 -0.3416  0.4529
  306MOL0     C40264  -0.016  10.364   1.809  0.8875 -0.5068 -0.3593
  306MOL0     C40265  -0.104  10.449   1.880 -0.2929  0.0664 -0.3730
  306MOL0     C40266  -0.232  10.407   1.923 -0.4762 -0.5397  0.3502
  306MOL0     C40267  -0.282  10.284   1.886 -0.0303  0.0282  0.1951
  306MOL0     O40268  -0.406  10.236   1.918 -0.1401 -0.1857  0.8925
  306MOL0     C40269  -0.528  10.316   1.944  0.0101 -0.5113  0.2797
  306MOL0     C40270  -0.584  10.376   1.819 -0.2041  0.0864  0.2967
  306MOL0     C40271  -0.598  10.273   1.712 -0.0795 -0.3592  0.0106
  306MOL0     C40272  -0.652  10.343   1.590 -0.6136  0.7954 -0.0877
  306MOL0     C40273  -0.663  10.233   1.482  0.5979 -0.1473  0.5302
  306MOL0     C40274  -0.534  10.180   1.412  0.1496  0.2523 -1.0179
  306MOL0     C40275  -0.485  10.057   1.492 -0.1823  0.0521  0.7524
  306MOL0     C40276  -0.535   9.927   1.434 -0.3091  0.3195 -0.8148
  306MOL0     N40277  -0.679   9.909   1.433  0.4788 -0.6496  0.2780
  306MOL0     C40278  -0.757   9.958   1.334  0.0597 -0.1242 -0.3980
  306MOL0     C40279  -0.882   9.952   1.389  0.5902  0.4919 -0.8778
  306MOL0     C40280  -1.010  10.008   1.329  0.2254  0.3510 -0.9062
  306MOL0     C40281  -1.038  10.155   1.382 -1.2190  0.6569 -0.3160
  306MOL0     C40282  -1.003  10.258   1.275 -0.1419  0.0276  0.0555
  306MOL0     C40283  -1.105  10.281   1.160 -0.2916  0.0502 -0.4196
  306MOL0     O40284  -1.082  10.404   1.093 -0.9180  0.7096 -0.3657
  306MOL0     C40285  -1.200  10.451   1.045 -0.1332 -0.5847 -1.5122
  306MOL0     C40286  -1.310  10.378   1.007  0.1703 -1.0950  0.5552
  306MOL0     C40287  -1.434  10.436   0.990  0.3400  0.2653  0.1029
  306MOL0     C40288  -1.444  10.574   0.976  1.1547  1.0935 -0.3303
  306MOL0     C40289  -1.582  10.640   0.963 -0.3496 -1.1002 -0.4931
  306MOL0     O40290  -1.682  10.545   0.972 -0.9300 -0.0797  0.0133
  306MOL0     C40291  -1.812  10.573   0.938 -0.1038 -0.4027 -0.9354
  306MOL0     C40292  -1.893  10.660   1.012 -0.7766 -0.1804  0.2278
  306MOL0     C40293  -2.020  10.686   0.979 -0.1691 -0.1138 -0.0674
  306MOL0     C40294  -2.086  10.627   0.865  0.0412  0.2898  0.8172
  306MOL0     O40295  -2.225  10.622   0.835 -0.2478 -0.3084  0.2456
  306MOL0     C40296  -2.307  10.713   0.915  0.4265 -0.0347 -0.3014
  306MOL0     C40297  -2.460  10.694   0.888 -0.3703 -0.4140  0.3250
  306MOL0     C40298  -2.532  10.828   0.875 -0.4208  0.1061  0.7828
  306MOL0     C40299  -2.682  10.811   0.845  0.7087 -0.5909  0.2235
  306MOL0     C40300  -2.761  10.937   0.890  0.2186 -0.5479  0.3417
  306MOL0     C40301  -2.784  10.952   1.036 -0.0455  0.5704 -0.2267
  306MOL0     C40302  -2.887  11.073   1.073  0.0088 -0.1344  0.3122
  306MOL0     C40303  -2.911  11.080   1.220  0.2605  0.4830 -0.0731
  306MOL0    Cl40304  -3.000  10.950   1.277  0.2637  0.2117  0.1395
  306MOL0     C40305  -2.007  10.533   0.787 -0.9004 -0.2888  0.2001
  306MOL0     C40306  -1.869  10.504   0.827  0.6788 -0.5358  0.4403
  306MOL0     O40307  -1.598  10.762   0.948  0.7476 -0.1128  0.2002
  306MOL0     C40308  -1.329  10.649   0.976 -0.3678  0.4982  0.0476
  306MOL0     C40309  -1.209  10.588   1.019  0.2473 -0.9303  0.1794
  306MOL0     N40310  -0.876   9.910   1.517  0.5532  0.0216 -0.5455
  306MOL0     N40311  -0.749   9.874   1.542  0.9303  0.4069  0.3829
  306MOL0     C40312  -0.208  10.205   1.805  0.3264  0.1066 -0.6257
  306MOL0     C40313  -0.076  10.244   1.767 -0.4126 -0.1386  0.4801
  306MOL0     C40314   0.268  10.533   1.678  0.4720 -0.1616 -0.5387
  306MOL0     C40315   0.314  10.627   1.583 -0.8795 -0.9433  0.0806
  306MOL0     C40316   0.444  10.662   1.568 -0.0409 -0.7700  0.7778
  306MOL0     C40317   0.551  10.597   1.634 -0.6604  1.5263 -0.2965
  306MOL0     O40318   0.684  10.639   1.621  0.0886 -0.6485 -0.3783
  306MOL0     C40319   0.781  10.543   1.579 -0.8373  1.0000 -0.6979
  306MOL0     C40320   0.866  10.515   1.703  0.4847 -0.4701 -0.1243
  306MOL0     C40321   1.009  10.464   1.664  0.4636 -1.0098  0.9607
  306MOL0     C40322   1.089  10.443   1.798 -0.8341 -0.1929  0.5836
  306MOL0     C40323   1.221  10.395   1.751 -0.5910 -0.7534  0.0475
  306MOL0     C40324   1.335  10.357   1.708  0.3029 -0.1110  1.2194
  306MOL0     C40325   0.508  10.495   1.713 -0.5092  0.5111 -0.9784
  306MOL0     C40326   0.369  10.463   1.740 -0.2462  0.2747  0.2500
  306MOL0     H40327  -0.057  10.539   1.919 -3.7643  1.3945  1.0869
  306MOL0     H40328  -0.278  10.473   1.997  1.2008 -0.5477  1.4464
  306MOL0     H40329  -0.501  10.393   2.017 -1.1503 -0.1661  0.3613
  306MOL0     H40330  -0.605  10.260   1.998  2.2113 -0.2801  4.0078
  306MOL0     H40331  -0.529  10.463   1.782 -1.0185  0.3394 -0.3520
  306MOL0     H40332  -0.682  10.419   1.842 -1.1972 -2.3569  0.9873
  306MOL0     H40333  -0.668  10.199   1.752 -0.8928  0.8160  0.8239
  306MOL0     H40334  -0.498  10.238   1.687 -0.4500 -1.7351  0.3793
  306MOL0     H40335  -0.752  10.381   1.613  0.0746  2.9582 -0.4408
  306MOL0     H40336  -0.574  10.416   1.567 -0.6553  0.9284  0.1862
  306MOL0     H40337  -0.724  10.277   1.402 -1.4945 -0.3569  1.9161
  306MOL0     H40338  -0.728  10.152   1.517 -2.4704  2.1378  0.5706
  306MOL0     H40339  -0.462  10.261   1.423  1.8198 -0.8908 -2.8706
  306MOL0     H40340  -0.552  10.164   1.306 -0.9087 -0.3001 -0.7698
  306MOL0     H40341  -0.376  10.068   1.485 -0.5038  2.7618 -2.5410
  306MOL0     H40342  -0.510  10.057   1.599  0.7496  2.9354  1.0450
  306MOL0     H40343  -0.502   9.846   1.500  1.3829  0.6286 -1.2304
  306MOL0     H40344  -0.492   9.900   1.337 -0.1783 -1.0858 -0.3787
  306MOL0     H40345  -0.734   9.999   1.237  0.8424  1.0664  0.2604
  306MOL0     H40346  -1.100   9.954   1.361  2.5911 -2.5166  1.5414
  306MOL0     H40347  -1.009  10.001   1.220 -1.5547  1.0665 -0.9951
  306MOL0     H40348  -0.984  10.162   1.478  0.5147 -2.7174 -0.8951
  306MOL0     H40349  -1.143  10.178   1.402 -0.9399  1.8482 -0.1192
  306MOL0     H40350  -0.990  10.348   1.336  2.9593  0.2351 -0.7038
  306MOL0     H40351  -0.909  10.225   1.230 -1.1333 -1.3686 -1.0735
  306MOL0     H40352  -1.202  10.291   1.209 -0.4682  2.1246 -1.0890
  306MOL0     H40353  -1.118  10.183   1.114  0.3562 -0.0771 -0.3406
  306MOL0     H40354  -1.321  10.270   1.016  1.8076 -1.2798  0.6072
  306MOL0     H40355  -1.515  10.366   0.971 -0.3087  1.0350 -0.0262
  306MOL0     H40356  -1.857  10.720   1.095 -0.9888  1.9540 -1.1478
  306MOL0     H40357  -2.069  10.763   1.039 -1.5210 -1.5704  0.7672
  306MOL0     H40358  -2.271  10.816   0.909 -0.7051  0.3682 -0.4059
  306MOL0     H40359  -2.302  10.683   1.020 -1.1613  2.3438  0.5503
  306MOL0     H40360  -2.492  10.620   0.962 -2.3622 -1.5045 -1.5003
  306MOL0     H40361  -2.477  10.657   0.787  0.1400  2.3261 -0.8437
  306MOL0     H40362  -2.482  10.897   0.807  1.9624 -2.0251  0.1712
  306MOL0     H40363  -2.526  10.873   0.975 -2.7928  2.3371  0.0151
  306MOL0     H40364  -2.686  10.792   0.737 -0.5893  0.2187  0.1007
  306MOL0     H40365  -2.709  10.727   0.909  0.7314  1.2295  2.7899
  306MOL0     H40366  -2.856  10.932   0.836  0.9483 -0.2222 -1.0099
  306MOL0     H40367  -2.711  11.021   0.841  0.4799 -1.6504 -1.3823
  306MOL0     H40368  -2.690  10.974   1.087 -0.3238  1.3746 -0.0315
  306MOL0     H40369  -2.815  10.857   1.080  0.8957 -0.3767 -1.5529
  306MOL0     H40370  -2.838  11.170   1.056  0.3764 -0.0775  1.6270
  306MOL0     H40371  -2.980  11.060   1.017  0.8226 -1.9175 -0.7038
  306MOL0     H40372  -2.964  11.171   1.249 -1.0746 -1.0182  2.4915
  306MOL0     H40373  -2.821  11.073   1.281  0.2823  0.4009 -0.1145
  306MOL0     H40374  -2.035  10.473   0.701  0.6238 -2.8281  1.3332
  306MOL0     H40375  -1.805  10.440   0.768  0.7630 -0.9245  0.9460
  306MOL0     H40376  -1.339  10.756   0.965  1.1901  0.7709  1.0536
  306MOL0     H40377  -1.128  10.654   1.048 -0.3463 -0.4708  0.8223
  306MOL0     H40378  -0.245  10.108   1.775  0.9859  0.0482 -1.2719
  306MOL0     H40379  -0.012  10.196   1.693  1.4860  2.1551  0.5265
  306MOL0     H40380   0.243  10.664   1.510  1.8849  0.8805 -1.8701
  306MOL0     H40381   0.486  10.732   1.497  1.7478 -1.7949  0.7669
  306MOL0     H40382   0.842  10.583   1.497  1.4343 -1.8648 -0.5447
  306MOL0     H40383   0.746  10.447   1.541  3.7431 -0.7563 -1.1700
  306MOL0     H40384   0.867  10.610   1.759  2.3949  0.5084 -1.6833
  306MOL0     H40385   0.820  10.429   1.752 -0.4720 -0.8312 -1.6123
  306MOL0     H40386   1.062  10.531   1.596 -2.8690  1.6410  0.6869
  306MOL0     H40387   1.005  10.366   1.615 -0.2597  0.6951 -2.7409
  306MOL0     H40388   1.091  10.542   1.844  0.3664  0.5672 -0.9966
  306MOL0     H40389   1.054  10.366   1.868  4.5690 -2.8800  0.8468
  306MOL0     H40390   1.421  10.305   1.672  1.3051  1.1862  1.6825
  306MOL0     H40391   0.594  10.449   1.760 -2.4822 -0.8810  1.5399
  306MOL0     H40392   0.348  10.373   1.796  0.4078 -1.2682 -1.8578
  307MOL0     O40393   0.824   3.894   3.470  0.5033 -0.1672 -0.2054
  307MOL0     C40394   0.777   4.010   3.482 -0.0973 -0.1596  0.4435
  307MOL0     O40395   0.817   4.099   3.570  0.4110 -0.7055 -0.6297
  307MOL0     C40396   0.894   4.054   3.685  0.4169 -1.0391 -0.2029
  307MOL0     C40397   1.004   3.974   3.676 -0.4131 -0.3925 -0.2988
  307MOL0     C40398   1.084   3.956   3.794  0.0159 -0.1585  0.4835
  307MOL0     C40399   1.034   3.982   3.923  0.5182  0.2663 -0.1468
  307MOL0     O40400   1.099   3.964   4.054  0.2545  1.0290 -0.7667
  307MOL0     C40401   1.240   3.984   4.042  0.5962  0.5783  0.2005
  307MOL0     C40402   1.300   4.017   4.179 -0.4425 -0.3591  0.3513
  307MOL0     C40403   1.456   4.024   4.169 -0.3721  0.2861  0.1054
  307MOL0     C40404   1.514   4.145   4.120  0.0879 -0.5558  0.4341
  307MOL0     C40405   1.676   4.131   4.109  0.6656 -0.0314 -0.7141
  307MOL0     C40406   1.741   4.268   4.107  0.0868  0.4309  0.1443
  307MOL0     C40407   1.884   4.262   4.067 -0.6793 -0.0744 -1.0334
  307MOL0     C40408   1.969   4.163   4.145 -0.9529  0.0236 -0.4140
  307MOL0     N40409   2.113   4.177   4.117  0.2875 -0.3088  0.5256
  307MOL0     C40410   2.194   4.280   4.149  0.3288 -0.4260  0.3737
  307MOL0     C40411   2.320   4.234   4.146  0.4886  0.0599  0.2737
  307MOL0     C40412   2.438   4.308   4.187  0.4923  0.7643 -0.5222
  307MOL0     C40413   2.535   4.328   4.081 -0.2034 -1.1335 -0.1146
  307MOL0     C40414   2.680   4.365   4.144 -0.3850  0.4462 -0.4492
  307MOL0     C40415   2.790   4.315   4.048  0.8859  0.0854  0.1314
  307MOL0     O40416   2.816   4.178   4.035 -0.2071 -0.6752  0.0816
  307MOL0     C40417   2.889   4.109   4.131 -0.0539  1.5397 -0.2681
  307MOL0     C40418   2.977   4.174   4.222  0.4259  0.0146  1.3734
  307MOL0     C40419   3.054   4.094   4.306  0.4020  0.0978  0.2664
  307MOL0     C40420   3.044   3.952   4.306 -0.2080  0.0699 -0.2160
  307MOL0     C40421   3.137   3.887   4.395 -0.3022  0.0303  1.0802
  307MOL0     O40422   3.145   3.933   4.517 -0.5273 -0.3076 -0.4786
  307MOL0     C40423   3.226   3.874   4.607  0.0267 -0.0609 -0.4310
  307MOL0     C40424   3.362   3.852   4.593  0.3096  0.3580  0.0097
  307MOL0     C40425   3.432   3.766   4.678 -0.5019 -0.5050  0.4138
  307MOL0     C40426   3.362   3.696   4.779  0.6832  0.0954  0.5127
  307MOL0     O40427   3.437   3.606   4.841 -0.2466  0.4266  0.0020
  307MOL0     C40428   3.375   3.482   4.891 -0.9957 -0.7420  0.1113
  307MOL0     C40429   3.459   3.406   4.985  0.0731 -0.6729  0.1738
  307MOL0     C40430   3.583   3.363   4.907  0.0890  0.1661  0.6847
  307MOL0     C40431   3.697   3.308   4.987  0.4742  0.3996 -1.1000
  307MOL0     C40432   3.833   3.295   4.909 -0.5697  0.4837 -0.0352
  307MOL0     C40433   3.946   3.204   4.968  0.3126  0.9875  0.3097
  307MOL0     C40434   4.059   3.171   4.865  0.3300  0.8027  0.3369
  307MOL0     C40435   4.201   3.116   4.918  0.5040  0.3655  0.6333
  307MOL0    Cl40436   4.162   3.009   5.056  0.1003 -0.2098  0.2025
  307MOL0     C40437   3.224   3.730   4.802 -0.1451 -0.0628 -0.0433
  307MOL0     C40438   3.157   3.814   4.712 -0.0124 -0.1321 -0.8658
  307MOL0     O40439   3.199   3.789   4.351 -0.2313 -0.0498 -0.2296
  307MOL0     C40440   2.944   3.889   4.243  0.5518 -0.4059  0.2645
  307MOL0     C40441   2.880   3.965   4.143  0.1016 -0.2530  0.5129
  307MOL0     N40442   2.309   4.102   4.102 -1.0939  0.2764  0.3002
  307MOL0     N40443   2.188   4.068   4.078  0.0641 -0.2645 -0.2653
  307MOL0     C40444   0.908   4.039   3.934 -0.4793 -0.4087  0.1509
  307MOL0     C40445   0.849   4.088   3.815 -1.1755 -0.1817 -0.0146
  307MOL0     C40446   0.671   4.050   3.384 -0.3194  0.2907 -0.8667
  307MOL0     C40447   0.630   3.957   3.287 -0.2929  0.2086  0.2299
  307MOL0     C40448   0.534   3.987   3.196  0.0847 -0.3202  0.3867
  307MOL0     C40449   0.478   4.115   3.190  0.4853 -0.5098 -0.2967
  307MOL0     O40450   0.389   4.151   3.095  0.0102 -0.1205  0.1985
  307MOL0     C40451   0.337   4.053   3.014 -0.5013  0.6736  1.3088
  307MOL0     C40452   0.234   3.944   3.076 -0.0497 -0.5695  0.4088
  307MOL0     C40453   0.095   3.969   3.030 -0.4093  0.4810  0.6566
  307MOL0     C40454   0.004   3.852   3.071  0.0470 -0.4028 -0.1154
  307MOL0     C40455  -0.043   3.862   3.209  0.3660  0.0233  0.0832
  307MOL0     C40456  -0.099   3.870   3.323  1.0573  0.0795 -1.0447
  307MOL0     C40457   0.522   4.217   3.278  0.3532  0.5857 -0.4556
  307MOL0     C40458   0.621   4.180   3.378  0.6094 -0.5234 -0.2099
  307MOL0     H40459   1.028   3.930   3.579 -2.0042  0.2728 -1.0354
  307MOL0     H40460   1.180   3.907   3.783 -1.0010 -2.2677  0.5389
  307MOL0     H40461   1.270   4.046   3.957  2.3192 -3.3669 -2.3764
  307MOL0     H40462   1.284   3.887   4.016  0.4183  0.7858 -0.8968
  307MOL0     H40463   1.278   3.941   4.255 -0.8201  0.3456  0.9606
  307MOL0     H40464   1.268   4.119   4.202  3.2904  1.3965 -1.2739
  307MOL0     H40465   1.493   3.934   4.120  0.0205  1.3045 -1.5185
  307MOL0     H40466   1.492   4.013   4.272  3.4352  3.7187 -0.6397
  307MOL0     H40467   1.480   4.166   4.018  1.9329 -0.9097 -0.2934
  307MOL0     H40468   1.487   4.228   4.186  1.0929 -1.8991  2.6575
  307MOL0     H40469   1.700   4.070   4.022 -0.7633  1.7549 -2.4668
  307MOL0     H40470   1.704   4.088   4.205 -1.9455  2.3451  1.2840
  307MOL0     H40471   1.714   4.319   4.200 -2.8159  2.9687 -1.8646
  307MOL0     H40472   1.693   4.327   4.028 -1.5574 -1.3547 -0.2745
  307MOL0     H40473   1.895   4.243   3.959  1.8998 -0.7543 -0.7200
  307MOL0     H40474   1.924   4.362   4.089 -0.0998  0.1132 -2.7556
  307MOL0     H40475   1.945   4.061   4.113  1.9843 -0.9538  0.1529
  307MOL0     H40476   1.954   4.175   4.252  1.8675  0.9899 -0.0458
  307MOL0     H40477   2.157   4.376   4.186 -0.6989 -0.1130 -1.3889
  307MOL0     H40478   2.466   4.242   4.269 -3.1330  0.6538  0.8401
  307MOL0     H40479   2.404   4.406   4.224  0.9506  0.8311 -0.2742
  307MOL0     H40480   2.504   4.416   4.025  0.5588  0.2222  1.5066
  307MOL0     H40481   2.542   4.232   4.029  2.0669 -1.9711  1.5899
  307MOL0     H40482   2.693   4.474   4.151  1.4874  0.3327 -1.5426
  307MOL0     H40483   2.696   4.317   4.240 -3.6403  0.2902  0.1491
  307MOL0     H40484   2.886   4.363   4.073  0.7192  1.1927 -1.2175
  307MOL0     H40485   2.758   4.349   3.949 -0.9612 -1.3010  0.2086
  307MOL0     H40486   2.995   4.281   4.217 -1.4092  0.3200  0.6117
  307MOL0     H40487   3.119   4.143   4.378 -0.8610  1.9831  0.2019
  307MOL0     H40488   3.423   3.883   4.508  1.1544 -1.6117 -0.1402
  307MOL0     H40489   3.538   3.741   4.675 -0.4447 -0.4137  1.3946
  307MOL0     H40490   3.351   3.415   4.808 -2.7934  2.3319 -2.0491
  307MOL0     H40491   3.287   3.514   4.949 -0.4951 -0.6038  0.8107
  307MOL0     H40492   3.408   3.313   5.009 -0.4363 -0.8991 -1.6229
  307MOL0     H40493   3.474   3.465   5.076 -0.5282 -0.4910  0.1579
  307MOL0     H40494   3.627   3.448   4.854 -0.6474  1.1713  1.6708
  307MOL0     H40495   3.549   3.282   4.842 -0.5555  1.7935 -1.0910
  307MOL0     H40496   3.715   3.371   5.075 -2.6151 -0.2461  0.1544
  307MOL0     H40497   3.677   3.205   5.019  2.2298 -0.1317 -1.6305
  307MOL0     H40498   3.871   3.395   4.883 -3.5234  0.7077 -4.7060
  307MOL0     H40499   3.818   3.265   4.805  3.0539  0.0629 -0.5927
  307MOL0     H40500   3.919   3.117   5.029  1.8295  2.1398  2.8056
  307MOL0     H40501   3.995   3.263   5.046  0.0868 -0.9107  1.9887
  307MOL0     H40502   4.005   3.096   4.807 -2.4999  3.2415 -0.4458
  307MOL0     H40503   4.089   3.256   4.803  0.6309 -0.1517 -0.8615
  307MOL0     H40504   4.266   3.195   4.956  0.6062 -0.0204  1.2825
  307MOL0     H40505   4.242   3.055   4.837 -0.3172 -0.7596  1.0275
  307MOL0     H40506   3.174   3.685   4.887 -0.4520  1.2674  0.5113
  307MOL0     H40507   3.053   3.833   4.734 -0.1277 -0.2917 -1.2708
  307MOL0     H40508   2.917   3.784   4.252 -0.8358 -0.1597 -0.6613
  307MOL0     H40509   2.809   3.911   4.081  0.1623 -0.9629  1.0527
  307MOL0     H40510   0.867   4.050   4.033 -2.2534 -1.4663 -0.4149
  307MOL0     H40511   0.758   4.147   3.814 -1.2441 -0.2197  1.6917
  307MOL0     H40512   0.685   3.864   3.274 -0.3639  0.3273 -1.0205
  307MOL0     H40513   0.493   3.907   3.135  2.2929 -0.3845 -1.1129
  307MOL0     H40514   0.423   4.000   2.972  0.5338  0.1921  3.8262
  307MOL0     H40515   0.287   4.115   2.939 -2.3366 -0.3807  1.6096
  307MOL0     H40516   0.264   3.840   3.057 -1.2391 -0.8595  0.0132
  307MOL0     H40517   0.226   3.962   3.184  0.2711  2.2569  0.0377
  307MOL0     H40518   0.098   3.964   2.921 -2.7678 -0.2135  0.5588
  307MOL0     H40519   0.051   4.061   3.069  0.8413  0.9594  0.9561
  307MOL0     H40520  -0.083   3.863   3.005  1.2386 -1.3467 -1.9437
  307MOL0     H40521   0.037   3.756   3.030  0.0265 -0.1543 -0.7172
  307MOL0     H40522  -0.149   3.871   3.418 -1.7406  0.8779 -2.4043
  307MOL0     H40523   0.476   4.315   3.289 -0.3910 -0.0372  2.8483
  307MOL0     H40524   0.658   4.260   3.441 -0.7768  1.1243 -1.3904
  308MOL0     O40525   7.225   6.816  11.361  0.3450  0.0558  0.0245
  308MOL0     C40526   7.293   6.914  11.332 -0.7488  0.1319 -0.7145
  308MOL0     O40527   7.251   7.038  11.319  0.0824 -0.2375  1.3511
  308MOL0     C40528   7.120   7.062  11.347  0.0956 -0.2992  0.2085
  308MOL0     C40529   7.087   7.112  11.469  0.3158 -0.8423  0.0321
  308MOL0     C40530   6.952   7.152  11.492 -0.9782  0.3804 -0.2292
  308MOL0     C40531   6.854   7.130  11.399 -0.3634  0.3783  0.2510
  308MOL0     O40532   6.733   7.178  11.449 -0.1481 -0.2654  0.8199
  308MOL0     C40533   6.620   7.179  11.355 -0.1769  0.1813 -0.7184
  308MOL0     C40534   6.493   7.208  11.433  0.1133 -0.0147 -0.3451
  308MOL0     C40535   6.376   7.205  11.336  1.1972  0.0337 -0.9109
  308MOL0     C40536   6.255   7.259  11.423 -0.0962 -0.6244  1.0345
  308MOL0     C40537   6.120   7.249  11.348  0.9356 -0.1554  0.8417
  308MOL0     C40538   5.995   7.293  11.420  0.2800 -0.4821  0.1949
  308MOL0     C40539   5.865   7.289  11.334  0.2278 -0.2982  0.2212
  308MOL0     C40540   5.738   7.317  11.412 -0.0056  0.3858 -0.7421
  308MOL0     N40541   5.717   7.452  11.476 -0.1385 -0.2821  0.1330
  308MOL0     C40542   5.775   7.480  11.601 -0.5220 -0.5117  0.7005
  308MOL0     C40543   5.710   7.588  11.650  0.5092 -0.6989 -0.6182
  308MOL0     C40544   5.726   7.658  11.791 -0.4455 -0.1325  0.3399
  308MOL0     C40545   5.864   7.730  11.803  0.1732 -0.7246  0.3276
  308MOL0     C40546   5.873   7.843  11.695 -0.7927 -0.1621 -0.2975
  308MOL0     C40547   5.750   7.940  11.688  0.8338 -0.1393 -0.2301
  308MOL0     O40548   5.715   8.008  11.812  0.9380  0.2009 -0.4811
  308MOL0     C40549   5.586   8.047  11.834  0.9234  1.0192  1.3148
  308MOL0     C40550   5.478   8.064  11.731 -1.1701  1.4444 -0.1864
  308MOL0     C40551   5.353   8.115  11.768  0.1590 -0.5599  0.3036
  308MOL0     C40552   5.328   8.139  11.907 -0.3441  0.4605 -0.3881
  308MOL0     C40553   5.191   8.180  11.956 -0.1826  0.4674  0.1201
  308MOL0     O40554   5.095   8.134  11.879  0.4965 -0.3960  1.0574
  308MOL0     C40555   4.982   8.205  11.868  0.5036  0.2591  0.1665
  308MOL0     C40556   4.975   8.338  11.876 -0.1775  0.2294 -0.5782
  308MOL0     C40557   4.864   8.416  11.867  0.4732  0.1519 -0.1377
  308MOL0     C40558   4.738   8.350  11.854 -0.3582  0.5058  0.6574
  308MOL0     O40559   4.618   8.402  11.865  0.4876  0.0600  0.9284
  308MOL0     C40560   4.611   8.538  11.867 -0.1896 -0.0876  0.5679
  308MOL0     C40561   4.466   8.589  11.868  0.0146  0.0688  0.5705
  308MOL0     C40562   4.374   8.541  11.989  0.6942  0.1804 -0.3902
  308MOL0     C40563   4.249   8.633  11.984  1.0020  0.5884  1.0160
  308MOL0     C40564   4.129   8.574  12.064  0.3446 -0.1257  0.2935
  308MOL0     C40565   4.024   8.518  11.977  0.0046 -0.1629  0.1877
  308MOL0     C40566   3.945   8.399  12.035  0.3095 -0.4361 -0.3711
  308MOL0     C40567   3.854   8.449  12.147 -0.5670 -0.4422 -0.6248
  308MOL0    Cl40568   3.728   8.564  12.083  0.0691  0.0450  0.3411
  308MOL0     C40569   4.741   8.214  11.841 -1.0198  0.4852 -0.3305
  308MOL0     C40570   4.863   8.143  11.844  0.0088  0.0798  0.9264
  308MOL0     O40571   5.180   8.236  12.063  0.7415 -0.2322 -0.2974
  308MOL0     C40572   5.419   8.105  12.002  0.3659  0.4064 -0.2228
  308MOL0     C40573   5.552   8.071  11.961 -0.2475  0.1451 -1.1177
  308MOL0     N40574   5.615   7.627  11.552 -1.4204 -0.5165 -0.1340
  308MOL0     N40575   5.622   7.545  11.451 -0.8470  0.4315 -0.5571
  308MOL0     C40576   6.887   7.073  11.272  0.3493  0.1594 -0.2548
  308MOL0     C40577   7.021   7.042  11.252 -0.4721  0.9807 -0.1451
  308MOL0     C40578   7.434   6.884  11.320 -0.0133  0.0231 -0.3930
  308MOL0     C40579   7.491   6.772  11.373 -1.0450 -0.0873 -0.1785
  308MOL0     C40580   7.628   6.749  11.360 -0.6399  0.0923  0.8476
  308MOL0     C40581   7.717   6.851  11.310  0.6679  0.1857  0.7899
  308MOL0     O40582   7.850   6.837  11.296  0.4370 -0.3454 -0.5687
  308MOL0     C40583   7.904   6.713  11.257 -0.1759 -0.2417 -0.4989
  308MOL0     C40584   8.049   6.709  11.318  0.2365 -0.4108  0.1244
  308MOL0     C40585   8.132   6.588  11.264 -0.3841 -0.2284 -0.5291
  308MOL0     C40586   8.244   6.634  11.181  0.2285  0.6322  0.5885
  308MOL0     C40587   8.317   6.515  11.125  0.0238 -0.7785 -0.4138
  308MOL0     C40588   8.349   6.413  11.057 -0.4879  0.6689 -0.4172
  308MOL0     C40589   7.656   6.960  11.253  0.9744 -0.5916  0.1758
  308MOL0     C40590   7.517   6.968  11.255  0.3028 -0.1581 -0.5253
  308MOL0     H40591   7.156   7.127  11.551  0.3616  1.6876 -0.3873
  308MOL0     H40592   6.931   7.191  11.591  0.5218 -0.8298  0.6222
  308MOL0     H40593   6.614   7.082  11.306 -1.7287 -1.0030  1.6301
  308MOL0     H40594   6.640   7.253  11.277  2.2373 -2.0935 -2.4263
  308MOL0     H40595   6.506   7.306  11.478 -0.9284  0.0843 -0.2351
  308MOL0     H40596   6.486   7.139  11.518  0.6470 -0.1852 -0.4324
  308MOL0     H40597   6.357   7.101  11.308  1.3098 -0.6291  1.3188
  308MOL0     H40598   6.391   7.266  11.246 -0.3540  1.4774 -0.2549
  308MOL0     H40599   6.251   7.218  11.524  3.0110  2.0753  2.4692
  308MOL0     H40600   6.278   7.364  11.444  2.5272 -0.9731  0.3021
  308MOL0     H40601   6.106   7.142  11.331 -0.4333  0.3032 -1.2942
  308MOL0     H40602   6.122   7.303  11.253 -0.8374 -1.0593  0.2621
  308MOL0     H40603   6.020   7.393  11.457  4.6364 -1.8731  1.6914
  308MOL0     H40604   5.966   7.233  11.507  0.0437  1.0822  1.2363
  308MOL0     H40605   5.872   7.361  11.252  0.7498 -0.6110 -0.0089
  308MOL0     H40606   5.862   7.187  11.295  3.6977 -1.1340  1.7145
  308MOL0     H40607   5.743   7.250  11.498 -1.3259  4.1600  2.5613
  308MOL0     H40608   5.644   7.305  11.357 -1.9674  1.3194  2.1934
  308MOL0     H40609   5.859   7.427  11.645  1.0773  0.9861 -0.4045
  308MOL0     H40610   5.712   7.585  11.872  4.2954 -0.4200  1.1709
  308MOL0     H40611   5.654   7.740  11.800  2.8364  2.8779  0.9705
  308MOL0     H40612   5.946   7.659  11.791 -1.7598 -2.7617 -2.3662
  308MOL0     H40613   5.859   7.767  11.906  0.1978  0.9613 -0.2465
  308MOL0     H40614   5.970   7.889  11.712 -1.4464  1.3110 -0.4170
  308MOL0     H40615   5.877   7.805  11.592 -0.0571  2.2084 -1.1899
  308MOL0     H40616   5.664   7.899  11.634  1.1489  1.8151 -2.3851
  308MOL0     H40617   5.767   8.027  11.624 -0.6017 -1.1177 -2.0407
  308MOL0     H40618   5.507   8.033  11.631  2.4805 -2.7901  1.8375
  308MOL0     H40619   5.279   8.138  11.692 -0.4669  1.2714  1.4002
  308MOL0     H40620   5.063   8.399  11.897 -1.1385  0.8351  2.0647
  308MOL0     H40621   4.868   8.524  11.876 -0.7888  0.2209 -0.3084
  308MOL0     H40622   4.669   8.587  11.788 -2.5341  0.2412 -1.0347
  308MOL0     H40623   4.651   8.571  11.963 -3.1142  1.1395  1.4887
  308MOL0     H40624   4.432   8.560  11.768  0.1225  1.5520  0.0806
  308MOL0     H40625   4.476   8.698  11.871 -1.7676  0.3169 -0.7548
  308MOL0     H40626   4.424   8.551  12.086 -0.6949  0.9483  0.2723
  308MOL0     H40627   4.355   8.434  11.979 -2.2068  0.6130 -0.3788
  308MOL0     H40628   4.268   8.728  12.035  0.0823  1.0615  0.5020
  308MOL0     H40629   4.227   8.662  11.881  3.7008 -1.4934 -0.2475
  308MOL0     H40630   4.073   8.651  12.119  1.6609  0.4427  0.8726
  308MOL0     H40631   4.177   8.501  12.130  0.9805 -0.6723 -0.7483
  308MOL0     H40632   4.077   8.477  11.890 -1.1694 -0.7866 -0.2537
  308MOL0     H40633   3.952   8.590  11.938 -0.4969 -0.3650  0.7295
  308MOL0     H40634   3.884   8.356  11.955  0.0101 -0.7416  0.0154
  308MOL0     H40635   4.003   8.315  12.074 -1.3120 -1.1919  0.5309
  308MOL0     H40636   3.908   8.512  12.218 -3.8441  3.1869 -1.0121
  308MOL0     H40637   3.815   8.364  12.204  0.6683 -0.9275 -0.4768
  308MOL0     H40638   4.643   8.168  11.828  0.4763 -3.2179  0.3994
  308MOL0     H40639   4.864   8.036  11.829  2.8423 -0.2223  2.4385
  308MOL0     H40640   5.377   8.095  12.102 -0.8812  1.8295 -0.5624
  308MOL0     H40641   5.624   8.086  12.041 -0.7893  2.0498 -0.9267
  308MOL0     H40642   6.820   7.060  11.188  0.5302 -4.0786  0.0095
  308MOL0     H40643   7.061   7.014  11.155  2.3020  3.9640 -0.0246
  308MOL0     H40644   7.431   6.709  11.439 -2.2664 -1.5317 -2.5293
  308MOL0     H40645   7.651   6.651  11.400  0.9378  0.0925  0.0183
  308MOL0     H40646   7.935   6.705  11.152  1.6166 -3.5342  0.1213
  308MOL0     H40647   7.847   6.626  11.291  0.9934 -0.7017  0.3866
  308MOL0     H40648   8.102   6.800  11.291  0.7094 -0.5814  0.4561
  308MOL0     H40649   8.035   6.702  11.427 -0.9896 -0.4140 -0.0208
  308MOL0     H40650   8.071   6.515  11.210 -1.1973  0.6572 -0.8578
  308MOL0     H40651   8.163   6.541  11.357 -0.9213  1.9709  0.8520
  308MOL0     H40652   8.210   6.693  11.095 -2.4734 -1.0024  0.4263
  308MOL0     H40653   8.314   6.692  11.242 -1.3867  0.7436  2.4419
  308MOL0     H40654   8.374   6.317  11.015 -2.0649  0.1527 -0.2493
  308MOL0     H40655   7.710   7.027  11.187 -1.8103 -2.5119 -4.5741
  308MOL0     H40656   7.473   7.053  11.204  1.8677  0.7392 -0.4485
  309MOL0     O40657   5.593   0.777   4.286  0.7166  0.1221  0.0425
  309MOL0     C40658   5.568   0.821   4.398  0.0900 -1.1557  0.0163
  309MOL0     O40659   5.650   0.826   4.511 -0.0431  0.5513  0.0861
  309MOL0     C40660   5.782   0.815   4.516 -1.0023  0.4060  0.1955
  309MOL0     C40661   5.864   0.777   4.408  0.0953  0.7991  0.5563
  309MOL0     C40662   6.001   0.778   4.418  0.2807  0.3617 -0.8155
  309MOL0     C40663   6.065   0.803   4.549  0.5500  1.0396  0.4669
  309MOL0     O40664   6.206   0.810   4.569 -0.5280 -0.2184  0.4368
  309MOL0     C40665   6.288   0.812   4.450  0.2070  0.1177 -0.0403
  309MOL0     C40666   6.436   0.810   4.483  0.1063  0.1817 -0.2710
  309MOL0     C40667   6.470   0.941   4.555 -0.5850  0.5991 -0.0804
  309MOL0     C40668   6.620   0.946   4.600 -0.1309 -0.0830  0.4864
  309MOL0     C40669   6.658   1.094   4.646 -0.2998  0.1273  0.4206
  309MOL0     C40670   6.781   1.087   4.722  0.7650  0.6972 -0.5867
  309MOL0     C40671   6.848   1.222   4.732 -0.0486  0.2064  0.2055
  309MOL0     C40672   6.968   1.230   4.823 -1.3023  0.8489 -0.4615
  309MOL0     N40673   6.999   1.370   4.816  0.6996  0.0833  0.6341
  309MOL0     C40674   7.062   1.438   4.718 -0.1272  0.0563 -0.4851
  309MOL0     C40675   7.108   1.551   4.775 -0.0561 -0.6488 -0.7510
  309MOL0     C40676   7.202   1.658   4.728 -0.4106  0.1960  0.0733
  309MOL0     C40677   7.143   1.745   4.617 -0.5366  0.4461  0.1234
  309MOL0     C40678   7.238   1.854   4.573  0.5347  0.2768  0.3788
  309MOL0     C40679   7.254   1.866   4.421  0.3836 -0.4765 -0.8054
  309MOL0     O40680   7.328   1.986   4.397 -0.7874 -0.3887 -1.0772
  309MOL0     C40681   7.463   1.977   4.416 -0.4343 -0.0606 -0.9292
  309MOL0     C40682   7.519   2.097   4.455 -0.5990  0.0535  0.5784
  309MOL0     C40683   7.658   2.129   4.439  0.5935  0.2552  0.0223
  309MOL0     C40684   7.744   2.027   4.392  0.2323 -0.4105  0.2902
  309MOL0     C40685   7.894   2.038   4.390  0.4554 -0.3318 -0.0115
  309MOL0     O40686   7.972   1.934   4.353  0.4904 -0.2375  0.6531
  309MOL0     C40687   8.095   1.965   4.296 -0.8652  0.5792  0.6962
  309MOL0     C40688   8.133   1.882   4.188 -0.8660 -0.8456  0.8330
  309MOL0     C40689   8.265   1.889   4.140 -0.1194 -0.1149  0.4181
  309MOL0     C40690   8.358   1.983   4.192 -0.5848 -0.1559 -0.3587
  309MOL0     O40691   8.481   1.992   4.124 -0.3579  0.0998  0.9102
  309MOL0     C40692   8.568   2.104   4.135 -0.6125 -0.0405  0.2268
  309MOL0     C40693   8.573   2.182   4.000  0.2347  0.3121  0.0095
  309MOL0     C40694   8.484   2.306   3.986 -0.0553  0.0424  0.1364
  309MOL0     C40695   8.344   2.294   4.050  0.3071  0.7662  0.1275
  309MOL0     C40696   8.258   2.416   4.011 -0.0321  0.2789 -0.9074
  309MOL0     C40697   8.115   2.398   4.065 -0.0331  0.3916  0.6397
  309MOL0     C40698   8.106   2.355   4.215 -0.0143 -0.2217  0.0828
  309MOL0     C40699   8.151   2.450   4.323 -0.0067  0.0836  0.1322
  309MOL0    Cl40700   8.072   2.614   4.319 -0.1013 -0.3547 -0.3677
  309MOL0     C40701   8.329   2.061   4.297  0.7015 -0.0800 -0.1196
  309MOL0     C40702   8.196   2.053   4.355  0.5595 -0.1167  0.3706
  309MOL0     O40703   7.936   2.145   4.420  0.3583  0.2638 -0.9405
  309MOL0     C40704   7.685   1.902   4.349 -1.6901 -0.5298 -0.1652
  309MOL0     C40705   7.552   1.879   4.357 -0.3946 -0.3678  0.7458
  309MOL0     N40706   7.070   1.552   4.908 -0.5500 -0.0684  0.2422
  309MOL0     N40707   7.007   1.440   4.933 -0.3183  0.0079 -0.5303
  309MOL0     C40708   5.984   0.808   4.660 -0.1956  0.3468  0.1864
  309MOL0     C40709   5.835   0.811   4.644 -0.6685  0.4320  0.0174
  309MOL0     C40710   5.432   0.860   4.427 -0.3239  0.3842 -0.7079
  309MOL0     C40711   5.320   0.834   4.346 -0.2855 -0.7997  0.7647
  309MOL0     C40712   5.187   0.869   4.384 -0.7357  0.0562 -0.8635
  309MOL0     C40713   5.170   0.912   4.515  0.4509 -0.0138  0.5026
  309MOL0     O40714   5.042   0.934   4.569  0.2593 -0.6226  1.0805
  309MOL0     C40715   4.922   0.895   4.496  0.4867  0.6912  0.3404
  309MOL0     C40716   4.793   0.956   4.556  0.2076 -0.1832 -0.6893
  309MOL0     C40717   4.778   1.103   4.519 -1.0047 -0.4085  0.2764
  309MOL0     C40718   4.631   1.152   4.506 -0.3025 -0.4627 -0.0353
  309MOL0     C40719   4.620   1.293   4.474 -0.4049  0.0950  0.2564
  309MOL0     C40720   4.598   1.406   4.455  0.3692 -0.4092 -0.2019
  309MOL0     C40721   5.281   0.929   4.593  0.9867 -0.5663 -1.1771
  309MOL0     C40722   5.404   0.904   4.554 -0.1468  0.4781 -0.5798
  309MOL0     H40723   5.821   0.759   4.310 -1.0552  0.2865  1.1354
  309MOL0     H40724   6.061   0.749   4.332  0.4689 -0.6500 -0.3493
  309MOL0     H40725   6.274   0.893   4.378  3.4011 -0.1817 -1.1989
  309MOL0     H40726   6.271   0.713   4.408 -2.1375  0.7210 -0.6227
  309MOL0     H40727   6.503   0.805   4.398 -0.1785  0.7253 -0.5340
  309MOL0     H40728   6.449   0.721   4.545 -1.8944  0.0652  0.0540
  309MOL0     H40729   6.412   0.952   4.647 -3.1537  1.1933 -1.6652
  309MOL0     H40730   6.469   1.027   4.488  4.4688  0.3955 -0.8645
  309MOL0     H40731   6.637   0.872   4.679  0.9578 -1.3454 -0.8769
  309MOL0     H40732   6.689   0.920   4.519 -2.8724 -0.4797 -1.9081
  309MOL0     H40733   6.577   1.139   4.705  0.4034  3.2984 -0.8277
  309MOL0     H40734   6.675   1.150   4.553  2.6388  0.2879  0.9683
  309MOL0     H40735   6.840   1.020   4.659  2.0496 -1.0924  2.2923
  309MOL0     H40736   6.776   1.029   4.815  0.3483 -0.5210 -1.3501
  309MOL0     H40737   6.873   1.247   4.628  1.8880 -3.2550 -0.3095
  309MOL0     H40738   6.773   1.287   4.776  0.2712  0.8621 -0.2088
  309MOL0     H40739   7.047   1.169   4.779 -2.3989 -0.9396 -0.0540
  309MOL0     H40740   6.944   1.192   4.923  1.5019 -0.0700 -0.0539
  309MOL0     H40741   7.083   1.407   4.616  2.4922  2.1093 -0.6707
  309MOL0     H40742   7.296   1.615   4.689 -0.4485  2.1225 -2.4004
  309MOL0     H40743   7.220   1.723   4.814  0.3406  1.0627 -0.7182
  309MOL0     H40744   7.046   1.787   4.646 -1.5512 -2.7257  1.7745
  309MOL0     H40745   7.120   1.671   4.539 -0.4533 -0.6519  1.1128
  309MOL0     H40746   7.204   1.951   4.609 -2.6589  0.3784 -2.3374
  309MOL0     H40747   7.334   1.831   4.620 -0.0936 -0.4458  1.3297
  309MOL0     H40748   7.153   1.877   4.380 -1.3419 -1.1032  2.9436
  309MOL0     H40749   7.290   1.775   4.372 -3.4319 -2.6697  0.0225
  309MOL0     H40750   7.449   2.170   4.494 -0.3046  0.5970  0.1162
  309MOL0     H40751   7.696   2.224   4.477  0.3983  1.0600 -1.7080
  309MOL0     H40752   8.066   1.816   4.136  0.3533 -1.4079 -0.0722
  309MOL0     H40753   8.296   1.827   4.056 -1.0181  0.9638 -0.7612
  309MOL0     H40754   8.667   2.060   4.150  1.6198  4.4389  0.2456
  309MOL0     H40755   8.568   2.162   4.227 -1.2135  2.3161 -1.1608
  309MOL0     H40756   8.548   2.107   3.924 -0.1070  1.3210 -0.8935
  309MOL0     H40757   8.671   2.220   3.971 -0.4186  1.5397 -0.6350
  309MOL0     H40758   8.461   2.326   3.881 -2.2021  3.2821  1.0831
  309MOL0     H40759   8.529   2.394   4.033 -1.3500 -0.7189  2.9803
  309MOL0     H40760   8.292   2.200   4.031  1.6088 -0.0043  0.1972
  309MOL0     H40761   8.373   2.299   4.156 -0.5735  3.0075  0.3160
  309MOL0     H40762   8.268   2.427   3.902 -0.7426  1.6230 -0.8666
  309MOL0     H40763   8.307   2.500   4.061 -2.9643  1.0086  0.9661
  309MOL0     H40764   8.071   2.319   4.003 -0.8071 -0.9010  2.7673
  309MOL0     H40765   8.067   2.493   4.039  1.3838  1.2297  1.0195
  309MOL0     H40766   8.003   2.332   4.242  0.1886  1.7145  3.0477
  309MOL0     H40767   8.158   2.260   4.230 -2.4576 -1.0955  5.5176
  309MOL0     H40768   8.258   2.472   4.318 -0.0475  0.5241  1.0405
  309MOL0     H40769   8.134   2.393   4.415 -4.1628  0.8858  0.0623
  309MOL0     H40770   8.407   2.123   4.339  2.1004 -3.4132  2.6395
  309MOL0     H40771   8.167   2.117   4.438  0.8816  1.1230 -0.4340
  309MOL0     H40772   7.745   1.830   4.295 -1.4457 -0.2010 -0.3348
  309MOL0     H40773   7.500   1.795   4.312 -2.0259  1.0859 -0.2377
  309MOL0     H40774   6.026   0.825   4.759 -0.1374 -2.2874  0.6768
  309MOL0     H40775   5.772   0.821   4.731 -1.8147 -4.0853 -0.0525
  309MOL0     H40776   5.340   0.783   4.252 -0.2670  0.1894  0.2140
  309MOL0     H40777   5.106   0.838   4.317 -0.4249  0.3322 -1.3725
  309MOL0     H40778   4.903   0.789   4.514 -2.4228  0.5506 -2.5711
  309MOL0     H40779   4.917   0.910   4.387 -3.1994 -0.7536  0.1497
  309MOL0     H40780   4.711   0.896   4.514 -1.4799 -0.3544  2.5407
  309MOL0     H40781   4.790   0.948   4.665  1.8700  2.1011 -0.3963
  309MOL0     H40782   4.823   1.116   4.420  0.3204  1.2134  1.0438
  309MOL0     H40783   4.825   1.174   4.587 -3.3741  3.2253 -1.5405
  309MOL0     H40784   4.577   1.088   4.436  1.9724 -2.0252 -0.4838
  309MOL0     H40785   4.582   1.132   4.601  0.5961 -2.2622  0.1003
  309MOL0     H40786   4.555   1.504   4.447  0.8765 -0.2215 -0.6759
  309MOL0     H40787   5.263   0.975   4.690  2.7879 -2.3522  0.1013
  309MOL0     H40788   5.484   0.911   4.627 -1.4087  0.6115  0.8251
  310MOL0     O40789   8.037   0.861   5.088 -0.8393  0.4010 -0.3320
  310MOL0     C40790   8.034   0.981   5.063 -0.7126 -0.7579 -0.7372
  310MOL0     O40791   7.930   1.041   5.001  0.6384  0.7715  0.3138
  310MOL0     C40792   7.816   0.967   4.990  0.2008  0.2492  0.1824
  310MOL0     C40793   7.706   1.010   5.074 -0.3046 -0.0545 -0.7216
  310MOL0     C40794   7.573   0.957   5.068  0.1415 -0.5774  0.0355
  310MOL0     C40795   7.553   0.849   4.977 -0.7008 -0.2253 -0.2882
  310MOL0     O40796   7.432   0.797   4.964 -0.2994  0.0134  0.9329
  310MOL0     C40797   7.329   0.892   4.947  1.3584 -0.8794  0.2086
  310MOL0     C40798   7.220   0.809   4.890  0.0096  0.6908  0.0139
  310MOL0     C40799   7.102   0.881   4.817 -0.6876  0.5470 -0.2264
  310MOL0     C40800   7.015   0.781   4.733  0.1825 -0.0697 -0.1058
  310MOL0     C40801   6.966   0.654   4.818 -0.0998 -0.1138 -0.3380
  310MOL0     C40802   6.883   0.552   4.725  0.2909  0.9962 -0.3671
  310MOL0     C40803   6.794   0.450   4.791 -0.0421 -0.6535  0.3315
  310MOL0     C40804   6.709   0.505   4.903 -0.6052  0.4058 -0.0324
  310MOL0     N40805   6.608   0.400   4.929 -0.1976 -0.2044 -0.1578
  310MOL0     C40806   6.482   0.375   4.879  0.1905  0.4877  0.4636
  310MOL0     C40807   6.431   0.268   4.952 -0.8920 -1.4729  0.7314
  310MOL0     C40808   6.299   0.194   4.922 -0.0129  0.5752  0.0760
  310MOL0     C40809   6.171   0.277   4.951 -0.2556 -0.5156 -0.5253
  310MOL0     C40810   6.060   0.185   4.942  0.2233  0.4990  0.1853
  310MOL0     C40811   5.934   0.253   4.998  0.4875  0.7812  0.5543
  310MOL0     O40812   5.825   0.160   4.978  0.0786  0.4732 -0.1449
  310MOL0     C40813   5.695   0.215   4.961  0.0551 -0.4375 -0.3220
  310MOL0     C40814   5.661   0.341   5.006  0.5672 -0.3970 -0.0451
  310MOL0     C40815   5.532   0.393   4.989 -0.1047  0.0837 -0.8596
  310MOL0     C40816   5.427   0.316   4.943  0.0009  0.2529  0.5662
  310MOL0     C40817   5.294   0.373   4.931  0.7507 -0.5736  0.4048
  310MOL0     O40818   5.277   0.517   4.974 -0.2519  0.0398 -0.1694
  310MOL0     C40819   5.147   0.564   4.957 -1.6265 -0.7130 -0.8910
  310MOL0     C40820   5.130   0.646   4.846  0.4971  0.1660 -0.8619
  310MOL0     C40821   5.005   0.692   4.813  0.5469 -0.2837 -0.6059
  310MOL0     C40822   4.894   0.655   4.887  0.1641 -0.5824  0.5194
  310MOL0     O40823   4.772   0.703   4.845 -0.5517  0.0393 -0.0830
  310MOL0     C40824   4.667   0.601   4.838 -0.1623 -0.1104 -0.6467
  310MOL0     C40825   4.546   0.667   4.786  0.5095 -0.3398  0.7792
  310MOL0     C40826   4.522   0.646   4.632  0.4812  0.0286 -0.8659
  310MOL0     C40827   4.443   0.759   4.565  0.1727  0.7645  0.2737
  310MOL0     C40828   4.456   0.742   4.416  0.5977 -0.5043  0.2616
  310MOL0     C40829   4.349   0.816   4.341 -0.7565  0.4446 -0.4307
  310MOL0     C40830   4.367   0.966   4.312 -0.3260 -0.3533 -0.0077
  310MOL0     C40831   4.222   1.022   4.278 -0.0349 -1.1960  0.5109
  310MOL0    Cl40832   4.144   0.957   4.124  0.5880  0.1144  0.0640
  310MOL0     C40833   4.916   0.580   5.001  0.4635  0.7152  0.6329
  310MOL0     C40834   5.039   0.525   5.032  0.3555 -0.3378 -0.0698
  310MOL0     O40835   5.198   0.307   4.890  0.4575 -0.4658  0.0363
  310MOL0     C40836   5.463   0.188   4.886 -1.2931 -0.0364  0.0021
  310MOL0     C40837   5.595   0.132   4.902 -0.3461  0.5976  0.3299
  310MOL0     N40838   6.532   0.230   5.041  0.1535  0.2577 -0.1274
  310MOL0     N40839   6.632   0.302   5.022 -0.9252 -0.1246  0.2518
  310MOL0     C40840   7.663   0.802   4.904 -0.0211 -0.3514  0.6555
  310MOL0     C40841   7.793   0.860   4.905 -0.4071 -0.1716  0.4236
  310MOL0     C40842   8.141   1.068   5.115 -0.2743  0.3105  0.5496
  310MOL0     C40843   8.148   1.206   5.092  1.0979  0.4228 -0.4874
  310MOL0     C40844   8.261   1.278   5.143  0.1549 -0.0649 -0.6932
  310MOL0     C40845   8.355   1.217   5.229  0.5663  0.2758 -1.0445
  310MOL0     O40846   8.453   1.289   5.291 -0.2438  0.6742  0.2129
  310MOL0     C40847   8.552   1.368   5.227  0.2500 -0.9099 -1.1991
  310MOL0     C40848   8.679   1.393   5.304 -0.4763 -1.0886  0.1492
  310MOL0     C40849   8.673   1.530   5.378 -0.7663  0.6084 -0.0206
  310MOL0     C40850   8.565   1.533   5.471 -0.3179 -0.6322 -0.0568
  310MOL0     C40851   8.443   1.570   5.409  0.8041 -0.9911  0.4485
  310MOL0     C40852   8.335   1.584   5.360  0.3005  0.5365  0.7342
  310MOL0     C40853   8.345   1.078   5.254 -0.7720 -0.0824 -0.1276
  310MOL0     C40854   8.250   1.006   5.186 -0.0408 -0.0542  0.2593
  310MOL0     H40855   7.729   1.082   5.152  2.5254 -0.1334 -1.3958
  310MOL0     H40856   7.485   0.978   5.128 -1.5114 -0.4254 -2.2918
  310MOL0     H40857   7.363   0.975   4.885  1.2449  0.2946  1.6659
  310MOL0     H40858   7.289   0.925   5.044 -2.8289 -0.9349 -1.3115
  310MOL0     H40859   7.183   0.746   4.972  0.2833  0.3883 -0.0906
  310MOL0     H40860   7.257   0.726   4.828  2.1160  0.2016  1.7959
  310MOL0     H40861   7.142   0.963   4.758 -1.9437 -1.0344 -3.5732
  310MOL0     H40862   7.044   0.948   4.881  0.6290  0.7644  0.7901
  310MOL0     H40863   6.926   0.831   4.695 -0.0779 -0.9806 -0.7418
  310MOL0     H40864   7.068   0.741   4.646 -1.3422  2.4936 -2.3629
  310MOL0     H40865   6.917   0.689   4.909  1.9201  1.2470  0.3142
  310MOL0     H40866   7.051   0.599   4.860  3.1477  2.3786 -3.0132
  310MOL0     H40867   6.959   0.504   4.662  0.4978  1.6348 -0.6206
  310MOL0     H40868   6.810   0.618   4.677 -1.3212 -0.0805  0.5370
  310MOL0     H40869   6.724   0.419   4.713  1.6767 -1.4079 -0.9504
  310MOL0     H40870   6.852   0.369   4.836 -1.5685 -0.1415  3.5577
  310MOL0     H40871   6.650   0.589   4.864 -0.2169 -0.9896 -4.1409
  310MOL0     H40872   6.761   0.525   4.997 -2.1017 -1.8423  1.3543
  310MOL0     H40873   6.445   0.432   4.794  4.2675  0.9241 -1.2633
  310MOL0     H40874   6.300   0.101   4.979  2.2137  1.0592  0.9361
  310MOL0     H40875   6.307   0.160   4.818  1.1179  1.4931 -0.1565
  310MOL0     H40876   6.152   0.359   4.881 -0.6718 -0.2425 -0.0982
  310MOL0     H40877   6.184   0.325   5.048 -1.1057 -2.4529  0.5975
  310MOL0     H40878   6.048   0.154   4.838 -0.1640  2.4106 -0.3845
  310MOL0     H40879   6.086   0.088   4.984  0.0513 -2.3256 -5.2744
  310MOL0     H40880   5.928   0.349   4.946  0.9867 -0.1415 -1.2681
  310MOL0     H40881   5.928   0.273   5.106 -2.3660  0.2706  0.5555
  310MOL0     H40882   5.732   0.392   5.071  0.0343  0.8718 -0.4413
  310MOL0     H40883   5.507   0.492   5.025  0.3663  0.5355 -1.7431
  310MOL0     H40884   5.215   0.667   4.782 -0.3819 -0.8870 -2.4392
  310MOL0     H40885   5.002   0.749   4.720  0.9586  0.0301 -0.4258
  310MOL0     H40886   4.641   0.578   4.942  0.0893  0.9703 -0.3319
  310MOL0     H40887   4.693   0.508   4.785 -0.6625 -0.6040 -0.0446
  310MOL0     H40888   4.538   0.772   4.817 -1.4571 -0.4334  0.7235
  310MOL0     H40889   4.451   0.629   4.824 -2.3596  4.4290 -0.6679
  310MOL0     H40890   4.470   0.550   4.621  0.5511 -0.2686  1.0045
  310MOL0     H40891   4.617   0.644   4.578  2.1783 -1.3919  1.9607
  310MOL0     H40892   4.335   0.764   4.587 -0.0220  0.6023 -0.6139
  310MOL0     H40893   4.491   0.848   4.608 -0.7292  1.0545  0.7212
  310MOL0     H40894   4.445   0.636   4.392 -0.1928 -1.0559  2.6998
  310MOL0     H40895   4.550   0.784   4.380  1.1136 -3.0041 -1.5911
  310MOL0     H40896   4.251   0.805   4.389 -1.0310 -1.6561 -1.3752
  310MOL0     H40897   4.338   0.766   4.244 -1.1864  1.0872 -0.7135
  310MOL0     H40898   4.391   1.017   4.406  0.0109 -0.7821  0.1425
  310MOL0     H40899   4.444   0.985   4.236  1.0792 -1.1497  1.1508
  310MOL0     H40900   4.229   1.128   4.256 -1.3691 -1.3134 -0.6476
  310MOL0     H40901   4.159   1.018   4.368  1.9933 -2.3919  1.9640
  310MOL0     H40902   4.828   0.563   5.062  0.3793  0.9048  0.5660
  310MOL0     H40903   5.056   0.466   5.121 -4.5088 -0.2506  1.2124
  310MOL0     H40904   5.391   0.122   4.840  0.0667 -0.8449 -1.0467
  310MOL0     H40905   5.621   0.031   4.872 -0.9954  1.5425 -4.1074
  310MOL0     H40906   7.646   0.719   4.835  2.8217 -0.1248 -0.4572
  310MOL0     H40907   7.860   0.842   4.822 -0.3831  1.1109  0.1409
  310MOL0     H40908   8.069   1.253   5.035 -0.5694 -0.0296  1.3512
  310MOL0     H40909   8.259   1.386   5.131 -0.1424  0.2580  1.8127
  310MOL0     H40910   8.516   1.463   5.185 -0.1310 -0.5624 -0.1280
  310MOL0     H40911   8.588   1.303   5.147 -1.1543 -1.8523 -1.1037
  310MOL0     H40912   8.690   1.313   5.377  2.7388 -1.4172 -0.5554
  310MOL0     H40913   8.767   1.388   5.240 -0.2528 -0.3205  0.3750
  310MOL0     H40914   8.705   1.610   5.310  1.3061 -1.9877 -2.3691
  310MOL0     H40915   8.757   1.528   5.449 -2.0584  1.0547  1.5767
  310MOL0     H40916   8.560   1.428   5.502  0.4882 -1.6351 -2.9662
  310MOL0     H40917   8.588   1.596   5.557 -0.4732  1.2840 -1.3783
  310MOL0     H40918   8.241   1.608   5.314  0.1660  0.6759  1.0800
  310MOL0     H40919   8.415   1.021   5.314  1.5281  0.4935 -2.1438
  310MOL0     H40920   8.265   0.900   5.200  1.6213  0.0737 -0.4068
  311MOL0     O40921   6.776   4.010   9.961 -0.5450 -0.6893 -0.3755
  311MOL0     C40922   6.819   3.951  10.057  0.0139 -0.0050 -0.2562
  311MOL0     O40923   6.745   3.899  10.161 -0.0341  0.1304  0.6225
  311MOL0     C40924   6.612   3.942  10.176  0.4351 -0.5352 -0.4452
  311MOL0     C40925   6.572   3.982  10.301 -0.3620 -0.0484  0.2766
  311MOL0     C40926   6.436   3.997  10.335 -0.3849  0.2364 -0.0004
  311MOL0     C40927   6.333   3.962  10.245  0.7598  0.2832  0.1628
  311MOL0     O40928   6.200   3.955  10.294  0.1115  1.1532 -0.6551
  311MOL0     C40929   6.125   4.076  10.319 -0.2137 -0.2547  0.2955
  311MOL0     C40930   6.077   4.140  10.181 -0.5162 -0.5781  0.0818
  311MOL0     C40931   5.947   4.216  10.206  0.1612  0.7830  0.3515
  311MOL0     C40932   5.823   4.123  10.172 -0.3484  1.3359  0.2739
  311MOL0     C40933   5.696   4.189  10.218 -0.3107  0.0552  0.9957
  311MOL0     C40934   5.578   4.097  10.226 -0.2763  0.9318  0.4076
  311MOL0     C40935   5.438   4.156  10.254 -0.4826  1.0771  0.4414
  311MOL0     C40936   5.419   4.161  10.402  0.6373  0.2144  0.5335
  311MOL0     N40937   5.292   4.233  10.433  0.8174  0.4124 -0.5913
  311MOL0     C40938   5.174   4.222  10.371 -0.4829 -0.4240  0.1531
  311MOL0     C40939   5.085   4.276  10.457  0.8943  0.7617  0.5214
  311MOL0     C40940   4.941   4.303  10.424 -0.4296  0.2060  0.6820
  311MOL0     C40941   4.885   4.415  10.509 -0.2229  0.5315  1.0548
  311MOL0     C40942   4.762   4.480  10.427 -0.2524  0.7030 -0.4806
  311MOL0     C40943   4.691   4.573  10.516 -0.1403 -0.5973  0.8802
  311MOL0     O40944   4.585   4.642  10.434 -0.0999 -0.8060 -0.0314
  311MOL0     C40945   4.533   4.760  10.473 -0.1898  0.1292  0.2216
  311MOL0     C40946   4.424   4.806  10.395  0.4155  0.3632 -0.5667
  311MOL0     C40947   4.360   4.927  10.426 -0.7889  0.1352 -0.2473
  311MOL0     C40948   4.390   4.995  10.547  0.0846  0.5632 -0.0362
  311MOL0     C40949   4.310   5.125  10.588 -0.3722 -0.6116  0.5407
  311MOL0     O40950   4.223   5.167  10.494 -0.1079  0.9837  0.1797
  311MOL0     C40951   4.171   5.291  10.508 -0.5925 -0.0333 -0.2967
  311MOL0     C40952   4.247   5.398  10.490 -0.4473 -0.4604  0.8253
  311MOL0     C40953   4.198   5.527  10.475 -0.2102  0.0748 -0.2333
  311MOL0     C40954   4.056   5.550  10.473  0.1545 -0.2024  0.2025
  311MOL0     O40955   3.996   5.670  10.442  0.5722 -0.2971  0.1557
  311MOL0     C40956   3.929   5.725  10.560 -0.1307  0.4895  0.4272
  311MOL0     C40957   3.781   5.768  10.523 -0.4453  0.4140 -0.1380
  311MOL0     C40958   3.680   5.649  10.489  0.2668  0.2300  0.2042
  311MOL0     C40959   3.645   5.567  10.615 -0.5913  0.1951  0.2947
  311MOL0     C40960   3.539   5.630  10.710  0.1402 -0.4842  0.2050
  311MOL0     C40961   3.401   5.656  10.649  0.4326  0.2291  0.0325
  311MOL0     C40962   3.288   5.667  10.748 -0.0727 -0.8260 -0.1533
  311MOL0     C40963   3.159   5.713  10.684 -0.5631  0.0086  0.2078
  311MOL0    Cl40964   3.074   5.574  10.612 -0.1112  0.3223  0.3184
  311MOL0     C40965   3.975   5.433  10.491  0.1687 -0.7539  0.1638
  311MOL0     C40966   4.029   5.307  10.510 -0.0089  0.3231 -0.8241
  311MOL0     O40967   4.329   5.171  10.702  0.3582 -0.3279  0.2103
  311MOL0     C40968   4.491   4.939  10.634  0.2835  0.8953 -0.3803
  311MOL0     C40969   4.573   4.826  10.590  0.1678 -0.7531 -0.3290
  311MOL0     N40970   5.148   4.300  10.580  0.3265 -0.2699  0.8487
  311MOL0     N40971   5.272   4.273  10.562  0.0313  0.1739 -0.2060
  311MOL0     C40972   6.370   3.908  10.118 -1.5552 -0.5402 -0.6172
  311MOL0     C40973   6.512   3.908  10.079  0.0586 -0.6654 -0.3540
  311MOL0     C40974   6.964   3.961  10.075 -0.8405  0.3511 -0.2939
  311MOL0     C40975   7.047   4.026   9.991  0.1837 -0.0227  1.1459
  311MOL0     C40976   7.188   4.053  10.020 -0.3752  1.0526 -0.2950
  311MOL0     C40977   7.236   4.002  10.146 -0.3410  0.5685  0.5801
  311MOL0     O40978   7.359   4.044  10.193 -0.3317  0.3369 -0.4062
  311MOL0     C40979   7.397   4.006  10.326  1.2157  0.0543 -0.1592
  311MOL0     C40980   7.532   4.076  10.367  0.5578  0.1849  0.6033
  311MOL0     C40981   7.584   4.011  10.499  0.1311  0.0224  0.1289
  311MOL0     C40982   7.730   4.044  10.534  0.1191  0.5645 -0.6421
  311MOL0     C40983   7.787   3.935  10.615 -0.3822 -0.5751 -0.7612
  311MOL0     C40984   7.854   3.863  10.695  0.0823 -0.3865  0.1373
  311MOL0     C40985   7.151   3.930  10.223  0.4568  0.0510  0.3767
  311MOL0     C40986   7.018   3.907  10.188  0.2264  1.3211  0.7119
  311MOL0     H40987   6.645   3.976  10.380 -1.0712 -0.2740  0.9250
  311MOL0     H40988   6.409   4.034  10.434  0.8628 -2.0587  1.2883
  311MOL0     H40989   6.175   4.137  10.394  1.0795 -0.9757  0.0467
  311MOL0     H40990   6.036   4.044  10.374 -0.7714  1.7046  0.6297
  311MOL0     H40991   6.066   4.060  10.107 -1.7745 -1.7343  1.4442
  311MOL0     H40992   6.158   4.200  10.138  0.1336 -2.2827 -1.1551
  311MOL0     H40993   5.940   4.304  10.141  0.1997  0.2613 -0.3602
  311MOL0     H40994   5.951   4.252  10.310  3.3145  0.3990  0.4659
  311MOL0     H40995   5.817   4.107  10.064  1.3259  2.2282  0.0165
  311MOL0     H40996   5.823   4.024  10.218 -0.8620 -1.2316 -4.5766
  311MOL0     H40997   5.674   4.279  10.159  0.3928 -0.4283 -0.0335
  311MOL0     H40998   5.712   4.232  10.318 -0.0415 -0.1460  1.0392
  311MOL0     H40999   5.598   4.016  10.297 -2.3495  1.1880  1.3634
  311MOL0     H41000   5.575   4.045  10.130  0.6824  1.3916  0.1209
  311MOL0     H41001   5.437   4.250  10.198  0.8523 -0.9823 -3.4242
  311MOL0     H41002   5.365   4.086  10.211  0.7069 -0.6189  1.0658
  311MOL0     H41003   5.507   4.207  10.448  1.1556  0.7265 -0.9317
  311MOL0     H41004   5.401   4.066  10.454 -0.0518  0.7257  1.2423
  311MOL0     H41005   5.165   4.186  10.270 -0.4508  0.6108 -0.2345
  311MOL0     H41006   4.881   4.218  10.457 -3.1237  2.5466  2.2933
  311MOL0     H41007   4.917   4.313  10.318  0.7522 -1.3725  0.2171
  311MOL0     H41008   4.961   4.490  10.531  1.0758  0.4779 -2.6133
  311MOL0     H41009   4.852   4.362  10.599 -3.6145 -2.7489 -1.8075
  311MOL0     H41010   4.798   4.531  10.337  2.1680 -0.3953 -0.2312
  311MOL0     H41011   4.697   4.397  10.398 -1.8201  0.2084  3.8533
  311MOL0     H41012   4.751   4.656  10.554 -2.3216  1.0328  0.9900
  311MOL0     H41013   4.630   4.520  10.590 -1.5595  1.5798  1.3541
  311MOL0     H41014   4.391   4.741  10.315 -0.7578  1.2319 -0.8132
  311MOL0     H41015   4.285   4.965  10.358  0.0840  0.0719 -1.2706
  311MOL0     H41016   4.346   5.361  10.464 -1.5068 -2.6115 -0.4341
  311MOL0     H41017   4.276   5.597  10.445  2.7808 -1.1120  3.8994
  311MOL0     H41018   3.976   5.821  10.584 -1.4981  1.7368 -1.5120
  311MOL0     H41019   3.946   5.662  10.647  1.4654 -1.1406 -0.9875
  311MOL0     H41020   3.784   5.836  10.438  0.5709  2.1097  1.1887
  311MOL0     H41021   3.743   5.834  10.601  1.6331 -0.6744  1.9240
  311MOL0     H41022   3.723   5.578  10.419  1.4068  1.1201 -0.0226
  311MOL0     H41023   3.591   5.676  10.431  0.3176  1.7795  0.8141
  311MOL0     H41024   3.618   5.463  10.595  1.6572 -0.0987 -1.6370
  311MOL0     H41025   3.739   5.555  10.671 -0.5950 -0.8954  0.0896
  311MOL0     H41026   3.592   5.721  10.742  2.5001 -1.1867 -1.4086
  311MOL0     H41027   3.518   5.567  10.797 -1.0676  1.0200  1.0535
  311MOL0     H41028   3.371   5.570  10.587  0.9531 -0.9167  1.3283
  311MOL0     H41029   3.420   5.745  10.588  0.1604 -0.9208 -1.8298
  311MOL0     H41030   3.280   5.574  10.805 -3.3451  1.1406  3.0408
  311MOL0     H41031   3.326   5.749  10.810 -0.0456 -2.2436  1.8233
  311MOL0     H41032   3.168   5.792  10.609  3.4972  0.4936  0.9432
  311MOL0     H41033   3.092   5.759  10.758 -0.5797  3.8139 -1.8958
  311MOL0     H41034   3.867   5.444  10.496  0.1824 -1.1298  2.7036
  311MOL0     H41035   3.960   5.229  10.541 -2.4569  2.6377 -0.1174
  311MOL0     H41036   4.518   4.986  10.728  1.4872  3.5692 -1.9776
  311MOL0     H41037   4.648   4.790  10.659  1.4739 -0.5605 -1.6010
  311MOL0     H41038   6.291   3.869  10.056 -1.4622  1.7422 -2.3080
  311MOL0     H41039   6.543   3.856   9.989 -1.4786 -3.1488  0.4554
  311MOL0     H41040   7.009   4.073   9.900 -1.9585  0.9645  2.4738
  311MOL0     H41041   7.238   4.120   9.951 -1.1077  0.2898 -1.6301
  311MOL0     H41042   7.403   3.897  10.340 -1.9947  0.1511  3.7009
  311MOL0     H41043   7.315   4.041  10.388  0.4398  1.5352 -1.9180
  311MOL0     H41044   7.597   4.053  10.282 -3.4907 -2.9324 -2.0707
  311MOL0     H41045   7.513   4.183  10.377 -3.9032 -0.2361 -0.8109
  311MOL0     H41046   7.585   3.904  10.475 -0.5809  0.3781 -1.6548
  311MOL0     H41047   7.514   4.022  10.583  1.5944  2.1344  1.1675
  311MOL0     H41048   7.788   4.053  10.442 -0.6228 -0.3952 -1.2249
  311MOL0     H41049   7.744   4.142  10.581 -2.1780  0.5861  0.1230
  311MOL0     H41050   7.917   3.797  10.751 -1.3985 -1.6295  0.4294
  311MOL0     H41051   7.180   3.885  10.317  2.8999 -1.3914 -0.9596
  311MOL0     H41052   6.973   3.844  10.264 -0.1766  1.4092  0.5468
  312MOL0     O41053   2.282  10.492   2.368 -0.7337 -0.9931  0.0991
  312MOL0     C41054   2.294  10.588   2.292 -0.7516 -0.2161 -0.7541
  312MOL0     O41055   2.413  10.634   2.229  0.0104  0.3723  0.8548
  312MOL0     C41056   2.529  10.561   2.240 -0.7680  0.1219  0.1500
  312MOL0     C41057   2.542  10.421   2.230  0.0443  0.7775 -0.1614
  312MOL0     C41058   2.659  10.353   2.262 -0.2290 -0.4086  0.9093
  312MOL0     C41059   2.769  10.430   2.305 -0.4559 -0.6474 -0.3064
  312MOL0     O41060   2.891  10.378   2.353 -0.6691  0.4929 -0.4247
  312MOL0     C41061   2.897  10.236   2.375 -0.5408  0.3322  0.1185
  312MOL0     C41062   3.026  10.186   2.441  0.1655 -0.7049  0.3118
  312MOL0     C41063   3.148  10.208   2.349  0.3469  0.3220  0.9854
  312MOL0     C41064   3.262  10.149   2.431  0.0184 -0.3882 -1.0362
  312MOL0     C41065   3.398  10.194   2.384  0.3522 -0.3984 -0.5153
  312MOL0     C41066   3.415  10.350   2.390  0.1155  0.6013  0.1856
  312MOL0     C41067   3.560  10.384   2.434 -0.5193 -0.0365  0.1155
  312MOL0     C41068   3.587  10.537   2.409 -0.3113  0.0245 -0.7027
  312MOL0     N41069   3.464  10.613   2.446 -0.3691 -0.5921 -0.0903
  312MOL0     C41070   3.407  10.613   2.570 -0.8733  0.2456  0.4357
  312MOL0     C41071   3.278  10.627   2.547 -0.8574  0.6814 -0.5291
  312MOL0     C41072   3.183  10.624   2.665  0.6984  0.8042 -0.6442
  312MOL0     C41073   3.031  10.608   2.632  0.4200 -0.4087 -0.5085
  312MOL0     C41074   2.948  10.572   2.759 -0.8198  0.1846 -0.0563
  312MOL0     C41075   2.805  10.537   2.717  0.3144 -0.3078 -0.0204
  312MOL0     O41076   2.734  10.487   2.832  0.0493  0.2424  0.7295
  312MOL0     C41077   2.614  10.418   2.802 -0.3136 -0.1852  0.3794
  312MOL0     C41078   2.567  10.402   2.675  1.0959 -0.4306  0.3172
  312MOL0     C41079   2.444  10.333   2.664  0.2609 -0.3724 -0.1696
  312MOL0     C41080   2.383  10.269   2.779 -0.1344 -0.7142 -0.1177
  312MOL0     C41081   2.255  10.189   2.767 -0.2552 -0.9503  1.1756
  312MOL0     O41082   2.219  10.108   2.870 -0.7223  0.0978  0.3860
  312MOL0     C41083   2.108  10.036   2.867  1.2361  0.0257 -0.1170
  312MOL0     C41084   1.995  10.092   2.919  0.4540 -1.0469 -0.3222
  312MOL0     C41085   1.876  10.017   2.915  0.3336  0.2441  0.0017
  312MOL0     C41086   1.868   9.882   2.865  0.3104 -0.1988 -1.1693
  312MOL0     O41087   1.757   9.805   2.853  0.2701 -0.5883  0.2878
  312MOL0     C41088   1.746   9.705   2.956 -0.0655  0.4568 -0.4734
  312MOL0     C41089   1.637   9.756   3.052  0.3793 -0.2375 -0.1712
  312MOL0     C41090   1.605   9.657   3.162  0.0615  0.1423  0.3848
  312MOL0     C41091   1.517   9.730   3.272  0.0528 -1.0682 -0.3881
  312MOL0     C41092   1.502   9.649   3.396 -0.1264  0.1206 -0.1669
  312MOL0     C41093   1.452   9.727   3.513  0.2767  0.6299 -0.1488
  312MOL0     C41094   1.427   9.646   3.646 -0.5337 -1.0779 -0.1690
  312MOL0     C41095   1.346   9.739   3.743 -0.2432  0.3271 -0.2692
  312MOL0    Cl41096   1.459   9.884   3.764  0.1116 -0.1829 -0.5700
  312MOL0     C41097   1.986   9.822   2.822  0.0128  0.1966 -0.5769
  312MOL0     C41098   2.105   9.900   2.828  0.6366 -0.1684  0.1192
  312MOL0     O41099   2.195  10.205   2.661 -0.0810 -0.0762  0.7931
  312MOL0     C41100   2.449  10.275   2.905 -0.3170  0.6892  0.1490
  312MOL0     C41101   2.567  10.345   2.907 -0.3196 -0.2808  0.4916
  312MOL0     N41102   3.260  10.662   2.416  0.1199 -0.6300  0.2095
  312MOL0     N41103   3.372  10.638   2.354 -0.3363  0.5771  1.1047
  312MOL0     C41104   2.761  10.571   2.314  0.1117  0.9516 -0.7641
  312MOL0     C41105   2.643  10.634   2.284  0.2295 -1.4035 -0.7515
  312MOL0     C41106   2.169  10.656   2.249  1.0275  0.5193 -0.7019
  312MOL0     C41107   2.048  10.585   2.256 -0.2171 -0.8330 -0.5899
  312MOL0     C41108   1.924  10.649   2.228  0.1599  0.5859  0.4904
  312MOL0     C41109   1.916  10.788   2.194 -0.4544  0.1382 -0.1377
  312MOL0     O41110   1.793  10.841   2.160  0.1549 -0.2860 -0.3518
  312MOL0     C41111   1.775  10.979   2.136 -0.7798 -0.9155  0.3047
  312MOL0     C41112   1.649  10.996   2.058 -0.3296  0.7873 -0.3865
  312MOL0     C41113   1.616  11.139   2.036  1.0887 -1.3001 -0.4915
  312MOL0     C41114   1.485  11.172   1.970 -0.0817  1.2138  0.0347
  312MOL0     C41115   1.474  11.102   1.839  0.0443  0.8486 -0.2332
  312MOL0     C41116   1.468  11.039   1.731 -0.3700  0.0583  0.2816
  312MOL0     C41117   2.042  10.853   2.178  0.0353  0.1290  0.3216
  312MOL0     C41118   2.166  10.787   2.210 -0.4136 -0.2304 -0.3881
  312MOL0     H41119   2.462  10.355   2.197 -0.8080  0.4230  2.4158
  312MOL0     H41120   2.672  10.248   2.237 -1.0638 -0.0582 -1.2012
  312MOL0     H41121   2.886  10.194   2.275  0.4148  2.4894 -0.9359
  312MOL0     H41122   2.807  10.195   2.424 -0.6603 -0.9291 -1.1093
  312MOL0     H41123   3.008  10.081   2.466  0.7984 -1.3659 -1.7489
  312MOL0     H41124   3.047  10.248   2.529 -1.5622 -0.3723  0.5163
  312MOL0     H41125   3.159  10.315   2.329  1.2906  0.1421  0.4951
  312MOL0     H41126   3.135  10.154   2.254 -0.5471  0.6136  0.9262
  312MOL0     H41127   3.249  10.173   2.536 -0.9967 -0.6483 -1.0840
  312MOL0     H41128   3.247  10.040   2.427 -1.3488 -0.4378  2.4808
  312MOL0     H41129   3.412  10.168   2.279  0.6019 -0.1343 -0.5481
  312MOL0     H41130   3.473  10.139   2.440  0.1669 -1.9361 -1.7092
  312MOL0     H41131   3.339  10.383   2.462  0.8517  0.2240  1.1707
  312MOL0     H41132   3.385  10.386   2.291  1.0388 -4.1892 -2.1025
  312MOL0     H41133   3.572  10.350   2.537  2.7155 -3.0188 -1.0442
  312MOL0     H41134   3.635  10.333   2.373  0.8995 -0.1370  1.8637
  312MOL0     H41135   3.604  10.563   2.304  0.9513  1.3848 -0.2052
  312MOL0     H41136   3.674  10.567   2.469  0.3373 -1.4334 -0.8756
  312MOL0     H41137   3.453  10.592   2.666 -0.3962  2.2260  0.6793
  312MOL0     H41138   3.189  10.721   2.715  2.5235 -0.3681  1.6014
  312MOL0     H41139   3.224  10.553   2.739 -2.7410 -0.8607 -0.1324
  312MOL0     H41140   3.015  10.531   2.556  0.0691 -3.1573  2.1435
  312MOL0     H41141   2.990  10.699   2.589  1.1462 -0.0245 -0.4064
  312MOL0     H41142   2.991  10.480   2.800 -2.3764 -0.8543 -0.6227
  312MOL0     H41143   2.955  10.648   2.837  3.1084 -0.1980  0.1388
  312MOL0     H41144   2.813  10.462   2.637 -1.6702 -1.5762  0.8833
  312MOL0     H41145   2.743  10.615   2.671  0.4990 -0.0981  0.0851
  312MOL0     H41146   2.590  10.454   2.582  2.9792  0.1094  1.0428
  312MOL0     H41147   2.400  10.315   2.567 -2.1909  1.8230  0.4258
  312MOL0     H41148   2.007  10.198   2.941 -2.3748 -0.7692  0.3218
  312MOL0     H41149   1.787  10.071   2.947  0.3688  1.0292 -1.1462
  312MOL0     H41150   1.833   9.701   3.022 -1.1928 -2.1833  1.0293
  312MOL0     H41151   1.718   9.609   2.911 -0.0268 -0.2475  0.9408
  312MOL0     H41152   1.551   9.799   3.001  1.3871  0.3318 -1.4640
  312MOL0     H41153   1.682   9.842   3.102  0.6673  1.5720 -3.3173
  312MOL0     H41154   1.693   9.616   3.212  0.4320 -0.4137 -0.6897
  312MOL0     H41155   1.556   9.569   3.119  1.5299 -0.2977 -0.4523
  312MOL0     H41156   1.559   9.829   3.290 -2.5556 -0.0612  0.6601
  312MOL0     H41157   1.421   9.762   3.231  0.9632 -1.6945 -3.2400
  312MOL0     H41158   1.591   9.593   3.427 -0.0145  1.1163  1.4193
  312MOL0     H41159   1.416   9.583   3.379  0.5422 -0.6024 -0.8112
  312MOL0     H41160   1.358   9.774   3.484  0.8692  1.8951 -0.0737
  312MOL0     H41161   1.527   9.803   3.534  1.8319 -0.7785 -0.3699
  312MOL0     H41162   1.368   9.561   3.609 -1.6910  0.2076 -1.3513
  312MOL0     H41163   1.521   9.617   3.694 -1.4782 -1.1866  1.7047
  312MOL0     H41164   1.305   9.688   3.830  1.4737  0.1933  0.5134
  312MOL0     H41165   1.261   9.784   3.690  0.2685 -0.3006 -1.6854
  312MOL0     H41166   2.004   9.720   2.788  0.2707  0.8408 -2.5466
  312MOL0     H41167   2.190   9.840   2.795 -1.1984 -1.6500 -2.2096
  312MOL0     H41168   2.409  10.229   2.995  2.6867 -0.9534  0.7760
  312MOL0     H41169   2.618  10.359   3.001  0.9705 -3.5349  0.4025
  312MOL0     H41170   2.850  10.625   2.345  0.1800  0.6292 -0.3925
  312MOL0     H41171   2.635  10.741   2.302 -2.7428 -1.6119 -0.4080
  312MOL0     H41172   2.053  10.480   2.284 -0.4593 -0.6615  0.1301
  312MOL0     H41173   1.830  10.594   2.228  0.0398 -0.0100 -6.4352
  312MOL0     H41174   1.855  11.023   2.075 -0.9046 -1.8114 -0.5414
  312MOL0     H41175   1.768  11.032   2.231 -2.7113  0.4741 -0.5464
  312MOL0     H41176   1.659  10.938   1.966  0.9242  1.6077 -0.7883
  312MOL0     H41177   1.564  10.943   2.102  0.9575  0.8334  2.3563
  312MOL0     H41178   1.694  11.175   1.969  1.9883  1.5528  1.8598
  312MOL0     H41179   1.599  11.195   2.128 -4.8060  1.4650 -2.7199
  312MOL0     H41180   1.404  11.146   2.038 -0.0589  0.4556 -0.2095
  312MOL0     H41181   1.465  11.278   1.957 -0.4515  1.4778  2.3337
  312MOL0     H41182   1.454  10.989   1.637 -3.9649  0.8469  0.2842
  312MOL0     H41183   2.032  10.955   2.142 -1.4850  0.3239  1.2242
  312MOL0     H41184   2.249  10.857   2.201 -1.4664  0.8747 -2.1827
  313MOL0     O41185   3.006   7.754   0.034  0.5394 -0.1387  0.3724
  313MOL0     C41186   2.983   7.637   0.075  0.0227 -0.8543 -0.4092
  313MOL0     O41187   2.949   7.527   0.004 -0.9977  0.7064  0.1691
  313MOL0     C41188   2.899   7.534  -0.126  0.6786 -0.9403 -1.2244
  313MOL0     C41189   2.954   7.471  -0.234 -0.0061 -0.4136  0.1065
  313MOL0     C41190   2.917   7.477  -0.362 -0.5481  0.6325  0.0684
  313MOL0     C41191   2.790   7.537  -0.382 -0.4840  0.0767 -1.0875
  313MOL0     O41192   2.727   7.530  -0.502 -0.0343 -0.0631 -0.5425
  313MOL0     C41193   2.588   7.482  -0.500  0.4048 -0.6056 -0.0850
  313MOL0     C41194   2.544   7.434  -0.638 -0.4091 -0.1573  0.9677
  313MOL0     C41195   2.396   7.375  -0.615  0.1934 -1.0307  0.9666
  313MOL0     C41196   2.294   7.484  -0.636  0.0156  0.1389  0.0932
  313MOL0     C41197   2.159   7.419  -0.640 -0.0437  0.2281  0.1064
  313MOL0     C41198   2.122   7.354  -0.773 -0.3901  0.5576  1.0908
  313MOL0     C41199   1.990   7.278  -0.781 -0.6097  0.3332 -0.7357
  313MOL0     C41200   1.871   7.379  -0.759 -0.3738  0.0474 -0.1639
  313MOL0     N41201   1.745   7.306  -0.769  0.4478  0.8619  1.1296
  313MOL0     C41202   1.674   7.315  -0.882 -0.5048 -0.3815  0.1463
  313MOL0     C41203   1.551   7.275  -0.848 -0.3637 -0.0941 -0.3476
  313MOL0     C41204   1.430   7.275  -0.934  0.3168  0.7687  0.1258
  313MOL0     C41205   1.299   7.307  -0.863 -0.0213  0.5150 -1.1700
  313MOL0     C41206   1.290   7.447  -0.803 -0.2278 -0.1888  0.2979
  313MOL0     C41207   1.152   7.456  -0.736  0.2007 -0.2379  0.1606
  313MOL0     O41208   1.056   7.481  -0.841 -0.4472 -0.0428  1.3187
  313MOL0     C41209   0.920   7.479  -0.822 -0.2170 -0.5133 -0.0031
  313MOL0     C41210   0.858   7.525  -0.702 -0.1095 -0.1514  0.2287
  313MOL0     C41211   0.715   7.530  -0.691 -0.2520  0.7252  0.9753
  313MOL0     C41212   0.638   7.483  -0.803  0.2289 -0.7222  1.3510
  313MOL0     C41213   0.497   7.490  -0.798  0.3664  0.6683  0.1274
  313MOL0     O41214   0.429   7.392  -0.862  0.1308  0.8233 -0.6949
  313MOL0     C41215   0.289   7.371  -0.870  0.2376 -0.5650  0.1882
  313MOL0     C41216   0.191   7.439  -0.796 -0.6062 -0.4505  0.3440
  313MOL0     C41217   0.059   7.405  -0.811 -0.0328 -0.2301 -0.2560
  313MOL0     C41218   0.016   7.309  -0.903  0.0059  0.8591 -0.1567
  313MOL0     O41219  -0.115   7.257  -0.906  0.0443 -0.3831 -0.2085
  313MOL0     C41220  -0.214   7.263  -0.803 -0.0437  0.1994 -0.1650
  313MOL0     C41221  -0.335   7.182  -0.845 -0.2025 -0.1515 -0.2763
  313MOL0     C41222  -0.431   7.166  -0.719  0.6750 -0.1463  0.0162
  313MOL0     C41223  -0.562   7.092  -0.745 -0.0469 -0.2153  0.0912
  313MOL0     C41224  -0.628   7.051  -0.605  0.6404  0.2611 -0.3770
  313MOL0     C41225  -0.762   6.979  -0.645 -0.0756 -0.2188 -0.0937
  313MOL0     C41226  -0.740   6.831  -0.680  0.1392  0.0894  0.2838
  313MOL0     C41227  -0.826   6.792  -0.795  0.7389 -0.6330 -0.0029
  313MOL0    Cl41228  -0.796   6.891  -0.937  0.2346 -0.1068  0.2191
  313MOL0     C41229   0.116   7.244  -0.978 -0.0206  0.0511 -0.7049
  313MOL0     C41230   0.249   7.276  -0.955  0.7601 -0.4166  0.8261
  313MOL0     O41231   0.446   7.586  -0.727 -0.3654  0.1998 -0.1905
  313MOL0     C41232   0.706   7.441  -0.923  0.1170  0.7002 -0.1808
  313MOL0     C41233   0.841   7.451  -0.934  1.0243 -0.5227  1.1692
  313MOL0     N41234   1.545   7.244  -0.715  0.3397 -0.0363 -0.4947
  313MOL0     N41235   1.659   7.265  -0.671 -0.1007 -0.7596 -0.3299
  313MOL0     C41236   2.724   7.603  -0.275 -0.4727 -0.1421 -0.6159
  313MOL0     C41237   2.778   7.615  -0.154 -1.0352  0.4022 -0.9788
  313MOL0     C41238   2.962   7.637   0.223  0.7414 -1.1282 -0.1720
  313MOL0     C41239   2.890   7.534   0.284 -0.8128  0.0994 -0.8907
  313MOL0     C41240   2.862   7.546   0.420 -0.2721  0.0357 -0.1426
  313MOL0     C41241   2.926   7.639   0.501 -0.1289 -0.1589 -0.6030
  313MOL0     O41242   2.922   7.639   0.635 -0.3144  0.3962 -0.2237
  313MOL0     C41243   3.028   7.560   0.693 -0.6426  0.2202  0.3466
  313MOL0     C41244   3.034   7.581   0.846  0.0882 -0.0809 -0.0954
  313MOL0     C41245   3.124   7.692   0.886 -0.2539 -0.4898 -0.2888
  313MOL0     C41246   3.059   7.831   0.903  0.2438  0.1580 -0.1635
  313MOL0     C41247   2.948   7.814   0.995  0.4513 -0.8409  0.4271
  313MOL0     C41248   2.842   7.808   1.058  0.1645 -0.8253 -1.2637
  313MOL0     C41249   2.997   7.750   0.443  0.0837  0.1097  0.0658
  313MOL0     C41250   3.010   7.751   0.301 -0.4563  0.3501  0.9883
  313MOL0     H41251   3.047   7.417  -0.220 -0.8863 -1.3986  2.9270
  313MOL0     H41252   2.966   7.416  -0.437 -0.2614  1.0872 -0.1181
  313MOL0     H41253   2.529   7.574  -0.489  2.3001  0.5112  1.5856
  313MOL0     H41254   2.571   7.403  -0.427 -1.4053 -2.1838 -2.0954
  313MOL0     H41255   2.615   7.358  -0.669  0.6368  1.0567  0.2854
  313MOL0     H41256   2.544   7.516  -0.710  0.8692 -1.3405 -0.4333
  313MOL0     H41257   2.386   7.340  -0.512 -2.8509 -1.2109  0.6900
  313MOL0     H41258   2.380   7.297  -0.689 -1.9474 -0.5905  0.8908
  313MOL0     H41259   2.306   7.551  -0.550 -0.6523 -1.8085  1.7949
  313MOL0     H41260   2.306   7.536  -0.731  0.2794 -3.0744 -1.7665
  313MOL0     H41261   2.091   7.500  -0.615 -0.9501 -0.8484  1.2293
  313MOL0     H41262   2.172   7.345  -0.560  3.3072  2.7141  2.1687
  313MOL0     H41263   2.206   7.299  -0.816  0.4414  1.8833  0.9466
  313MOL0     H41264   2.099   7.440  -0.836 -0.3271 -0.8767 -0.9825
  313MOL0     H41265   1.982   7.215  -0.869 -2.0416 -1.7832  0.8269
  313MOL0     H41266   2.002   7.216  -0.691 -0.3165  2.6969  0.9508
  313MOL0     H41267   1.867   7.456  -0.836  0.9898 -0.4887 -0.8042
  313MOL0     H41268   1.884   7.428  -0.662 -0.8841 -0.0326 -0.0533
  313MOL0     H41269   1.705   7.357  -0.977  2.2235 -1.9453  0.2355
  313MOL0     H41270   1.425   7.173  -0.974 -0.5936  0.5919  0.6627
  313MOL0     H41271   1.452   7.336  -1.022  0.5159 -0.7041 -0.8906
  313MOL0     H41272   1.292   7.237  -0.778  2.8985 -3.0741 -3.5596
  313MOL0     H41273   1.224   7.282  -0.939 -1.1625  1.3189 -0.3497
  313MOL0     H41274   1.364   7.466  -0.724 -1.2440 -0.9946  1.4905
  313MOL0     H41275   1.285   7.523  -0.881 -0.4464  0.6329  1.0985
  313MOL0     H41276   1.141   7.543  -0.671  0.7947 -1.3591  1.8386
  313MOL0     H41277   1.130   7.371  -0.671  0.5428  0.0196  0.6179
  313MOL0     H41278   0.914   7.554  -0.614  1.5372 -4.0281  0.6650
  313MOL0     H41279   0.663   7.561  -0.601 -2.2704  0.3366  0.0060
  313MOL0     H41280   0.221   7.516  -0.725 -0.7537  0.3945 -0.4914
  313MOL0     H41281  -0.009   7.474  -0.762 -0.4709  0.6405 -2.0013
  313MOL0     H41282  -0.247   7.368  -0.801  4.1602  1.8242 -2.6756
  313MOL0     H41283  -0.184   7.223  -0.706  2.3279 -2.1454 -1.7413
  313MOL0     H41284  -0.314   7.079  -0.873 -1.7616 -0.5201 -0.1457
  313MOL0     H41285  -0.380   7.233  -0.931  1.1238 -0.5298 -1.2397
  313MOL0     H41286  -0.449   7.264  -0.674  0.0414 -0.8752  1.4100
  313MOL0     H41287  -0.375   7.100  -0.652  0.4451 -0.6301 -0.2631
  313MOL0     H41288  -0.628   7.162  -0.798 -0.9222 -2.1883 -1.5561
  313MOL0     H41289  -0.549   7.005  -0.810  0.5166 -0.5915  0.7058
  313MOL0     H41290  -0.665   7.141  -0.555 -1.2242  0.1190 -1.4052
  313MOL0     H41291  -0.563   6.996  -0.537 -0.5113  1.0405  1.4255
  313MOL0     H41292  -0.823   7.034  -0.716 -0.7988  1.5242  1.7843
  313MOL0     H41293  -0.827   6.976  -0.557 -0.3387 -3.6393 -0.2545
  313MOL0     H41294  -0.636   6.820  -0.715  0.0215  3.0095 -1.3263
  313MOL0     H41295  -0.760   6.775  -0.589  0.2185 -1.3899 -0.5710
  313MOL0     H41296  -0.927   6.799  -0.755  1.4203  1.7993  1.4935
  313MOL0     H41297  -0.807   6.688  -0.825 -0.6702 -0.9616  0.2075
  313MOL0     H41298   0.099   7.173  -1.057 -2.3990  3.1789 -3.2749
  313MOL0     H41299   0.329   7.228  -1.011 -2.0010 -1.4088 -2.6078
  313MOL0     H41300   0.644   7.415  -1.009  0.0175  0.5773 -0.0725
  313MOL0     H41301   0.891   7.437  -1.029  0.8405  2.2807  0.6005
  313MOL0     H41302   2.634   7.661  -0.293  0.1509 -0.1377 -4.7525
  313MOL0     H41303   2.727   7.673  -0.077  1.8634  3.0296 -0.8502
  313MOL0     H41304   2.841   7.452   0.233 -2.0007  0.4643 -0.3600
  313MOL0     H41305   2.800   7.480   0.479 -3.2962  2.2515 -0.5860
  313MOL0     H41306   3.129   7.577   0.655  1.1515 -2.2920  3.5240
  313MOL0     H41307   3.012   7.454   0.672 -0.3999 -0.0745  1.5602
  313MOL0     H41308   2.932   7.590   0.883 -1.2489 -4.0430 -2.2676
  313MOL0     H41309   3.075   7.490   0.889  0.9552  0.1255 -0.4575
  313MOL0     H41310   3.196   7.710   0.805  0.0427  2.1024  0.4532
  313MOL0     H41311   3.175   7.675   0.982 -1.6969 -1.4582  0.3342
  313MOL0     H41312   3.128   7.899   0.954  0.5814  0.6583 -1.2477
  313MOL0     H41313   3.030   7.866   0.803  2.2240 -2.7794 -1.9489
  313MOL0     H41314   2.759   7.812   1.125  1.2717  5.6457  0.3707
  313MOL0     H41315   3.038   7.831   0.502 -0.6287  0.8415 -0.4263
  313MOL0     H41316   3.056   7.831   0.244 -0.3153 -0.9540 -0.8205
  314MOL0     O41317   7.269   3.760   6.570  0.1224 -0.0338 -0.6102
  314MOL0     C41318   7.369   3.818   6.620 -0.3839 -1.2488 -0.9937
  314MOL0     O41319   7.426   3.789   6.747  0.3208  0.1108 -1.0460
  314MOL0     C41320   7.360   3.697   6.831 -0.0215  0.1113  0.5288
  314MOL0     C41321   7.224   3.714   6.864  1.1125 -0.7190 -0.3376
  314MOL0     C41322   7.160   3.619   6.941 -0.1088  0.0182 -0.2402
  314MOL0     C41323   7.226   3.506   7.000  0.1283 -1.0313  0.5847
  314MOL0     O41324   7.169   3.408   7.074 -0.2434 -0.1974  0.6052
  314MOL0     C41325   7.035   3.408   7.137  0.4635 -1.1170  0.0665
  314MOL0     C41326   7.008   3.269   7.190  0.3921  0.0492  0.3903
  314MOL0     C41327   6.892   3.243   7.290 -0.0207 -0.4418  0.2006
  314MOL0     C41328   6.747   3.209   7.230 -0.5251 -0.2219  0.5828
  314MOL0     C41329   6.621   3.230   7.306  0.3684 -0.3567 -0.0624
  314MOL0     C41330   6.539   3.351   7.250 -0.8300 -0.3461 -0.2221
  314MOL0     C41331   6.390   3.332   7.268 -0.5538 -0.0917  0.6440
  314MOL0     C41332   6.352   3.304   7.418 -0.4900 -0.9318 -0.3313
  314MOL0     N41333   6.212   3.319   7.455 -0.0974  0.5216  0.4854
  314MOL0     C41334   6.173   3.386   7.563 -0.6159 -0.4867  0.2856
  314MOL0     C41335   6.045   3.424   7.548 -0.6363 -0.9453  0.3753
  314MOL0     C41336   5.960   3.518   7.638 -0.0298  0.8513  0.4497
  314MOL0     C41337   5.813   3.480   7.619 -0.0046 -0.0101 -0.7377
  314MOL0     C41338   5.778   3.333   7.635  0.3944 -0.5400  0.3747
  314MOL0     C41339   5.629   3.285   7.634 -0.2528  0.1749  0.5730
  314MOL0     O41340   5.551   3.350   7.537 -0.0159  0.0897  0.1180
  314MOL0     C41341   5.414   3.333   7.540 -0.4363 -0.5171  0.5107
  314MOL0     C41342   5.337   3.443   7.514 -0.0586  0.2011 -0.1549
  314MOL0     C41343   5.197   3.434   7.523 -0.3530 -0.2119 -0.0150
  314MOL0     C41344   5.130   3.318   7.561 -0.1817 -0.1886 -0.4038
  314MOL0     C41345   4.982   3.298   7.578  0.0936 -1.5046 -0.9117
  314MOL0     O41346   4.939   3.191   7.658  0.1814  0.0011  0.1232
  314MOL0     C41347   4.815   3.196   7.705 -0.0366  0.1463  1.0250
  314MOL0     C41348   4.797   3.235   7.841 -0.0035  1.0928  0.1770
  314MOL0     C41349   4.668   3.223   7.904  0.4926  0.2584  0.7005
  314MOL0     C41350   4.553   3.191   7.821 -0.3873  0.9502  0.9321
  314MOL0     O41351   4.418   3.194   7.861  0.2845  0.1857  0.3668
  314MOL0     C41352   4.398   3.286   7.977 -0.3666  0.9287 -0.0649
  314MOL0     C41353   4.251   3.325   8.001  0.6368  1.1549 -0.3195
  314MOL0     C41354   4.199   3.445   7.912 -0.1771 -0.2875 -0.6850
  314MOL0     C41355   4.049   3.459   7.911 -0.6758 -0.3455 -0.7049
  314MOL0     C41356   4.002   3.574   7.829 -0.4111  0.6758  0.2717
  314MOL0     C41357   3.864   3.620   7.867  0.4372  0.4394 -0.2229
  314MOL0     C41358   3.780   3.697   7.767 -0.6460 -0.5373 -0.7966
  314MOL0     C41359   3.703   3.609   7.677  0.1505  0.4398  0.5382
  314MOL0    Cl41360   3.575   3.707   7.600 -0.2731 -0.2219  0.2703
  314MOL0     C41361   4.570   3.165   7.680 -1.3276 -0.4514  0.1260
  314MOL0     C41362   4.703   3.165   7.635 -0.3366 -0.6283 -0.1478
  314MOL0     O41363   4.910   3.382   7.527 -0.7689 -0.2569 -1.1260
  314MOL0     C41364   5.211   3.207   7.599  0.0244  0.3407 -0.6313
  314MOL0     C41365   5.346   3.218   7.592 -0.5998  0.0192 -0.1744
  314MOL0     N41366   6.013   3.378   7.415  0.2487  0.7062  0.2292
  314MOL0     N41367   6.111   3.310   7.370  0.0220  0.8601 -0.2384
  314MOL0     C41368   7.362   3.494   6.977 -0.2436 -0.7866  0.6324
  314MOL0     C41369   7.429   3.590   6.891  0.0842  0.9820 -0.0603
  314MOL0     C41370   7.442   3.902   6.523 -0.1138 -0.4879 -0.1430
  314MOL0     C41371   7.377   3.977   6.417 -0.0226  0.4774  0.8105
  314MOL0     C41372   7.450   4.052   6.326 -0.3279  0.1116  1.4528
  314MOL0     C41373   7.582   4.084   6.351  0.2483  0.0094 -1.0325
  314MOL0     O41374   7.658   4.123   6.247  0.2828  0.5895 -0.2862
  314MOL0     C41375   7.714   4.248   6.273  0.0514  0.0398 -0.7079
  314MOL0     C41376   7.830   4.277   6.162 -0.3353  0.3113 -0.1605
  314MOL0     C41377   7.879   4.420   6.169  0.0226 -0.4426  0.5967
  314MOL0     C41378   8.027   4.409   6.210  0.3579 -0.1173 -0.1129
  314MOL0     C41379   8.088   4.542   6.205 -0.3476  0.8128 -1.0199
  314MOL0     C41380   8.142   4.650   6.203  0.0903 -0.0029 -0.1883
  314MOL0     C41381   7.649   4.024   6.461 -0.1816 -0.7801 -0.1390
  314MOL0     C41382   7.576   3.936   6.542  0.5845  0.0116 -0.5627
  314MOL0     H41383   7.164   3.791   6.814  0.2146 -0.5267  0.9775
  314MOL0     H41384   7.057   3.628   6.972 -0.1786 -2.3852  0.4497
  314MOL0     H41385   6.953   3.435   7.070  0.2586  2.7861  1.6289
  314MOL0     H41386   7.056   3.478   7.219  1.2057  1.1276 -1.9035
  314MOL0     H41387   7.103   3.246   7.237  0.2199 -3.5323 -0.7310
  314MOL0     H41388   6.998   3.199   7.106 -0.9148 -0.3614  0.8565
  314MOL0     H41389   6.878   3.328   7.358  2.5570  0.8164 -0.7400
  314MOL0     H41390   6.925   3.163   7.357  3.7661 -0.3845 -1.3465
  314MOL0     H41391   6.745   3.288   7.154 -1.9246  0.2372  1.0742
  314MOL0     H41392   6.762   3.109   7.188  1.5358 -1.3367  3.6362
  314MOL0     H41393   6.637   3.247   7.413 -3.3488  2.2052  0.2576
  314MOL0     H41394   6.555   3.143   7.295  2.4388 -1.7494 -2.5844
  314MOL0     H41395   6.550   3.384   7.146 -0.1547  0.5211  0.1072
  314MOL0     H41396   6.566   3.432   7.318 -0.5572 -2.1917  1.9769
  314MOL0     H41397   6.333   3.416   7.228  0.1760  0.5134  0.8605
  314MOL0     H41398   6.358   3.239   7.219  2.6002 -0.9463 -0.0513
  314MOL0     H41399   6.424   3.366   7.473  2.3579 -2.2334 -2.3599
  314MOL0     H41400   6.384   3.205   7.450 -3.9368 -1.4804  1.9917
  314MOL0     H41401   6.240   3.404   7.646  0.7002 -0.2874 -0.7801
  314MOL0     H41402   5.984   3.622   7.615 -0.8612  0.8380 -0.5542
  314MOL0     H41403   5.988   3.495   7.741 -1.8865 -1.6735  0.4848
  314MOL0     H41404   5.785   3.507   7.516  0.6122  2.1906 -0.3893
  314MOL0     H41405   5.746   3.536   7.685  0.5685  1.7071 -1.5340
  314MOL0     H41406   5.826   3.285   7.550 -2.2782 -0.7926 -1.1123
  314MOL0     H41407   5.814   3.287   7.728  1.5809  0.2578  0.3263
  314MOL0     H41408   5.585   3.303   7.733 -0.0053 -2.3012  1.1864
  314MOL0     H41409   5.629   3.178   7.615  1.9736 -0.1155  1.8475
  314MOL0     H41410   5.395   3.531   7.487 -0.1837  0.5022  0.5346
  314MOL0     H41411   5.138   3.523   7.501  0.1633  0.0499 -0.3541
  314MOL0     H41412   4.882   3.258   7.903 -1.1829  3.2093  1.1004
  314MOL0     H41413   4.658   3.227   8.012  2.3553 -2.9350  1.1352
  314MOL0     H41414   4.457   3.378   7.967  0.9259  0.4783  2.6989
  314MOL0     H41415   4.439   3.236   8.065 -1.5017  1.8760  1.0330
  314MOL0     H41416   4.238   3.345   8.108 -2.1311 -1.2838 -0.0441
  314MOL0     H41417   4.190   3.238   7.975  3.7179 -2.1396  2.4051
  314MOL0     H41418   4.228   3.429   7.808  1.2251 -1.6985 -0.1033
  314MOL0     H41419   4.251   3.538   7.934 -1.9530  0.3835  0.9970
  314MOL0     H41420   4.019   3.355   7.893  0.3542 -0.6869 -0.5218
  314MOL0     H41421   4.009   3.473   8.012  0.3185 -0.5398 -0.2722
  314MOL0     H41422   4.000   3.532   7.728 -2.5458 -0.1424  0.5901
  314MOL0     H41423   4.068   3.661   7.827 -1.8653  1.7943 -1.0577
  314MOL0     H41424   3.870   3.687   7.953 -0.1510  0.5651 -0.2764
  314MOL0     H41425   3.806   3.532   7.898 -1.1165  0.2708 -3.2615
  314MOL0     H41426   3.721   3.767   7.827  0.3074 -0.6954  0.3817
  314MOL0     H41427   3.842   3.752   7.695 -0.1639  0.5581  0.4065
  314MOL0     H41428   3.665   3.520   7.728 -1.0605 -0.3091 -1.5548
  314MOL0     H41429   3.760   3.576   7.590 -1.9691 -2.2743  0.0298
  314MOL0     H41430   4.503   3.141   7.598 -0.2823  0.2704 -0.9731
  314MOL0     H41431   4.736   3.142   7.534  1.3970  3.6227 -0.7961
  314MOL0     H41432   5.176   3.107   7.624  1.0082 -0.4283 -2.1389
  314MOL0     H41433   5.411   3.133   7.611  0.7529  0.7049 -1.4948
  314MOL0     H41434   7.418   3.407   7.011  0.6045 -0.9994 -1.1938
  314MOL0     H41435   7.536   3.574   6.881  0.0290 -1.5791  2.3059
  314MOL0     H41436   7.273   3.955   6.394 -0.6872  4.3879 -0.7373
  314MOL0     H41437   7.416   4.083   6.228  1.2077  3.9164  1.9386
  314MOL0     H41438   7.750   4.261   6.375 -0.0761  0.3773 -0.7052
  314MOL0     H41439   7.635   4.322   6.256  0.1662  0.5569  0.8181
  314MOL0     H41440   7.919   4.214   6.166 -0.3369  0.2996 -0.3040
  314MOL0     H41441   7.785   4.258   6.064 -1.7591 -3.0982  0.9851
  314MOL0     H41442   7.816   4.483   6.232 -1.7518 -2.6684  1.1872
  314MOL0     H41443   7.875   4.461   6.067  1.2549 -2.1930 -0.1967
  314MOL0     H41444   8.037   4.364   6.309 -0.7980 -0.3354 -0.0846
  314MOL0     H41445   8.080   4.355   6.130  0.6273  1.2418 -0.8756
  314MOL0     H41446   8.189   4.746   6.192  0.5821 -0.4016 -1.8660
  314MOL0     H41447   7.757   4.033   6.468 -0.2551 -0.4170  0.5324
  314MOL0     H41448   7.616   3.890   6.632  1.8788  1.2957 -0.4596
  315MOL0     O41449   7.286   2.070   0.869 -0.2005  0.0109  0.4127
  315MOL0     C41450   7.337   2.039   0.761  0.7341 -0.0830  0.8081
  315MOL0     O41451   7.278   2.043   0.636  0.3416 -0.2352 -0.0624
  315MOL0     C41452   7.162   2.110   0.613  0.7924 -1.0389 -0.8504
  315MOL0     C41453   7.061   2.045   0.544 -0.2673 -0.2622 -0.3669
  315MOL0     C41454   6.932   2.104   0.529 -0.3232  0.7483 -0.1381
  315MOL0     C41455   6.902   2.235   0.574 -0.4566  0.9574 -0.1305
  315MOL0     O41456   6.777   2.283   0.538 -0.9488  0.4169 -0.8030
  315MOL0     C41457   6.727   2.371   0.638 -0.1105  0.0625  0.0943
  315MOL0     C41458   6.701   2.316   0.781 -0.4162  0.3964  0.7603
  315MOL0     C41459   6.633   2.410   0.874  0.0426  0.8100  1.0551
  315MOL0     C41460   6.628   2.355   1.013  0.4162  0.0122  0.1193
  315MOL0     C41461   6.559   2.459   1.103  0.1577  0.1351 -0.0870
  315MOL0     C41462   6.484   2.397   1.226 -0.9004  0.1131  0.2998
  315MOL0     C41463   6.589   2.329   1.317 -0.4534  0.8950 -0.5694
  315MOL0     C41464   6.524   2.220   1.401 -0.0081  0.0326  0.0032
  315MOL0     N41465   6.630   2.187   1.505 -0.4871 -0.8714  0.1840
  315MOL0     C41466   6.756   2.138   1.478  0.8730  0.2993 -0.7806
  315MOL0     C41467   6.828   2.140   1.594  0.2838 -0.3013  0.3931
  315MOL0     C41468   6.978   2.121   1.596 -0.3048 -0.3618 -1.3617
  315MOL0     C41469   7.045   2.245   1.546  0.2067  0.0771 -0.3325
  315MOL0     C41470   7.052   2.368   1.645 -0.5363  0.1691  0.8379
  315MOL0     C41471   7.181   2.434   1.622 -0.0682 -0.0148  0.2779
  315MOL0     O41472   7.278   2.346   1.669 -0.4391  0.0288 -0.3766
  315MOL0     C41473   7.410   2.373   1.637  0.1093 -0.1313 -0.0309
  315MOL0     C41474   7.468   2.482   1.689 -0.6444  0.7084 -0.0662
  315MOL0     C41475   7.608   2.505   1.668  0.7460  0.5374 -0.5331
  315MOL0     C41476   7.688   2.414   1.592  0.7031  0.6710 -0.7533
  315MOL0     C41477   7.837   2.429   1.583 -1.2513  1.3648  0.2342
  315MOL0     O41478   7.899   2.319   1.525  0.1127 -0.2981  0.2574
  315MOL0     C41479   8.035   2.322   1.506  0.7832  0.0856  0.7127
  315MOL0     C41480   8.099   2.415   1.417  0.0194  0.1293  0.1034
  315MOL0     C41481   8.237   2.423   1.403 -0.1958  0.2109 -0.0624
  315MOL0     C41482   8.323   2.345   1.477  0.0115  0.5207  0.6758
  315MOL0     O41483   8.459   2.364   1.485  0.0213  0.5456  0.3786
  315MOL0     C41484   8.536   2.361   1.362  0.8896 -0.5424 -0.2370
  315MOL0     C41485   8.600   2.221   1.354  0.5305  0.3339 -1.1115
  315MOL0     C41486   8.716   2.188   1.444 -0.0691 -0.0369 -0.9887
  315MOL0     C41487   8.848   2.271   1.410  0.2055  0.2525  0.0342
  315MOL0     C41488   8.963   2.243   1.504 -0.0398 -0.0674  0.1438
  315MOL0     C41489   8.941   2.290   1.650 -0.7067  0.4287 -1.4194
  315MOL0     C41490   9.058   2.293   1.748 -0.1670  0.7678 -0.3782
  315MOL0     C41491   9.144   2.168   1.754 -0.6132 -0.4545 -0.1016
  315MOL0    Cl41492   9.038   2.028   1.813  0.5872  0.1454  0.0862
  315MOL0     C41493   8.261   2.244   1.560 -1.1273  0.4690  0.6302
  315MOL0     C41494   8.122   2.240   1.585  0.4907  0.1238  0.3702
  315MOL0     O41495   7.902   2.526   1.634  0.3461  0.3372 -0.0299
  315MOL0     C41496   7.616   2.315   1.528  0.2292  0.3401  0.9763
  315MOL0     C41497   7.475   2.293   1.547  0.5455 -0.7832  0.0509
  315MOL0     N41498   6.746   2.198   1.682  0.4384 -0.2610  0.2819
  315MOL0     N41499   6.635   2.228   1.636  0.8596  0.0246 -0.4884
  315MOL0     C41500   7.010   2.300   0.649  0.2544  0.3548  0.6018
  315MOL0     C41501   7.139   2.240   0.662 -1.5682  1.4926  0.2657
  315MOL0     C41502   7.465   1.970   0.764 -0.1775  1.0062 -0.1170
  315MOL0     C41503   7.511   1.895   0.876 -0.4252 -0.5208  0.5336
  315MOL0     C41504   7.622   1.807   0.859  0.4851 -0.6923 -0.1913
  315MOL0     C41505   7.711   1.817   0.748 -0.4802 -0.2441  0.1796
  315MOL0     O41506   7.814   1.731   0.758  0.0406  0.5176 -0.4575
  315MOL0     C41507   7.926   1.733   0.671 -1.0286 -0.4743  0.0033
  315MOL0     C41508   8.043   1.643   0.740  0.2200  0.1621  0.1868
  315MOL0     C41509   8.023   1.501   0.717  1.1423  0.4676  0.3130
  315MOL0     C41510   7.904   1.440   0.797  0.4694 -0.3013 -0.2348
  315MOL0     C41511   7.941   1.441   0.946  0.1675 -0.2573 -0.1546
  315MOL0     C41512   7.976   1.438   1.062  0.4023 -0.3903 -0.2323
  315MOL0     C41513   7.673   1.899   0.640  0.3292  0.1513 -0.1845
  315MOL0     C41514   7.549   1.974   0.652 -0.5824  0.2462  0.8202
  315MOL0     H41515   7.068   1.939   0.520 -1.1727 -0.3596 -0.2334
  315MOL0     H41516   6.853   2.043   0.486 -1.7368  1.8880  0.7403
  315MOL0     H41517   6.637   2.421   0.601  0.0969  0.3398 -0.0411
  315MOL0     H41518   6.803   2.449   0.650  0.8315 -1.0535  1.8801
  315MOL0     H41519   6.798   2.284   0.820 -1.2866 -1.3033  1.6514
  315MOL0     H41520   6.634   2.229   0.785 -0.8865  0.6249 -1.0245
  315MOL0     H41521   6.532   2.435   0.838 -0.1898  2.6834  2.8195
  315MOL0     H41522   6.693   2.500   0.894 -0.0004  0.5231  2.5736
  315MOL0     H41523   6.581   2.256   1.009 -0.1454  0.2851 -0.0916
  315MOL0     H41524   6.722   2.331   1.063  0.1544  4.8455  3.6515
  315MOL0     H41525   6.485   2.521   1.051  1.0665  0.9178 -0.4777
  315MOL0     H41526   6.642   2.521   1.138 -1.8093  3.8349 -1.4981
  315MOL0     H41527   6.410   2.327   1.186  0.3423 -1.6677  1.0079
  315MOL0     H41528   6.422   2.465   1.286 -0.4476  1.5366 -0.7816
  315MOL0     H41529   6.675   2.281   1.269 -2.2295 -3.2627  0.0297
  315MOL0     H41530   6.617   2.410   1.384 -2.9681  1.0252  0.4257
  315MOL0     H41531   6.500   2.133   1.339 -2.5796  1.0002 -0.4846
  315MOL0     H41532   6.431   2.263   1.441  0.2549  0.8642 -0.2482
  315MOL0     H41533   6.780   2.102   1.378 -1.8485  1.3381 -1.9079
  315MOL0     H41534   7.008   2.039   1.531 -0.1197  2.3422 -5.0154
  315MOL0     H41535   7.012   2.098   1.698  0.9376 -1.1518 -1.9339
  315MOL0     H41536   7.000   2.280   1.453  1.0545  1.4585 -0.2502
  315MOL0     H41537   7.149   2.224   1.518  0.3753  0.5335 -0.0606
  315MOL0     H41538   6.980   2.450   1.642 -0.1999  0.5077  1.6362
  315MOL0     H41539   7.055   2.319   1.743  4.1047 -1.1891  0.2593
  315MOL0     H41540   7.185   2.525   1.683 -4.5243  0.6735 -0.1156
  315MOL0     H41541   7.197   2.457   1.516  3.3083 -3.3921 -0.1687
  315MOL0     H41542   7.410   2.532   1.767 -2.5762  1.2113 -1.7302
  315MOL0     H41543   7.661   2.587   1.716  1.9890  3.1584 -5.6245
  315MOL0     H41544   8.038   2.478   1.353 -0.8870 -2.5268 -1.8590
  315MOL0     H41545   8.272   2.506   1.342 -2.7386  1.5138  0.1157
  315MOL0     H41546   8.620   2.430   1.359 -0.6916  1.4580 -0.8597
  315MOL0     H41547   8.469   2.370   1.276 -1.1731  0.8872  1.4159
  315MOL0     H41548   8.628   2.209   1.249 -0.2355  3.2528 -1.7607
  315MOL0     H41549   8.516   2.156   1.377 -0.5555  1.6086 -1.3436
  315MOL0     H41550   8.746   2.085   1.423 -1.9621 -0.5127 -1.4884
  315MOL0     H41551   8.688   2.198   1.549  0.6634  0.9512 -0.8678
  315MOL0     H41552   8.894   2.236   1.317  2.1095  2.6302 -0.0028
  315MOL0     H41553   8.833   2.379   1.407 -3.2120 -0.0890  1.1439
  315MOL0     H41554   9.045   2.302   1.462 -0.6258  0.0587 -0.8544
  315MOL0     H41555   8.995   2.139   1.494  2.0956  0.6532 -1.3563
  315MOL0     H41556   8.860   2.223   1.680 -0.8236  0.9835 -0.4405
  315MOL0     H41557   8.901   2.392   1.661 -1.4331 -0.0125  0.3503
  315MOL0     H41558   9.121   2.376   1.715 -1.2889  2.2384  1.0582
  315MOL0     H41559   9.020   2.309   1.849  0.7937 -3.6265  0.8953
  315MOL0     H41560   9.230   2.180   1.821 -2.0243  0.1111  1.6875
  315MOL0     H41561   9.182   2.138   1.656  5.3107  0.5679  1.4516
  315MOL0     H41562   8.333   2.183   1.612 -0.6213 -0.5000 -1.1288
  315MOL0     H41563   8.088   2.169   1.659 -0.4434  2.1034  1.9307
  315MOL0     H41564   7.681   2.248   1.472  1.5737  3.1112 -1.0243
  315MOL0     H41565   7.424   2.205   1.510  1.6793 -3.1659  3.5814
  315MOL0     H41566   7.006   2.398   0.694 -2.4554  0.5705  0.0750
  315MOL0     H41567   7.211   2.285   0.729 -0.4265 -0.6161  0.5112
  315MOL0     H41568   7.465   1.892   0.975 -0.3159 -0.5288  0.5841
  315MOL0     H41569   7.646   1.752   0.950  1.7108 -1.2497 -0.8286
  315MOL0     H41570   7.960   1.836   0.663 -1.6603 -0.3989 -2.3646
  315MOL0     H41571   7.901   1.700   0.570 -1.3998 -1.0140  0.2631
  315MOL0     H41572   8.141   1.674   0.701  1.1094 -0.0386  2.1452
  315MOL0     H41573   8.046   1.662   0.847 -2.5541 -0.5418  0.4661
  315MOL0     H41574   8.106   1.440   0.756  0.5291 -1.6779 -1.5305
  315MOL0     H41575   8.001   1.481   0.612  1.0829 -1.9319  0.7305
  315MOL0     H41576   7.806   1.489   0.788  0.3860  0.0299  1.9264
  315MOL0     H41577   7.888   1.338   0.761  0.7151  0.4861 -2.7509
  315MOL0     H41578   7.992   1.440   1.168  1.1868  5.1814 -0.1500
  315MOL0     H41579   7.731   1.894   0.548 -0.0280 -1.9206 -0.3492
  315MOL0     H41580   7.517   2.024   0.561 -0.1058  0.9315  1.0254
  316MOL0     O41581   4.073   1.544   5.238  0.7677 -0.5960 -0.3412
  316MOL0     C41582   4.082   1.622   5.326 -0.6739  0.0821 -0.9124
  316MOL0     O41583   4.001   1.728   5.353  0.4731 -1.1960 -0.9533
  316MOL0     C41584   3.909   1.778   5.264  0.7386 -0.1094 -0.5534
  316MOL0     C41585   3.795   1.829   5.318 -0.5265  0.0524 -0.1740
  316MOL0     C41586   3.708   1.910   5.239 -0.4854 -0.3682 -0.0377
  316MOL0     C41587   3.735   1.939   5.108 -0.5131  0.6607  0.0820
  316MOL0     O41588   3.655   2.033   5.040  0.1925 -0.7445 -0.9535
  316MOL0     C41589   3.652   2.014   4.897 -0.6055 -0.0818  0.5119
  316MOL0     C41590   3.531   2.099   4.851  0.1542  0.0478  0.5522
  316MOL0     C41591   3.405   2.091   4.937  0.4319  0.4742 -1.0113
  316MOL0     C41592   3.338   1.954   4.941  0.1476 -0.5914 -0.1981
  316MOL0     C41593   3.207   1.954   5.017 -0.0599 -0.3190 -0.0267
  316MOL0     C41594   3.207   1.982   5.168  0.5168  0.3997  0.2788
  316MOL0     C41595   3.068   1.967   5.232  0.6255 -0.6678  0.7212
  316MOL0     C41596   2.967   2.079   5.185  0.2859  0.4237  0.1214
  316MOL0     N41597   2.842   2.073   5.261 -0.0212 -0.2559 -0.6112
  316MOL0     C41598   2.771   2.162   5.334 -0.4295  0.0517  0.2635
  316MOL0     C41599   2.662   2.099   5.388 -0.1373 -0.0773 -0.4412
  316MOL0     C41600   2.549   2.158   5.465 -0.2653 -0.0645  0.5326
  316MOL0     C41601   2.532   2.308   5.442  0.2782 -0.4554  0.7843
  316MOL0     C41602   2.408   2.359   5.513 -0.0547 -0.8582  0.5012
  316MOL0     C41603   2.276   2.330   5.443 -0.3463  0.8163 -0.6253
  316MOL0     O41604   2.173   2.403   5.489 -0.4489 -0.7788 -0.6317
  316MOL0     C41605   2.049   2.391   5.425 -0.2990 -0.0756 -0.2875
  316MOL0     C41606   2.000   2.285   5.348  0.1403 -0.1257  0.2719
  316MOL0     C41607   1.867   2.291   5.294 -0.0543 -1.2123  0.6009
  316MOL0     C41608   1.786   2.406   5.307 -0.0003  0.3811  0.1994
  316MOL0     C41609   1.647   2.413   5.250 -0.2059  0.6998  0.0655
  316MOL0     O41610   1.599   2.535   5.224  0.1783  0.3426 -0.5505
  316MOL0     C41611   1.478   2.550   5.170  0.8345 -0.2466 -1.2454
  316MOL0     C41612   1.373   2.606   5.244 -0.4293 -0.4469 -0.6792
  316MOL0     C41613   1.239   2.611   5.199  0.3579  0.1297  0.2384
  316MOL0     C41614   1.213   2.567   5.068 -0.0281  0.3226 -0.2801
  316MOL0     O41615   1.096   2.566   5.005 -0.7157 -0.1546 -0.3816
  316MOL0     C41616   1.052   2.707   4.978  0.7821 -0.5618  0.8453
  316MOL0     C41617   0.899   2.700   4.994 -0.6499 -0.7605  0.6480
  316MOL0     C41618   0.848   2.837   4.960 -0.7300  0.2443 -0.5075
  316MOL0     C41619   0.704   2.871   4.978 -0.2174 -0.0535 -0.0254
  316MOL0     C41620   0.677   3.022   4.951 -0.3041 -0.4797 -0.1834
  316MOL0     C41621   0.544   3.071   5.002  0.0276 -0.0385 -0.7344
  316MOL0     C41622   0.436   3.037   4.906 -0.3609 -0.0410 -0.0459
  316MOL0     C41623   0.311   3.097   4.956  0.4843  0.5117 -0.4004
  316MOL0    Cl41624   0.184   3.003   4.891 -0.5127  0.0165 -0.1134
  316MOL0     C41625   1.323   2.524   4.994  0.4482  0.4567  0.1325
  316MOL0     C41626   1.448   2.516   5.041 -1.8363  0.3862  1.5047
  316MOL0     O41627   1.594   2.306   5.214 -1.0434 -0.3633 -0.0194
  316MOL0     C41628   1.833   2.511   5.386  0.4229  0.3148 -0.4114
  316MOL0     C41629   1.960   2.503   5.442  0.1622 -0.8419  0.0280
  316MOL0     N41630   2.669   1.968   5.345 -0.0856 -0.6620 -0.2207
  316MOL0     N41631   2.769   1.959   5.265 -0.2890 -0.3489 -0.4174
  316MOL0     C41632   3.845   1.873   5.045  0.4927 -0.2089 -0.4031
  316MOL0     C41633   3.925   1.789   5.124  0.1703 -0.3104  0.5124
  316MOL0     C41634   4.187   1.579   5.424 -0.1469 -0.6796 -0.6413
  316MOL0     C41635   4.301   1.500   5.404  0.4415 -0.5258  0.5201
  316MOL0     C41636   4.392   1.471   5.505  0.3457  0.6773  0.6142
  316MOL0     C41637   4.374   1.522   5.634 -0.4853  0.3193 -0.0424
  316MOL0     O41638   4.462   1.465   5.721 -0.0182 -0.2476 -0.1850
  316MOL0     C41639   4.515   1.539   5.834  0.8504  0.4752  0.8155
  316MOL0     C41640   4.577   1.433   5.932  0.4585 -0.1913 -0.9349
  316MOL0     C41641   4.655   1.510   6.045  0.5158  0.7294  0.1010
  316MOL0     C41642   4.757   1.422   6.130  0.1928  0.2674 -0.1654
  316MOL0     C41643   4.691   1.328   6.225 -0.2964  0.2984  0.1820
  316MOL0     C41644   4.647   1.262   6.318 -0.0718 -0.6785 -0.1487
  316MOL0     C41645   4.277   1.625   5.654 -1.8767  0.4905  0.5324
  316MOL0     C41646   4.180   1.644   5.552  0.4939  0.0132  0.5289
  316MOL0     H41647   3.758   1.814   5.419 -1.4355  0.0363 -0.4967
  316MOL0     H41648   3.617   1.952   5.281 -0.0652 -0.6703  1.2153
  316MOL0     H41649   3.640   1.908   4.873 -2.5081  0.6121 -2.1419
  316MOL0     H41650   3.742   2.055   4.851  0.9748 -2.1114  1.6268
  316MOL0     H41651   3.506   2.073   4.747  1.4235 -0.5049  0.3758
  316MOL0     H41652   3.551   2.207   4.854 -0.7032  0.2284  3.9760
  316MOL0     H41653   3.323   2.160   4.913  0.0853  0.3769 -0.1381
  316MOL0     H41654   3.418   2.122   5.041 -2.5515  3.1507 -1.2775
  316MOL0     H41655   3.312   1.941   4.835  1.9829  0.6552 -0.8650
  316MOL0     H41656   3.395   1.864   4.966  0.3309 -0.8514 -1.4594
  316MOL0     H41657   3.168   1.853   5.002 -1.7780  0.2823  0.0967
  316MOL0     H41658   3.134   2.020   4.969  0.7529  0.7878  0.2094
  316MOL0     H41659   3.251   2.078   5.198 -1.8807  1.6479  0.0293
  316MOL0     H41660   3.257   1.902   5.222 -0.1719  0.3761  0.8831
  316MOL0     H41661   3.013   1.879   5.198  0.0316  0.1205 -0.4331
  316MOL0     H41662   3.077   1.970   5.341  1.4090 -1.5170  0.6849
  316MOL0     H41663   2.952   2.069   5.077 -0.1064 -1.2532  0.3044
  316MOL0     H41664   3.007   2.178   5.207 -0.4410  0.6642  0.3831
  316MOL0     H41665   2.801   2.265   5.346  0.9387 -0.0459 -1.7838
  316MOL0     H41666   2.576   2.131   5.568  0.6142  0.9044  0.5699
  316MOL0     H41667   2.456   2.106   5.441  0.4703 -0.9901 -0.3918
  316MOL0     H41668   2.525   2.338   5.337  0.7362  3.1088  1.6249
  316MOL0     H41669   2.617   2.363   5.481 -0.7652 -0.0938  2.6530
  316MOL0     H41670   2.394   2.327   5.617 -4.1659 -0.0483  0.3499
  316MOL0     H41671   2.430   2.466   5.507  1.9228 -1.3025 -1.7503
  316MOL0     H41672   2.250   2.224   5.457  1.3010  0.3773 -0.6514
  316MOL0     H41673   2.288   2.344   5.335  1.8325  0.5796 -0.4750
  316MOL0     H41674   2.061   2.197   5.330 -0.8111 -0.2964 -2.5893
  316MOL0     H41675   1.828   2.211   5.232 -1.0054 -2.6981  2.9578
  316MOL0     H41676   1.384   2.621   5.351  3.4406 -3.8490 -0.3463
  316MOL0     H41677   1.150   2.644   5.252  0.5209  0.8328  0.0851
  316MOL0     H41678   1.085   2.744   4.881 -0.4635 -0.7252  0.3514
  316MOL0     H41679   1.084   2.777   5.056  3.7392 -1.5909  0.6767
  316MOL0     H41680   0.870   2.681   5.097 -3.3260 -0.5849 -0.0029
  316MOL0     H41681   0.865   2.623   4.924  0.4552 -0.6666 -0.0143
  316MOL0     H41682   0.861   2.858   4.853 -0.7947  0.6561 -0.4373
  316MOL0     H41683   0.904   2.911   5.018  1.4233  0.1719 -2.3608
  316MOL0     H41684   0.647   2.809   4.908  0.2686  2.4591 -2.8200
  316MOL0     H41685   0.671   2.848   5.080  1.0189 -1.1304  0.1575
  316MOL0     H41686   0.687   3.038   4.843 -1.3410 -1.3178 -0.4209
  316MOL0     H41687   0.764   3.073   4.994  0.2852  0.0760 -1.9291
  316MOL0     H41688   0.555   3.179   5.013 -0.3767  0.0489 -1.1835
  316MOL0     H41689   0.537   3.035   5.106  0.7558  2.3319  0.1862
  316MOL0     H41690   0.454   3.076   4.805  1.7850 -0.9064 -0.0484
  316MOL0     H41691   0.425   2.928   4.908 -3.5453  0.2176  1.1819
  316MOL0     H41692   0.312   3.199   4.917  1.0251  0.7507  0.2205
  316MOL0     H41693   0.307   3.102   5.066  2.2858  0.6424 -0.3205
  316MOL0     H41694   1.317   2.501   4.888  2.4378 -0.9180  0.2555
  316MOL0     H41695   1.531   2.478   4.984  0.6629  0.2143  4.9037
  316MOL0     H41696   1.776   2.603   5.397  1.5103  1.2540 -2.2012
  316MOL0     H41697   1.992   2.595   5.489 -2.3715  0.6760 -1.0150
  316MOL0     H41698   3.855   1.903   4.942  0.2764  1.9004  0.1422
  316MOL0     H41699   4.001   1.728   5.076 -0.2699  1.6177 -2.9807
  316MOL0     H41700   4.321   1.457   5.306  2.1327  0.9668  0.1543
  316MOL0     H41701   4.483   1.415   5.484  0.4239  1.7618 -2.5213
  316MOL0     H41702   4.436   1.582   5.895 -0.4336 -2.0778  1.0920
  316MOL0     H41703   4.587   1.614   5.801 -0.0886 -0.4437 -4.3222
  316MOL0     H41704   4.511   1.355   5.971 -1.6509  1.3523 -1.2453
  316MOL0     H41705   4.648   1.379   5.870 -0.2513 -1.7903 -0.4276
  316MOL0     H41706   4.581   1.549   6.115 -1.9719 -4.2596  0.7061
  316MOL0     H41707   4.712   1.587   5.991  2.0714 -0.4237  0.0191
  316MOL0     H41708   4.828   1.362   6.071  2.2871  0.9679  1.5260
  316MOL0     H41709   4.819   1.494   6.184  1.1823 -1.3507  0.9609
  316MOL0     H41710   4.610   1.206   6.401  2.2692  1.0101  2.1766
  316MOL0     H41711   4.280   1.685   5.744  1.6543  3.2354 -1.1623
  316MOL0     H41712   4.096   1.708   5.575  1.4207  1.3046  0.3923
  317MOL0     O41713   4.492   8.038  11.099 -1.2907 -0.2206  0.1638
  317MOL0     C41714   4.415   7.944  11.100 -0.4603  0.0913  0.3407
  317MOL0     O41715   4.375   7.879  11.216  0.1989  0.3802  0.2212
  317MOL0     C41716   4.404   7.935  11.336 -0.2966  0.0619  0.5812
  317MOL0     C41717   4.364   8.064  11.372  0.2248  0.1765 -0.7545
  317MOL0     C41718   4.374   8.112  11.500 -0.5346 -0.3630 -0.3872
  317MOL0     C41719   4.423   8.029  11.593 -0.3692  0.1221 -0.5587
  317MOL0     O41720   4.432   8.066  11.731  0.5520 -0.4740 -0.3594
  317MOL0     C41721   4.326   8.143  11.794 -0.0161 -0.4077  0.2778
  317MOL0     C41722   4.241   8.042  11.881  0.1024 -0.0969 -0.1653
  317MOL0     C41723   4.108   7.989  11.833  0.9100  0.5289 -0.7393
  317MOL0     C41724   4.049   7.885  11.939 -1.1445  0.3330  1.3809
  317MOL0     C41725   3.893   7.871  11.942 -0.7006  0.4500  0.2444
  317MOL0     C41726   3.840   7.776  11.847 -0.1886 -0.6917 -0.5076
  317MOL0     C41727   3.689   7.791  11.865  0.2317 -0.0616  0.3691
  317MOL0     C41728   3.617   7.703  11.758 -1.3284 -0.6180 -0.6838
  317MOL0     N41729   3.638   7.557  11.770 -0.3240 -0.6723  0.1774
  317MOL0     C41730   3.708   7.475  11.685  0.4525  0.0238  0.3453
  317MOL0     C41731   3.675   7.345  11.719 -0.5542  0.2219 -0.4333
  317MOL0     C41732   3.747   7.224  11.660 -0.0791  0.4235 -1.4696
  317MOL0     C41733   3.896   7.224  11.699 -0.2848  0.5025 -0.7396
  317MOL0     C41734   3.991   7.155  11.593  0.5435 -0.2539  0.3083
  317MOL0     C41735   4.112   7.084  11.641 -1.0089  0.3819  0.2180
  317MOL0     O41736   4.098   6.994  11.746 -0.1766 -0.0924 -1.0545
  317MOL0     C41737   4.209   6.962  11.821  0.1719 -1.1539  0.3044
  317MOL0     C41738   4.345   6.974  11.785  1.3763  0.3197  0.2910
  317MOL0     C41739   4.450   6.920  11.852  0.1878  0.7940  1.3585
  317MOL0     C41740   4.432   6.851  11.970  0.4681  0.2281  0.1067
  317MOL0     C41741   4.543   6.801  12.053 -0.2093  0.0140 -0.5223
  317MOL0     O41742   4.661   6.863  12.034 -0.0364 -0.4935  0.0402
  317MOL0     C41743   4.767   6.835  12.121  0.5847 -0.5855  0.5433
  317MOL0     C41744   4.821   6.706  12.137  0.4611  0.3610 -0.4622
  317MOL0     C41745   4.923   6.675  12.223 -0.1433  0.5566 -0.1518
  317MOL0     C41746   4.996   6.780  12.289  0.8742  1.1022  0.7412
  317MOL0     O41747   5.110   6.760  12.362  0.8337 -0.0050  0.0800
  317MOL0     C41748   5.183   6.636  12.349  1.2037 -0.8786  0.3192
  317MOL0     C41749   5.301   6.634  12.433 -0.3236 -0.8425 -0.2008
  317MOL0     C41750   5.421   6.736  12.396 -0.0340  0.1341  0.0242
  317MOL0     C41751   5.412   6.875  12.462 -0.1241 -0.7987  0.1430
  317MOL0     C41752   5.546   6.941  12.470  0.4034  0.2701 -0.5965
  317MOL0     C41753   5.539   7.080  12.530  1.9703 -0.5011 -1.3273
  317MOL0     C41754   5.673   7.158  12.550 -0.1698  0.0683 -0.3168
  317MOL0     C41755   5.708   7.197  12.696 -0.4758 -0.4407  0.4668
  317MOL0    Cl41756   5.568   7.272  12.784 -0.1951 -0.1100 -0.2358
  317MOL0     C41757   4.954   6.906  12.253 -0.8685 -0.5536 -1.0142
  317MOL0     C41758   4.847   6.935  12.180  0.5162  0.8172  0.6764
  317MOL0     O41759   4.521   6.726  12.148  0.8842 -0.3490 -0.4979
  317MOL0     C41760   4.299   6.840  12.022  0.1532 -0.3095  0.6775
  317MOL0     C41761   4.193   6.898  11.949  0.1710  1.2025 -0.7796
  317MOL0     N41762   3.586   7.349  11.821 -0.0925 -0.5857 -0.2928
  317MOL0     N41763   3.573   7.472  11.853 -0.1996  0.0563  0.1761
  317MOL0     C41764   4.473   7.901  11.561  0.8658  0.0592 -0.8614
  317MOL0     C41765   4.457   7.852  11.431  0.3180  0.2539 -0.5312
  317MOL0     C41766   4.423   7.865  10.978 -0.2457 -0.3762 -1.2443
  317MOL0     C41767   4.495   7.922  10.866  0.1831 -0.1767 -0.3584
  317MOL0     C41768   4.505   7.840  10.753  0.7498 -0.1551  0.9919
  317MOL0     C41769   4.451   7.706  10.740 -1.1031 -0.3928  0.1821
  317MOL0     O41770   4.452   7.609  10.637 -0.5821 -0.1262  0.6176
  317MOL0     C41771   4.511   7.652  10.512  0.0128  0.3521  0.2921
  317MOL0     C41772   4.513   7.553  10.401  0.0595  0.5215  0.2960
  317MOL0     C41773   4.374   7.507  10.346 -0.3892  0.7829  0.2598
  317MOL0     C41774   4.387   7.453  10.201  0.1234 -0.9191  0.3314
  317MOL0     C41775   4.492   7.350  10.188  0.2333  0.4544  1.3367
  317MOL0     C41776   4.574   7.263  10.172  0.1240 -0.4756 -0.3995
  317MOL0     C41777   4.391   7.655  10.857 -0.1925  0.3854 -0.4827
  317MOL0     C41778   4.374   7.733  10.974  1.2577 -0.7261 -0.5473
  317MOL0     H41779   4.332   8.123  11.286  1.8740 -1.5482 -2.6509
  317MOL0     H41780   4.344   8.213  11.527 -1.4304 -1.0795  1.5125
  317MOL0     H41781   4.250   8.186  11.728 -1.4098 -1.4592  1.1402
  317MOL0     H41782   4.371   8.222  11.855  0.2094  0.5185 -1.0286
  317MOL0     H41783   4.209   8.084  11.977  0.3284 -1.2403  0.4254
  317MOL0     H41784   4.315   7.964  11.898  0.4380 -0.5004 -3.0378
  317MOL0     H41785   4.111   7.942  11.734 -1.6316  1.5484 -1.3851
  317MOL0     H41786   4.037   8.072  11.820 -0.1955  0.4611  3.3869
  317MOL0     H41787   4.096   7.788  11.918  1.4767  1.7422  0.2572
  317MOL0     H41788   4.074   7.923  12.038 -3.0973  1.8784  1.3309
  317MOL0     H41789   3.847   7.967  11.916 -2.4799 -1.0922 -2.9651
  317MOL0     H41790   3.868   7.845  12.045 -3.9127  3.0082  0.2771
  317MOL0     H41791   3.867   7.673  11.871  3.5144 -0.5058 -3.0088
  317MOL0     H41792   3.869   7.802  11.745 -0.9004  0.6270 -0.3986
  317MOL0     H41793   3.657   7.764  11.966 -2.4826 -0.6368 -0.5755
  317MOL0     H41794   3.659   7.894  11.844  1.0053  0.0368 -0.3164
  317MOL0     H41795   3.666   7.742  11.668  1.5781 -0.5146  0.8210
  317MOL0     H41796   3.511   7.726  11.769 -0.9738  1.1639 -0.6875
  317MOL0     H41797   3.778   7.493  11.604 -0.4922 -2.6456 -1.2002
  317MOL0     H41798   3.749   7.234  11.551  1.3773  0.8011 -1.4359
  317MOL0     H41799   3.690   7.137  11.692  3.0577 -0.5774  2.2148
  317MOL0     H41800   3.902   7.177  11.797  1.5386 -0.8895 -1.4512
  317MOL0     H41801   3.942   7.322  11.717  2.2951 -0.8694  0.7102
  317MOL0     H41802   3.930   7.076  11.547  1.7996 -0.8032 -0.4649
  317MOL0     H41803   4.016   7.234  11.521 -0.5905 -0.2249 -0.0752
  317MOL0     H41804   4.182   7.165  11.666  0.6608  0.0936 -2.9616
  317MOL0     H41805   4.159   7.019  11.567  1.7550  0.4744  1.7441
  317MOL0     H41806   4.363   7.008  11.684  0.1648  0.8947  0.2542
  317MOL0     H41807   4.540   6.948  11.798 -2.2470  2.0622 -2.4733
  317MOL0     H41808   4.770   6.619  12.099  1.0092 -0.7077  1.1466
  317MOL0     H41809   4.950   6.575  12.256  0.0213  0.8258  0.5591
  317MOL0     H41810   5.221   6.635  12.246  1.8596 -1.7499  0.5646
  317MOL0     H41811   5.126   6.545  12.365  0.6427 -0.7070 -0.5924
  317MOL0     H41812   5.347   6.537  12.413 -1.1324 -1.2546 -0.0853
  317MOL0     H41813   5.275   6.641  12.539 -1.3437  1.7344 -0.5410
  317MOL0     H41814   5.421   6.740  12.287  2.5945 -3.4157 -0.2664
  317MOL0     H41815   5.512   6.688  12.434 -1.2989 -2.6143 -0.1936
  317MOL0     H41816   5.344   6.941  12.408 -0.9362  0.9580  3.0719
  317MOL0     H41817   5.371   6.873  12.563  2.4781  0.2831  1.3260
  317MOL0     H41818   5.591   6.942  12.371  1.4905  0.7873 -0.1214
  317MOL0     H41819   5.599   6.882  12.545 -2.4535  1.6858  2.8376
  317MOL0     H41820   5.500   7.067  12.631  3.7530 -1.1726 -0.6908
  317MOL0     H41821   5.465   7.144  12.481  0.5961 -0.7506  0.3470
  317MOL0     H41822   5.744   7.100  12.490 -1.4707 -3.1383  1.0329
  317MOL0     H41823   5.656   7.254  12.501 -2.0957 -0.9212 -1.6931
  317MOL0     H41824   5.793   7.265  12.689  0.4168 -1.0714  3.5310
  317MOL0     H41825   5.736   7.103  12.743 -1.4556 -2.3004 -2.4214
  317MOL0     H41826   5.020   6.988  12.279 -0.0058 -1.3378 -0.6599
  317MOL0     H41827   4.816   7.039  12.179 -1.4174  0.3874  3.5168
  317MOL0     H41828   4.279   6.789  12.116 -1.5321 -1.6205 -0.3272
  317MOL0     H41829   4.094   6.884  11.992  0.8395 -0.6231  0.2343
  317MOL0     H41830   4.503   7.836  11.643 -2.1018 -0.9245 -0.4635
  317MOL0     H41831   4.486   7.750  11.410 -1.2834 -0.8391  2.0254
  317MOL0     H41832   4.543   8.018  10.849 -2.7961  1.3811 -0.5613
  317MOL0     H41833   4.565   7.871  10.668  1.5925 -2.6875  0.5722
  317MOL0     H41834   4.614   7.688  10.522 -0.6557  1.8844  2.3796
  317MOL0     H41835   4.450   7.731  10.467 -2.0921 -1.8548 -0.9680
  317MOL0     H41836   4.569   7.594  10.317  3.0244 -1.9984  0.8434
  317MOL0     H41837   4.571   7.467  10.435 -0.1736  0.1776 -0.1776
  317MOL0     H41838   4.293   7.581  10.352  0.4876  1.9107 -1.1589
  317MOL0     H41839   4.343   7.424  10.410  1.7759 -0.4376 -0.2025
  317MOL0     H41840   4.291   7.421  10.161  1.0563 -1.4999 -1.5825
  317MOL0     H41841   4.422   7.539  10.143 -1.4115 -1.0709 -0.8776
  317MOL0     H41842   4.642   7.180  10.166 -0.0604 -0.6475 -0.1440
  317MOL0     H41843   4.346   7.557  10.868  1.6875 -0.3299  1.3701
  317MOL0     H41844   4.338   7.685  11.064 -0.6733  2.3539  0.4933
  318MOL0     O41845   9.193   8.846   2.036 -0.1418 -0.3464 -0.7586
  318MOL0     C41846   9.118   8.892   2.124 -0.4192  0.2284 -0.2380
  318MOL0     O41847   9.084   9.023   2.138 -0.5984  0.3835 -0.6313
  318MOL0     C41848   9.109   9.099   2.025  0.5799 -0.4447  0.4049
  318MOL0     C41849   8.996   9.154   1.974 -0.0923 -1.2234  0.3931
  318MOL0     C41850   8.998   9.248   1.862 -0.7741 -0.7787  0.3941
  318MOL0     C41851   9.121   9.273   1.800 -0.0716  0.5369 -1.6815
  318MOL0     O41852   9.123   9.356   1.687 -0.5405  0.1833 -0.2046
  318MOL0     C41853   9.153   9.301   1.563 -0.1541  0.3285 -0.2264
  318MOL0     C41854   9.218   9.402   1.470 -0.1578  0.6842  0.2724
  318MOL0     C41855   9.117   9.496   1.407 -0.2843  1.6942 -0.5707
  318MOL0     C41856   9.174   9.615   1.329 -0.5546  0.5423  1.0586
  318MOL0     C41857   9.065   9.668   1.232  0.3357  0.2025 -0.3826
  318MOL0     C41858   9.124   9.798   1.167  0.8355  0.3137  0.3573
  318MOL0     C41859   9.021   9.877   1.090 -0.0528 -0.3385  0.3335
  318MOL0     C41860   8.924   9.777   1.023  0.1032 -0.5479  0.4157
  318MOL0     N41861   8.827   9.853   0.948  0.4713  0.4109 -0.2723
  318MOL0     C41862   8.701   9.803   0.918 -0.3228 -0.2471 -0.4534
  318MOL0     C41863   8.641   9.904   0.846 -0.2939  0.2350 -0.4340
  318MOL0     C41864   8.505   9.915   0.788 -0.2949  0.4486  0.2296
  318MOL0     C41865   8.514   9.969   0.650  0.3271 -0.7880  0.1914
  318MOL0     C41866   8.410   9.903   0.548 -0.8179  0.0083  0.3118
  318MOL0     C41867   8.267   9.949   0.578  1.4153  0.1216 -0.7784
  318MOL0     O41868   8.274  10.089   0.579 -0.4266 -0.7410 -0.0195
  318MOL0     C41869   8.166  10.160   0.621  0.0512  0.2772  0.0478
  318MOL0     C41870   8.195  10.293   0.624 -0.3320  0.1181 -0.4716
  318MOL0     C41871   8.089  10.388   0.649  0.1296 -0.3278  0.3972
  318MOL0     C41872   7.956  10.346   0.672 -0.4391  0.1330  0.4932
  318MOL0     C41873   7.846  10.444   0.684  0.9356 -0.3485  0.2200
  318MOL0     O41874   7.744  10.405   0.764 -0.5670  0.5498 -0.1493
  318MOL0     C41875   7.631  10.482   0.761  0.7664  0.4039  0.0712
  318MOL0     C41876   7.611  10.556   0.882  0.0175  0.8128  0.4852
  318MOL0     C41877   7.506  10.646   0.890  0.1427 -0.8540 -0.1694
  318MOL0     C41878   7.428  10.676   0.774  0.5346  0.0908  0.0694
  318MOL0     O41879   7.331  10.780   0.771 -0.3523 -0.6111 -0.6173
  318MOL0     C41880   7.377  10.911   0.802  0.3016  0.7090 -1.3018
  318MOL0     C41881   7.317  11.009   0.706  0.6134 -0.6113  0.2691
  318MOL0     C41882   7.330  11.150   0.751  1.2908 -0.1129  0.5485
  318MOL0     C41883   7.303  11.269   0.647  1.3569  0.7106 -0.5487
  318MOL0     C41884   7.427  11.338   0.587  0.4737  0.3410  0.2413
  318MOL0     C41885   7.494  11.432   0.689 -0.3701 -0.4428 -0.0049
  318MOL0     C41886   7.639  11.465   0.670 -0.2739 -0.1298 -0.9005
  318MOL0     C41887   7.703  11.436   0.535  0.0891  0.6729 -0.0669
  318MOL0    Cl41888   7.623  11.530   0.407 -0.0490 -0.2746  0.1577
  318MOL0     C41889   7.454  10.602   0.656 -0.2298 -0.6751 -0.5849
  318MOL0     C41890   7.547  10.494   0.654  1.4528  0.1837 -0.1816
  318MOL0     O41891   7.858  10.560   0.634 -0.2442  0.6497  0.9547
  318MOL0     C41892   7.936  10.206   0.688 -0.8050 -0.0239  0.4162
  318MOL0     C41893   8.041  10.113   0.667  0.1744 -0.4543  0.1200
  318MOL0     N41894   8.734  10.008   0.819 -0.2025  0.1578 -0.4528
  318MOL0     N41895   8.843   9.967   0.881  0.1143 -0.2944  0.5788
  318MOL0     C41896   9.234   9.204   1.846  0.1176 -0.2130 -0.1375
  318MOL0     C41897   9.234   9.129   1.966  0.7679 -0.3754  0.3746
  318MOL0     C41898   9.058   8.802   2.224 -0.1074 -0.1871  1.0204
  318MOL0     C41899   8.964   8.850   2.318 -0.1651  0.5467  0.5780
  318MOL0     C41900   8.928   8.776   2.430 -1.0167  1.2644 -0.1700
  318MOL0     C41901   8.980   8.648   2.443  0.2025 -0.3286 -0.1499
  318MOL0     O41902   8.931   8.571   2.542 -0.3681 -0.2188  0.4302
  318MOL0     C41903   9.022   8.473   2.578 -0.3106  0.2443 -0.4083
  318MOL0     C41904   8.973   8.415   2.712 -0.1047 -0.5960  0.1747
  318MOL0     C41905   9.032   8.517   2.812  0.4199 -0.2825  0.7984
  318MOL0     C41906   8.989   8.506   2.955  0.4998 -0.3250  0.5399
  318MOL0     C41907   8.977   8.364   2.998 -0.0817 -0.0060 -0.6973
  318MOL0     C41908   8.955   8.246   3.028 -0.1780  0.2305  0.7612
  318MOL0     C41909   9.050   8.598   2.336 -0.2352  0.0685 -0.2116
  318MOL0     C41910   9.088   8.671   2.231 -1.5378 -0.5188  0.0712
  318MOL0     H41911   8.904   9.144   2.032  1.0782 -1.8380  2.2409
  318MOL0     H41912   8.904   9.293   1.831 -0.8551 -0.3834  1.1779
  318MOL0     H41913   9.066   9.251   1.520  0.2320  0.5783 -1.3286
  318MOL0     H41914   9.230   9.224   1.566  1.0136  1.2839 -2.8034
  318MOL0     H41915   9.276   9.349   1.394  0.2018 -1.9388  2.2232
  318MOL0     H41916   9.292   9.459   1.528 -1.2433  0.7215  1.6681
  318MOL0     H41917   9.057   9.538   1.488  0.3084 -1.2430  1.5495
  318MOL0     H41918   9.044   9.447   1.343 -2.1974  0.7092  2.1699
  318MOL0     H41919   9.221   9.688   1.396  0.5752 -0.1194  1.0068
  318MOL0     H41920   9.250   9.566   1.267 -2.5631 -0.1422 -1.0050
  318MOL0     H41921   8.979   9.696   1.293  0.1092 -0.8439 -0.1958
  318MOL0     H41922   9.048   9.586   1.161  2.0211 -0.7225  0.2187
  318MOL0     H41923   9.203   9.774   1.095  1.4139  0.2334  1.0090
  318MOL0     H41924   9.182   9.862   1.235 -1.5719  3.6170 -0.4636
  318MOL0     H41925   8.963   9.936   1.162  1.2116 -1.1736  2.0969
  318MOL0     H41926   9.062   9.941   1.012 -1.8154  0.6363  0.1442
  318MOL0     H41927   8.872   9.717   1.098 -1.0282  1.5493  1.4032
  318MOL0     H41928   8.980   9.702   0.966  1.9133 -0.6420  2.1962
  318MOL0     H41929   8.656   9.712   0.954  0.4403 -0.5748 -0.3132
  318MOL0     H41930   8.440   9.987   0.839 -0.9019  0.2432 -0.2331
  318MOL0     H41931   8.458   9.816   0.800  2.2079 -0.8008  0.3206
  318MOL0     H41932   8.617   9.951   0.617  0.8952  1.0702  0.7911
  318MOL0     H41933   8.498  10.076   0.670  2.7155 -0.4070  0.4429
  318MOL0     H41934   8.438   9.935   0.448  1.9924 -1.4048  0.5530
  318MOL0     H41935   8.416   9.794   0.552 -2.1042 -0.1931 -1.6996
  318MOL0     H41936   8.238   9.910   0.676  2.3979 -1.4144 -1.0597
  318MOL0     H41937   8.202   9.920   0.495 -0.8110  0.2799  0.8395
  318MOL0     H41938   8.300  10.319   0.608  0.2051 -2.3046 -1.2945
  318MOL0     H41939   8.111  10.493   0.639  2.6367 -0.3694  3.5480
  318MOL0     H41940   7.669  10.542   0.973  0.3621  6.5060  1.5201
  318MOL0     H41941   7.472  10.707   0.973  0.5079  0.9957 -1.3252
  318MOL0     H41942   7.486  10.917   0.802  0.4494 -1.2651 -1.6534
  318MOL0     H41943   7.337  10.921   0.903  0.6458 -1.9283 -0.8562
  318MOL0     H41944   7.217  10.992   0.666  1.0359 -1.2188 -0.5713
  318MOL0     H41945   7.372  10.999   0.611 -1.2964  3.1854 -1.4463
  318MOL0     H41946   7.431  11.164   0.793  1.4863  0.4806 -0.1095
  318MOL0     H41947   7.258  11.155   0.833 -0.2724  0.3864 -0.8006
  318MOL0     H41948   7.238  11.228   0.569  1.0983  0.4214 -0.1815
  318MOL0     H41949   7.248  11.334   0.715  0.9635  0.8468 -0.9885
  318MOL0     H41950   7.414  11.392   0.493 -0.9048  1.7077  1.1699
  318MOL0     H41951   7.492  11.254   0.562 -0.7539 -0.8980  1.1175
  318MOL0     H41952   7.479  11.391   0.789  0.3980  0.0269  0.3130
  318MOL0     H41953   7.446  11.529   0.673  0.0998  0.3414  2.7792
  318MOL0     H41954   7.663  11.561   0.715  0.9138 -1.2263  0.9022
  318MOL0     H41955   7.699  11.412   0.745  2.2278  2.2446 -1.0563
  318MOL0     H41956   7.693  11.330   0.510  1.4389  0.5488 -0.1603
  318MOL0     H41957   7.808  11.461   0.553 -0.4211  1.4280  2.1259
  318MOL0     H41958   7.403  10.637   0.567  1.5548 -0.3076 -1.5190
  318MOL0     H41959   7.564  10.438   0.563 -0.7076  0.4375 -0.8094
  318MOL0     H41960   7.836  10.172   0.714 -1.8019 -0.3370 -3.2615
  318MOL0     H41961   8.030  10.005   0.667  2.9405 -0.8828  2.9255
  318MOL0     H41962   9.331   9.228   1.803  0.9349  0.5540  1.9916
  318MOL0     H41963   9.334   9.097   1.997  0.8192 -2.1822 -1.4273
  318MOL0     H41964   8.928   8.951   2.299 -1.6995  0.3159  2.0528
  318MOL0     H41965   8.853   8.810   2.501 -3.5650 -3.2871 -0.3389
  318MOL0     H41966   9.125   8.511   2.575 -1.0425  2.2873 -1.7785
  318MOL0     H41967   9.009   8.392   2.505 -1.3351 -1.4353  1.5260
  318MOL0     H41968   8.864   8.408   2.718  0.0461 -2.5581  1.2479
  318MOL0     H41969   9.011   8.314   2.729  1.8351 -0.1459 -1.0574
  318MOL0     H41970   9.013   8.621   2.783 -1.5670 -0.5411  1.0808
  318MOL0     H41971   9.141   8.502   2.807  0.2630 -2.4217  2.2744
  318MOL0     H41972   9.069   8.565   3.000  0.0185  1.5954 -1.0159
  318MOL0     H41973   8.896   8.556   2.985  0.1942 -1.1534  1.0210
  318MOL0     H41974   8.927   8.147   3.059 -4.2666  1.2086  0.7808
  318MOL0     H41975   9.061   8.490   2.334 -2.1053 -0.1871  0.3119
  318MOL0     H41976   9.157   8.623   2.163  0.6601  2.0122  0.3646
  319MOL0     O41977   4.440  11.101  10.514  1.0841  0.5409 -0.3520
  319MOL0     C41978   4.514  11.198  10.505 -0.1275 -0.9948 -0.9754
  319MOL0     O41979   4.474  11.325  10.468  0.3026  0.6268 -0.1700
  319MOL0     C41980   4.355  11.344  10.406 -0.3720 -0.5884  0.0281
  319MOL0     C41981   4.307  11.259  10.316  0.3903 -0.0649 -0.3006
  319MOL0     C41982   4.178  11.272  10.257 -0.0344 -0.6649  0.2020
  319MOL0     C41983   4.100  11.382  10.288  0.1187  0.0117 -0.5981
  319MOL0     O41984   3.978  11.388  10.224 -0.1064 -0.4214  0.0547
  319MOL0     C41985   3.859  11.426  10.302  0.3524  0.4383 -0.6074
  319MOL0     C41986   3.725  11.431  10.226 -0.0613  0.3023 -1.0508
  319MOL0     C41987   3.714  11.325  10.119  0.3953 -1.0755 -0.4731
  319MOL0     C41988   3.570  11.326  10.054 -0.2355 -0.6156 -0.2105
  319MOL0     C41989   3.574  11.422   9.940 -0.1239 -0.3781  0.7787
  319MOL0     C41990   3.457  11.394   9.841 -0.4269 -0.3842  0.4596
  319MOL0     C41991   3.322  11.445   9.893 -0.3439  1.3031  0.6432
  319MOL0     C41992   3.210  11.426   9.786  0.8206 -0.1663 -0.4550
  319MOL0     N41993   3.077  11.418   9.846  1.0487  0.5922 -0.3989
  319MOL0     C41994   3.029  11.432   9.979 -0.7192 -0.3079  0.1428
  319MOL0     C41995   2.899  11.406   9.980 -0.0512 -0.9536 -0.2606
  319MOL0     C41996   2.819  11.425  10.102 -0.6919  0.7038 -0.7535
  319MOL0     C41997   2.690  11.351  10.116  0.0223 -0.1028  1.2967
  319MOL0     C41998   2.713  11.193  10.106 -0.2463  0.0580 -0.9041
  319MOL0     C41999   2.593  11.111  10.084 -0.1423  0.5468  0.6728
  319MOL0     O42000   2.621  10.969  10.080 -0.8100  0.0560 -0.2519
  319MOL0     C42001   2.728  10.904  10.028 -0.6422  0.2560 -0.5215
  319MOL0     C42002   2.779  10.941   9.906 -0.5279 -0.8706 -0.4268
  319MOL0     C42003   2.872  10.850   9.841  0.0319 -0.2382  0.3731
  319MOL0     C42004   2.918  10.735   9.900  0.5189  0.6351 -0.8033
  319MOL0     C42005   3.037  10.676   9.832  0.0561 -0.3071  0.0656
  319MOL0     O42006   3.088  10.580   9.902  0.1103  0.5714 -0.1720
  319MOL0     C42007   3.205  10.521   9.857  1.1555 -0.1593  0.3434
  319MOL0     C42008   3.327  10.525   9.927  0.3998  0.2932 -0.8057
  319MOL0     C42009   3.435  10.453   9.882 -0.1482  0.8181  0.5426
  319MOL0     C42010   3.433  10.384   9.757 -0.9794  0.0642 -0.0909
  319MOL0     O42011   3.539  10.317   9.701  0.0583 -0.5597  0.0985
  319MOL0     C42012   3.667  10.331   9.766  0.4796 -0.1410  0.0797
  319MOL0     C42013   3.779  10.296   9.668 -0.0779  0.1798  0.1209
  319MOL0     C42014   3.926  10.297   9.716  0.1181 -0.6059  0.3837
  319MOL0     C42015   4.007  10.207   9.614  0.2866 -0.1359  0.3406
  319MOL0     C42016   4.149  10.194   9.682  0.4559  0.3590  0.1269
  319MOL0     C42017   4.237  10.110   9.591 -0.2357  0.0812 -0.4461
  319MOL0     C42018   4.360  10.056   9.669  0.0674  0.2101  0.6557
  319MOL0     C42019   4.438   9.937   9.606 -0.3242 -0.5618 -0.4795
  319MOL0    Cl42020   4.602   9.957   9.679 -0.6958  0.0638 -0.1613
  319MOL0     C42021   3.318  10.371   9.687 -0.4590 -0.2921 -0.3128
  319MOL0     C42022   3.202  10.449   9.738 -1.5166  0.2966 -0.4905
  319MOL0     O42023   3.083  10.722   9.733 -0.5598  0.4453  0.0937
  319MOL0     C42024   2.863  10.699  10.026  0.3791 -0.8467 -0.5430
  319MOL0     C42025   2.762  10.779  10.077 -0.4513  0.2923  0.0882
  319MOL0     N42026   2.862  11.364   9.849 -0.2869  0.4203 -0.2050
  319MOL0     N42027   2.966  11.378   9.770  0.2692 -0.2157 -0.0413
  319MOL0     C42028   4.152  11.479  10.371 -0.3221  0.2356  1.2205
  319MOL0     C42029   4.287  11.470  10.420  0.2919 -0.5285  0.1671
  319MOL0     C42030   4.647  11.187  10.559 -0.6493  0.4309 -0.0785
  319MOL0     C42031   4.728  11.295  10.598  0.3568 -0.7116 -0.5077
  319MOL0     C42032   4.849  11.280  10.653 -1.0585  0.8750  0.2726
  319MOL0     C42033   4.913  11.164  10.660  0.3686  0.2975  0.4209
  319MOL0     O42034   5.039  11.153  10.716  0.2481  0.1119 -0.4335
  319MOL0     C42035   5.108  11.262  10.771  0.4355  0.3294 -0.6777
  319MOL0     C42036   5.255  11.212  10.799 -0.5214 -0.2940 -0.2684
  319MOL0     C42037   5.339  11.258  10.680 -0.6218 -0.6772  0.1754
  319MOL0     C42038   5.474  11.305  10.738 -0.2881  0.3958  0.1569
  319MOL0     C42039   5.563  11.191  10.771 -0.1830 -0.3708  0.3131
  319MOL0     C42040   5.655  11.121  10.816  1.0162 -0.6885 -0.2052
  319MOL0     C42041   4.844  11.054  10.613  0.0659  0.3010  0.2342
  319MOL0     C42042   4.712  11.058  10.565 -0.5325 -0.5192 -0.1726
  319MOL0     H42043   4.362  11.169  10.293  1.3044  0.4181 -0.0620
  319MOL0     H42044   4.146  11.199  10.184 -2.0760 -4.2444  4.2248
  319MOL0     H42045   3.864  11.528  10.342 -0.8249  0.9025 -1.5785
  319MOL0     H42046   3.835  11.353  10.380 -1.3025  0.5454 -0.9689
  319MOL0     H42047   3.714  11.532  10.184 -1.3234  0.8619  0.5238
  319MOL0     H42048   3.649  11.417  10.303  0.6258  3.2630  0.3039
  319MOL0     H42049   3.737  11.231  10.169 -1.5689 -0.6523  1.3672
  319MOL0     H42050   3.790  11.354  10.045  0.7513 -1.7996 -0.4024
  319MOL0     H42051   3.560  11.224  10.015  0.7540 -0.9022  0.2528
  319MOL0     H42052   3.495  11.354  10.129  1.0064 -2.0594  1.6384
  319MOL0     H42053   3.669  11.407   9.887  1.6563  2.0110  3.0191
  319MOL0     H42054   3.562  11.524   9.979 -1.4822 -0.6642  1.1642
  319MOL0     H42055   3.461  11.291   9.804 -2.8100 -0.1296 -0.7419
  319MOL0     H42056   3.478  11.450   9.749 -2.4549 -2.5317 -1.4720
  319MOL0     H42057   3.299  11.386   9.982 -1.9865  1.9657  0.6995
  319MOL0     H42058   3.329  11.540   9.946  1.3629 -0.0908  3.1570
  319MOL0     H42059   3.229  11.333   9.732  1.2083 -0.7621  0.6735
  319MOL0     H42060   3.218  11.511   9.718  1.1018 -0.2938 -0.5815
  319MOL0     H42061   3.080  11.471  10.067 -1.6193  1.0434  0.1068
  319MOL0     H42062   2.809  11.534  10.108  2.4155  1.0734 -0.8971
  319MOL0     H42063   2.876  11.401  10.192 -3.1313 -1.4611  0.3763
  319MOL0     H42064   2.619  11.373  10.037 -1.4485 -2.2236  1.9244
  319MOL0     H42065   2.649  11.381  10.213  4.4741 -0.3312  3.5258
  319MOL0     H42066   2.785  11.163  10.030  2.4393 -0.5388  1.7170
  319MOL0     H42067   2.759  11.158  10.199 -0.0069  0.7197 -0.7648
  319MOL0     H42068   2.554  11.164   9.996  0.0781  1.4978  1.1345
  319MOL0     H42069   2.521  11.124  10.165  2.3413  1.0797  2.9505
  319MOL0     H42070   2.735  11.024   9.853  0.0372  0.2289  0.7733
  319MOL0     H42071   2.907  10.882   9.743  2.2637 -2.4903  0.3524
  319MOL0     H42072   3.348  10.569  10.024  3.1515 -2.5616  0.0490
  319MOL0     H42073   3.524  10.446   9.943  0.3481  1.2501 -0.1163
  319MOL0     H42074   3.685  10.280   9.862  2.3975  1.6001  0.7306
  319MOL0     H42075   3.694  10.436   9.778 -2.3899  0.7398 -0.5411
  319MOL0     H42076   3.770  10.354   9.575 -2.1200  0.0827  0.2021
  319MOL0     H42077   3.756  10.192   9.643  0.7510  0.4250 -1.7975
  319MOL0     H42078   3.935  10.265   9.820  4.3386  1.6188  0.9177
  319MOL0     H42079   3.962  10.400   9.725 -1.7716  0.1292 -0.0806
  319MOL0     H42080   3.952  10.113   9.601 -0.0656  0.1496 -0.2641
  319MOL0     H42081   4.031  10.254   9.518  0.0522 -0.2234  0.2388
  319MOL0     H42082   4.132  10.140   9.776 -2.7846  0.1724 -0.4316
  319MOL0     H42083   4.188  10.293   9.706  0.4378  0.2803  0.4790
  319MOL0     H42084   4.256  10.166   9.499  1.1335  2.0968  0.9720
  319MOL0     H42085   4.184  10.019   9.562 -1.0803  0.6927 -0.8578
  319MOL0     H42086   4.432  10.138   9.657  3.7297 -2.8420 -0.1669
  319MOL0     H42087   4.338  10.046   9.775  1.7530  1.6397  1.1793
  319MOL0     H42088   4.452   9.949   9.499 -1.4166 -0.5517 -0.6376
  319MOL0     H42089   4.394   9.838   9.625 -2.0338 -0.3698 -3.0091
  319MOL0     H42090   3.328  10.302   9.604 -1.6348 -0.5558 -0.2546
  319MOL0     H42091   3.113  10.461   9.677  0.3628  2.2164 -3.1345
  319MOL0     H42092   2.890  10.606  10.077 -1.1733  0.1303  2.2860
  319MOL0     H42093   2.710  10.767  10.172  1.3494 -0.3714  1.0452
  319MOL0     H42094   4.090  11.566  10.391  1.7731  2.2443 -0.4241
  319MOL0     H42095   4.337  11.542  10.484  0.5716 -0.6707  0.1081
  319MOL0     H42096   4.686  11.395  10.594  1.8549  0.0444  1.1240
  319MOL0     H42097   4.895  11.376  10.675  3.3762 -0.6410 -1.1900
  319MOL0     H42098   5.059  11.288  10.865  0.3213 -0.1019 -0.6133
  319MOL0     H42099   5.104  11.344  10.699 -0.0988 -0.0811 -1.1213
  319MOL0     H42100   5.283  11.264  10.891 -2.2768 -2.1653  1.4519
  319MOL0     H42101   5.268  11.104  10.814  0.2730 -0.0974  0.5649
  319MOL0     H42102   5.294  11.346  10.635  0.5096 -0.1347  0.0699
  319MOL0     H42103   5.350  11.176  10.608  1.4634  0.4962 -0.9349
  319MOL0     H42104   5.530  11.366  10.666  1.0766  0.3871  1.1641
  319MOL0     H42105   5.457  11.367  10.827 -0.7204  3.0201 -1.6439
  319MOL0     H42106   5.734  11.063  10.858  2.4681  0.4555 -1.2500
  319MOL0     H42107   4.897  10.960  10.624 -0.6854  0.0215  1.8023
  319MOL0     H42108   4.674  10.959  10.545  1.4135 -1.1829 -0.7873
  320MOL0     O42109   1.611  10.204   3.133  0.3474 -0.5428  0.1567
  320MOL0     C42110   1.569  10.137   3.223 -0.0119 -0.1952 -0.4932
  320MOL0     O42111   1.644  10.086   3.325  0.8789 -0.3297  0.8352
  320MOL0     C42112   1.776  10.122   3.325 -1.2254 -0.5803 -0.2961
  320MOL0     C42113   1.879  10.040   3.279  0.0737  0.4178  0.3741
  320MOL0     C42114   2.017  10.087   3.286  0.3422  0.3616  0.0399
  320MOL0     C42115   2.050  10.206   3.354  0.7209 -0.3759  1.0634
  320MOL0     O42116   2.180  10.250   3.362  0.2761 -0.9216  0.1040
  320MOL0     C42117   2.295  10.178   3.323  0.5587  0.3913  0.3105
  320MOL0     C42118   2.414  10.220   3.414  0.1618 -0.0656 -0.4382
  320MOL0     C42119   2.478  10.353   3.377 -0.4957 -0.1402 -0.4806
  320MOL0     C42120   2.611  10.366   3.439  0.0097  0.9224  0.4340
  320MOL0     C42121   2.701  10.490   3.399  0.2238  0.0433  0.2029
  320MOL0     C42122   2.785  10.462   3.269  0.0141  0.1707 -0.7822
  320MOL0     C42123   2.849  10.596   3.242  1.0215 -0.3154  0.0712
  320MOL0     C42124   2.961  10.567   3.136  0.4185  0.0533 -0.6653
  320MOL0     N42125   3.093  10.525   3.183 -0.1460  0.6489  0.2936
  320MOL0     C42126   3.127  10.439   3.289 -0.0254 -0.4357 -0.6508
  320MOL0     C42127   3.263  10.431   3.280  0.2682  0.4019 -0.8028
  320MOL0     C42128   3.349  10.341   3.366  0.1030 -0.0423  0.1379
  320MOL0     C42129   3.440  10.240   3.280 -0.1145  0.3342 -0.1636
  320MOL0     C42130   3.354  10.132   3.215 -0.2656  0.2291  0.1796
  320MOL0     C42131   3.443  10.034   3.137 -0.9667 -0.6905  0.4373
  320MOL0     O42132   3.507   9.933   3.225 -0.0068 -0.2205 -0.1325
  320MOL0     C42133   3.644   9.908   3.201  0.4392 -0.7443 -0.4024
  320MOL0     C42134   3.679   9.909   3.063 -0.8313 -0.5090  0.3273
  320MOL0     C42135   3.821   9.891   3.027 -0.2644  0.1477 -0.6203
  320MOL0     C42136   3.921   9.860   3.121  0.2108  0.2543  0.0149
  320MOL0     C42137   4.062   9.835   3.070 -0.1069 -0.0278  0.5986
  320MOL0     O42138   4.103   9.900   2.953  0.2872  0.5160 -0.6919
  320MOL0     C42139   4.229   9.883   2.915 -0.9774 -0.8735 -0.7095
  320MOL0     C42140   4.330   9.979   2.929 -0.7220 -0.0670 -0.6352
  320MOL0     C42141   4.464   9.955   2.881  0.3011  1.2216  0.5663
  320MOL0     C42142   4.490   9.829   2.820  0.3753  0.0169 -1.0744
  320MOL0     O42143   4.616   9.789   2.785 -1.0545 -0.0772  0.2278
  320MOL0     C42144   4.729   9.880   2.805  0.2614  0.3179 -0.3469
  320MOL0     C42145   4.865   9.818   2.783 -0.0294 -0.1470  0.1659
  320MOL0     C42146   4.909   9.852   2.637 -0.1029 -0.6353  0.0916
  320MOL0     C42147   5.071   9.819   2.626  0.7262  0.3259 -0.5390
  320MOL0     C42148   5.132   9.872   2.495 -1.0697  0.3855  1.1691
  320MOL0     C42149   5.282   9.845   2.496 -0.1076 -0.5947 -0.1148
  320MOL0     C42150   5.348   9.909   2.617 -0.3867 -0.0527 -0.0870
  320MOL0     C42151   5.489   9.959   2.567  0.2183 -0.3059 -0.3078
  320MOL0    Cl42152   5.585   9.832   2.484 -0.3235  0.2419 -0.2717
  320MOL0     C42153   4.383   9.747   2.801  0.4341  0.2884 -0.2503
  320MOL0     C42154   4.257   9.770   2.855 -0.1334 -0.3428  0.6121
  320MOL0     O42155   4.115   9.745   3.135  0.4637  0.2626 -0.0938
  320MOL0     C42156   3.877   9.842   3.251  1.6214  0.8282 -0.3972
  320MOL0     C42157   3.741   9.870   3.289  0.2255 -0.6444  0.0238
  320MOL0     N42158   3.311  10.499   3.175  1.6407  0.1004  0.1436
  320MOL0     N42159   3.213  10.542   3.110 -0.2982 -0.2609 -0.2478
  320MOL0     C42160   1.949  10.284   3.408  0.1360  1.1512 -0.4780
  320MOL0     C42161   1.812  10.243   3.393 -0.7156 -0.1274  1.1927
  320MOL0     C42162   1.420  10.116   3.224 -0.3506 -0.0099  0.7365
  320MOL0     C42163   1.356  10.050   3.323  0.3305  0.6346 -0.5427
  320MOL0     C42164   1.213  10.038   3.312  0.3229 -0.2912  0.2856
  320MOL0     C42165   1.133  10.089   3.208  0.2843  0.4804 -0.3905
  320MOL0     O42166   1.002  10.055   3.200  0.1920  0.3192  1.0516
  320MOL0     C42167   0.920  10.134   3.293  0.1677 -0.1096 -0.0673
  320MOL0     C42168   0.884  10.262   3.208  0.2454 -0.1357 -0.1510
  320MOL0     C42169   0.810  10.381   3.287  0.8779 -0.0945 -0.1039
  320MOL0     C42170   0.782  10.489   3.181 -0.6215 -0.0162 -0.2163
  320MOL0     C42171   0.673  10.572   3.234  0.4426  0.1404 -0.7385
  320MOL0     C42172   0.574  10.635   3.272 -0.9485 -1.0273 -0.3744
  320MOL0     C42173   1.198  10.153   3.102  0.1539 -0.3790 -1.0471
  320MOL0     C42174   1.343  10.169   3.114 -0.8054 -0.0913 -0.1185
  320MOL0     H42175   1.851   9.946   3.233 -0.9383  1.2488 -0.7652
  320MOL0     H42176   2.093  10.023   3.244  0.9017  0.2715  1.1632
  320MOL0     H42177   2.314  10.184   3.215  0.5201 -2.5536  0.0705
  320MOL0     H42178   2.282  10.070   3.324  1.3934  0.2828  0.8402
  320MOL0     H42179   2.494  10.146   3.421  1.8177  1.7157  0.6695
  320MOL0     H42180   2.366  10.222   3.512 -2.3288  1.2389 -1.5806
  320MOL0     H42181   2.425  10.441   3.415  0.7645  1.5631 -2.4554
  320MOL0     H42182   2.476  10.370   3.269 -0.9043  4.1220  0.0023
  320MOL0     H42183   2.594  10.370   3.547  2.1367  2.2306  0.7848
  320MOL0     H42184   2.675  10.279   3.420 -0.4878  0.2211  1.8592
  320MOL0     H42185   2.769  10.505   3.484  0.1915 -1.0055  0.4302
  320MOL0     H42186   2.633  10.574   3.384  1.1520  1.5760  3.5758
  320MOL0     H42187   2.714  10.432   3.191 -1.7383  0.9421  0.4378
  320MOL0     H42188   2.860  10.386   3.296 -1.6632 -0.7617  1.6218
  320MOL0     H42189   2.781  10.667   3.194  0.3577 -2.6807 -2.8563
  320MOL0     H42190   2.873  10.659   3.328 -4.6246  0.4614  1.4275
  320MOL0     H42191   2.976  10.652   3.069 -1.4250  1.2276  0.3347
  320MOL0     H42192   2.923  10.495   3.063 -1.8535  0.4104  0.1046
  320MOL0     H42193   3.060  10.398   3.364 -0.2156  2.7436  1.0543
  320MOL0     H42194   3.290  10.292   3.444  0.6579 -0.4786  0.2908
  320MOL0     H42195   3.422  10.413   3.407 -0.1013  1.7028 -2.3594
  320MOL0     H42196   3.530  10.212   3.334  1.0242  2.4900 -0.8243
  320MOL0     H42197   3.483  10.294   3.195  1.8659  0.5783  0.9540
  320MOL0     H42198   3.297  10.085   3.296 -0.6525 -0.0891 -0.2722
  320MOL0     H42199   3.287  10.185   3.147  2.3935  1.1393 -1.8952
  320MOL0     H42200   3.517  10.090   3.081  0.2974 -2.4467  0.2647
  320MOL0     H42201   3.371   9.983   3.073 -3.5594  0.7362  2.0248
  320MOL0     H42202   3.615   9.938   2.980  1.5542 -0.4332 -1.5839
  320MOL0     H42203   3.848   9.897   2.922 -0.0912 -0.4364 -0.6136
  320MOL0     H42204   4.317  10.070   2.986  1.5790 -0.8186  1.2542
  320MOL0     H42205   4.547  10.023   2.897  2.1383 -0.7466 -0.1131
  320MOL0     H42206   4.721   9.923   2.906  0.7257 -0.3530 -0.0130
  320MOL0     H42207   4.721   9.972   2.746 -1.3727  1.2224  1.1826
  320MOL0     H42208   4.864   9.711   2.803  0.7840 -0.3370 -0.7195
  320MOL0     H42209   4.936   9.852   2.858  1.8404 -3.7640  0.2421
  320MOL0     H42210   4.900   9.958   2.611  0.1469 -1.2269 -2.8497
  320MOL0     H42211   4.857   9.798   2.557  3.3103 -0.0623 -2.7762
  320MOL0     H42212   5.117   9.872   2.710  2.0157 -0.9290 -0.4186
  320MOL0     H42213   5.084   9.715   2.655  5.1168  1.2685  1.7233
  320MOL0     H42214   5.104   9.976   2.475  0.3170  0.2524 -2.2175
  320MOL0     H42215   5.088   9.815   2.413  0.9036 -0.7616  0.8251
  320MOL0     H42216   5.326   9.878   2.401 -1.1269 -2.8597 -1.4691
  320MOL0     H42217   5.300   9.738   2.510  0.0374 -0.6368 -0.5846
  320MOL0     H42218   5.289   9.992   2.657 -0.8349 -0.0213 -0.8009
  320MOL0     H42219   5.365   9.837   2.698 -0.2883  0.0205 -0.0423
  320MOL0     H42220   5.554   9.996   2.647  1.6366  0.8690 -1.9242
  320MOL0     H42221   5.460  10.039   2.499  0.8275 -0.8476 -1.2149
  320MOL0     H42222   4.399   9.646   2.763  1.0035 -0.7980  2.5914
  320MOL0     H42223   4.172   9.704   2.836 -0.4050 -0.0204  0.6989
  320MOL0     H42224   3.945   9.799   3.324  0.7522 -0.3198 -0.2295
  320MOL0     H42225   3.729   9.870   3.397  0.9671 -0.8613  0.1098
  320MOL0     H42226   1.998  10.376   3.437  2.7153 -0.7580  1.6892
  320MOL0     H42227   1.734  10.309   3.432  1.0786  1.4469  2.2842
  320MOL0     H42228   1.412  10.003   3.403 -0.8949  1.5708  0.9313
  320MOL0     H42229   1.171   9.971   3.387  3.8312 -0.8352  1.9423
  320MOL0     H42230   0.971  10.173   3.381  0.5576  1.7745 -1.0674
  320MOL0     H42231   0.832  10.091   3.340  0.8576 -0.1720  1.2053
  320MOL0     H42232   0.975  10.299   3.160  1.2972 -1.6625  0.5827
  320MOL0     H42233   0.827  10.228   3.122 -0.9855 -1.6207  1.1890
  320MOL0     H42234   0.876  10.427   3.361  1.1560 -2.1568  1.0223
  320MOL0     H42235   0.721  10.344   3.339  0.8084  0.6991  0.3554
  320MOL0     H42236   0.863  10.557   3.155 -1.0648  0.7778  0.4143
  320MOL0     H42237   0.750  10.431   3.094  2.0498 -1.8354 -0.1078
  320MOL0     H42238   0.485  10.690   3.294  1.1753  2.2381  0.9270
  320MOL0     H42239   1.149  10.180   3.009  0.9646 -0.6839 -1.5744
  320MOL0     H42240   1.385  10.226   3.033  0.0255 -0.9968 -0.3483
  321MOL0     O42241   9.852   8.775   8.389 -0.5948 -0.0727 -0.0596
  321MOL0     C42242   9.831   8.886   8.426 -0.4439 -0.0935 -0.5852
  321MOL0     O42243   9.728   8.963   8.389 -0.9953  0.1923  0.4103
  321MOL0     C42244   9.631   8.932   8.305  0.5285 -0.6925 -0.4801
  321MOL0     C42245   9.575   9.038   8.231  0.6812  0.4659  0.3275
  321MOL0     C42246   9.462   9.009   8.153 -0.2679 -0.4916  0.2086
  321MOL0     C42247   9.420   8.878   8.133 -0.2308  1.1484  0.1206
  321MOL0     O42248   9.321   8.866   8.039 -0.3964 -0.5090  0.5271
  321MOL0     C42249   9.307   8.735   7.972 -0.1351 -0.9959  0.1661
  321MOL0     C42250   9.253   8.735   7.830 -0.4828 -0.7788  0.3806
  321MOL0     C42251   9.301   8.618   7.740 -0.2187 -0.2547 -1.1445
  321MOL0     C42252   9.197   8.577   7.628 -0.5909  0.6449 -0.0692
  321MOL0     C42253   9.083   8.487   7.668  0.0478 -0.7179 -0.0811
  321MOL0     C42254   8.966   8.487   7.563  0.4202  0.3722 -0.3817
  321MOL0     C42255   8.859   8.389   7.601 -0.1853  0.7838 -0.5720
  321MOL0     C42256   8.733   8.401   7.499 -1.3797  0.4121  0.9543
  321MOL0     N42257   8.794   8.376   7.359  0.5651  0.0036 -0.6037
  321MOL0     C42258   8.785   8.457   7.247 -0.1911 -0.7338 -0.2657
  321MOL0     C42259   8.814   8.377   7.142  0.7116  0.5280 -0.8783
  321MOL0     C42260   8.811   8.400   6.993 -1.0641  0.4771  0.2004
  321MOL0     C42261   8.671   8.426   6.939  0.2356 -1.2515  0.1534
  321MOL0     C42262   8.569   8.319   6.982 -0.0612  0.7885  0.5510
  321MOL0     C42263   8.440   8.313   6.887 -0.2150 -0.2167 -0.1995
  321MOL0     O42264   8.357   8.202   6.929  0.0780  0.3706 -0.4247
  321MOL0     C42265   8.226   8.195   6.882 -0.5830  0.3848 -0.0450
  321MOL0     C42266   8.130   8.291   6.857  0.2626  0.4374  0.4426
  321MOL0     C42267   8.001   8.268   6.824 -0.7581  0.3279  0.2304
  321MOL0     C42268   7.960   8.135   6.816  0.3925 -0.3586  0.3883
  321MOL0     C42269   7.820   8.100   6.814  0.6746  0.6102 -1.8943
  321MOL0     O42270   7.729   8.191   6.868  0.4631  1.2754 -0.1652
  321MOL0     C42271   7.593   8.169   6.862  0.2552  0.1073 -0.0176
  321MOL0     C42272   7.513   8.156   6.981  0.2147 -0.1416 -0.7535
  321MOL0     C42273   7.366   8.136   6.970  0.3020 -0.8964  0.4604
  321MOL0     C42274   7.310   8.127   6.845  0.1014  0.6824 -0.6191
  321MOL0     O42275   7.182   8.082   6.849  0.3607 -0.3818  0.3176
  321MOL0     C42276   7.092   8.197   6.880  0.4450  0.5152  0.2580
  321MOL0     C42277   6.953   8.165   6.835  0.0072 -0.0425  0.3868
  321MOL0     C42278   6.840   8.261   6.885 -0.1567 -0.2880 -0.5227
  321MOL0     C42279   6.701   8.260   6.813  0.6145 -0.0694  0.5992
  321MOL0     C42280   6.595   8.364   6.864  0.2542  0.0706  0.2073
  321MOL0     C42281   6.470   8.344   6.771  0.1710 -0.5430  0.0008
  321MOL0     C42282   6.386   8.224   6.809 -0.2641 -0.2270 -0.7610
  321MOL0     C42283   6.264   8.199   6.726  1.2522  0.1691  0.2765
  321MOL0    Cl42284   6.192   8.038   6.769  0.2768 -0.2462  0.1492
  321MOL0     C42285   7.394   8.102   6.739 -0.0715 -0.5828 -0.2295
  321MOL0     C42286   7.529   8.138   6.739  0.4204  0.3126 -0.5684
  321MOL0     O42287   7.791   7.992   6.768 -0.3191  0.3721 -0.2002
  321MOL0     C42288   8.058   8.034   6.828  1.2714  1.2258  0.1253
  321MOL0     C42289   8.187   8.065   6.871 -0.1286  0.3348 -0.0670
  321MOL0     N42290   8.848   8.245   7.189  0.0557  0.2897 -0.2318
  321MOL0     N42291   8.843   8.256   7.315 -0.7751  0.0612  0.1642
  321MOL0     C42292   9.479   8.774   8.199  1.6859  0.0552 -0.0379
  321MOL0     C42293   9.576   8.807   8.294  0.7516 -0.5865 -0.1576
  321MOL0     C42294   9.928   8.934   8.534  0.3016 -0.4511 -0.4529
  321MOL0     C42295   9.891   9.026   8.630  1.2609  0.6726  0.0916
  321MOL0     C42296   9.974   9.056   8.734 -0.5608 -0.5040 -0.4983
  321MOL0     C42297  10.104   9.018   8.725 -0.6117  0.2099 -0.5875
  321MOL0     O42298  10.206   9.055   8.823 -0.1044  0.3734  0.2858
  321MOL0     C42299  10.197   9.182   8.888  0.1725 -0.1014  0.3448
  321MOL0     C42300  10.309   9.188   8.995  0.1548 -0.3707 -0.0549
  321MOL0     C42301  10.432   9.273   8.951 -0.0409  0.4323 -0.8667
  321MOL0     C42302  10.505   9.224   8.824 -0.3224  0.1315  0.4402
  321MOL0     C42303  10.624   9.309   8.791  0.7603  0.0120 -0.1769
  321MOL0     C42304  10.727   9.370   8.745  0.5071  0.4684 -0.5992
  321MOL0     C42305  10.146   8.935   8.632 -0.1470  0.2629  0.5466
  321MOL0     C42306  10.060   8.885   8.536  0.1091  0.0250  0.5432
  321MOL0     H42307   9.617   9.138   8.230 -1.9353  1.6492  0.0871
  321MOL0     H42308   9.416   9.098   8.112  2.7717  2.5487  2.8139
  321MOL0     H42309   9.253   8.661   8.030  1.2210  0.9184  4.2161
  321MOL0     H42310   9.411   8.701   7.963  0.4820  0.2956  1.9038
  321MOL0     H42311   9.305   8.821   7.786 -0.6651  1.1697  3.6522
  321MOL0     H42312   9.146   8.757   7.826  0.2967  4.0695 -1.9926
  321MOL0     H42313   9.343   8.531   7.791 -1.3813 -1.0518 -1.5048
  321MOL0     H42314   9.391   8.654   7.688  0.0713 -0.4253 -0.7680
  321MOL0     H42315   9.152   8.668   7.587 -1.0727  0.2671 -0.3849
  321MOL0     H42316   9.243   8.528   7.543 -0.5348 -0.9074  0.8248
  321MOL0     H42317   9.044   8.516   7.766  1.4537  1.3576 -0.0593
  321MOL0     H42318   9.136   8.391   7.665 -1.5224 -1.5893 -0.7541
  321MOL0     H42319   9.012   8.458   7.468  0.1374  0.1829 -0.4625
  321MOL0     H42320   8.922   8.585   7.543  1.2141  0.8077 -0.0619
  321MOL0     H42321   8.898   8.287   7.602  1.2791  1.1725 -3.7812
  321MOL0     H42322   8.827   8.419   7.701  2.4556  0.2811  0.5255
  321MOL0     H42323   8.710   8.508   7.511  2.3825  1.2276  2.4634
  321MOL0     H42324   8.658   8.331   7.536  2.5751 -3.9278  1.6164
  321MOL0     H42325   8.735   8.553   7.241 -2.5473 -1.9469 -1.1688
  321MOL0     H42326   8.852   8.309   6.948 -1.3604 -0.7236  2.2211
  321MOL0     H42327   8.890   8.470   6.965 -1.8798  0.6274 -1.9520
  321MOL0     H42328   8.674   8.436   6.830 -3.0205  4.4027  0.1907
  321MOL0     H42329   8.639   8.527   6.966  1.5108  0.2131 -3.2529
  321MOL0     H42330   8.604   8.215   6.980  0.6234  0.9773  1.7856
  321MOL0     H42331   8.528   8.337   7.082 -4.1241 -0.9749 -0.5655
  321MOL0     H42332   8.467   8.301   6.782  0.3812  1.9061 -0.3302
  321MOL0     H42333   8.388   8.409   6.899  1.7190  1.1291 -1.9129
  321MOL0     H42334   8.168   8.390   6.883  0.6870 -0.2034  2.3892
  321MOL0     H42335   7.924   8.344   6.817 -0.5631  0.5358  0.3077
  321MOL0     H42336   7.563   8.181   7.074 -2.4406  1.5159  0.3456
  321MOL0     H42337   7.316   8.144   7.066  0.6162  2.0763  0.4771
  321MOL0     H42338   7.125   8.284   6.822 -1.1246  0.5758 -0.6022
  321MOL0     H42339   7.089   8.230   6.984 -0.1208 -1.8810  1.0477
  321MOL0     H42340   6.928   8.064   6.870  2.1554 -0.9592 -0.5829
  321MOL0     H42341   6.945   8.177   6.726 -0.5172 -2.8864  0.0357
  321MOL0     H42342   6.876   8.364   6.890 -1.3327  0.0958  1.0071
  321MOL0     H42343   6.824   8.227   6.988 -0.9469 -0.7909 -0.8035
  321MOL0     H42344   6.713   8.276   6.705 -0.5557 -0.2417  0.4331
  321MOL0     H42345   6.655   8.163   6.835  1.2569 -0.2672  1.1179
  321MOL0     H42346   6.640   8.464   6.861  4.8452 -1.6348  2.8188
  321MOL0     H42347   6.563   8.341   6.966 -1.3062  0.3458 -0.1959
  321MOL0     H42348   6.494   8.345   6.664  0.2383  2.6519 -0.0370
  321MOL0     H42349   6.415   8.436   6.789 -1.6309 -1.0765 -2.2686
  321MOL0     H42350   6.452   8.137   6.808 -0.5748 -0.4751  0.1891
  321MOL0     H42351   6.357   8.231   6.914 -3.5563 -1.4864 -1.4629
  321MOL0     H42352   6.277   8.202   6.618  0.9644  0.7115  0.2537
  321MOL0     H42353   6.191   8.278   6.746  0.6131  0.3697 -2.4845
  321MOL0     H42354   7.337   8.069   6.652 -1.3955  0.0186  0.3777
  321MOL0     H42355   7.592   8.119   6.653  1.0349  0.0873 -0.0757
  321MOL0     H42356   8.032   7.929   6.827  1.8860  1.0692  0.2830
  321MOL0     H42357   8.259   7.985   6.889  0.6921  0.8410 -1.0089
  321MOL0     H42358   9.445   8.671   8.194 -1.3463  0.7977  2.4305
  321MOL0     H42359   9.615   8.727   8.357  1.5340 -1.2226 -1.3883
  321MOL0     H42360   9.790   9.065   8.627  0.3272 -1.4922  1.2157
  321MOL0     H42361   9.943   9.127   8.810 -0.7695 -0.4432 -0.6382
  321MOL0     H42362  10.098   9.184   8.933  0.4404  0.8566  0.9189
  321MOL0     H42363  10.197   9.261   8.812 -2.7174  2.1813  2.4807
  321MOL0     H42364  10.272   9.212   9.095 -0.4468  0.4958 -0.4802
  321MOL0     H42365  10.345   9.084   8.995 -2.7488 -1.4692 -1.0513
  321MOL0     H42366  10.506   9.282   9.031 -0.8226 -0.3244 -0.0297
  321MOL0     H42367  10.395   9.372   8.924 -0.0507  1.1419  1.5074
  321MOL0     H42368  10.538   9.121   8.844 -0.5318  0.1534  0.9250
  321MOL0     H42369  10.446   9.211   8.733 -1.4107  0.4443  1.0870
  321MOL0     H42370  10.813   9.421   8.705  1.8718 -0.3026  1.2254
  321MOL0     H42371  10.251   8.910   8.634  0.5180  2.8621  1.5948
  321MOL0     H42372  10.087   8.820   8.454 -0.5810  2.4323 -1.7520
  322MOL0     O42373   3.153   1.683   5.843  0.0416  0.5888  0.0255
  322MOL0     C42374   3.187   1.759   5.937 -0.0921  0.2015 -0.1211
  322MOL0     O42375   3.316   1.772   5.990 -0.3423  0.9702  0.2685
  322MOL0     C42376   3.423   1.729   5.919 -0.3567 -0.3178 -0.2650
  322MOL0     C42377   3.505   1.812   5.840 -0.4375  0.8322  0.2252
  322MOL0     C42378   3.629   1.770   5.781 -0.1782 -0.5335  0.2202
  322MOL0     C42379   3.653   1.630   5.792  0.3582 -0.0884 -0.7059
  322MOL0     O42380   3.757   1.583   5.716  0.6140  0.0579 -0.8175
  322MOL0     C42381   3.789   1.448   5.704 -0.4781  0.3338  0.0958
  322MOL0     C42382   3.907   1.428   5.611  0.3182  0.4197 -0.3568
  322MOL0     C42383   3.917   1.275   5.582 -0.1863  0.4475 -0.3507
  322MOL0     C42384   4.050   1.243   5.509  0.9239 -0.7999 -0.2573
  322MOL0     C42385   4.083   1.104   5.476  0.2408  0.5536  0.3483
  322MOL0     C42386   4.200   1.095   5.376  0.5342  0.1445  0.7577
  322MOL0     C42387   4.248   0.948   5.368  0.1206  0.1208  0.2934
  322MOL0     C42388   4.144   0.867   5.284  0.3401  0.8267 -0.9515
  322MOL0     N42389   4.214   0.742   5.244 -0.1838 -0.0284 -0.0401
  322MOL0     C42390   4.209   0.613   5.290  0.5687 -0.1936 -0.0342
  322MOL0     C42391   4.242   0.526   5.190  0.3779 -0.3536  0.5792
  322MOL0     C42392   4.245   0.377   5.181  0.4286 -0.4047  0.3242
  322MOL0     C42393   4.388   0.351   5.216 -0.4293 -0.1148 -0.1249
  322MOL0     C42394   4.403   0.203   5.265 -0.4283 -0.1800 -0.5816
  322MOL0     C42395   4.533   0.172   5.316 -0.0398  0.0997 -0.0787
  322MOL0     O42396   4.638   0.213   5.222  0.1702 -0.7707 -0.2508
  322MOL0     C42397   4.749   0.133   5.198  0.0566  0.2594  1.1027
  322MOL0     C42398   4.853   0.183   5.113  0.1635 -0.0051  1.0112
  322MOL0     C42399   4.963   0.105   5.077 -0.2059 -0.0928 -0.0115
  322MOL0     C42400   4.983  -0.027   5.120 -0.6825 -0.0602  0.5718
  322MOL0     C42401   5.092  -0.128   5.066  0.2479  0.6523 -0.8164
  322MOL0     O42402   5.095  -0.252   5.127  0.6357 -0.0990 -0.1895
  322MOL0     C42403   5.207  -0.332   5.120  0.1070 -0.3168 -0.7272
  322MOL0     C42404   5.346  -0.294   5.102  0.1835 -0.0009 -0.2178
  322MOL0     C42405   5.450  -0.379   5.112 -0.0125 -0.6255  0.5252
  322MOL0     C42406   5.420  -0.519   5.139 -0.8912 -0.3330 -0.0032
  322MOL0     O42407   5.520  -0.612   5.136 -0.3190  0.0868 -0.0326
  322MOL0     C42408   5.661  -0.583   5.137  0.2779 -0.1527  0.4124
  322MOL0     C42409   5.710  -0.530   5.268  0.2471  0.3823  0.3971
  322MOL0     C42410   5.837  -0.457   5.251 -0.4016  0.3796  0.2456
  322MOL0     C42411   5.947  -0.557   5.209 -0.7790 -0.5264  0.0372
  322MOL0     C42412   6.078  -0.486   5.217 -0.5313 -0.7177  0.2711
  322MOL0     C42413   6.117  -0.414   5.080  1.0821 -0.1975  0.0035
  322MOL0     C42414   6.250  -0.341   5.081  0.1052 -0.1294 -0.6984
  322MOL0     C42415   6.278  -0.297   4.942 -0.0270 -0.4377 -0.2676
  322MOL0    Cl42416   6.450  -0.230   4.933 -0.6069 -0.7250  0.2305
  322MOL0     C42417   5.288  -0.565   5.155 -1.3174 -0.6555  0.1152
  322MOL0     C42418   5.187  -0.461   5.159 -0.2011 -0.2996 -0.0322
  322MOL0     O42419   5.176  -0.086   4.989  0.3221 -0.4303  0.4982
  322MOL0     C42420   4.879  -0.076   5.210  0.8672 -0.3739  0.8181
  322MOL0     C42421   4.764   0.002   5.245  0.1777  0.5565  0.7301
  322MOL0     N42422   4.273   0.600   5.083  0.2660 -0.4652 -1.0644
  322MOL0     N42423   4.254   0.727   5.117 -0.4984  0.3769  0.8128
  322MOL0     C42424   3.574   1.542   5.872  0.1881 -0.7433 -1.1416
  322MOL0     C42425   3.464   1.595   5.937  0.1530 -0.6361  0.2457
  322MOL0     C42426   3.081   1.827   6.020 -0.0483  0.6534 -0.3113
  322MOL0     C42427   2.949   1.813   5.986  0.8640  0.5176 -0.5202
  322MOL0     C42428   2.842   1.852   6.071 -0.5550 -0.5494  0.7819
  322MOL0     C42429   2.869   1.922   6.193  0.1816 -0.4701 -0.0542
  322MOL0     O42430   2.756   1.961   6.259  0.5031 -0.2867  0.3368
  322MOL0     C42431   2.778   2.037   6.375 -0.1412 -0.3299 -0.7220
  322MOL0     C42432   2.640   2.052   6.451 -0.0613  0.0869  0.4945
  322MOL0     C42433   2.530   2.108   6.363 -0.3039 -0.8770  0.3540
  322MOL0     C42434   2.404   2.144   6.448  0.6598  1.1967 -0.9751
  322MOL0     C42435   2.348   2.019   6.514 -0.5730 -1.1031  0.0932
  322MOL0     C42436   2.297   1.917   6.563 -0.2233  0.0042 -0.1345
  322MOL0     C42437   3.003   1.935   6.229  0.0255 -0.1764  0.0680
  322MOL0     C42438   3.107   1.890   6.146 -0.3983 -1.3020 -0.6587
  322MOL0     H42439   3.474   1.916   5.830 -1.3468  0.6755  1.2386
  322MOL0     H42440   3.695   1.837   5.727  1.0770 -1.1628  0.9142
  322MOL0     H42441   3.702   1.403   5.656 -0.6381 -1.1664  1.7124
  322MOL0     H42442   3.824   1.410   5.800 -0.1026  0.6378  0.0803
  322MOL0     H42443   3.992   1.465   5.668 -1.5018  3.5337  0.5747
  322MOL0     H42444   3.916   1.489   5.521  1.1993  0.4295 -0.2690
  322MOL0     H42445   3.828   1.258   5.521  2.1898 -1.2446 -3.6640
  322MOL0     H42446   3.912   1.212   5.672 -1.5336 -1.2299 -1.5344
  322MOL0     H42447   4.072   1.297   5.417  1.8956 -0.6044  0.0706
  322MOL0     H42448   4.133   1.277   5.573  0.0222  2.2557 -0.5594
  322MOL0     H42449   3.999   1.067   5.417  1.5174  0.2690 -1.3715
  322MOL0     H42450   4.108   1.038   5.560  2.7295  0.1995 -0.5878
  322MOL0     H42451   4.279   1.158   5.417  0.7860 -0.8969  1.9605
  322MOL0     H42452   4.168   1.126   5.277 -0.4694 -1.4755  0.5304
  322MOL0     H42453   4.345   0.942   5.318 -1.6930  0.0687 -3.5430
  322MOL0     H42454   4.252   0.897   5.465  3.0285  0.1812  0.2857
  322MOL0     H42455   4.115   0.921   5.194  0.5464  2.0749 -0.2878
  322MOL0     H42456   4.055   0.838   5.342  2.0107 -3.4127 -0.0935
  322MOL0     H42457   4.189   0.584   5.393 -1.4268 -0.9328 -0.5961
  322MOL0     H42458   4.222   0.357   5.075 -0.3779  5.2732 -0.9119
  322MOL0     H42459   4.177   0.329   5.252 -2.2071  3.4854  0.7916
  322MOL0     H42460   4.423   0.417   5.295  1.4953 -1.3269  0.0869
  322MOL0     H42461   4.455   0.379   5.134 -1.3425  2.5298 -0.0690
  322MOL0     H42462   4.320   0.175   5.331 -1.0229  0.0144 -1.2326
  322MOL0     H42463   4.386   0.147   5.172 -1.2995  2.8738 -2.3771
  322MOL0     H42464   4.539   0.065   5.338 -0.0327  0.0630 -0.2650
  322MOL0     H42465   4.544   0.222   5.413 -1.8469  0.6961 -0.1426
  322MOL0     H42466   4.839   0.269   5.049  0.9872  0.0070  0.8259
  322MOL0     H42467   5.038   0.145   5.010 -0.3908 -1.4410 -1.0637
  322MOL0     H42468   5.374  -0.194   5.071 -0.0960  0.0100 -0.4479
  322MOL0     H42469   5.550  -0.342   5.093 -0.4166  0.1097 -0.2334
  322MOL0     H42470   5.672  -0.512   5.054  0.2119 -2.1472 -1.3989
  322MOL0     H42471   5.707  -0.677   5.106 -0.8060 -0.3545 -0.6613
  322MOL0     H42472   5.709  -0.613   5.339  1.5794  1.2061  1.4399
  322MOL0     H42473   5.633  -0.464   5.308 -1.8046 -1.9058  0.4677
  322MOL0     H42474   5.856  -0.407   5.347 -1.2029  0.5609  0.3199
  322MOL0     H42475   5.816  -0.379   5.177 -1.0225  0.1391  0.1610
  322MOL0     H42476   5.951  -0.634   5.287  0.9204 -1.6756 -1.1358
  322MOL0     H42477   5.938  -0.597   5.108  1.9261  0.3551 -0.6212
  322MOL0     H42478   6.158  -0.553   5.247  2.9200  1.8540 -2.2546
  322MOL0     H42479   6.075  -0.406   5.291  0.8888  0.8465 -1.2597
  322MOL0     H42480   6.036  -0.341   5.065 -3.6793 -3.1645  6.2825
  322MOL0     H42481   6.112  -0.486   4.997  0.4947 -0.8563  0.5932
  322MOL0     H42482   6.255  -0.252   5.145  3.7651  0.2831 -1.3443
  322MOL0     H42483   6.319  -0.406   5.136 -2.2560 -1.5812  0.7681
  322MOL0     H42484   6.206  -0.223   4.905  0.9921  0.2921 -0.8338
  322MOL0     H42485   6.255  -0.382   4.877 -2.7907 -0.3875  0.5119
  322MOL0     H42486   5.261  -0.667   5.180 -2.4963 -0.0313  1.4823
  322MOL0     H42487   5.087  -0.496   5.179  0.3586 -2.1894 -0.3628
  322MOL0     H42488   4.879  -0.178   5.247  2.6147  0.1106  2.2640
  322MOL0     H42489   4.691  -0.048   5.307  3.3378 -0.5887  3.8708
  322MOL0     H42490   3.596   1.436   5.880 -1.3155 -0.9031  4.2878
  322MOL0     H42491   3.394   1.534   5.994 -0.8334 -0.7433 -1.0395
  322MOL0     H42492   2.919   1.751   5.902  1.9092 -1.4856  0.5260
  322MOL0     H42493   2.742   1.825   6.039 -1.0617  1.8453  0.1078
  322MOL0     H42494   2.811   2.141   6.362  0.7110  0.1476  3.6226
  322MOL0     H42495   2.847   1.991   6.447 -2.3091 -0.4345  1.3989
  322MOL0     H42496   2.612   1.948   6.468  0.4900 -0.3531 -1.0610
  322MOL0     H42497   2.650   2.111   6.542  0.5856  0.4695  0.1905
  322MOL0     H42498   2.506   2.033   6.287  0.6053 -0.7263 -0.0989
  322MOL0     H42499   2.571   2.196   6.312  0.2110 -1.4256 -0.2055
  322MOL0     H42500   2.434   2.218   6.524 -1.7615  1.2591  0.0111
  322MOL0     H42501   2.328   2.196   6.390  1.3779 -1.1061 -4.2571
  322MOL0     H42502   2.242   1.830   6.593 -2.4796  1.6306  0.6600
  322MOL0     H42503   3.029   1.980   6.325  1.5234 -3.2444  1.2253
  322MOL0     H42504   3.211   1.900   6.176  0.3168 -3.3429 -2.2182
  323MOL0     O42505   6.974   9.165   5.980  0.4737 -0.6021 -0.0807
  323MOL0     C42506   6.947   9.047   5.957  0.7854  0.9954 -0.2273
  323MOL0     O42507   7.041   8.941   5.963  0.1010 -0.1507 -0.4535
  323MOL0     C42508   7.174   8.965   5.961 -0.7714  0.3315 -0.3686
  323MOL0     C42509   7.232   9.057   5.873 -0.1060 -0.6680 -0.2544
  323MOL0     C42510   7.374   9.077   5.874  1.4588 -0.4504 -0.9150
  323MOL0     C42511   7.454   9.009   5.959 -0.3498  0.5931 -0.0147
  323MOL0     O42512   7.589   9.031   5.942 -0.3885 -1.0237  0.2461
  323MOL0     C42513   7.677   8.975   6.039  0.7936  0.4361 -0.2178
  323MOL0     C42514   7.814   9.023   6.010 -0.6263  0.1456 -0.1036
  323MOL0     C42515   7.915   8.975   6.117 -0.4433  0.1156  0.1707
  323MOL0     C42516   8.067   9.017   6.101 -0.3404 -0.4704 -0.0697
  323MOL0     C42517   8.164   8.975   6.218  0.3549  0.9893 -0.0429
  323MOL0     C42518   8.146   8.824   6.254 -0.3561  0.1186 -0.5905
  323MOL0     C42519   8.187   8.726   6.147  0.4065  0.3645 -0.2687
  323MOL0     C42520   8.333   8.719   6.111 -0.1263 -0.4626 -0.4178
  323MOL0     N42521   8.416   8.671   6.226 -0.5429  0.2449  0.5465
  323MOL0     C42522   8.496   8.753   6.306 -0.4152  0.3803  0.9138
  323MOL0     C42523   8.559   8.671   6.397 -0.3309  0.0594  0.6838
  323MOL0     C42524   8.648   8.703   6.515 -0.3225  0.9961 -0.1917
  323MOL0     C42525   8.608   8.818   6.596 -0.1672 -0.5062 -0.0959
  323MOL0     C42526   8.465   8.793   6.668  0.1541  0.5735  0.7679
  323MOL0     C42527   8.463   8.672   6.767 -0.2575 -0.7302  0.3746
  323MOL0     O42528   8.340   8.666   6.846  0.4161 -0.5380 -0.0556
  323MOL0     C42529   8.214   8.629   6.784 -0.0275 -0.4608 -0.9863
  323MOL0     C42530   8.197   8.579   6.662  0.0009  0.8654 -0.2147
  323MOL0     C42531   8.069   8.560   6.614 -0.0283  0.3777 -0.0014
  323MOL0     C42532   7.957   8.594   6.685  0.1582  0.2135  0.0469
  323MOL0     C42533   7.831   8.605   6.618 -0.0358  0.5343 -0.6020
  323MOL0     O42534   7.746   8.701   6.666  0.0262  0.1187  0.7007
  323MOL0     C42535   7.631   8.730   6.598  0.0440  0.4154 -1.4339
  323MOL0     C42536   7.517   8.766   6.675  0.7243  0.4154  0.4076
  323MOL0     C42537   7.409   8.830   6.616 -0.3756  0.0626 -0.0973
  323MOL0     C42538   7.406   8.856   6.479  0.4200  0.7366 -0.8069
  323MOL0     O42539   7.300   8.924   6.413  0.1348  0.4878  0.1174
  323MOL0     C42540   7.251   9.041   6.474 -0.4315  0.4935  0.2642
  323MOL0     C42541   7.361   9.150   6.475 -0.1701  0.8852  0.0778
  323MOL0     C42542   7.406   9.173   6.324 -0.3485  0.0351  1.3206
  323MOL0     C42543   7.504   9.297   6.325 -0.1574  1.0449  0.4401
  323MOL0     C42544   7.622   9.295   6.426 -0.5162 -0.0406  0.1291
  323MOL0     C42545   7.698   9.161   6.402 -0.8077  0.0511 -0.5519
  323MOL0     C42546   7.828   9.164   6.481  0.3595  0.1856  0.0564
  323MOL0     C42547   7.854   9.032   6.541 -0.5826  0.6570  0.1407
  323MOL0    Cl42548   8.031   9.002   6.611  0.1109  0.3076 -0.1404
  323MOL0     C42549   7.513   8.806   6.400 -0.3123 -0.8828 -0.4474
  323MOL0     C42550   7.626   8.762   6.465  0.0391  1.0644  0.7615
  323MOL0     O42551   7.821   8.541   6.510  0.0106 -0.5207 -0.3740
  323MOL0     C42552   7.973   8.630   6.819  0.0880  0.5201  0.5618
  323MOL0     C42553   8.101   8.649   6.866  1.6543 -0.1689  0.9505
  323MOL0     N42554   8.523   8.543   6.361 -0.8579 -0.0592 -0.1068
  323MOL0     N42555   8.434   8.540   6.265 -0.8518 -0.2055 -0.2161
  323MOL0     C42556   7.391   8.893   6.030 -0.2663  0.7000 -0.4169
  323MOL0     C42557   7.246   8.882   6.045 -0.5095 -0.4791 -0.5154
  323MOL0     C42558   6.807   9.011   5.955  0.7592  1.0038 -0.0504
  323MOL0     C42559   6.756   8.878   5.972  0.2441  0.5713 -0.6269
  323MOL0     C42560   6.621   8.839   5.984 -0.2963  0.0388  0.8693
  323MOL0     C42561   6.527   8.938   5.958 -0.2378  1.0079  0.8945
  323MOL0     O42562   6.393   8.900   5.968 -0.4022 -0.1881 -0.1833
  323MOL0     C42563   6.289   8.995   5.947  0.0792  0.3497 -0.6847
  323MOL0     C42564   6.159   8.911   5.952 -0.4334  0.2343 -0.3217
  323MOL0     C42565   6.044   9.007   5.944 -0.5067  0.2561 -0.5136
  323MOL0     C42566   5.917   8.936   5.931 -0.6511  0.4219 -0.4528
  323MOL0     C42567   5.811   9.040   5.942  0.5698  0.1284 -0.0507
  323MOL0     C42568   5.734   9.136   5.967  0.7735 -0.3950 -0.0524
  323MOL0     C42569   6.565   9.073   5.951  0.8176 -0.0772  0.0073
  323MOL0     C42570   6.703   9.111   5.943 -0.2818 -0.0277  0.5682
  323MOL0     H42571   7.164   9.118   5.815  1.4175  2.8946  1.4115
  323MOL0     H42572   7.428   9.144   5.808  1.4678  1.4321  0.9014
  323MOL0     H42573   7.668   8.866   6.038 -0.0582  0.4611  1.2600
  323MOL0     H42574   7.643   9.006   6.138 -3.3042  0.6297 -1.5033
  323MOL0     H42575   7.808   9.133   6.014 -0.1216  0.1421  1.5809
  323MOL0     H42576   7.853   8.988   5.914  0.1147 -0.7873  0.5179
  323MOL0     H42577   7.913   8.866   6.110 -1.7537  0.0772  0.8707
  323MOL0     H42578   7.896   8.999   6.222  0.2420 -0.7892  0.5162
  323MOL0     H42579   8.092   8.970   6.006  0.5050 -4.6182  2.0166
  323MOL0     H42580   8.074   9.126   6.093  0.9227 -0.4672  0.7679
  323MOL0     H42581   8.142   9.029   6.311 -0.9503 -2.8101  2.0975
  323MOL0     H42582   8.268   8.993   6.191  0.8772 -2.4268 -0.7699
  323MOL0     H42583   8.043   8.801   6.280 -0.4564  1.1782  0.0170
  323MOL0     H42584   8.197   8.804   6.349 -2.6171  1.8387  1.0984
  323MOL0     H42585   8.163   8.628   6.189  0.3319  1.7042  3.1356
  323MOL0     H42586   8.114   8.746   6.068 -2.1589  0.3741  1.9816
  323MOL0     H42587   8.363   8.818   6.075  1.8598 -0.2616  1.5739
  323MOL0     H42588   8.352   8.650   6.029  2.2062  1.8572 -1.9704
  323MOL0     H42589   8.494   8.862   6.311  1.6841  0.4296  1.4491
  323MOL0     H42590   8.750   8.721   6.482 -0.8372  2.9387 -0.8968
  323MOL0     H42591   8.644   8.615   6.580 -0.1948  0.3972 -0.9713
  323MOL0     H42592   8.612   8.912   6.541  1.0157 -0.4148  0.1230
  323MOL0     H42593   8.680   8.837   6.676 -1.0280  2.7574  0.0705
  323MOL0     H42594   8.440   8.883   6.726  2.8033  2.0063 -0.1706
  323MOL0     H42595   8.387   8.781   6.591 -1.0783 -3.2659  2.3975
  323MOL0     H42596   8.551   8.681   6.831  0.4798 -0.6387 -0.6190
  323MOL0     H42597   8.477   8.578   6.712  0.0620 -1.2963  1.3913
  323MOL0     H42598   8.276   8.555   6.592 -1.2992 -0.6435 -1.2542
  323MOL0     H42599   8.068   8.520   6.513  1.4438  0.3046 -0.0041
  323MOL0     H42600   7.510   8.746   6.781  0.4231 -0.3492  0.2492
  323MOL0     H42601   7.326   8.857   6.679  0.7834  1.5963  0.8527
  323MOL0     H42602   7.219   9.015   6.576  1.1012  1.5315  1.0465
  323MOL0     H42603   7.168   9.083   6.418  2.7161  0.5636 -5.0078
  323MOL0     H42604   7.449   9.140   6.539 -0.4975 -1.7718  0.1950
  323MOL0     H42605   7.301   9.235   6.511 -0.6167  1.0655 -1.0496
  323MOL0     H42606   7.326   9.190   6.252  0.7248 -1.1273 -0.1962
  323MOL0     H42607   7.457   9.082   6.291 -0.5299  0.5675 -0.5314
  323MOL0     H42608   7.542   9.293   6.223  0.4419 -0.1500  0.6907
  323MOL0     H42609   7.453   9.394   6.330 -2.2015  0.6320 -5.2759
  323MOL0     H42610   7.589   9.304   6.530 -2.6577 -2.1330 -0.2805
  323MOL0     H42611   7.684   9.384   6.417 -1.8426  0.7103 -2.5483
  323MOL0     H42612   7.722   9.142   6.297  1.0412 -0.0858 -0.1272
  323MOL0     H42613   7.637   9.080   6.441  2.5714 -2.0047  0.8113
  323MOL0     H42614   7.917   9.176   6.419 -1.6777 -0.7315 -3.2641
  323MOL0     H42615   7.817   9.242   6.557  0.6352  0.2577  0.0217
  323MOL0     H42616   7.839   8.955   6.464  0.1684 -0.5169  1.1233
  323MOL0     H42617   7.788   9.006   6.624  0.8737 -1.3591  0.7486
  323MOL0     H42618   7.508   8.821   6.292 -0.9369  0.8148 -0.2101
  323MOL0     H42619   7.709   8.749   6.397 -0.5407 -0.9899  0.3942
  323MOL0     H42620   7.888   8.648   6.885  0.9538 -0.3173  1.9731
  323MOL0     H42621   8.105   8.691   6.966 -0.1789  1.7001  0.3111
  323MOL0     H42622   7.446   8.820   6.088  0.7228 -0.2506 -2.4654
  323MOL0     H42623   7.201   8.800   6.099 -0.3907  0.2366  0.7052
  323MOL0     H42624   6.817   8.789   5.966 -1.0541 -0.3337 -0.5904
  323MOL0     H42625   6.596   8.734   5.994 -1.9641  0.3631  0.4444
  323MOL0     H42626   6.291   9.047   5.850  2.0429 -0.9295 -1.3936
  323MOL0     H42627   6.290   9.069   6.028  2.3725 -0.1568 -0.1754
  323MOL0     H42628   6.161   8.841   5.868 -0.2997  0.3646 -0.4292
  323MOL0     H42629   6.155   8.846   6.040 -1.5413 -1.3495 -1.4932
  323MOL0     H42630   6.057   9.078   5.862  2.1150  1.1290  0.5335
  323MOL0     H42631   6.038   9.062   6.039  0.1763  0.0752 -0.3556
  323MOL0     H42632   5.914   8.891   5.832 -1.7929 -2.1909  0.6752
  323MOL0     H42633   5.896   8.864   6.011  1.8623 -0.4701 -0.5274
  323MOL0     H42634   5.672   9.224   5.970 -0.7625 -1.4401  0.1623
  323MOL0     H42635   6.489   9.148   5.935  0.2870 -0.8243 -1.1761
  323MOL0     H42636   6.724   9.216   5.924 -0.7861  1.0660  4.9740
  324MOL0     O42637  10.582   3.637   5.783  0.5285  0.7596 -0.1336
  324MOL0     C42638  10.503   3.734   5.756 -0.5129  0.6090  0.3206
  324MOL0     O42639  10.524   3.843   5.665  0.3066  0.1012 -0.0887
  324MOL0     C42640  10.647   3.873   5.620 -0.2818  0.1488  0.7514
  324MOL0     C42641  10.659   3.957   5.506  0.5813  0.4063 -0.4742
  324MOL0     C42642  10.781   3.985   5.454  0.4861 -0.1298  0.9317
  324MOL0     C42643  10.899   3.939   5.507 -0.4345  0.6764  0.0627
  324MOL0     O42644  11.019   3.970   5.437 -0.2504 -0.3810 -0.4699
  324MOL0     C42645  11.149   3.936   5.494 -1.0342 -0.1588  0.5609
  324MOL0     C42646  11.262   3.962   5.382 -0.2768  0.5450 -0.3334
  324MOL0     C42647  11.247   3.875   5.256  0.1900  0.2309 -0.1626
  324MOL0     C42648  11.312   3.918   5.131 -0.4735 -0.7636  0.1601
  324MOL0     C42649  11.334   3.804   5.032 -0.2650  0.2206  0.0117
  324MOL0     C42650  11.392   3.842   4.896  0.8973 -0.3609  0.7177
  324MOL0     C42651  11.315   3.944   4.811  0.2717 -0.2378  1.2266
  324MOL0     C42652  11.420   3.989   4.702  0.4169 -1.1203  0.2082
  324MOL0     N42653  11.369   4.022   4.579 -0.4218 -0.1163  0.0607
  324MOL0     C42654  11.288   4.138   4.543 -0.4169  1.2523  0.1577
  324MOL0     C42655  11.280   4.135   4.410  0.2003  0.1197 -0.0231
  324MOL0     C42656  11.223   4.250   4.325 -0.4915 -1.2138 -0.0059
  324MOL0     C42657  11.097   4.315   4.387 -0.2530  0.0769 -0.4185
  324MOL0     C42658  11.036   4.413   4.289 -0.7678  0.0278 -0.4481
  324MOL0     C42659  10.918   4.475   4.350  0.3754  0.0157  0.5146
  324MOL0     O42660  10.821   4.370   4.373 -0.5893  0.0027  0.4808
  324MOL0     C42661  10.692   4.399   4.340  0.2943  0.7662  0.7684
  324MOL0     C42662  10.625   4.513   4.384  0.7856 -0.6794  0.1532
  324MOL0     C42663  10.488   4.529   4.373  0.0446 -0.4709 -0.5711
  324MOL0     C42664  10.412   4.442   4.290  0.3428 -0.1423 -0.0429
  324MOL0     C42665  10.264   4.450   4.273  0.2781  0.2667 -0.2950
  324MOL0     O42666  10.216   4.392   4.162 -0.1688  0.0880 -0.0221
  324MOL0     C42667  10.084   4.400   4.125  0.3503 -0.4424  0.0867
  324MOL0     C42668   9.973   4.460   4.195 -0.1961  0.4488 -0.0649
  324MOL0     C42669   9.844   4.444   4.147  0.0833  0.4413 -0.3989
  324MOL0     C42670   9.823   4.387   4.022 -0.8430  0.1946 -0.3924
  324MOL0     O42671   9.695   4.378   3.982  0.3826 -0.4985 -1.0138
  324MOL0     C42672   9.663   4.415   3.851  0.2271  0.7722  0.5950
  324MOL0     C42673   9.513   4.398   3.823 -0.3538 -0.2362  0.0864
  324MOL0     C42674   9.422   4.475   3.924  0.4546 -0.0490  0.1553
  324MOL0     C42675   9.440   4.623   3.925  0.4219  0.4875 -0.8014
  324MOL0     C42676   9.299   4.686   3.944 -0.5978  0.1863  0.3375
  324MOL0     C42677   9.262   4.668   4.099 -0.0128 -0.0107 -0.4926
  324MOL0     C42678   9.341   4.773   4.183  0.2664 -0.0027 -0.3647
  324MOL0     C42679   9.249   4.809   4.305 -1.1615 -0.1161  0.1565
  324MOL0    Cl42680   9.214   4.659   4.390 -0.3554  0.2438 -0.0468
  324MOL0     C42681   9.932   4.359   3.937  0.0785  0.1953  0.4663
  324MOL0     C42682  10.062   4.362   3.996  0.6629 -0.3135  1.5528
  324MOL0     O42683  10.209   4.511   4.360  1.4580  0.1346 -0.3845
  324MOL0     C42684  10.482   4.330   4.232 -0.1796 -0.5078  0.4516
  324MOL0     C42685  10.624   4.311   4.251  0.8106  0.4609 -0.0445
  324MOL0     N42686  11.360   4.035   4.363 -0.2543  0.6013  0.1110
  324MOL0     N42687  11.387   3.965   4.463 -0.7032  0.8602 -0.3023
  324MOL0     C42688  10.894   3.867   5.626  0.4932  0.8451  0.2620
  324MOL0     C42689  10.768   3.838   5.677  0.2051  0.5935 -0.3019
  324MOL0     C42690  10.392   3.752   5.850 -0.2454  0.3722  1.1552
  324MOL0     C42691  10.361   3.881   5.892  0.2895  0.5798  0.4156
  324MOL0     C42692  10.258   3.896   5.990 -0.0231  0.0276  0.1430
  324MOL0     C42693  10.178   3.788   6.040 -0.4674  0.1140  0.1772
  324MOL0     O42694  10.074   3.802   6.123  0.1621 -0.9929  0.3774
  324MOL0     C42695  10.046   3.945   6.163 -0.0391  0.9337 -0.8519
  324MOL0     C42696   9.932   3.946   6.274  0.0358  0.0214  0.7499
  324MOL0     C42697   9.843   3.819   6.275 -0.1868 -0.5120  0.1319
  324MOL0     C42698   9.726   3.834   6.369 -0.7845  0.1453  0.0901
  324MOL0     C42699   9.771   3.849   6.510  0.7992 -0.0634  1.0713
  324MOL0     C42700   9.808   3.870   6.625 -0.0572 -0.3169  0.1411
  324MOL0     C42701  10.224   3.658   5.999 -0.7355 -0.6711 -0.1034
  324MOL0     C42702  10.333   3.638   5.905  0.2010 -0.1972 -0.8422
  324MOL0     H42703  10.569   3.982   5.451  1.3883 -0.1830 -2.1329
  324MOL0     H42704  10.792   4.059   5.375 -0.8242 -1.5780 -0.6865
  324MOL0     H42705  11.161   3.840   5.544  2.5743  0.7191  1.6504
  324MOL0     H42706  11.168   4.012   5.570  2.5260  0.5923 -0.8747
  324MOL0     H42707  11.354   3.928   5.431 -1.1854 -1.8163 -0.1285
  324MOL0     H42708  11.266   4.069   5.364  1.5187  1.5640  4.5159
  324MOL0     H42709  11.140   3.854   5.246  0.0337  0.4622  0.9562
  324MOL0     H42710  11.299   3.781   5.273  0.3441 -0.3870 -3.4286
  324MOL0     H42711  11.244   3.983   5.076 -1.0057 -0.3504  1.2896
  324MOL0     H42712  11.404   3.973   5.154 -1.6028  0.9597  0.7761
  324MOL0     H42713  11.238   3.757   5.008 -0.0461 -0.0535 -0.3372
  324MOL0     H42714  11.404   3.732   5.074 -2.1908 -2.2081 -0.6807
  324MOL0     H42715  11.403   3.748   4.840 -0.2191  0.5791 -1.1670
  324MOL0     H42716  11.489   3.888   4.915 -0.7872  3.5024  0.7804
  324MOL0     H42717  11.223   3.893   4.780 -0.4610  0.4475  2.2110
  324MOL0     H42718  11.282   4.031   4.868  0.2807 -0.7764  2.0785
  324MOL0     H42719  11.503   3.919   4.688  0.5665 -0.8659 -0.1825
  324MOL0     H42720  11.468   4.076   4.750  0.5331 -1.4511  0.6996
  324MOL0     H42721  11.248   4.209   4.613  0.1356  2.3975 -0.6584
  324MOL0     H42722  11.206   4.199   4.229 -1.1212 -1.0617  0.0255
  324MOL0     H42723  11.303   4.311   4.282  0.5028 -2.5215 -0.1024
  324MOL0     H42724  11.141   4.372   4.470  1.0302 -1.3489 -0.0696
  324MOL0     H42725  11.031   4.237   4.427  0.2482  1.4913  3.7045
  324MOL0     H42726  11.116   4.481   4.259  0.4174  0.1533  2.5765
  324MOL0     H42727  11.004   4.365   4.197 -0.5739  1.4031 -1.2642
  324MOL0     H42728  10.873   4.556   4.290  1.2712 -1.2278 -1.9864
  324MOL0     H42729  10.943   4.529   4.441 -1.3894  2.7568 -0.4962
  324MOL0     H42730  10.675   4.579   4.454 -1.1290  1.4015 -0.3374
  324MOL0     H42731  10.441   4.613   4.423  1.6939  2.0318 -2.9156
  324MOL0     H42732   9.993   4.507   4.291  2.9308  1.2729 -1.0203
  324MOL0     H42733   9.763   4.484   4.207  0.6445  0.4831  0.3451
  324MOL0     H42734   9.715   4.350   3.780 -4.0420 -1.7174 -0.5755
  324MOL0     H42735   9.690   4.520   3.834  1.0903  0.0869 -3.5555
  324MOL0     H42736   9.488   4.292   3.812  0.6171 -0.5303  0.5559
  324MOL0     H42737   9.496   4.437   3.722  0.4913 -2.8037 -1.1188
  324MOL0     H42738   9.446   4.455   4.028  1.0057  2.7002  0.6436
  324MOL0     H42739   9.320   4.439   3.912 -0.0098  1.3057 -0.1250
  324MOL0     H42740   9.504   4.647   4.010 -0.5290  2.7537 -0.6491
  324MOL0     H42741   9.482   4.660   3.831  1.0674  0.8400 -0.3809
  324MOL0     H42742   9.223   4.638   3.882 -2.7050  3.4705  0.1392
  324MOL0     H42743   9.307   4.792   3.919  1.5080  0.1231  0.5654
  324MOL0     H42744   9.277   4.564   4.129 -0.9456 -0.6334 -2.0718
  324MOL0     H42745   9.153   4.673   4.115  0.1596  1.0459  0.5180
  324MOL0     H42746   9.434   4.726   4.219  0.1213  2.0762  3.2347
  324MOL0     H42747   9.361   4.856   4.116  1.3927 -1.4346 -1.8645
  324MOL0     H42748   9.149   4.831   4.266  0.1484 -1.3047 -4.3853
  324MOL0     H42749   9.294   4.886   4.369 -0.4697 -2.5629  2.7832
  324MOL0     H42750   9.918   4.340   3.831  0.6091  0.5961  0.3159
  324MOL0     H42751  10.137   4.322   3.929  0.0655  0.7882  0.1651
  324MOL0     H42752  10.414   4.263   4.179 -1.6608  1.3845 -0.1779
  324MOL0     H42753  10.667   4.234   4.188 -1.5972 -1.3084  0.3230
  324MOL0     H42754  10.987   3.832   5.670 -1.0469 -2.2114  1.4172
  324MOL0     H42755  10.764   3.783   5.771  1.3417  0.9293 -0.0378
  324MOL0     H42756  10.407   3.975   5.862 -2.8330  2.0457 -0.1225
  324MOL0     H42757  10.247   3.996   6.030 -2.1856  0.4824 -1.3784
  324MOL0     H42758  10.011   3.993   6.071 -3.6054 -2.5244 -1.5725
  324MOL0     H42759  10.134   3.991   6.210 -1.5482  2.9784  0.1421
  324MOL0     H42760   9.982   3.961   6.370  1.7389 -0.4835 -0.0128
  324MOL0     H42761   9.871   4.032   6.243 -1.2836 -1.6233 -1.5478
  324MOL0     H42762   9.904   3.730   6.293 -0.4411 -1.2451 -2.2223
  324MOL0     H42763   9.812   3.803   6.171 -1.6168 -6.0476  1.1152
  324MOL0     H42764   9.665   3.917   6.333  1.5468  1.7718 -0.2682
  324MOL0     H42765   9.661   3.746   6.366  0.0290 -0.5957  2.1535
  324MOL0     H42766   9.836   3.903   6.723  0.4686  2.7554 -0.9030
  324MOL0     H42767  10.170   3.573   6.040 -0.3480 -2.1919 -2.5664
  324MOL0     H42768  10.367   3.536   5.888 -1.0049 -0.4953 -1.5668
  325MOL0     O42769   4.327   6.711   5.164 -0.4635 -0.6012 -0.2518
  325MOL0     C42770   4.325   6.777   5.060  0.2812 -0.5886 -0.6241
  325MOL0     O42771   4.211   6.846   5.026 -0.4261  0.5828  1.1153
  325MOL0     C42772   4.100   6.819   5.102 -0.6579 -0.5011  0.0202
  325MOL0     C42773   4.054   6.884   5.217 -0.0926  0.1252 -0.1802
  325MOL0     C42774   3.932   6.857   5.286 -0.1968  0.4070 -0.4729
  325MOL0     C42775   3.844   6.758   5.233  0.0189  0.3376 -0.3679
  325MOL0     O42776   3.717   6.723   5.288 -0.6531 -0.2004  0.3807
  325MOL0     C42777   3.689   6.761   5.421 -0.1513 -0.7732  0.0806
  325MOL0     C42778   3.588   6.884   5.433 -0.4168 -1.9860  0.3991
  325MOL0     C42779   3.655   7.022   5.457  0.1184  0.6430 -0.0226
  325MOL0     C42780   3.579   7.137   5.513 -0.6374  0.0642 -0.3618
  325MOL0     C42781   3.509   7.203   5.401  0.5423  0.0152  0.2303
  325MOL0     C42782   3.427   7.328   5.434 -0.0677  0.4149  0.2041
  325MOL0     C42783   3.319   7.302   5.553 -0.3060  1.0096  0.3781
  325MOL0     C42784   3.198   7.396   5.561  0.0694  0.3520  0.1356
  325MOL0     N42785   3.092   7.365   5.466 -0.3012  0.3536 -0.1071
  325MOL0     C42786   2.974   7.317   5.494 -0.6548 -0.1684  0.2014
  325MOL0     C42787   2.913   7.305   5.376 -0.0524 -0.0164 -0.0199
  325MOL0     C42788   2.767   7.256   5.373 -0.4273 -1.4614  0.2628
  325MOL0     C42789   2.743   7.146   5.271 -0.0646  0.0589 -0.7553
  325MOL0     C42790   2.759   7.186   5.116 -0.1976 -0.3759  0.0592
  325MOL0     C42791   2.629   7.262   5.064 -0.0469 -0.0429  0.1865
  325MOL0     O42792   2.661   7.290   4.927  0.7790 -0.3743 -0.6551
  325MOL0     C42793   2.590   7.399   4.879 -0.0986 -0.7383  0.6885
  325MOL0     C42794   2.643   7.471   4.761  1.4086 -0.3864 -0.4125
  325MOL0     C42795   2.573   7.573   4.701  0.7160  0.0460  0.3685
  325MOL0     C42796   2.447   7.619   4.752 -0.6358 -0.1164 -0.0352
  325MOL0     C42797   2.371   7.731   4.692 -0.6591  0.0612 -0.8706
  325MOL0     O42798   2.251   7.784   4.754 -0.7827 -0.1583  0.2753
  325MOL0     C42799   2.185   7.872   4.670  0.3946 -0.4661  0.2943
  325MOL0     C42800   2.162   7.999   4.719  0.1307  0.8545 -0.0951
  325MOL0     C42801   2.103   8.103   4.648 -0.4027 -0.7210  0.2660
  325MOL0     C42802   2.068   8.080   4.517  0.7513  0.9887  1.0266
  325MOL0     O42803   2.008   8.187   4.449  0.1882  0.3853  0.3583
  325MOL0     C42804   2.013   8.174   4.306  0.0760 -1.1188  0.8624
  325MOL0     C42805   2.007   8.315   4.239 -0.8576 -0.1962  0.5327
  325MOL0     C42806   2.111   8.416   4.301 -0.0222  0.3242  0.8057
  325MOL0     C42807   2.255   8.387   4.254  0.6737  0.5759 -0.5580
  325MOL0     C42808   2.354   8.493   4.306 -0.0759 -0.2519 -0.2721
  325MOL0     C42809   2.376   8.496   4.457 -0.7414  0.3191 -0.3493
  325MOL0     C42810   2.478   8.600   4.509  0.3183 -0.3686 -0.7783
  325MOL0     C42811   2.434   8.664   4.645 -0.8204 -0.1063  1.4766
  325MOL0    Cl42812   2.563   8.762   4.707 -0.2359  0.1750 -0.2220
  325MOL0     C42813   2.074   7.949   4.471 -0.7262  0.7401 -0.5696
  325MOL0     C42814   2.135   7.849   4.547  0.3410 -0.3441  0.0271
  325MOL0     O42815   2.418   7.764   4.585 -0.0145  0.6534 -0.9075
  325MOL0     C42816   2.390   7.542   4.862 -0.0244  0.7488  0.4342
  325MOL0     C42817   2.462   7.439   4.929 -1.0975  0.5756 -0.2402
  325MOL0     N42818   2.997   7.361   5.282 -0.8047 -0.5671 -0.7163
  325MOL0     N42819   3.109   7.386   5.337 -0.0367 -0.0364 -0.4208
  325MOL0     C42820   3.884   6.703   5.113  0.4276  0.6883 -0.2567
  325MOL0     C42821   4.007   6.735   5.043 -0.3749  0.6606 -0.0208
  325MOL0     C42822   4.444   6.824   4.989 -0.4295 -0.0112  0.3725
  325MOL0     C42823   4.568   6.789   5.033 -0.4023 -0.1022  0.4423
  325MOL0     C42824   4.690   6.821   4.974  0.7442  0.6153  0.4217
  325MOL0     C42825   4.690   6.895   4.854 -0.1569 -0.6732 -0.8948
  325MOL0     O42826   4.809   6.920   4.795  0.1624  0.2395 -0.3584
  325MOL0     C42827   4.809   6.980   4.667  0.0572  0.7524  0.3003
  325MOL0     C42828   4.823   7.137   4.684  0.2147  0.6577  0.5438
  325MOL0     C42829   4.781   7.210   4.555 -0.5594  0.1643  0.3059
  325MOL0     C42830   4.847   7.153   4.425  0.5642  0.4440  0.3918
  325MOL0     C42831   4.988   7.116   4.431  0.8045 -0.8480  0.8029
  325MOL0     C42832   5.106   7.096   4.447  0.2844 -0.4443  0.4435
  325MOL0     C42833   4.567   6.940   4.811  0.4249 -0.0977 -0.4550
  325MOL0     C42834   4.450   6.906   4.875  0.7394 -0.1608 -0.6154
  325MOL0     H42835   4.120   6.959   5.259 -1.6856  0.6411  1.5222
  325MOL0     H42836   3.911   6.912   5.377  0.0138 -1.0279  0.4771
  325MOL0     H42837   3.781   6.781   5.477  0.4698 -3.0950 -0.0148
  325MOL0     H42838   3.644   6.670   5.462  0.5225 -2.2088 -2.1946
  325MOL0     H42839   3.518   6.865   5.515 -1.7309 -0.8578 -0.4282
  325MOL0     H42840   3.528   6.886   5.342  0.5209  0.5765 -0.2672
  325MOL0     H42841   3.703   7.061   5.366  2.2145  1.2370  1.2661
  325MOL0     H42842   3.731   6.990   5.528 -1.4396 -2.7889  0.2645
  325MOL0     H42843   3.506   7.114   5.592  2.3443  1.1479  3.0081
  325MOL0     H42844   3.646   7.216   5.547  0.0191 -0.0930 -1.2677
  325MOL0     H42845   3.444   7.128   5.354  0.8557 -0.8781  1.1996
  325MOL0     H42846   3.585   7.231   5.327 -2.1948  2.3994 -1.9205
  325MOL0     H42847   3.372   7.357   5.344  0.4914  2.3678  0.4501
  325MOL0     H42848   3.497   7.407   5.460  1.1478  0.3869 -2.6421
  325MOL0     H42849   3.296   7.195   5.549  3.5317 -0.0055  1.4630
  325MOL0     H42850   3.374   7.312   5.647  2.5054 -2.7057 -0.6321
  325MOL0     H42851   3.238   7.495   5.539 -0.2610  0.8914  1.8536
  325MOL0     H42852   3.155   7.394   5.661 -2.1078 -1.0331 -0.7425
  325MOL0     H42853   2.941   7.299   5.596  1.7472 -2.0994  0.7195
  325MOL0     H42854   2.703   7.343   5.356  1.8958  0.2785 -0.0885
  325MOL0     H42855   2.743   7.201   5.465  0.2274 -1.3700  0.4936
  325MOL0     H42856   2.648   7.097   5.290  0.4068 -0.8290 -0.6670
  325MOL0     H42857   2.821   7.072   5.287  0.6670  0.7557 -1.0068
  325MOL0     H42858   2.844   7.250   5.090 -0.0659 -0.2631  0.7329
  325MOL0     H42859   2.780   7.097   5.056  0.2916  1.7046 -3.0722
  325MOL0     H42860   2.607   7.348   5.128 -1.8497  0.8212 -1.5182
  325MOL0     H42861   2.540   7.200   5.059  0.0314 -0.1043 -0.5652
  325MOL0     H42862   2.740   7.439   4.725  1.6272  0.1314 -0.2822
  325MOL0     H42863   2.620   7.614   4.612 -0.6573 -1.5095 -1.1549
  325MOL0     H42864   2.196   8.013   4.822  0.2450 -1.0435  0.1616
  325MOL0     H42865   2.103   8.201   4.696 -1.3111 -0.9508  0.7639
  325MOL0     H42866   1.929   8.114   4.271  0.6569 -0.3659 -2.1082
  325MOL0     H42867   2.108   8.129   4.276  0.2202  1.3386 -2.9978
  325MOL0     H42868   1.913   8.369   4.251 -0.6395  0.0560  1.1778
  325MOL0     H42869   2.028   8.302   4.132 -1.5056  0.1327  0.3664
  325MOL0     H42870   2.087   8.413   4.408 -0.3625 -1.1320  0.7004
  325MOL0     H42871   2.086   8.510   4.250  1.8635 -1.3810 -3.8268
  325MOL0     H42872   2.296   8.288   4.279 -2.1134 -1.6912 -4.0013
  325MOL0     H42873   2.255   8.385   4.145 -0.8806 -3.3255 -0.6423
  325MOL0     H42874   2.318   8.593   4.280 -1.0030 -0.5586 -0.2107
  325MOL0     H42875   2.450   8.486   4.253  1.3608  1.5326  1.9293
  325MOL0     H42876   2.414   8.399   4.491  3.6459  1.4223 -1.3933
  325MOL0     H42877   2.277   8.521   4.497 -1.6701 -1.0142 -1.7097
  325MOL0     H42878   2.573   8.548   4.522 -0.4393 -1.2586  1.9691
  325MOL0     H42879   2.485   8.680   4.435 -1.9117  0.2632 -0.3633
  325MOL0     H42880   2.406   8.587   4.717  2.3626 -2.4547  0.4307
  325MOL0     H42881   2.353   8.738   4.634 -1.9974 -1.7165 -2.9954
  325MOL0     H42882   2.030   7.914   4.379 -0.7010  0.9774 -0.6702
  325MOL0     H42883   2.135   7.744   4.518 -3.3546 -0.2244 -0.9506
  325MOL0     H42884   2.286   7.553   4.889 -0.5624 -1.6789 -0.4606
  325MOL0     H42885   2.416   7.386   5.012  1.0074 -0.6286  0.2104
  325MOL0     H42886   3.809   6.641   5.064  1.1086  0.8086 -1.4972
  325MOL0     H42887   4.033   6.705   4.943  0.7547  1.3177  0.0608
  325MOL0     H42888   4.575   6.730   5.124  0.5511 -0.0379  0.4211
  325MOL0     H42889   4.786   6.814   5.024  0.6956 -2.0428  0.2901
  325MOL0     H42890   4.719   6.961   4.608  0.6200  0.4514 -0.4859
  325MOL0     H42891   4.897   6.943   4.613  1.4507  2.7501  1.0776
  325MOL0     H42892   4.751   7.169   4.759 -5.8767 -3.0722 -2.8962
  325MOL0     H42893   4.927   7.166   4.701  0.7293 -1.1310  0.6889
  325MOL0     H42894   4.814   7.313   4.570 -0.0383  0.2275 -1.1100
  325MOL0     H42895   4.674   7.221   4.536 -0.6021 -1.6431 -0.8141
  325MOL0     H42896   4.788   7.068   4.391  2.9239 -0.7321 -1.0487
  325MOL0     H42897   4.842   7.236   4.354  0.5728  2.5486  2.6912
  325MOL0     H42898   5.210   7.077   4.465  0.6362  1.4518  0.6094
  325MOL0     H42899   4.558   7.000   4.722  1.5778 -0.9658 -1.1860
  325MOL0     H42900   4.359   6.958   4.846 -0.5974 -1.2775  1.3306
  326MOL0     O42901   2.127   0.914   2.603  0.0859  0.2929  0.9092
  326MOL0     C42902   2.149   0.889   2.723  0.0228  0.7136  0.5952
  326MOL0     O42903   2.045   0.869   2.813 -0.6298 -0.6443 -0.2601
  326MOL0     C42904   1.918   0.901   2.776  0.2308 -0.3919  0.2435
  326MOL0     C42905   1.831   0.826   2.705  0.1378 -0.0110  0.7206
  326MOL0     C42906   1.706   0.870   2.675 -0.1680 -0.3908  0.4573
  326MOL0     C42907   1.665   0.998   2.725 -0.2320  0.3453  0.5217
  326MOL0     O42908   1.538   1.048   2.685  0.3570 -0.1228 -0.2449
  326MOL0     C42909   1.481   1.015   2.553 -0.3983 -0.2433  0.1167
  326MOL0     C42910   1.373   1.124   2.539 -0.1904 -0.5689 -0.4890
  326MOL0     C42911   1.294   1.093   2.415  0.3694  0.3605 -0.2882
  326MOL0     C42912   1.363   1.119   2.279  0.2206 -0.3600 -0.2831
  326MOL0     C42913   1.272   1.079   2.158 -0.0432  0.7125 -0.1779
  326MOL0     C42914   1.352   1.069   2.029 -0.1470  0.5899  0.3606
  326MOL0     C42915   1.260   1.050   1.900 -0.3440 -0.0049  0.0488
  326MOL0     C42916   1.343   1.055   1.772  0.3025  0.2899  0.2730
  326MOL0     N42917   1.314   1.184   1.698 -0.6359  0.6942 -0.5925
  326MOL0     C42918   1.214   1.200   1.611 -0.4693 -0.2185  0.5100
  326MOL0     C42919   1.235   1.322   1.560  0.5748  0.5509  0.4849
  326MOL0     C42920   1.144   1.402   1.479 -0.6253  0.0618 -0.2918
  326MOL0     C42921   1.035   1.340   1.388  0.1798 -0.1845 -0.1645
  326MOL0     C42922   0.966   1.437   1.301 -0.4304 -0.4021  0.6606
  326MOL0     C42923   0.860   1.364   1.206 -0.3431  0.7691 -0.1996
  326MOL0     O42924   0.795   1.462   1.132 -0.5987  0.4145  0.1130
  326MOL0     C42925   0.665   1.431   1.089  0.1706  0.4904 -0.5516
  326MOL0     C42926   0.584   1.537   1.052 -0.3180 -0.2346 -0.2389
  326MOL0     C42927   0.445   1.521   1.027  0.2834  0.1356 -0.0403
  326MOL0     C42928   0.387   1.387   1.029 -0.8304 -1.5122  0.0612
  326MOL0     C42929   0.242   1.351   0.998  0.6223  0.2566  0.4688
  326MOL0     O42930   0.164   1.459   0.992  0.2412  0.0655  0.3893
  326MOL0     C42931   0.022   1.446   0.996 -0.0898 -0.7019  0.0690
  326MOL0     C42932  -0.046   1.550   0.923  0.0255  1.0756 -0.4065
  326MOL0     C42933  -0.185   1.539   0.912  0.7523  0.0237  0.2899
  326MOL0     C42934  -0.265   1.446   0.982 -0.0631  0.1519 -0.7698
  326MOL0     O42935  -0.403   1.451   0.960  0.6160  0.0818 -0.3729
  326MOL0     C42936  -0.493   1.370   1.030  1.1966  1.0029 -0.4538
  326MOL0     C42937  -0.637   1.426   0.998  0.2977  0.2560  0.3384
  326MOL0     C42938  -0.668   1.562   1.075 -0.1996  0.5683  0.1311
  326MOL0     C42939  -0.820   1.603   1.071  0.8728 -0.1468  0.1288
  326MOL0     C42940  -0.850   1.743   1.124 -0.4305 -0.5047 -0.3751
  326MOL0     C42941  -0.962   1.825   1.051 -0.3052  0.5418 -0.7611
  326MOL0     C42942  -0.952   1.976   1.096  0.1791  0.7252 -0.1621
  326MOL0     C42943  -1.065   2.056   1.028  0.4672 -0.8259  0.0737
  326MOL0    Cl42944  -1.062   2.223   1.092  0.2042  0.5807 -0.3562
  326MOL0     C42945  -0.199   1.353   1.059  0.5326  0.7624  0.3154
  326MOL0     C42946  -0.059   1.350   1.063  0.4510 -0.2461  0.0845
  326MOL0     O42947   0.200   1.236   0.986  0.3773  0.1043  0.4655
  326MOL0     C42948   0.476   1.282   1.065  1.0396  0.1593 -1.0726
  326MOL0     C42949   0.607   1.303   1.086 -0.8860 -0.0439  0.4490
  326MOL0     N42950   1.347   1.376   1.613  0.3672  0.3338 -0.6437
  326MOL0     N42951   1.393   1.290   1.698 -0.1622 -0.6174  0.5001
  326MOL0     C42952   1.751   1.071   2.805  0.1215  0.2668  0.7178
  326MOL0     C42953   1.877   1.022   2.833  0.2563  0.3378  0.7187
  326MOL0     C42954   2.287   0.904   2.763 -0.0953  0.6689  0.2487
  326MOL0     C42955   2.319   0.911   2.901 -0.6047  0.1870  0.2496
  326MOL0     C42956   2.461   0.915   2.938  0.4999  0.9251  0.8079
  326MOL0     C42957   2.559   0.907   2.847  0.5094  0.0986 -0.4066
  326MOL0     O42958   2.691   0.929   2.884  0.1958  0.3740 -0.1565
  326MOL0     C42959   2.802   0.891   2.802  0.1134  0.5109  1.1644
  326MOL0     C42960   2.931   0.896   2.885 -0.1779 -0.2340  0.2070
  326MOL0     C42961   3.062   0.869   2.797 -1.0258  1.1488  0.2606
  326MOL0     C42962   3.179   0.837   2.888 -0.1345 -0.1463  0.1580
  326MOL0     C42963   3.216   0.964   2.958 -0.2075 -0.3115  0.8065
  326MOL0     C42964   3.226   1.079   2.989  0.3373  0.9666  1.4486
  326MOL0     C42965   2.524   0.905   2.714 -0.0482 -0.4784  0.0535
  326MOL0     C42966   2.391   0.889   2.673 -0.7078 -0.1565  0.1136
  326MOL0     H42967   1.869   0.734   2.662  1.0498  0.1235  1.2185
  326MOL0     H42968   1.642   0.807   2.613 -3.0477  2.8203 -0.1080
  326MOL0     H42969   1.438   0.914   2.551  3.1770 -1.9593  1.6948
  326MOL0     H42970   1.562   1.028   2.480  0.0437 -0.9226  0.4724
  326MOL0     H42971   1.423   1.221   2.530  2.2982 -2.0257 -4.5063
  326MOL0     H42972   1.301   1.136   2.621 -1.4546  0.5206 -1.6953
  326MOL0     H42973   1.201   1.150   2.411  0.6430  0.7712 -0.8833
  326MOL0     H42974   1.277   0.986   2.407  0.7872  0.1471  1.2034
  326MOL0     H42975   1.374   1.228   2.278 -1.9817 -0.0795  0.3857
  326MOL0     H42976   1.467   1.088   2.269  0.9679  1.6421  0.9579
  326MOL0     H42977   1.195   1.156   2.148  0.5730  1.0662 -2.8712
  326MOL0     H42978   1.231   0.979   2.179  1.1936  0.3846  0.7925
  326MOL0     H42979   1.413   0.979   2.041 -1.8114 -0.4547  1.4215
  326MOL0     H42980   1.422   1.150   2.008 -2.4109  2.2807 -1.2651
  326MOL0     H42981   1.217   0.950   1.912 -1.3487  0.5111  0.9528
  326MOL0     H42982   1.169   1.111   1.907 -1.0278 -0.9693 -0.2237
  326MOL0     H42983   1.307   0.974   1.708  0.3981  0.8755 -0.5473
  326MOL0     H42984   1.451   1.040   1.781  0.3506 -2.4978 -2.9107
  326MOL0     H42985   1.125   1.138   1.605 -0.0361 -0.8312  0.3421
  326MOL0     H42986   1.209   1.466   1.419  2.9200 -3.1411 -0.2644
  326MOL0     H42987   1.097   1.458   1.560  0.9642 -2.2323  2.4031
  326MOL0     H42988   0.966   1.278   1.446  0.4321 -0.5748 -0.2800
  326MOL0     H42989   1.099   1.279   1.325  0.6951 -0.8855  0.9999
  326MOL0     H42990   0.914   1.510   1.362  1.4690  2.5018 -0.9665
  326MOL0     H42991   1.041   1.490   1.242  0.0638 -2.1352 -0.3508
  326MOL0     H42992   0.797   1.304   1.273  0.2752  0.7436  0.3699
  326MOL0     H42993   0.910   1.297   1.135  1.8550  1.2295  0.8157
  326MOL0     H42994   0.618   1.640   1.049  0.1982 -0.3255  1.3962
  326MOL0     H42995   0.387   1.601   0.982 -0.1031 -1.3947 -2.4455
  326MOL0     H42996   0.010   1.629   0.874  3.4351 -1.6563 -1.2881
  326MOL0     H42997  -0.244   1.606   0.851 -0.8131  0.7558  2.5148
  326MOL0     H42998  -0.460   1.350   1.133  3.0372 -2.7716 -1.6081
  326MOL0     H42999  -0.487   1.272   0.983 -2.0691  1.2654 -1.6677
  326MOL0     H43000  -0.715   1.359   1.037  1.1190 -1.2277 -0.4790
  326MOL0     H43001  -0.653   1.427   0.890  3.6276 -1.9258 -0.3063
  326MOL0     H43002  -0.619   1.647   1.027 -0.8646 -0.6454 -2.9010
  326MOL0     H43003  -0.624   1.551   1.175  1.9454  1.8849 -0.6248
  326MOL0     H43004  -0.842   1.596   0.964  1.4100 -3.4566  0.1190
  326MOL0     H43005  -0.891   1.534   1.119  0.0471  1.3474  1.1245
  326MOL0     H43006  -0.763   1.808   1.115 -2.5785  2.4386 -1.9463
  326MOL0     H43007  -0.886   1.738   1.227  0.1099  0.8772 -0.0976
  326MOL0     H43008  -1.049   1.772   1.090  2.2828 -1.4126  2.9654
  326MOL0     H43009  -0.957   1.808   0.943 -2.3076  0.1868 -0.8295
  326MOL0     H43010  -0.979   1.996   1.200 -1.3128 -0.9428 -0.1996
  326MOL0     H43011  -0.854   2.020   1.073  0.3922  0.3124 -0.0428
  326MOL0     H43012  -1.157   2.001   1.046 -0.4142 -0.5091 -2.8840
  326MOL0     H43013  -1.054   2.064   0.919 -0.5587  1.1103  0.0642
  326MOL0     H43014  -0.252   1.275   1.112  1.1586  0.6969  0.8619
  326MOL0     H43015   0.002   1.280   1.120  0.4436  1.2385  2.0198
  326MOL0     H43016   0.439   1.180   1.067 -0.6310  0.7522 -0.2893
  326MOL0     H43017   0.671   1.218   1.111  1.6790  0.7867 -2.6123
  326MOL0     H43018   1.722   1.172   2.834  2.3450  1.2207 -0.1127
  326MOL0     H43019   1.935   1.088   2.898  0.1561  2.1729 -0.9563
  326MOL0     H43020   2.247   0.897   2.980 -1.0949 -1.0071 -0.3825
  326MOL0     H43021   2.483   0.910   3.044 -1.2395  3.1193  1.3324
  326MOL0     H43022   2.809   0.968   2.724 -0.1628  0.5917  1.2196
  326MOL0     H43023   2.809   0.790   2.762  1.5388  1.2932 -0.7284
  326MOL0     H43024   2.932   0.988   2.945 -2.0408  1.9026 -2.7535
  326MOL0     H43025   2.923   0.812   2.954  0.4993 -1.1209 -0.7713
  326MOL0     H43026   3.079   0.960   2.739 -0.3720  2.4103  2.2967
  326MOL0     H43027   3.042   0.780   2.737 -0.0678 -0.0568  1.6541
  326MOL0     H43028   3.158   0.747   2.947  3.8435 -2.7067 -1.9112
  326MOL0     H43029   3.265   0.807   2.829 -1.1400  1.2834 -2.1646
  326MOL0     H43030   3.252   1.183   3.001 -0.5402  1.6216 -1.6165
  326MOL0     H43031   2.596   0.902   2.634  0.4854  0.7560  0.4626
  326MOL0     H43032   2.371   0.884   2.566  3.2019 -1.0404 -0.7397
  327MOL0     O43033   7.049   0.581   9.438 -0.3694 -0.6496 -0.1515
  327MOL0     C43034   7.128   0.559   9.529  0.4292  0.2158 -0.3280
  327MOL0     O43035   7.160   0.648   9.628  0.3402  0.5598  0.7076
  327MOL0     C43036   7.103   0.763   9.644  0.4732 -0.6635  0.3024
  327MOL0     C43037   7.161   0.884   9.609 -0.3420 -1.0041 -1.1955
  327MOL0     C43038   7.088   1.006   9.618 -0.2085  0.0924 -0.8522
  327MOL0     C43039   6.965   1.019   9.683 -0.1257 -0.5014  0.8529
  327MOL0     O43040   6.900   1.127   9.717 -0.3204 -1.1062  0.6892
  327MOL0     C43041   6.978   1.225   9.791 -1.2687 -0.7857  0.8231
  327MOL0     C43042   6.883   1.312   9.871  0.0837  1.6030 -0.1070
  327MOL0     C43043   6.815   1.417   9.781 -0.1527  0.8003 -0.8514
  327MOL0     C43044   6.689   1.478   9.845  0.9989  0.9321  0.5188
  327MOL0     C43045   6.641   1.595   9.769  0.7226  0.3974  0.5921
  327MOL0     C43046   6.488   1.637   9.769  0.5668  0.7215  0.5394
  327MOL0     C43047   6.436   1.699   9.895  0.4293  0.9725  0.1342
  327MOL0     C43048   6.319   1.801   9.879 -0.1214 -0.1723 -0.4090
  327MOL0     N43049   6.219   1.755   9.777  0.4749 -0.6037 -0.5711
  327MOL0     C43050   6.137   1.654   9.801  0.6888 -0.2685  0.5251
  327MOL0     C43051   6.050   1.655   9.696 -0.0167  0.4879 -0.4171
  327MOL0     C43052   5.919   1.576   9.690  0.7226  1.0508 -1.2060
  327MOL0     C43053   5.825   1.662   9.778  0.0555 -0.4230  0.6364
  327MOL0     C43054   5.699   1.580   9.779  0.9956  0.4118 -0.8192
  327MOL0     C43055   5.606   1.603   9.649 -0.2436  0.1028 -0.2188
  327MOL0     O43056   5.470   1.612   9.666 -0.1335  0.0811 -0.1811
  327MOL0     C43057   5.389   1.501   9.661  0.4238 -0.6578 -0.1448
  327MOL0     C43058   5.257   1.530   9.702  0.5337  0.6018  0.4381
  327MOL0     C43059   5.160   1.429   9.691 -0.0325 -0.6679 -0.3256
  327MOL0     C43060   5.189   1.299   9.647 -0.7021  0.0099  0.5165
  327MOL0     C43061   5.085   1.194   9.632 -0.4237 -0.7814 -0.1682
  327MOL0     O43062   4.948   1.234   9.660 -1.0902  0.4656 -0.0133
  327MOL0     C43063   4.845   1.150   9.664 -0.9001 -0.1877  0.3775
  327MOL0     C43064   4.713   1.201   9.653 -0.2787  0.6379  0.1387
  327MOL0     C43065   4.600   1.127   9.653  0.4102 -0.3878  0.5606
  327MOL0     C43066   4.604   0.990   9.644 -0.6422 -0.4649 -0.2250
  327MOL0     O43067   4.496   0.906   9.619 -0.8036 -0.2517 -0.1307
  327MOL0     C43068   4.365   0.970   9.589 -0.4050  0.4981  0.0743
  327MOL0     C43069   4.290   1.010   9.717  0.5532  0.6564 -0.5346
  327MOL0     C43070   4.165   1.093   9.686  0.0268 -0.1664  0.8917
  327MOL0     C43071   4.126   1.180   9.805 -0.4789  0.4005  0.2539
  327MOL0     C43072   4.015   1.282   9.770 -0.4872 -0.9470  0.1920
  327MOL0     C43073   4.011   1.413   9.861 -0.1583  0.4016 -0.5910
  327MOL0     C43074   4.136   1.508   9.843  0.3534 -0.9775 -1.0290
  327MOL0     C43075   4.131   1.637   9.924 -0.5786  0.1441  0.9952
  327MOL0    Cl43076   4.013   1.744   9.862  0.1605 -0.2428 -0.1731
  327MOL0     C43077   4.733   0.929   9.653 -0.5164 -0.4675 -1.3088
  327MOL0     C43078   4.848   1.007   9.678 -0.8453  0.2491 -0.0956
  327MOL0     O43079   5.121   1.092   9.584  0.0098  0.6308  0.5940
  327MOL0     C43080   5.329   1.269   9.624 -0.1040 -1.1360  0.4844
  327MOL0     C43081   5.424   1.375   9.629 -0.5515  0.4279  0.5369
  327MOL0     N43082   6.105   1.745   9.604  0.2744  0.3102  0.2987
  327MOL0     N43083   6.201   1.808   9.649  0.4668  0.0812  0.1580
  327MOL0     C43084   6.910   0.898   9.714  0.0664  0.2133  0.1810
  327MOL0     C43085   6.973   0.774   9.689 -0.4451  0.6472  0.5947
  327MOL0     C43086   7.210   0.440   9.511  0.3840  0.2463 -0.5693
  327MOL0     C43087   7.174   0.340   9.417 -0.0011 -0.4631 -0.2031
  327MOL0     C43088   7.264   0.239   9.384 -0.3087  0.2210 -0.2290
  327MOL0     C43089   7.383   0.219   9.448 -0.2273  0.3731 -0.6604
  327MOL0     O43090   7.478   0.133   9.415  0.0005 -0.2893 -0.1572
  327MOL0     C43091   7.435   0.024   9.332 -0.2535 -1.0881  0.7468
  327MOL0     C43092   7.551  -0.061   9.288 -0.0453  0.2216  0.1181
  327MOL0     C43093   7.667  -0.068   9.395 -0.3726  0.4513  0.5331
  327MOL0     C43094   7.802  -0.143   9.357 -0.2570  1.0872  0.3520
  327MOL0     C43095   7.898  -0.134   9.477  0.2833 -0.7138 -0.2809
  327MOL0     C43096   7.979  -0.126   9.565  0.1599 -0.1753 -0.2250
  327MOL0     C43097   7.421   0.314   9.547 -1.1001  0.2177 -0.8978
  327MOL0     C43098   7.334   0.411   9.587  0.0424 -0.9867  0.2865
  327MOL0     H43099   7.261   0.888   9.567  0.6275 -0.9472  0.9608
  327MOL0     H43100   7.140   1.093   9.576  0.9675 -0.8467 -1.4112
  327MOL0     H43101   7.048   1.276   9.723 -1.0778 -3.4067 -1.0771
  327MOL0     H43102   7.043   1.171   9.861  2.5799  0.2811 -1.5802
  327MOL0     H43103   6.941   1.367   9.946 -0.4563  1.3008  0.5404
  327MOL0     H43104   6.813   1.254   9.931 -0.9767  1.1735 -1.6920
  327MOL0     H43105   6.775   1.363   9.694 -2.4359 -0.9142  1.1152
  327MOL0     H43106   6.900   1.481   9.755  1.1286 -0.2165  0.6686
  327MOL0     H43107   6.612   1.403   9.861  1.0402  0.6593 -0.5063
  327MOL0     H43108   6.703   1.518   9.946 -0.7676  0.1396  1.1057
  327MOL0     H43109   6.670   1.579   9.665 -2.3932  2.1170 -0.6959
  327MOL0     H43110   6.694   1.684   9.802 -1.4976  2.5679 -1.2966
  327MOL0     H43111   6.442   1.538   9.756  2.6002 -0.1451 -0.5020
  327MOL0     H43112   6.463   1.692   9.678  1.3651 -3.4167 -2.4808
  327MOL0     H43113   6.388   1.618   9.952  2.6845 -1.1645 -0.7944
  327MOL0     H43114   6.510   1.729   9.969 -4.1627  1.1694  5.2341
  327MOL0     H43115   6.361   1.888   9.828  2.2571 -1.4769 -0.8461
  327MOL0     H43116   6.265   1.831   9.969 -1.2512  1.8075 -1.6886
  327MOL0     H43117   6.139   1.608   9.899  2.2541 -0.6587  0.3335
  327MOL0     H43118   5.924   1.480   9.742 -2.7338  2.1547  1.5501
  327MOL0     H43119   5.882   1.561   9.588  0.7047  1.5455 -1.2750
  327MOL0     H43120   5.798   1.757   9.731 -0.0213 -1.3543 -1.3114
  327MOL0     H43121   5.865   1.675   9.879 -0.7080  1.7974  0.6942
  327MOL0     H43122   5.706   1.473   9.803 -1.0564  0.5880  0.7698
  327MOL0     H43123   5.633   1.619   9.856  1.4698  1.6953 -1.0430
  327MOL0     H43124   5.640   1.531   9.573 -1.7541  0.2058 -1.0267
  327MOL0     H43125   5.638   1.698   9.605  1.0875  0.6455  1.7940
  327MOL0     H43126   5.239   1.620   9.760 -1.1494 -0.3126  1.4167
  327MOL0     H43127   5.065   1.460   9.735  0.0151  0.3052 -0.8866
  327MOL0     H43128   4.718   1.309   9.645  0.9355  0.6067  0.2081
  327MOL0     H43129   4.504   1.173   9.632 -0.0689 -0.9130  1.5725
  327MOL0     H43130   4.310   0.891   9.537 -1.4588  0.5185  1.1068
  327MOL0     H43131   4.389   1.043   9.512  1.3713  0.4878  0.5634
  327MOL0     H43132   4.353   1.061   9.790  1.2558 -0.0304 -0.6534
  327MOL0     H43133   4.252   0.918   9.761  1.5439 -0.5321 -2.0694
  327MOL0     H43134   4.082   1.028   9.660  1.4045 -2.0814  1.0617
  327MOL0     H43135   4.191   1.161   9.603  1.0649 -2.1314 -0.4739
  327MOL0     H43136   4.079   1.119   9.884 -0.1741  1.7150  1.4792
  327MOL0     H43137   4.213   1.229   9.849 -1.1606  2.3357 -0.4372
  327MOL0     H43138   3.917   1.233   9.768 -1.1096  0.2549 -0.2690
  327MOL0     H43139   4.025   1.327   9.671 -0.2471  0.1137  0.6813
  327MOL0     H43140   4.023   1.378   9.964  2.5376  2.0957 -0.2377
  327MOL0     H43141   3.915   1.465   9.856 -0.2749  0.3922  0.9300
  327MOL0     H43142   4.233   1.471   9.877  0.9095 -0.0720 -1.6187
  327MOL0     H43143   4.156   1.538   9.740  0.0215 -3.0350 -1.7481
  327MOL0     H43144   4.229   1.682   9.909 -0.2330 -0.9310 -0.2593
  327MOL0     H43145   4.110   1.619  10.030 -4.3203 -2.8616 -0.0099
  327MOL0     H43146   4.740   0.821   9.645  2.3613 -0.6345  1.3617
  327MOL0     H43147   4.942   0.960   9.705 -0.8699  0.4966  0.4309
  327MOL0     H43148   5.373   1.174   9.596  2.4058  0.8832 -3.1708
  327MOL0     H43149   5.524   1.338   9.607 -0.6304 -0.7623  2.0190
  327MOL0     H43150   6.806   0.905   9.745  0.2786  3.9774  0.4025
  327MOL0     H43151   6.922   0.682   9.714 -0.4188  0.8581  1.4641
  327MOL0     H43152   7.082   0.350   9.361  1.0382 -0.2395 -1.9182
  327MOL0     H43153   7.220   0.165   9.319 -1.5957 -3.6361  4.4508
  327MOL0     H43154   7.382   0.057   9.242  0.6922 -2.6422 -0.4250
  327MOL0     H43155   7.359  -0.032   9.389 -1.2513 -0.7911 -0.2514
  327MOL0     H43156   7.521  -0.164   9.270  0.3727 -0.2282  1.8535
  327MOL0     H43157   7.591  -0.012   9.199 -0.6805  2.4975  1.0058
  327MOL0     H43158   7.636  -0.096   9.497  1.6533  2.9941  1.9686
  327MOL0     H43159   7.699   0.035   9.409 -0.9704  0.7438 -0.2302
  327MOL0     H43160   7.781  -0.248   9.332 -1.6198  1.4484 -0.0622
  327MOL0     H43161   7.844  -0.098   9.267 -2.1500 -0.3271 -1.3078
  327MOL0     H43162   8.050  -0.098   9.640  0.0678 -0.2443 -0.1122
  327MOL0     H43163   7.520   0.302   9.590 -1.0974 -0.7423 -1.1484
  327MOL0     H43164   7.369   0.482   9.662 -3.5411  0.9323  0.3861
  328MOL0     O43165   3.690   0.525   5.871 -0.5617  0.4635 -0.1408
  328MOL0     C43166   3.741   0.608   5.944  0.3412  0.7987 -0.3144
  328MOL0     O43167   3.775   0.738   5.918 -0.2565  0.2815 -0.0995
  328MOL0     C43168   3.722   0.793   5.805  0.3368  0.3734  0.6120
  328MOL0     C43169   3.812   0.830   5.703  0.1728  0.2268 -1.2504
  328MOL0     C43170   3.772   0.900   5.587 -0.0342  0.9282 -0.7698
  328MOL0     C43171   3.633   0.930   5.575 -0.6964 -0.0418 -0.1320
  328MOL0     O43172   3.596   0.990   5.455 -0.3382  0.9057 -1.1811
  328MOL0     C43173   3.462   1.006   5.433  0.0404 -0.8815  0.2664
  328MOL0     C43174   3.441   1.067   5.292  0.3860  0.1338 -0.5310
  328MOL0     C43175   3.403   1.219   5.297 -0.8580 -0.0665  1.0193
  328MOL0     C43176   3.503   1.323   5.346 -0.0042  0.3054  0.6632
  328MOL0     C43177   3.443   1.451   5.380  0.5121 -0.6324 -0.5293
  328MOL0     C43178   3.559   1.548   5.425 -0.4087  0.0335 -0.1015
  328MOL0     C43179   3.507   1.667   5.507  0.0443 -0.0046  0.0794
  328MOL0     C43180   3.410   1.763   5.425  0.1834  0.8124  0.1782
  328MOL0     N43181   3.383   1.894   5.492  0.3282  1.1183  0.3289
  328MOL0     C43182   3.288   1.921   5.592 -0.2637 -0.8127 -0.2437
  328MOL0     C43183   3.321   2.054   5.620  0.1271 -0.2974 -0.7778
  328MOL0     C43184   3.263   2.141   5.725 -0.3050  0.0252  0.6520
  328MOL0     C43185   3.107   2.160   5.707 -0.0774  0.4568 -0.5645
  328MOL0     C43186   3.053   2.263   5.808  0.9258  0.0517  0.3871
  328MOL0     C43187   3.099   2.406   5.787 -0.2189  0.3472  0.4200
  328MOL0     O43188   3.065   2.501   5.885  0.3145 -0.9234 -0.0172
  328MOL0     C43189   2.936   2.546   5.875 -1.3112  1.1961  0.0928
  328MOL0     C43190   2.902   2.632   5.981  0.4268  0.1738 -0.5985
  328MOL0     C43191   2.774   2.694   5.979  0.2211 -0.8610 -0.5690
  328MOL0     C43192   2.667   2.645   5.908  0.2810 -0.2687 -0.4147
  328MOL0     C43193   2.527   2.702   5.931 -0.9936 -0.2084 -0.3051
  328MOL0     O43194   2.428   2.644   5.854 -0.8659 -0.0837 -0.0438
  328MOL0     C43195   2.301   2.697   5.845 -0.1209 -0.6458  1.2913
  328MOL0     C43196   2.212   2.596   5.831  0.3004  0.1988 -0.4409
  328MOL0     C43197   2.078   2.627   5.799 -0.0995  1.6724  0.0775
  328MOL0     C43198   2.022   2.750   5.776  0.6524 -0.8095  1.0052
  328MOL0     O43199   1.885   2.769   5.748  0.1490 -0.3028  0.4292
  328MOL0     C43200   1.836   2.908   5.722  0.5390  0.8575  0.3103
  328MOL0     C43201   1.702   2.906   5.656  0.6840  0.4395 -0.0754
  328MOL0     C43202   1.586   2.844   5.744 -0.1316 -0.3915 -0.3093
  328MOL0     C43203   1.520   2.962   5.827 -0.8000  0.7858 -0.2957
  328MOL0     C43204   1.405   2.917   5.921 -0.8609 -0.0044  0.2563
  328MOL0     C43205   1.281   2.895   5.834  0.2363 -0.0473 -0.4533
  328MOL0     C43206   1.159   2.931   5.912 -0.1047 -0.2705 -1.3794
  328MOL0     C43207   1.047   2.930   5.819  0.2930  0.1531  0.3669
  328MOL0    Cl43208   0.899   2.980   5.904  0.0149  0.3743  0.8319
  328MOL0     C43209   2.117   2.861   5.791  0.1344  0.1290  0.5440
  328MOL0     C43210   2.252   2.831   5.836 -0.9051 -0.1972  1.0670
  328MOL0     O43211   2.509   2.776   6.026  0.3672 -0.8341  0.0001
  328MOL0     C43212   2.693   2.557   5.800  0.2417 -0.8332  0.6825
  328MOL0     C43213   2.826   2.504   5.785 -0.1807 -0.5362 -0.3423
  328MOL0     N43214   3.428   2.100   5.557  0.3835 -0.3957  0.1278
  328MOL0     N43215   3.458   2.000   5.479  0.2068 -0.3322  0.0740
  328MOL0     C43216   3.540   0.886   5.676  0.4155  0.5545  0.6306
  328MOL0     C43217   3.584   0.822   5.793  0.5561  0.4770  1.0350
  328MOL0     C43218   3.774   0.558   6.073 -0.5787  0.4651  0.8408
  328MOL0     C43219   3.756   0.637   6.186  0.8096  0.0773  0.5364
  328MOL0     C43220   3.787   0.590   6.313  0.4566  0.3418  0.2048
  328MOL0     C43221   3.839   0.464   6.334 -0.6878  0.1899  0.3980
  328MOL0     O43222   3.885   0.418   6.453 -0.1564 -0.6718  0.6747
  328MOL0     C43223   3.846   0.472   6.579  0.6853 -0.0946 -0.0719
  328MOL0     C43224   3.698   0.454   6.597  0.0997  0.8917 -0.0515
  328MOL0     C43225   3.648   0.355   6.707 -0.3407  0.0201  0.4967
  328MOL0     C43226   3.494   0.371   6.704  0.2783 -0.6797 -0.3705
  328MOL0     C43227   3.428   0.284   6.796 -0.5812 -0.5071 -0.2843
  328MOL0     C43228   3.350   0.219   6.864  0.0531 -0.3766  0.9966
  328MOL0     C43229   3.858   0.378   6.224  0.3106 -0.0447 -0.4001
  328MOL0     C43230   3.834   0.425   6.090  0.5304  0.1057  0.3975
  328MOL0     H43231   3.917   0.811   5.724 -0.3788 -0.1832  1.4896
  328MOL0     H43232   3.848   0.914   5.511  1.2510 -0.7380  0.1440
  328MOL0     H43233   3.410   1.064   5.510 -0.5961 -1.5388  0.3563
  328MOL0     H43234   3.396   0.919   5.420 -0.7717  0.1552 -3.7224
  328MOL0     H43235   3.368   1.002   5.241  2.9226 -2.6642 -0.8824
  328MOL0     H43236   3.533   1.069   5.234  1.5640 -1.1661  1.2120
  328MOL0     H43237   3.308   1.233   5.350 -0.8352 -2.0440  1.6433
  328MOL0     H43238   3.393   1.243   5.191  1.1334 -0.3664  0.7324
  328MOL0     H43239   3.553   1.280   5.433  1.8835 -2.9751 -1.7786
  328MOL0     H43240   3.587   1.339   5.278  0.4019  2.8598  1.6573
  328MOL0     H43241   3.380   1.427   5.465  1.6171 -0.1374  0.4599
  328MOL0     H43242   3.385   1.495   5.298  0.8008  0.6128 -0.0899
  328MOL0     H43243   3.610   1.580   5.334  1.5672  1.2712  1.3628
  328MOL0     H43244   3.636   1.484   5.470  0.0723  0.4737 -0.2896
  328MOL0     H43245   3.455   1.640   5.599  0.6951 -0.0535  0.4452
  328MOL0     H43246   3.592   1.729   5.537 -1.4924  1.2692  2.0061
  328MOL0     H43247   3.313   1.716   5.409 -0.2715  2.3135 -1.8519
  328MOL0     H43248   3.450   1.794   5.328 -0.3481  2.0279  0.3313
  328MOL0     H43249   3.201   1.868   5.631 -0.8460  0.8453  0.7950
  328MOL0     H43250   3.318   2.236   5.723 -1.2343  0.5691 -1.6122
  328MOL0     H43251   3.277   2.100   5.826  2.2387 -0.8920  0.0142
  328MOL0     H43252   3.057   2.066   5.735  1.4333 -0.0311  0.6182
  328MOL0     H43253   3.077   2.186   5.605 -2.0894  1.2413  0.1751
  328MOL0     H43254   2.946   2.254   5.824  0.9927  0.4129  1.0689
  328MOL0     H43255   3.095   2.235   5.905  0.7282 -0.6190  0.2835
  328MOL0     H43256   3.068   2.442   5.689 -0.0335  0.9353  0.5672
  328MOL0     H43257   3.208   2.409   5.779 -0.2300  1.3357  0.4343
  328MOL0     H43258   2.982   2.649   6.054  0.9935 -3.2485 -0.2218
  328MOL0     H43259   2.760   2.778   6.047  1.4660 -1.2945  0.2615
  328MOL0     H43260   2.242   2.495   5.857 -0.7305  0.4137  1.8293
  328MOL0     H43261   2.003   2.548   5.795  0.3324  1.2952 -0.9256
  328MOL0     H43262   1.910   2.976   5.679  0.2343  1.6678  1.0104
  328MOL0     H43263   1.817   2.949   5.822  1.0903 -3.1103  2.2396
  328MOL0     H43264   1.698   2.849   5.562 -1.4083 -0.1819  0.3303
  328MOL0     H43265   1.685   3.013   5.642 -1.7829  0.2121  0.5772
  328MOL0     H43266   1.631   2.767   5.807  1.0739  1.1412  0.7635
  328MOL0     H43267   1.504   2.799   5.686 -0.6650 -3.0967  2.3317
  328MOL0     H43268   1.600   3.006   5.888 -0.3265 -1.1545  0.5843
  328MOL0     H43269   1.494   3.041   5.756 -0.2766  2.2564  1.0821
  328MOL0     H43270   1.388   2.994   5.997  1.7266  0.1863  0.7143
  328MOL0     H43271   1.426   2.826   5.977  0.9072 -0.8092 -1.5917
  328MOL0     H43272   1.266   2.789   5.812  0.2262  0.1220 -1.3155
  328MOL0     H43273   1.303   2.961   5.750  0.7840  1.3021  0.7111
  328MOL0     H43274   1.142   2.870   6.001 -0.0738  3.4896  1.4598
  328MOL0     H43275   1.163   3.028   5.962  1.0526 -2.2715  2.9038
  328MOL0     H43276   1.037   2.834   5.766  1.5671 -0.0186  0.3930
  328MOL0     H43277   1.067   3.006   5.743  0.6776 -0.0067  0.3054
  328MOL0     H43278   2.087   2.965   5.782 -0.4338 -0.0976 -0.3622
  328MOL0     H43279   2.331   2.903   5.856  0.0418 -0.7080 -0.6293
  328MOL0     H43280   2.616   2.523   5.731 -0.0404 -3.4112  2.1535
  328MOL0     H43281   2.855   2.447   5.697  2.0032 -1.4154  0.8670
  328MOL0     H43282   3.435   0.916   5.669  0.5267  2.2250  4.0363
  328MOL0     H43283   3.524   0.780   5.873  0.0883 -0.3180  0.2809
  328MOL0     H43284   3.693   0.726   6.185  0.8832  0.1271 -0.3876
  328MOL0     H43285   3.766   0.667   6.386  3.1430  0.1743  1.2977
  328MOL0     H43286   3.863   0.580   6.591 -0.6290 -0.1386  3.4051
  328MOL0     H43287   3.908   0.431   6.660  1.0967 -0.4053 -0.5384
  328MOL0     H43288   3.638   0.543   6.617 -3.3603 -1.8180  2.9027
  328MOL0     H43289   3.653   0.413   6.505 -1.7038  0.0330  1.1566
  328MOL0     H43290   3.690   0.398   6.798 -0.6821 -0.5408  0.9253
  328MOL0     H43291   3.674   0.250   6.691 -0.1001  0.1903 -0.2994
  328MOL0     H43292   3.462   0.474   6.721  0.4034 -0.4602 -1.4167
  328MOL0     H43293   3.454   0.335   6.609  1.3838  0.4489 -1.2900
  328MOL0     H43294   3.286   0.159   6.926 -0.8405  1.9840  2.4684
  328MOL0     H43295   3.894   0.277   6.241  1.3984  0.8790  4.0634
  328MOL0     H43296   3.854   0.359   6.007 -3.6811 -2.2235  0.9342
  329MOL0     O43297  11.337   9.203  11.145  0.2582 -0.1081  0.2285
  329MOL0     C43298  11.377   9.204  11.028  0.4906 -0.4412  0.4405
  329MOL0     O43299  11.504   9.208  10.988  0.7347  0.2577  0.3826
  329MOL0     C43300  11.599   9.219  11.088 -0.2478 -0.4754  0.3941
  329MOL0     C43301  11.619   9.344  11.162 -0.0847  0.7981  1.4574
  329MOL0     C43302  11.722   9.355  11.254 -0.6007  0.4609 -0.0810
  329MOL0     C43303  11.812   9.248  11.266  0.4360 -0.5584  0.3586
  329MOL0     O43304  11.907   9.245  11.361 -0.8595  0.5370 -0.1608
  329MOL0     C43305  11.998   9.356  11.378 -0.1080  0.3788 -0.1907
  329MOL0     C43306  12.129   9.287  11.430 -0.4982  0.8787 -0.4107
  329MOL0     C43307  12.230   9.379  11.502 -0.3312  0.6506  0.0004
  329MOL0     C43308  12.377   9.324  11.513  0.7737  0.3796  0.3452
  329MOL0     C43309  12.467   9.390  11.630 -0.0234 -0.4142 -0.2934
  329MOL0     C43310  12.614   9.344  11.638 -0.2345 -0.4662  0.0127
  329MOL0     C43311  12.705   9.357  11.515  0.6792 -0.0921  0.5325
  329MOL0     C43312  12.722   9.499  11.453 -0.9150  0.4925  0.3155
  329MOL0     N43313  12.790   9.486  11.319  0.1253 -0.3166 -0.9730
  329MOL0     C43314  12.912   9.525  11.276 -0.5221  0.1022 -0.2246
  329MOL0     C43315  12.914   9.509  11.145  0.0721 -0.0530  0.2347
  329MOL0     C43316  13.017   9.548  11.036  0.3172  0.3550  0.3035
  329MOL0     C43317  13.024   9.443  10.916 -0.3515 -0.6976 -0.7267
  329MOL0     C43318  13.173   9.426  10.864  0.1157 -0.4508 -0.6947
  329MOL0     C43319  13.263   9.348  10.960 -0.1847 -0.3953 -0.4624
  329MOL0     O43320  13.402   9.382  10.936 -0.0862  1.0105  0.1449
  329MOL0     C43321  13.496   9.340  11.026 -0.3753  0.6292  1.2037
  329MOL0     C43322  13.474   9.234  11.119 -0.9582 -0.6220  0.4054
  329MOL0     C43323  13.582   9.193  11.196  0.4957 -0.4994 -0.7122
  329MOL0     C43324  13.705   9.263  11.203 -0.6089 -0.0919  1.1433
  329MOL0     C43325  13.821   9.228  11.291 -0.3557  0.1088  0.8265
  329MOL0     O43326  13.939   9.298  11.285  0.1058  0.0843  0.1098
  329MOL0     C43327  14.051   9.239  11.345 -0.2952 -0.8919 -0.3528
  329MOL0     C43328  14.157   9.207  11.265 -1.0697  0.2996 -0.3892
  329MOL0     C43329  14.282   9.154  11.314  0.4470 -0.9887  0.3348
  329MOL0     C43330  14.290   9.147  11.448 -0.4322 -0.0539 -0.3267
  329MOL0     O43331  14.398   9.084  11.505  0.6164 -0.3022 -0.5727
  329MOL0     C43332  14.511   9.046  11.443 -1.0243  0.0804  0.4252
  329MOL0     C43333  14.630   9.066  11.538  0.7092  0.4422  0.0442
  329MOL0     C43334  14.763   9.011  11.482  0.5736 -0.0995  0.0925
  329MOL0     C43335  14.873   9.033  11.592  0.1719  0.4784 -0.6766
  329MOL0     C43336  15.004   8.969  11.561  0.2771  0.7050 -0.7239
  329MOL0     C43337  15.066   9.005  11.431 -0.6798 -0.5694  0.4169
  329MOL0     C43338  15.202   8.937  11.399 -0.8434  0.5610  0.4761
  329MOL0     C43339  15.192   8.783  11.388 -0.1292 -0.4265 -0.6432
  329MOL0    Cl43340  15.086   8.739  11.240  0.0610 -0.5643  0.0620
  329MOL0     C43341  14.191   9.194  11.536  0.2601  0.2856  1.4413
  329MOL0     C43342  14.070   9.226  11.483  0.5650  0.4641  0.2050
  329MOL0     O43343  13.794   9.142  11.379 -0.0563 -0.3259  0.1248
  329MOL0     C43344  13.720   9.373  11.114  0.1304  0.5184 -0.6906
  329MOL0     C43345  13.618   9.397  11.021  0.0889 -1.0656  0.5836
  329MOL0     N43346  12.787   9.455  11.108  0.3021 -1.2811 -0.0625
  329MOL0     N43347  12.713   9.443  11.218 -0.9063 -0.2420  0.1527
  329MOL0     C43348  11.790   9.127  11.200  0.5606 -0.1464  0.3293
  329MOL0     C43349  11.687   9.116  11.114  0.4733 -0.2509  0.6763
  329MOL0     C43350  11.271   9.188  10.925 -0.9601 -0.6947  0.5441
  329MOL0     C43351  11.315   9.195  10.789 -0.1590  0.6191  1.1323
  329MOL0     C43352  11.212   9.189  10.686 -0.6524 -0.3042  0.2849
  329MOL0     C43353  11.075   9.186  10.720  0.0082 -0.2111 -0.2258
  329MOL0     O43354  10.982   9.184  10.618 -0.7319 -0.2092  0.2002
  329MOL0     C43355  10.850   9.150  10.655 -0.3953  0.5115  0.6100
  329MOL0     C43356  10.762   9.136  10.520  0.2423  0.0407 -0.6767
  329MOL0     C43357  10.768   9.265  10.434 -0.2536  0.4529  0.2940
  329MOL0     C43358  10.736   9.393  10.500  0.0768  0.2876  0.5094
  329MOL0     C43359  10.594   9.405  10.538 -0.1268  0.4138  0.7795
  329MOL0     C43360  10.488   9.409  10.602 -0.3897  0.9678 -0.3520
  329MOL0     C43361  11.037   9.172  10.859 -0.2608  0.9179 -0.5489
  329MOL0     C43362  11.140   9.175  10.957  1.0732  0.2467 -0.3022
  329MOL0     H43363  11.543   9.420  11.144  0.3591  0.8979 -0.1356
  329MOL0     H43364  11.734   9.439  11.321  0.3182  0.3763 -0.1230
  329MOL0     H43365  11.958   9.431  11.447 -0.8020  2.9084 -3.1577
  329MOL0     H43366  12.017   9.404  11.282  0.9325  0.7561  0.1947
  329MOL0     H43367  12.170   9.236  11.343 -4.4958  0.0279 -2.0072
  329MOL0     H43368  12.110   9.209  11.505 -3.1694  0.9225 -0.9533
  329MOL0     H43369  12.192   9.399  11.603 -2.6773 -0.2654 -0.6287
  329MOL0     H43370  12.238   9.472  11.446 -2.5750  0.5195 -0.6286
  329MOL0     H43371  12.373   9.217  11.538  1.1212  1.1082  4.1108
  329MOL0     H43372  12.421   9.337  11.413 -0.1324 -2.4933 -0.5236
  329MOL0     H43373  12.427   9.357  11.726  3.8466 -0.0211  1.6923
  329MOL0     H43374  12.456   9.499  11.631  0.7721 -0.3067 -1.2493
  329MOL0     H43375  12.600   9.241  11.672  0.1474 -0.9099 -1.1127
  329MOL0     H43376  12.662   9.398  11.720 -0.2622  1.9140 -1.4516
  329MOL0     H43377  12.806   9.331  11.551  0.4928 -3.9254 -1.3219
  329MOL0     H43378  12.682   9.279  11.443 -0.1949 -1.1610  1.9280
  329MOL0     H43379  12.769   9.569  11.523 -1.8615  1.4572 -0.0015
  329MOL0     H43380  12.620   9.531  11.430 -1.7902  0.6066  3.7597
  329MOL0     H43381  12.994   9.567  11.332 -1.4648  0.7034  0.7460
  329MOL0     H43382  13.110   9.565  11.092 -0.1303  0.6695  0.9597
  329MOL0     H43383  12.988   9.648  11.003  0.6243  0.9224  1.6826
  329MOL0     H43384  12.957   9.487  10.841  3.4380  1.0952 -3.3625
  329MOL0     H43385  12.987   9.347  10.951 -5.2247  0.1387 -2.7455
  329MOL0     H43386  13.173   9.389  10.762 -0.6886 -2.7252  0.0676
  329MOL0     H43387  13.223   9.524  10.857 -2.5080  1.0562  0.2903
  329MOL0     H43388  13.253   9.239  10.957  2.0318 -0.6587 -0.4273
  329MOL0     H43389  13.240   9.373  11.064  2.8050 -0.9415  0.4440
  329MOL0     H43390  13.380   9.182  11.134 -0.8642 -0.7736  0.4711
  329MOL0     H43391  13.579   9.118  11.274 -1.9299  2.2571  2.1285
  329MOL0     H43392  14.151   9.231  11.159  0.0589  0.6991 -0.3794
  329MOL0     H43393  14.346   9.116  11.234  2.8413  2.0414  0.6405
  329MOL0     H43394  14.517   9.104  11.350 -1.6103 -0.6040 -0.0403
  329MOL0     H43395  14.507   8.943  11.407  0.1206  0.2628 -0.2745
  329MOL0     H43396  14.603   9.023  11.635 -1.6195  1.2324 -0.1876
  329MOL0     H43397  14.643   9.173  11.558  0.8878  0.1715  1.4920
  329MOL0     H43398  14.791   9.070  11.394  1.6591  0.1212  0.5759
  329MOL0     H43399  14.756   8.912  11.436 -2.2758  1.1554 -2.5452
  329MOL0     H43400  14.893   9.140  11.603  0.0131  0.4954 -0.5402
  329MOL0     H43401  14.820   8.988  11.677  0.5191  1.5070  0.1081
  329MOL0     H43402  14.988   8.862  11.575 -1.3034  1.2332  2.1505
  329MOL0     H43403  15.070   9.007  11.639  2.7049  0.6841 -2.6239
  329MOL0     H43404  15.081   9.113  11.432 -0.6430 -0.5540  2.3566
  329MOL0     H43405  15.003   8.977  11.346  2.6587 -2.0718 -1.7765
  329MOL0     H43406  15.242   8.975  11.304  1.0059 -0.0745  0.9505
  329MOL0     H43407  15.274   8.954  11.480 -0.5131 -0.8327  0.4975
  329MOL0     H43408  15.136   8.735  11.470  0.4007  0.4515  0.2613
  329MOL0     H43409  15.290   8.737  11.375 -0.4135 -1.9082  1.8219
  329MOL0     H43410  14.201   9.201  11.644  0.0774  0.4765  1.4450
  329MOL0     H43411  13.986   9.245  11.550  2.3577 -3.7024  4.1850
  329MOL0     H43412  13.803   9.441  11.134 -0.7371  1.4990 -0.3256
  329MOL0     H43413  13.621   9.475  10.945 -0.2274 -0.8281  0.8141
  329MOL0     H43414  11.866   9.051  11.216  4.6062  3.2232 -1.1608
  329MOL0     H43415  11.669   9.026  11.056 -4.2290 -0.0885  1.4488
  329MOL0     H43416  11.420   9.198  10.762 -0.0885  1.7136  1.4771
  329MOL0     H43417  11.248   9.225  10.590  3.4153  0.6759  1.9503
  329MOL0     H43418  10.794   9.213  10.725 -1.0000  0.5378  0.1144
  329MOL0     H43419  10.860   9.055  10.709  4.6707  0.2847 -0.2460
  329MOL0     H43420  10.795   9.057  10.452  1.5717  0.7472 -0.8982
  329MOL0     H43421  10.662   9.112  10.557  1.5714 -0.4543  2.9128
  329MOL0     H43422  10.699   9.257  10.349 -1.6058 -1.9050  1.5060
  329MOL0     H43423  10.872   9.267  10.399 -1.2754  0.5803 -3.2055
  329MOL0     H43424  10.792   9.418  10.591 -0.8642  1.9949  0.6503
  329MOL0     H43425  10.745   9.477  10.432  1.3750 -1.2875 -1.3798
  329MOL0     H43426  10.394   9.404  10.654 -1.3597 -3.7304 -2.0968
  329MOL0     H43427  10.938   9.179  10.903  0.8090  2.1488  1.8481
  329MOL0     H43428  11.109   9.187  11.060  2.5525  1.1800  0.0641
  330MOL0     O43429   9.743   4.039   0.881  0.1984 -0.3910 -0.7302
  330MOL0     C43430   9.771   4.154   0.860  0.4324 -0.7598  0.7204
  330MOL0     O43431   9.683   4.258   0.844 -0.0360  0.3420 -0.3064
  330MOL0     C43432   9.542   4.234   0.839 -0.6397 -0.1228  0.5524
  330MOL0     C43433   9.488   4.134   0.758 -0.0247 -0.1821 -0.3665
  330MOL0     C43434   9.348   4.124   0.721  0.5944  0.2434  0.1814
  330MOL0     C43435   9.264   4.218   0.770  0.2736  0.3074 -0.1192
  330MOL0     O43436   9.124   4.216   0.758 -1.1077  0.4111 -0.1884
  330MOL0     C43437   9.066   4.081   0.736 -0.3507 -0.5613  0.0900
  330MOL0     C43438   8.929   4.098   0.782  0.0197  0.3951  0.3163
  330MOL0     C43439   8.849   3.960   0.780  0.5892 -0.9078 -0.9634
  330MOL0     C43440   8.711   3.977   0.854  0.1252 -0.2151  0.4649
  330MOL0     C43441   8.625   4.087   0.802  0.2317  0.4068 -0.7934
  330MOL0     C43442   8.487   4.100   0.876  0.3535 -0.0908 -0.4139
  330MOL0     C43443   8.398   3.985   0.852  1.0337 -0.9256 -0.0346
  330MOL0     C43444   8.295   3.963   0.965  0.1418 -0.0118 -0.4661
  330MOL0     N43445   8.195   3.863   0.933 -0.5957  0.9871  0.1643
  330MOL0     C43446   8.075   3.885   0.864 -0.1481  0.3786 -0.3399
  330MOL0     C43447   8.010   3.769   0.870  0.5740 -0.3589  0.4678
  330MOL0     C43448   7.888   3.740   0.794 -0.1577 -1.2564 -0.5038
  330MOL0     C43449   7.781   3.846   0.815  0.0462 -0.1687  0.1193
  330MOL0     C43450   7.763   3.870   0.975  0.2513  0.0733  0.0995
  330MOL0     C43451   7.716   3.749   1.060  0.2441  0.3674 -0.2642
  330MOL0     O43452   7.661   3.789   1.187 -0.2673  0.2390  0.0667
  330MOL0     C43453   7.528   3.757   1.206  0.9075  0.3359  0.7555
  330MOL0     C43454   7.427   3.847   1.150  0.2127 -0.3496 -0.1669
  330MOL0     C43455   7.291   3.810   1.145 -0.3067 -0.3136 -0.5037
  330MOL0     C43456   7.253   3.697   1.215  0.2342 -0.0009 -0.8562
  330MOL0     C43457   7.115   3.656   1.220  0.8844 -0.0855 -0.5460
  330MOL0     O43458   7.020   3.751   1.208 -0.2436  0.2469 -0.3378
  330MOL0     C43459   6.885   3.712   1.191 -0.1426 -0.6674 -0.1273
  330MOL0     C43460   6.844   3.671   1.068  0.5701  0.4018 -0.0453
  330MOL0     C43461   6.700   3.660   1.047  0.6771 -0.6127  0.1052
  330MOL0     C43462   6.602   3.686   1.149 -0.4181 -0.4718 -0.0723
  330MOL0     O43463   6.468   3.671   1.110  0.4404 -0.3002 -0.7635
  330MOL0     C43464   6.361   3.705   1.200 -0.5727  0.4352 -0.2500
  330MOL0     C43465   6.233   3.732   1.117 -0.3331  0.1135 -0.5950
  330MOL0     C43466   6.116   3.777   1.195  0.6493  0.5258  0.0403
  330MOL0     C43467   5.978   3.740   1.132  0.0356 -1.0455 -0.2012
  330MOL0     C43468   5.859   3.763   1.218  0.6798 -0.4811  0.0690
  330MOL0     C43469   5.827   3.661   1.329 -0.3629  0.2275 -0.2388
  330MOL0     C43470   5.718   3.704   1.417  0.2403 -0.3960  0.9074
  330MOL0     C43471   5.683   3.601   1.518  0.6836  0.4301  0.3450
  330MOL0    Cl43472   5.565   3.482   1.451  0.8593  0.0959 -0.2881
  330MOL0     C43473   6.651   3.735   1.270 -1.1533  0.5695  0.4257
  330MOL0     C43474   6.788   3.749   1.288 -0.2152  0.3418 -0.7402
  330MOL0     O43475   7.093   3.534   1.239 -0.6376 -0.0091 -0.4116
  330MOL0     C43476   7.348   3.615   1.264  0.2836  0.2652  0.7437
  330MOL0     C43477   7.483   3.642   1.265  0.5531  0.0088  0.0126
  330MOL0     N43478   8.083   3.685   0.946  0.2702  0.2215 -0.0435
  330MOL0     N43479   8.191   3.742   0.990  0.0471 -1.1900  0.1001
  330MOL0     C43480   9.323   4.327   0.841 -0.4439  0.5952  0.5498
  330MOL0     C43481   9.457   4.332   0.875  0.1465  0.8842  1.0056
  330MOL0     C43482   9.904   4.208   0.868 -0.4012  0.7910  0.0237
  330MOL0     C43483   9.945   4.325   0.804 -0.2301  0.9090 -0.7619
  330MOL0     C43484  10.080   4.369   0.814  0.2614 -0.1649 -0.8350
  330MOL0     C43485  10.173   4.299   0.893 -0.2629 -0.5661  0.8107
  330MOL0     O43486  10.311   4.340   0.912  1.0558  0.4237 -0.3602
  330MOL0     C43487  10.337   4.470   0.950 -0.8373 -0.6143 -0.1873
  330MOL0     C43488  10.482   4.512   0.924 -0.1923  0.8915 -0.9766
  330MOL0     C43489  10.505   4.642   0.994 -0.3635 -0.4271 -0.2415
  330MOL0     C43490  10.623   4.730   0.938  0.7581  0.7030 -0.1707
  330MOL0     C43491  10.742   4.646   0.947  0.1513  0.7214 -0.2795
  330MOL0     C43492  10.839   4.579   0.958  0.1811  0.5406  0.2121
  330MOL0     C43493  10.135   4.173   0.946  1.3628 -0.8849  0.2347
  330MOL0     C43494   9.998   4.129   0.933  0.0259 -0.0070 -0.8733
  330MOL0     H43495   9.551   4.061   0.708  2.0501  0.0455  1.7230
  330MOL0     H43496   9.320   4.041   0.657  2.4093 -0.1605 -0.1442
  330MOL0     H43497   9.120   4.013   0.803  2.5733  2.3099  0.8897
  330MOL0     H43498   9.076   4.052   0.631  0.7682 -0.7737  0.2429
  330MOL0     H43499   8.892   4.180   0.720  0.5750  1.8371  1.8019
  330MOL0     H43500   8.924   4.134   0.885  1.1828  2.2303 -0.2307
  330MOL0     H43501   8.907   3.881   0.830 -1.5265 -1.3677  0.9250
  330MOL0     H43502   8.815   3.936   0.679 -1.2299 -0.7291 -0.4206
  330MOL0     H43503   8.665   3.878   0.851 -1.6634  0.5874 -2.5258
  330MOL0     H43504   8.746   4.011   0.952 -1.4062  0.2616  0.8777
  330MOL0     H43505   8.599   4.074   0.697  0.2313  0.3478 -0.7863
  330MOL0     H43506   8.676   4.181   0.825  1.4103 -0.6895  1.3079
  330MOL0     H43507   8.432   4.185   0.835 -1.7817 -1.3152 -0.2227
  330MOL0     H43508   8.495   4.119   0.984 -2.4268  2.1866 -0.5120
  330MOL0     H43509   8.345   4.004   0.758  1.6844  0.8234 -0.0783
  330MOL0     H43510   8.455   3.894   0.831  0.8270 -1.2671  0.8350
  330MOL0     H43511   8.240   4.055   0.988  2.2510  0.3306  4.5816
  330MOL0     H43512   8.354   3.934   1.052  2.2254  0.9012 -1.4993
  330MOL0     H43513   8.037   3.973   0.813  0.9687  2.1088  1.6501
  330MOL0     H43514   7.855   3.638   0.816 -0.2377 -2.0854 -3.8568
  330MOL0     H43515   7.920   3.751   0.690  2.3843 -0.0266  0.3182
  330MOL0     H43516   7.683   3.819   0.774 -0.4026  0.1566  0.9740
  330MOL0     H43517   7.802   3.941   0.765  0.0634 -0.6658 -0.8521
  330MOL0     H43518   7.846   3.915   1.030 -2.7317  0.7605  4.6102
  330MOL0     H43519   7.683   3.944   0.978  0.4409  0.2592  0.6200
  330MOL0     H43520   7.797   3.679   1.080 -0.1824 -0.7356 -2.1967
  330MOL0     H43521   7.643   3.687   1.008 -0.1874 -0.2062  0.9772
  330MOL0     H43522   7.445   3.941   1.099 -0.7798 -0.6043 -1.0091
  330MOL0     H43523   7.214   3.871   1.099  0.0422  2.0245  1.7237
  330MOL0     H43524   6.924   3.635   1.004  1.2363  1.0431  0.4041
  330MOL0     H43525   6.672   3.614   0.953 -0.7029 -0.0780  0.2375
  330MOL0     H43526   6.398   3.791   1.255  1.2093 -0.4959  0.0951
  330MOL0     H43527   6.343   3.623   1.270  1.7064 -1.1216 -1.3420
  330MOL0     H43528   6.203   3.642   1.062  0.4507 -0.6678  0.2208
  330MOL0     H43529   6.257   3.805   1.039 -2.2210 -0.1159 -1.4517
  330MOL0     H43530   6.127   3.879   1.231 -1.4239 -0.2594  3.3665
  330MOL0     H43531   6.128   3.721   1.289  1.4211 -0.0168 -0.3674
  330MOL0     H43532   5.969   3.813   1.051 -0.6116 -0.3223  0.5140
  330MOL0     H43533   5.985   3.633   1.106 -0.5510 -1.0749 -0.2455
  330MOL0     H43534   5.778   3.754   1.144  0.4780  5.6164 -0.9396
  330MOL0     H43535   5.854   3.864   1.257  1.9056 -0.2019 -0.4483
  330MOL0     H43536   5.924   3.650   1.379  0.9723  1.2714 -2.4412
  330MOL0     H43537   5.799   3.561   1.296  0.8746  0.1384 -1.0731
  330MOL0     H43538   5.745   3.795   1.472  3.1995 -0.3107 -0.4720
  330MOL0     H43539   5.627   3.727   1.361 -0.6722  0.7604  2.7676
  330MOL0     H43540   5.636   3.644   1.607 -0.0719  3.3787 -1.3350
  330MOL0     H43541   5.778   3.550   1.537 -0.9019 -3.1088 -0.5937
  330MOL0     H43542   6.592   3.772   1.353  0.1130 -1.2961  2.2596
  330MOL0     H43543   6.818   3.781   1.388 -2.6009 -2.0115  0.8865
  330MOL0     H43544   7.312   3.522   1.306  1.1668 -0.2540  0.3721
  330MOL0     H43545   7.543   3.564   1.312  0.0473  1.1418  2.7524
  330MOL0     H43546   9.260   4.411   0.869  1.1178  1.7610  0.7053
  330MOL0     H43547   9.496   4.419   0.928 -2.1193  0.9620  2.7011
  330MOL0     H43548   9.874   4.381   0.744  0.4113  2.0065 -0.5278
  330MOL0     H43549  10.106   4.462   0.764  2.3653  0.4291  1.1969
  330MOL0     H43550  10.313   4.484   1.056  0.6192  0.4879  0.0258
  330MOL0     H43551  10.283   4.542   0.887  2.0775 -0.4848 -2.7672
  330MOL0     H43552  10.535   4.432   0.975 -3.4112 -0.8487 -0.0699
  330MOL0     H43553  10.505   4.527   0.818 -0.3131 -1.7175 -1.4204
  330MOL0     H43554  10.515   4.616   1.100  0.1436 -1.0435 -0.4340
  330MOL0     H43555  10.420   4.710   0.984  1.5362  1.9439 -1.3180
  330MOL0     H43556  10.598   4.769   0.839 -0.0177  2.6824  0.7462
  330MOL0     H43557  10.629   4.813   1.009  2.7661 -0.2492  0.8536
  330MOL0     H43558  10.935   4.532   0.967  0.1624  0.5042  0.2221
  330MOL0     H43559  10.200   4.110   1.004  0.9669 -1.0934  0.4544
  330MOL0     H43560   9.972   4.039   0.989  3.0523  0.6648  1.8922
  331MOL0     O43561   8.670   8.014   2.698 -0.5210 -0.0457 -0.6876
  331MOL0     C43562   8.723   7.913   2.740 -0.7613  0.0599 -0.0307
  331MOL0     O43563   8.656   7.792   2.784  0.6523  0.1439 -0.7460
  331MOL0     C43564   8.517   7.796   2.770 -0.0948 -0.2591  0.7098
  331MOL0     C43565   8.467   7.753   2.645  0.4755  0.7172  0.0567
  331MOL0     C43566   8.327   7.738   2.618  0.0067  0.3789  0.0502
  331MOL0     C43567   8.234   7.762   2.716 -0.1391 -0.1933 -0.2395
  331MOL0     O43568   8.105   7.746   2.686  0.2429  0.1654 -0.4783
  331MOL0     C43569   7.999   7.796   2.775  0.7314  0.1860 -0.9996
  331MOL0     C43570   7.883   7.830   2.683 -0.6096 -0.0630  0.6502
  331MOL0     C43571   7.764   7.880   2.759  0.6844 -0.4491 -0.0236
  331MOL0     C43572   7.659   7.938   2.667 -0.3074  0.4037  1.2420
  331MOL0     C43573   7.525   7.971   2.730 -0.1060 -1.2265 -0.4641
  331MOL0     C43574   7.408   8.024   2.645  1.0368 -0.8174 -0.6145
  331MOL0     C43575   7.393   7.961   2.508  0.2044  0.1744  0.3551
  331MOL0     C43576   7.264   7.989   2.425 -0.5607  0.3860 -0.6640
  331MOL0     N43577   7.143   7.937   2.474  0.3911  0.1947 -0.0583
  331MOL0     C43578   7.102   7.801   2.471 -0.4125  0.4400 -1.3930
  331MOL0     C43579   6.980   7.802   2.524 -0.8180 -0.6273 -0.6562
  331MOL0     C43580   6.885   7.688   2.530  0.3271  0.4497 -0.2946
  331MOL0     C43581   6.905   7.612   2.654 -0.9926  0.1190 -0.8314
  331MOL0     C43582   6.894   7.456   2.623  0.1092 -0.4918 -0.7219
  331MOL0     C43583   6.748   7.429   2.585  0.0348  0.0852  0.5999
  331MOL0     O43584   6.670   7.474   2.693 -0.7184 -0.0050  0.5978
  331MOL0     C43585   6.542   7.484   2.662  1.6620 -1.3278  0.5571
  331MOL0     C43586   6.490   7.554   2.547 -0.0792  0.7541  0.0515
  331MOL0     C43587   6.352   7.564   2.537 -0.1182  0.2347 -0.2043
  331MOL0     C43588   6.269   7.503   2.632  0.5587 -0.7005 -0.4375
  331MOL0     C43589   6.127   7.508   2.607  0.0871 -0.0854  0.1070
  331MOL0     O43590   6.051   7.494   2.722  0.2628  0.0462  0.5885
  331MOL0     C43591   5.914   7.532   2.719 -0.2700 -0.1513  0.4478
  331MOL0     C43592   5.840   7.487   2.827 -0.2866  0.9638 -0.3033
  331MOL0     C43593   5.702   7.504   2.826  0.3761  0.8190 -0.3558
  331MOL0     C43594   5.623   7.558   2.720 -0.2320 -0.0141 -0.7582
  331MOL0     O43595   5.495   7.578   2.724  0.6809 -0.7995  0.3524
  331MOL0     C43596   5.408   7.476   2.768 -0.3948 -0.2039  0.2032
  331MOL0     C43597   5.275   7.518   2.841 -0.1542 -0.9201 -0.8825
  331MOL0     C43598   5.298   7.604   2.974  0.1170  0.5443  0.3411
  331MOL0     C43599   5.166   7.672   3.022 -0.3422 -0.3695 -0.0404
  331MOL0     C43600   5.175   7.690   3.170 -1.2302 -0.3748 -0.1033
  331MOL0     C43601   5.064   7.786   3.223 -0.3286  0.8631 -0.3806
  331MOL0     C43602   5.023   7.766   3.365 -0.0821  0.6045  0.6614
  331MOL0     C43603   5.146   7.761   3.443 -0.0417  0.2137  0.0352
  331MOL0    Cl43604   5.097   7.783   3.608 -0.0305 -0.2176 -0.4576
  331MOL0     C43605   5.702   7.610   2.625  0.0248 -0.8138  1.1564
  331MOL0     C43606   5.844   7.608   2.624 -0.7709 -0.4141  0.7496
  331MOL0     O43607   6.087   7.481   2.499  0.0929  0.6673 -0.1744
  331MOL0     C43608   6.319   7.436   2.739 -0.5440 -0.8744 -0.2950
  331MOL0     C43609   6.454   7.429   2.752 -0.3903  0.2052  0.1028
  331MOL0     N43610   6.943   7.934   2.555 -1.3986 -0.5516  0.3510
  331MOL0     N43611   7.045   8.017   2.521  0.4681 -0.0476  0.1104
  331MOL0     C43612   8.277   7.811   2.844  0.8487  1.3887 -0.4602
  331MOL0     C43613   8.420   7.825   2.868  1.0672  0.3595 -0.2150
  331MOL0     C43614   8.870   7.929   2.752  0.4334  0.3534 -0.2945
  331MOL0     C43615   8.936   8.038   2.700 -0.3816 -0.0869 -0.4934
  331MOL0     C43616   9.076   8.048   2.703 -0.3765 -0.7926 -0.1152
  331MOL0     C43617   9.153   7.946   2.740 -0.5474 -0.7919 -1.0548
  331MOL0     O43618   9.289   7.952   2.741  0.6270 -0.8871  0.3993
  331MOL0     C43619   9.371   7.838   2.735 -0.4675  0.4973  0.1024
  331MOL0     C43620   9.525   7.884   2.721  0.4203  0.0039 -0.3915
  331MOL0     C43621   9.589   7.796   2.616 -0.4583  0.4353  0.1891
  331MOL0     C43622   9.728   7.863   2.569 -0.7271  0.3156 -0.2399
  331MOL0     C43623   9.703   7.974   2.482  0.1322  0.1810 -0.6779
  331MOL0     C43624   9.690   8.066   2.402  0.0366  0.7254  0.7002
  331MOL0     C43625   9.086   7.832   2.792 -0.9778 -0.8088 -0.2658
  331MOL0     C43626   8.950   7.820   2.798  0.2655  0.5248  0.1542
  331MOL0     H43627   8.535   7.737   2.562  1.6750  2.5744  0.6166
  331MOL0     H43628   8.294   7.704   2.520  0.1693  1.4559 -0.3908
  331MOL0     H43629   8.026   7.894   2.815 -4.0085  1.3458  0.0161
  331MOL0     H43630   7.981   7.738   2.867  2.9611 -1.9276 -1.7826
  331MOL0     H43631   7.839   7.743   2.632 -3.8876  1.2673  0.9794
  331MOL0     H43632   7.925   7.899   2.609  2.3924 -1.3822  0.9457
  331MOL0     H43633   7.803   7.951   2.832  0.9787 -1.2716  0.6385
  331MOL0     H43634   7.720   7.789   2.800  2.8708 -1.8430 -0.5885
  331MOL0     H43635   7.693   8.024   2.608 -2.0933  0.4623  0.2106
  331MOL0     H43636   7.638   7.871   2.583  0.3790  1.8394 -0.1300
  331MOL0     H43637   7.550   8.048   2.804 -0.5815 -3.4427  2.1663
  331MOL0     H43638   7.486   7.886   2.787 -1.4333 -1.5699 -1.8281
  331MOL0     H43639   7.413   8.133   2.633  0.9602 -0.5709  1.1992
  331MOL0     H43640   7.316   8.003   2.701  2.9541 -2.8496  2.0376
  331MOL0     H43641   7.482   7.986   2.451  0.6870  3.0539  2.1909
  331MOL0     H43642   7.396   7.852   2.518 -1.9058  0.0218 -0.1488
  331MOL0     H43643   7.270   7.942   2.326 -0.1049 -0.0655 -0.4293
  331MOL0     H43644   7.266   8.098   2.419  1.4121  0.4681  0.4838
  331MOL0     H43645   7.164   7.720   2.433 -0.3753 -0.0258 -0.3756
  331MOL0     H43646   6.903   7.616   2.451 -0.6285 -0.9625  0.7273
  331MOL0     H43647   6.778   7.712   2.526 -0.2133 -1.6479  0.4166
  331MOL0     H43648   6.831   7.647   2.726 -2.8586 -0.8015 -2.1923
  331MOL0     H43649   7.008   7.636   2.680 -2.0288  4.0315  0.3556
  331MOL0     H43650   6.968   7.425   2.549  0.7798  0.9094 -0.6665
  331MOL0     H43651   6.918   7.403   2.715  0.1672  0.4782 -0.1715
  331MOL0     H43652   6.729   7.325   2.557  0.9710 -0.3891  1.6432
  331MOL0     H43653   6.725   7.484   2.494 -0.8187 -0.0022  0.7539
  331MOL0     H43654   6.560   7.608   2.483 -1.0425 -0.2102 -1.9006
  331MOL0     H43655   6.292   7.610   2.459 -1.4680  0.2398  0.8049
  331MOL0     H43656   5.890   7.431   2.906 -0.0190  0.8794 -0.5332
  331MOL0     H43657   5.646   7.466   2.910 -0.5684 -0.2297 -1.4168
  331MOL0     H43658   5.458   7.394   2.819 -1.6266 -0.6976  0.6570
  331MOL0     H43659   5.368   7.439   2.673  1.5080  1.8717 -1.5157
  331MOL0     H43660   5.204   7.437   2.860  0.3264 -1.4484 -1.3079
  331MOL0     H43661   5.225   7.592   2.777 -0.7600 -1.7266 -1.3634
  331MOL0     H43662   5.373   7.679   2.948  1.5359 -0.6903  0.7600
  331MOL0     H43663   5.335   7.544   3.057 -3.0853 -3.5210 -0.8399
  331MOL0     H43664   5.158   7.775   2.985 -2.2656  0.0244  1.3275
  331MOL0     H43665   5.078   7.625   2.975 -0.4198 -1.2593  0.9535
  331MOL0     H43666   5.276   7.728   3.187 -2.0162  1.5814  0.3872
  331MOL0     H43667   5.168   7.591   3.218  0.3468 -0.1093  0.7334
  331MOL0     H43668   4.972   7.773   3.165 -2.4955  1.9977  2.5078
  331MOL0     H43669   5.101   7.886   3.198 -0.3649  0.1239 -3.8502
  331MOL0     H43670   4.952   7.844   3.394  1.0923  1.5295  1.1697
  331MOL0     H43671   4.968   7.673   3.380  0.3900  0.3986  1.1902
  331MOL0     H43672   5.213   7.847   3.430 -1.8964  2.0566  1.8496
  331MOL0     H43673   5.199   7.667   3.428 -0.3031 -0.2554  1.8907
  331MOL0     H43674   5.652   7.667   2.547  1.5856 -0.6883  0.2134
  331MOL0     H43675   5.901   7.650   2.541 -0.4366  3.3112  2.6560
  331MOL0     H43676   6.252   7.388   2.809  0.7794 -2.2205  0.0988
  331MOL0     H43677   6.505   7.368   2.826 -0.1376 -1.3859 -1.3252
  331MOL0     H43678   8.204   7.839   2.919  0.6215  1.1567 -0.5912
  331MOL0     H43679   8.464   7.861   2.960  1.5138  0.7489 -0.5762
  331MOL0     H43680   8.884   8.131   2.680  0.9614  0.9640  0.6669
  331MOL0     H43681   9.118   8.138   2.661  0.0665 -1.0863 -0.3097
  331MOL0     H43682   9.333   7.768   2.660  0.7230 -0.3996  0.2938
  331MOL0     H43683   9.360   7.775   2.824  0.2170 -2.5490 -1.8341
  331MOL0     H43684   9.530   7.990   2.694  3.1063 -0.1316 -0.6850
  331MOL0     H43685   9.586   7.871   2.810  2.0278  1.0359 -1.2990
  331MOL0     H43686   9.520   7.762   2.538 -1.5341 -0.5423  1.5031
  331MOL0     H43687   9.620   7.700   2.660  0.0623  1.6641  2.6697
  331MOL0     H43688   9.789   7.902   2.650  1.0353 -1.5306 -0.6084
  331MOL0     H43689   9.797   7.795   2.519  0.0710 -0.0715  1.3259
  331MOL0     H43690   9.675   8.152   2.340  1.7341  2.0772  2.0447
  331MOL0     H43691   9.139   7.746   2.831  4.5581  1.8200 -1.0071
  331MOL0     H43692   8.914   7.718   2.808  1.7860 -0.3578 -2.4070
  332MOL0     O43693   1.811   1.891   5.952 -0.4846 -0.2956 -0.4297
  332MOL0     C43694   1.738   1.934   5.863  0.0422  0.2572 -0.4137
  332MOL0     O43695   1.778   1.973   5.741 -0.0161  0.2402  0.8156
  332MOL0     C43696   1.911   1.948   5.714 -0.6579  0.2893  0.2341
  332MOL0     C43697   1.971   1.821   5.690 -0.0217  0.8934  0.7143
  332MOL0     C43698   2.108   1.811   5.678 -0.6121 -0.3578  0.5924
  332MOL0     C43699   2.196   1.922   5.686 -0.4764  0.1283 -0.1878
  332MOL0     O43700   2.335   1.916   5.681 -0.5094  1.0497 -0.1122
  332MOL0     C43701   2.403   1.788   5.649 -0.0666 -0.3140 -0.1202
  332MOL0     C43702   2.559   1.812   5.633  0.4277 -0.7156 -0.2924
  332MOL0     C43703   2.630   1.677   5.662 -0.4110 -0.1100 -0.3194
  332MOL0     C43704   2.780   1.675   5.612  0.5967 -0.8367  1.0578
  332MOL0     C43705   2.834   1.535   5.625 -1.1729 -0.0144  0.1812
  332MOL0     C43706   2.973   1.516   5.555  0.4026 -0.7555 -0.1976
  332MOL0     C43707   3.035   1.375   5.582  0.2438  0.1564  0.3319
  332MOL0     C43708   3.100   1.364   5.725 -0.6065  0.7051  0.4409
  332MOL0     N43709   3.147   1.234   5.745 -0.0471  0.6959  0.4348
  332MOL0     C43710   3.076   1.119   5.769  1.3424 -0.1813 -0.0239
  332MOL0     C43711   3.165   1.022   5.797 -0.6974 -0.7350  0.5141
  332MOL0     C43712   3.126   0.875   5.818  0.2047  1.1880 -0.4688
  332MOL0     C43713   3.218   0.810   5.921 -0.1221  0.6053 -0.6079
  332MOL0     C43714   3.206   0.661   5.906  0.2331 -0.1913  0.4788
  332MOL0     C43715   3.327   0.579   5.962 -0.3703  0.5149 -0.6920
  332MOL0     O43716   3.278   0.448   5.992  0.1194 -0.8488  0.1096
  332MOL0     C43717   3.360   0.385   6.079  0.9277  0.6128 -0.0345
  332MOL0     C43718   3.477   0.323   6.036  0.2930  0.0674  0.8321
  332MOL0     C43719   3.546   0.251   6.124 -0.3806 -0.2127 -0.5519
  332MOL0     C43720   3.499   0.214   6.248 -0.1090  0.3748  0.2444
  332MOL0     C43721   3.580   0.132   6.344  0.5698 -0.4739  0.4566
  332MOL0     O43722   3.675   0.058   6.290 -0.5489  0.1464  0.1029
  332MOL0     C43723   3.728  -0.042   6.363 -1.0092 -0.1348 -0.2336
  332MOL0     C43724   3.808  -0.009   6.470  0.4005  0.2264 -0.5572
  332MOL0     C43725   3.864  -0.114   6.547 -0.8970 -0.2059  1.0192
  332MOL0     C43726   3.842  -0.244   6.522 -0.2957  0.4920  0.1513
  332MOL0     O43727   3.896  -0.334   6.602  1.1864  0.4493 -0.2921
  332MOL0     C43728   3.881  -0.338   6.749  0.5264 -0.0610  0.2914
  332MOL0     C43729   3.927  -0.468   6.813 -0.5290  0.6079 -0.2612
  332MOL0     C43730   4.074  -0.489   6.810 -0.1339  0.5818  0.8620
  332MOL0     C43731   4.098  -0.643   6.797 -0.2379  0.1691 -0.0190
  332MOL0     C43732   4.248  -0.682   6.793 -0.0673  0.0205 -0.8437
  332MOL0     C43733   4.328  -0.622   6.679  0.0467 -0.4001  0.5087
  332MOL0     C43734   4.306  -0.702   6.540  0.9074  0.6155 -0.4159
  332MOL0     C43735   4.268  -0.614   6.413  0.4310 -0.6000  0.2960
  332MOL0    Cl43736   4.286  -0.720   6.270 -0.4791  0.0798 -0.4405
  332MOL0     C43737   3.757  -0.288   6.413  0.8872 -0.3671  0.8017
  332MOL0     C43738   3.701  -0.182   6.334 -0.2272 -0.4704  0.4767
  332MOL0     O43739   3.533   0.114   6.454 -0.1100  0.4785  0.2593
  332MOL0     C43740   3.374   0.265   6.292  0.1428  0.0063 -0.7503
  332MOL0     C43741   3.301   0.347   6.204 -0.1740  0.6311 -0.0535
  332MOL0     N43742   3.286   1.075   5.796 -0.5907 -0.5758 -0.5426
  332MOL0     N43743   3.283   1.207   5.763  0.4371  0.8439 -0.2084
  332MOL0     C43744   2.143   2.048   5.697  0.0256  0.6151  0.4617
  332MOL0     C43745   2.001   2.056   5.718  0.4931 -0.5524 -0.0977
  332MOL0     C43746   1.595   1.938   5.911  0.0502 -0.2455  0.3191
  332MOL0     C43747   1.505   2.010   5.822 -0.1100 -0.1720 -0.6836
  332MOL0     C43748   1.371   2.016   5.864 -0.0318  0.4799 -0.7096
  332MOL0     C43749   1.330   1.976   5.990 -0.0379  0.1348  0.8189
  332MOL0     O43750   1.209   2.005   6.036 -0.1956 -0.0876  0.0504
  332MOL0     C43751   1.208   2.135   6.106  0.0778  0.1955  0.3782
  332MOL0     C43752   1.278   2.255   6.035 -1.1450  0.2202  0.2239
  332MOL0     C43753   1.237   2.381   6.098  0.0716  0.4769  0.3477
  332MOL0     C43754   1.269   2.505   6.001 -1.2443  0.1402 -0.8077
  332MOL0     C43755   1.167   2.517   5.902 -0.8060 -0.2624 -0.6083
  332MOL0     C43756   1.076   2.523   5.821  0.4925 -0.1831 -0.1895
  332MOL0     C43757   1.417   1.908   6.070  0.2715 -0.0904  0.0243
  332MOL0     C43758   1.549   1.881   6.034 -0.5492  0.0110  0.6490
  332MOL0     H43759   1.906   1.734   5.698 -1.3140  1.9549  2.7361
  332MOL0     H43760   2.145   1.709   5.672 -2.6219 -1.1970  1.3211
  332MOL0     H43761   2.364   1.730   5.565  3.1744 -0.9459 -1.2992
  332MOL0     H43762   2.389   1.729   5.740 -1.1237 -0.4541 -0.3619
  332MOL0     H43763   2.581   1.895   5.701 -3.2668 -0.7635  1.1988
  332MOL0     H43764   2.596   1.840   5.534  0.9234 -3.2411 -0.8838
  332MOL0     H43765   2.579   1.589   5.621  2.0406 -2.3245  1.0018
  332MOL0     H43766   2.635   1.642   5.766  0.0514  0.8103 -0.0239
  332MOL0     H43767   2.769   1.709   5.509 -0.7279  0.4753  1.6061
  332MOL0     H43768   2.851   1.740   5.664  0.7480 -1.1154  1.2065
  332MOL0     H43769   2.755   1.472   5.585 -2.2794  0.9250  0.8146
  332MOL0     H43770   2.841   1.510   5.731 -2.0744 -1.9295 -0.1639
  332MOL0     H43771   3.044   1.599   5.564  0.3297 -0.7549  0.4049
  332MOL0     H43772   2.958   1.525   5.447  1.7225  0.2516 -0.3213
  332MOL0     H43773   2.962   1.293   5.573 -0.1741  0.4806  0.7166
  332MOL0     H43774   3.112   1.360   5.506 -1.4552 -0.8098 -1.3039
  332MOL0     H43775   3.041   1.392   5.813  1.7475  0.2856  2.2382
  332MOL0     H43776   3.188   1.430   5.726 -0.1166  0.1928 -2.1418
  332MOL0     H43777   2.968   1.108   5.762  1.5427 -1.0967 -3.7903
  332MOL0     H43778   3.125   0.819   5.724 -1.6098  1.8273 -0.8752
  332MOL0     H43779   3.026   0.869   5.861  0.4254  0.3467 -0.0471
  332MOL0     H43780   3.183   0.831   6.022 -0.0059 -1.2982 -0.1518
  332MOL0     H43781   3.317   0.849   5.894 -1.4207  2.5845 -2.9054
  332MOL0     H43782   3.110   0.617   5.934  0.6424 -1.4172  0.0173
  332MOL0     H43783   3.234   0.652   5.800  3.0825  1.5609  0.9509
  332MOL0     H43784   3.357   0.623   6.057 -0.3407 -2.6868  0.9254
  332MOL0     H43785   3.421   0.566   5.907  2.2010  0.3946  3.3092
  332MOL0     H43786   3.517   0.333   5.936 -0.8943 -0.0925  0.3255
  332MOL0     H43787   3.638   0.208   6.085  0.8051  0.3721  1.4382
  332MOL0     H43788   3.827   0.093   6.503 -2.6701  0.7075  0.0900
  332MOL0     H43789   3.935  -0.095   6.627 -0.0320  0.6282  0.0854
  332MOL0     H43790   3.772  -0.334   6.762  0.6272 -0.2805  1.2884
  332MOL0     H43791   3.926  -0.253   6.801 -1.4256  0.2725  1.5462
  332MOL0     H43792   3.876  -0.555   6.770  0.2368 -0.5647  1.0775
  332MOL0     H43793   3.893  -0.472   6.917  1.0061  0.1988  0.2423
  332MOL0     H43794   4.120  -0.444   6.899  2.1617 -1.3436  0.7463
  332MOL0     H43795   4.117  -0.448   6.717  0.8522 -2.1773  0.0106
  332MOL0     H43796   4.056  -0.683   6.890  0.2201  3.2938  1.6858
  332MOL0     H43797   4.048  -0.686   6.710 -0.5384 -1.7023  1.0228
  332MOL0     H43798   4.263  -0.789   6.811 -1.5408  0.0852  1.0808
  332MOL0     H43799   4.286  -0.632   6.882  0.1655 -0.1831 -0.8308
  332MOL0     H43800   4.433  -0.635   6.707  0.0170 -2.4424 -0.1600
  332MOL0     H43801   4.317  -0.515   6.659  0.3708 -0.7013 -1.4707
  332MOL0     H43802   4.401  -0.751   6.518  1.7451  2.0637 -0.2048
  332MOL0     H43803   4.231  -0.781   6.555 -1.6568  2.5950 -1.8926
  332MOL0     H43804   4.337  -0.530   6.400  0.4821 -0.8523 -1.3876
  332MOL0     H43805   4.164  -0.585   6.427  0.5588  0.3945 -0.6606
  332MOL0     H43806   3.734  -0.391   6.388  1.5588 -0.6893  1.4605
  332MOL0     H43807   3.639  -0.196   6.246 -0.2235 -1.6381  0.6447
  332MOL0     H43808   3.330   0.247   6.389 -1.0224  1.9430 -0.8703
  332MOL0     H43809   3.201   0.382   6.223  0.3265  1.5494  0.9930
  332MOL0     H43810   2.217   2.125   5.684  0.2116  0.4748  0.6842
  332MOL0     H43811   1.954   2.153   5.703  1.4101 -0.3477 -2.0099
  332MOL0     H43812   1.546   2.043   5.727  1.1297 -0.3468 -0.2219
  332MOL0     H43813   1.306   2.079   5.804  0.5931  1.9292  0.0922
  332MOL0     H43814   1.255   2.120   6.204  1.6402 -2.4812 -0.6742
  332MOL0     H43815   1.104   2.161   6.130  0.2161  0.8373  0.2729
  332MOL0     H43816   1.385   2.242   6.053 -1.1298 -2.1722 -1.1494
  332MOL0     H43817   1.240   2.241   5.933 -1.3068 -0.7079  0.3963
  332MOL0     H43818   1.285   2.399   6.194 -3.0086 -0.5307  2.2013
  332MOL0     H43819   1.128   2.386   6.103  0.1286  0.6483  2.0279
  332MOL0     H43820   1.277   2.598   6.058  0.9531 -1.7016  2.2297
  332MOL0     H43821   1.364   2.483   5.951 -0.4493  3.8274 -1.1651
  332MOL0     H43822   0.984   2.515   5.766 -0.5714  0.1627  1.4535
  332MOL0     H43823   1.374   1.874   6.164 -0.5834 -0.3086 -0.4379
  332MOL0     H43824   1.600   1.812   6.100 -4.6177 -3.3338  0.7323
  333MOL0     O43825   6.595   2.550  10.504  0.1836 -0.6915  0.1219
  333MOL0     C43826   6.687   2.621  10.469 -0.0662  0.1210 -0.1288
  333MOL0     O43827   6.684   2.757  10.464  0.0775  0.1580  0.0839
  333MOL0     C43828   6.569   2.837  10.507 -0.0848  0.3380  0.7799
  333MOL0     C43829   6.550   2.851  10.640 -1.3517  0.5371 -0.2749
  333MOL0     C43830   6.444   2.919  10.698  0.1861  0.4819 -0.1872
  333MOL0     C43831   6.350   2.969  10.608 -0.1095  0.0576  0.0159
  333MOL0     O43832   6.231   3.015  10.660 -0.2998 -0.2591  0.2378
  333MOL0     C43833   6.132   2.922  10.635  0.7280 -0.0959 -0.2020
  333MOL0     C43834   5.994   2.990  10.665 -0.4913 -0.7891  0.2673
  333MOL0     C43835   5.957   3.075  10.545 -0.7296 -0.2493  0.0221
  333MOL0     C43836   5.838   3.160  10.591  0.0353  0.0671 -0.7176
  333MOL0     C43837   5.808   3.266  10.484 -0.0627 -0.7771  0.0371
  333MOL0     C43838   5.709   3.379  10.536 -0.4918 -0.2583  0.4841
  333MOL0     C43839   5.629   3.448  10.418 -0.7613  0.1197 -0.1231
  333MOL0     C43840   5.547   3.569  10.454 -1.1074  0.5227  0.1901
  333MOL0     N43841   5.481   3.638  10.343  0.1697 -0.8135  0.1447
  333MOL0     C43842   5.397   3.580  10.252 -0.7528  0.2795 -0.6067
  333MOL0     C43843   5.304   3.673  10.223  0.6018  0.0037 -0.5912
  333MOL0     C43844   5.189   3.652  10.126 -0.2864  0.3325 -0.6190
  333MOL0     C43845   5.224   3.716   9.996  0.5023 -0.5390  0.4586
  333MOL0     C43846   5.109   3.712   9.888  0.0357  0.1569 -0.4173
  333MOL0     C43847   5.164   3.782   9.756  0.1584  1.1525 -0.1344
  333MOL0     O43848   5.101   3.732   9.644 -0.4480  0.3807  0.1059
  333MOL0     C43849   4.978   3.789   9.632 -0.1373 -0.3620 -0.2079
  333MOL0     C43850   4.974   3.925   9.588 -0.3090  0.1193 -0.1500
  333MOL0     C43851   4.843   3.996   9.600  0.1345  1.6051 -0.8360
  333MOL0     C43852   4.728   3.921   9.626  0.4790  0.4177  0.2542
  333MOL0     C43853   4.598   3.998   9.636 -0.7693  0.7429 -0.4980
  333MOL0     O43854   4.490   3.912   9.663 -0.2789 -0.1281  0.3132
  333MOL0     C43855   4.372   3.981   9.682 -0.1599  0.0045  0.9761
  333MOL0     C43856   4.265   3.976   9.590 -0.0999  0.4020  0.3939
  333MOL0     C43857   4.139   4.021   9.629 -0.3691 -0.2281 -0.6570
  333MOL0     C43858   4.119   4.078   9.757 -0.8187  0.2829 -0.2281
  333MOL0     O43859   3.991   4.123   9.788  0.9808 -0.4252 -0.5963
  333MOL0     C43860   3.955   4.184   9.915 -0.1234 -0.3915 -0.7601
  333MOL0     C43861   3.993   4.332   9.928 -0.0962 -0.1017 -0.0684
  333MOL0     C43862   4.003   4.413   9.803  0.3318  0.2362 -0.1182
  333MOL0     C43863   3.864   4.405   9.737  0.7393  0.4909  0.2229
  333MOL0     C43864   3.836   4.521   9.638 -0.6329  0.6261  0.1924
  333MOL0     C43865   3.939   4.547   9.530  0.1881 -0.0610  0.0381
  333MOL0     C43866   3.877   4.641   9.429  1.1719 -0.1893  0.3261
  333MOL0     C43867   3.970   4.693   9.317  0.0680 -0.7527 -0.2319
  333MOL0    Cl43868   4.016   4.544   9.209 -0.1298  0.0099 -0.1785
  333MOL0     C43869   4.224   4.081   9.844 -0.1820  1.4629 -0.2537
  333MOL0     C43870   4.349   4.028   9.810  0.8280  0.0957  0.4463
  333MOL0     O43871   4.591   4.115   9.604 -0.8442 -0.4182 -0.3904
  333MOL0     C43872   4.740   3.782   9.663  0.2457 -0.1299 -0.8653
  333MOL0     C43873   4.863   3.728   9.662  0.0831 -0.2111 -0.2482
  333MOL0     N43874   5.347   3.795  10.274 -0.5702 -0.6187 -0.9155
  333MOL0     N43875   5.450   3.769  10.351 -0.0328  0.8002  0.3185
  333MOL0     C43876   6.378   2.953  10.471  0.9386  1.0680  0.3679
  333MOL0     C43877   6.483   2.891  10.420 -0.2171 -0.7099  0.4556
  333MOL0     C43878   6.806   2.549  10.433  0.7528 -0.4060  0.4321
  333MOL0     C43879   6.931   2.608  10.443 -0.1943 -0.2387 -0.0189
  333MOL0     C43880   7.047   2.533  10.399 -0.0257 -0.1051  0.0711
  333MOL0     C43881   7.036   2.407  10.345 -0.3027  0.1848  0.0939
  333MOL0     O43882   7.156   2.355  10.307  0.0728  0.2053 -0.8176
  333MOL0     C43883   7.157   2.224  10.233 -0.1940 -0.3726 -0.3806
  333MOL0     C43884   7.181   2.258  10.095 -0.4647  0.7334  0.0893
  333MOL0     C43885   7.063   2.312  10.022  0.4248 -0.5040  0.2830
  333MOL0     C43886   7.077   2.311   9.870  0.1898 -0.6855 -0.3428
  333MOL0     C43887   7.197   2.379   9.819 -0.2576 -0.4188 -0.9845
  333MOL0     C43888   7.286   2.449   9.799 -0.6670 -0.1731  1.4113
  333MOL0     C43889   6.915   2.352  10.325  0.0271  0.2259 -0.0643
  333MOL0     C43890   6.800   2.426  10.354  0.0873 -0.6594  0.2948
  333MOL0     H43891   6.627   2.811  10.706  0.6612  2.9204 -1.0496
  333MOL0     H43892   6.433   2.947  10.802  0.1428  0.5914 -0.2212
  333MOL0     H43893   6.148   2.839  10.705 -2.0153  0.1045  0.7877
  333MOL0     H43894   6.132   2.883  10.532 -0.5395 -1.3926  0.2547
  333MOL0     H43895   5.998   3.043  10.761  0.5170 -2.9493  1.4795
  333MOL0     H43896   5.916   2.914  10.674 -1.1401 -0.1323  0.3205
  333MOL0     H43897   5.924   3.014  10.460  1.9915 -2.8957  0.6889
  333MOL0     H43898   6.042   3.136  10.512 -1.8295  1.8153  0.8221
  333MOL0     H43899   5.741   3.118  10.618 -1.6624  2.9888 -1.8691
  333MOL0     H43900   5.868   3.207  10.686 -0.0222  0.5221 -0.9246
  333MOL0     H43901   5.771   3.206  10.401 -1.1712 -1.3915  0.9416
  333MOL0     H43902   5.895   3.330  10.470 -1.5465  1.7657  1.5882
  333MOL0     H43903   5.778   3.456  10.572  0.0829  0.2159 -1.5228
  333MOL0     H43904   5.644   3.343  10.616  1.2617 -1.1586  1.5687
  333MOL0     H43905   5.702   3.472  10.340 -1.9349 -1.7396 -1.9137
  333MOL0     H43906   5.563   3.374  10.372 -0.2772 -2.1798  2.5918
  333MOL0     H43907   5.609   3.645  10.503 -0.1688 -0.9862  1.4227
  333MOL0     H43908   5.473   3.537  10.529  0.0358  1.8653  1.9928
  333MOL0     H43909   5.399   3.480  10.210 -2.1017  0.2113 -0.5748
  333MOL0     H43910   5.092   3.683  10.166 -0.5753  1.7674 -2.3245
  333MOL0     H43911   5.185   3.542  10.123 -0.8301  0.3024  0.5264
  333MOL0     H43912   5.308   3.664   9.949  0.2319  1.0054 -1.9008
  333MOL0     H43913   5.251   3.822  10.004 -0.4771  0.1273 -3.1611
  333MOL0     H43914   5.094   3.604   9.876  0.9854 -0.0921  0.4639
  333MOL0     H43915   5.018   3.762   9.925 -0.2960 -0.6193 -0.1609
  333MOL0     H43916   5.266   3.747   9.736 -1.0128 -2.0568 -0.9995
  333MOL0     H43917   5.161   3.890   9.771  2.1494  0.8376  3.7491
  333MOL0     H43918   5.066   3.979   9.571  0.7012 -1.1786  0.9747
  333MOL0     H43919   4.845   4.099   9.564  3.8838  1.4314 -1.5229
  333MOL0     H43920   4.270   3.934   9.491 -0.1597 -2.7122  1.6122
  333MOL0     H43921   4.055   4.022   9.561 -0.0647 -0.2239 -1.0329
  333MOL0     H43922   4.001   4.121   9.992 -1.3977 -2.6657 -1.7795
  333MOL0     H43923   3.848   4.168   9.931 -0.1157  1.3629  1.5464
  333MOL0     H43924   4.084   4.342   9.988 -1.6656  0.0731  2.4694
  333MOL0     H43925   3.907   4.373   9.983 -1.6561 -1.5833 -1.3095
  333MOL0     H43926   4.073   4.377   9.727  0.4118  0.4993 -0.1716
  333MOL0     H43927   4.024   4.520   9.813 -0.8262  0.8595 -3.0983
  333MOL0     H43928   3.858   4.307   9.689  1.6497  1.1131 -1.2512
  333MOL0     H43929   3.790   4.404   9.818  2.2383 -0.3672  1.6465
  333MOL0     H43930   3.839   4.605   9.708 -0.3534  1.7281 -1.1020
  333MOL0     H43931   3.732   4.518   9.603 -0.9406 -0.4690  1.1232
  333MOL0     H43932   3.974   4.458   9.476 -0.0643  0.3931 -0.8896
  333MOL0     H43933   4.026   4.596   9.574 -1.2838  1.6925  1.1140
  333MOL0     H43934   3.798   4.599   9.365 -0.0031  2.4590 -0.0866
  333MOL0     H43935   3.830   4.727   9.478  0.2334  0.3520 -1.4261
  333MOL0     H43936   4.053   4.736   9.374 -1.3862  1.2810  0.4551
  333MOL0     H43937   3.923   4.769   9.254 -2.1678 -0.8770  1.1861
  333MOL0     H43938   4.219   4.112   9.948  2.2588  1.5669 -0.1271
  333MOL0     H43939   4.432   4.020   9.880  2.1771  2.9896 -0.6551
  333MOL0     H43940   4.654   3.721   9.690  0.1397 -0.5886 -2.1738
  333MOL0     H43941   4.883   3.624   9.685  0.5546 -0.0701 -0.0165
  333MOL0     H43942   6.304   2.996  10.404 -0.3446  1.0410  1.7175
  333MOL0     H43943   6.483   2.853  10.318  0.7563  0.6383 -0.0788
  333MOL0     H43944   6.944   2.704  10.491  1.0723 -1.0609  1.3918
  333MOL0     H43945   7.144   2.577  10.418 -1.0962  3.2382 -1.3950
  333MOL0     H43946   7.071   2.158  10.249 -2.2490  1.4969 -2.8188
  333MOL0     H43947   7.243   2.168  10.272  2.0119  1.6594 -2.0144
  333MOL0     H43948   7.256   2.338  10.086 -1.3402  1.4385 -1.3126
  333MOL0     H43949   7.212   2.173  10.032 -1.3882  2.0498 -2.2803
  333MOL0     H43950   7.047   2.415  10.056  1.0539  0.1327 -1.2576
  333MOL0     H43951   6.977   2.250  10.048  0.4251 -0.4023  0.5253
  333MOL0     H43952   7.065   2.211   9.827  2.3961 -1.0574 -0.2082
  333MOL0     H43953   6.992   2.373   9.839 -0.0500 -0.4781  0.7024
  333MOL0     H43954   7.357   2.530   9.795 -2.2779  1.3421  2.1040
  333MOL0     H43955   6.897   2.259  10.273 -1.4533  0.8292 -0.6778
  333MOL0     H43956   6.704   2.385  10.323  0.6299 -1.5782 -0.2086
  334MOL0     O43957   4.290  10.723  10.667 -0.4441  0.1718  0.3417
  334MOL0     C43958   4.336  10.810  10.736 -0.0017 -0.7942 -0.9175
  334MOL0     O43959   4.286  10.932  10.768 -0.2159 -0.6411 -0.7001
  334MOL0     C43960   4.161  10.980  10.728  0.7899  0.3007 -0.4207
  334MOL0     C43961   4.139  11.099  10.646  0.3025  0.1415  0.0018
  334MOL0     C43962   4.019  11.157  10.626 -0.2884  0.0570  0.0355
  334MOL0     C43963   3.903  11.090  10.671  0.2010  0.8095 -0.0585
  334MOL0     O43964   3.783  11.148  10.633 -0.1771  0.8188  0.6079
  334MOL0     C43965   3.663  11.077  10.625  0.0237  0.2072 -0.5714
  334MOL0     C43966   3.551  11.132  10.716  0.2678 -1.3605  0.1046
  334MOL0     C43967   3.440  11.031  10.745 -0.1261 -0.2133 -0.5267
  334MOL0     C43968   3.325  11.107  10.805 -0.3177 -0.4480 -0.6544
  334MOL0     C43969   3.204  11.016  10.814 -0.2643  1.2065 -0.0704
  334MOL0     C43970   3.092  11.035  10.717  0.0105  0.0354 -1.4211
  334MOL0     C43971   2.962  10.994  10.800 -0.0844  0.8419 -0.3741
  334MOL0     C43972   2.840  10.973  10.716 -0.2798 -0.4397  0.7036
  334MOL0     N43973   2.810  11.098  10.653 -0.1282 -0.3448 -0.3614
  334MOL0     C43974   2.695  11.169  10.673  0.7435 -0.3798 -0.1197
  334MOL0     C43975   2.686  11.246  10.564  0.1760 -0.1426  0.6434
  334MOL0     C43976   2.562  11.333  10.538 -0.5463  0.4316  0.0330
  334MOL0     C43977   2.439  11.253  10.489  0.8912 -0.1707 -0.1681
  334MOL0     C43978   2.308  11.333  10.534  0.1204  0.6343 -0.3172
  334MOL0     C43979   2.178  11.259  10.512 -0.0335  0.5301  0.7768
  334MOL0     O43980   2.154  11.238  10.376  0.6293 -0.1442  0.7230
  334MOL0     C43981   2.043  11.165  10.344  0.0477  0.3344 -0.1562
  334MOL0     C43982   2.031  11.129  10.205 -0.2685  0.1198  0.8110
  334MOL0     C43983   1.912  11.065  10.159  0.4566 -0.3259  0.1633
  334MOL0     C43984   1.809  11.033  10.242 -0.5015 -0.0198  0.0741
  334MOL0     C43985   1.688  10.954  10.186 -0.2307  0.5612  0.7043
  334MOL0     O43986   1.595  10.917  10.284 -0.1861  0.1733  0.0185
  334MOL0     C43987   1.458  10.914  10.268 -0.8053 -0.8871 -0.4424
  334MOL0     C43988   1.389  10.858  10.380  0.0716  0.4106 -0.0381
  334MOL0     C43989   1.253  10.842  10.372 -0.8164  0.0937  0.2866
  334MOL0     C43990   1.182  10.880  10.260  0.1453  0.0866  0.6194
  334MOL0     O43991   1.041  10.861  10.263  0.2820  0.6707 -0.7877
  334MOL0     C43992   0.990  10.840  10.139  0.6186  0.2658 -0.3350
  334MOL0     C43993   0.861  10.758  10.141 -0.2931 -0.2733 -0.9856
  334MOL0     C43994   0.803  10.748  10.004 -0.2822 -0.1204 -0.5275
  334MOL0     C43995   0.695  10.637   9.999  0.4631 -0.0298  1.0996
  334MOL0     C43996   0.620  10.617   9.864 -0.1147 -0.7912 -0.5377
  334MOL0     C43997   0.522  10.501   9.875  0.5218 -0.1839 -0.0283
  334MOL0     C43998   0.436  10.450   9.754 -0.5359 -1.0076  0.2595
  334MOL0     C43999   0.372  10.559   9.677  0.3439  0.2232  0.1025
  334MOL0    Cl44000   0.254  10.493   9.561 -0.1107  0.0277 -0.0619
  334MOL0     C44001   1.251  10.944  10.157  0.1059 -0.4245  0.0135
  334MOL0     C44002   1.389  10.957  10.149 -0.7097  0.7541  0.3551
  334MOL0     O44003   1.693  10.901  10.071 -0.6010  0.3363 -0.2417
  334MOL0     C44004   1.823  11.065  10.376 -0.2034 -1.0896 -0.4086
  334MOL0     C44005   1.938  11.126  10.431  0.3779 -0.6425  0.4512
  334MOL0     N44006   2.795  11.222  10.482 -0.0588 -0.0391 -1.0025
  334MOL0     N44007   2.868  11.129  10.537  0.1945 -0.1289  0.3325
  334MOL0     C44008   3.917  10.965  10.731  0.3440  0.1890  0.0812
  334MOL0     C44009   4.044  10.918  10.775  0.3616  0.8957  0.8903
  334MOL0     C44010   4.476  10.789  10.779 -0.4781 -0.2000  0.4998
  334MOL0     C44011   4.559  10.889  10.834  0.2019 -0.2144 -0.1736
  334MOL0     C44012   4.699  10.876  10.853  0.5622 -0.1093 -0.5506
  334MOL0     C44013   4.766  10.752  10.841  0.7958 -0.3423 -0.7131
  334MOL0     O44014   4.898  10.722  10.863 -0.2791 -0.2976  1.1423
  334MOL0     C44015   4.981  10.831  10.898  0.8952  0.1023 -0.2712
  334MOL0     C44016   5.124  10.796  10.860 -0.2023 -0.3079 -1.9283
  334MOL0     C44017   5.157  10.669  10.944 -1.2139  0.9227  0.8030
  334MOL0     C44018   5.296  10.608  10.916  0.0397  1.0533  0.3633
  334MOL0     C44019   5.405  10.709  10.942 -0.1796 -0.6063  0.3537
  334MOL0     C44020   5.495  10.787  10.944 -0.2229  0.6905  0.1056
  334MOL0     C44021   4.682  10.646  10.807 -0.0646  0.1437 -0.5474
  334MOL0     C44022   4.549  10.665  10.773  0.4545  0.2532  0.7610
  334MOL0     H44023   4.225  11.159  10.616  0.0057  0.5630 -0.0053
  334MOL0     H44024   3.994  11.252  10.579 -0.0059  1.2270  2.1354
  334MOL0     H44025   3.682  10.971  10.643  1.0439 -0.3191 -3.9590
  334MOL0     H44026   3.630  11.079  10.521  0.7880 -1.5943 -0.8795
  334MOL0     H44027   3.513  11.224  10.670  0.8047 -0.4071  1.5079
  334MOL0     H44028   3.588  11.161  10.815  2.7367  1.8636 -1.5694
  334MOL0     H44029   3.475  10.947  10.805  0.6653 -0.3306 -1.1323
  334MOL0     H44030   3.410  10.983  10.652 -0.5521 -1.0599  0.0332
  334MOL0     H44031   3.360  11.130  10.906  2.6684 -0.6894 -1.5212
  334MOL0     H44032   3.307  11.203  10.756 -0.1226  0.0703  0.2675
  334MOL0     H44033   3.169  11.024  10.917 -0.8511 -1.9986  0.0648
  334MOL0     H44034   3.248  10.916  10.812 -2.5369  0.1566 -0.4432
  334MOL0     H44035   3.106  10.963  10.635  3.0882 -0.8188 -0.3094
  334MOL0     H44036   3.099  11.137  10.679 -2.5158 -0.0243 -2.1926
  334MOL0     H44037   2.982  10.906  10.861 -0.5688 -0.5347 -2.1083
  334MOL0     H44038   2.939  11.080  10.864 -3.8211 -1.6054  1.9415
  334MOL0     H44039   2.760  10.944  10.785 -2.2977  1.4281 -0.6664
  334MOL0     H44040   2.845  10.888  10.647 -3.2075 -0.2016  0.0652
  334MOL0     H44041   2.621  11.168  10.753  0.2515 -0.8187 -0.5767
  334MOL0     H44042   2.604  11.395  10.459  2.4764 -1.9581 -0.4309
  334MOL0     H44043   2.537  11.403  10.617 -0.0346  1.2192 -0.4881
  334MOL0     H44044   2.438  11.149  10.523 -0.8489  0.0251  0.4716
  334MOL0     H44045   2.453  11.250  10.381  1.3097  2.0712 -0.2189
  334MOL0     H44046   2.311  11.368  10.638  1.4546  2.7889 -1.0197
  334MOL0     H44047   2.306  11.425  10.476 -0.7083  1.0384  0.3328
  334MOL0     H44048   2.097  11.314  10.561 -0.5945  0.5634 -0.1525
  334MOL0     H44049   2.191  11.161  10.558  1.6272 -1.3892 -3.3184
  334MOL0     H44050   2.119  11.161  10.150  0.5749 -2.4509  0.5118
  334MOL0     H44051   1.907  11.057  10.051 -0.4404  1.1496  0.0846
  334MOL0     H44052   1.445  10.818  10.464  4.6172 -1.4233 -3.4905
  334MOL0     H44053   1.194  10.810  10.457 -4.1438  2.9167 -0.6759
  334MOL0     H44054   1.053  10.775  10.077 -0.9013 -1.4704 -0.1701
  334MOL0     H44055   0.963  10.940  10.103 -1.1638 -0.2322 -0.4809
  334MOL0     H44056   0.795  10.795  10.220 -0.2165  4.6206 -2.8929
  334MOL0     H44057   0.882  10.653  10.161  1.5049  0.2017 -0.1846
  334MOL0     H44058   0.878  10.738   9.925  0.0332  2.0031 -0.5454
  334MOL0     H44059   0.755  10.844   9.983  1.6482  0.8024 -0.9091
  334MOL0     H44060   0.746  10.541  10.016 -0.3414 -0.8631 -0.8211
  334MOL0     H44061   0.617  10.656  10.073 -1.4263  0.2496 -0.8622
  334MOL0     H44062   0.703  10.603   9.794  1.2158  1.4259  0.4647
  334MOL0     H44063   0.567  10.702   9.819 -1.2968 -1.5128 -0.5222
  334MOL0     H44064   0.459  10.518   9.963  1.4351  2.0313  0.2788
  334MOL0     H44065   0.588  10.415   9.888 -0.2958 -0.6246  1.3505
  334MOL0     H44066   0.500  10.400   9.679 -0.9804  1.8176 -2.2068
  334MOL0     H44067   0.357  10.381   9.783 -1.7494 -0.7455 -2.1324
  334MOL0     H44068   0.455  10.601   9.620 -0.3406 -0.5050 -1.4948
  334MOL0     H44069   0.332  10.634   9.747  1.1560  0.5546  0.2276
  334MOL0     H44070   1.197  10.968  10.066  0.8600 -0.2655 -0.4027
  334MOL0     H44071   1.438  10.997  10.061 -1.5950 -0.0719 -0.5383
  334MOL0     H44072   1.745  11.044  10.448  0.6942  1.2965  1.3930
  334MOL0     H44073   1.948  11.150  10.536  0.5872 -2.7545  0.9623
  334MOL0     H44074   3.842  10.889  10.753 -0.3347  1.2666  1.6255
  334MOL0     H44075   4.055  10.820  10.820 -0.3965  0.8107  0.9038
  334MOL0     H44076   4.526  10.988  10.867 -0.4883 -1.2649  2.5061
  334MOL0     H44077   4.743  10.975  10.865  0.9753 -0.6212  3.0527
  334MOL0     H44078   4.988  10.841  11.007  0.9852 -2.4995  0.0096
  334MOL0     H44079   4.954  10.926  10.849  0.6115  0.5855  0.7886
  334MOL0     H44080   5.125  10.771  10.753  0.5049 -4.6036 -1.1167
  334MOL0     H44081   5.188  10.880  10.886 -1.2692 -0.0306  0.0194
  334MOL0     H44082   5.082  10.593  10.921 -0.7282  0.3379  1.1210
  334MOL0     H44083   5.160  10.701  11.048  1.6446  0.4163  0.9660
  334MOL0     H44084   5.309  10.510  10.964 -3.4156 -1.2914 -2.9506
  334MOL0     H44085   5.308  10.575  10.812 -0.3352 -2.5898  1.3413
  334MOL0     H44086   5.557  10.875  10.944 -2.1647  2.1952 -2.0037
  334MOL0     H44087   4.724  10.547  10.791 -0.5493 -0.0359 -0.7184
  334MOL0     H44088   4.500  10.572  10.746 -0.0877  0.9403 -0.7167
  335MOL0     O44089   1.634   0.625   1.009  0.1540  1.1039  0.7134
  335MOL0     C44090   1.704   0.530   1.042 -0.0057  0.2797  0.1032
  335MOL0     O44091   1.678   0.442   1.141  0.2932  0.5770 -0.4290
  335MOL0     C44092   1.546   0.428   1.191 -0.3599  0.2321  0.8584
  335MOL0     C44093   1.427   0.450   1.112  0.5896  0.0151 -0.2847
  335MOL0     C44094   1.302   0.464   1.186 -0.4811  0.6626  0.5677
  335MOL0     C44095   1.298   0.451   1.324 -0.5911 -0.6265  0.7177
  335MOL0     O44096   1.172   0.469   1.369  0.6027 -0.5787 -0.0599
  335MOL0     C44097   1.127   0.356   1.452  0.4699 -0.6797  0.0444
  335MOL0     C44098   0.972   0.371   1.475  0.9384  0.3384 -0.1474
  335MOL0     C44099   0.896   0.382   1.334 -0.4345  0.6080 -0.9155
  335MOL0     C44100   0.763   0.453   1.334 -0.6131  0.5604  0.6303
  335MOL0     C44101   0.682   0.425   1.205 -0.9460  0.1863  0.1905
  335MOL0     C44102   0.531   0.474   1.202 -0.3659 -0.2235  0.1443
  335MOL0     C44103   0.448   0.472   1.072  0.4550 -0.6535 -0.5928
  335MOL0     C44104   0.412   0.327   1.023  0.7041 -0.7734  0.0198
  335MOL0     N44105   0.312   0.351   0.920  0.5270  0.1535 -0.8124
  335MOL0     C44106   0.183   0.299   0.924  0.6526 -0.9384 -0.3108
  335MOL0     C44107   0.128   0.315   0.796 -0.3100  0.1628 -0.8000
  335MOL0     C44108  -0.009   0.282   0.743 -0.1038 -0.1428 -0.0191
  335MOL0     C44109   0.000   0.262   0.592  0.1946  1.6722  0.6269
  335MOL0     C44110  -0.145   0.252   0.544  0.0708  0.3524  0.3230
  335MOL0     C44111  -0.170   0.272   0.390  1.0019 -0.4385 -0.1018
  335MOL0     O44112  -0.070   0.221   0.295  0.0846 -0.2079  0.3396
  335MOL0     C44113  -0.088   0.243   0.156  0.5906  0.3829 -0.2496
  335MOL0     C44114   0.016   0.199   0.074  0.6882 -0.1650 -0.2937
  335MOL0     C44115   0.016   0.222  -0.061  0.5339 -0.9365 -0.6556
  335MOL0     C44116  -0.098   0.268  -0.125  0.0816 -0.0331  0.0120
  335MOL0     C44117  -0.106   0.302  -0.268  0.2476 -0.1750 -0.0109
  335MOL0     O44118   0.013   0.327  -0.331  0.4875 -0.3879  0.8494
  335MOL0     C44119  -0.008   0.384  -0.454  0.4418 -0.9790  0.5203
  335MOL0     C44120   0.028   0.513  -0.474 -0.1880 -1.0303 -0.1815
  335MOL0     C44121   0.049   0.564  -0.601  0.9767  0.3461 -0.0855
  335MOL0     C44122   0.000   0.501  -0.718 -0.0052  0.3257 -0.6218
  335MOL0     O44123   0.022   0.555  -0.846 -1.1700  0.3272  0.4500
  335MOL0     C44124  -0.097   0.607  -0.898  0.3390 -0.4044 -0.1395
  335MOL0     C44125  -0.098   0.620  -1.053 -0.7156  0.1707  0.2866
  335MOL0     C44126   0.008   0.703  -1.128 -0.1492 -0.6038 -0.4294
  335MOL0     C44127   0.013   0.669  -1.282 -0.5326 -1.0165  0.4618
  335MOL0     C44128   0.145   0.721  -1.355  0.2161 -0.0590 -0.5493
  335MOL0     C44129   0.139   0.675  -1.493 -0.4495 -0.1996 -0.2291
  335MOL0     C44130   0.263   0.718  -1.568 -0.0899  0.1878 -0.0850
  335MOL0     C44131   0.286   0.629  -1.693  0.5382 -0.4922 -0.7743
  335MOL0    Cl44132   0.323   0.457  -1.662  0.0080 -0.1552 -0.4888
  335MOL0     C44133  -0.029   0.369  -0.699  0.0083 -0.2254  0.3563
  335MOL0     C44134  -0.044   0.306  -0.569 -0.9391  0.8074 -0.0571
  335MOL0     O44135  -0.220   0.327  -0.311 -0.7311  0.4595  0.4232
  335MOL0     C44136  -0.214   0.281  -0.044 -0.2377  0.1815  0.6691
  335MOL0     C44137  -0.202   0.286   0.091 -0.5165 -0.1068  0.0060
  335MOL0     N44138   0.238   0.366   0.721  0.6184 -0.6983  0.5322
  335MOL0     N44139   0.341   0.386   0.793  0.0524 -0.3611  0.0929
  335MOL0     C44140   1.404   0.426   1.394 -0.6112  1.0808  0.6365
  335MOL0     C44141   1.531   0.413   1.324 -0.4009  0.6273 -0.1405
  335MOL0     C44142   1.842   0.529   0.985  0.0234 -1.1636  0.1665
  335MOL0     C44143   1.943   0.436   1.024  0.0621 -1.1364  1.1621
  335MOL0     C44144   2.070   0.457   0.959  0.0292  1.1208 -0.6439
  335MOL0     C44145   2.097   0.550   0.868  0.3571  0.0270  0.6612
  335MOL0     O44146   2.224   0.554   0.810  0.1761  0.3235  0.8233
  335MOL0     C44147   2.285   0.680   0.785 -0.6327  0.5087  1.1457
  335MOL0     C44148   2.431   0.661   0.711  0.5091 -0.0638  0.6491
  335MOL0     C44149   2.529   0.616   0.821 -0.3416 -0.1720  0.3772
  335MOL0     C44150   2.657   0.588   0.740  0.3888  0.5419  0.6575
  335MOL0     C44151   2.771   0.570   0.824  0.5725  0.4515 -0.2212
  335MOL0     C44152   2.880   0.543   0.883  0.4085 -0.5602  0.5498
  335MOL0     C44153   1.995   0.631   0.820 -0.5358  0.0061 -0.0932
  335MOL0     C44154   1.869   0.614   0.883  0.6168 -0.7365  0.1989
  335MOL0     H44155   1.437   0.476   1.007 -2.6865 -0.7538 -0.9172
  335MOL0     H44156   1.205   0.472   1.138 -0.1791 -0.6639 -0.3147
  335MOL0     H44157   1.178   0.356   1.549 -0.1489  0.2296  0.3847
  335MOL0     H44158   1.147   0.259   1.404  1.6469  0.5909 -2.2235
  335MOL0     H44159   0.948   0.463   1.530  1.0595 -1.1341  2.5332
  335MOL0     H44160   0.932   0.286   1.531  3.9180 -3.1502 -2.8403
  335MOL0     H44161   0.890   0.279   1.297 -3.5648  1.0542 -1.9154
  335MOL0     H44162   0.952   0.427   1.252  0.3904 -3.7191 -3.0278
  335MOL0     H44163   0.704   0.418   1.419 -0.2286 -3.2384 -0.4613
  335MOL0     H44164   0.774   0.559   1.359  0.2416  0.1915  1.9193
  335MOL0     H44165   0.685   0.318   1.183 -1.8288  0.6584 -2.6626
  335MOL0     H44166   0.741   0.470   1.125  1.9444  2.3892  3.2665
  335MOL0     H44167   0.537   0.583   1.202 -2.1611 -0.0506 -2.0429
  335MOL0     H44168   0.473   0.442   1.288  0.4215 -2.0687  0.0369
  335MOL0     H44169   0.355   0.522   1.102  1.2029  0.0040  0.7668
  335MOL0     H44170   0.490   0.534   0.992  0.1529  0.2002 -0.1011
  335MOL0     H44171   0.373   0.268   1.107  2.1163  0.0842  1.3393
  335MOL0     H44172   0.502   0.281   0.981  1.2703 -0.5579  0.9626
  335MOL0     H44173   0.129   0.263   1.010 -0.5386 -0.0462 -0.6619
  335MOL0     H44174  -0.072   0.369   0.763  0.1697 -0.0321  0.3915
  335MOL0     H44175  -0.049   0.194   0.793 -1.0152  1.2145  1.7714
  335MOL0     H44176   0.055   0.170   0.569 -2.8897 -0.3190  0.7903
  335MOL0     H44177   0.058   0.341   0.542  0.1698  1.3682  0.1069
  335MOL0     H44178  -0.184   0.158   0.584  0.9423  0.2978  1.0781
  335MOL0     H44179  -0.199   0.330   0.598  1.2822  0.2312  1.7788
  335MOL0     H44180  -0.183   0.378   0.367  0.4646 -0.9950 -2.7722
  335MOL0     H44181  -0.261   0.218   0.359 -0.1706  0.8842  0.9423
  335MOL0     H44182   0.104   0.168   0.130  0.1920 -0.5133  0.3027
  335MOL0     H44183   0.106   0.207  -0.121  0.2434 -1.1518 -1.0398
  335MOL0     H44184   0.068   0.569  -0.390  1.9706  3.8530 -3.8956
  335MOL0     H44185   0.090   0.664  -0.614 -1.3223  1.6010  1.5625
  335MOL0     H44186  -0.117   0.701  -0.845  1.3807 -0.5506  0.5482
  335MOL0     H44187  -0.177   0.539  -0.868  1.3815 -0.8552  1.7731
  335MOL0     H44188  -0.196   0.656  -1.084  0.0862  0.9220 -1.5100
  335MOL0     H44189  -0.095   0.515  -1.082 -1.0782 -0.9206  3.7214
  335MOL0     H44190   0.107   0.672  -1.092  0.0344 -0.2453 -0.6186
  335MOL0     H44191  -0.007   0.809  -1.106 -1.2622 -1.2405  2.2605
  335MOL0     H44192   0.016   0.560  -1.293 -1.7122 -1.3780  2.9957
  335MOL0     H44193  -0.070   0.708  -1.342  0.5076 -0.2781 -0.5357
  335MOL0     H44194   0.237   0.682  -1.310  0.6072  2.2879  0.8568
  335MOL0     H44195   0.153   0.830  -1.357 -0.1080 -0.0170 -2.8894
  335MOL0     H44196   0.044   0.708  -1.536  0.3186  0.6285 -1.3200
  335MOL0     H44197   0.136   0.566  -1.490 -1.0898 -0.3683  5.8611
  335MOL0     H44198   0.238   0.819  -1.600 -1.0242  0.6386  1.8844
  335MOL0     H44199   0.345   0.710  -1.495 -0.7469 -2.0098  0.4942
  335MOL0     H44200   0.373   0.672  -1.743 -0.2420 -1.9120 -3.5645
  335MOL0     H44201   0.209   0.641  -1.770  1.2720  1.1297 -1.3074
  335MOL0     H44202  -0.027   0.294  -0.777 -1.6045 -1.7113  1.6680
  335MOL0     H44203  -0.077   0.202  -0.563 -1.3938  0.8918 -0.8575
  335MOL0     H44204  -0.312   0.307  -0.083 -0.1269 -1.2849 -0.6952
  335MOL0     H44205  -0.290   0.316   0.147 -2.3403 -2.8707 -1.1679
  335MOL0     H44206   1.398   0.393   1.497 -1.9373 -1.5561 -0.2028
  335MOL0     H44207   1.623   0.407   1.381  3.0482 -0.0415 -5.0617
  335MOL0     H44208   1.928   0.357   1.097  1.7065 -2.0680  0.5420
  335MOL0     H44209   2.154   0.392   0.984 -0.1833  1.6545  1.7263
  335MOL0     H44210   2.316   0.724   0.880  0.5808  1.7284  0.2253
  335MOL0     H44211   2.215   0.746   0.733 -1.3609  0.6301  2.2491
  335MOL0     H44212   2.427   0.588   0.630 -1.6597  0.3189  0.3559
  335MOL0     H44213   2.471   0.759   0.685  1.9039 -0.7697  0.0356
  335MOL0     H44214   2.495   0.529   0.878  2.6219 -1.7613 -0.0744
  335MOL0     H44215   2.545   0.701   0.888  3.5798 -0.0075 -0.5462
  335MOL0     H44216   2.650   0.506   0.668  0.1410 -1.4959  2.8762
  335MOL0     H44217   2.682   0.685   0.696 -0.7280  1.3267  1.6734
  335MOL0     H44218   2.966   0.529   0.944  0.6929  0.3383  0.3664
  335MOL0     H44219   2.019   0.697   0.737  0.9736  0.0905  0.3800
  335MOL0     H44220   1.792   0.681   0.845  2.5364  1.0014 -0.8392
  336MOL0     O44221   9.377   1.757   4.660 -0.7617  0.1925  0.0373
  336MOL0     C44222   9.470   1.681   4.648  0.2118 -0.2389  0.4889
  336MOL0     O44223   9.512   1.597   4.746 -1.2752  0.9219 -0.0628
  336MOL0     C44224   9.449   1.586   4.869 -0.8882 -0.8461 -0.9585
  336MOL0     C44225   9.316   1.622   4.897 -0.0764 -0.0196 -0.3513
  336MOL0     C44226   9.252   1.568   5.010 -0.3283  0.0464 -0.2279
  336MOL0     C44227   9.321   1.511   5.115  0.4564 -0.1938  0.3397
  336MOL0     O44228   9.261   1.465   5.225  0.5435  0.8570 -0.5412
  336MOL0     C44229   9.333   1.382   5.317  0.0780 -0.9383  0.2594
  336MOL0     C44230   9.242   1.351   5.427  0.4831 -0.8225  0.7988
  336MOL0     C44231   9.116   1.285   5.368  0.4895 -1.2149  0.0741
  336MOL0     C44232   9.141   1.156   5.285  0.2336 -0.1618  0.1329
  336MOL0     C44233   9.027   1.052   5.268 -0.1727  0.1248 -0.8416
  336MOL0     C44234   8.909   1.108   5.187 -0.2083 -0.2502 -0.5661
  336MOL0     C44235   8.799   1.017   5.145  0.8195 -0.9154 -0.4880
  336MOL0     C44236   8.859   0.917   5.049 -0.2669  0.0046  0.2703
  336MOL0     N44237   8.753   0.835   4.995  0.9948 -0.8890  0.5945
  336MOL0     C44238   8.674   0.749   5.072  0.6120 -0.1119 -0.3102
  336MOL0     C44239   8.559   0.731   5.012 -0.2043  0.0192  0.5901
  336MOL0     C44240   8.446   0.647   5.078  0.2167  0.2864 -0.0647
  336MOL0     C44241   8.332   0.639   4.963  0.5835 -0.1864  0.1587
  336MOL0     C44242   8.226   0.549   5.016 -0.1209 -0.0693 -0.2183
  336MOL0     C44243   8.120   0.531   4.904 -0.4961  0.1864  0.9309
  336MOL0     O44244   8.018   0.440   4.947  0.5222  0.6317  0.3909
  336MOL0     C44245   7.894   0.437   4.876 -0.5628  0.0839 -0.7770
  336MOL0     C44246   7.861   0.499   4.759 -0.8752  0.3753 -0.1359
  336MOL0     C44247   7.736   0.491   4.710  0.7792  0.6182  0.3864
  336MOL0     C44248   7.650   0.391   4.766 -0.2608  0.8563 -0.7261
  336MOL0     C44249   7.520   0.381   4.719 -0.2509  0.4274 -1.3047
  336MOL0     O44250   7.469   0.249   4.700  0.7088 -0.1774 -0.4289
  336MOL0     C44251   7.357   0.249   4.621 -0.8944  1.2483 -0.7636
  336MOL0     C44252   7.225   0.225   4.676  0.9537 -0.7250  0.2664
  336MOL0     C44253   7.122   0.213   4.576 -0.2237  0.5387 -0.4869
  336MOL0     C44254   7.134   0.237   4.441  0.3380  0.1924 -0.4741
  336MOL0     O44255   7.033   0.204   4.354  0.9595 -0.1140  0.3333
  336MOL0     C44256   7.045   0.203   4.216  0.0158  0.1988 -0.4268
  336MOL0     C44257   6.928   0.118   4.161 -0.0800  1.0815 -0.2859
  336MOL0     C44258   6.777   0.169   4.178  0.8156 -0.2016  0.4622
  336MOL0     C44259   6.680   0.056   4.175  0.5655 -0.0865  0.4455
  336MOL0     C44260   6.578   0.063   4.067  0.6931  0.3181  1.0253
  336MOL0     C44261   6.474  -0.058   4.079  0.2736 -0.7668  0.4674
  336MOL0     C44262   6.347  -0.057   3.984 -0.1566  0.1433  0.4607
  336MOL0     C44263   6.262   0.057   4.001  0.4858  0.3995 -0.2699
  336MOL0    Cl44264   6.096   0.024   3.950 -0.0532 -0.4927  0.2748
  336MOL0     C44265   7.255   0.287   4.396 -1.3231  0.2083 -0.5497
  336MOL0     C44266   7.364   0.287   4.482 -0.0728 -0.2390 -0.8686
  336MOL0     O44267   7.467   0.481   4.686 -0.0954  0.2594  0.2879
  336MOL0     C44268   7.683   0.321   4.875  0.2081 -0.4845  0.3394
  336MOL0     C44269   7.808   0.347   4.935  0.4224 -0.6434 -0.5027
  336MOL0     N44270   8.579   0.783   4.881 -0.5257 -1.4828  0.2117
  336MOL0     N44271   8.698   0.850   4.869 -0.2477  0.5113  0.0845
  336MOL0     C44272   9.468   1.498   5.090 -0.7522 -0.2327  0.1877
  336MOL0     C44273   9.529   1.536   4.970 -0.0970  0.3809 -0.3887
  336MOL0     C44274   9.521   1.658   4.517 -1.0146 -0.3527  1.1842
  336MOL0     C44275   9.625   1.557   4.501  0.4296 -0.7034  0.0985
  336MOL0     C44276   9.687   1.546   4.369  1.2551  0.0617 -0.1813
  336MOL0     C44277   9.653   1.635   4.265 -0.0169 -0.7669  0.9477
  336MOL0     O44278   9.694   1.632   4.136  0.4458  0.3727 -0.0538
  336MOL0     C44279   9.768   1.519   4.104  0.4424 -0.3208  0.5258
  336MOL0     C44280   9.805   1.529   3.951  0.8925  0.4079 -1.8847
  336MOL0     C44281   9.926   1.620   3.946  0.7965 -0.2445  0.9825
  336MOL0     C44282   9.942   1.684   3.809 -0.2235  0.3549  0.4930
  336MOL0     C44283  10.046   1.784   3.803 -0.9624 -0.7270 -0.4428
  336MOL0     C44284  10.112   1.880   3.777 -0.1239 -0.0566 -0.0381
  336MOL0     C44285   9.552   1.729   4.293 -0.9197  0.5062  0.8757
  336MOL0     C44286   9.477   1.738   4.409 -1.2952  0.9858 -0.7348
  336MOL0     H44287   9.245   1.657   4.822 -1.2127 -0.3033  0.5556
  336MOL0     H44288   9.145   1.585   5.018 -0.3616 -0.4429  0.4371
  336MOL0     H44289   9.420   1.435   5.356  2.7793 -1.3133 -4.5036
  336MOL0     H44290   9.379   1.286   5.289  2.1297 -0.2920  1.2155
  336MOL0     H44291   9.209   1.446   5.469 -2.9453 -0.6276 -1.9273
  336MOL0     H44292   9.300   1.292   5.499  1.3913  1.8690  2.4288
  336MOL0     H44293   9.046   1.348   5.311 -2.1486 -1.1848  3.0935
  336MOL0     H44294   9.052   1.259   5.452  0.0485  2.5254  1.0576
  336MOL0     H44295   9.182   1.195   5.192 -1.5066  0.7051 -0.3133
  336MOL0     H44296   9.226   1.100   5.325  1.8201  0.4652 -2.1748
  336MOL0     H44297   8.995   1.023   5.369 -1.7138  1.2245 -0.9772
  336MOL0     H44298   9.060   0.963   5.215  0.5725  0.3621 -0.7978
  336MOL0     H44299   8.952   1.158   5.100 -0.2459 -1.3895 -1.2492
  336MOL0     H44300   8.848   1.166   5.257 -1.1490 -0.5356 -1.1435
  336MOL0     H44301   8.757   0.964   5.231 -0.7226 -0.7464 -1.0981
  336MOL0     H44302   8.722   1.080   5.098  0.0652 -2.2080 -1.0503
  336MOL0     H44303   8.930   0.844   5.089 -1.5026 -1.4084 -0.0232
  336MOL0     H44304   8.905   0.980   4.972 -0.0886  0.8285  1.0311
  336MOL0     H44305   8.697   0.706   5.169  0.5497 -1.3046 -0.8111
  336MOL0     H44306   8.407   0.681   5.174 -0.8399  0.2625 -0.4694
  336MOL0     H44307   8.495   0.552   5.101  0.0399  0.9194  3.4940
  336MOL0     H44308   8.373   0.596   4.871 -0.9882  0.4181 -0.8575
  336MOL0     H44309   8.283   0.733   4.935 -0.5546 -0.1416  2.1113
  336MOL0     H44310   8.264   0.452   5.048  0.1660  0.5954  1.5767
  336MOL0     H44311   8.196   0.598   5.109  1.0369  0.2505  0.0050
  336MOL0     H44312   8.169   0.516   4.807  2.0276  0.3151  2.0967
  336MOL0     H44313   8.057   0.620   4.899 -2.5656 -0.9551  3.9205
  336MOL0     H44314   7.937   0.562   4.714  0.1165 -0.7481 -0.0601
  336MOL0     H44315   7.715   0.542   4.616  0.4997  3.4699  1.8636
  336MOL0     H44316   7.191   0.216   4.778 -1.1258 -1.2581 -0.4303
  336MOL0     H44317   7.031   0.172   4.618  0.3647  1.2075  1.5155
  336MOL0     H44318   7.145   0.169   4.187 -0.0777 -1.2886  0.9171
  336MOL0     H44319   7.031   0.303   4.173 -0.4650 -0.6792 -2.4152
  336MOL0     H44320   6.942   0.018   4.203  3.2998  0.5801 -2.2433
  336MOL0     H44321   6.948   0.105   4.054 -1.7151  2.2706 -0.7805
  336MOL0     H44322   6.749   0.243   4.102 -1.2411 -1.1249  0.2406
  336MOL0     H44323   6.759   0.216   4.275  0.1714  1.1875 -0.3015
  336MOL0     H44324   6.726  -0.043   4.162  0.0741 -0.4927  1.6869
  336MOL0     H44325   6.635   0.057   4.275 -1.6357  1.2486 -0.4822
  336MOL0     H44326   6.629   0.067   3.970 -0.2369 -2.0913  0.3574
  336MOL0     H44327   6.512   0.150   4.069 -1.0950 -0.8504 -1.4216
  336MOL0     H44328   6.440  -0.069   4.183 -0.3772 -2.5770  0.0933
  336MOL0     H44329   6.531  -0.151   4.069  3.6081  0.9848  1.5928
  336MOL0     H44330   6.381  -0.074   3.882  3.3542  2.3979  1.0982
  336MOL0     H44331   6.287  -0.146   4.006  0.5162 -0.3592  0.2969
  336MOL0     H44332   6.304   0.135   3.937  0.1107  0.6456 -0.2218
  336MOL0     H44333   6.257   0.083   4.107 -5.3208  2.1137 -0.5705
  336MOL0     H44334   7.275   0.307   4.291  2.3791  0.7100  0.1286
  336MOL0     H44335   7.457   0.330   4.447 -0.7725  1.0958 -1.1674
  336MOL0     H44336   7.609   0.257   4.921 -0.6035  1.5220  1.9756
  336MOL0     H44337   7.838   0.283   5.018 -2.2097 -3.3049 -1.4220
  336MOL0     H44338   9.542   1.474   5.166 -0.1468  0.8070 -0.0463
  336MOL0     H44339   9.636   1.521   4.960 -0.1792  0.4025 -1.3796
  336MOL0     H44340   9.650   1.496   4.588 -1.2384  0.7198  1.6575
  336MOL0     H44341   9.758   1.464   4.367  1.4923  0.2675 -0.3223
  336MOL0     H44342   9.717   1.428   4.136 -3.2738  1.7904  1.1524
  336MOL0     H44343   9.856   1.523   4.169 -2.0118  0.5898  4.0698
  336MOL0     H44344   9.840   1.434   3.910  0.2975 -0.0849 -1.2709
  336MOL0     H44345   9.711   1.554   3.901 -0.9500  0.0264  1.1548
  336MOL0     H44346  10.013   1.558   3.967  1.0055  0.2155  1.5070
  336MOL0     H44347   9.921   1.704   4.016  1.1859 -0.2124  0.9729
  336MOL0     H44348   9.951   1.608   3.731  0.6752  5.3318 -4.8857
  336MOL0     H44349   9.844   1.730   3.791 -2.3230 -3.9965 -0.5441
  336MOL0     H44350  10.169   1.967   3.751 -2.9428  1.4749 -1.5849
  336MOL0     H44351   9.521   1.784   4.205 -1.4983 -1.6438 -0.3439
  336MOL0     H44352   9.381   1.789   4.421 -2.4138 -1.1694 -0.0319
  337MOL0     O44353   0.571   1.340   7.369  0.0901  0.0105  0.5207
  337MOL0     C44354   0.586   1.282   7.480  1.1062 -0.2159  0.1521
  337MOL0     O44355   0.485   1.202   7.529 -0.0324 -0.4635 -0.4077
  337MOL0     C44356   0.378   1.155   7.457 -0.0357 -0.2394  1.2946
  337MOL0     C44357   0.300   1.234   7.374  0.5973 -0.2196  0.8977
  337MOL0     C44358   0.185   1.176   7.315 -0.4758  0.4037  0.4275
  337MOL0     C44359   0.160   1.035   7.332  0.1833 -0.2217  0.1435
  337MOL0     O44360   0.058   0.983   7.254 -0.1409 -0.1759 -0.0410
  337MOL0     C44361   0.012   0.847   7.276 -0.8359  0.2034  0.1072
  337MOL0     C44362  -0.114   0.806   7.203  0.2189 -0.4066  0.1570
  337MOL0     C44363  -0.107   0.752   7.055 -0.0969  0.7464 -0.2131
  337MOL0     C44364   0.002   0.816   6.965 -0.7086  0.3189  0.3831
  337MOL0     C44365  -0.033   0.797   6.813 -0.5825  0.2905  0.0391
  337MOL0     C44366   0.054   0.906   6.737 -0.7921  0.1625  1.2793
  337MOL0     C44367   0.013   0.897   6.582  0.1855  0.3181  0.1834
  337MOL0     C44368  -0.130   0.950   6.547  0.8251  0.5511 -0.2204
  337MOL0     N44369  -0.152   0.939   6.404  0.5550  1.0103  0.0787
  337MOL0     C44370  -0.069   0.968   6.303 -0.0044  0.3694  0.0658
  337MOL0     C44371  -0.142   0.954   6.188  0.7265  1.5393 -0.1105
  337MOL0     C44372  -0.092   0.974   6.045 -0.1586  0.3205  0.7323
  337MOL0     C44373  -0.043   1.116   6.007  0.6877  0.1565 -0.3710
  337MOL0     C44374  -0.156   1.214   5.963 -0.0470  0.6642 -0.6164
  337MOL0     C44375  -0.257   1.231   6.071 -0.3347  0.2566  0.5900
  337MOL0     O44376  -0.323   1.350   6.049  0.6053  0.8895  0.1687
  337MOL0     C44377  -0.465   1.340   6.041 -0.7634  0.0484 -0.1667
  337MOL0     C44378  -0.529   1.458   6.055  0.2897  0.4493  0.2842
  337MOL0     C44379  -0.669   1.465   6.047  0.0385 -0.3218 -1.1396
  337MOL0     C44380  -0.755   1.358   6.022 -0.1068 -0.0942 -0.4238
  337MOL0     C44381  -0.898   1.375   6.016 -0.4386 -0.3305  0.1140
  337MOL0     O44382  -0.940   1.507   6.009 -0.4542  0.7918  0.1667
  337MOL0     C44383  -1.077   1.521   6.006 -0.5155 -0.3172 -0.8462
  337MOL0     C44384  -1.130   1.567   5.889 -0.1234  0.7356  0.0494
  337MOL0     C44385  -1.272   1.594   5.897  0.2128 -0.2766  0.5120
  337MOL0     C44386  -1.355   1.576   6.012  0.6176  0.7873  0.3495
  337MOL0     O44387  -1.491   1.606   6.018  0.0324  0.0858 -0.1403
  337MOL0     C44388  -1.538   1.714   5.924  0.1409 -0.1930 -0.6227
  337MOL0     C44389  -1.675   1.768   5.942 -0.6654  0.5369  0.4373
  337MOL0     C44390  -1.686   1.882   5.849 -0.2826  0.4808  0.3129
  337MOL0     C44391  -1.818   1.960   5.853  0.1567  0.3097  1.3207
  337MOL0     C44392  -1.943   1.874   5.850 -0.2983  0.2593 -0.0139
  337MOL0     C44393  -2.064   1.952   5.785 -0.2741  0.1220 -0.0544
  337MOL0     C44394  -2.185   1.857   5.753  0.7886  0.6063  0.3442
  337MOL0     C44395  -2.199   1.802   5.605 -0.8474 -0.2910 -0.1050
  337MOL0    Cl44396  -2.344   1.694   5.581  0.2200  0.3742  0.3697
  337MOL0     C44397  -1.295   1.528   6.124 -0.3559  0.2223 -0.1263
  337MOL0     C44398  -1.156   1.496   6.123  0.0684  0.8667 -0.7309
  337MOL0     O44399  -0.972   1.272   6.028 -0.4745 -0.6165 -0.3293
  337MOL0     C44400  -0.689   1.231   6.002  0.4375 -1.0949  0.0678
  337MOL0     C44401  -0.543   1.228   6.015  0.2765  0.5722 -0.7275
  337MOL0     N44402  -0.263   0.897   6.230  0.0832  0.6232  0.1700
  337MOL0     N44403  -0.269   0.895   6.360  0.6334  0.7439  0.3487
  337MOL0     C44404   0.234   0.960   7.419 -0.3269 -1.0515 -1.0583
  337MOL0     C44405   0.332   1.025   7.481 -1.0429 -0.5917 -0.2814
  337MOL0     C44406   0.705   1.300   7.564 -0.7798  0.6462  0.6799
  337MOL0     C44407   0.720   1.208   7.673 -0.2786 -0.4322 -0.4052
  337MOL0     C44408   0.839   1.220   7.755  0.7327  0.3080 -0.0788
  337MOL0     C44409   0.921   1.333   7.747 -0.6655  0.3265 -0.6248
  337MOL0     O44410   1.018   1.370   7.851  0.0404 -0.2201  0.2691
  337MOL0     C44411   1.063   1.512   7.852 -0.0174  0.2797  0.9617
  337MOL0     C44412   1.160   1.518   7.969  0.2558  0.6396  0.4184
  337MOL0     C44413   1.175   1.654   8.029  0.3369 -0.7662 -0.3048
  337MOL0     C44414   1.285   1.668   8.135 -0.2168 -0.4176  1.1106
  337MOL0     C44415   1.257   1.582   8.248  0.3856  1.1286 -1.6210
  337MOL0     C44416   1.244   1.506   8.344  0.1771 -0.6060  0.5004
  337MOL0     C44417   0.898   1.422   7.632  0.0921  0.4303  0.0774
  337MOL0     C44418   0.790   1.409   7.545 -0.2089  0.2922  0.3779
  337MOL0     H44419   0.331   1.338   7.363  3.7251 -1.3262 -3.4426
  337MOL0     H44420   0.112   1.222   7.249 -0.4035 -2.0769 -1.5116
  337MOL0     H44421  -0.008   0.846   7.384 -2.3537  0.1479 -0.1585
  337MOL0     H44422   0.095   0.778   7.258 -1.2955 -0.5934  0.9326
  337MOL0     H44423  -0.177   0.895   7.205  0.3740 -0.2953  0.0528
  337MOL0     H44424  -0.168   0.730   7.260 -1.1599  1.0309  0.8480
  337MOL0     H44425  -0.204   0.781   7.014 -1.3050  1.0073  2.6021
  337MOL0     H44426  -0.105   0.642   7.055  2.3649  0.6699 -3.2502
  337MOL0     H44427  -0.010   0.923   6.986  0.1425  0.7598 -1.2250
  337MOL0     H44428   0.101   0.788   7.001 -2.1553 -1.5854  3.3389
  337MOL0     H44429  -0.139   0.814   6.794 -0.4597 -0.6770 -1.7481
  337MOL0     H44430   0.005   0.699   6.785  1.0395 -0.4052  3.9150
  337MOL0     H44431   0.161   0.886   6.753 -0.8650 -1.8113 -0.2642
  337MOL0     H44432   0.035   1.007   6.774  1.2212  2.6617 -3.5375
  337MOL0     H44433   0.083   0.958   6.524 -0.3575  0.3526 -0.4609
  337MOL0     H44434   0.035   0.798   6.541  2.0748 -0.2436  2.3797
  337MOL0     H44435  -0.134   1.054   6.579  0.3916 -0.3835  3.1510
  337MOL0     H44436  -0.198   0.887   6.605  3.5650 -0.7980  1.8113
  337MOL0     H44437   0.035   0.999   6.298  0.8644 -2.0706  1.4412
  337MOL0     H44438  -0.168   0.933   5.978 -0.6737 -1.4400  2.2837
  337MOL0     H44439  -0.013   0.898   6.045 -0.3726 -0.0511 -2.6717
  337MOL0     H44440   0.013   1.103   5.914  0.1947 -0.9219 -0.5277
  337MOL0     H44441   0.005   1.148   6.100 -1.8342  0.7164  0.8366
  337MOL0     H44442  -0.104   1.307   5.937  5.6321 -2.1340 -0.7403
  337MOL0     H44443  -0.201   1.168   5.875  3.1676 -0.6769 -1.7179
  337MOL0     H44444  -0.224   1.216   6.174 -0.0320 -0.6237  0.3764
  337MOL0     H44445  -0.316   1.140   6.053  2.8601 -1.1728 -4.9474
  337MOL0     H44446  -0.464   1.542   6.079  0.3245  0.7490 -0.7746
  337MOL0     H44447  -0.708   1.565   6.063  0.5536 -0.5443  2.1218
  337MOL0     H44448  -1.078   1.597   5.799 -1.9071 -0.3926 -1.4374
  337MOL0     H44449  -1.321   1.617   5.802 -1.5099  1.0831  1.6643
  337MOL0     H44450  -1.527   1.678   5.821 -0.1964  1.2957 -1.2088
  337MOL0     H44451  -1.463   1.792   5.942 -0.6565  1.2204 -3.0037
  337MOL0     H44452  -1.680   1.806   6.045  4.1667 -0.4448  1.2471
  337MOL0     H44453  -1.759   1.699   5.928  0.1410  0.0652 -2.8447
  337MOL0     H44454  -1.663   1.857   5.745 -0.5242  2.5772 -0.2957
  337MOL0     H44455  -1.601   1.947   5.871  0.2494  0.4458 -1.4498
  337MOL0     H44456  -1.815   2.028   5.938 -2.1089  0.2337  1.5234
  337MOL0     H44457  -1.828   2.023   5.764 -2.3264  0.3932  1.5802
  337MOL0     H44458  -1.971   1.855   5.954  0.1489  0.9392  0.2313
  337MOL0     H44459  -1.914   1.784   5.795 -0.0708  2.0128 -2.9353
  337MOL0     H44460  -2.051   2.004   5.690 -4.0624 -0.2277 -0.8931
  337MOL0     H44461  -2.095   2.029   5.856 -1.4570 -0.9333  0.6174
  337MOL0     H44462  -2.182   1.767   5.815  0.2760 -0.1157 -0.6425
  337MOL0     H44463  -2.275   1.906   5.790  0.6362  0.5394  0.0697
  337MOL0     H44464  -2.105   1.747   5.591 -0.6857  0.5006 -2.6152
  337MOL0     H44465  -2.196   1.880   5.529  1.5729 -0.4544 -0.2478
  337MOL0     H44466  -1.350   1.516   6.217  1.0940  2.6891  1.1450
  337MOL0     H44467  -1.124   1.456   6.218  0.2927  1.2494 -0.6419
  337MOL0     H44468  -0.741   1.145   5.960  0.6078 -0.4625 -1.4797
  337MOL0     H44469  -0.510   1.126   5.997 -0.4085  0.4388 -1.2741
  337MOL0     H44470   0.203   0.861   7.451  1.6402 -1.5142 -0.4168
  337MOL0     H44471   0.376   0.973   7.566 -0.4324 -2.3791 -1.6167
  337MOL0     H44472   0.645   1.129   7.676 -4.0555  2.6154 -3.6907
  337MOL0     H44473   0.878   1.145   7.823 -0.0872 -1.7516 -1.7596
  337MOL0     H44474   0.974   1.571   7.873 -0.7200 -0.7284  0.8570
  337MOL0     H44475   1.103   1.537   7.753 -0.7995  0.4111  0.6749
  337MOL0     H44476   1.128   1.437   8.036  2.2282 -1.9633 -1.5604
  337MOL0     H44477   1.250   1.467   7.934 -1.6671 -0.7352 -3.0706
  337MOL0     H44478   1.081   1.690   8.071  1.2950 -0.9487  2.1352
  337MOL0     H44479   1.189   1.713   7.938  2.2129 -1.7838 -0.7398
  337MOL0     H44480   1.380   1.633   8.094  1.4463  3.3633  1.3470
  337MOL0     H44481   1.305   1.771   8.163  1.8740 -0.7670  1.0649
  337MOL0     H44482   1.235   1.437   8.425  1.0761 -0.9298  0.3341
  337MOL0     H44483   0.965   1.504   7.610 -1.0461  0.9129 -1.7878
  337MOL0     H44484   0.786   1.469   7.455  1.9071 -1.3094 -0.8903
  338MOL0     O44485   7.008   4.319  10.867 -0.4124 -0.4273 -0.0692
  338MOL0     C44486   6.996   4.390  10.972 -0.5477  0.5741 -0.4803
  338MOL0     O44487   7.099   4.405  11.062  0.2463  0.2177 -0.6089
  338MOL0     C44488   7.231   4.378  11.037  0.1705  0.1280  1.0422
  338MOL0     C44489   7.313   4.335  11.139 -0.8098 -0.1525  0.2342
  338MOL0     C44490   7.452   4.336  11.119 -0.1057  0.5202 -0.1486
  338MOL0     C44491   7.500   4.370  10.991  0.7215 -0.5196  0.3576
  338MOL0     O44492   7.638   4.354  10.976 -0.1028  0.0744  0.2792
  338MOL0     C44493   7.685   4.282  10.860  0.0802  1.0046 -0.6899
  338MOL0     C44494   7.845   4.274  10.856  0.0413  0.5736 -0.2813
  338MOL0     C44495   7.907   4.406  10.889 -0.1416 -1.0185  0.2475
  338MOL0     C44496   8.068   4.384  10.907  0.2248 -0.9678 -0.1281
  338MOL0     C44497   8.139   4.522  10.913 -0.6722 -1.0687  0.0894
  338MOL0     C44498   8.098   4.613  11.027  0.7405 -0.0191 -0.0691
  338MOL0     C44499   8.133   4.544  11.158  0.3746  0.2383  0.7948
  338MOL0     C44500   8.100   4.646  11.273 -0.4092  0.8708  0.7630
  338MOL0     N44501   7.956   4.665  11.296  1.0574  0.3637 -0.4076
  338MOL0     C44502   7.865   4.757  11.254 -0.2078 -0.4169 -0.2332
  338MOL0     C44503   7.747   4.727  11.309 -0.5574 -0.1645  0.7122
  338MOL0     C44504   7.626   4.805  11.297  0.3070  0.0456  0.0932
  338MOL0     C44505   7.565   4.771  11.164  1.1733 -0.5001 -0.0921
  338MOL0     C44506   7.431   4.842  11.132 -0.1792 -0.1764 -0.2841
  338MOL0     C44507   7.302   4.768  11.164 -0.2775 -0.7403  0.4497
  338MOL0     O44508   7.193   4.858  11.170 -0.7070 -0.0371  0.5522
  338MOL0     C44509   7.089   4.828  11.086  0.7650 -0.6413 -0.0711
  338MOL0     C44510   6.965   4.876  11.135 -0.1106 -0.6318  0.9120
  338MOL0     C44511   6.849   4.856  11.065 -0.1827  0.5558  0.6674
  338MOL0     C44512   6.847   4.794  10.930 -0.4253 -0.1700  0.3229
  338MOL0     C44513   6.727   4.803  10.846  0.2649  0.3862  1.4311
  338MOL0     O44514   6.621   4.862  10.909  0.2485  0.0037  0.0824
  338MOL0     C44515   6.500   4.867  10.842 -0.0222  0.3957 -0.2629
  338MOL0     C44516   6.435   4.987  10.814  0.4790 -0.6384 -0.1747
  338MOL0     C44517   6.305   4.994  10.750  0.1828 -0.0870 -0.7691
  338MOL0     C44518   6.237   4.877  10.718  0.4734  0.3534  0.6638
  338MOL0     O44519   6.119   4.887  10.650  0.7439 -0.2640  0.4689
  338MOL0     C44520   6.118   4.813  10.531 -0.0784  0.2990 -0.3325
  338MOL0     C44521   6.047   4.887  10.419 -0.4099  0.5044  0.2759
  338MOL0     C44522   5.897   4.877  10.422  0.5963  0.0758 -1.1959
  338MOL0     C44523   5.832   4.968  10.319  0.3691 -0.5172 -0.2954
  338MOL0     C44524   5.682   4.963  10.304 -0.7358  0.8235 -0.1776
  338MOL0     C44525   5.624   5.059  10.196 -0.2972 -0.9053 -0.3665
  338MOL0     C44526   5.472   5.060  10.192  0.2734 -0.8329  0.2859
  338MOL0     C44527   5.422   5.157  10.096  0.0762 -1.3321  0.1920
  338MOL0    Cl44528   5.439   5.312  10.164  0.1760  0.0231 -0.0205
  338MOL0     C44529   6.303   4.759  10.742  0.5414 -0.9457 -0.3282
  338MOL0     C44530   6.435   4.752  10.803  0.1629 -0.2056  0.1758
  338MOL0     O44531   6.720   4.757  10.732  0.0364  0.3194 -1.0501
  338MOL0     C44532   6.969   4.740  10.886 -0.2425 -0.4456 -0.4399
  338MOL0     C44533   7.087   4.755  10.964  0.0555 -0.0451  0.3782
  338MOL0     N44534   7.772   4.619  11.396 -0.6383  1.2554  0.3964
  338MOL0     N44535   7.890   4.571  11.371  0.6284 -0.4717 -0.3955
  338MOL0     C44536   7.425   4.412  10.888  0.0831 -0.2146 -0.7611
  338MOL0     C44537   7.290   4.422  10.919  0.7547 -0.3201 -0.7501
  338MOL0     C44538   6.862   4.442  10.995  0.3482  0.1940  0.3298
  338MOL0     C44539   6.763   4.419  10.896  0.7197  0.0689  0.1269
  338MOL0     C44540   6.634   4.460  10.912  0.1782 -0.3606 -0.0068
  338MOL0     C44541   6.600   4.525  11.029 -0.2706 -0.4349 -0.1829
  338MOL0     O44542   6.472   4.556  11.038 -0.0599  0.3101  0.2475
  338MOL0     C44543   6.432   4.638  11.146  0.2298  0.1416 -0.2150
  338MOL0     C44544   6.286   4.683  11.106  0.2548  0.4792  0.3303
  338MOL0     C44545   6.200   4.558  11.092  0.1259  0.1398  0.1375
  338MOL0     C44546   6.040   4.578  11.102 -0.4691 -0.3480 -0.1068
  338MOL0     C44547   5.977   4.607  10.973  0.4778  0.3032  0.5886
  338MOL0     C44548   5.920   4.644  10.870 -0.0872  0.4631  0.0385
  338MOL0     C44549   6.691   4.537  11.131 -0.6354 -1.4996  0.5938
  338MOL0     C44550   6.816   4.489  11.114  1.1310  0.4907 -0.4616
  338MOL0     H44551   7.270   4.308  11.235  0.3067  0.1219  0.8237
  338MOL0     H44552   7.524   4.297  11.190  1.2109 -2.0919 -2.7327
  338MOL0     H44553   7.652   4.330  10.767  1.3657 -1.4567 -2.5667
  338MOL0     H44554   7.650   4.179  10.868 -1.4044  1.5243 -0.1864
  338MOL0     H44555   7.862   4.233  10.756 -0.7060  1.9132 -0.9964
  338MOL0     H44556   7.888   4.208  10.931  1.4919  3.1148  1.2480
  338MOL0     H44557   7.873   4.459  10.978  0.8336  3.6316 -1.8323
  338MOL0     H44558   7.881   4.472  10.806 -0.8894 -1.8535 -0.2129
  338MOL0     H44559   8.089   4.331  11.000 -0.2795 -0.2727  0.3955
  338MOL0     H44560   8.103   4.323  10.823 -2.8065 -0.4489 -1.9248
  338MOL0     H44561   8.117   4.577  10.821  1.8008 -1.8362 -1.0393
  338MOL0     H44562   8.247   4.506  10.916 -0.2169  1.7128  0.9594
  338MOL0     H44563   7.997   4.654  11.014  1.7091  2.7419  0.2998
  338MOL0     H44564   8.164   4.700  11.017 -2.3586  2.5306 -0.0799
  338MOL0     H44565   8.077   4.450  11.167  2.3236 -1.0168  0.6037
  338MOL0     H44566   8.242   4.531  11.156  0.3791  0.0933 -1.6919
  338MOL0     H44567   8.150   4.742  11.257 -1.4312  0.9019 -3.4410
  338MOL0     H44568   8.137   4.602  11.367 -4.2576 -2.3488  1.0362
  338MOL0     H44569   7.892   4.850  11.206  0.0526  0.7720  2.0732
  338MOL0     H44570   7.663   4.907  11.306  2.3328 -0.5570 -0.7735
  338MOL0     H44571   7.565   4.787  11.386  1.0872  3.9929  1.6267
  338MOL0     H44572   7.555   4.663  11.152 -0.2195 -0.4295  0.2181
  338MOL0     H44573   7.627   4.804  11.081 -1.3784  0.3100 -1.8176
  338MOL0     H44574   7.434   4.942  11.177 -0.8520 -0.5239  0.5485
  338MOL0     H44575   7.426   4.848  11.023 -0.5399 -2.4588 -0.4405
  338MOL0     H44576   7.309   4.728  11.266 -0.6488 -1.8532  0.0536
  338MOL0     H44577   7.288   4.679  11.101  0.4417  0.1651 -1.0288
  338MOL0     H44578   6.950   4.926  11.231 -3.5836  0.9206 -0.2486
  338MOL0     H44579   6.761   4.900  11.110 -2.4190 -3.6138  0.8935
  338MOL0     H44580   6.482   5.080  10.845  1.1557  0.0674 -2.9585
  338MOL0     H44581   6.257   5.091  10.738  0.1809 -0.0274 -0.2795
  338MOL0     H44582   6.062   4.722  10.557  0.2968  0.1333 -0.0809
  338MOL0     H44583   6.216   4.801  10.485 -0.8241  2.8436 -2.8573
  338MOL0     H44584   6.067   4.823  10.333 -1.9044 -0.3394  0.5106
  338MOL0     H44585   6.079   4.991  10.412 -0.3285  0.3684 -1.9723
  338MOL0     H44586   5.863   4.910  10.521 -0.5691  3.6280 -2.6433
  338MOL0     H44587   5.875   4.772  10.401  0.4018 -0.2570  0.5016
  338MOL0     H44588   5.855   5.073  10.335 -0.4952 -0.2854 -0.5277
  338MOL0     H44589   5.883   4.936  10.227  0.6034 -1.9872  0.3194
  338MOL0     H44590   5.634   4.977  10.402 -1.5267  0.9229 -0.5686
  338MOL0     H44591   5.659   4.863  10.268  1.7335  0.2372 -0.2669
  338MOL0     H44592   5.665   5.034  10.098  1.2870 -2.0702  0.5534
  338MOL0     H44593   5.647   5.164  10.216 -0.9243  0.1074 -4.1476
  338MOL0     H44594   5.430   4.959  10.182  0.6768 -1.1529  1.5328
  338MOL0     H44595   5.434   5.101  10.286  0.2119  0.2307 -0.1979
  338MOL0     H44596   5.313   5.161  10.090  0.0008  1.4959  1.7593
  338MOL0     H44597   5.457   5.153   9.992 -1.9189 -0.1174 -0.5759
  338MOL0     H44598   6.245   4.670  10.717 -1.3358  1.0430 -3.8765
  338MOL0     H44599   6.464   4.654  10.840 -3.2005 -1.6110 -0.5450
  338MOL0     H44600   6.957   4.690  10.791 -2.4878  1.1794 -1.1238
  338MOL0     H44601   7.183   4.719  10.928 -1.0634 -1.9285 -0.9505
  338MOL0     H44602   7.464   4.450  10.794  0.2514  0.9998 -0.2194
  338MOL0     H44603   7.231   4.478  10.847  0.2169 -2.8430 -2.3812
  338MOL0     H44604   6.779   4.349  10.815  1.9235  0.3975  0.0552
  338MOL0     H44605   6.565   4.453  10.830 -1.8028 -1.3977  1.6692
  338MOL0     H44606   6.497   4.724  11.165  2.0350 -1.5173  1.6949
  338MOL0     H44607   6.439   4.580  11.239  3.4643  3.4523  1.8519
  338MOL0     H44608   6.230   4.738  11.182  0.0677 -1.4289  1.6279
  338MOL0     H44609   6.299   4.745  11.016 -0.4265 -1.6560 -1.3408
  338MOL0     H44610   6.238   4.495  11.173  4.1698  0.2525 -1.4080
  338MOL0     H44611   6.230   4.508  10.999  3.4261 -2.9775  2.6194
  338MOL0     H44612   5.996   4.487  11.142  1.0572  0.0520  2.7993
  338MOL0     H44613   6.021   4.653  11.180  3.1873  0.4936  0.1946
  338MOL0     H44614   5.860   4.676  10.787  0.3037  1.5253  0.1487
  338MOL0     H44615   6.661   4.581  11.226 -1.7324  0.8578 -0.7426
  338MOL0     H44616   6.884   4.502  11.197 -0.0468 -1.4707  0.9123
  339MOL0     O44617   4.612   4.103   4.539 -0.2967  0.3028  0.3218
  339MOL0     C44618   4.642   3.992   4.548 -0.2637  0.3334 -0.3089
  339MOL0     O44619   4.577   3.890   4.486  0.2554 -0.1582 -0.2917
  339MOL0     C44620   4.441   3.900   4.462 -0.1282  0.0098  0.0374
  339MOL0     C44621   4.368   3.780   4.463 -0.1693  0.1407 -0.0811
  339MOL0     C44622   4.231   3.781   4.424 -0.6449 -0.1668 -0.1345
  339MOL0     C44623   4.164   3.900   4.391 -0.2360  0.8967  0.0791
  339MOL0     O44624   4.032   3.891   4.338 -0.4749 -0.3686  0.1622
  339MOL0     C44625   3.940   3.969   4.405  0.2202  0.1290 -0.0498
  339MOL0     C44626   3.799   3.947   4.344  0.0736  0.7837 -0.3473
  339MOL0     C44627   3.735   3.806   4.359  0.3556  0.3121  0.5464
  339MOL0     C44628   3.610   3.794   4.278  0.0157 -0.3364 -0.3129
  339MOL0     C44629   3.545   3.655   4.262 -0.0379  0.3111 -0.6253
  339MOL0     C44630   3.427   3.674   4.172 -0.7800 -0.7060  0.9258
  339MOL0     C44631   3.319   3.574   4.174  0.0820  1.0823 -0.7627
  339MOL0     C44632   3.344   3.455   4.086 -1.2662  0.1741  0.5910
  339MOL0     N44633   3.355   3.486   3.942 -0.4693  0.0257  0.8254
  339MOL0     C44634   3.249   3.486   3.856 -0.5205 -0.0835  0.4454
  339MOL0     C44635   3.303   3.503   3.736 -0.1878  0.3168 -0.4613
  339MOL0     C44636   3.231   3.503   3.604 -0.2735  0.5998  0.8032
  339MOL0     C44637   3.238   3.374   3.523  0.1879  0.9718  0.3454
  339MOL0     C44638   3.381   3.333   3.486  0.0589  0.5552  0.2035
  339MOL0     C44639   3.480   3.438   3.423  0.4374 -0.5237 -0.0812
  339MOL0     O44640   3.597   3.370   3.366  0.4873 -0.3001  0.3213
  339MOL0     C44641   3.702   3.325   3.450  0.5572 -0.6982 -0.4608
  339MOL0     C44642   3.718   3.350   3.590  0.2291 -0.1319  0.2142
  339MOL0     C44643   3.831   3.310   3.650  0.0252 -0.4928  0.0064
  339MOL0     C44644   3.933   3.240   3.579  0.2977 -0.5533  0.1613
  339MOL0     C44645   4.050   3.189   3.650  0.3195  0.4830  0.2295
  339MOL0     O44646   4.114   3.093   3.586 -0.3309  0.8946 -0.8949
  339MOL0     C44647   4.236   3.050   3.643 -0.0281 -0.2868 -0.3354
  339MOL0     C44648   4.355   3.111   3.601  0.1160  0.5918 -0.5035
  339MOL0     C44649   4.479   3.069   3.650  0.0133  0.3948  0.8004
  339MOL0     C44650   4.479   2.989   3.767  0.4257 -0.2427 -0.2123
  339MOL0     O44651   4.596   2.942   3.822  0.3251 -0.0132  0.8644
  339MOL0     C44652   4.687   3.050   3.853  0.1299 -0.1318  0.2495
  339MOL0     C44653   4.819   2.991   3.897  0.3458 -0.2330  0.6246
  339MOL0     C44654   4.898   3.099   3.979  0.2270  0.2760 -0.3694
  339MOL0     C44655   4.991   3.024   4.068  0.4000 -0.1919 -0.2250
  339MOL0     C44656   5.082   3.112   4.142 -0.2915 -0.1505  1.5439
  339MOL0     C44657   5.192   3.032   4.218  0.1866  0.2946 -0.8433
  339MOL0     C44658   5.305   3.124   4.272  0.0989  0.2198 -0.0007
  339MOL0     C44659   5.432   3.047   4.265 -0.2524  0.1991 -0.5725
  339MOL0    Cl44660   5.405   2.908   4.389 -0.5975 -0.1989  0.4035
  339MOL0     C44661   4.364   2.925   3.807  0.1385  0.0774  0.4296
  339MOL0     C44662   4.246   2.949   3.738 -0.2540  0.6335 -0.5629
  339MOL0     O44663   4.077   3.234   3.762 -0.1337 -0.3114 -0.0126
  339MOL0     C44664   3.917   3.219   3.436  0.2294  0.2779 -0.5306
  339MOL0     C44665   3.806   3.266   3.375  0.1482  0.1215 -0.4420
  339MOL0     N44666   3.438   3.512   3.749 -0.3335 -0.1143 -0.1956
  339MOL0     N44667   3.472   3.491   3.872 -0.1829 -0.1226 -0.6225
  339MOL0     C44668   4.241   4.023   4.375  0.8446  0.2711 -0.7256
  339MOL0     C44669   4.378   4.018   4.409 -0.6999 -0.2149 -0.0217
  339MOL0     C44670   4.761   3.957   4.625  0.7444 -0.1556  1.0135
  339MOL0     C44671   4.858   4.053   4.643 -0.0385 -0.6420  0.0988
  339MOL0     C44672   4.976   4.007   4.700  0.1241 -0.4265 -0.9530
  339MOL0     C44673   4.992   3.883   4.757 -0.1315 -0.1946  0.3837
  339MOL0     O44674   5.102   3.864   4.833  0.5468 -0.1713 -0.7095
  339MOL0     C44675   5.186   3.759   4.788  0.4733  0.3000  0.5645
  339MOL0     C44676   5.333   3.807   4.793  0.2281 -0.4341  0.2087
  339MOL0     C44677   5.389   3.790   4.935  0.3044  0.5241 -0.4374
  339MOL0     C44678   5.543   3.796   4.931 -0.8221 -0.1394 -0.4223
  339MOL0     C44679   5.599   3.672   4.877  1.2762 -0.4229  0.4966
  339MOL0     C44680   5.644   3.573   4.830 -0.4593  0.1644  0.0167
  339MOL0     C44681   4.901   3.785   4.735 -1.5872  0.5813 -0.5968
  339MOL0     C44682   4.787   3.824   4.670 -0.2143 -0.2101  0.6363
  339MOL0     H44683   4.412   3.687   4.499  0.9045  1.6390  2.7880
  339MOL0     H44684   4.175   3.688   4.415 -3.6644  1.5612 -0.6400
  339MOL0     H44685   3.959   4.076   4.416  2.5517 -0.0373 -1.7774
  339MOL0     H44686   3.937   3.928   4.506  0.9458 -3.4851 -1.3470
  339MOL0     H44687   3.812   3.961   4.237 -0.8993 -0.3072 -0.6338
  339MOL0     H44688   3.727   4.024   4.375  0.5478  0.7519  0.8865
  339MOL0     H44689   3.700   3.788   4.461 -1.7710  2.1116  0.2135
  339MOL0     H44690   3.797   3.725   4.320 -3.6605 -1.9183 -1.7998
  339MOL0     H44691   3.538   3.860   4.328  1.1599  2.6249 -2.3090
  339MOL0     H44692   3.623   3.833   4.177 -1.6281 -0.4586 -0.6031
  339MOL0     H44693   3.501   3.638   4.360 -0.2399  2.5564 -0.2878
  339MOL0     H44694   3.613   3.588   4.208 -0.3326  0.9779 -1.8692
  339MOL0     H44695   3.472   3.679   4.073  0.3179  0.6035  1.4645
  339MOL0     H44696   3.383   3.773   4.182 -1.2504 -0.8766  0.5794
  339MOL0     H44697   3.307   3.544   4.279  1.4901  2.8558 -0.0400
  339MOL0     H44698   3.218   3.610   4.150 -2.1132 -2.9011  1.4007
  339MOL0     H44699   3.270   3.377   4.106  0.1852 -0.8342  2.3794
  339MOL0     H44700   3.442   3.422   4.124 -0.7333  2.4893  1.3801
  339MOL0     H44701   3.142   3.499   3.869 -1.0174  2.4700 -4.0527
  339MOL0     H44702   3.262   3.582   3.535 -0.5644  1.5582  1.7433
  339MOL0     H44703   3.124   3.521   3.618 -0.5991  0.3503 -1.0868
  339MOL0     H44704   3.183   3.385   3.429  3.6783  0.5538 -1.9424
  339MOL0     H44705   3.199   3.282   3.568 -1.5063  0.1559 -2.5682
  339MOL0     H44706   3.419   3.292   3.579  0.2423  1.1069  0.3740
  339MOL0     H44707   3.366   3.262   3.403  0.5944  2.8848 -2.0212
  339MOL0     H44708   3.517   3.517   3.488  2.9105  0.5062 -2.5286
  339MOL0     H44709   3.431   3.493   3.342  1.9130  2.0175  0.6387
  339MOL0     H44710   3.636   3.398   3.642 -0.8172 -0.1299 -1.3509
  339MOL0     H44711   3.841   3.332   3.756 -2.5230  2.4040 -0.1848
  339MOL0     H44712   4.364   3.182   3.519 -0.4778 -1.7779 -2.7861
  339MOL0     H44713   4.568   3.089   3.592 -1.7088  0.7643 -1.9229
  339MOL0     H44714   4.641   3.099   3.939  0.6766 -2.6676  2.0829
  339MOL0     H44715   4.704   3.119   3.770 -0.9789  0.8721  0.8244
  339MOL0     H44716   4.861   2.947   3.805 -1.4194 -1.2463  0.2584
  339MOL0     H44717   4.802   2.899   3.953 -3.8406  0.4476  0.7611
  339MOL0     H44718   4.824   3.145   4.045  0.1875  1.2503 -1.0585
  339MOL0     H44719   4.953   3.176   3.924  3.2352 -1.6631 -0.3133
  339MOL0     H44720   4.942   2.953   4.136  1.4558 -1.9243 -1.1891
  339MOL0     H44721   5.044   2.963   3.994  2.0218  3.4617 -2.2936
  339MOL0     H44722   5.018   3.150   4.222 -0.3223 -0.8408  1.8533
  339MOL0     H44723   5.109   3.198   4.080 -1.1536  0.2544  1.7136
  339MOL0     H44724   5.237   2.960   4.149 -2.7230 -1.2509 -1.3107
  339MOL0     H44725   5.149   2.980   4.304  1.8071  2.6935  1.5670
  339MOL0     H44726   5.334   3.205   4.203 -2.6501  0.5021 -0.9626
  339MOL0     H44727   5.283   3.167   4.370  2.2467 -0.1858  0.7175
  339MOL0     H44728   5.522   3.107   4.280 -0.0285 -0.5996  1.4858
  339MOL0     H44729   5.436   3.004   4.164 -2.1315  0.5706 -0.8435
  339MOL0     H44730   4.362   2.861   3.894  0.3924 -0.5855 -0.0491
  339MOL0     H44731   4.154   2.904   3.771  0.2831  0.1523  0.3083
  339MOL0     H44732   3.976   3.157   3.369  3.2257  2.4330 -0.0459
  339MOL0     H44733   3.798   3.254   3.267  3.0996 -0.3598 -0.7099
  339MOL0     H44734   4.197   4.119   4.352  1.6457  1.0010  0.6446
  339MOL0     H44735   4.434   4.106   4.378  1.1479 -0.5759  2.0167
  339MOL0     H44736   4.848   4.159   4.622 -0.2132 -0.5659  0.5525
  339MOL0     H44737   5.046   4.088   4.721 -0.1513 -0.3656 -0.2336
  339MOL0     H44738   5.161   3.719   4.689  1.0012  1.5407 -0.0940
  339MOL0     H44739   5.174   3.669   4.850  1.1478 -0.2609 -0.1035
  339MOL0     H44740   5.394   3.751   4.722  2.6213  0.4710  1.4501
  339MOL0     H44741   5.331   3.913   4.765 -1.6155  0.0222  1.8603
  339MOL0     H44742   5.352   3.699   4.982  0.5543  0.1137 -1.0303
  339MOL0     H44743   5.348   3.867   5.002  0.9993 -0.5292  1.2714
  339MOL0     H44744   5.589   3.883   4.882  1.2706  1.0802  3.3061
  339MOL0     H44745   5.570   3.807   5.036 -1.3330  2.3358 -0.4747
  339MOL0     H44746   5.684   3.484   4.786 -0.1106  0.4448 -0.2444
  339MOL0     H44747   4.905   3.685   4.778  1.9519 -0.1322 -2.1854
  339MOL0     H44748   4.716   3.743   4.655  0.6832 -1.4505  2.8095
  340MOL0     O44749   1.694   3.726   3.026 -0.3923  0.7205  0.1213
  340MOL0     C44750   1.708   3.609   3.064 -0.3740 -0.3090  0.5952
  340MOL0     O44751   1.621   3.510   3.065  0.8788  0.1054 -0.2653
  340MOL0     C44752   1.490   3.536   3.018  0.3955 -0.7337  0.5691
  340MOL0     C44753   1.415   3.648   3.058  0.1194 -0.4824 -0.2808
  340MOL0     C44754   1.286   3.664   3.000 -0.5242  0.7772 -0.7212
  340MOL0     C44755   1.227   3.583   2.910 -0.4691  0.2901  0.1255
  340MOL0     O44756   1.108   3.637   2.864 -0.4369 -0.6463  0.5383
  340MOL0     C44757   1.044   3.560   2.773  0.3911  0.3710  0.0809
  340MOL0     C44758   0.955   3.454   2.845 -0.0208 -0.1878 -0.2499
  340MOL0     C44759   0.879   3.378   2.744  0.3092  0.2380 -0.0759
  340MOL0     C44760   0.772   3.301   2.815  0.2537 -0.3829 -0.7776
  340MOL0     C44761   0.729   3.185   2.727 -0.1547  0.5210  0.0448
  340MOL0     C44762   0.627   3.224   2.621 -0.2609 -0.0468 -1.0727
  340MOL0     C44763   0.564   3.110   2.552  0.8120 -0.0478  0.0546
  340MOL0     C44764   0.659   3.064   2.453  0.6305 -0.5111 -0.4737
  340MOL0     N44765   0.633   2.926   2.411  0.1629 -0.4667  0.1244
  340MOL0     C44766   0.540   2.835   2.460 -1.0871 -0.1401  1.3411
  340MOL0     C44767   0.506   2.760   2.352 -0.7872 -0.9567 -0.4219
  340MOL0     C44768   0.409   2.655   2.352  0.8446 -0.3566 -0.1448
  340MOL0     C44769   0.318   2.656   2.221  0.8140 -0.2249  0.5006
  340MOL0     C44770   0.190   2.582   2.257 -0.5688 -0.2224  0.5093
  340MOL0     C44771   0.069   2.635   2.168 -0.1943 -0.4445  0.0039
  340MOL0     O44772   0.104   2.628   2.032 -0.6538  0.2684 -0.3156
  340MOL0     C44773   0.005   2.647   1.941  0.6557  0.8159 -0.1210
  340MOL0     C44774   0.052   2.634   1.807  0.2331  0.5412 -0.3154
  340MOL0     C44775  -0.032   2.653   1.697  0.1242  0.2725  0.1994
  340MOL0     C44776  -0.172   2.671   1.716  0.5889 -0.3186  0.3984
  340MOL0     C44777  -0.256   2.661   1.593 -0.5688 -0.5476 -0.2911
  340MOL0     O44778  -0.194   2.694   1.476 -1.2354 -0.0906 -0.5691
  340MOL0     C44779  -0.249   2.689   1.354  0.3407 -0.6577 -0.1726
  340MOL0     C44780  -0.179   2.759   1.248  0.0351  0.1095 -0.8070
  340MOL0     C44781  -0.243   2.778   1.127 -0.0292 -0.5354  0.5218
  340MOL0     C44782  -0.373   2.729   1.096  0.8567 -0.3825  0.4784
  340MOL0     O44783  -0.417   2.757   0.970  0.4997 -0.5245 -0.5211
  340MOL0     C44784  -0.509   2.669   0.906 -0.0316  0.2875 -0.6501
  340MOL0     C44785  -0.622   2.742   0.837  0.5554 -0.1585  0.3377
  340MOL0     C44786  -0.600   2.720   0.683  0.8347 -0.7776  0.4050
  340MOL0     C44787  -0.696   2.803   0.594  0.9884  0.6414  0.3770
  340MOL0     C44788  -0.647   2.948   0.577  0.7714 -0.4280  0.0227
  340MOL0     C44789  -0.754   3.043   0.511 -0.0557 -0.9236 -0.0988
  340MOL0     C44790  -0.727   3.197   0.482  0.4835  0.2864 -0.3485
  340MOL0     C44791  -0.645   3.219   0.352  0.7183  0.4777 -0.0713
  340MOL0    Cl44792  -0.475   3.249   0.380 -0.5327 -0.4218 -0.1922
  340MOL0     C44793  -0.433   2.662   1.197  1.2232  0.6828  0.1041
  340MOL0     C44794  -0.374   2.634   1.326  0.3246 -0.3791 -0.6615
  340MOL0     O44795  -0.376   2.646   1.604  0.2306 -0.0650  0.2241
  340MOL0     C44796  -0.221   2.678   1.850 -0.6015 -0.0046 -0.6369
  340MOL0     C44797  -0.133   2.666   1.966  0.4594 -0.7740  0.3661
  340MOL0     N44798   0.594   2.788   2.251 -0.0103 -0.3095  1.0245
  340MOL0     N44799   0.665   2.889   2.283  0.2806 -0.2935 -0.5135
  340MOL0     C44800   1.292   3.460   2.885 -1.1289  0.0668  0.1676
  340MOL0     C44801   1.423   3.442   2.935 -0.3739 -0.4113  1.2651
  340MOL0     C44802   1.843   3.560   3.092  0.3163 -0.6295 -0.4626
  340MOL0     C44803   1.879   3.441   3.160  0.3440 -0.4066 -0.7000
  340MOL0     C44804   2.009   3.409   3.203 -0.2332  1.0466  0.7298
  340MOL0     C44805   2.119   3.478   3.159 -0.5479  0.8789 -0.1430
  340MOL0     O44806   2.250   3.457   3.197 -0.1713  0.5580 -0.2802
  340MOL0     C44807   2.270   3.364   3.306 -0.2696  0.6051  1.2341
  340MOL0     C44808   2.412   3.352   3.364  0.6810  0.4730 -0.3805
  340MOL0     C44809   2.431   3.233   3.454  0.0823 -0.2224  0.0419
  340MOL0     C44810   2.578   3.196   3.497  0.4861  0.3538  0.0234
  340MOL0     C44811   2.642   3.293   3.583  0.0741  0.7086  0.7566
  340MOL0     C44812   2.698   3.373   3.654  0.5918 -0.5730 -1.4849
  340MOL0     C44813   2.090   3.579   3.071  0.8477  0.3687  0.6167
  340MOL0     C44814   1.961   3.624   3.042 -0.0891 -0.7281  0.6410
  340MOL0     H44815   1.446   3.727   3.125  2.3771 -0.0766 -1.7015
  340MOL0     H44816   1.229   3.755   3.017 -1.1703  0.0391  1.5937
  340MOL0     H44817   1.105   3.512   2.696  1.6586  3.6223 -1.1338
  340MOL0     H44818   0.983   3.631   2.716  0.2348  3.0039  3.2129
  340MOL0     H44819   0.889   3.512   2.910 -0.7903  1.4007 -2.3327
  340MOL0     H44820   1.013   3.401   2.921 -1.5059 -0.2727  0.8754
  340MOL0     H44821   0.937   3.320   2.672 -1.5096 -1.1236 -0.5282
  340MOL0     H44822   0.812   3.446   2.689 -3.6281 -0.8425  2.9006
  340MOL0     H44823   0.816   3.255   2.904  1.5257  1.3200 -0.4606
  340MOL0     H44824   0.689   3.368   2.841 -0.1353 -1.2906  0.3901
  340MOL0     H44825   0.684   3.112   2.795  0.1078  0.0610 -0.2696
  340MOL0     H44826   0.817   3.137   2.684 -1.1220  0.3801 -1.8805
  340MOL0     H44827   0.668   3.298   2.551  0.7697  0.5404  0.1236
  340MOL0     H44828   0.558   3.292   2.671  1.1541  0.2152  0.6034
  340MOL0     H44829   0.543   3.031   2.624  0.1467 -1.3577 -1.5140
  340MOL0     H44830   0.465   3.142   2.516  1.0541 -0.4638 -1.0162
  340MOL0     H44831   0.759   3.076   2.493  1.7005  1.6518 -3.4094
  340MOL0     H44832   0.668   3.141   2.375  2.7105  1.2914  1.4163
  340MOL0     H44833   0.484   2.847   2.553  3.5794 -3.3797  5.0718
  340MOL0     H44834   0.348   2.662   2.442  2.7049  1.5245  1.0479
  340MOL0     H44835   0.457   2.558   2.370  2.3958  0.8681  2.9831
  340MOL0     H44836   0.362   2.616   2.129 -1.7646  0.0262 -0.9244
  340MOL0     H44837   0.290   2.758   2.196 -0.0530 -0.2895  1.1364
  340MOL0     H44838   0.202   2.474   2.240 -0.9134 -0.2481  0.4233
  340MOL0     H44839   0.162   2.606   2.360 -0.7855 -1.7937  0.8391
  340MOL0     H44840   0.050   2.741   2.184 -1.1276 -0.4536 -0.9556
  340MOL0     H44841  -0.025   2.581   2.181 -1.0759  0.0511 -3.4219
  340MOL0     H44842   0.158   2.611   1.802  0.4401  1.6384 -1.4903
  340MOL0     H44843   0.013   2.638   1.599 -0.7509  1.2272 -0.3728
  340MOL0     H44844  -0.094   2.823   1.270 -0.1336  0.0888 -0.0548
  340MOL0     H44845  -0.198   2.832   1.045  2.0179  0.9807  2.5062
  340MOL0     H44846  -0.552   2.584   0.959 -0.3231 -0.8614 -2.6005
  340MOL0     H44847  -0.445   2.619   0.832  0.5666 -0.9583  0.6695
  340MOL0     H44848  -0.609   2.851   0.838 -3.9251  0.5820 -0.7948
  340MOL0     H44849  -0.725   2.719   0.864  0.0965  1.8829  0.5014
  340MOL0     H44850  -0.627   2.619   0.652  1.2635 -0.8874  0.3883
  340MOL0     H44851  -0.495   2.738   0.657  0.5109  1.7614  0.6005
  340MOL0     H44852  -0.692   2.749   0.498 -3.9152 -2.3138  1.4909
  340MOL0     H44853  -0.798   2.804   0.633  1.7124  2.0547  2.4141
  340MOL0     H44854  -0.549   2.938   0.528  1.5659  1.2152  1.1441
  340MOL0     H44855  -0.628   2.987   0.678 -0.4350 -2.3513  1.0529
  340MOL0     H44856  -0.854   3.030   0.553 -2.1468  3.8158 -2.7883
  340MOL0     H44857  -0.776   2.996   0.414 -4.8856  4.5847 -2.2376
  340MOL0     H44858  -0.828   3.240   0.474  0.2313 -0.3556 -0.6547
  340MOL0     H44859  -0.676   3.254   0.561 -0.3517 -0.3603  0.6853
  340MOL0     H44860  -0.686   3.305   0.298  0.4999  0.8930  0.7255
  340MOL0     H44861  -0.661   3.130   0.291 -0.2743 -1.4705  2.8128
  340MOL0     H44862  -0.531   2.616   1.190  0.4009  1.0539  5.1046
  340MOL0     H44863  -0.438   2.569   1.386 -1.5718 -2.6416 -4.6983
  340MOL0     H44864  -0.329   2.679   1.867 -0.3692 -0.9574  1.2083
  340MOL0     H44865  -0.169   2.677   2.068  1.9529  1.8907  0.7250
  340MOL0     H44866   1.243   3.380   2.832 -1.3320 -1.0114  1.8931
  340MOL0     H44867   1.471   3.354   2.893  0.3361  1.2866 -1.7707
  340MOL0     H44868   1.803   3.383   3.210  1.5909 -0.7029  0.9450
  340MOL0     H44869   2.007   3.322   3.268 -0.8049 -0.3339 -1.0633
  340MOL0     H44870   2.226   3.265   3.289  2.0697 -0.6446  2.0794
  340MOL0     H44871   2.215   3.419   3.383  1.6079  2.2361  1.5000
  340MOL0     H44872   2.486   3.346   3.283  1.4773  0.1324  0.3591
  340MOL0     H44873   2.440   3.433   3.431  1.7398 -1.9015  2.2374
  340MOL0     H44874   2.392   3.144   3.402  2.5383 -1.9502  0.9820
  340MOL0     H44875   2.373   3.237   3.547  0.1824 -0.7300  0.1313
  340MOL0     H44876   2.575   3.093   3.535 -0.9124 -0.5365 -2.2568
  340MOL0     H44877   2.644   3.190   3.410  1.0837  2.7804  0.2464
  340MOL0     H44878   2.739   3.435   3.730  0.2478  0.6276 -2.2554
  340MOL0     H44879   2.171   3.616   3.009 -2.1473  0.3593 -3.7542
  340MOL0     H44880   1.952   3.691   2.958 -1.4757 -0.6241  0.8567
  341MOL0     O44881   0.985   9.432   7.008  0.6498 -0.5814  0.0585
  341MOL0     C44882   1.086   9.496   7.049  0.6909  0.6494 -0.4949
  341MOL0     O44883   1.091   9.610   7.130  0.0145 -0.2474 -0.3367
  341MOL0     C44884   0.978   9.676   7.156  0.6534  0.5687  0.2018
  341MOL0     C44885   0.966   9.718   7.285 -0.8412  0.3959  0.5011
  341MOL0     C44886   0.849   9.785   7.326 -0.1281  0.5370 -1.1593
  341MOL0     C44887   0.742   9.814   7.236 -0.3347  0.4666 -0.4090
  341MOL0     O44888   0.636   9.889   7.280  0.1542 -0.0183 -0.4562
  341MOL0     C44889   0.508   9.880   7.199 -0.1615  0.7833 -0.1137
  341MOL0     C44890   0.409   9.986   7.260 -0.2805  0.0184 -0.2730
  341MOL0     C44891   0.298   9.999   7.156 -0.3222  0.5287  0.0978
  341MOL0     C44892   0.187  10.103   7.201  0.1802  0.1380  0.7041
  341MOL0     C44893   0.105  10.128   7.074 -0.3716  0.5052  0.7909
  341MOL0     C44894   0.019  10.014   7.010 -0.8680  0.3386  0.0668
  341MOL0     C44895   0.008  10.035   6.861  0.4718 -0.1548  0.7236
  341MOL0     C44896  -0.102  10.140   6.819 -0.2625 -0.4345 -0.0993
  341MOL0     N44897  -0.237  10.080   6.843  0.4162 -0.2127  0.5840
  341MOL0     C44898  -0.320  10.126   6.935  0.2048  0.1541 -0.0632
  341MOL0     C44899  -0.440  10.074   6.914 -0.2850 -0.0440 -0.0340
  341MOL0     C44900  -0.558  10.076   7.001 -0.8636 -0.8062 -0.0415
  341MOL0     C44901  -0.600  10.221   7.059  0.0464  0.1724 -0.6211
  341MOL0     C44902  -0.706  10.207   7.171 -1.1215 -0.2353 -0.1501
  341MOL0     C44903  -0.850  10.200   7.124 -0.0466  0.1245  0.3616
  341MOL0     O44904  -0.889  10.335   7.086  0.0510 -0.4505 -0.4605
  341MOL0     C44905  -1.001  10.343   7.011  0.5329  0.4136  0.9880
  341MOL0     C44906  -1.059  10.471   6.984 -0.2987 -0.1260 -0.8693
  341MOL0     C44907  -1.187  10.488   6.923 -0.0618  0.5976 -0.1010
  341MOL0     C44908  -1.244  10.371   6.866 -0.3170  0.1778  1.4869
  341MOL0     C44909  -1.366  10.387   6.787  0.0357  0.7211 -0.1470
  341MOL0     O44910  -1.449  10.286   6.754  0.0675 -0.0557  0.6442
  341MOL0     C44911  -1.560  10.330   6.678 -0.4473  0.0752 -0.3802
  341MOL0     C44912  -1.541  10.340   6.539 -0.3364  0.6787  0.2221
  341MOL0     C44913  -1.642  10.391   6.447 -0.7624  0.4854 -0.0097
  341MOL0     C44914  -1.765  10.436   6.504 -0.1736  0.6892  0.4801
  341MOL0     O44915  -1.867  10.489   6.421  0.0365 -0.4631 -0.9347
  341MOL0     C44916  -1.969  10.564   6.486 -0.5635  0.0741 -0.6160
  341MOL0     C44917  -2.094  10.476   6.526 -0.6782  0.3940  0.1697
  341MOL0     C44918  -2.210  10.574   6.550  0.2405 -0.0708 -1.2623
  341MOL0     C44919  -2.342  10.488   6.577 -0.3791 -0.2393  0.1142
  341MOL0     C44920  -2.455  10.595   6.574  0.4247  0.0112  0.5280
  341MOL0     C44921  -2.589  10.529   6.603 -0.0187 -0.6485  0.8501
  341MOL0     C44922  -2.636  10.461   6.474  0.6408  0.8312  0.5406
  341MOL0     C44923  -2.771  10.387   6.490 -0.2989 -0.3441  0.4587
  341MOL0    Cl44924  -2.848  10.374   6.327  0.5112 -0.1270  0.4134
  341MOL0     C44925  -1.787  10.420   6.643 -0.3691 -0.4172 -0.7910
  341MOL0     C44926  -1.679  10.375   6.731 -0.8999 -0.2635  0.3197
  341MOL0     O44927  -1.379  10.504   6.748  0.1323  0.3367  0.1531
  341MOL0     C44928  -1.186  10.244   6.876  0.4867  0.0047 -0.7448
  341MOL0     C44929  -1.066  10.232   6.950  0.3869  0.6105 -1.1898
  341MOL0     N44930  -0.430   9.982   6.799 -0.2059  0.5924 -1.5025
  341MOL0     N44931  -0.306   9.988   6.759 -0.5845 -0.0047 -0.0866
  341MOL0     C44932   0.758   9.762   7.109 -0.4941 -0.7717 -0.1381
  341MOL0     C44933   0.872   9.694   7.068  0.1193 -1.1379  0.4628
  341MOL0     C44934   1.223   9.450   7.024  0.6819  0.9898  0.1101
  341MOL0     C44935   1.240   9.370   6.915 -0.2663  0.0801 -0.2028
  341MOL0     C44936   1.364   9.325   6.883 -0.0460 -0.1176  0.3729
  341MOL0     C44937   1.473   9.350   6.966 -0.3168 -0.4511 -0.3316
  341MOL0     O44938   1.600   9.303   6.930  0.4157 -0.0708  0.0879
  341MOL0     C44939   1.664   9.207   7.017  0.4690 -0.4464  0.0133
  341MOL0     C44940   1.653   9.067   6.953  0.1876 -0.7289  0.7568
  341MOL0     C44941   1.511   9.007   6.975 -0.4658 -0.2199  0.7079
  341MOL0     C44942   1.480   8.967   7.117  0.6902  0.1337 -0.1146
  341MOL0     C44943   1.344   9.005   7.166  0.3354  0.0790  0.1662
  341MOL0     C44944   1.233   9.017   7.216  0.9600 -0.3705  0.2270
  341MOL0     C44945   1.459   9.435   7.065  0.0309 -0.0255 -0.7699
  341MOL0     C44946   1.329   9.481   7.103  0.2470 -1.1281  0.6855
  341MOL0     H44947   1.052   9.706   7.350 -0.5522 -4.8128 -0.4402
  341MOL0     H44948   0.838   9.820   7.428 -0.2707 -1.1009 -0.5980
  341MOL0     H44949   0.465   9.779   7.201 -1.5216  1.3374  0.7754
  341MOL0     H44950   0.535   9.899   7.095  1.0942  4.4738  0.7141
  341MOL0     H44951   0.477  10.071   7.275  0.7639 -0.5847 -1.3846
  341MOL0     H44952   0.379   9.948   7.357  1.9233 -3.2047 -0.7127
  341MOL0     H44953   0.253   9.901   7.142 -0.0820  0.5074 -0.5716
  341MOL0     H44954   0.349  10.030   7.065  0.1244  2.8380  1.0538
  341MOL0     H44955   0.128  10.052   7.278 -1.6343 -0.0041 -0.7354
  341MOL0     H44956   0.224  10.198   7.241  2.9628 -1.0654  1.2483
  341MOL0     H44957   0.170  10.175   6.999 -2.3379  2.8420  0.4172
  341MOL0     H44958   0.030  10.207   7.077 -2.1955 -0.7733 -3.5791
  341MOL0     H44959  -0.082  10.012   7.051 -1.5974  1.0937 -1.5945
  341MOL0     H44960   0.066   9.916   7.019  0.1362  0.9150  1.5125
  341MOL0     H44961   0.102  10.068   6.815  0.9169 -2.0720  0.1589
  341MOL0     H44962  -0.019   9.939   6.817  1.7668 -1.0985  1.8951
  341MOL0     H44963  -0.085  10.175   6.717  0.1851 -1.5646 -0.4219
  341MOL0     H44964  -0.085  10.227   6.884  2.5128 -2.7308  2.5395
  341MOL0     H44965  -0.290  10.182   7.023 -0.9837  2.4066 -1.0293
  341MOL0     H44966  -0.542  10.011   7.088 -0.0008  2.1620  2.1987
  341MOL0     H44967  -0.630  10.035   6.930 -0.7606 -1.8543  0.4485
  341MOL0     H44968  -0.643  10.287   6.983  0.9368  3.0128  1.1892
  341MOL0     H44969  -0.518  10.274   7.109 -0.3616  0.3541 -0.1308
  341MOL0     H44970  -0.666  10.127   7.235  1.5436 -0.3250 -1.7944
  341MOL0     H44971  -0.689  10.301   7.225  2.0417  0.1291 -1.5621
  341MOL0     H44972  -0.914  10.154   7.200 -1.6693  0.3329 -0.8221
  341MOL0     H44973  -0.846  10.128   7.042  0.9097 -0.5995  1.0206
  341MOL0     H44974  -1.015  10.559   7.031 -2.3225 -0.2986  1.5478
  341MOL0     H44975  -1.231  10.586   6.912 -0.3797  0.2909 -1.9680
  341MOL0     H44976  -1.441  10.306   6.513 -1.0400 -1.4004  0.0407
  341MOL0     H44977  -1.632  10.391   6.339 -0.9084  0.0493 -0.0271
  341MOL0     H44978  -2.014  10.628   6.410  1.2846  1.8448 -0.2999
  341MOL0     H44979  -1.920  10.621   6.565  2.7047  0.8341 -3.0053
  341MOL0     H44980  -2.060  10.404   6.601  2.4288 -0.2597 -1.6730
  341MOL0     H44981  -2.114  10.413   6.439  2.0543  0.1551 -0.3653
  341MOL0     H44982  -2.236  10.632   6.460  2.3610  0.7977 -1.3617
  341MOL0     H44983  -2.185  10.640   6.633  0.6599 -0.9585 -0.6681
  341MOL0     H44984  -2.348  10.416   6.494 -0.1239  0.8462 -0.8693
  341MOL0     H44985  -2.340  10.430   6.670 -1.8268 -3.1035 -1.4988
  341MOL0     H44986  -2.454  10.648   6.478  1.3488  1.0716  1.0966
  341MOL0     H44987  -2.439  10.680   6.641 -2.9683  0.2908  1.1262
  341MOL0     H44988  -2.661  10.607   6.628  0.1916 -0.3812  0.6345
  341MOL0     H44989  -2.572  10.452   6.678  1.2585 -0.1768  1.0821
  341MOL0     H44990  -2.649  10.543   6.403  0.4479  0.8712  0.6191
  341MOL0     H44991  -2.562  10.387   6.443 -2.9914 -2.3252 -1.5662
  341MOL0     H44992  -2.826  10.436   6.571  1.1610  0.2818  1.1003
  341MOL0     H44993  -2.757  10.286   6.529 -0.2814 -0.9637 -1.0871
  341MOL0     H44994  -1.872  10.450   6.703 -0.9345 -1.1463 -1.2116
  341MOL0     H44995  -1.686  10.369   6.839 -5.3781 -2.3399  0.1389
  341MOL0     H44996  -1.222  10.158   6.820  2.5557  0.3128 -2.6899
  341MOL0     H44997  -1.023  10.133   6.949  0.9187  0.8310 -0.4821
  341MOL0     H44998   0.679   9.777   7.036 -0.9417 -0.6703  0.3625
  341MOL0     H44999   0.874   9.666   6.963  0.1524  0.4736 -0.0007
  341MOL0     H45000   1.156   9.346   6.851 -2.1260 -1.2137  2.5264
  341MOL0     H45001   1.389   9.275   6.790 -1.2134 -0.5029  0.2552
  341MOL0     H45002   1.628   9.214   7.120  2.2923 -0.0270  0.6701
  341MOL0     H45003   1.767   9.242   7.027 -0.6798  2.9921  1.3660
  341MOL0     H45004   1.688   9.077   6.850 -2.0127  2.4663  0.1948
  341MOL0     H45005   1.719   8.995   7.004 -1.0662 -2.2766  0.2763
  341MOL0     H45006   1.498   8.919   6.910 -0.0575  1.1859 -1.3722
  341MOL0     H45007   1.438   9.078   6.935  0.8672  0.6807 -0.2292
  341MOL0     H45008   1.480   8.859   7.105  2.1740  0.3020 -2.0688
  341MOL0     H45009   1.562   8.984   7.187  2.1122  1.2674 -1.9498
  341MOL0     H45010   1.134   9.025   7.256  1.0138  1.2372  0.0990
  341MOL0     H45011   1.532   9.466   7.140 -0.6423  1.1509 -0.5724
  341MOL0     H45012   1.314   9.545   7.189 -3.9119 -1.3205  0.3110
  342MOL0     O45013   5.154   5.182  11.061 -0.4702  0.9008  0.3977
  342MOL0     C45014   5.130   5.285  11.009 -0.7143  0.3135 -0.2373
  342MOL0     O45015   5.203   5.403  11.033  0.0044  0.5364  0.3614
  342MOL0     C45016   5.303   5.398  11.120  0.3218  0.2019  0.5478
  342MOL0     C45017   5.290   5.375  11.263 -0.0626 -0.2630  0.6998
  342MOL0     C45018   5.413   5.371  11.340  0.0076 -1.2490 -0.2412
  342MOL0     C45019   5.541   5.393  11.282  0.1080 -0.4465 -0.4878
  342MOL0     O45020   5.657   5.397  11.362  0.5229 -0.0467 -0.3442
  342MOL0     C45021   5.725   5.521  11.360  0.0853  0.1322 -0.0968
  342MOL0     C45022   5.769   5.547  11.502  0.3226  0.6362  0.4408
  342MOL0     C45023   5.667   5.633  11.569  0.4214  0.1153  0.5605
  342MOL0     C45024   5.720   5.705  11.692 -0.2529 -0.2205  0.0420
  342MOL0     C45025   5.631   5.813  11.750  0.3991  0.1743  1.2005
  342MOL0     C45026   5.648   5.828  11.903  0.7538  0.4027  0.0569
  342MOL0     C45027   5.547   5.913  11.974  0.0563 -0.2320  0.4163
  342MOL0     C45028   5.432   5.829  12.033 -0.2636  0.9393 -0.4473
  342MOL0     N45029   5.366   5.747  11.927 -0.4690  0.8263  0.2007
  342MOL0     C45030   5.280   5.796  11.831  0.8866 -0.5046  0.2010
  342MOL0     C45031   5.251   5.683  11.759 -0.3994 -0.0080  1.2306
  342MOL0     C45032   5.157   5.686  11.645 -0.6941  0.3454  1.0783
  342MOL0     C45033   5.079   5.810  11.624 -0.1543 -0.5431 -0.2587
  342MOL0     C45034   4.987   5.823  11.740 -0.6336  0.1352  0.0430
  342MOL0     C45035   4.860   5.881  11.689  0.8806  0.7723 -0.4989
  342MOL0     O45036   4.781   5.920  11.802 -0.4992  0.1962  0.1266
  342MOL0     C45037   4.652   5.913  11.765 -0.3161  0.2195  0.8314
  342MOL0     C45038   4.567   5.836  11.846 -0.3083  0.8706  0.2012
  342MOL0     C45039   4.432   5.836  11.828  0.0254 -0.3319  0.5838
  342MOL0     C45040   4.369   5.911  11.728  0.9361  0.4829  0.1170
  342MOL0     C45041   4.218   5.920  11.729 -0.4251 -0.0793  0.1522
  342MOL0     O45042   4.175   6.006  11.635 -0.6042 -0.4784 -0.2870
  342MOL0     C45043   4.045   6.022  11.603 -0.7868  0.3233 -0.0876
  342MOL0     C45044   3.971   5.936  11.520  0.6912 -0.3551  1.2690
  342MOL0     C45045   3.845   5.974  11.471  0.6385  0.0091 -0.3866
  342MOL0     C45046   3.776   6.087  11.526  0.0574 -1.1497  0.3827
  342MOL0     O45047   3.664   6.144  11.467 -0.2081  0.2691 -0.5707
  342MOL0     C45048   3.577   6.051  11.394 -1.0816  0.0626  0.1566
  342MOL0     C45049   3.421   6.079  11.396  0.0005  0.8696  0.1235
  342MOL0     C45050   3.389   6.202  11.312  1.0674  0.7497 -0.3359
  342MOL0     C45051   3.237   6.215  11.309  0.0007 -0.5713 -0.0409
  342MOL0     C45052   3.188   6.331  11.222  0.2228 -0.5680 -0.6777
  342MOL0     C45053   3.197   6.294  11.078 -0.4609  0.5173 -0.3084
  342MOL0     C45054   3.115   6.382  10.989  0.1012  0.5147 -0.5483
  342MOL0     C45055   3.149   6.383  10.844 -0.1949 -1.1348  0.5510
  342MOL0    Cl45056   3.155   6.220  10.787 -0.2161 -0.4150 -0.1646
  342MOL0     C45057   3.846   6.173  11.609  0.1627 -0.2334 -0.7896
  342MOL0     C45058   3.982   6.141  11.640  0.0962  0.6817 -0.2571
  342MOL0     O45059   4.151   5.854  11.811  0.1581 -0.0901 -0.0424
  342MOL0     C45060   4.451   5.970  11.638 -0.3849  0.6580  0.1031
  342MOL0     C45061   4.595   5.969  11.652  0.8853  0.1162 -0.6071
  342MOL0     N45062   5.315   5.574  11.815  0.1442  0.0676 -0.3923
  342MOL0     N45063   5.379   5.613  11.920 -0.7979  1.2420  0.2057
  342MOL0     C45064   5.545   5.429  11.150  0.0423 -0.9533 -0.7075
  342MOL0     C45065   5.429   5.424  11.070 -0.6035  0.5410 -0.2143
  342MOL0     C45066   5.025   5.272  10.901  1.0882  0.9798 -0.4948
  342MOL0     C45067   4.996   5.390  10.832  0.6172 -0.3186  0.0312
  342MOL0     C45068   4.888   5.389  10.741  0.3840 -0.1401 -0.5136
  342MOL0     C45069   4.807   5.281  10.725 -0.2214 -0.2208  0.1727
  342MOL0     O45070   4.703   5.285  10.639 -1.2376 -0.1394 -0.2156
  342MOL0     C45071   4.744   5.285  10.503 -0.3810  0.8786 -0.2066
  342MOL0     C45072   4.658   5.384  10.430  0.7072 -0.3017  0.2984
  342MOL0     C45073   4.680   5.361  10.280  0.4286  0.7352  0.8473
  342MOL0     C45074   4.622   5.477  10.205  0.7937 -1.1605 -0.9432
  342MOL0     C45075   4.647   5.449  10.067  0.7954 -0.1512  0.5529
  342MOL0     C45076   4.684   5.427   9.950 -0.1596  0.0348 -0.1942
  342MOL0     C45077   4.842   5.157  10.782  0.5088 -0.8423  0.0521
  342MOL0     C45078   4.944   5.159  10.885 -0.2143  0.5786  1.1615
  342MOL0     H45079   5.193   5.362  11.311 -1.1145  3.1714 -0.2118
  342MOL0     H45080   5.408   5.366  11.449 -1.0533 -1.4338 -0.2945
  342MOL0     H45081   5.669   5.600  11.309 -1.0991 -0.1552  0.7167
  342MOL0     H45082   5.815   5.505  11.300 -0.9006  1.8647 -2.1753
  342MOL0     H45083   5.869   5.590  11.501  0.5435  0.1825  1.5648
  342MOL0     H45084   5.799   5.458  11.557 -0.3938  0.7649  1.0539
  342MOL0     H45085   5.575   5.580  11.595  0.2517 -0.6964 -1.5137
  342MOL0     H45086   5.644   5.719  11.505 -0.1511  0.2900  0.9940
  342MOL0     H45087   5.743   5.628  11.765 -0.9665 -1.7146 -1.2629
  342MOL0     H45088   5.817   5.743  11.657 -0.6851  0.4703 -0.4512
  342MOL0     H45089   5.535   5.774  11.715  2.0257 -2.8864 -0.2103
  342MOL0     H45090   5.637   5.909  11.698 -2.9102  1.1450  2.3769
  342MOL0     H45091   5.754   5.855  11.916  2.0910 -3.6040 -0.9596
  342MOL0     H45092   5.634   5.731  11.953  5.3455  0.6136  2.3531
  342MOL0     H45093   5.597   5.974  12.050 -0.2264  1.7592 -0.9132
  342MOL0     H45094   5.510   5.988  11.903  1.2342  1.2289  1.2896
  342MOL0     H45095   5.353   5.890  12.077 -0.1293  0.1252  0.9969
  342MOL0     H45096   5.472   5.761  12.110 -1.1248 -0.6510 -1.3638
  342MOL0     H45097   5.248   5.900  11.828 -0.8125 -1.0238 -0.9270
  342MOL0     H45098   5.087   5.603  11.654  0.2759 -0.4314  1.7311
  342MOL0     H45099   5.222   5.684  11.558  0.1810  1.2152  1.6846
  342MOL0     H45100   5.008   5.793  11.542 -0.7667  0.6561 -0.0081
  342MOL0     H45101   5.144   5.898  11.617  1.7110 -1.5039  2.9225
  342MOL0     H45102   4.963   5.728  11.787  0.3464 -1.3749 -2.3145
  342MOL0     H45103   5.021   5.891  11.819 -1.3385 -1.8694  2.1787
  342MOL0     H45104   4.810   5.797  11.641 -0.8301  0.7551  1.1646
  342MOL0     H45105   4.878   5.968  11.624 -0.2007  2.7920  1.7142
  342MOL0     H45106   4.606   5.780  11.931  1.2784  2.4937  0.5983
  342MOL0     H45107   4.369   5.773  11.890 -0.7010 -0.8613 -0.6654
  342MOL0     H45108   4.034   5.856  11.483 -1.0904 -0.6136 -1.4984
  342MOL0     H45109   3.784   5.918  11.401  0.2708  0.2070 -0.2277
  342MOL0     H45110   3.581   5.950  11.436  1.5102 -0.9265 -2.1694
  342MOL0     H45111   3.606   6.043  11.289  0.3714  1.7725  0.3850
  342MOL0     H45112   3.395   6.101  11.500 -2.2348  3.8343 -0.9265
  342MOL0     H45113   3.363   5.987  11.378 -1.1107  1.1208  2.1817
  342MOL0     H45114   3.436   6.191  11.214  0.9380 -0.7683 -0.2506
  342MOL0     H45115   3.439   6.289  11.356  0.9334  0.5613  0.1953
  342MOL0     H45116   3.194   6.121  11.273  1.4507 -0.2823 -2.7687
  342MOL0     H45117   3.206   6.235  11.412  2.2805 -0.7916  0.7528
  342MOL0     H45118   3.245   6.422  11.245 -0.1997 -1.1112  3.1817
  342MOL0     H45119   3.087   6.364  11.247  1.1318  2.4404 -0.5869
  342MOL0     H45120   3.170   6.190  11.059 -0.8060  0.1231  2.0406
  342MOL0     H45121   3.304   6.302  11.054 -0.1804  1.1517  1.0383
  342MOL0     H45122   3.014   6.341  11.000  1.1257 -2.6560 -2.0004
  342MOL0     H45123   3.114   6.482  11.034 -3.7876  0.1287  0.6542
  342MOL0     H45124   3.249   6.419  10.820 -0.7241 -0.5275 -0.9028
  342MOL0     H45125   3.074   6.434  10.782  0.1000 -1.8449 -0.4063
  342MOL0     H45126   3.796   6.263  11.644  1.1294  0.0688 -0.1258
  342MOL0     H45127   4.041   6.197  11.711  1.1930  1.5686 -1.7914
  342MOL0     H45128   4.410   6.012  11.547  0.4376 -0.2431 -0.7098
  342MOL0     H45129   4.655   6.016  11.574  1.9916 -0.1194  0.0799
  342MOL0     H45130   5.643   5.437  11.104  0.0367 -1.8523 -0.8985
  342MOL0     H45131   5.441   5.432  10.962 -2.8220 -3.4063 -0.9852
  342MOL0     H45132   5.064   5.472  10.852  0.0047  0.2553 -0.2057
  342MOL0     H45133   4.869   5.477  10.680  2.1125 -0.0446 -0.9693
  342MOL0     H45134   4.742   5.179  10.477 -1.4116  1.4174 -2.6504
  342MOL0     H45135   4.849   5.303  10.480 -0.1725 -3.5788 -4.0838
  342MOL0     H45136   4.553   5.377  10.459  1.0213 -3.7690  0.9898
  342MOL0     H45137   4.697   5.474  10.478  0.8815 -1.1947  1.9015
  342MOL0     H45138   4.622   5.275  10.243 -0.6284  1.2753  1.2283
  342MOL0     H45139   4.783   5.346  10.246  0.9306  0.6768  2.3284
  342MOL0     H45140   4.514   5.480  10.220  0.6959  0.4846 -1.7589
  342MOL0     H45141   4.665   5.571  10.242  0.7884 -1.4837 -0.0920
  342MOL0     H45142   4.715   5.404   9.850 -0.3552  0.7846 -0.4370
  342MOL0     H45143   4.770   5.078  10.760  0.4428 -0.3535 -1.6755
  342MOL0     H45144   4.963   5.068  10.940  0.9368  3.2735  5.7844
  343MOL0     O45145   3.460   5.875   9.078 -0.2075 -0.0989  0.6090
  343MOL0     C45146   3.517   5.931   9.167  0.1170  0.3521 -0.5954
  343MOL0     O45147   3.456   5.987   9.276  0.2599  0.2542 -0.3752
  343MOL0     C45148   3.326   5.952   9.301  0.9226  0.3175  0.1926
  343MOL0     C45149   3.232   6.051   9.279  0.5110  0.3341  0.0056
  343MOL0     C45150   3.097   6.027   9.296 -0.1841  0.2715  0.3925
  343MOL0     C45151   3.045   5.892   9.322 -0.3206 -0.8866  0.0419
  343MOL0     O45152   2.913   5.859   9.330  0.4043  0.2276 -0.0365
  343MOL0     C45153   2.824   5.938   9.410  0.0874  0.4373  0.3846
  343MOL0     C45154   2.697   5.856   9.413 -0.4568 -0.2245  0.1933
  343MOL0     C45155   2.630   5.810   9.285 -0.5303 -0.0309  0.2151
  343MOL0     C45156   2.493   5.743   9.300 -0.0911 -0.3954 -0.2076
  343MOL0     C45157   2.386   5.803   9.397 -1.3153 -0.4294  0.3883
  343MOL0     C45158   2.247   5.751   9.385 -0.1062 -0.1850  0.5719
  343MOL0     C45159   2.232   5.603   9.442 -0.0987 -0.2375 -0.4468
  343MOL0     C45160   2.090   5.547   9.438  0.4899 -0.7351  0.8183
  343MOL0     N45161   2.091   5.403   9.460 -0.2075  0.8128  0.0910
  343MOL0     C45162   2.099   5.303   9.363 -0.6640 -0.0389  0.2947
  343MOL0     C45163   2.090   5.184   9.436 -0.4037  0.2168  0.7126
  343MOL0     C45164   2.098   5.047   9.387 -0.0816  0.2804  0.1108
  343MOL0     C45165   2.089   5.021   9.238  0.2525 -0.1208  1.2193
  343MOL0     C45166   2.070   4.871   9.204 -0.3643  0.3775  0.3675
  343MOL0     C45167   1.959   4.838   9.102 -0.0868 -0.8493  0.6259
  343MOL0     O45168   1.829   4.847   9.164 -1.0873 -0.0568 -0.4925
  343MOL0     C45169   1.716   4.822   9.094  0.2298 -0.0776  0.3653
  343MOL0     C45170   1.601   4.819   9.174  0.3108 -0.1938 -0.4451
  343MOL0     C45171   1.471   4.781   9.119 -0.1485  0.3968  0.8687
  343MOL0     C45172   1.472   4.721   8.985 -0.3041 -0.0681  0.1814
  343MOL0     C45173   1.352   4.678   8.924  0.5575  0.1511  0.9202
  343MOL0     O45174   1.231   4.721   8.980 -0.3447  0.0542  1.0956
  343MOL0     C45175   1.119   4.698   8.911  0.0345 -0.2955 -0.4992
  343MOL0     C45176   1.080   4.565   8.849 -0.0237 -0.4489 -1.0718
  343MOL0     C45177   0.952   4.547   8.806  0.8342  1.4064 -0.2930
  343MOL0     C45178   0.868   4.660   8.795 -0.3028 -1.0762 -0.0738
  343MOL0     O45179   0.737   4.671   8.767  0.0835  0.5439  0.7403
  343MOL0     C45180   0.670   4.547   8.741 -0.4691 -1.0612  0.2844
  343MOL0     C45181   0.686   4.502   8.609  0.0812 -0.4872 -0.5213
  343MOL0     C45182   0.601   4.379   8.587  0.4199  0.6971 -0.1611
  343MOL0     C45183   0.630   4.333   8.446 -0.4456 -0.6271 -0.3799
  343MOL0     C45184   0.514   4.249   8.381 -0.9343 -0.0116 -0.3677
  343MOL0     C45185   0.479   4.127   8.472  0.2623  0.8465  0.6925
  343MOL0     C45186   0.338   4.079   8.444  0.3799  0.3876  0.4608
  343MOL0     C45187   0.332   4.031   8.295 -0.4313  0.4344  0.2283
  343MOL0    Cl45188   0.178   3.952   8.279 -0.3871 -0.0197 -0.5753
  343MOL0     C45189   0.911   4.792   8.840  0.3427 -0.1134 -0.8457
  343MOL0     C45190   1.032   4.799   8.913  0.3888 -0.5303  0.3477
  343MOL0     O45191   1.360   4.609   8.820  0.5574 -0.1373  0.2139
  343MOL0     C45192   1.594   4.717   8.912  0.4470 -0.2105  1.0943
  343MOL0     C45193   1.717   4.771   8.961  0.1982  1.3593 -1.2050
  343MOL0     N45194   2.082   5.210   9.568  1.1307 -0.1336  0.6507
  343MOL0     N45195   2.083   5.341   9.582  0.4806  1.1546  0.8769
  343MOL0     C45196   3.149   5.794   9.348 -0.3378 -0.5532 -0.6942
  343MOL0     C45197   3.286   5.824   9.345  0.0009 -0.6715 -0.0104
  343MOL0     C45198   3.659   5.965   9.155  0.7660 -0.3104 -0.3683
  343MOL0     C45199   3.732   6.018   9.258 -0.1967 -0.6753 -0.4874
  343MOL0     C45200   3.866   6.048   9.243 -0.1848  0.0254 -0.9702
  343MOL0     C45201   3.936   6.033   9.121 -0.5472 -0.0795 -0.8223
  343MOL0     O45202   4.070   6.047   9.138 -0.3627 -0.2246 -0.0182
  343MOL0     C45203   4.156   6.017   9.026 -0.1549 -0.2062  0.0972
  343MOL0     C45204   4.286   6.095   9.024  0.3720  0.4210  0.1618
  343MOL0     C45205   4.263   6.235   9.083 -0.6016 -0.3968 -0.0194
  343MOL0     C45206   4.396   6.303   9.113 -1.0377 -0.5590 -0.3923
  343MOL0     C45207   4.378   6.442   9.152  0.3296  0.0659  0.7191
  343MOL0     C45208   4.375   6.563   9.168 -0.5497 -0.2848  0.1754
  343MOL0     C45209   3.866   5.986   9.008  0.9140  0.0723 -0.4077
  343MOL0     C45210   3.729   5.951   9.027 -0.1867 -0.0890 -0.3981
  343MOL0     H45211   3.279   6.147   9.259 -1.4597  1.1379 -1.0308
  343MOL0     H45212   3.022   6.104   9.288  0.1754  0.5566 -0.3196
  343MOL0     H45213   2.810   6.036   9.363 -0.3914  0.2923  0.2213
  343MOL0     H45214   2.864   5.961   9.509 -1.8393  1.2858  1.0102
  343MOL0     H45215   2.622   5.924   9.456  1.1348  2.2120 -0.6273
  343MOL0     H45216   2.697   5.771   9.482  0.4289  0.7272  1.4352
  343MOL0     H45217   2.700   5.736   9.244 -0.4308 -0.7788  1.6497
  343MOL0     H45218   2.620   5.894   9.216 -1.3526  0.2636  0.6703
  343MOL0     H45219   2.446   5.746   9.201 -0.2773  0.7397 -0.0984
  343MOL0     H45220   2.505   5.639   9.332  2.1222 -0.4404 -1.0147
  343MOL0     H45221   2.381   5.908   9.366 -3.7506 -1.1927 -2.2541
  343MOL0     H45222   2.418   5.783   9.500 -3.1706 -2.3521  0.6431
  343MOL0     H45223   2.223   5.735   9.279  0.1766 -2.2765  0.7812
  343MOL0     H45224   2.175   5.811   9.441 -2.9877 -1.2043 -1.7931
  343MOL0     H45225   2.294   5.533   9.385 -1.5903  0.9686 -3.8908
  343MOL0     H45226   2.258   5.606   9.548 -1.3724  2.1517 -0.1339
  343MOL0     H45227   2.044   5.558   9.340 -1.0449 -2.3874  1.2985
  343MOL0     H45228   2.031   5.606   9.509 -0.4132 -0.8054  0.1478
  343MOL0     H45229   2.115   5.328   9.259  0.0559 -0.7570  0.2249
  343MOL0     H45230   2.014   4.990   9.429  0.9932 -0.1309  1.8244
  343MOL0     H45231   2.194   5.006   9.419  2.9259  3.1976 -4.0753
  343MOL0     H45232   2.181   5.054   9.189 -0.3569 -0.8148 -0.4572
  343MOL0     H45233   2.008   5.078   9.191  1.8517  0.5290 -0.8989
  343MOL0     H45234   2.162   4.820   9.174 -0.7099 -2.8240  3.9638
  343MOL0     H45235   2.042   4.803   9.285 -1.4602 -1.3687 -1.3734
  343MOL0     H45236   1.983   4.738   9.063  0.4003 -0.2624 -0.6209
  343MOL0     H45237   1.967   4.917   9.027 -0.3053 -2.3749 -1.0732
  343MOL0     H45238   1.613   4.857   9.275  1.6300 -2.7324  0.4408
  343MOL0     H45239   1.377   4.772   9.173 -0.1388 -2.1094  0.6128
  343MOL0     H45240   1.150   4.483   8.839  1.0690  0.5463 -1.9582
  343MOL0     H45241   0.927   4.442   8.795  2.0885  0.4883  3.8484
  343MOL0     H45242   0.565   4.575   8.752  0.0923  1.1391  0.5379
  343MOL0     H45243   0.685   4.473   8.820  0.7874 -1.8003 -0.6217
  343MOL0     H45244   0.793   4.480   8.600  0.3507 -0.1618  1.4290
  343MOL0     H45245   0.651   4.583   8.544  2.0733  2.1683  1.4965
  343MOL0     H45246   0.498   4.399   8.615  0.2527 -1.1790  0.6941
  343MOL0     H45247   0.628   4.301   8.659 -1.5643 -0.4936 -0.6368
  343MOL0     H45248   0.662   4.418   8.386 -1.0661  1.7928  2.4659
  343MOL0     H45249   0.713   4.264   8.464 -0.3828 -0.1142  1.5796
  343MOL0     H45250   0.551   4.214   8.284 -0.6734  0.7735 -0.5600
  343MOL0     H45251   0.438   4.323   8.359 -1.3661 -0.1713  0.5449
  343MOL0     H45252   0.491   4.157   8.577  1.4017 -1.0231  1.1419
  343MOL0     H45253   0.551   4.045   8.464 -0.6598 -0.2701  2.9666
  343MOL0     H45254   0.324   3.986   8.498  0.5737  0.3174  0.3911
  343MOL0     H45255   0.266   4.155   8.478  0.5320  0.2830  1.0198
  343MOL0     H45256   0.417   3.968   8.266 -0.3203 -0.1105  1.6687
  343MOL0     H45257   0.326   4.118   8.230  0.4946  0.4555  0.1549
  343MOL0     H45258   0.849   4.880   8.822 -1.2364 -0.8026  0.8827
  343MOL0     H45259   1.064   4.888   8.967  0.3033 -1.4711  2.0417
  343MOL0     H45260   1.596   4.675   8.812  0.3718  2.6814 -0.2260
  343MOL0     H45261   1.812   4.772   8.907  1.0811  2.3208  0.3026
  343MOL0     H45262   3.113   5.693   9.364 -0.0740 -0.6471 -0.6867
  343MOL0     H45263   3.358   5.747   9.371  0.4831 -0.7511 -1.4690
  343MOL0     H45264   3.683   6.051   9.349 -2.4804 -1.0384 -1.5386
  343MOL0     H45265   3.928   6.097   9.318  1.9011 -0.7578 -2.0939
  343MOL0     H45266   4.110   6.036   8.928  2.5994  0.5413 -1.1539
  343MOL0     H45267   4.180   5.911   9.034  0.2664 -0.3569 -2.3132
  343MOL0     H45268   4.355   6.038   9.087  0.1505  1.6685  1.5965
  343MOL0     H45269   4.327   6.094   8.923 -2.2213 -1.4862 -1.0016
  343MOL0     H45270   4.200   6.238   9.172  0.1308 -0.1441  0.5012
  343MOL0     H45271   4.215   6.285   8.998  0.6394 -0.3622 -0.7255
  343MOL0     H45272   4.453   6.252   9.191  1.4586 -0.2414 -1.8721
  343MOL0     H45273   4.459   6.293   9.024  0.9793 -3.0082  1.1548
  343MOL0     H45274   4.369   6.669   9.183 -2.1800 -0.0892 -1.4929
  343MOL0     H45275   3.908   5.975   8.908 -0.2002  3.9145 -1.4507
  343MOL0     H45276   3.682   5.903   8.942 -1.5105  2.6450 -1.3467
  344MOL0     O45277  10.500   1.214   7.678 -0.9776 -0.3098 -0.1267
  344MOL0     C45278  10.475   1.239   7.562 -0.0773  0.8589 -0.1873
  344MOL0     O45279  10.564   1.240   7.465 -1.0777 -0.5452 -0.0696
  344MOL0     C45280  10.708   1.246   7.501  0.1400 -0.1983  0.2918
  344MOL0     C45281  10.764   1.355   7.564  0.2625  0.1353  0.5795
  344MOL0     C45282  10.897   1.364   7.597 -0.2653  0.5479 -0.0728
  344MOL0     C45283  10.975   1.253   7.564 -0.0684  0.6087 -0.1871
  344MOL0     O45284  11.117   1.246   7.577  0.9525 -0.7520 -0.5235
  344MOL0     C45285  11.175   1.316   7.690 -0.4730  0.2141 -0.7065
  344MOL0     C45286  11.328   1.302   7.680  0.0935 -0.6940  0.5819
  344MOL0     C45287  11.403   1.367   7.804  0.3733  0.3610  0.3508
  344MOL0     C45288  11.550   1.363   7.761  0.4236  0.8030  0.4638
  344MOL0     C45289  11.631   1.430   7.866  0.2096 -0.6415  1.2982
  344MOL0     C45290  11.777   1.444   7.813 -0.3187  1.1210 -0.0853
  344MOL0     C45291  11.860   1.496   7.927 -0.8808 -0.1414  0.0220
  344MOL0     C45292  12.011   1.502   7.884 -1.1563 -0.0107 -0.7227
  344MOL0     N45293  12.082   1.593   7.975  0.5076 -0.2231 -0.2984
  344MOL0     C45294  12.101   1.553   8.101  0.4262  0.3634 -0.3871
  344MOL0     C45295  12.145   1.672   8.157 -0.1268 -0.0025 -0.0060
  344MOL0     C45296  12.173   1.718   8.304  0.2516  0.0208 -0.8356
  344MOL0     C45297  12.288   1.640   8.378 -0.3509  1.2020 -0.0858
  344MOL0     C45298  12.264   1.491   8.379  0.3101  0.7396 -0.0784
  344MOL0     C45299  12.146   1.450   8.470 -0.2041  0.5596  0.1180
  344MOL0     O45300  12.020   1.470   8.397  0.0090  0.2792  0.1631
  344MOL0     C45301  11.907   1.436   8.463 -0.3774  0.1222 -0.1592
  344MOL0     C45302  11.789   1.465   8.409  0.7909  0.0359  0.0846
  344MOL0     C45303  11.666   1.438   8.462 -0.5945 -1.2157  0.4057
  344MOL0     C45304  11.650   1.381   8.586  0.5244  0.4237  0.6675
  344MOL0     C45305  11.517   1.345   8.632  0.2811  0.3561 -0.5675
  344MOL0     O45306  11.423   1.414   8.576  0.2840 -0.6962 -0.1916
  344MOL0     C45307  11.295   1.358   8.588  0.2949 -0.4913 -0.2292
  344MOL0     C45308  11.207   1.411   8.687  1.1063 -0.6108  0.5738
  344MOL0     C45309  11.079   1.362   8.707  0.6494 -0.1422 -0.0299
  344MOL0     C45310  11.032   1.254   8.638  0.1350  0.8339  0.4859
  344MOL0     O45311  10.909   1.196   8.650 -0.5379 -0.6561 -0.8063
  344MOL0     C45312  10.927   1.067   8.710  0.1844 -0.2481 -0.9647
  344MOL0     C45313  10.791   1.021   8.757 -0.3495 -0.5533  0.5201
  344MOL0     C45314  10.737   1.100   8.872  0.9259 -0.4545  0.5379
  344MOL0     C45315  10.599   1.050   8.897  0.1941 -0.1670 -0.0705
  344MOL0     C45316  10.530   1.116   9.019 -0.1345 -0.0809  0.2412
  344MOL0     C45317  10.414   1.200   8.962  0.2035  0.8512 -0.0431
  344MOL0     C45318  10.323   1.240   9.086 -0.8171 -0.5560 -0.4123
  344MOL0     C45319  10.369   1.364   9.165  0.4125  0.0440 -0.3755
  344MOL0    Cl45320  10.402   1.494   9.054  0.2043 -0.1429  0.1065
  344MOL0     C45321  11.117   1.202   8.530 -0.7465 -0.0340 -0.4053
  344MOL0     C45322  11.248   1.252   8.507 -0.2890  0.0993  0.0335
  344MOL0     O45323  11.518   1.255   8.725 -0.0749 -0.5157  0.5718
  344MOL0     C45324  11.771   1.345   8.653 -0.6291 -0.1347 -0.0290
  344MOL0     C45325  11.894   1.371   8.592  0.2136 -0.1594 -0.6709
  344MOL0     N45326  12.158   1.770   8.064 -0.7684 -0.2415 -0.1548
  344MOL0     N45327  12.108   1.726   7.954  0.0981 -0.2463  0.4341
  344MOL0     C45328  10.919   1.138   7.504  0.4183 -0.0884 -0.2943
  344MOL0     C45329  10.791   1.138   7.472  0.7507 -0.4247 -0.1912
  344MOL0     C45330  10.341   1.288   7.520  0.1656  0.1977  0.3672
  344MOL0     C45331  10.254   1.321   7.624 -0.3951 -0.3806 -0.1432
  344MOL0     C45332  10.122   1.338   7.603 -0.5070  0.0082 -0.2207
  344MOL0     C45333  10.071   1.357   7.468 -0.6615  0.5786 -0.9330
  344MOL0     O45334   9.946   1.388   7.424  0.3364  0.2523 -0.3251
  344MOL0     C45335   9.826   1.376   7.505 -0.3788 -0.6708 -0.1814
  344MOL0     C45336   9.704   1.411   7.421  0.0060 -0.1535 -0.1166
  344MOL0     C45337   9.690   1.344   7.281 -0.2834  0.6269  0.7080
  344MOL0     C45338   9.552   1.372   7.208  0.3247  0.0777  0.1127
  344MOL0     C45339   9.532   1.318   7.071 -0.0840 -0.0796 -0.2838
  344MOL0     C45340   9.525   1.271   6.960  0.6945 -0.9084  0.9437
  344MOL0     C45341  10.165   1.337   7.366 -0.0992 -0.0221  0.6529
  344MOL0     C45342  10.304   1.307   7.386 -0.2686 -0.7854  0.3085
  344MOL0     H45343  10.708   1.445   7.583  1.9523  1.3594  0.0226
  344MOL0     H45344  10.946   1.455   7.628  0.9347  0.0128 -0.3452
  344MOL0     H45345  11.143   1.266   7.782  4.7030 -0.6246  1.0016
  344MOL0     H45346  11.163   1.424   7.698  0.6899  0.3052  0.1713
  344MOL0     H45347  11.353   1.350   7.586 -2.3192  0.7838  0.6046
  344MOL0     H45348  11.361   1.198   7.668  2.2164 -0.2603  1.9937
  344MOL0     H45349  11.393   1.317   7.901 -2.6929 -0.8819 -0.4817
  344MOL0     H45350  11.362   1.468   7.815 -0.5142 -0.0962  1.4965
  344MOL0     H45351  11.591   1.268   7.727 -2.2954 -0.8386  1.4115
  344MOL0     H45352  11.561   1.410   7.662 -1.8151 -1.1534 -0.8287
  344MOL0     H45353  11.630   1.373   7.959  1.1766 -2.4667  0.2408
  344MOL0     H45354  11.582   1.526   7.885 -2.8653 -2.1389  1.4981
  344MOL0     H45355  11.780   1.509   7.725 -1.1079 -0.7808 -1.5876
  344MOL0     H45356  11.832   1.354   7.782  1.2834  1.5042  1.4547
  344MOL0     H45357  11.829   1.600   7.934 -1.5701 -0.2114 -1.5373
  344MOL0     H45358  11.854   1.439   8.020 -1.4261 -1.0939 -0.5785
  344MOL0     H45359  12.033   1.548   7.787  3.3940 -0.2024 -0.0003
  344MOL0     H45360  12.064   1.406   7.882  2.0057  1.5662  0.3818
  344MOL0     H45361  12.063   1.471   8.162  0.1323  0.9059  0.1690
  344MOL0     H45362  12.085   1.740   8.365  0.0427 -0.2945 -1.0175
  344MOL0     H45363  12.196   1.824   8.291  2.1823 -0.1358  0.9350
  344MOL0     H45364  12.284   1.670   8.483  0.7630  1.3095 -0.0602
  344MOL0     H45365  12.385   1.667   8.335  1.3290 -2.5938  0.9153
  344MOL0     H45366  12.253   1.453   8.277 -0.8851 -1.8051  0.9169
  344MOL0     H45367  12.351   1.438   8.419  1.2852  1.0427 -1.7046
  344MOL0     H45368  12.146   1.507   8.563 -2.7778 -0.4467  0.8415
  344MOL0     H45369  12.158   1.346   8.503  2.7177  0.6074 -0.5588
  344MOL0     H45370  11.790   1.517   8.313 -0.5516 -2.2490 -1.2504
  344MOL0     H45371  11.582   1.449   8.394 -0.0699 -3.1227 -0.6057
  344MOL0     H45372  11.251   1.487   8.751  1.6111  0.5874 -1.1439
  344MOL0     H45373  11.019   1.398   8.790  1.5868 -0.8029  0.9772
  344MOL0     H45374  10.993   1.075   8.797  0.4588 -1.7373 -1.0117
  344MOL0     H45375  10.982   1.008   8.636  0.5807  0.5834 -1.3587
  344MOL0     H45376  10.802   0.913   8.771  2.2275 -0.3981  0.0524
  344MOL0     H45377  10.721   1.027   8.674  2.6697 -0.7132 -2.2286
  344MOL0     H45378  10.730   1.204   8.839 -0.3737 -0.1535  1.7101
  344MOL0     H45379  10.802   1.085   8.959 -0.9533 -0.5623  1.9870
  344MOL0     H45380  10.541   1.064   8.805  0.1344 -2.1517 -0.3811
  344MOL0     H45381  10.593   0.941   8.907 -2.8952  0.0580  2.0181
  344MOL0     H45382  10.597   1.170   9.087 -0.6580  1.9127 -0.7454
  344MOL0     H45383  10.473   1.045   9.079  1.1372 -2.1502 -0.9149
  344MOL0     H45384  10.350   1.137   8.899  0.8520  0.4359 -0.2895
  344MOL0     H45385  10.448   1.285   8.901  0.0550  1.2654  0.4441
  344MOL0     H45386  10.233   1.269   9.029 -0.9070 -0.8873 -0.4407
  344MOL0     H45387  10.322   1.159   9.159 -2.1540  0.6628  1.0029
  344MOL0     H45388  10.457   1.358   9.229  0.2328  2.5118  0.1729
  344MOL0     H45389  10.293   1.395   9.236 -1.6867 -4.6801 -0.1743
  344MOL0     H45390  11.074   1.133   8.457 -0.8418  1.4189 -1.7591
  344MOL0     H45391  11.303   1.215   8.421 -3.3327 -0.0439 -2.0055
  344MOL0     H45392  11.762   1.296   8.750  1.4351 -0.3413  0.1008
  344MOL0     H45393  11.987   1.343   8.641  0.4804  0.5961 -0.7252
  344MOL0     H45394  10.992   1.060   7.483 -0.3434 -0.5594 -1.2886
  344MOL0     H45395  10.741   1.054   7.425  0.1898 -0.9042  1.2213
  344MOL0     H45396  10.290   1.316   7.726 -0.9374 -3.1816 -0.0004
  344MOL0     H45397  10.057   1.355   7.688 -3.1008  0.3390 -2.1322
  344MOL0     H45398   9.843   1.438   7.593  3.2180 -1.1729 -0.3642
  344MOL0     H45399   9.811   1.273   7.538  0.0550 -1.2278 -1.6125
  344MOL0     H45400   9.616   1.386   7.481 -0.3503 -1.3827 -1.1115
  344MOL0     H45401   9.707   1.520   7.412 -1.6713 -0.1254 -0.8173
  344MOL0     H45402   9.680   1.238   7.308 -1.8712  0.3325 -0.8188
  344MOL0     H45403   9.773   1.368   7.215  1.7434 -1.8641  2.1510
  344MOL0     H45404   9.478   1.326   7.274  1.8620 -1.2828  0.9897
  344MOL0     H45405   9.537   1.480   7.212  2.0152  0.3027  1.7172
  344MOL0     H45406   9.537   1.229   6.862 -3.5168 -0.9363  0.2563
  344MOL0     H45407  10.125   1.332   7.265  2.5844 -0.9734 -0.4347
  344MOL0     H45408  10.382   1.305   7.310 -0.4464  0.6268  0.0523
  345MOL0     O45409   8.572  11.197   4.987  0.2324 -0.0605  0.2634
  345MOL0     C45410   8.668  11.124   4.965  0.4492 -0.1005  1.6878
  345MOL0     O45411   8.670  10.990   4.941  0.0214 -1.3276 -0.7052
  345MOL0     C45412   8.558  10.925   4.898 -1.0217 -0.1642  0.0365
  345MOL0     C45413   8.539  10.786   4.924  0.7494 -0.0345  0.4712
  345MOL0     C45414   8.436  10.714   4.859  0.3966  0.3538 -1.3085
  345MOL0     C45415   8.334  10.775   4.786  0.6819  0.1537  0.8044
  345MOL0     O45416   8.216  10.716   4.746  0.1519 -0.2893 -0.2375
  345MOL0     C45417   8.085  10.752   4.793  0.4406 -0.2408 -0.3685
  345MOL0     C45418   8.064  10.715   4.941  0.1151 -0.1712  0.1885
  345MOL0     C45419   7.923  10.733   4.996 -0.7589  0.2849 -1.6197
  345MOL0     C45420   7.806  10.697   4.900  0.8259 -0.6094 -0.5004
  345MOL0     C45421   7.674  10.713   4.974  0.3185 -0.2997 -0.4455
  345MOL0     C45422   7.567  10.630   4.912  0.2046  1.0596 -0.1090
  345MOL0     C45423   7.424  10.670   4.952 -0.0259 -0.8674  0.3012
  345MOL0     C45424   7.418  10.667   5.108 -1.0172 -0.3193  0.8076
  345MOL0     N45425   7.285  10.688   5.168  1.1374 -0.6656  0.2080
  345MOL0     C45426   7.164  10.652   5.113 -0.0562 -0.1903  0.7870
  345MOL0     C45427   7.073  10.702   5.209  1.7231  0.1603  0.7769
  345MOL0     C45428   6.923  10.675   5.219 -0.1668  0.0931  0.1200
  345MOL0     C45429   6.840  10.752   5.127 -0.3460 -0.2372  0.0844
  345MOL0     C45430   6.702  10.695   5.109  0.0039  1.0685 -0.6014
  345MOL0     C45431   6.626  10.801   5.035 -0.2472  0.1713 -0.1565
  345MOL0     O45432   6.541  10.747   4.927  0.0099  0.3165 -0.5103
  345MOL0     C45433   6.417  10.716   4.963 -0.0811  0.6866 -0.1508
  345MOL0     C45434   6.323  10.712   4.856  0.1094  0.1666  0.2884
  345MOL0     C45435   6.197  10.647   4.875  0.2909 -0.4452 -0.0500
  345MOL0     C45436   6.164  10.595   5.005  0.1436  0.5099  0.1947
  345MOL0     C45437   6.042  10.516   5.018 -0.7238 -0.6441 -0.5649
  345MOL0     O45438   5.984  10.472   4.901 -0.4392 -0.8237  0.1076
  345MOL0     C45439   5.868  10.399   4.882  0.4346  0.1329 -0.4658
  345MOL0     C45440   5.756  10.408   4.970 -0.2021 -0.0809  0.2726
  345MOL0     C45441   5.639  10.331   4.940 -1.2183 -0.1010  0.1036
  345MOL0     C45442   5.639  10.246   4.830  0.5187 -0.1150  0.2150
  345MOL0     O45443   5.524  10.169   4.809 -0.0136  0.4125 -0.8926
  345MOL0     C45444   5.508  10.118   4.676  1.2003  1.3954 -1.2499
  345MOL0     C45445   5.355  10.101   4.655  0.0335 -0.2587 -0.5299
  345MOL0     C45446   5.327  10.026   4.533 -0.3909  0.9233  0.2435
  345MOL0     C45447   5.176  10.010   4.509 -1.3136 -0.2669 -0.1082
  345MOL0     C45448   5.139   9.878   4.582 -0.1159 -0.2704  0.3806
  345MOL0     C45449   5.014   9.817   4.517  0.4418 -0.9023 -0.5772
  345MOL0     C45450   4.894   9.887   4.565  0.8831  0.4467  0.1457
  345MOL0     C45451   4.760   9.820   4.511  0.1333  0.5558  0.1268
  345MOL0    Cl45452   4.615   9.897   4.576  0.2507 -0.0799  0.6443
  345MOL0     C45453   5.756  10.229   4.753  0.6472 -0.6046 -0.2676
  345MOL0     C45454   5.864  10.303   4.781  0.2602  0.8379  0.3837
  345MOL0     O45455   6.010  10.486   5.133 -0.4279 -0.1224  0.0756
  345MOL0     C45456   6.255  10.603   5.106 -0.1074  0.9817  0.5781
  345MOL0     C45457   6.381  10.653   5.083  0.3451  0.1942 -0.2218
  345MOL0     N45458   7.136  10.768   5.309 -0.5485 -0.2537 -0.5256
  345MOL0     N45459   7.261  10.746   5.289 -0.4386  0.3300  0.3030
  345MOL0     C45460   8.343  10.916   4.781 -0.1606 -0.7543 -0.4415
  345MOL0     C45461   8.462  10.984   4.824  0.1123  0.3606  0.9505
  345MOL0     C45462   8.795  11.200   4.942  0.2302 -0.2156  0.1770
  345MOL0     C45463   8.917  11.137   4.966 -0.9263  0.5475 -0.1907
  345MOL0     C45464   9.042  11.200   4.952  0.1808  0.9982  0.2796
  345MOL0     C45465   9.042  11.328   4.916  0.0226 -1.2709  0.3291
  345MOL0     O45466   9.153  11.409   4.910  0.0426  0.0536  0.0729
  345MOL0     C45467   9.280  11.345   4.902  0.7586 -0.2761  0.4077
  345MOL0     C45468   9.310  11.297   4.761  0.1727  0.5932 -0.1432
  345MOL0     C45469   9.411  11.183   4.778 -0.0793 -0.2092 -0.4026
  345MOL0     C45470   9.445  11.124   4.644 -0.3530  0.0585 -0.1562
  345MOL0     C45471   9.456  11.210   4.521 -0.8897 -1.0650 -0.3996
  345MOL0     C45472   9.457  11.264   4.409  0.1567 -0.8055 -1.6527
  345MOL0     C45473   8.921  11.395   4.899 -0.5497  0.0678  0.9307
  345MOL0     C45474   8.796  11.338   4.916  0.0669 -0.4883 -0.7730
  345MOL0     H45475   8.604  10.739   4.998  0.1103 -0.4884  0.7499
  345MOL0     H45476   8.431  10.609   4.883  0.7968  0.1648 -2.0306
  345MOL0     H45477   8.023  10.690   4.728 -2.9546  1.3279  1.0902
  345MOL0     H45478   8.054  10.857   4.782 -2.4561 -0.9131  0.3854
  345MOL0     H45479   8.125  10.791   4.990  2.7369 -1.7097 -0.5367
  345MOL0     H45480   8.108  10.616   4.953  1.4167  0.2908 -0.6327
  345MOL0     H45481   7.921  10.839   5.024 -1.1925 -0.3798  1.2236
  345MOL0     H45482   7.923  10.678   5.091 -3.5073  0.7301 -1.2786
  345MOL0     H45483   7.790  10.766   4.817  0.7912  0.4125  0.3325
  345MOL0     H45484   7.815  10.596   4.858 -0.9115  0.6708 -4.4135
  345MOL0     H45485   7.639  10.817   4.972 -2.2854 -1.0977 -1.7011
  345MOL0     H45486   7.691  10.677   5.076  1.2031 -1.3192 -0.9345
  345MOL0     H45487   7.589  10.527   4.943  1.1679  0.5601 -2.2956
  345MOL0     H45488   7.568  10.621   4.803 -1.7511 -0.2396 -0.0683
  345MOL0     H45489   7.395  10.768   4.914  0.5359 -0.9847 -0.4654
  345MOL0     H45490   7.352  10.598   4.913  0.8929 -0.7831 -1.6956
  345MOL0     H45491   7.495  10.737   5.144 -1.2121  1.6355 -2.2178
  345MOL0     H45492   7.434  10.562   5.135  1.2525 -1.3621 -3.5030
  345MOL0     H45493   7.139  10.598   5.022  1.8569  3.4912 -2.1994
  345MOL0     H45494   6.886  10.692   5.321  2.3665  1.2753  0.9478
  345MOL0     H45495   6.916  10.570   5.191  1.3126  0.1061 -0.4340
  345MOL0     H45496   6.906  10.756   5.040  1.0239 -2.2274  0.9557
  345MOL0     H45497   6.827  10.853   5.165 -3.6021 -0.9294  1.0640
  345MOL0     H45498   6.706  10.594   5.068  1.2538  0.4622  0.9129
  345MOL0     H45499   6.664  10.704   5.211  1.0670  1.9483 -0.2579
  345MOL0     H45500   6.688  10.881   4.993  2.5117  0.0709  3.2768
  345MOL0     H45501   6.561  10.855   5.104 -0.9718 -0.3971 -0.3776
  345MOL0     H45502   6.359  10.748   4.760  2.6423  0.9722  1.4668
  345MOL0     H45503   6.121  10.638   4.797  0.0485 -1.2338  0.2686
  345MOL0     H45504   5.746  10.482   5.049 -0.6446  0.0400  0.1087
  345MOL0     H45505   5.550  10.334   5.002 -0.4924 -2.6126  1.4040
  345MOL0     H45506   5.555  10.019   4.673 -3.4734 -1.2566  1.4123
  345MOL0     H45507   5.530  10.189   4.595 -0.4194  2.4053 -0.8484
  345MOL0     H45508   5.318  10.205   4.654  1.3767  0.2532 -1.9914
  345MOL0     H45509   5.325  10.044   4.743 -0.0512  0.9634  0.2603
  345MOL0     H45510   5.383   9.932   4.530 -0.2963  1.0031 -1.3271
  345MOL0     H45511   5.362  10.079   4.444  1.0941 -0.1857  0.1344
  345MOL0     H45512   5.118  10.100   4.534 -2.1169 -0.2104 -2.0116
  345MOL0     H45513   5.157   9.997   4.402  1.5952  2.0474 -1.0418
  345MOL0     H45514   5.125   9.888   4.690  0.3760 -1.4242  0.5619
  345MOL0     H45515   5.219   9.805   4.566  1.1509  1.3720 -1.1748
  345MOL0     H45516   5.018   9.713   4.552  3.7662 -0.7715 -0.1536
  345MOL0     H45517   5.010   9.812   4.408 -2.0586 -1.2742 -0.5146
  345MOL0     H45518   4.900   9.887   4.674  1.4338  0.2490  0.1169
  345MOL0     H45519   4.896   9.993   4.540 -1.1499  0.8371  1.4058
  345MOL0     H45520   4.753   9.718   4.550 -1.5943  0.1165 -1.2189
  345MOL0     H45521   4.745   9.814   4.403 -2.9184 -1.0651  0.5440
  345MOL0     H45522   5.767  10.148   4.682  1.3953  0.4393 -1.3664
  345MOL0     H45523   5.950  10.295   4.716 -1.1469 -0.7014 -1.3865
  345MOL0     H45524   6.247  10.554   5.202  1.9204  2.2392  1.4565
  345MOL0     H45525   6.446  10.649   5.170 -1.3793  0.6972  1.1552
  345MOL0     H45526   8.263  10.982   4.749  0.5533  0.2498 -0.2161
  345MOL0     H45527   8.470  11.091   4.805  4.0227  0.1924  0.8291
  345MOL0     H45528   8.913  11.045   5.023  1.0107  0.7425  0.3285
  345MOL0     H45529   9.124  11.133   4.977  0.5882  2.3833  3.1473
  345MOL0     H45530   9.287  11.269   4.981 -1.5105 -1.4713 -0.4571
  345MOL0     H45531   9.354  11.421   4.928 -0.6078  1.4407 -0.5807
  345MOL0     H45532   9.219  11.256   4.718 -0.1705 -2.3438  2.9793
  345MOL0     H45533   9.359  11.370   4.696 -1.3876  2.8389  1.0621
  345MOL0     H45534   9.360  11.105   4.834 -0.4085 -0.2294 -0.7216
  345MOL0     H45535   9.502  11.215   4.828  0.5451 -0.1391 -1.5422
  345MOL0     H45536   9.539  11.069   4.655  0.9445  2.5496  2.5740
  345MOL0     H45537   9.364  11.053   4.625 -2.2052  2.2600 -0.9676
  345MOL0     H45538   9.465  11.303   4.310 -3.9913  0.1263 -1.8311
  345MOL0     H45539   8.912  11.498   4.868  1.7194  0.0286 -0.0679
  345MOL0     H45540   8.707  11.399   4.902 -0.5150 -1.2473 -0.4199
  346MOL0     O45541   2.693   4.982   1.343  0.9457 -0.1881  0.7578
  346MOL0     C45542   2.648   4.870   1.336  0.5533 -0.7113 -0.4866
  346MOL0     O45543   2.515   4.830   1.315  0.6426 -0.8927  0.1634
  346MOL0     C45544   2.415   4.919   1.290  0.2317 -0.4382  0.1716
  346MOL0     C45545   2.298   4.890   1.358  0.3205 -0.2150  1.1705
  346MOL0     C45546   2.178   4.955   1.338  0.0972 -0.2612 -0.1071
  346MOL0     C45547   2.180   5.057   1.243  0.5345  0.0858 -0.2605
  346MOL0     O45548   2.068   5.118   1.201 -0.5339  0.0939  0.2211
  346MOL0     C45549   1.937   5.063   1.235  0.3760 -0.2162 -1.0988
  346MOL0     C45550   1.839   5.182   1.209  0.0723 -0.8373  1.1697
  346MOL0     C45551   1.789   5.177   1.067  0.0476  0.1916  0.0177
  346MOL0     C45552   1.660   5.262   1.042 -0.5289  0.7623 -0.0971
  346MOL0     C45553   1.622   5.300   0.906 -0.2916 -0.1103  0.1109
  346MOL0     C45554   1.500   5.393   0.897  0.5199  0.4004  0.3139
  346MOL0     C45555   1.522   5.542   0.886  1.0818 -1.0244 -1.0088
  346MOL0     C45556   1.372   5.610   0.863 -0.4803  0.1568 -0.0757
  346MOL0     N45557   1.318   5.620   1.003 -0.6046  0.0509  0.6730
  346MOL0     C45558   1.358   5.706   1.106  0.5335  0.0308  0.3474
  346MOL0     C45559   1.257   5.697   1.193 -0.4325 -0.0920 -0.6102
  346MOL0     C45560   1.228   5.770   1.330 -0.1464 -0.9383  0.2883
  346MOL0     C45561   1.247   5.918   1.306  0.0044 -0.2860  0.1160
  346MOL0     C45562   1.236   5.992   1.437  0.5493 -0.5182 -0.0401
  346MOL0     C45563   1.344   5.959   1.538 -0.0200  0.3613 -0.6981
  346MOL0     O45564   1.469   5.988   1.475 -0.2345  0.1259 -0.3095
  346MOL0     C45565   1.581   6.015   1.551 -0.7204  0.5596  0.3453
  346MOL0     C45566   1.700   6.036   1.482  0.6148  0.3547  0.5952
  346MOL0     C45567   1.821   6.063   1.542 -0.5244 -0.4673 -1.1641
  346MOL0     C45568   1.820   6.082   1.683  0.1853  0.1292 -0.2189
  346MOL0     C45569   1.943   6.136   1.738  0.2625  1.2292  0.1349
  346MOL0     O45570   1.941   6.168   1.869  0.3209  0.0695 -0.3899
  346MOL0     C45571   2.039   6.238   1.947  0.2541 -0.1668  0.5242
  346MOL0     C45572   2.168   6.202   1.945  0.1709  0.6038 -0.7270
  346MOL0     C45573   2.265   6.248   2.033  0.2701  0.1470 -0.5428
  346MOL0     C45574   2.238   6.338   2.130 -0.3765  0.1098  0.2024
  346MOL0     O45575   2.328   6.372   2.231  0.5830  0.1405  0.3214
  346MOL0     C45576   2.440   6.293   2.265  0.1175 -0.8498  0.3825
  346MOL0     C45577   2.511   6.354   2.381  0.0863  0.2710 -0.3515
  346MOL0     C45578   2.627   6.260   2.430  0.8235 -0.5017  0.5911
  346MOL0     C45579   2.718   6.334   2.529 -0.8349  0.2265  0.3284
  346MOL0     C45580   2.851   6.262   2.510 -0.2462 -0.4198  0.2366
  346MOL0     C45581   2.949   6.313   2.612  0.5635 -0.3223 -0.9078
  346MOL0     C45582   3.097   6.265   2.593  0.7474  0.4609 -0.2539
  346MOL0     C45583   3.183   6.374   2.659  0.0993  0.5724 -0.1276
  346MOL0    Cl45584   3.359   6.337   2.643  0.2351 -0.1727  0.0230
  346MOL0     C45585   2.104   6.387   2.133 -0.4298  0.2454 -0.7614
  346MOL0     C45586   2.006   6.321   2.053  0.4279  0.3508  0.2867
  346MOL0     O45587   2.047   6.143   1.673  0.6667 -0.1933  0.1070
  346MOL0     C45588   1.700   6.065   1.757  0.7899 -0.7248  0.3785
  346MOL0     C45589   1.579   6.033   1.690  0.5534 -0.3917  0.0104
  346MOL0     N45590   1.160   5.609   1.155 -0.7784 -0.1034 -1.2571
  346MOL0     N45591   1.200   5.565   1.044  0.2486 -0.0709 -0.7033
  346MOL0     C45592   2.297   5.095   1.175  0.4160 -0.2142  0.1963
  346MOL0     C45593   2.415   5.029   1.194 -1.0284  0.4406 -0.8342
  346MOL0     C45594   2.748   4.766   1.349 -0.7758  0.4387 -0.3527
  346MOL0     C45595   2.711   4.628   1.347  1.1567  0.2979  0.2299
  346MOL0     C45596   2.794   4.531   1.361 -0.0600  0.9615  0.1271
  346MOL0     C45597   2.933   4.555   1.379 -0.4884 -0.3858 -0.3847
  346MOL0     O45598   3.017   4.445   1.371  0.5121 -0.3873  0.4245
  346MOL0     C45599   3.156   4.453   1.406  0.4144  0.6696  0.0970
  346MOL0     C45600   3.237   4.370   1.315 -0.5551  0.9295 -0.7762
  346MOL0     C45601   3.280   4.452   1.193 -0.4696 -0.1745  0.5713
  346MOL0     C45602   3.172   4.514   1.109  0.2875 -0.2218 -0.4142
  346MOL0     C45603   3.222   4.550   0.978  0.3248 -0.8147  0.5121
  346MOL0     C45604   3.263   4.591   0.866  1.0046 -0.0637 -0.2474
  346MOL0     C45605   2.971   4.688   1.409  0.3596  0.7391 -0.4740
  346MOL0     C45606   2.881   4.789   1.396  0.2363 -0.0051  0.6084
  346MOL0     H45607   2.297   4.801   1.419 -0.5635 -2.6328 -2.0727
  346MOL0     H45608   2.087   4.920   1.384  2.1262 -1.4890  3.3516
  346MOL0     H45609   1.916   5.030   1.337  0.0608  1.1998 -0.6800
  346MOL0     H45610   1.912   4.983   1.164 -3.2265 -1.2363  1.0623
  346MOL0     H45611   1.877   5.282   1.228 -1.0698  0.0054 -0.7065
  346MOL0     H45612   1.749   5.162   1.268 -0.2628 -1.5535  0.4390
  346MOL0     H45613   1.764   5.075   1.034 -4.1257  1.8463 -2.8469
  346MOL0     H45614   1.879   5.203   1.011  1.2723 -0.1884  1.7193
  346MOL0     H45615   1.577   5.206   1.087 -0.3073  0.4475 -0.0766
  346MOL0     H45616   1.671   5.350   1.106 -0.1955 -0.4399  1.5695
  346MOL0     H45617   1.584   5.210   0.856 -1.8984 -1.1196  2.9047
  346MOL0     H45618   1.699   5.341   0.841 -2.8912  3.6143 -0.9040
  346MOL0     H45619   1.428   5.365   0.974  0.0020 -1.1099 -0.6884
  346MOL0     H45620   1.437   5.359   0.815 -1.4100 -0.1270  1.9351
  346MOL0     H45621   1.569   5.562   0.983 -0.7767 -0.6730 -0.1335
  346MOL0     H45622   1.583   5.573   0.801  2.6981 -0.1523  0.4139
  346MOL0     H45623   1.315   5.559   0.786  0.0185 -1.2248  0.4338
  346MOL0     H45624   1.396   5.706   0.816  0.3614  0.2338  0.4848
  346MOL0     H45625   1.456   5.754   1.111  1.1477 -0.7220 -2.3705
  346MOL0     H45626   1.304   5.739   1.403 -0.8809 -3.3310  0.1222
  346MOL0     H45627   1.131   5.752   1.376 -0.4661 -1.9549 -0.7383
  346MOL0     H45628   1.168   5.959   1.241  0.7931  0.6200 -0.2965
  346MOL0     H45629   1.341   5.938   1.255 -0.9193  0.9252 -1.1916
  346MOL0     H45630   1.242   6.099   1.414  0.2080 -0.6079 -0.5777
  346MOL0     H45631   1.138   5.974   1.482  0.6295 -0.9674 -0.0476
  346MOL0     H45632   1.348   5.854   1.569  2.3658  0.7727  0.6406
  346MOL0     H45633   1.319   6.014   1.629 -0.9960 -0.1684 -0.6318
  346MOL0     H45634   1.702   6.034   1.373 -0.2765  0.7848  0.5641
  346MOL0     H45635   1.905   6.083   1.477  0.3470  1.5136  0.4254
  346MOL0     H45636   2.198   6.128   1.872 -0.4411 -0.4299  0.0498
  346MOL0     H45637   2.364   6.205   2.019 -0.1781 -2.0415  2.1075
  346MOL0     H45638   2.488   6.281   2.167 -3.9949 -1.0581 -1.8019
  346MOL0     H45639   2.408   6.191   2.288  1.8655 -1.7775 -0.9686
  346MOL0     H45640   2.446   6.368   2.467  1.8073  1.9922  0.7489
  346MOL0     H45641   2.559   6.447   2.348 -1.7419  0.7887 -1.7182
  346MOL0     H45642   2.677   6.218   2.342 -0.3735 -1.2448  0.2341
  346MOL0     H45643   2.572   6.175   2.472 -1.4975  0.6176 -0.0483
  346MOL0     H45644   2.733   6.435   2.490  1.1266 -0.0295  0.3410
  346MOL0     H45645   2.665   6.321   2.624 -0.6327 -1.4139  0.2417
  346MOL0     H45646   2.899   6.278   2.413  1.5953 -0.5657  1.0814
  346MOL0     H45647   2.836   6.154   2.525 -3.2946 -0.0713  0.2789
  346MOL0     H45648   2.905   6.282   2.707  1.9348  2.1448  0.6281
  346MOL0     H45649   2.940   6.422   2.609  0.4318 -0.2777  0.4716
  346MOL0     H45650   3.107   6.167   2.641 -2.3746  0.7515  1.2560
  346MOL0     H45651   3.136   6.261   2.491  1.8071 -0.5797  0.1656
  346MOL0     H45652   3.152   6.379   2.763  1.7493 -0.0694  0.4228
  346MOL0     H45653   3.171   6.475   2.618 -0.0572  0.1897 -1.0512
  346MOL0     H45654   2.079   6.472   2.195  3.6192  0.3404  0.9740
  346MOL0     H45655   1.904   6.356   2.058  0.7393  1.1450  2.4928
  346MOL0     H45656   1.714   6.061   1.865  1.4309 -0.5464  0.3078
  346MOL0     H45657   1.486   6.018   1.743 -0.7157 -1.6356 -2.4170
  346MOL0     H45658   2.292   5.167   1.094 -1.5440  1.0968  1.3885
  346MOL0     H45659   2.496   5.056   1.126 -0.8226  0.9715 -0.3902
  346MOL0     H45660   2.612   4.593   1.319  0.6646  2.0554 -0.3617
  346MOL0     H45661   2.759   4.429   1.348  0.6098  0.7310  0.0744
  346MOL0     H45662   3.163   4.415   1.508 -2.3965 -0.6019 -0.0641
  346MOL0     H45663   3.207   4.548   1.417  4.1323 -1.4397  3.4756
  346MOL0     H45664   3.329   4.343   1.368 -0.6146  1.3028 -0.4803
  346MOL0     H45665   3.189   4.274   1.290  1.9933 -0.4442 -0.6961
  346MOL0     H45666   3.346   4.391   1.131 -1.7828 -0.4240 -0.6355
  346MOL0     H45667   3.346   4.530   1.232  1.9989 -1.8364 -0.0835
  346MOL0     H45668   3.097   4.439   1.081  0.4636 -0.2200 -0.8985
  346MOL0     H45669   3.121   4.595   1.161 -0.2868 -0.7264 -0.1696
  346MOL0     H45670   3.301   4.643   0.781 -2.4275  0.1974 -1.7742
  346MOL0     H45671   3.076   4.717   1.419  0.4340 -0.1565  2.0335
  346MOL0     H45672   2.924   4.887   1.416  1.8030 -0.5316 -0.0226
  347MOL0     O45673   0.871   9.725   4.428  0.4818 -0.5149 -0.1707
  347MOL0     C45674   0.816   9.706   4.538  0.0954  0.0764  1.0444
  347MOL0     O45675   0.875   9.727   4.655 -0.1390 -0.0298 -0.2042
  347MOL0     C45676   0.996   9.787   4.687 -0.1793  0.0914 -0.3528
  347MOL0     C45677   1.036   9.783   4.818  0.2444  0.7354 -0.0136
  347MOL0     C45678   1.162   9.826   4.866 -0.0328 -0.0015 -0.3880
  347MOL0     C45679   1.252   9.883   4.775  0.1541 -0.0496  0.4094
  347MOL0     O45680   1.371   9.943   4.807  0.5077  0.0826 -0.1885
  347MOL0     C45681   1.380  10.010   4.932 -0.3309 -0.2812  0.6046
  347MOL0     C45682   1.520  10.052   4.936 -0.3098  0.0322  0.2556
  347MOL0     C45683   1.558  10.110   5.074 -0.2580 -0.2362  0.6652
  347MOL0     C45684   1.707  10.090   5.111  0.5432 -0.9255  0.6761
  347MOL0     C45685   1.732  10.140   5.252 -0.1667 -0.0973 -0.2064
  347MOL0     C45686   1.879  10.165   5.267 -0.6753  1.0498 -0.1087
  347MOL0     C45687   1.923  10.229   5.402  0.1713 -0.5734  0.2719
  347MOL0     C45688   2.061  10.295   5.399  0.1752 -0.4033  0.7791
  347MOL0     N45689   2.172  10.210   5.417 -0.5142  0.2955 -0.0977
  347MOL0     C45690   2.297  10.258   5.435 -0.1308 -0.8908  0.3618
  347MOL0     C45691   2.379  10.151   5.431 -1.2968  0.0015 -0.6704
  347MOL0     C45692   2.528  10.146   5.456  0.6246  0.1358  0.0934
  347MOL0     C45693   2.601  10.226   5.351 -0.3002  0.0056 -0.1631
  347MOL0     C45694   2.609  10.172   5.201 -1.0012  0.0885  0.2589
  347MOL0     C45695   2.653  10.029   5.189 -0.2140 -0.1073 -0.5364
  347MOL0     O45696   2.772   9.995   5.262  0.0569 -0.1116  0.3512
  347MOL0     C45697   2.900  10.021   5.212 -0.2516  0.1448 -0.5874
  347MOL0     C45698   3.006  10.014   5.311  0.0224  0.1743 -0.3116
  347MOL0     C45699   3.134  10.050   5.266  0.2336  0.4380  0.5689
  347MOL0     C45700   3.164  10.087   5.134 -0.4183 -0.8000 -0.8274
  347MOL0     C45701   3.298  10.116   5.091  0.0522  0.0369  0.4203
  347MOL0     O45702   3.401  10.099   5.188 -0.7085  0.5888 -1.3208
  347MOL0     C45703   3.535  10.123   5.166 -0.1065  0.1346  0.4429
  347MOL0     C45704   3.588  10.219   5.067  0.4292  0.1930 -0.6922
  347MOL0     C45705   3.725  10.236   5.066 -0.3888 -0.2679  0.2152
  347MOL0     C45706   3.811  10.174   5.153 -0.3359  0.1313 -0.8247
  347MOL0     O45707   3.942  10.207   5.145  0.6900 -0.1586  0.5244
  347MOL0     C45708   4.024  10.188   5.261  0.9229  0.1439  0.6301
  347MOL0     C45709   4.163  10.228   5.218 -0.4167  0.3219 -0.0103
  347MOL0     C45710   4.192  10.372   5.271  0.7341 -0.2702  0.4850
  347MOL0     C45711   4.318  10.431   5.204  0.7373  0.0409  0.4223
  347MOL0     C45712   4.416  10.518   5.294 -0.1651 -0.0348  0.6351
  347MOL0     C45713   4.451  10.656   5.226 -0.0201  0.3550  0.1159
  347MOL0     C45714   4.332  10.742   5.180 -0.1596  0.2671  0.1298
  347MOL0     C45715   4.357  10.789   5.042  0.4828 -0.4193 -0.9475
  347MOL0    Cl45716   4.210  10.872   5.003  0.4614 -0.0478  0.2090
  347MOL0     C45717   3.760  10.076   5.242 -0.3775 -0.3084  0.0753
  347MOL0     C45718   3.621  10.047   5.245  0.8494 -0.2954  0.1327
  347MOL0     O45719   3.308  10.162   4.978  0.4800  0.0964 -0.0675
  347MOL0     C45720   3.058  10.105   5.040 -0.2017 -0.1848 -0.0135
  347MOL0     C45721   2.929  10.072   5.081  0.4221 -0.0395 -0.5595
  347MOL0     N45722   2.306  10.041   5.409  0.9524  0.1352  0.0579
  347MOL0     N45723   2.184  10.076   5.395 -0.4450  0.5666 -0.4455
  347MOL0     C45724   1.212   9.875   4.640 -0.2200 -0.3932 -0.2272
  347MOL0     C45725   1.087   9.827   4.598 -1.2890  0.0985  0.4107
  347MOL0     C45726   0.690   9.653   4.542 -0.6078  0.2565 -0.2486
  347MOL0     C45727   0.635   9.592   4.430  0.3386  0.6054  0.1034
  347MOL0     C45728   0.508   9.527   4.442  0.4884 -0.8337  0.2371
  347MOL0     C45729   0.435   9.539   4.555 -0.0607  0.3874 -1.5402
  347MOL0     O45730   0.308   9.492   4.567 -0.5081  0.9177  0.1532
  347MOL0     C45731   0.219   9.545   4.671 -0.5736 -1.1760  0.9031
  347MOL0     C45732   0.068   9.505   4.652 -0.8509  0.8647 -0.0150
  347MOL0     C45733  -0.017   9.628   4.598 -0.3062  0.5392  0.0413
  347MOL0     C45734  -0.151   9.576   4.544  0.7250 -0.1045  0.4823
  347MOL0     C45735  -0.159   9.527   4.404  1.2239 -0.0749 -0.1664
  347MOL0     C45736  -0.159   9.479   4.296 -0.1699 -0.1203 -0.1123
  347MOL0     C45737   0.498   9.578   4.671  0.4816  0.1090 -0.0876
  347MOL0     C45738   0.619   9.638   4.669 -0.0632 -0.1310  0.1515
  347MOL0     H45739   0.973   9.728   4.887  2.3195 -2.2201 -0.3250
  347MOL0     H45740   1.193   9.805   4.968 -1.4145 -2.4646 -0.3878
  347MOL0     H45741   1.350   9.951   5.019 -1.9843  2.1712  1.7983
  347MOL0     H45742   1.322  10.102   4.933  1.4750  0.9371 -0.8992
  347MOL0     H45743   1.536  10.132   4.863  0.1495  1.8393  2.2350
  347MOL0     H45744   1.587   9.971   4.905  0.3977  0.4216  0.7545
  347MOL0     H45745   1.499  10.048   5.142  1.2082 -0.4144  1.8174
  347MOL0     H45746   1.522  10.214   5.078  1.2560  0.2799  1.5373
  347MOL0     H45747   1.726   9.985   5.084 -0.5112 -1.3590  1.5682
  347MOL0     H45748   1.771  10.154   5.049 -2.4973  1.2489 -0.4426
  347MOL0     H45749   1.699  10.061   5.321  1.8712  0.6203  1.7099
  347MOL0     H45750   1.674  10.227   5.283  3.8669  2.2111  1.5812
  347MOL0     H45751   1.908  10.239   5.191 -0.0701 -0.2495 -1.1881
  347MOL0     H45752   1.941  10.079   5.241 -1.9715  0.2194 -0.5240
  347MOL0     H45753   1.856  10.312   5.425  2.8387  2.3874 -1.7899
  347MOL0     H45754   1.926  10.157   5.485  2.2215 -3.0883 -1.7892
  347MOL0     H45755   2.057  10.371   5.477 -2.8509  0.3029  0.0966
  347MOL0     H45756   2.068  10.350   5.305 -1.7860 -0.4067  0.5872
  347MOL0     H45757   2.321  10.364   5.437  1.8738 -1.2345 -1.6533
  347MOL0     H45758   2.580  10.050   5.450  2.5871  1.0554  1.3129
  347MOL0     H45759   2.550  10.185   5.556  2.1658 -0.5911  0.0564
  347MOL0     H45760   2.703  10.240   5.389 -0.6275 -0.4067  0.8994
  347MOL0     H45761   2.551  10.323   5.349 -1.2365 -0.4827 -0.9565
  347MOL0     H45762   2.520  10.185   5.139  0.5099  1.1786 -1.8182
  347MOL0     H45763   2.679  10.237   5.148 -2.6501  3.1515  1.5453
  347MOL0     H45764   2.672  10.001   5.085 -0.5692 -2.5976 -0.0009
  347MOL0     H45765   2.568   9.967   5.219  0.1908 -0.0288  0.8172
  347MOL0     H45766   2.994   9.974   5.411  3.6528 -1.3825 -0.3320
  347MOL0     H45767   3.213  10.023   5.335  0.7907 -1.6608 -0.8142
  347MOL0     H45768   3.524  10.279   5.004 -1.4890  0.7839  1.6772
  347MOL0     H45769   3.769  10.312   5.001  1.8087 -0.9049  0.8761
  347MOL0     H45770   4.032  10.087   5.300  2.1732  0.0315  0.1473
  347MOL0     H45771   3.985  10.239   5.350 -2.8180 -1.1916 -0.0495
  347MOL0     H45772   4.170  10.222   5.109  3.3305 -1.8537  0.1832
  347MOL0     H45773   4.235  10.161   5.266 -0.3188  0.5223  0.1212
  347MOL0     H45774   4.201  10.362   5.380 -1.5554  1.2669  0.8824
  347MOL0     H45775   4.104  10.435   5.255  0.7364  0.7531  3.7638
  347MOL0     H45776   4.381  10.347   5.176  0.2852 -0.8339  1.9043
  347MOL0     H45777   4.295  10.481   5.110  1.2350  2.4314  1.4835
  347MOL0     H45778   4.508  10.463   5.312 -0.3716 -1.8577 -2.9949
  347MOL0     H45779   4.372  10.545   5.390  2.2811  2.8181  1.0925
  347MOL0     H45780   4.533  10.637   5.157  0.4994 -0.2421  0.8834
  347MOL0     H45781   4.489  10.707   5.315 -1.1979  2.4318 -0.5029
  347MOL0     H45782   4.230  10.700   5.182  0.4615 -1.3088  0.7302
  347MOL0     H45783   4.327  10.832   5.241 -2.4101  1.4973 -1.7085
  347MOL0     H45784   4.371  10.707   4.971  0.3639  0.6721 -2.2626
  347MOL0     H45785   4.446  10.853   5.038  0.7010 -0.7337 -1.1819
  347MOL0     H45786   3.822  10.017   5.308 -1.0956 -1.5514 -0.3376
  347MOL0     H45787   3.568   9.970   5.300 -1.8359  1.3096 -0.0341
  347MOL0     H45788   3.070  10.125   4.934  1.2677 -0.9643 -0.0306
  347MOL0     H45789   2.856  10.098   5.005  0.6508 -0.8808 -1.0747
  347MOL0     H45790   1.287   9.913   4.572  0.8253 -0.8068  0.6627
  347MOL0     H45791   1.065   9.835   4.492  0.1710  0.1501  0.0803
  347MOL0     H45792   0.688   9.575   4.336 -1.3590 -2.7028 -0.3710
  347MOL0     H45793   0.469   9.475   4.356 -3.5627 -1.1110  2.0462
  347MOL0     H45794   0.223   9.655   4.670  2.6219 -0.9902  5.2297
  347MOL0     H45795   0.249   9.517   4.772 -0.2567  0.7151  1.3783
  347MOL0     H45796   0.060   9.424   4.580 -0.3799 -1.6529  2.5873
  347MOL0     H45797   0.033   9.467   4.749  0.8015 -0.5252  0.0748
  347MOL0     H45798   0.041   9.649   4.508 -0.0499 -2.1775 -0.5128
  347MOL0     H45799  -0.019   9.713   4.666  3.1566  1.5249 -0.8878
  347MOL0     H45800  -0.198   9.499   4.607 -2.0395 -1.0267 -2.4244
  347MOL0     H45801  -0.229   9.652   4.551 -0.8518 -1.6673  0.8090
  347MOL0     H45802  -0.154   9.452   4.193  0.9365  1.1573 -0.4123
  347MOL0     H45803   0.453   9.574   4.770  1.9936 -0.5133  0.5907
  347MOL0     H45804   0.659   9.681   4.760  0.0746  2.5563 -1.0829
  348MOL0     O45805   9.131  11.364   3.628  1.1354 -0.0353 -0.8018
  348MOL0     C45806   9.054  11.350   3.724  0.5663  0.6339  0.4018
  348MOL0     O45807   8.937  11.276   3.719 -0.3934  0.2057  0.4589
  348MOL0     C45808   8.892  11.202   3.613 -0.1480  0.4560  0.8476
  348MOL0     C45809   8.964  11.141   3.509  0.1519 -0.4268  0.2465
  348MOL0     C45810   8.897  11.076   3.406  1.1349 -0.3499 -0.4343
  348MOL0     C45811   8.754  11.064   3.397  0.0509 -0.1507 -0.3879
  348MOL0     O45812   8.686  10.997   3.300  0.4903  0.2558  0.1370
  348MOL0     C45813   8.776  10.909   3.222 -0.7696 -0.0717 -0.1277
  348MOL0     C45814   8.698  10.837   3.111  0.2748 -0.5497  0.3577
  348MOL0     C45815   8.593  10.748   3.150 -0.5034 -0.8413  0.3773
  348MOL0     C45816   8.453  10.814   3.163 -1.0625 -1.0927 -0.4220
  348MOL0     C45817   8.342  10.722   3.207  0.3545  0.3867 -1.0366
  348MOL0     C45818   8.307  10.617   3.097 -0.4484  0.2775 -0.1475
  348MOL0     C45819   8.205  10.516   3.161 -0.5151 -0.1783 -0.3917
  348MOL0     C45820   8.058  10.554   3.149 -0.4944 -0.5989 -0.2909
  348MOL0     N45821   7.971  10.461   3.215  0.2613 -0.4080  0.2024
  348MOL0     C45822   7.912  10.468   3.343 -0.7143 -0.3188 -0.1934
  348MOL0     C45823   7.844  10.352   3.357  0.5930  0.5224  0.3270
  348MOL0     C45824   7.766  10.312   3.483  0.0436  0.3767  0.4030
  348MOL0     C45825   7.869  10.282   3.591  0.4312  0.6912  0.1003
  348MOL0     C45826   7.801  10.234   3.727 -0.8658  0.3112 -0.2168
  348MOL0     C45827   7.680  10.147   3.699 -0.3402 -0.9524  0.5421
  348MOL0     O45828   7.634  10.106   3.830  0.6471 -0.2365 -0.3228
  348MOL0     C45829   7.510  10.062   3.840 -0.2240 -0.5453  0.0816
  348MOL0     C45830   7.420  10.036   3.737 -0.4680 -0.2418  0.7785
  348MOL0     C45831   7.293   9.988   3.772 -0.3457  0.2448 -0.3465
  348MOL0     C45832   7.261   9.978   3.911  1.0109 -0.5176 -0.5688
  348MOL0     C45833   7.119   9.944   3.949 -0.4858  0.8188 -0.4357
  348MOL0     O45834   7.100   9.848   4.043  0.3796  0.9184 -0.1376
  348MOL0     C45835   6.978   9.801   4.086  0.3355 -0.7858 -0.3150
  348MOL0     C45836   6.849   9.853   4.064  0.0091  0.0146 -0.0945
  348MOL0     C45837   6.741   9.811   4.138  1.1763  0.6947  0.4578
  348MOL0     C45838   6.750   9.708   4.233  0.9095  0.5055  1.1301
  348MOL0     O45839   6.645   9.664   4.305  0.2442  0.2693  0.7861
  348MOL0     C45840   6.510   9.714   4.277  0.0726 -0.2756 -0.4920
  348MOL0     C45841   6.413   9.652   4.379 -0.5277 -0.2914  0.3702
  348MOL0     C45842   6.257   9.678   4.368 -0.1438  0.6326 -0.5550
  348MOL0     C45843   6.230   9.819   4.298  0.3751 -0.5694  0.5340
  348MOL0     C45844   6.079   9.860   4.304  0.4093  0.3553 -0.3671
  348MOL0     C45845   6.060  10.002   4.255 -1.0000 -0.2714  0.1294
  348MOL0     C45846   5.924  10.069   4.258 -0.0452 -0.3131 -0.3402
  348MOL0     C45847   5.844  10.051   4.393 -0.1703  0.2046  0.1026
  348MOL0    Cl45848   5.699  10.148   4.394 -0.1164 -0.0091  0.1172
  348MOL0     C45849   6.880   9.661   4.257 -0.3048 -0.9315  0.9552
  348MOL0     C45850   6.995   9.706   4.178  0.2854  0.6365 -0.1421
  348MOL0     O45851   7.032  10.008   3.897 -1.5272 -0.1772 -0.4981
  348MOL0     C45852   7.359   9.987   4.009 -0.4744 -0.3068  0.1776
  348MOL0     C45853   7.478  10.041   3.974  0.0059 -0.1512 -0.5084
  348MOL0     N45854   7.863  10.277   3.241  0.1238  0.7114  0.0572
  348MOL0     N45855   7.936  10.342   3.150 -0.3165  0.5969 -0.3549
  348MOL0     C45856   8.684  11.125   3.500  0.0499 -0.4346 -0.8657
  348MOL0     C45857   8.753  11.195   3.599 -0.0624  0.0027 -0.4719
  348MOL0     C45858   9.084  11.424   3.843  0.0659 -0.1996 -0.3569
  348MOL0     C45859   8.993  11.399   3.953  0.7194  0.3051  0.2132
  348MOL0     C45860   9.024  11.452   4.081  0.0730  0.1712  0.2986
  348MOL0     C45861   9.120  11.558   4.090  0.3181 -0.6514 -0.4775
  348MOL0     O45862   9.123  11.634   4.209  0.0563  0.7534 -0.2465
  348MOL0     C45863   9.025  11.726   4.215  0.3009 -0.6879 -0.0076
  348MOL0     C45864   9.022  11.798   4.350 -0.3255 -0.0382 -0.1942
  348MOL0     C45865   8.935  11.717   4.458 -0.2542  0.3805  0.1074
  348MOL0     C45866   8.983  11.713   4.602 -0.2859 -0.2761  0.3439
  348MOL0     C45867   9.127  11.673   4.598 -0.5322  0.5325  0.5494
  348MOL0     C45868   9.248  11.642   4.605  0.6177  0.4292 -0.6072
  348MOL0     C45869   9.200  11.593   3.984 -0.2333  0.3613 -0.1410
  348MOL0     C45870   9.177  11.528   3.857  0.7440 -0.0103  0.0264
  348MOL0     H45871   9.072  11.131   3.515  0.2498  0.9898  1.8401
  348MOL0     H45872   8.968  11.033   3.335  3.2167  0.5527  1.0009
  348MOL0     H45873   8.821  10.835   3.290 -0.9945  0.1688  0.2894
  348MOL0     H45874   8.859  10.957   3.170  0.9979  0.2869  2.7965
  348MOL0     H45875   8.770  10.785   3.047 -0.5428 -3.1500  1.4493
  348MOL0     H45876   8.658  10.919   3.051  2.3516  1.1751  1.1760
  348MOL0     H45877   8.623  10.693   3.240  0.7197 -1.1566 -0.1962
  348MOL0     H45878   8.590  10.666   3.078  1.4203  0.1742 -0.9505
  348MOL0     H45879   8.456  10.892   3.240 -0.4681 -1.6603  0.1503
  348MOL0     H45880   8.424  10.860   3.069  1.7314 -1.3580 -1.5166
  348MOL0     H45881   8.255  10.779   3.241  0.8019  0.7183 -0.4079
  348MOL0     H45882   8.384  10.679   3.299 -2.4019  2.4003  1.3757
  348MOL0     H45883   8.393  10.559   3.062 -0.2854 -0.3003  1.1842
  348MOL0     H45884   8.262  10.659   3.006 -0.2332  2.0958  0.5486
  348MOL0     H45885   8.212  10.413   3.125 -3.6850 -0.6610  0.1536
  348MOL0     H45886   8.233  10.513   3.267  5.4222 -0.4624 -1.5719
  348MOL0     H45887   8.037  10.554   3.041  0.3464  0.6252 -0.4714
  348MOL0     H45888   8.051  10.653   3.195  1.7376 -0.3109 -0.4618
  348MOL0     H45889   7.918  10.554   3.409  3.0708  0.1426 -0.8942
  348MOL0     H45890   7.706  10.224   3.457 -0.5247  0.5938  0.9478
  348MOL0     H45891   7.691  10.385   3.515 -2.1425 -0.7320 -1.8053
  348MOL0     H45892   7.946  10.360   3.599 -0.1004  0.9854  3.4638
  348MOL0     H45893   7.926  10.195   3.555 -0.3011 -0.6784  2.1016
  348MOL0     H45894   7.863  10.176   3.796 -2.0007 -3.1137 -1.8502
  348MOL0     H45895   7.758  10.320   3.777 -1.2215  0.1349 -0.2201
  348MOL0     H45896   7.703  10.064   3.632 -0.8019  0.3914 -1.3531
  348MOL0     H45897   7.598  10.196   3.646  1.1265  1.3422  0.2690
  348MOL0     H45898   7.449  10.043   3.632 -1.1768 -1.2156  0.4951
  348MOL0     H45899   7.208   9.975   3.707 -1.4279  1.7242  0.6934
  348MOL0     H45900   6.819   9.940   4.007 -1.3341 -0.9461 -0.8945
  348MOL0     H45901   6.650   9.865   4.112  1.3735  1.5478  1.4886
  348MOL0     H45902   6.480   9.683   4.176  0.3932 -0.2605 -0.5918
  348MOL0     H45903   6.503   9.822   4.293  0.9237 -0.7658  5.2385
  348MOL0     H45904   6.440   9.685   4.480 -0.3646 -1.3900  0.6958
  348MOL0     H45905   6.425   9.544   4.373 -2.6572 -0.5567 -0.0764
  348MOL0     H45906   6.208   9.653   4.463  1.1844 -3.1265 -0.6889
  348MOL0     H45907   6.216   9.605   4.297 -2.3961  1.4427 -0.1619
  348MOL0     H45908   6.281   9.899   4.352  1.4298 -1.9950  1.7268
  348MOL0     H45909   6.254   9.816   4.192 -3.6686  0.6760 -0.6210
  348MOL0     H45910   6.032   9.849   4.402  2.1641 -2.5066  0.2957
  348MOL0     H45911   6.025   9.777   4.256 -0.6830 -0.2516  1.7902
  348MOL0     H45912   6.096  10.001   4.151  0.9192 -2.2625  0.7455
  348MOL0     H45913   6.124  10.071   4.310  1.0942 -2.0793  0.1058
  348MOL0     H45914   5.940  10.172   4.226  0.0810 -0.8193 -1.9990
  348MOL0     H45915   5.863  10.018   4.183  0.5129 -1.2848 -0.1575
  348MOL0     H45916   5.912  10.082   4.473  0.9251 -2.0332  0.1141
  348MOL0     H45917   5.813   9.947   4.408  0.3634  0.2837  2.0134
  348MOL0     H45918   6.881   9.580   4.330  2.7125 -0.5065  1.5117
  348MOL0     H45919   7.091   9.657   4.187 -0.7944 -1.7250 -0.4885
  348MOL0     H45920   7.341   9.943   4.107 -0.1312 -1.8637 -0.4388
  348MOL0     H45921   7.532  10.066   4.065 -4.4060 -0.6784  2.5701
  348MOL0     H45922   8.577  11.113   3.505  0.1485 -1.0641 -0.0619
  348MOL0     H45923   8.697  11.248   3.676 -1.4114 -2.7627  0.5747
  348MOL0     H45924   8.914  11.324   3.956 -0.5005  1.5888  0.7783
  348MOL0     H45925   8.965  11.415   4.164 -1.5331 -0.3901 -1.0450
  348MOL0     H45926   8.935  11.671   4.189  0.4914 -0.1573 -1.9311
  348MOL0     H45927   9.035  11.797   4.132 -1.6525  2.3969  2.1904
  348MOL0     H45928   9.120  11.819   4.393 -0.7603 -0.9497  1.3412
  348MOL0     H45929   8.973  11.894   4.328  0.4031 -0.0137 -1.8258
  348MOL0     H45930   8.935  11.614   4.424  0.9864  0.2856  0.3451
  348MOL0     H45931   8.831  11.753   4.457 -0.9314 -0.9340  4.3479
  348MOL0     H45932   8.985  11.814   4.644  1.7558  0.0508 -0.4307
  348MOL0     H45933   8.918  11.647   4.659 -3.0554  1.5553 -0.4738
  348MOL0     H45934   9.346  11.598   4.613  0.1281 -0.7520 -0.9023
  348MOL0     H45935   9.273  11.671   4.001 -0.7111  0.0890  4.8099
  348MOL0     H45936   9.236  11.550   3.769 -1.8286  1.0548 -1.5278
  349MOL0     O45937  10.828   5.120   7.665  0.4825 -0.9233 -0.4120
  349MOL0     C45938  10.905   5.027   7.650 -0.8358 -0.1745  0.6139
  349MOL0     O45939  10.869   4.913   7.586 -0.5524  0.5260  0.3046
  349MOL0     C45940  10.732   4.890   7.582 -0.8447 -0.4570 -0.6776
  349MOL0     C45941  10.649   4.850   7.687 -0.0028 -0.0086 -0.1828
  349MOL0     C45942  10.510   4.846   7.678  0.4920 -0.5019  0.2276
  349MOL0     C45943  10.447   4.882   7.554  1.4403 -0.1958 -0.4655
  349MOL0     O45944  10.309   4.862   7.550  0.1353  0.4739 -0.0358
  349MOL0     C45945  10.230   4.908   7.438 -0.5351 -0.5659 -0.0425
  349MOL0     C45946  10.078   4.866   7.457  0.8742  0.1011  0.0009
  349MOL0     C45947   9.982   4.912   7.346  0.3068 -0.0441 -0.1149
  349MOL0     C45948   9.839   4.901   7.388  0.5543  0.1878  0.5773
  349MOL0     C45949   9.746   4.968   7.280  0.7208  0.6834  0.2331
  349MOL0     C45950   9.734   4.865   7.156  0.3099  0.3917 -0.6465
  349MOL0     C45951   9.656   4.913   7.030  0.1353 -1.7526 -0.0967
  349MOL0     C45952   9.644   4.815   6.909 -0.2435  0.2625 -0.1919
  349MOL0     N45953   9.622   4.879   6.778 -0.4379  0.1713  0.8600
  349MOL0     C45954   9.605   4.813   6.662 -0.0145 -0.1426  0.3828
  349MOL0     C45955   9.561   4.911   6.573 -0.2773 -0.1827 -0.4327
  349MOL0     C45956   9.522   4.894   6.431 -0.2407  0.9441 -0.1919
  349MOL0     C45957   9.372   4.901   6.403 -0.6286  0.6191 -0.0148
  349MOL0     C45958   9.315   5.041   6.391 -1.2769  0.3114  1.3165
  349MOL0     C45959   9.164   5.046   6.413  0.7322  0.5601  0.1193
  349MOL0     O45960   9.086   4.951   6.329  0.4534  0.5089  0.8058
  349MOL0     C45961   8.952   4.961   6.340 -0.1243  0.1865  0.5632
  349MOL0     C45962   8.877   4.842   6.310 -1.0450  0.0215  0.4474
  349MOL0     C45963   8.743   4.836   6.325 -0.0308  0.5188  0.7271
  349MOL0     C45964   8.666   4.944   6.365 -0.0036 -0.1901 -0.7547
  349MOL0     C45965   8.512   4.929   6.369  0.0550 -0.3173 -0.2311
  349MOL0     O45966   8.447   5.012   6.451  0.3519 -0.3634  0.0591
  349MOL0     C45967   8.309   5.000   6.468  0.3705 -0.4709  1.5819
  349MOL0     C45968   8.276   4.933   6.584  0.0378  0.3564  0.1637
  349MOL0     C45969   8.140   4.900   6.612  0.0316  0.1047  0.6732
  349MOL0     C45970   8.041   4.943   6.523  0.6752 -0.7791 -0.5725
  349MOL0     O45971   7.914   4.929   6.565 -0.0416  0.3798 -0.0054
  349MOL0     C45972   7.858   4.795   6.541 -0.5942  1.2750  0.2828
  349MOL0     C45973   7.713   4.792   6.510  0.0463  0.0693  0.2016
  349MOL0     C45974   7.661   4.656   6.478  0.1316 -0.4139  0.0548
  349MOL0     C45975   7.521   4.659   6.418  0.3071  0.3582 -0.1571
  349MOL0     C45976   7.444   4.532   6.449 -0.7301  0.2104 -0.2639
  349MOL0     C45977   7.311   4.541   6.389  0.0048 -1.0984 -0.4893
  349MOL0     C45978   7.242   4.403   6.369 -0.3746  1.0581 -0.5633
  349MOL0     C45979   7.119   4.425   6.286 -0.2876 -1.1356 -0.0380
  349MOL0    Cl45980   7.081   4.307   6.162 -0.2937  0.0725  0.1583
  349MOL0     C45981   8.073   5.014   6.404 -0.2458 -0.7944 -0.5490
  349MOL0     C45982   8.206   5.033   6.374 -0.4030 -0.0129 -0.5958
  349MOL0     O45983   8.456   4.843   6.289 -0.4535  0.8281 -0.7425
  349MOL0     C45984   8.737   5.062   6.405 -0.4621  0.2694  0.6222
  349MOL0     C45985   8.875   5.075   6.384 -0.0856 -0.5909 -0.6137
  349MOL0     N45986   9.577   5.030   6.629  0.4816  0.0090 -0.0203
  349MOL0     N45987   9.576   5.010   6.752  0.3374  0.7916 -0.2179
  349MOL0     C45988  10.525   4.930   7.454 -0.1124  0.1310  0.6111
  349MOL0     C45989  10.669   4.925   7.467 -0.3726  0.3944  0.7767
  349MOL0     C45990  11.050   5.052   7.671  0.5689 -0.0653 -1.6779
  349MOL0     C45991  11.093   5.156   7.756  0.0085  0.6069  0.7357
  349MOL0     C45992  11.226   5.200   7.773  0.6180 -0.0745 -0.1133
  349MOL0     C45993  11.320   5.117   7.714  0.5685 -0.1086 -0.0255
  349MOL0     O45994  11.451   5.147   7.744 -0.3049 -0.1937 -0.0509
  349MOL0     C45995  11.563   5.051   7.714  0.1795 -0.9242 -0.1538
  349MOL0     C45996  11.693   5.101   7.769 -0.6258 -0.6653 -0.3124
  349MOL0     C45997  11.722   5.248   7.760  0.8583 -0.6829 -0.0476
  349MOL0     C45998  11.726   5.295   7.612 -0.5810 -0.8931  0.0755
  349MOL0     C45999  11.824   5.235   7.528 -0.0942  0.0713 -0.0602
  349MOL0     C46000  11.892   5.166   7.454 -0.4414 -0.5945 -0.1864
  349MOL0     C46001  11.281   5.008   7.633  0.4826 -0.2104  0.5274
  349MOL0     C46002  11.146   4.980   7.612  0.3530 -0.2969  0.3654
  349MOL0     H46003  10.703   4.821   7.777 -2.2815 -1.4043  0.8091
  349MOL0     H46004  10.457   4.817   7.768  0.7695  0.3076  0.6596
  349MOL0     H46005  10.279   4.871   7.347 -1.7651 -2.6604  0.0757
  349MOL0     H46006  10.232   5.017   7.434  0.9831 -0.5916 -1.4951
  349MOL0     H46007  10.035   4.909   7.548 -3.5740 -0.3034 -1.6433
  349MOL0     H46008  10.088   4.758   7.474  1.9993  0.5053  2.3249
  349MOL0     H46009  10.006   4.860   7.252  2.1057 -0.7185  0.6627
  349MOL0     H46010  10.000   5.019   7.336  2.0206 -0.3226 -0.2479
  349MOL0     H46011   9.810   4.797   7.405  1.5258  0.2013  2.6371
  349MOL0     H46012   9.816   4.962   7.475 -1.6258  0.6294 -0.2519
  349MOL0     H46013   9.796   5.061   7.252 -2.1381  2.6435  1.2119
  349MOL0     H46014   9.652   5.000   7.324  0.6525  1.7901 -0.6574
  349MOL0     H46015   9.677   4.777   7.190  0.5340  1.2568  2.1947
  349MOL0     H46016   9.837   4.841   7.130 -0.3768 -4.0875 -0.0683
  349MOL0     H46017   9.558   4.937   7.073  0.6488  0.9349 -0.2559
  349MOL0     H46018   9.706   5.004   6.998  1.8257 -1.7766  2.1987
  349MOL0     H46019   9.571   4.735   6.926  0.3923 -0.5527 -1.2112
  349MOL0     H46020   9.727   4.745   6.911 -3.1124 -3.6965  4.2635
  349MOL0     H46021   9.638   4.712   6.641 -0.2336  0.1240 -1.4408
  349MOL0     H46022   9.556   4.798   6.393  1.8373  0.5566  2.3481
  349MOL0     H46023   9.573   4.976   6.380 -1.1797  0.7363 -1.5132
  349MOL0     H46024   9.322   4.859   6.490 -1.8485  0.4596 -0.7641
  349MOL0     H46025   9.354   4.836   6.316  0.6657  0.1212  0.0596
  349MOL0     H46026   9.377   5.102   6.458  1.1787 -1.8109  1.1681
  349MOL0     H46027   9.342   5.074   6.291  3.1954  0.1854  2.2536
  349MOL0     H46028   9.143   5.151   6.389  0.5588  0.4089 -0.3982
  349MOL0     H46029   9.141   5.031   6.519  0.1922  2.4471  0.3114
  349MOL0     H46030   8.923   4.746   6.286  1.7776  0.9036  1.8797
  349MOL0     H46031   8.692   4.742   6.311  2.2782 -0.6217 -0.5559
  349MOL0     H46032   8.345   4.897   6.660 -0.7359 -0.5958  0.4410
  349MOL0     H46033   8.115   4.846   6.703 -0.6919 -0.6325  0.0523
  349MOL0     H46034   7.880   4.737   6.631 -0.2194  0.0583 -0.5801
  349MOL0     H46035   7.906   4.732   6.466 -1.6424 -0.9619  1.4002
  349MOL0     H46036   7.700   4.849   6.418 -0.7460  0.8775  0.7936
  349MOL0     H46037   7.655   4.844   6.587 -0.8643 -0.4725 -0.1088
  349MOL0     H46038   7.641   4.596   6.568 -0.8790 -0.0404  0.0885
  349MOL0     H46039   7.733   4.618   6.404  1.4577  3.5188 -0.9298
  349MOL0     H46040   7.459   4.741   6.456 -1.1529 -0.4673 -0.6757
  349MOL0     H46041   7.519   4.685   6.312 -2.2149  0.5535 -0.1254
  349MOL0     H46042   7.426   4.529   6.557 -0.1980 -0.2647 -0.1840
  349MOL0     H46043   7.486   4.440   6.407 -1.3232 -0.0851 -0.2156
  349MOL0     H46044   7.326   4.600   6.298  0.1665  0.8014  0.7170
  349MOL0     H46045   7.249   4.597   6.459 -1.4396 -2.0288 -0.9846
  349MOL0     H46046   7.313   4.338   6.318  0.3608  0.8719  0.6435
  349MOL0     H46047   7.218   4.357   6.466  1.4484  0.0238 -0.5677
  349MOL0     H46048   7.135   4.522   6.238  0.6281 -1.4746 -0.4332
  349MOL0     H46049   7.028   4.432   6.346 -1.5877  1.4175 -2.1255
  349MOL0     H46050   7.996   5.035   6.330 -2.4578 -0.5388  1.6931
  349MOL0     H46051   8.228   5.102   6.293 -1.7150 -0.3435 -1.2654
  349MOL0     H46052   8.688   5.157   6.422 -0.6083  0.1837  0.6894
  349MOL0     H46053   8.921   5.170   6.408  2.1690 -0.9125 -3.1404
  349MOL0     H46054  10.483   4.958   7.358  0.3790  3.2298  1.1844
  349MOL0     H46055  10.735   4.959   7.388  0.5543 -0.1966  1.2839
  349MOL0     H46056  11.021   5.225   7.799 -0.2703  0.5004  0.4450
  349MOL0     H46057  11.257   5.284   7.835 -0.7859  0.3131  0.0861
  349MOL0     H46058  11.580   5.034   7.607 -0.6619 -2.9262 -0.0152
  349MOL0     H46059  11.534   4.955   7.758 -2.7014  0.4985  1.3284
  349MOL0     H46060  11.703   5.076   7.875  3.0389  0.5821 -0.2120
  349MOL0     H46061  11.785   5.061   7.725 -1.5875 -2.6091 -0.6368
  349MOL0     H46062  11.821   5.267   7.801  1.6010  1.8234 -2.5995
  349MOL0     H46063  11.659   5.309   7.825  1.8864  0.1267  0.2153
  349MOL0     H46064  11.635   5.274   7.556  0.5988 -1.9127 -1.5542
  349MOL0     H46065  11.730   5.404   7.612 -1.1268 -0.8716 -0.0699
  349MOL0     H46066  11.948   5.101   7.391  0.6927  0.0023  0.1910
  349MOL0     H46067  11.353   4.945   7.581  1.1570  1.3099 -0.4733
  349MOL0     H46068  11.121   4.898   7.546 -1.0419  0.1235  0.3319
  350MOL0     O46069   6.628   4.780   1.305 -0.1690 -0.2377 -0.6383
  350MOL0     C46070   6.610   4.714   1.411 -0.2873  0.1608 -0.6218
  350MOL0     O46071   6.494   4.679   1.463 -0.1501  0.2395 -0.5471
  350MOL0     C46072   6.383   4.674   1.384 -0.0100 -0.0685 -0.3617
  350MOL0     C46073   6.265   4.734   1.429 -0.5562  0.2205  0.2943
  350MOL0     C46074   6.146   4.726   1.353  0.1983 -0.5179 -0.1557
  350MOL0     C46075   6.133   4.637   1.242 -0.9629  0.5169  0.0315
  350MOL0     O46076   6.022   4.610   1.167 -0.5001 -0.3678 -0.1314
  350MOL0     C46077   5.946   4.730   1.148  0.0423  0.1337 -0.3718
  350MOL0     C46078   5.813   4.690   1.098  0.2256 -0.4905 -0.3212
  350MOL0     C46079   5.723   4.810   1.082 -0.1536 -0.3899 -0.1120
  350MOL0     C46080   5.580   4.772   1.028  0.2240  0.7254  0.1971
  350MOL0     C46081   5.480   4.890   1.039  0.2445 -0.9973 -0.0363
  350MOL0     C46082   5.347   4.860   0.964 -0.0552 -0.0218 -0.3533
  350MOL0     C46083   5.253   4.981   0.964 -0.2227 -0.8993 -0.4880
  350MOL0     C46084   5.123   4.948   0.884 -0.0678 -0.6058  0.4431
  350MOL0     N46085   5.028   5.063   0.900  0.2404  0.5774  0.2415
  350MOL0     C46086   4.979   5.136   0.796 -0.5859 -1.5459  1.1278
  350MOL0     C46087   4.918   5.240   0.851  0.4497 -0.4737  0.1199
  350MOL0     C46088   4.865   5.361   0.781  0.6409  0.0109  0.2264
  350MOL0     C46089   4.727   5.330   0.726 -0.2469 -0.0944  0.7918
  350MOL0     C46090   4.662   5.442   0.640  0.6096  0.4259 -0.0441
  350MOL0     C46091   4.525   5.386   0.594 -0.5650 -0.1506 -0.0576
  350MOL0     O46092   4.464   5.488   0.511 -0.0039  0.2394  0.5515
  350MOL0     C46093   4.332   5.493   0.512 -0.0684 -0.1028 -0.5317
  350MOL0     C46094   4.261   5.515   0.631 -0.8835  0.0966  0.5712
  350MOL0     C46095   4.127   5.556   0.626  0.3047  0.1313 -1.2872
  350MOL0     C46096   4.061   5.564   0.515  0.1672  0.2441 -0.5099
  350MOL0     C46097   3.925   5.615   0.503  0.1013  0.1286 -0.5087
  350MOL0     O46098   3.861   5.594   0.381  0.5079  0.0431  0.0898
  350MOL0     C46099   3.734   5.641   0.360 -0.3716 -0.6752 -1.0967
  350MOL0     C46100   3.628   5.552   0.370  1.1864 -0.6769  0.2855
  350MOL0     C46101   3.492   5.599   0.352  0.5883 -0.0809  0.0977
  350MOL0     C46102   3.475   5.733   0.310  0.0020  0.1930  0.1481
  350MOL0     O46103   3.358   5.786   0.260 -0.0194 -0.3314  0.7360
  350MOL0     C46104   3.278   5.698   0.173 -0.4674 -0.3998 -0.3600
  350MOL0     C46105   3.160   5.777   0.099 -0.3993  1.0229  0.6905
  350MOL0     C46106   3.039   5.675   0.085 -0.6124 -0.6465 -0.6415
  350MOL0     C46107   2.926   5.739  -0.009  0.0583 -0.1583 -0.2793
  350MOL0     C46108   2.971   5.805  -0.145 -0.7610  0.4376 -0.2963
  350MOL0     C46109   2.871   5.834  -0.245  0.3129  1.2616 -0.1398
  350MOL0     C46110   2.924   5.941  -0.336 -0.2495  0.5729  0.1826
  350MOL0     C46111   2.820   5.954  -0.444  0.3323  0.4647  0.2215
  350MOL0    Cl46112   2.819   5.797  -0.532  0.2836 -0.3145 -0.0700
  350MOL0     C46113   3.586   5.814   0.325 -0.2314  1.0208  0.0054
  350MOL0     C46114   3.715   5.777   0.360  1.0597 -0.0738  0.2675
  350MOL0     O46115   3.868   5.672   0.603 -0.4781  0.9630 -0.2255
  350MOL0     C46116   4.131   5.525   0.399  0.9727  0.3770  0.0788
  350MOL0     C46117   4.263   5.489   0.395 -0.5496  0.2078  0.4756
  350MOL0     N46118   4.911   5.230   0.985  0.2797  0.6562  0.2709
  350MOL0     N46119   4.992   5.132   1.015 -0.3771  1.1686 -0.0016
  350MOL0     C46120   6.250   4.580   1.199 -0.5412 -0.5612 -0.3151
  350MOL0     C46121   6.371   4.600   1.270 -0.0017  0.1765  0.1586
  350MOL0     C46122   6.731   4.675   1.488 -0.0838  0.5022 -0.4613
  350MOL0     C46123   6.849   4.633   1.415 -1.3257 -0.0217  0.3070
  350MOL0     C46124   6.968   4.603   1.480  0.3569 -0.6085 -1.1532
  350MOL0     C46125   6.973   4.604   1.624  0.3958 -0.0107 -1.2767
  350MOL0     O46126   7.085   4.581   1.701  0.2143 -0.0145  0.2832
  350MOL0     C46127   7.215   4.548   1.644 -0.3246 -0.5939 -0.0051
  350MOL0     C46128   7.280   4.437   1.724  0.0998 -0.2335  0.0648
  350MOL0     C46129   7.426   4.406   1.681 -0.5616  0.0288 -0.2565
  350MOL0     C46130   7.533   4.492   1.750  0.9915 -0.2323  0.4560
  350MOL0     C46131   7.658   4.432   1.720 -0.4807 -0.1406 -0.5536
  350MOL0     C46132   7.782   4.400   1.726 -0.2379  0.3081  0.3379
  350MOL0     C46133   6.854   4.629   1.690  0.6614  0.9799 -0.0589
  350MOL0     C46134   6.729   4.660   1.629 -0.5978 -1.6054  1.2366
  350MOL0     H46135   6.273   4.792   1.521  1.1544 -1.6440  1.4017
  350MOL0     H46136   6.070   4.792   1.394  1.7648 -0.7662  3.6005
  350MOL0     H46137   5.993   4.783   1.064 -1.3940  2.0896 -0.0291
  350MOL0     H46138   5.920   4.788   1.236 -1.2517 -0.6503 -0.2193
  350MOL0     H46139   5.768   4.632   1.179  1.8295 -0.2792  0.7717
  350MOL0     H46140   5.818   4.621   1.014 -0.2140 -1.9243  0.7752
  350MOL0     H46141   5.766   4.881   1.009 -1.6834  2.7567  1.8461
  350MOL0     H46142   5.711   4.858   1.179  1.7456 -0.0844  0.0208
  350MOL0     H46143   5.584   4.747   0.922  0.5593  3.4137 -0.5147
  350MOL0     H46144   5.548   4.678   1.074 -3.0248 -0.1285 -3.2769
  350MOL0     H46145   5.514   4.981   0.988 -3.1600  0.5061  0.1383
  350MOL0     H46146   5.464   4.914   1.144  1.6914 -1.1188  0.2401
  350MOL0     H46147   5.300   4.780   1.023  0.8999 -0.3672 -0.0474
  350MOL0     H46148   5.374   4.840   0.860  0.8799  0.8140 -0.2868
  350MOL0     H46149   5.237   5.026   1.062  1.0779  1.5088 -1.3036
  350MOL0     H46150   5.298   5.058   0.901 -0.4917  1.5854  2.1755
  350MOL0     H46151   5.087   4.853   0.924  2.0941 -1.2278  1.0277
  350MOL0     H46152   5.134   4.929   0.777 -2.6392  2.0897 -0.4349
  350MOL0     H46153   5.008   5.121   0.693  2.1305 -0.6223  1.6554
  350MOL0     H46154   4.922   5.369   0.687  1.0025 -3.1112  0.0765
  350MOL0     H46155   4.874   5.438   0.858  2.4645 -0.5292  0.6069
  350MOL0     H46156   4.661   5.313   0.812 -1.2206 -2.0626 -0.2647
  350MOL0     H46157   4.740   5.248   0.654  3.2640  0.6586  0.3710
  350MOL0     H46158   4.645   5.531   0.701  0.2065 -0.5881  1.3832
  350MOL0     H46159   4.719   5.477   0.554 -0.8125  1.9397 -0.4171
  350MOL0     H46160   4.464   5.368   0.683 -3.6474 -3.2831 -2.5239
  350MOL0     H46161   4.538   5.289   0.545 -1.5572 -0.4443  0.2408
  350MOL0     H46162   4.317   5.529   0.724  0.7073  1.0912 -0.4914
  350MOL0     H46163   4.087   5.589   0.721  0.6768  2.1494 -1.7880
  350MOL0     H46164   3.661   5.456   0.406 -0.2119 -1.4212 -0.3123
  350MOL0     H46165   3.407   5.532   0.360  1.1765 -0.6259  2.3050
  350MOL0     H46166   3.250   5.604   0.222  0.6826 -1.4375 -1.6141
  350MOL0     H46167   3.335   5.663   0.086  0.5831 -0.3277  0.2794
  350MOL0     H46168   3.184   5.802  -0.005 -2.2650  0.1768  0.0212
  350MOL0     H46169   3.136   5.867   0.157  0.7602  0.7750  1.5872
  350MOL0     H46170   2.990   5.645   0.178  0.9954  1.5598  1.0302
  350MOL0     H46171   3.079   5.587   0.034  1.4414 -0.5674  0.7165
  350MOL0     H46172   2.856   5.664  -0.047 -1.4532  2.2846 -2.7293
  350MOL0     H46173   2.875   5.817   0.048  1.8250  0.3516  0.6816
  350MOL0     H46174   3.054   5.750  -0.189 -1.4757 -0.1268 -0.9616
  350MOL0     H46175   3.006   5.905  -0.119  0.4472  0.8542 -3.1765
  350MOL0     H46176   2.775   5.859  -0.199 -0.8350 -3.3493  0.4915
  350MOL0     H46177   2.843   5.734  -0.280  1.9246 -1.6466  5.6853
  350MOL0     H46178   2.957   6.037  -0.295  1.2008  0.2665 -0.2051
  350MOL0     H46179   3.011   5.901  -0.390 -0.8654  0.4441 -0.7436
  350MOL0     H46180   2.840   6.040  -0.508  0.8228 -0.2559 -0.6082
  350MOL0     H46181   2.721   5.977  -0.402 -0.4834 -1.0292 -0.8029
  350MOL0     H46182   3.578   5.916   0.290 -2.6397  0.1704 -2.2579
  350MOL0     H46183   3.796   5.848   0.371 -0.4690  1.8575 -0.2931
  350MOL0     H46184   4.074   5.516   0.308  0.4021 -3.9814  0.6274
  350MOL0     H46185   4.309   5.471   0.298 -1.6311  3.0381 -0.6632
  350MOL0     H46186   6.253   4.516   1.112  1.4478 -1.3194  0.2536
  350MOL0     H46187   6.462   4.572   1.218  0.4294 -0.0523  1.0137
  350MOL0     H46188   6.847   4.630   1.306  0.7791  2.9624  0.0326
  350MOL0     H46189   7.060   4.578   1.428  1.8664  2.0355  0.0605
  350MOL0     H46190   7.269   4.643   1.636 -2.1422  0.3955 -1.1008
  350MOL0     H46191   7.210   4.509   1.542 -0.1992 -0.3236 -0.1154
  350MOL0     H46192   7.274   4.461   1.830  1.1321  3.0127 -0.4966
  350MOL0     H46193   7.223   4.349   1.693 -0.3726 -0.6716  2.0457
  350MOL0     H46194   7.439   4.422   1.574  1.9680 -4.3478 -0.8405
  350MOL0     H46195   7.448   4.300   1.697 -2.1782 -0.6121 -1.9432
  350MOL0     H46196   7.526   4.596   1.716 -1.4386 -1.2106 -2.5434
  350MOL0     H46197   7.515   4.486   1.857  0.3472 -0.1617  0.3552
  350MOL0     H46198   7.884   4.371   1.743 -0.8444 -2.2326  0.0127
  350MOL0     H46199   6.854   4.605   1.796  2.4187 -0.2015 -0.2936
  350MOL0     H46200   6.640   4.693   1.682 -0.6463  1.0845 -0.3426
  351MOL0     O46201   0.780   0.869   5.911  0.0204 -0.2653 -0.0409
  351MOL0     C46202   0.703   0.958   5.955 -0.3824 -0.8804 -0.1396
  351MOL0     O46203   0.722   1.046   6.058  0.4248  0.5082 -0.5376
  351MOL0     C46204   0.846   1.051   6.112  0.5376  0.1582 -0.5770
  351MOL0     C46205   0.864   1.033   6.252 -0.3166  0.4295 -0.1069
  351MOL0     C46206   0.994   1.035   6.313  0.3445 -0.6038  0.3058
  351MOL0     C46207   1.111   1.058   6.237 -0.1200  1.0203  0.8437
  351MOL0     O46208   1.225   1.056   6.307  0.1138  0.0097  0.2169
  351MOL0     C46209   1.344   1.069   6.217  0.4795 -0.7552 -0.7315
  351MOL0     C46210   1.466   1.064   6.299 -0.2408 -0.8833  0.3686
  351MOL0     C46211   1.497   0.922   6.347  0.7958  0.2800  0.4381
  351MOL0     C46212   1.591   0.924   6.465 -0.3015 -0.0060 -0.3641
  351MOL0     C46213   1.522   0.950   6.602 -0.2584  0.2132 -0.0178
  351MOL0     C46214   1.614   0.986   6.717  0.0638  0.5689 -0.6739
  351MOL0     C46215   1.545   0.995   6.858 -0.7643  0.2055  0.5053
  351MOL0     C46216   1.467   1.132   6.873 -1.4169  0.1036  0.3336
  351MOL0     N46217   1.348   1.132   6.791  0.1754  0.2620  0.7050
  351MOL0     C46218   1.246   1.033   6.797 -0.1524 -0.0270  0.0317
  351MOL0     C46219   1.142   1.079   6.732  0.0761  0.3892  0.8156
  351MOL0     C46220   1.007   1.019   6.700 -0.0495 -0.2279  0.1018
  351MOL0     C46221   0.937   0.976   6.833  0.5036 -0.3721  0.2188
  351MOL0     C46222   0.936   1.084   6.942 -0.3895  1.2870 -0.3592
  351MOL0     C46223   0.876   1.223   6.907 -0.8709 -0.1251 -0.0248
  351MOL0     O46224   0.854   1.307   7.022  1.1143 -0.4074  0.1261
  351MOL0     C46225   0.958   1.336   7.111 -0.8148  0.7466  0.0460
  351MOL0     C46226   0.940   1.306   7.247  0.3478 -0.4544  0.0465
  351MOL0     C46227   1.043   1.298   7.334 -0.5943  0.3352  0.1572
  351MOL0     C46228   1.178   1.326   7.288 -0.7280  0.1122  0.5848
  351MOL0     C46229   1.280   1.324   7.386 -0.3372 -0.7425  0.2465
  351MOL0     O46230   1.255   1.367   7.514  0.1674 -0.3537  0.4287
  351MOL0     C46231   1.358   1.351   7.599  0.4173  0.8001 -0.6003
  351MOL0     C46232   1.482   1.410   7.601  0.4992 -0.3771  0.8566
  351MOL0     C46233   1.585   1.390   7.694 -0.3919  1.1253  0.3732
  351MOL0     C46234   1.555   1.316   7.805 -0.0646  0.0109  0.1544
  351MOL0     O46235   1.649   1.313   7.905 -0.6577 -0.3758 -0.1195
  351MOL0     C46236   1.636   1.227   8.022  0.0772  0.6582 -0.4498
  351MOL0     C46237   1.764   1.241   8.114 -0.0637  0.8983  0.2302
  351MOL0     C46238   1.819   1.381   8.139 -0.0148  0.3302  0.7412
  351MOL0     C46239   1.959   1.374   8.204  0.2298  0.6972 -0.3478
  351MOL0     C46240   1.958   1.343   8.353  0.8350 -1.2879 -0.9569
  351MOL0     C46241   1.912   1.465   8.431  0.4707 -0.6818 -0.5980
  351MOL0     C46242   1.897   1.451   8.588 -0.0893 -0.2775  0.5352
  351MOL0     C46243   1.789   1.548   8.645 -0.0266 -0.0538  0.4891
  351MOL0    Cl46244   1.818   1.709   8.569  0.2572 -0.1159  0.5822
  351MOL0     C46245   1.430   1.256   7.814 -0.1398  0.9880  0.7312
  351MOL0     C46246   1.334   1.277   7.718  0.5635  0.2687  0.3989
  351MOL0     O46247   1.390   1.290   7.340  0.1933  0.2493 -0.3630
  351MOL0     C46248   1.196   1.361   7.151 -0.2365 -0.2060  0.4185
  351MOL0     C46249   1.081   1.373   7.074 -0.2377  0.4142 -0.2273
  351MOL0     N46250   1.184   1.199   6.682  0.0407  0.0051 -0.4134
  351MOL0     N46251   1.309   1.229   6.714 -1.1508  0.1521  0.5237
  351MOL0     C46252   1.089   1.082   6.096  0.0385 -0.1658 -0.1389
  351MOL0     C46253   0.962   1.081   6.036 -0.5235 -0.1917  0.0596
  351MOL0     C46254   0.579   0.983   5.882  0.3571  0.2944 -0.7662
  351MOL0     C46255   0.566   0.930   5.755  0.2021 -0.1221  0.4754
  351MOL0     C46256   0.450   0.957   5.686  0.1363  0.4453 -0.3096
  351MOL0     C46257   0.338   1.031   5.730 -0.0367 -0.3418 -0.0179
  351MOL0     O46258   0.221   1.066   5.672  0.7810 -0.0879 -0.0132
  351MOL0     C46259   0.204   1.040   5.535  0.0479 -0.0954  0.2410
  351MOL0     C46260   0.108   0.922   5.513  0.4788  1.1479 -0.0334
  351MOL0     C46261  -0.024   0.931   5.597 -0.2894 -0.0331 -0.5309
  351MOL0     C46262  -0.143   0.841   5.547  0.3602 -0.4437  0.2884
  351MOL0     C46263  -0.169   0.870   5.403  0.5013  0.0160 -0.0973
  351MOL0     C46264  -0.194   0.896   5.288 -0.2653 -0.2520  0.5524
  351MOL0     C46265   0.361   1.084   5.858 -0.7449 -0.2799 -0.9728
  351MOL0     C46266   0.473   1.060   5.934  1.1339  0.0560 -0.9576
  351MOL0     H46267   0.776   1.019   6.314 -1.3922  1.1838 -1.4113
  351MOL0     H46268   0.999   1.022   6.421  2.7829  3.2974  0.8590
  351MOL0     H46269   1.335   1.169   6.173  2.6159 -1.5594 -3.2526
  351MOL0     H46270   1.356   0.994   6.138  0.0236 -0.7746 -0.7846
  351MOL0     H46271   1.465   1.121   6.393  2.0934 -1.3313  0.7368
  351MOL0     H46272   1.537   1.112   6.231  1.1399  0.4617  2.6101
  351MOL0     H46273   1.551   0.874   6.265  1.5328  1.4768  0.1959
  351MOL0     H46274   1.405   0.866   6.369  1.0973  0.2786  1.7807
  351MOL0     H46275   1.657   0.837   6.472 -0.1779  0.1007 -0.1663
  351MOL0     H46276   1.659   1.010   6.456 -0.3686  0.2866  1.4590
  351MOL0     H46277   1.470   0.859   6.632  1.4824 -0.7473  0.2045
  351MOL0     H46278   1.448   1.031   6.596 -0.8420 -0.2748  0.4216
  351MOL0     H46279   1.686   1.065   6.696  1.8421  0.2711  3.4398
  351MOL0     H46280   1.675   0.896   6.722  0.1479  0.6186 -0.8070
  351MOL0     H46281   1.477   0.912   6.878  0.6121 -1.5453 -1.6404
  351MOL0     H46282   1.627   1.003   6.930  0.5138 -0.4635 -0.8340
  351MOL0     H46283   1.531   1.217   6.849 -1.0748 -0.5644 -1.2173
  351MOL0     H46284   1.435   1.141   6.978  0.7234  1.3052  0.9312
  351MOL0     H46285   1.245   0.944   6.858 -1.3545 -0.0991 -0.0665
  351MOL0     H46286   1.026   0.936   6.631  2.3313  0.2258  0.0973
  351MOL0     H46287   0.944   1.097   6.655 -2.1234 -2.4425 -1.0161
  351MOL0     H46288   0.971   0.877   6.867 -0.0803 -0.5164  0.3830
  351MOL0     H46289   0.830   0.964   6.817  0.2345  0.2189  1.4492
  351MOL0     H46290   0.867   1.038   7.013 -2.7183  0.3817 -3.0352
  351MOL0     H46291   1.037   1.093   6.983 -1.1907 -2.5566  3.0796
  351MOL0     H46292   0.785   1.198   6.851 -1.1107  0.0040  0.3058
  351MOL0     H46293   0.942   1.284   6.846  0.9800 -0.3113  1.6637
  351MOL0     H46294   0.836   1.297   7.277 -0.2020  1.3678 -1.1249
  351MOL0     H46295   1.020   1.280   7.439  0.2890  1.6857  0.6239
  351MOL0     H46296   1.498   1.479   7.518 -2.0570 -0.9232 -0.1933
  351MOL0     H46297   1.677   1.447   7.699  1.8398 -2.2355  3.3217
  351MOL0     H46298   1.630   1.122   7.992 -0.0803  0.4566  0.2551
  351MOL0     H46299   1.545   1.247   8.080 -0.0705 -3.9623  1.3683
  351MOL0     H46300   1.848   1.189   8.068  3.4581  4.2551  2.3281
  351MOL0     H46301   1.748   1.205   8.216  1.8258  0.5066  0.4277
  351MOL0     H46302   1.741   1.434   8.194  0.1979 -0.3060  1.6732
  351MOL0     H46303   1.820   1.434   8.043 -0.0324  0.8080  1.0012
  351MOL0     H46304   2.013   1.293   8.156 -1.2796 -0.6571  0.1381
  351MOL0     H46305   2.013   1.468   8.189  0.4727  0.4332 -1.1724
  351MOL0     H46306   2.054   1.315   8.397  0.9944 -1.4460 -1.3989
  351MOL0     H46307   1.880   1.271   8.379 -1.4733  1.6402  0.8130
  351MOL0     H46308   1.820   1.501   8.384 -0.5845 -2.5814 -0.0917
  351MOL0     H46309   1.987   1.543   8.413 -0.5091  0.6400  0.7923
  351MOL0     H46310   1.865   1.350   8.614  1.4325 -0.2812  2.5981
  351MOL0     H46311   1.990   1.479   8.638  0.9817  0.6294 -1.8067
  351MOL0     H46312   1.783   1.552   8.754 -0.7133  1.1461  0.4142
  351MOL0     H46313   1.694   1.511   8.606  0.0752 -0.3880  0.5500
  351MOL0     H46314   1.403   1.198   7.901 -0.0010 -0.7017 -0.3042
  351MOL0     H46315   1.240   1.223   7.723  0.9566 -0.4538  0.1252
  351MOL0     H46316   1.297   1.371   7.113 -1.3894  0.2257 -2.8307
  351MOL0     H46317   1.088   1.402   6.970  1.0500 -0.6146 -0.4614
  351MOL0     H46318   1.172   1.111   6.032  0.4244 -1.5102 -0.2663
  351MOL0     H46319   0.950   1.096   5.929  1.5432  3.3251  0.1692
  351MOL0     H46320   0.648   0.882   5.701  0.3504  0.3436  0.2750
  351MOL0     H46321   0.449   0.917   5.586 -3.2788  2.7194 -1.3829
  351MOL0     H46322   0.302   1.019   5.492  0.0644  0.8579 -0.2126
  351MOL0     H46323   0.169   1.133   5.488  0.0551  0.1255  0.6690
  351MOL0     H46324   0.088   0.917   5.406 -0.2961 -2.7798  0.1308
  351MOL0     H46325   0.164   0.833   5.543 -0.2240  0.5940 -0.2980
  351MOL0     H46326  -0.061   1.033   5.607 -0.6381 -0.1282 -0.8086
  351MOL0     H46327  -0.001   0.905   5.700 -0.3354  4.1688  0.6971
  351MOL0     H46328  -0.121   0.734   5.547  0.0829 -0.5000  0.6077
  351MOL0     H46329  -0.234   0.856   5.605  0.4884  3.6255 -0.2537
  351MOL0     H46330  -0.194   0.924   5.184  2.3172  1.1509  0.8385
  351MOL0     H46331   0.276   1.147   5.884 -3.2102 -3.0261 -1.8742
  351MOL0     H46332   0.467   1.107   6.032  0.7905 -0.9119 -0.4920
  352MOL0     O46333   8.721   7.290   8.252 -0.4281  0.2479 -1.2969
  352MOL0     C46334   8.631   7.291   8.169  0.4595 -0.8592  0.3680
  352MOL0     O46335   8.510   7.350   8.193 -0.5948  0.4733 -1.1925
  352MOL0     C46336   8.462   7.388   8.316 -0.6623 -0.0489  1.0055
  352MOL0     C46337   8.499   7.338   8.447 -0.1303 -0.1434 -0.2173
  352MOL0     C46338   8.422   7.373   8.560  0.2721  0.6334  0.0774
  352MOL0     C46339   8.318   7.475   8.551 -0.8556 -0.9795 -0.5684
  352MOL0     O46340   8.258   7.522   8.667 -0.1261  0.2709  0.3356
  352MOL0     C46341   8.129   7.580   8.665 -0.6701  0.0096  1.1010
  352MOL0     C46342   8.073   7.623   8.802  0.2942 -0.0942  0.4240
  352MOL0     C46343   7.944   7.690   8.804  0.6978  0.3179 -0.6543
  352MOL0     C46344   7.902   7.728   8.949 -0.4707  0.1763  0.5018
  352MOL0     C46345   7.776   7.811   8.937  0.1958 -0.5631 -0.5977
  352MOL0     C46346   7.640   7.761   8.889 -0.4468  0.3822  0.1754
  352MOL0     C46347   7.531   7.873   8.861  0.7707  0.9895 -0.3482
  352MOL0     C46348   7.422   7.815   8.762  1.1524 -0.0774  0.2967
  352MOL0     N46349   7.339   7.714   8.835 -0.2918 -0.3883  0.6770
  352MOL0     C46350   7.244   7.747   8.930  0.1459  0.1337  0.0108
  352MOL0     C46351   7.201   7.629   8.989 -0.6701  0.2358  0.5965
  352MOL0     C46352   7.085   7.622   9.093 -0.8603 -0.2810 -0.4508
  352MOL0     C46353   7.141   7.674   9.225  0.1832  1.0355 -0.1424
  352MOL0     C46354   7.267   7.604   9.274  0.4361  0.5255  0.0794
  352MOL0     C46355   7.323   7.660   9.408 -0.3919 -0.0441  0.3423
  352MOL0     O46356   7.428   7.573   9.453  0.2247 -0.4579  0.3658
  352MOL0     C46357   7.563   7.583   9.432 -0.7292  0.0868  0.0874
  352MOL0     C46358   7.643   7.490   9.488  1.3000  0.1566  1.1387
  352MOL0     C46359   7.781   7.489   9.460 -0.6537  0.7596 -0.4657
  352MOL0     C46360   7.843   7.600   9.401 -0.5755 -0.6731  0.0187
  352MOL0     C46361   7.993   7.603   9.378 -0.2754 -0.0554 -0.6946
  352MOL0     O46362   8.061   7.487   9.404 -0.2030  0.0850  0.3629
  352MOL0     C46363   8.199   7.480   9.415  0.2430 -0.2380  0.1412
  352MOL0     C46364   8.282   7.529   9.309  0.2904  0.3644  0.7532
  352MOL0     C46365   8.417   7.509   9.306 -0.2369  0.0175  0.2494
  352MOL0     C46366   8.478   7.430   9.405  0.3143 -0.6812 -0.2967
  352MOL0     O46367   8.613   7.407   9.406  0.3491  0.9604 -0.8064
  352MOL0     C46368   8.701   7.477   9.317 -0.3359  0.0656 -0.1544
  352MOL0     C46369   8.847   7.417   9.336 -0.5113  0.6220 -0.2037
  352MOL0     C46370   8.944   7.505   9.255  0.8221 -0.0572  0.5542
  352MOL0     C46371   9.083   7.448   9.233 -0.0746 -0.6491 -1.5152
  352MOL0     C46372   9.148   7.463   9.369 -0.0766  0.6599  0.3523
  352MOL0     C46373   9.294   7.422   9.372  0.1347 -0.4665 -0.4689
  352MOL0     C46374   9.357   7.427   9.510  0.3352  0.6793 -0.1508
  352MOL0     C46375   9.384   7.564   9.562 -0.4147 -0.4445  0.3995
  352MOL0    Cl46376   9.456   7.562   9.724 -0.1232 -0.0008 -0.0282
  352MOL0     C46377   8.400   7.386   9.508  0.1790 -0.4510 -0.4051
  352MOL0     C46378   8.259   7.409   9.517  0.2359  0.7302  0.0717
  352MOL0     O46379   8.049   7.710   9.356 -0.4946 -0.3965  0.2635
  352MOL0     C46380   7.760   7.693   9.334 -0.5546  0.4746 -1.0538
  352MOL0     C46381   7.622   7.675   9.347 -0.2667 -1.6636 -0.7971
  352MOL0     N46382   7.253   7.523   8.912  0.3435 -0.1216 -0.2406
  352MOL0     N46383   7.337   7.577   8.827  0.0163  0.1857  0.5387
  352MOL0     C46384   8.280   7.515   8.423  0.1825 -0.5378  0.8983
  352MOL0     C46385   8.348   7.469   8.319 -0.6345  0.2097 -0.5886
  352MOL0     C46386   8.659   7.246   8.031 -1.1522  0.2185 -0.1708
  352MOL0     C46387   8.573   7.268   7.924 -0.2546 -0.0223 -0.1909
  352MOL0     C46388   8.614   7.232   7.795  0.1032 -0.7782 -0.1683
  352MOL0     C46389   8.727   7.151   7.765 -0.3448  0.4419  0.6193
  352MOL0     O46390   8.747   7.107   7.636 -0.4385 -0.3009 -0.3333
  352MOL0     C46391   8.838   6.999   7.619  0.6294  0.2738 -1.0545
  352MOL0     C46392   8.867   6.967   7.473 -0.6483 -1.1418 -0.1373
  352MOL0     C46393   8.933   7.094   7.412  0.3139 -1.0562  0.1609
  352MOL0     C46394   8.995   7.068   7.277  0.8162 -0.1714  0.7626
  352MOL0     C46395   9.097   7.169   7.247  0.0262 -0.1786 -0.6658
  352MOL0     C46396   9.183   7.239   7.208 -0.4556 -0.8067  0.1318
  352MOL0     C46397   8.814   7.136   7.877 -0.1628  0.1549  0.4619
  352MOL0     C46398   8.788   7.179   8.007  0.1610 -0.0268 -0.2362
  352MOL0     H46399   8.570   7.256   8.454 -0.5132 -0.5881 -1.2000
  352MOL0     H46400   8.447   7.326   8.654 -3.2065 -0.9371  0.4031
  352MOL0     H46401   8.063   7.502   8.625  2.0755 -0.9980 -1.8716
  352MOL0     H46402   8.135   7.664   8.595  0.1036 -1.7626 -1.0894
  352MOL0     H46403   8.148   7.673   8.863 -0.6411  1.0222  0.6765
  352MOL0     H46404   8.050   7.528   8.852 -1.4576  0.4596  0.7387
  352MOL0     H46405   7.868   7.634   8.748 -1.4705  4.4704 -2.2819
  352MOL0     H46406   7.959   7.780   8.743  2.1520 -0.1856 -1.0897
  352MOL0     H46407   7.888   7.635   9.005  1.1548  0.7745  1.9829
  352MOL0     H46408   7.984   7.787   8.992 -0.1408 -0.8648  1.3355
  352MOL0     H46409   7.799   7.895   8.871  0.3085 -0.1643 -0.0545
  352MOL0     H46410   7.755   7.854   9.035  3.3746 -0.4508  0.1201
  352MOL0     H46411   7.594   7.682   8.948 -4.3958  1.1977 -1.4979
  352MOL0     H46412   7.665   7.722   8.790 -0.1621  0.6784  0.1266
  352MOL0     H46413   7.489   7.886   8.961 -2.4050 -2.9450 -0.8936
  352MOL0     H46414   7.584   7.961   8.824  0.8347  0.7741 -0.7712
  352MOL0     H46415   7.480   7.764   8.685  0.7171 -1.1690  0.6763
  352MOL0     H46416   7.352   7.882   8.711 -3.3445 -3.8364  0.8706
  352MOL0     H46417   7.204   7.843   8.962 -0.0786  0.1174 -0.2197
  352MOL0     H46418   7.063   7.516   9.108  2.0801 -1.2176 -1.9917
  352MOL0     H46419   6.994   7.674   9.061  0.3462 -0.6251 -5.2737
  352MOL0     H46420   7.060   7.654   9.296  0.4260 -0.9962 -0.3988
  352MOL0     H46421   7.158   7.782   9.216  1.0202  0.8175 -1.4261
  352MOL0     H46422   7.260   7.495   9.280  0.5490  0.5340  0.4338
  352MOL0     H46423   7.339   7.635   9.198  0.1244 -0.9648 -0.8592
  352MOL0     H46424   7.242   7.666   9.482 -0.2074  2.1213  0.4394
  352MOL0     H46425   7.366   7.760   9.393 -0.0225  0.1698  2.4599
  352MOL0     H46426   7.590   7.411   9.540  1.9386 -1.8698 -1.0536
  352MOL0     H46427   7.839   7.408   9.502 -1.6580 -0.2650 -1.0016
  352MOL0     H46428   8.246   7.586   9.224 -0.3307  0.8046  1.3047
  352MOL0     H46429   8.456   7.551   9.213  1.5499 -1.4912  0.2526
  352MOL0     H46430   8.696   7.583   9.343 -0.9339  0.4094 -1.5487
  352MOL0     H46431   8.659   7.460   9.217 -0.2988  1.5898 -0.4496
  352MOL0     H46432   8.851   7.313   9.301  2.2196  0.9039 -0.9638
  352MOL0     H46433   8.871   7.427   9.442 -0.4641 -1.3425  0.0145
  352MOL0     H46434   8.959   7.609   9.286  0.7592  0.5935 -1.4559
  352MOL0     H46435   8.908   7.507   9.152  1.2778 -3.0931  0.2558
  352MOL0     H46436   9.088   7.344   9.198  2.8683 -0.5250 -1.7191
  352MOL0     H46437   9.140   7.513   9.166 -2.5562  1.8228 -1.3893
  352MOL0     H46438   9.094   7.398   9.438  0.7210  1.1211  1.4347
  352MOL0     H46439   9.139   7.566   9.403 -0.7386  0.2550  1.4359
  352MOL0     H46440   9.345   7.498   9.313 -0.6687 -0.6740 -1.4745
  352MOL0     H46441   9.305   7.324   9.325 -2.7114 -1.1853  0.1267
  352MOL0     H46442   9.286   7.380   9.579  1.6093 -2.5816 -0.8930
  352MOL0     H46443   9.455   7.378   9.505  0.6849  1.4271 -4.4184
  352MOL0     H46444   9.296   7.629   9.555 -0.4222 -0.5398 -0.5054
  352MOL0     H46445   9.460   7.620   9.506  0.2652 -0.1112  1.6214
  352MOL0     H46446   8.445   7.338   9.594  1.9674 -3.3001 -2.7355
  352MOL0     H46447   8.209   7.370   9.605 -0.0257  2.3626  0.6860
  352MOL0     H46448   7.785   7.772   9.265  0.2162  0.9235 -0.2767
  352MOL0     H46449   7.558   7.745   9.295  3.1284  2.0669 -0.4470
  352MOL0     H46450   8.195   7.576   8.394  0.6057 -0.8769 -1.2226
  352MOL0     H46451   8.315   7.504   8.221  1.6531  0.6611 -1.2548
  352MOL0     H46452   8.480   7.322   7.937 -0.3042 -0.1650  0.0454
  352MOL0     H46453   8.555   7.265   7.710 -1.5727 -2.7784  0.1193
  352MOL0     H46454   8.801   6.912   7.675  4.5198 -1.9401 -1.6012
  352MOL0     H46455   8.934   7.021   7.667  0.2758  1.7201 -0.9545
  352MOL0     H46456   8.919   6.872   7.458 -1.8988 -1.8736 -0.0505
  352MOL0     H46457   8.772   6.964   7.418  0.5757  2.3902 -2.8442
  352MOL0     H46458   9.000   7.138   7.488  0.0389 -0.9635  0.3518
  352MOL0     H46459   8.863   7.176   7.397  1.7344  0.1213 -0.3155
  352MOL0     H46460   9.055   6.977   7.283  1.9652  0.6606  2.3031
  352MOL0     H46461   8.917   7.062   7.200 -0.4435 -3.2926  2.1177
  352MOL0     H46462   9.248   7.317   7.173 -0.1276 -0.9045  0.5097
  352MOL0     H46463   8.904   7.075   7.868 -0.6140 -0.9702  2.8126
  352MOL0     H46464   8.866   7.162   8.081  0.3352  4.5158  0.9473
  353MOL0     O46465   6.763   8.881  10.188 -0.0750 -0.9281 -0.4652
  353MOL0     C46466   6.840   8.969  10.202 -0.2997 -0.0653  0.4779
  353MOL0     O46467   6.804   9.105  10.193 -0.7377 -0.0402  0.0122
  353MOL0     C46468   6.681   9.134  10.154  0.3325  0.8605 -0.2321
  353MOL0     C46469   6.668   9.213  10.045 -0.0395  0.3817 -0.3753
  353MOL0     C46470   6.541   9.267  10.012 -0.5296 -0.1723 -0.0570
  353MOL0     C46471   6.427   9.224  10.079 -0.5442 -1.0963  0.3186
  353MOL0     O46472   6.298   9.251  10.039  0.4279 -1.0303 -0.4014
  353MOL0     C46473   6.264   9.381  10.008  0.5359 -0.3992  0.5860
  353MOL0     C46474   6.118   9.403  10.047  0.4466 -0.4384  0.4046
  353MOL0     C46475   6.100   9.387  10.202 -1.1069 -0.4333  0.3754
  353MOL0     C46476   5.954   9.406  10.232 -0.9420 -0.3753  0.3475
  353MOL0     C46477   5.924   9.425  10.385  0.1203  0.3959  0.2260
  353MOL0     C46478   5.777   9.448  10.408  0.1789 -0.1715 -0.0241
  353MOL0     C46479   5.758   9.518  10.542  0.5910 -0.1263 -0.4568
  353MOL0     C46480   5.618   9.520  10.599  0.0835  0.5767  0.0843
  353MOL0     N46481   5.517   9.597  10.513  0.3777 -0.1607 -0.1700
  353MOL0     C46482   5.493   9.724  10.547  0.3431  0.1472  0.1772
  353MOL0     C46483   5.382   9.760  10.475 -1.7169  0.2388  0.3761
  353MOL0     C46484   5.321   9.898  10.488 -0.1703 -0.6447 -0.3750
  353MOL0     C46485   5.253   9.921  10.623  0.2806  0.5617 -0.0270
  353MOL0     C46486   5.154  10.038  10.593 -0.2203  0.1347 -0.6571
  353MOL0     C46487   5.133  10.125  10.725 -0.2207  0.8985 -0.2517
  353MOL0     O46488   5.085  10.045  10.831  0.5757  0.2003  0.4123
  353MOL0     C46489   4.959   9.996  10.827 -0.9563 -0.3038  0.7568
  353MOL0     C46490   4.939   9.890  10.914 -0.7784 -0.1731  0.5169
  353MOL0     C46491   4.806   9.841  10.942  0.1313  0.3245  0.2602
  353MOL0     C46492   4.702   9.889  10.860 -0.0719 -0.0060 -0.6125
  353MOL0     C46493   4.560   9.836  10.872  0.2500  0.1720  0.0246
  353MOL0     O46494   4.469   9.898  10.796  0.2243 -0.4997 -0.0011
  353MOL0     C46495   4.344   9.866  10.814  0.4833 -0.1353  0.1367
  353MOL0     C46496   4.282   9.783  10.722  0.4480  0.8144  0.1650
  353MOL0     C46497   4.138   9.771  10.724  0.2333  0.3478 -0.4019
  353MOL0     C46498   4.056   9.828  10.823  0.3912  0.2421 -0.1599
  353MOL0     O46499   3.918   9.809  10.833  0.1729  0.0025 -0.8797
  353MOL0     C46500   3.861   9.686  10.801 -0.3655 -0.5222  0.9661
  353MOL0     C46501   3.759   9.640  10.903  0.0592 -0.2297 -0.6911
  353MOL0     C46502   3.625   9.711  10.917  0.0472 -0.1435  0.3284
  353MOL0     C46503   3.545   9.720  10.785  0.8781 -0.1861  0.6800
  353MOL0     C46504   3.389   9.764  10.812 -0.3031  1.3182  0.5458
  353MOL0     C46505   3.321   9.800  10.683  0.0997 -0.4972 -0.1786
  353MOL0     C46506   3.170   9.828  10.708 -0.0350 -0.2205 -0.4344
  353MOL0     C46507   3.092   9.726  10.791  0.4743  0.5221  0.6971
  353MOL0    Cl46508   2.924   9.727  10.756  0.2231  0.0308  0.3705
  353MOL0     C46509   4.127   9.903  10.920  0.4975 -0.5633  1.5889
  353MOL0     C46510   4.265   9.930  10.912 -0.0280  0.5180  1.1700
  353MOL0     O46511   4.536   9.749  10.950  0.0311  0.4976  0.3233
  353MOL0     C46512   4.728   9.987  10.761 -0.1783  0.4068 -0.3864
  353MOL0     C46513   4.858  10.033  10.749  0.7104  0.4599  0.2221
  353MOL0     N46514   5.347   9.655  10.390 -0.8606  0.1240  0.0655
  353MOL0     N46515   5.426   9.549  10.420  0.7614 -0.3892 -0.8128
  353MOL0     C46516   6.441   9.133  10.189  0.3216 -1.3544 -0.0460
  353MOL0     C46517   6.572   9.101  10.234  0.4388  0.4846 -0.5675
  353MOL0     C46518   6.988   8.922  10.180  1.1349 -0.2271 -0.1383
  353MOL0     C46519   7.085   9.021  10.141 -0.2054  0.1374 -0.0584
  353MOL0     C46520   7.211   8.975  10.149  0.0067 -0.9526  0.0450
  353MOL0     C46521   7.253   8.847  10.181 -0.3211  0.1332  0.2292
  353MOL0     O46522   7.385   8.825  10.163  0.0422 -0.1920 -0.2603
  353MOL0     C46523   7.434   8.738  10.268 -0.0325 -0.5886  1.2865
  353MOL0     C46524   7.586   8.762  10.267  0.3280 -0.9469  0.2660
  353MOL0     C46525   7.659   8.699  10.383  0.2706 -0.0150 -0.7952
  353MOL0     C46526   7.812   8.717  10.375  0.3137  0.1602 -0.3843
  353MOL0     C46527   7.862   8.857  10.396  1.0317 -0.2653  0.2275
  353MOL0     C46528   7.921   8.957  10.429  0.0564  0.7180  1.4103
  353MOL0     C46529   7.155   8.752  10.212  0.0896  0.5100 -0.2530
  353MOL0     C46530   7.024   8.787  10.218 -0.1110 -1.3283 -0.5679
  353MOL0     H46531   6.757   9.234   9.987  1.0208 -2.6797 -0.0461
  353MOL0     H46532   6.520   9.340   9.934  0.7894  0.5323  0.2060
  353MOL0     H46533   6.286   9.400   9.903  1.0359  1.0132  0.9208
  353MOL0     H46534   6.316   9.460  10.063 -2.2105  0.7672  1.6510
  353MOL0     H46535   6.064   9.329   9.987  1.7637  1.5278 -3.5431
  353MOL0     H46536   6.072   9.498  10.021  0.4785 -0.5688 -0.1569
  353MOL0     H46537   6.158   9.471  10.242 -0.5504 -0.9167  0.6006
  353MOL0     H46538   6.130   9.288  10.239 -1.8058 -0.3161  1.3034
  353MOL0     H46539   5.910   9.490  10.176 -1.1564  1.1096  2.5980
  353MOL0     H46540   5.902   9.315  10.201  3.1993 -2.6752 -0.5203
  353MOL0     H46541   5.989   9.505  10.420  0.5141 -0.5599  1.7694
  353MOL0     H46542   5.951   9.341  10.449 -2.2862 -1.6514 -1.2578
  353MOL0     H46543   5.718   9.355  10.406 -2.0026  1.1602 -1.0144
  353MOL0     H46544   5.735   9.516  10.334  0.7806 -0.4583 -0.6441
  353MOL0     H46545   5.814   9.468  10.622  0.1975  1.6474  1.0148
  353MOL0     H46546   5.803   9.618  10.542  1.1566 -0.3659 -1.4235
  353MOL0     H46547   5.619   9.558  10.701 -1.2044 -0.2686  0.4388
  353MOL0     H46548   5.578   9.418  10.593  2.3144 -0.3221 -0.1873
  353MOL0     H46549   5.554   9.785  10.612  1.7111  0.8953 -1.7140
  353MOL0     H46550   5.243   9.907  10.412  0.6009  1.3966 -1.0009
  353MOL0     H46551   5.389   9.983  10.474 -2.0005  1.1966  1.1077
  353MOL0     H46552   5.331   9.951  10.694  0.2630  4.5975 -1.4464
  353MOL0     H46553   5.205   9.828  10.653  2.1323  0.0067  1.4451
  353MOL0     H46554   5.174  10.107  10.510  1.6493  0.1444 -0.2400
  353MOL0     H46555   5.053  10.007  10.563 -0.1644 -2.1910  1.3558
  353MOL0     H46556   5.067  10.210  10.705 -1.1991 -0.0581 -1.2487
  353MOL0     H46557   5.226  10.168  10.764  0.0846  0.6571 -0.6975
  353MOL0     H46558   5.027   9.852  10.964 -1.0935 -1.3155  0.2266
  353MOL0     H46559   4.791   9.765  11.018  1.9537 -0.8328 -0.4663
  353MOL0     H46560   4.338   9.725  10.649  1.1727  1.0948  0.4820
  353MOL0     H46561   4.091   9.705  10.651  0.9610  1.0940 -1.5787
  353MOL0     H46562   3.936   9.607  10.796 -1.6938 -1.7728 -0.8123
  353MOL0     H46563   3.828   9.690  10.697  0.4709 -0.2589  0.6982
  353MOL0     H46564   3.810   9.633  11.000  1.2248 -4.1888 -1.4142
  353MOL0     H46565   3.730   9.540  10.871 -3.1172  0.2915  0.1519
  353MOL0     H46566   3.631   9.808  10.968  0.1990  1.0652 -1.8854
  353MOL0     H46567   3.550   9.650  10.968 -0.0362 -0.2005  0.1377
  353MOL0     H46568   3.588   9.799  10.723 -1.8372  0.7704 -0.1379
  353MOL0     H46569   3.548   9.625  10.731 -0.1163  0.6861 -0.9976
  353MOL0     H46570   3.378   9.854  10.873 -1.4771  0.5529  1.4833
  353MOL0     H46571   3.350   9.674  10.860  2.1909  0.9969  2.1522
  353MOL0     H46572   3.336   9.718  10.613  2.0180 -0.1461 -0.2434
  353MOL0     H46573   3.379   9.885  10.646 -1.7390  1.2819  0.8143
  353MOL0     H46574   3.150   9.921  10.761 -0.5955 -1.0779  0.9147
  353MOL0     H46575   3.124   9.846  10.611  0.1644  0.9803 -0.3215
  353MOL0     H46576   3.121   9.737  10.895  4.9877 -0.8828 -0.2077
  353MOL0     H46577   3.126   9.625  10.767 -1.7952 -0.2892  0.6094
  353MOL0     H46578   4.060   9.961  10.983 -2.1034 -1.0288 -0.5313
  353MOL0     H46579   4.309  10.003  10.979  1.7790  1.1932 -0.6674
  353MOL0     H46580   4.654  10.039  10.702 -0.6528  1.4045  1.0269
  353MOL0     H46581   4.872  10.098  10.663  1.9587 -0.0314  0.0419
  353MOL0     H46582   6.343   9.100  10.223 -0.1639  2.0095  2.3271
  353MOL0     H46583   6.586   9.037  10.321  4.4331 -1.4640 -2.3917
  353MOL0     H46584   7.073   9.123  10.106  0.2631  0.5336  0.8926
  353MOL0     H46585   7.289   9.034  10.101 -1.4386 -0.2553 -1.5550
  353MOL0     H46586   7.407   8.633  10.256 -0.3637 -0.1722 -3.4086
  353MOL0     H46587   7.407   8.784  10.364 -3.5298  2.2304 -0.7701
  353MOL0     H46588   7.636   8.749  10.171  2.3507  1.1840  0.9369
  353MOL0     H46589   7.585   8.870  10.288 -3.3073 -0.7957 -0.0046
  353MOL0     H46590   7.648   8.591  10.390  1.0683 -0.1931 -2.0569
  353MOL0     H46591   7.626   8.738  10.480 -0.8471 -1.0970 -0.7201
  353MOL0     H46592   7.852   8.653  10.454 -0.4942  1.0817  0.8141
  353MOL0     H46593   7.857   8.672  10.286  1.3414  2.0460 -0.8711
  353MOL0     H46594   7.959   9.052  10.458 -1.1991  1.4743  0.6833
  353MOL0     H46595   7.186   8.650  10.229  1.0746  1.0450  1.3760
  353MOL0     H46596   6.948   8.713  10.240  1.0355 -1.7719  2.3600
  354MOL0     O46597   3.443   9.604   5.349  0.5063  1.9945  0.6574
  354MOL0     C46598   3.550   9.659   5.375 -0.0467  0.1721  1.1261
  354MOL0     O46599   3.574   9.749   5.480 -0.0745  1.0460  0.4858
  354MOL0     C46600   3.472   9.789   5.562 -0.8428  0.1610  0.1510
  354MOL0     C46601   3.407   9.696   5.643  0.8672  0.0762 -0.4280
  354MOL0     C46602   3.294   9.738   5.723 -0.4387  0.9121  0.9052
  354MOL0     C46603   3.261   9.871   5.731  0.1428 -0.5673 -0.8317
  354MOL0     O46604   3.157   9.903   5.817  0.0876 -0.8331  0.2938
  354MOL0     C46605   3.110  10.043   5.832 -0.0711  0.9564  0.0668
  354MOL0     C46606   3.015  10.084   5.712  0.0282 -0.7239  0.1785
  354MOL0     C46607   2.872  10.032   5.705 -0.0311  0.3685 -1.1062
  354MOL0     C46608   2.851   9.881   5.696 -1.0709 -0.2215  0.3209
  354MOL0     C46609   2.721   9.845   5.631  0.1220  0.5209 -0.2751
  354MOL0     C46610   2.597   9.880   5.719 -0.1876  0.1501 -0.5182
  354MOL0     C46611   2.473   9.806   5.676  0.5947  0.7929 -0.5780
  354MOL0     C46612   2.357   9.842   5.774 -0.5485 -0.5425 -0.6314
  354MOL0     N46613   2.232   9.765   5.736  0.6315  0.0722  0.4420
  354MOL0     C46614   2.133   9.782   5.637 -0.9609 -0.0881 -0.6613
  354MOL0     C46615   2.072   9.657   5.644  0.5376 -0.0754 -0.3323
  354MOL0     C46616   1.971   9.602   5.545  0.1244 -0.2826 -0.1138
  354MOL0     C46617   1.827   9.600   5.589 -0.4023  0.1696 -0.2123
  354MOL0     C46618   1.750   9.729   5.622 -0.8858  0.1216 -0.3523
  354MOL0     C46619   1.755   9.808   5.491  0.3856  0.6659  0.6412
  354MOL0     O46620   1.713   9.730   5.377  0.1005 -0.4556 -0.4222
  354MOL0     C46621   1.584   9.710   5.348 -0.6663  0.1525  0.4613
  354MOL0     C46622   1.547   9.574   5.331  0.6423 -0.1883 -0.3853
  354MOL0     C46623   1.416   9.542   5.301  0.0717 -0.1286 -0.2230
  354MOL0     C46624   1.321   9.643   5.284 -0.0204 -0.3993  0.4358
  354MOL0     C46625   1.182   9.601   5.237  0.5294 -0.3561  0.6452
  354MOL0     O46626   1.175   9.479   5.164  0.4039  0.0876  0.2895
  354MOL0     C46627   1.050   9.465   5.107 -0.6076  0.1144  0.1849
  354MOL0     C46628   1.044   9.490   4.970  0.4403 -0.5084  0.4821
  354MOL0     C46629   0.916   9.478   4.907  0.2563  0.5548  0.9498
  354MOL0     C46630   0.804   9.412   4.962  0.0238  0.1053 -0.4629
  354MOL0     O46631   0.696   9.381   4.890 -0.4611 -0.4266  1.0714
  354MOL0     C46632   0.623   9.263   4.916 -0.1692 -0.3483 -0.3747
  354MOL0     C46633   0.548   9.216   4.792 -0.6560 -0.7246 -0.5146
  354MOL0     C46634   0.472   9.085   4.810 -0.1808  0.9941 -0.4186
  354MOL0     C46635   0.367   9.054   4.693  0.2907 -0.2201  0.2706
  354MOL0     C46636   0.436   9.025   4.557 -0.3086 -0.2738 -0.2289
  354MOL0     C46637   0.348   8.936   4.465 -0.7891 -0.2721  0.7404
  354MOL0     C46638   0.207   8.998   4.447 -0.1835  0.2237  1.1369
  354MOL0     C46639   0.207   9.141   4.387  0.4298  0.9689  0.2570
  354MOL0    Cl46640   0.036   9.183   4.393 -0.3119 -0.6485 -0.1942
  354MOL0     C46641   0.816   9.388   5.094  0.4037 -0.4570 -0.3877
  354MOL0     C46642   0.936   9.405   5.165  0.3804  0.3000  0.6114
  354MOL0     O46643   1.095   9.688   5.239  0.4469 -0.4216  0.2689
  354MOL0     C46644   1.358   9.778   5.299  0.2583  0.2228 -0.2336
  354MOL0     C46645   1.491   9.809   5.324  0.0621  0.0392 -0.7320
  354MOL0     N46646   2.114   9.585   5.754 -0.1502 -0.4835 -0.1732
  354MOL0     N46647   2.217   9.646   5.798 -0.6016  0.4257 -0.2582
  354MOL0     C46648   3.331   9.964   5.656  0.5673  0.7653  0.1622
  354MOL0     C46649   3.437   9.926   5.576 -0.3460  0.2142 -0.2526
  354MOL0     C46650   3.669   9.636   5.290  0.7783 -0.2102  0.1712
  354MOL0     C46651   3.788   9.708   5.298 -0.1927  0.4340  0.0304
  354MOL0     C46652   3.893   9.664   5.220 -0.1477  0.0584 -0.2312
  354MOL0     C46653   3.882   9.555   5.130 -0.4740 -0.2106  0.6749
  354MOL0     O46654   3.980   9.500   5.043 -0.4535  0.7365  0.2285
  354MOL0     C46655   4.108   9.567   5.042  0.9803 -0.5473  0.2802
  354MOL0     C46656   4.110   9.713   4.981 -0.1385 -0.9663  0.0634
  354MOL0     C46657   4.251   9.778   4.983  0.0057 -0.5508 -0.7049
  354MOL0     C46658   4.275   9.841   5.130 -0.0792 -0.0995  0.3292
  354MOL0     C46659   4.409   9.900   5.135  0.5382  0.3716 -0.3639
  354MOL0     C46660   4.513   9.957   5.146 -0.2492  0.9099 -0.6280
  354MOL0     C46661   3.757   9.497   5.115  0.2333  0.4336  0.1654
  354MOL0     C46662   3.654   9.530   5.192  0.4452 -0.1221 -0.2015
  354MOL0     H46663   3.431   9.590   5.638 -0.9323 -0.3644 -0.2650
  354MOL0     H46664   3.227   9.679   5.784 -0.7191  0.4892  0.2007
  354MOL0     H46665   3.196  10.105   5.859 -0.5494  0.3688  3.2864
  354MOL0     H46666   3.044  10.034   5.919 -1.5006 -3.3762 -1.2226
  354MOL0     H46667   3.060  10.052   5.617 -3.8479  2.0904 -2.9332
  354MOL0     H46668   3.015  10.193   5.722 -1.7734 -0.2825 -3.1728
  354MOL0     H46669   2.805  10.080   5.632  0.0882 -0.5209 -1.8204
  354MOL0     H46670   2.825  10.062   5.799 -1.0881 -0.7181 -1.2551
  354MOL0     H46671   2.927   9.845   5.626 -2.1867  0.1611 -1.1394
  354MOL0     H46672   2.876   9.835   5.791  0.3902 -1.2814 -0.5331
  354MOL0     H46673   2.715   9.737   5.617 -2.3647  0.1901  2.2726
  354MOL0     H46674   2.711   9.891   5.533 -0.1437  0.5578 -0.2311
  354MOL0     H46675   2.570   9.985   5.705  1.6475  0.8647  0.8023
  354MOL0     H46676   2.609   9.860   5.826  2.1347 -1.1694 -0.9444
  354MOL0     H46677   2.433   9.827   5.576 -0.9917  0.3517 -0.0646
  354MOL0     H46678   2.498   9.700   5.685 -1.6588  0.1886 -0.7040
  354MOL0     H46679   2.335   9.949   5.764 -1.7140 -0.6809  0.1572
  354MOL0     H46680   2.399   9.815   5.872  3.0475  0.1991 -1.8231
  354MOL0     H46681   2.141   9.852   5.554  0.3913  0.0122 -0.4633
  354MOL0     H46682   1.998   9.496   5.547  0.1167 -0.2906  2.0744
  354MOL0     H46683   1.975   9.642   5.444 -0.3952 -3.5774 -1.5574
  354MOL0     H46684   1.817   9.542   5.681 -2.6602  1.0004  0.1384
  354MOL0     H46685   1.770   9.537   5.520  0.9042 -2.3460  0.8733
  354MOL0     H46686   1.645   9.710   5.645 -0.1828 -0.4768  2.8564
  354MOL0     H46687   1.797   9.788   5.701  0.5930 -1.7999  0.2728
  354MOL0     H46688   1.854   9.850   5.473  0.2813  1.3022  1.4994
  354MOL0     H46689   1.689   9.894   5.502  1.8148  2.2930 -2.3891
  354MOL0     H46690   1.630   9.506   5.349  0.2159 -0.9150 -1.1314
  354MOL0     H46691   1.396   9.437   5.284  0.2863 -0.4805  1.5051
  354MOL0     H46692   1.140   9.520   4.930 -0.7304  2.8742 -0.1147
  354MOL0     H46693   0.897   9.507   4.804 -1.6795  1.3115  1.4689
  354MOL0     H46694   0.559   9.287   5.001  1.5751  0.3025  0.8211
  354MOL0     H46695   0.691   9.183   4.949  2.8022  1.4507 -1.7474
  354MOL0     H46696   0.626   9.206   4.716  0.3064 -0.7785  0.4558
  354MOL0     H46697   0.472   9.290   4.763 -0.7186 -0.2650  0.7733
  354MOL0     H46698   0.424   9.079   4.909  1.6846 -1.2154  0.4519
  354MOL0     H46699   0.539   9.000   4.827 -2.3405 -0.6474  0.4643
  354MOL0     H46700   0.310   8.964   4.716  0.1277 -0.2753 -0.3397
  354MOL0     H46701   0.298   9.138   4.677  1.0992  0.1447 -1.5413
  354MOL0     H46702   0.532   8.976   4.574 -1.0943 -1.1134  2.1676
  354MOL0     H46703   0.453   9.118   4.502  0.7414  1.6925  3.1260
  354MOL0     H46704   0.333   8.839   4.512 -1.6071 -0.1033  0.8448
  354MOL0     H46705   0.409   8.915   4.377  3.4991  1.5283  2.9774
  354MOL0     H46706   0.151   8.941   4.373 -3.8112  2.1685  2.1498
  354MOL0     H46707   0.142   8.995   4.536  0.3911 -1.7271  1.5453
  354MOL0     H46708   0.248   9.150   4.286 -0.3490 -2.9488 -0.5728
  354MOL0     H46709   0.260   9.207   4.456 -0.1423  2.9363 -1.0893
  354MOL0     H46710   0.739   9.337   5.152  0.9120 -1.3167 -0.4541
  354MOL0     H46711   0.952   9.361   5.263 -0.2760  1.2331  1.1516
  354MOL0     H46712   1.289   9.859   5.277 -1.9276 -1.5283 -0.1339
  354MOL0     H46713   1.518   9.913   5.336 -0.5970 -0.0188  1.8316
  354MOL0     H46714   3.327  10.072   5.662  2.3904  1.3344 -4.4433
  354MOL0     H46715   3.490  10.003   5.520  0.8141 -1.2585 -1.2473
  354MOL0     H46716   3.785   9.799   5.356 -2.9718  0.5598 -0.1850
  354MOL0     H46717   3.986   9.719   5.222  0.6311 -1.1521 -1.3472
  354MOL0     H46718   4.171   9.506   4.977  0.3016  1.3502 -2.3030
  354MOL0     H46719   4.129   9.579   5.149 -5.2124  1.3549  1.6850
  354MOL0     H46720   4.077   9.713   4.876  1.3813 -0.9118 -0.4380
  354MOL0     H46721   4.044   9.771   5.046  0.2519 -0.7085  0.2307
  354MOL0     H46722   4.272   9.848   4.901  3.3068 -0.7488 -0.1670
  354MOL0     H46723   4.328   9.703   4.961  0.0830 -0.5951 -0.2823
  354MOL0     H46724   4.195   9.914   5.144 -1.6408 -1.2163 -2.0064
  354MOL0     H46725   4.273   9.771   5.213  1.5115 -1.3143 -0.6102
  354MOL0     H46726   4.600  10.018   5.150 -1.3058  2.4066  1.6003
  354MOL0     H46727   3.755   9.417   5.041  3.1345  1.2106 -0.8706
  354MOL0     H46728   3.558   9.481   5.177  0.9297 -1.0793 -0.2389
  355MOL0     O46729   6.447   4.466   0.152  0.0051 -0.8109 -0.3556
  355MOL0     C46730   6.475   4.391   0.241  0.3449 -0.2031 -0.0303
  355MOL0     O46731   6.409   4.405   0.357  0.1214 -0.1476 -0.5556
  355MOL0     C46732   6.324   4.512   0.360 -0.3651 -0.5604 -0.3587
  355MOL0     C46733   6.377   4.638   0.419 -0.1002  0.6498  0.5135
  355MOL0     C46734   6.302   4.748   0.395 -0.3903  0.0659 -0.2736
  355MOL0     C46735   6.174   4.747   0.336  0.4323 -0.9604  0.1378
  355MOL0     O46736   6.083   4.851   0.341 -0.6005  0.5478  0.1926
  355MOL0     C46737   6.143   4.982   0.332  0.3173  0.3373 -0.6491
  355MOL0     C46738   6.027   5.077   0.330 -0.2403  0.1465  1.2590
  355MOL0     C46739   5.912   5.037   0.246 -0.4051 -0.8177 -0.3020
  355MOL0     C46740   5.807   5.138   0.233  0.4937  0.4269  0.3707
  355MOL0     C46741   5.672   5.084   0.180  0.2042 -0.6714 -0.5003
  355MOL0     C46742   5.561   5.144   0.262  0.2403 -0.5228  0.5350
  355MOL0     C46743   5.422   5.079   0.220 -0.1113 -0.1730 -0.5783
  355MOL0     C46744   5.296   5.140   0.285  0.8641 -0.3155 -0.4716
  355MOL0     N46745   5.292   5.125   0.430 -0.3698  0.5688  0.5045
  355MOL0     C46746   5.347   5.217   0.503  0.1988  0.5100  0.7333
  355MOL0     C46747   5.341   5.170   0.623  0.4388 -0.2033 -0.2721
  355MOL0     C46748   5.393   5.257   0.735 -0.5718  0.1038  0.6080
  355MOL0     C46749   5.286   5.356   0.782 -0.3351 -0.6957  0.0319
  355MOL0     C46750   5.339   5.476   0.866  0.3787  0.4573  0.4078
  355MOL0     C46751   5.234   5.536   0.962 -0.7503  0.2337  0.9799
  355MOL0     O46752   5.182   5.656   0.904 -0.0353  0.4025 -0.4558
  355MOL0     C46753   5.043   5.684   0.927 -0.2010  0.9229  0.0092
  355MOL0     C46754   4.964   5.695   0.805  0.9859  0.6336  0.0677
  355MOL0     C46755   4.828   5.728   0.829 -0.1687 -0.6051 -0.3015
  355MOL0     C46756   4.776   5.754   0.959  0.1917 -0.2371 -1.3973
  355MOL0     C46757   4.643   5.810   0.976 -0.8070 -0.4398  0.2256
  355MOL0     O46758   4.598   5.873   0.865 -0.4171  1.5354 -0.0885
  355MOL0     C46759   4.467   5.914   0.875  0.3484 -0.0380 -0.7552
  355MOL0     C46760   4.423   6.030   0.940  0.0909  0.0914  1.1640
  355MOL0     C46761   4.287   6.078   0.928 -0.5920 -0.2451 -0.0071
  355MOL0     C46762   4.200   5.992   0.865  0.4399 -0.0718 -0.9788
  355MOL0     O46763   4.069   6.028   0.870  0.2000  0.2863  0.5436
  355MOL0     C46764   4.015   6.026   0.732  0.4648  0.5206  0.8853
  355MOL0     C46765   3.892   6.120   0.744  0.1897 -0.3068 -0.1389
  355MOL0     C46766   3.781   6.081   0.635  0.2334 -0.4369 -0.1860
  355MOL0     C46767   3.665   6.190   0.650 -0.3610 -0.3188  0.6157
  355MOL0     C46768   3.528   6.130   0.609 -0.8043  0.3209 -0.7143
  355MOL0     C46769   3.414   6.227   0.616  0.3469  0.0853 -0.7644
  355MOL0     C46770   3.434   6.364   0.541  0.4608  0.0048  0.3229
  355MOL0     C46771   3.427   6.337   0.394 -0.0915 -1.1247 -0.0303
  355MOL0    Cl46772   3.253   6.319   0.355  0.1872  0.4398  0.4023
  355MOL0     C46773   4.236   5.863   0.828 -0.4502 -0.9412 -0.0701
  355MOL0     C46774   4.368   5.832   0.821  0.7602  0.4010 -0.0851
  355MOL0     O46775   4.579   5.803   1.080 -0.3536 -0.1760  0.0927
  355MOL0     C46776   4.855   5.722   1.070 -0.3170  0.2270  0.1443
  355MOL0     C46777   4.989   5.693   1.052 -0.4816 -0.1134 -0.4209
  355MOL0     N46778   5.270   5.053   0.625  1.0730  0.5343  0.3086
  355MOL0     N46779   5.226   5.031   0.503 -0.0300  0.8889  0.2408
  355MOL0     C46780   6.125   4.625   0.285  0.8367 -0.0772 -1.2971
  355MOL0     C46781   6.198   4.508   0.294  0.3224  0.3861 -0.6803
  355MOL0     C46782   6.578   4.277   0.234 -0.2128  0.4746  1.1686
  355MOL0     C46783   6.592   4.186   0.334  0.1047 -0.1526  0.7246
  355MOL0     C46784   6.690   4.084   0.326  0.8982 -0.4664 -0.0346
  355MOL0     C46785   6.782   4.081   0.222  0.0821  0.4680 -0.1190
  355MOL0     O46786   6.881   3.987   0.216 -0.4720  0.1199  0.8730
  355MOL0     C46787   6.880   3.887   0.321 -0.3617 -0.6985 -0.0432
  355MOL0     C46788   7.007   3.799   0.294 -0.2742 -0.0295  0.1588
  355MOL0     C46789   7.037   3.713   0.424  0.0186  0.3891 -0.4463
  355MOL0     C46790   7.077   3.566   0.387 -0.2726 -0.2640 -0.3237
  355MOL0     C46791   7.075   3.491   0.513  0.5817 -0.1082 -1.0794
  355MOL0     C46792   7.056   3.429   0.618 -0.8059 -0.2080  0.4971
  355MOL0     C46793   6.773   4.176   0.126 -0.4385  0.4861  0.7071
  355MOL0     C46794   6.674   4.270   0.129 -0.0016  0.1388  0.2368
  355MOL0     H46795   6.476   4.657   0.460  0.3264 -0.2059 -0.0779
  355MOL0     H46796   6.334   4.845   0.431 -0.9677 -1.0549  3.7671
  355MOL0     H46797   6.204   4.988   0.241  2.2319 -1.0777  0.4553
  355MOL0     H46798   6.200   5.026   0.414 -1.3245  2.7759 -0.7221
  355MOL0     H46799   6.062   5.171   0.287 -2.1690  0.6132  0.6370
  355MOL0     H46800   5.994   5.109   0.429 -0.9097  3.6097  0.0355
  355MOL0     H46801   5.874   4.942   0.286 -0.0399 -0.3838  1.1399
  355MOL0     H46802   5.948   5.011   0.146 -0.4810 -1.8717 -0.0632
  355MOL0     H46803   5.800   5.186   0.330  1.6613 -2.0926  1.7991
  355MOL0     H46804   5.853   5.207   0.162  0.8021 -0.4364 -0.2844
  355MOL0     H46805   5.678   4.975   0.185  0.8727 -0.6875 -1.4536
  355MOL0     H46806   5.665   5.115   0.075 -1.0577  2.8031  0.4571
  355MOL0     H46807   5.547   5.249   0.237 -1.2711 -0.9792 -0.6373
  355MOL0     H46808   5.577   5.120   0.368  0.2414 -1.1309  0.4007
  355MOL0     H46809   5.416   5.082   0.111 -2.8034  0.3746 -0.4932
  355MOL0     H46810   5.425   4.972   0.245 -2.1381 -0.0541  0.3265
  355MOL0     H46811   5.211   5.085   0.243  1.1020  0.0800 -1.4952
  355MOL0     H46812   5.268   5.243   0.260  1.4377 -0.2168 -0.7118
  355MOL0     H46813   5.384   5.307   0.456 -2.9158  0.3768 -2.4117
  355MOL0     H46814   5.484   5.302   0.693  1.0970 -2.7097  0.9906
  355MOL0     H46815   5.429   5.189   0.812 -0.3734 -1.9786 -1.2145
  355MOL0     H46816   5.205   5.307   0.835 -0.0293  0.5106  1.6776
  355MOL0     H46817   5.240   5.400   0.693  0.8614  1.5795  0.4681
  355MOL0     H46818   5.420   5.446   0.933  1.7684  1.4503 -0.7645
  355MOL0     H46819   5.385   5.550   0.801  1.0592 -0.8213 -0.6249
  355MOL0     H46820   5.296   5.547   1.052 -1.1621  2.9952  1.0079
  355MOL0     H46821   5.159   5.458   0.974  0.9657 -1.6594 -0.1073
  355MOL0     H46822   5.004   5.679   0.706 -0.5136 -2.1233 -0.1928
  355MOL0     H46823   4.758   5.734   0.746 -0.3025  0.4921 -0.1232
  355MOL0     H46824   4.503   6.087   0.986  2.5893 -1.6314 -0.6814
  355MOL0     H46825   4.270   6.180   0.962  2.5397  0.4870 -0.3752
  355MOL0     H46826   3.988   5.924   0.705 -0.7693  0.1227  3.3385
  355MOL0     H46827   4.089   6.067   0.662 -0.7051  1.1693 -0.0180
  355MOL0     H46828   3.925   6.223   0.733  0.7858 -0.3016  1.3952
  355MOL0     H46829   3.844   6.103   0.841 -0.8894 -1.2330 -0.8100
  355MOL0     H46830   3.732   5.986   0.657  2.0462 -1.3760 -0.0134
  355MOL0     H46831   3.817   6.075   0.532  1.8828 -4.0385  0.4430
  355MOL0     H46832   3.656   6.216   0.756 -2.0759  1.5740  0.0688
  355MOL0     H46833   3.690   6.280   0.592 -2.9566 -0.2837 -0.6008
  355MOL0     H46834   3.501   6.041   0.667  0.2058  0.6595  0.3183
  355MOL0     H46835   3.538   6.092   0.507  2.3382  0.4493 -0.5591
  355MOL0     H46836   3.400   6.242   0.724  1.3651  0.5020 -0.6775
  355MOL0     H46837   3.324   6.192   0.565  0.5000  0.6857 -1.4625
  355MOL0     H46838   3.357   6.439   0.562 -1.1943 -0.7731 -2.4190
  355MOL0     H46839   3.531   6.406   0.567 -0.0942  0.6127  1.4930
  355MOL0     H46840   3.494   6.255   0.365  0.4607 -0.0759 -1.8898
  355MOL0     H46841   3.461   6.414   0.323 -0.1566 -2.0519 -1.0934
  355MOL0     H46842   4.152   5.799   0.803 -0.7448 -1.2302  1.5661
  355MOL0     H46843   4.400   5.744   0.766  0.5540  0.6401 -0.5934
  355MOL0     H46844   4.799   5.725   1.164 -1.5440  0.3171 -0.5605
  355MOL0     H46845   5.051   5.666   1.137  0.0099 -1.5013 -1.1994
  355MOL0     H46846   6.024   4.615   0.247  0.2149 -0.2543  0.3219
  355MOL0     H46847   6.155   4.411   0.271  0.6209  0.5944 -2.2330
  355MOL0     H46848   6.529   4.194   0.422  0.0685 -2.2866  0.9451
  355MOL0     H46849   6.697   4.014   0.408  3.8177 -0.9471 -0.5811
  355MOL0     H46850   6.790   3.826   0.305 -0.1858 -0.5521 -1.7725
  355MOL0     H46851   6.890   3.927   0.422 -1.7189 -0.0220 -0.1492
  355MOL0     H46852   6.993   3.725   0.214  0.4478 -1.3736  1.2433
  355MOL0     H46853   7.092   3.864   0.273 -1.5064  0.9995 -2.1134
  355MOL0     H46854   6.946   3.708   0.484 -0.7936 -0.2834 -1.7006
  355MOL0     H46855   7.116   3.766   0.479  0.0731  2.5566 -2.4643
  355MOL0     H46856   7.021   3.506   0.315  1.2727 -0.5523 -1.3186
  355MOL0     H46857   7.182   3.555   0.358  0.2161 -0.8181  1.5105
  355MOL0     H46858   7.046   3.369   0.706 -1.5569  0.3695  0.8143
  355MOL0     H46859   6.850   4.165   0.051 -2.4192 -1.4880 -1.1895
  355MOL0     H46860   6.670   4.347   0.053 -1.1346 -0.9252 -0.8320
  356MOL0     O46861   5.520   9.402   7.949  0.4959 -0.4610 -0.0932
  356MOL0     C46862   5.467   9.332   7.858  0.9657 -0.0591 -0.5239
  356MOL0     O46863   5.348   9.361   7.781 -0.4259 -0.0812  0.6035
  356MOL0     C46864   5.262   9.453   7.827 -0.1167 -0.1271 -0.2442
  356MOL0     C46865   5.226   9.468   7.957  1.0181 -0.2107  0.8766
  356MOL0     C46866   5.125   9.558   7.993 -0.3997 -0.1962  0.6839
  356MOL0     C46867   5.065   9.641   7.893  0.1721  0.8532 -1.1515
  356MOL0     O46868   4.966   9.730   7.927  0.5155  0.2035  0.0156
  356MOL0     C46869   4.897   9.709   8.048  0.9888 -0.7308  0.2931
  356MOL0     C46870   4.809   9.833   8.080 -0.7983 -0.0689  0.4186
  356MOL0     C46871   4.755   9.839   8.220 -0.3802  0.6830 -0.6823
  356MOL0     C46872   4.662   9.959   8.238 -0.2741  0.1408 -0.3663
  356MOL0     C46873   4.575   9.942   8.363  0.0290  1.1025 -0.0565
  356MOL0     C46874   4.515  10.065   8.430  0.0790 -0.6901 -0.0123
  356MOL0     C46875   4.447  10.163   8.334 -0.0017  0.7418  0.4437
  356MOL0     C46876   4.310  10.102   8.281 -0.5286  0.8010  1.1092
  356MOL0     N46877   4.232  10.047   8.385 -0.1296 -0.5171 -0.1739
  356MOL0     C46878   4.169  10.118   8.478 -0.3177  0.2113 -0.0691
  356MOL0     C46879   4.095  10.023   8.547  0.1597 -0.2252 -0.0178
  356MOL0     C46880   4.014  10.065   8.669 -0.4086 -0.1463  0.1761
  356MOL0     C46881   3.875   9.983   8.681 -0.3157  0.3844 -0.1686
  356MOL0     C46882   3.788  10.003   8.555  0.5061 -0.2170 -0.6675
  356MOL0     C46883   3.758  10.149   8.521 -0.7424 -0.0638  1.1620
  356MOL0     O46884   3.692  10.215   8.628  0.3929 -0.0091 -0.3916
  356MOL0     C46885   3.565  10.274   8.594 -0.8387 -0.4834  0.0482
  356MOL0     C46886   3.562  10.400   8.551  0.3984 -0.1120  0.2097
  356MOL0     C46887   3.442  10.468   8.502 -0.5926 -0.2641  0.2022
  356MOL0     C46888   3.324  10.400   8.511  0.0188  0.5892  0.0358
  356MOL0     C46889   3.200  10.462   8.472  0.1003 -0.1341 -0.1553
  356MOL0     O46890   3.089  10.377   8.477  0.1935 -0.1434 -0.1454
  356MOL0     C46891   2.967  10.433   8.453  0.2849  0.4133  0.0473
  356MOL0     C46892   2.883  10.456   8.558  1.0878 -0.3375  1.7609
  356MOL0     C46893   2.758  10.522   8.539  0.4851 -0.4021 -1.0686
  356MOL0     C46894   2.726  10.570   8.418  0.5004  0.5580  0.2420
  356MOL0     O46895   2.603  10.645   8.404  1.1104 -0.3215 -0.5583
  356MOL0     C46896   2.597  10.745   8.302  1.2498 -1.4040 -0.3537
  356MOL0     C46897   2.456  10.805   8.318 -0.6248 -0.5351  0.9551
  356MOL0     C46898   2.454  10.951   8.266  0.4370 -0.1915 -0.1303
  356MOL0     C46899   2.315  11.005   8.302 -0.1770  0.8724  0.0317
  356MOL0     C46900   2.318  11.154   8.258  0.4974 -0.5512 -0.5054
  356MOL0     C46901   2.212  11.236   8.336  0.5197 -0.0378  0.9281
  356MOL0     C46902   2.198  11.385   8.290  0.1801 -0.7274  0.6998
  356MOL0     C46903   2.119  11.405   8.163 -0.2624  0.4196 -0.5952
  356MOL0    Cl46904   2.137  11.566   8.102  0.0486 -0.1298 -0.0604
  356MOL0     C46905   2.806  10.539   8.306 -0.6728 -0.0636  0.1632
  356MOL0     C46906   2.929  10.471   8.328 -0.4384  1.0062 -0.5143
  356MOL0     O46907   3.195  10.572   8.422  0.2770 -0.1909  0.6827
  356MOL0     C46908   3.327  10.276   8.582  0.7978  0.5201  0.3702
  356MOL0     C46909   3.446  10.215   8.622  0.2417 -1.1119 -0.6142
  356MOL0     N46910   4.108   9.904   8.492 -0.3090  0.2467 -0.0743
  356MOL0     N46911   4.209   9.917   8.404 -0.1092  0.0695  0.3855
  356MOL0     C46912   5.103   9.632   7.761 -0.1893  1.3154  0.6618
  356MOL0     C46913   5.205   9.532   7.726  0.1614  0.2118  0.7066
  356MOL0     C46914   5.548   9.218   7.823 -0.2280  1.1458 -0.0353
  356MOL0     C46915   5.662   9.178   7.899 -0.6693 -0.7008 -0.1107
  356MOL0     C46916   5.740   9.067   7.862 -0.1653  0.6665 -0.3933
  356MOL0     C46917   5.695   8.989   7.759  0.0146  1.0962  0.1568
  356MOL0     O46918   5.760   8.872   7.729  0.6674  0.9391 -0.7118
  356MOL0     C46919   5.719   8.790   7.617  0.5278 -0.1762 -0.0423
  356MOL0     C46920   5.827   8.672   7.609  0.6975  0.0512  0.3042
  356MOL0     C46921   5.968   8.718   7.577  0.2627  0.2103 -0.3858
  356MOL0     C46922   5.979   8.835   7.477  0.0859  0.3930 -0.5641
  356MOL0     C46923   6.121   8.867   7.467 -0.6352  0.4126 -0.3670
  356MOL0     C46924   6.245   8.890   7.470 -0.3342 -0.2532  1.0686
  356MOL0     C46925   5.582   9.031   7.683 -0.1846 -0.1460 -0.0855
  356MOL0     C46926   5.517   9.145   7.713  0.5494  0.4695  0.2728
  356MOL0     H46927   5.257   9.405   8.039 -1.7807  0.8837  2.9170
  356MOL0     H46928   5.097   9.568   8.098  0.6515  2.3036  0.7835
  356MOL0     H46929   4.973   9.720   8.125  1.5477 -1.8823 -0.0728
  356MOL0     H46930   4.848   9.611   8.055  1.9544 -1.1554  1.2847
  356MOL0     H46931   4.726   9.824   8.009  0.8561 -1.3758 -1.4950
  356MOL0     H46932   4.871   9.921   8.061  0.3541 -1.3745 -2.5968
  356MOL0     H46933   4.835   9.836   8.295 -1.2867 -1.7704  0.2885
  356MOL0     H46934   4.692   9.751   8.236  0.3459 -0.3076 -2.8422
  356MOL0     H46935   4.718  10.053   8.247  0.7491 -0.6248  1.9118
  356MOL0     H46936   4.608   9.972   8.143 -0.2586  2.0953 -0.1566
  356MOL0     H46937   4.629   9.891   8.443 -2.5302  3.7717  3.7048
  356MOL0     H46938   4.506   9.858   8.349  2.7178 -1.0997 -1.3608
  356MOL0     H46939   4.584  10.123   8.492  0.5335 -1.2469  0.0056
  356MOL0     H46940   4.451  10.033   8.513  0.1822 -0.7490  0.0440
  356MOL0     H46941   4.433  10.258   8.386 -1.6427 -0.0910  1.5988
  356MOL0     H46942   4.514  10.183   8.249 -0.1053 -1.9049 -0.3600
  356MOL0     H46943   4.346  10.041   8.197  1.0782  1.5396  1.2189
  356MOL0     H46944   4.247  10.181   8.239  0.6489  1.1338 -0.1263
  356MOL0     H46945   4.164  10.224   8.500 -3.7922 -0.2290  1.8699
  356MOL0     H46946   4.007  10.174   8.669  0.5723 -0.0506  2.0215
  356MOL0     H46947   4.077  10.053   8.758 -0.0572  2.4794  0.3342
  356MOL0     H46948   3.830  10.017   8.775  2.2949  1.5794  0.7632
  356MOL0     H46949   3.902   9.879   8.699  0.8570  0.9170  1.4743
  356MOL0     H46950   3.835   9.963   8.465 -0.9135 -1.4257 -0.8970
  356MOL0     H46951   3.693   9.953   8.574 -0.2934  1.1609 -0.9196
  356MOL0     H46952   3.693  10.159   8.433  0.8051  0.0693 -0.0146
  356MOL0     H46953   3.847  10.203   8.487 -1.0070  0.0992  0.7180
  356MOL0     H46954   3.659  10.448   8.544  0.1669  0.3537  0.1578
  356MOL0     H46955   3.438  10.572   8.471 -2.6036 -0.5351 -0.5539
  356MOL0     H46956   2.916  10.413   8.652 -1.2553 -1.0102  2.3278
  356MOL0     H46957   2.681  10.546   8.612  0.4712 -0.1757 -1.1584
  356MOL0     H46958   2.608  10.703   8.202 -1.0313  2.6454 -2.5238
  356MOL0     H46959   2.673  10.813   8.342 -2.2045  0.2470  4.4115
  356MOL0     H46960   2.416  10.798   8.420 -0.7709 -0.9312  0.8687
  356MOL0     H46961   2.403  10.748   8.243 -0.1854 -1.9908  1.7127
  356MOL0     H46962   2.472  10.945   8.158 -0.5264  0.4549 -0.3361
  356MOL0     H46963   2.532  11.019   8.303  1.0838 -1.2040  0.4194
  356MOL0     H46964   2.240  10.953   8.241  0.8281  1.1212 -1.4636
  356MOL0     H46965   2.294  11.007   8.409  2.0390 -0.4388  0.5534
  356MOL0     H46966   2.321  11.166   8.149  1.0307 -0.2986 -0.4690
  356MOL0     H46967   2.412  11.200   8.291 -0.6998  1.0135  0.8633
  356MOL0     H46968   2.242  11.245   8.440 -2.5314  0.1864  1.8861
  356MOL0     H46969   2.110  11.198   8.332 -0.4426  2.3722  1.0227
  356MOL0     H46970   2.167  11.443   8.377 -0.8490 -2.0824  1.2826
  356MOL0     H46971   2.299  11.421   8.268  1.8681 -3.3817  3.3208
  356MOL0     H46972   2.011  11.402   8.185  0.0226  2.6369  1.4668
  356MOL0     H46973   2.145  11.335   8.082  3.5896  1.6525 -0.6141
  356MOL0     H46974   2.778  10.548   8.201  0.7035  2.3123 -0.0647
  356MOL0     H46975   2.997  10.453   8.246  1.8049 -2.5202  1.8358
  356MOL0     H46976   3.231  10.234   8.613  0.5769 -0.2607 -1.2832
  356MOL0     H46977   3.450  10.123   8.678 -3.4417 -1.7602 -1.1315
  356MOL0     H46978   5.058   9.685   7.677 -1.2152 -1.4931 -0.6897
  356MOL0     H46979   5.255   9.515   7.631  0.3566 -0.2724  0.8899
  356MOL0     H46980   5.706   9.234   7.981 -0.4220 -1.0010 -0.0362
  356MOL0     H46981   5.830   9.045   7.920 -0.5030 -0.0683 -0.1464
  356MOL0     H46982   5.721   8.851   7.526  0.2050  0.9334  0.6811
  356MOL0     H46983   5.621   8.744   7.632  1.1153 -0.7235  2.6611
  356MOL0     H46984   5.821   8.615   7.703  0.1259  1.2473  1.0119
  356MOL0     H46985   5.784   8.603   7.536 -0.5791  0.2383  0.8598
  356MOL0     H46986   6.017   8.625   7.549  0.9624 -0.3136  2.3226
  356MOL0     H46987   6.011   8.741   7.675 -0.7618 -5.7148  1.9038
  356MOL0     H46988   5.945   8.795   7.381  0.3750 -0.2053 -0.4145
  356MOL0     H46989   5.931   8.929   7.509  2.2975  0.7894  1.9095
  356MOL0     H46990   6.350   8.910   7.460 -0.3581  1.1415  3.0070
  356MOL0     H46991   5.557   8.974   7.594  1.3398 -3.7113  1.5857
  356MOL0     H46992   5.442   9.175   7.640  1.2972 -1.3435 -1.3341
  357MOL0     O46993   6.022   6.611   8.908  0.0959 -0.5789  0.5269
  357MOL0     C46994   6.097   6.581   9.003 -0.5656  0.4160  0.6712
  357MOL0     O46995   6.064   6.498   9.111  0.7833 -0.6649  0.1138
  357MOL0     C46996   5.940   6.441   9.133  0.7181 -0.0304 -0.1085
  357MOL0     C46997   5.933   6.308   9.167  0.4597  0.1438 -0.3752
  357MOL0     C46998   5.812   6.243   9.209 -0.6515 -0.8506  0.2840
  357MOL0     C46999   5.706   6.329   9.235  0.7870 -0.2709  0.0853
  357MOL0     O47000   5.592   6.286   9.302 -0.1787  0.5451  0.4099
  357MOL0     C47001   5.518   6.377   9.378 -0.0843 -0.6606 -0.7342
  357MOL0     C47002   5.502   6.321   9.521 -0.0450  0.6923 -0.8777
  357MOL0     C47003   5.637   6.263   9.574 -0.5749  0.0617  0.9367
  357MOL0     C47004   5.626   6.194   9.700  0.7835 -0.2095 -0.7369
  357MOL0     C47005   5.764   6.143   9.758 -0.3843  0.6410  0.7777
  357MOL0     C47006   5.722   6.030   9.863  1.1658 -0.1865  0.7118
  357MOL0     C47007   5.836   5.954   9.923 -0.1075 -0.5798  0.6152
  357MOL0     C47008   5.920   6.049  10.019  1.2252  0.1751  0.9107
  357MOL0     N47009   5.966   5.974  10.140  0.6280  0.2017  1.2024
  357MOL0     C47010   5.891   5.950  10.250  0.3161  0.0301 -0.2303
  357MOL0     C47011   5.963   5.866  10.324  0.6352 -0.1483 -1.1226
  357MOL0     C47012   5.935   5.798  10.454  0.0179 -0.8912 -0.1567
  357MOL0     C47013   5.953   5.648  10.463  0.7961  0.0202 -0.1787
  357MOL0     C47014   5.875   5.580  10.573 -0.8223 -0.6351  0.1705
  357MOL0     C47015   5.928   5.440  10.593 -0.2821 -0.7529  0.0184
  357MOL0     O47016   5.846   5.382  10.694 -0.2500 -0.1882  0.9061
  357MOL0     C47017   5.903   5.329  10.797  0.2051 -0.2855 -0.3053
  357MOL0     C47018   5.972   5.208  10.786 -0.0483 -1.1072 -0.4344
  357MOL0     C47019   6.042   5.150  10.901 -0.1454 -0.1386 -1.6259
  357MOL0     C47020   6.043   5.217  11.024  0.6175  1.0608 -1.2095
  357MOL0     C47021   6.127   5.181  11.134 -0.0070  0.2096 -1.0752
  357MOL0     O47022   6.231   5.097  11.101  0.4964  0.2778  0.1289
  357MOL0     C47023   6.319   5.058  11.195 -0.1643  0.8176 -0.0044
  357MOL0     C47024   6.288   4.977  11.307  0.1070  0.2338  0.7060
  357MOL0     C47025   6.381   4.935  11.396 -0.2306  1.0443  0.8933
  357MOL0     C47026   6.509   4.966  11.368 -0.5385  0.1258 -0.7577
  357MOL0     O47027   6.614   4.947  11.457 -0.4564  0.1166  0.5810
  357MOL0     C47028   6.608   4.838  11.551  0.3031 -0.7093 -0.4664
  357MOL0     C47029   6.744   4.810  11.616 -0.8308  0.0729  0.7985
  357MOL0     C47030   6.842   4.768  11.502 -0.3957  0.1354 -0.5561
  357MOL0     C47031   6.980   4.768  11.572 -0.3322 -0.0456 -0.1644
  357MOL0     C47032   7.079   4.685  11.490 -0.7415  0.2009  0.1785
  357MOL0     C47033   7.217   4.672  11.562  0.0811  0.3816  0.2884
  357MOL0     C47034   7.285   4.547  11.510  1.0303 -0.8266  0.6338
  357MOL0     C47035   7.422   4.516  11.570  0.6131 -0.4806  0.6541
  357MOL0    Cl47036   7.478   4.375  11.475  0.2027  0.0493 -0.0828
  357MOL0     C47037   6.544   5.047  11.255 -0.1511 -0.0333 -0.4621
  357MOL0     C47038   6.457   5.094  11.171  0.2859  0.7530 -0.1197
  357MOL0     O47039   6.126   5.243  11.248 -0.1221 -1.0361  0.0868
  357MOL0     C47040   5.984   5.347  11.024  0.5067 -0.2797 -0.8843
  357MOL0     C47041   5.907   5.395  10.917  0.4471  0.2111  0.2027
  357MOL0     N47042   6.080   5.844  10.262  0.3330 -0.1984  0.1405
  357MOL0     N47043   6.079   5.899  10.147  0.7275  1.3919 -0.3817
  357MOL0     C47044   5.710   6.462   9.183 -0.1776  0.6976  0.0835
  357MOL0     C47045   5.826   6.514   9.133 -0.0053 -0.0884 -0.1401
  357MOL0     C47046   6.239   6.603   8.975  0.1251  0.5434  0.1062
  357MOL0     C47047   6.290   6.685   8.874  0.0768  0.3033  0.4090
  357MOL0     C47048   6.424   6.688   8.854  0.5617  0.2495 -1.0804
  357MOL0     C47049   6.521   6.623   8.934  0.0737 -0.0770  0.0209
  357MOL0     O47050   6.656   6.641   8.919 -0.2373  0.0055 -0.1074
  357MOL0     C47051   6.722   6.619   8.795  0.2083  0.4100 -0.7517
  357MOL0     C47052   6.873   6.619   8.812 -0.1706 -0.0651  0.8705
  357MOL0     C47053   6.939   6.602   8.677  0.0863 -0.1760 -1.0287
  357MOL0     C47054   7.091   6.620   8.705 -0.8456  0.2324  0.9536
  357MOL0     C47055   7.167   6.608   8.578 -0.1724  0.0330 -0.1148
  357MOL0     C47056   7.250   6.620   8.494  0.5317  0.1296  1.0959
  357MOL0     C47057   6.479   6.551   9.045 -0.5008  0.0296 -0.4274
  357MOL0     C47058   6.339   6.543   9.062 -0.6727 -0.0947  0.3340
  357MOL0     H47059   6.030   6.262   9.185  1.3457  0.8161 -2.9769
  357MOL0     H47060   5.815   6.141   9.245  2.2993 -0.7020  0.6571
  357MOL0     H47061   5.417   6.402   9.344 -0.2813  0.3027  0.4679
  357MOL0     H47062   5.572   6.471   9.392 -3.0642  0.9446  1.0761
  357MOL0     H47063   5.423   6.246   9.511 -2.1715  3.0103 -2.5402
  357MOL0     H47064   5.465   6.394   9.593  1.2651 -0.2302  0.8268
  357MOL0     H47065   5.712   6.343   9.574  0.6196 -0.6310 -4.6160
  357MOL0     H47066   5.685   6.194   9.504 -3.0204 -1.0325  0.2417
  357MOL0     H47067   5.583   6.268   9.769  2.2046  2.2224 -2.3120
  357MOL0     H47068   5.574   6.101   9.675  3.1999 -2.2330  1.1548
  357MOL0     H47069   5.821   6.223   9.806  0.9353  1.4203 -1.8484
  357MOL0     H47070   5.822   6.105   9.673 -2.4225 -0.8126 -0.0364
  357MOL0     H47071   5.658   5.961   9.807 -0.8695  0.3540  2.2786
  357MOL0     H47072   5.666   6.085   9.939  1.7534  1.5874 -0.0827
  357MOL0     H47073   5.800   5.861   9.966 -1.8163  0.5234  1.6940
  357MOL0     H47074   5.891   5.920   9.835 -2.5526  0.5397 -1.4827
  357MOL0     H47075   5.859   6.126  10.065 -0.3616 -0.3595 -0.1953
  357MOL0     H47076   6.009   6.093   9.972  0.5945  0.8922  0.3714
  357MOL0     H47077   5.791   5.990  10.266 -0.8737 -1.8652 -2.3187
  357MOL0     H47078   5.841   5.831  10.499  0.7353  0.6595  0.2769
  357MOL0     H47079   6.006   5.838  10.527 -0.3616 -3.4051  1.7384
  357MOL0     H47080   6.061   5.633  10.475  0.4223 -3.1522 -0.0174
  357MOL0     H47081   5.921   5.604  10.369 -1.4144 -0.2439  0.6470
  357MOL0     H47082   5.879   5.643  10.662 -1.2272 -0.0914 -0.1910
  357MOL0     H47083   5.768   5.576  10.550 -0.3758 -2.0214 -2.0314
  357MOL0     H47084   6.027   5.450  10.638 -1.0362  4.3426  1.1617
  357MOL0     H47085   5.917   5.377  10.505 -0.1147 -1.6242  0.6092
  357MOL0     H47086   5.953   5.150  10.696 -2.4471  0.4203 -0.9992
  357MOL0     H47087   6.094   5.055  10.902  6.0435  2.7274  0.5740
  357MOL0     H47088   6.186   4.941  11.319 -0.6259  1.3099 -1.6607
  357MOL0     H47089   6.356   4.863  11.473 -1.0001  0.9478  0.5612
  357MOL0     H47090   6.580   4.749  11.493  1.2471 -2.6502  1.8745
  357MOL0     H47091   6.531   4.858  11.626  1.5813 -0.5814  0.8668
  357MOL0     H47092   6.735   4.723  11.682 -1.8657 -1.0343 -0.7186
  357MOL0     H47093   6.784   4.896  11.669  4.0971 -0.4325 -1.4979
  357MOL0     H47094   6.840   4.840  11.419  0.0618 -0.1442 -0.8182
  357MOL0     H47095   6.822   4.667  11.464 -2.1978 -0.1693  1.0896
  357MOL0     H47096   7.022   4.868  11.586 -2.3952  1.0014 -1.0910
  357MOL0     H47097   6.981   4.717  11.669  5.3446 -1.2318 -0.5047
  357MOL0     H47098   7.090   4.739  11.396 -2.7411 -0.5615 -0.5637
  357MOL0     H47099   7.042   4.582  11.477  0.4334 -0.2267  0.1489
  357MOL0     H47100   7.209   4.663  11.671  2.3479  0.3655  0.4997
  357MOL0     H47101   7.281   4.760  11.563 -0.1257  0.5332  1.5595
  357MOL0     H47102   7.218   4.463  11.534 -1.7508  0.5744 -1.6102
  357MOL0     H47103   7.295   4.554  11.401 -1.9176 -0.9374  0.2555
  357MOL0     H47104   7.406   4.494  11.676  0.0023  0.5085  0.7748
  357MOL0     H47105   7.496   4.594  11.548  0.7610 -0.5701  0.8226
  357MOL0     H47106   6.649   5.071  11.242  0.9958 -4.2089 -0.4662
  357MOL0     H47107   6.487   5.157  11.088  1.1670 -0.3345 -0.6500
  357MOL0     H47108   5.998   5.416  11.106 -4.2966 -2.5068  2.2515
  357MOL0     H47109   5.859   5.492  10.924  1.5814  0.8275 -0.3600
  357MOL0     H47110   5.622   6.524   9.193  0.5775  1.4640  3.1047
  357MOL0     H47111   5.828   6.621   9.121 -3.3944  0.0810 -0.1118
  357MOL0     H47112   6.218   6.728   8.805 -1.8098 -1.2925  1.2990
  357MOL0     H47113   6.466   6.752   8.777  3.0450  2.2036  1.7038
  357MOL0     H47114   6.684   6.690   8.721  0.9204  2.2752  0.5851
  357MOL0     H47115   6.700   6.518   8.758  0.8760 -0.9812  2.3404
  357MOL0     H47116   6.894   6.711   8.867 -0.2994 -0.0667  0.9233
  357MOL0     H47117   6.894   6.539   8.884  0.9483  1.0590  1.8552
  357MOL0     H47118   6.904   6.677   8.604 -1.1097  0.6102  0.3156
  357MOL0     H47119   6.917   6.508   8.625 -0.5358  1.3159 -3.6789
  357MOL0     H47120   7.108   6.721   8.743 -0.2863  0.8080 -0.7260
  357MOL0     H47121   7.129   6.539   8.768  0.6799  1.0757  1.1407
  357MOL0     H47122   7.330   6.639   8.425  0.1547  2.7872  1.2997
  357MOL0     H47123   6.546   6.506   9.118 -3.0080  1.3090  2.9042
  357MOL0     H47124   6.309   6.479   9.144  1.5052 -2.7614 -0.7990
  358MOL0     O47125   5.302   2.082   3.813 -0.5245 -1.1642 -1.0142
  358MOL0     C47126   5.409   2.050   3.765 -0.9970 -0.1379 -0.0083
  358MOL0     O47127   5.424   2.002   3.641  0.0065  0.4939  0.0166
  358MOL0     C47128   5.334   2.022   3.547  0.4717 -0.0532 -0.7546
  358MOL0     C47129   5.250   1.920   3.519  0.1549 -0.4088  0.1855
  358MOL0     C47130   5.150   1.920   3.417 -0.0938  0.2672 -0.3015
  358MOL0     C47131   5.136   2.032   3.341 -0.7573 -0.0768  0.9181
  358MOL0     O47132   5.049   2.058   3.236 -0.1930  0.6189  0.1290
  358MOL0     C47133   4.953   1.956   3.212 -0.5371 -0.3389  0.6849
  358MOL0     C47134   4.876   1.971   3.087 -0.3085  0.6841 -0.0184
  358MOL0     C47135   4.786   1.849   3.048 -0.5463  0.1940 -0.3948
  358MOL0     C47136   4.687   1.879   2.939 -0.2124  0.0270  0.8521
  358MOL0     C47137   4.623   1.760   2.874 -0.0558  0.1321 -0.7923
  358MOL0     C47138   4.526   1.803   2.763 -0.1566  0.1404  0.7968
  358MOL0     C47139   4.466   1.679   2.698 -0.4594 -0.0468 -0.4541
  358MOL0     C47140   4.537   1.625   2.568 -1.8045  0.5786  0.4060
  358MOL0     N47141   4.679   1.585   2.597 -0.0032  0.1038 -0.2174
  358MOL0     C47142   4.710   1.456   2.614  0.2465  0.2290 -0.2580
  358MOL0     C47143   4.845   1.450   2.629  0.6326 -1.1357 -0.4989
  358MOL0     C47144   4.926   1.330   2.636 -0.0055 -0.3340 -0.0228
  358MOL0     C47145   4.880   1.240   2.524  0.8996 -0.7636 -0.2458
  358MOL0     C47146   4.923   1.290   2.380  0.8004 -0.3955 -0.1156
  358MOL0     C47147   4.823   1.383   2.306 -1.6121  0.1127 -0.2930
  358MOL0     O47148   4.699   1.310   2.305 -0.7109 -0.1344  0.3076
  358MOL0     C47149   4.582   1.374   2.283  0.1674  0.0605  0.2687
  358MOL0     C47150   4.557   1.497   2.230 -0.2094 -1.0572 -0.8507
  358MOL0     C47151   4.431   1.544   2.203 -0.5283  0.4573  0.3778
  358MOL0     C47152   4.324   1.456   2.211  0.1637 -0.6542  0.2006
  358MOL0     C47153   4.186   1.485   2.167  1.1354  0.0289  0.2238
  358MOL0     O47154   4.107   1.369   2.157  0.1051  0.2261  0.2465
  358MOL0     C47155   3.969   1.384   2.165  0.0638 -0.1602 -0.9693
  358MOL0     C47156   3.907   1.475   2.251 -0.0220 -0.4829 -0.0335
  358MOL0     C47157   3.770   1.472   2.263 -0.4962  0.8294  0.8063
  358MOL0     C47158   3.688   1.397   2.183  0.0134 -0.4488 -0.3991
  358MOL0     O47159   3.553   1.413   2.207  0.6678 -0.5375  0.3644
  358MOL0     C47160   3.478   1.433   2.084 -0.4512  0.6189  0.0898
  358MOL0     C47161   3.349   1.524   2.111 -0.2246 -0.7459  0.1789
  358MOL0     C47162   3.255   1.457   2.201  0.5264 -1.1175  0.4119
  358MOL0     C47163   3.138   1.546   2.238 -0.2499 -0.9336 -0.1444
  358MOL0     C47164   3.033   1.471   2.310  0.1941  0.7816  0.1389
  358MOL0     C47165   2.903   1.557   2.326 -0.2759 -0.7893  0.0373
  358MOL0     C47166   2.930   1.682   2.399  0.0542 -0.6046 -0.2286
  358MOL0     C47167   2.805   1.753   2.447 -1.4604 -0.5261  0.3439
  358MOL0    Cl47168   2.732   1.836   2.318  0.6133  0.0957  0.1718
  358MOL0     C47169   3.747   1.309   2.093 -0.0472  0.3758 -0.4689
  358MOL0     C47170   3.891   1.306   2.089  0.9175 -0.0220 -0.5661
  358MOL0     O47171   4.151   1.600   2.147  0.0420 -0.0559 -1.1025
  358MOL0     C47172   4.348   1.337   2.275  0.1399 -0.4306  0.5668
  358MOL0     C47173   4.473   1.300   2.327  0.4836 -0.4974 -0.2673
  358MOL0     N47174   4.892   1.579   2.627  0.4099  0.0213 -0.0841
  358MOL0     N47175   4.791   1.661   2.611 -0.2046 -0.1363  0.3711
  358MOL0     C47176   5.223   2.144   3.369  0.4409  1.0154  0.2323
  358MOL0     C47177   5.326   2.137   3.468 -0.3719  0.3518  0.6969
  358MOL0     C47178   5.513   2.033   3.859 -0.0586 -0.2424  0.6984
  358MOL0     C47179   5.613   1.928   3.843  0.1875  0.1649  0.0600
  358MOL0     C47180   5.723   1.933   3.923  0.1483  0.2448  0.2576
  358MOL0     C47181   5.742   2.031   4.017  0.6845 -0.7864 -0.0059
  358MOL0     O47182   5.858   2.035   4.102 -0.5246  0.1911  0.8875
  358MOL0     C47183   5.959   1.933   4.092  0.4033  0.2405  0.2704
  358MOL0     C47184   6.042   1.939   4.222  0.0955  0.4481 -0.3114
  358MOL0     C47185   6.175   1.848   4.226 -0.7602  0.5283  0.4695
  358MOL0     C47186   6.311   1.930   4.249  0.0694  0.3100 -0.4783
  358MOL0     C47187   6.325   1.955   4.395  0.1929  0.2543  0.4199
  358MOL0     C47188   6.368   1.982   4.508  0.5037 -0.3997  0.4581
  358MOL0     C47189   5.640   2.128   4.047  0.3105 -0.0209 -0.5140
  358MOL0     C47190   5.531   2.132   3.966 -0.1265 -0.0234 -0.0923
  358MOL0     H47191   5.254   1.827   3.575 -1.8367 -1.8457 -1.8807
  358MOL0     H47192   5.081   1.838   3.399 -0.4638  1.2146 -3.8950
  358MOL0     H47193   4.883   1.973   3.294  0.9480  1.3864  1.6902
  358MOL0     H47194   4.995   1.856   3.225 -1.9608 -0.6183  4.5958
  358MOL0     H47195   4.946   1.988   3.005 -0.6162  0.5720 -0.3053
  358MOL0     H47196   4.805   2.052   3.107 -0.1229  0.6869  0.6585
  358MOL0     H47197   4.737   1.807   3.136 -0.1534 -3.6463 -1.8016
  358MOL0     H47198   4.853   1.775   3.002  1.2184  2.6218 -1.9814
  358MOL0     H47199   4.612   1.949   2.977  0.4395  0.9322  0.5044
  358MOL0     H47200   4.728   1.935   2.855 -2.3800 -1.7190 -1.5572
  358MOL0     H47201   4.553   1.709   2.940  0.5178  0.1142 -0.1857
  358MOL0     H47202   4.700   1.691   2.838 -0.1568 -0.1264 -0.5160
  358MOL0     H47203   4.585   1.858   2.689 -0.0312  1.4395  1.8378
  358MOL0     H47204   4.457   1.876   2.805 -2.4935 -2.5903  2.0523
  358MOL0     H47205   4.470   1.591   2.763  1.0880 -0.2763 -0.8059
  358MOL0     H47206   4.363   1.705   2.673 -1.5784  1.5592  4.5895
  358MOL0     H47207   4.550   1.704   2.493  3.1562  0.9129  1.2926
  358MOL0     H47208   4.483   1.542   2.521  2.1170 -0.4800 -2.7835
  358MOL0     H47209   4.634   1.378   2.614  0.6303 -0.1500 -0.6659
  358MOL0     H47210   4.904   1.270   2.726 -2.6034 -0.4989 -0.6862
  358MOL0     H47211   5.034   1.350   2.639 -0.0718  0.0136  0.0173
  358MOL0     H47212   4.773   1.219   2.539  0.1397  0.4723 -3.2921
  358MOL0     H47213   4.917   1.137   2.537  1.6037 -0.1863  3.2948
  358MOL0     H47214   5.016   1.347   2.388 -0.2095  1.2025  0.7833
  358MOL0     H47215   4.936   1.201   2.318 -0.3172 -0.1461 -0.7313
  358MOL0     H47216   4.866   1.410   2.210 -0.8112 -1.6383 -0.4704
  358MOL0     H47217   4.811   1.477   2.361  0.6600 -0.0694  0.6158
  358MOL0     H47218   4.638   1.564   2.201 -2.1599  1.1633 -1.4441
  358MOL0     H47219   4.404   1.645   2.173  2.1103  1.5025  1.2543
  358MOL0     H47220   3.959   1.537   2.323 -0.2788  1.6522 -1.6170
  358MOL0     H47221   3.717   1.531   2.337 -0.1297  3.1717 -0.6997
  358MOL0     H47222   3.441   1.335   2.055 -0.9658  1.5390 -2.6276
  358MOL0     H47223   3.542   1.482   2.010 -0.8720  0.2842 -0.4938
  358MOL0     H47224   3.303   1.550   2.016  3.8044  0.1652 -1.7681
  358MOL0     H47225   3.386   1.618   2.154  0.3779 -1.4898  1.3663
  358MOL0     H47226   3.297   1.424   2.297 -0.7023 -0.9618  1.0335
  358MOL0     H47227   3.232   1.367   2.143  3.4580 -0.7199 -1.5380
  358MOL0     H47228   3.173   1.633   2.294 -3.2041  1.0560 -1.1476
  358MOL0     H47229   3.091   1.579   2.145 -1.9438  1.0960  1.3411
  358MOL0     H47230   3.055   1.443   2.414  1.0229  3.0920  0.6435
  358MOL0     H47231   2.995   1.383   2.258  0.2563  0.6528  0.3105
  358MOL0     H47232   2.827   1.500   2.381  0.8290 -1.5380  0.8296
  358MOL0     H47233   2.859   1.574   2.228  1.3375 -1.5514 -0.8643
  358MOL0     H47234   3.001   1.666   2.481  1.3936  1.1587 -0.9687
  358MOL0     H47235   2.976   1.755   2.331  2.2461  1.2370  2.9397
  358MOL0     H47236   2.829   1.826   2.524 -0.8010 -0.1616 -0.2007
  358MOL0     H47237   2.736   1.679   2.490 -0.9212 -0.0018  2.1795
  358MOL0     H47238   3.682   1.242   2.037 -0.6242  0.0814  0.5250
  358MOL0     H47239   3.942   1.235   2.024  3.4879  2.0537 -0.9705
  358MOL0     H47240   4.264   1.271   2.296  0.1324 -0.9696 -1.0582
  358MOL0     H47241   4.490   1.204   2.374 -0.2639 -0.1049  0.8345
  358MOL0     H47242   5.198   2.227   3.304  2.0549 -0.8574 -3.0189
  358MOL0     H47243   5.411   2.204   3.481  0.2230 -0.8482  3.6814
  358MOL0     H47244   5.609   1.859   3.760  3.4639 -3.1501  2.3984
  358MOL0     H47245   5.810   1.868   3.924  0.3026 -0.0407  6.2253
  358MOL0     H47246   6.024   1.953   4.006  1.7182  1.0090  1.4113
  358MOL0     H47247   5.913   1.834   4.086 -1.7702  1.2682 -1.5265
  358MOL0     H47248   6.062   2.046   4.235 -0.6732  0.5473  0.1130
  358MOL0     H47249   5.972   1.907   4.299 -0.6669  1.3729 -0.5946
  358MOL0     H47250   6.188   1.781   4.142  3.7956  1.7371 -0.0702
  358MOL0     H47251   6.141   1.790   4.312 -0.0750  0.0616  0.4237
  358MOL0     H47252   6.396   1.878   4.204 -1.6438 -3.1556 -0.0343
  358MOL0     H47253   6.296   2.025   4.197  1.2667  0.9720  0.3311
  358MOL0     H47254   6.398   1.989   4.611  1.8070 -0.7268  0.1084
  358MOL0     H47255   5.665   2.194   4.130 -1.5067 -0.0086  0.0715
  358MOL0     H47256   5.450   2.204   3.978  0.4666  0.3796  1.8596
  359MOL0     O47257   2.405   6.421   6.001 -0.1214  0.1542  1.2757
  359MOL0     C47258   2.457   6.308   6.015 -0.3629  0.2651  0.9843
  359MOL0     O47259   2.508   6.252   6.124 -0.9330 -0.8906 -0.2148
  359MOL0     C47260   2.481   6.325   6.238  0.5385  0.4639  0.2060
  359MOL0     C47261   2.576   6.418   6.277  0.7905 -0.1945 -0.3102
  359MOL0     C47262   2.564   6.496   6.395  1.1522  0.8110  0.1428
  359MOL0     C47263   2.448   6.476   6.478  0.1450  0.6565  0.5443
  359MOL0     O47264   2.420   6.559   6.586  0.2535  0.5502 -0.5174
  359MOL0     C47265   2.518   6.665   6.628 -0.5052 -0.0023  0.1780
  359MOL0     C47266   2.478   6.710   6.766 -0.3177 -0.3455 -0.3788
  359MOL0     C47267   2.570   6.822   6.818  0.1833 -0.4301  0.4903
  359MOL0     C47268   2.502   6.921   6.908 -0.3237  0.6096 -0.6973
  359MOL0     C47269   2.413   7.007   6.823 -0.5348  0.1718  0.8306
  359MOL0     C47270   2.342   7.111   6.909 -0.4191 -0.3545 -0.5620
  359MOL0     C47271   2.236   7.185   6.833 -0.0539 -1.1894 -0.1708
  359MOL0     C47272   2.287   7.280   6.718  0.9463 -0.1161  0.4966
  359MOL0     N47273   2.169   7.334   6.648 -0.5188  0.2124 -0.2211
  359MOL0     C47274   2.161   7.448   6.567 -0.6482  0.2107  0.3269
  359MOL0     C47275   2.034   7.455   6.533  0.5496 -0.4689  0.2150
  359MOL0     C47276   1.972   7.545   6.419 -0.2473 -0.4936 -1.4482
  359MOL0     C47277   1.825   7.598   6.422  0.1369  0.2648 -0.5439
  359MOL0     C47278   1.804   7.734   6.350 -0.5421 -0.3162 -0.7782
  359MOL0     C47279   1.653   7.750   6.317  0.2534  0.5745 -0.4285
  359MOL0     O47280   1.624   7.893   6.303  0.3306  0.4043 -0.0391
  359MOL0     C47281   1.492   7.932   6.309 -1.0650 -0.1154 -0.3744
  359MOL0     C47282   1.374   7.858   6.283 -0.3347  1.4015 -0.5187
  359MOL0     C47283   1.252   7.910   6.299 -1.1622 -0.6513  0.1420
  359MOL0     C47284   1.234   8.038   6.345  0.4097 -0.8001 -0.5116
  359MOL0     C47285   1.091   8.101   6.330  0.0815 -0.1659 -0.0938
  359MOL0     O47286   1.091   8.228   6.349  1.1636 -0.3187 -0.2688
  359MOL0     C47287   0.979   8.306   6.344  0.2983  1.4702 -0.4259
  359MOL0     C47288   0.865   8.281   6.420 -1.0557 -0.0596  0.0088
  359MOL0     C47289   0.753   8.365   6.420 -0.6157 -0.3694 -0.5152
  359MOL0     C47290   0.750   8.475   6.332 -0.1339 -0.9933  0.1697
  359MOL0     O47291   0.658   8.579   6.326 -0.5967 -0.4404 -0.4404
  359MOL0     C47292   0.597   8.623   6.453 -0.2207  0.5285  0.3065
  359MOL0     C47293   0.463   8.543   6.447 -0.2137 -0.1500  0.1616
  359MOL0     C47294   0.372   8.587   6.560  0.5499 -0.0052 -0.0007
  359MOL0     C47295   0.225   8.575   6.538  0.0662  1.6602  1.1307
  359MOL0     C47296   0.175   8.681   6.437  0.9482  0.2041  0.1891
  359MOL0     C47297   0.014   8.677   6.423 -0.4743  0.1427  1.2737
  359MOL0     C47298  -0.032   8.819   6.376  0.7418  0.7057 -0.4365
  359MOL0     C47299  -0.184   8.837   6.363 -0.8404  0.4617 -0.3629
  359MOL0    Cl47300  -0.212   9.000   6.315 -0.2266 -0.0782  0.0977
  359MOL0     C47301   0.863   8.500   6.260 -0.1856  0.1837  0.0205
  359MOL0     C47302   0.976   8.421   6.267 -0.1921  0.4178 -0.3508
  359MOL0     O47303   1.005   8.032   6.296  0.5474  0.8263  0.3250
  359MOL0     C47304   1.348   8.120   6.373 -0.0586  1.5136 -0.0697
  359MOL0     C47305   1.474   8.063   6.363  0.3241  0.8532 -0.0938
  359MOL0     N47306   1.964   7.341   6.572 -0.4098  0.0507  0.2287
  359MOL0     N47307   2.052   7.272   6.636  0.3018 -0.7910  0.7991
  359MOL0     C47308   2.366   6.369   6.444 -0.2685  0.9421 -0.5366
  359MOL0     C47309   2.384   6.289   6.330  0.4322  0.6331 -0.1755
  359MOL0     C47310   2.456   6.229   5.887  0.9487  0.5046  0.2308
  359MOL0     C47311   2.509   6.094   5.891 -0.4005 -0.1534  0.2236
  359MOL0     C47312   2.502   6.016   5.774 -0.0752  0.3096  0.7342
  359MOL0     C47313   2.450   6.081   5.653  0.3228  0.4230  0.4044
  359MOL0     O47314   2.430   6.011   5.536 -0.3103 -0.1033 -0.0813
  359MOL0     C47315   2.411   5.871   5.549  0.1648  0.3540 -0.8307
  359MOL0     C47316   2.349   5.812   5.423 -0.0228 -0.1669  1.0854
  359MOL0     C47317   2.319   5.657   5.444  0.5822 -0.1925  0.2398
  359MOL0     C47318   2.229   5.612   5.330  0.0557  0.0773  0.8182
  359MOL0     C47319   2.093   5.669   5.331 -0.0303  0.0669  0.2734
  359MOL0     C47320   1.990   5.729   5.333  1.0134  0.4450 -0.4509
  359MOL0     C47321   2.411   6.212   5.650 -0.5382 -0.1468 -0.5101
  359MOL0     C47322   2.409   6.287   5.769 -0.2192  0.6355  0.5463
  359MOL0     H47323   2.646   6.460   6.205 -0.6095 -0.1520 -1.6996
  359MOL0     H47324   2.639   6.570   6.421  2.1186  0.0011 -0.2764
  359MOL0     H47325   2.504   6.752   6.563 -2.8417  1.0592  1.9517
  359MOL0     H47326   2.622   6.633   6.627 -0.7320 -0.8202 -1.8021
  359MOL0     H47327   2.478   6.637   6.848  1.3334  0.2874  0.2262
  359MOL0     H47328   2.376   6.743   6.747 -1.9116 -4.6045 -0.3824
  359MOL0     H47329   2.605   6.879   6.731  2.9696  0.9779  2.3782
  359MOL0     H47330   2.659   6.782   6.868  2.4975  1.6775 -1.6682
  359MOL0     H47331   2.434   6.864   6.972  0.5964 -0.5995 -0.7861
  359MOL0     H47332   2.574   6.980   6.966  0.8073  2.0977 -3.4285
  359MOL0     H47333   2.331   6.946   6.783 -0.4561 -0.5479  1.7517
  359MOL0     H47334   2.474   7.065   6.753 -1.3649  1.2771  0.9979
  359MOL0     H47335   2.419   7.183   6.937 -2.1028  1.3310 -0.0147
  359MOL0     H47336   2.298   7.067   6.999  0.0644  1.4439  0.6293
  359MOL0     H47337   2.175   7.109   6.783  0.0958 -0.8152 -0.9342
  359MOL0     H47338   2.164   7.231   6.901 -1.3728 -5.9257  2.0855
  359MOL0     H47339   2.353   7.229   6.648  0.7727  1.4747 -0.8861
  359MOL0     H47340   2.348   7.361   6.761 -0.7893 -0.5686  4.2132
  359MOL0     H47341   2.249   7.504   6.541  1.0338 -2.3045  0.2006
  359MOL0     H47342   1.960   7.479   6.332  3.4512 -0.9602 -1.7459
  359MOL0     H47343   2.044   7.620   6.386  0.0032 -1.0140 -2.1026
  359MOL0     H47344   1.800   7.603   6.529 -1.8071 -2.8853 -0.7089
  359MOL0     H47345   1.774   7.515   6.371  0.0801 -1.3880  1.9958
  359MOL0     H47346   1.828   7.815   6.419  2.5903 -2.5054  0.9317
  359MOL0     H47347   1.870   7.753   6.265  3.5995  2.1923  2.6063
  359MOL0     H47348   1.606   7.716   6.409  1.6704 -0.0239  0.0982
  359MOL0     H47349   1.627   7.712   6.218 -0.1344  2.0504 -0.9313
  359MOL0     H47350   1.381   7.754   6.251 -1.8094  0.3728  2.1508
  359MOL0     H47351   1.171   7.861   6.247 -0.8720  2.0788 -3.2711
  359MOL0     H47352   0.863   8.212   6.503 -1.5923  0.9642  0.8803
  359MOL0     H47353   0.669   8.335   6.481 -0.5348  2.8086  1.4203
  359MOL0     H47354   0.577   8.729   6.466  0.8548  0.7069  0.5548
  359MOL0     H47355   0.662   8.593   6.536  1.9539  0.8931 -1.2040
  359MOL0     H47356   0.488   8.437   6.464  0.0236  0.1987  2.3660
  359MOL0     H47357   0.419   8.548   6.347  0.8317 -1.9572 -0.4400
  359MOL0     H47358   0.398   8.691   6.584  0.0582  0.5607 -1.7803
  359MOL0     H47359   0.397   8.525   6.646  0.1372 -1.0050 -0.5886
  359MOL0     H47360   0.204   8.477   6.493  2.7078  2.0604 -1.3075
  359MOL0     H47361   0.180   8.581   6.637 -1.6989 -0.7646  0.5682
  359MOL0     H47362   0.221   8.673   6.338 -1.1299 -0.8366 -0.7502
  359MOL0     H47363   0.212   8.774   6.483  0.6751  0.6981 -0.5677
  359MOL0     H47364  -0.049   8.646   6.506 -0.8094 -0.2315  0.8836
  359MOL0     H47365  -0.011   8.615   6.337 -0.5392  1.8810 -0.0132
  359MOL0     H47366  -0.009   8.895   6.451 -3.8004  0.6782  1.3155
  359MOL0     H47367   0.003   8.837   6.274  0.0591 -0.6827 -0.9393
  359MOL0     H47368  -0.239   8.823   6.457 -0.5714 -2.1037 -0.5122
  359MOL0     H47369  -0.234   8.766   6.296 -0.6088  1.6504 -1.8402
  359MOL0     H47370   0.870   8.594   6.206 -3.2869  1.1103  0.9860
  359MOL0     H47371   1.067   8.457   6.220  0.3156 -2.2781 -1.6338
  359MOL0     H47372   1.329   8.224   6.395 -5.0994  0.3410  2.4701
  359MOL0     H47373   1.558   8.130   6.375  1.2552 -0.6673  2.6295
  359MOL0     H47374   2.279   6.357   6.508  0.1819  1.6388  0.2265
  359MOL0     H47375   2.319   6.204   6.315 -2.1823  2.3652  0.5292
  359MOL0     H47376   2.550   6.048   5.980 -0.1295  0.7552  0.5816
  359MOL0     H47377   2.538   5.914   5.789  1.1672  0.7743  1.0470
  359MOL0     H47378   2.352   5.852   5.639 -1.5314  2.0525 -1.5200
  359MOL0     H47379   2.509   5.823   5.562 -1.1958 -2.5525 -0.5661
  359MOL0     H47380   2.258   5.868   5.402  0.6716  0.6936  0.2270
  359MOL0     H47381   2.419   5.822   5.339  3.2536  0.3876  3.6592
  359MOL0     H47382   2.268   5.651   5.540  2.7428  1.8683  1.6100
  359MOL0     H47383   2.401   5.587   5.458  0.6037 -0.3668 -0.6945
  359MOL0     H47384   2.285   5.627   5.237 -1.4208 -3.6921 -0.8649
  359MOL0     H47385   2.213   5.505   5.346  0.3695 -0.2864 -1.1060
  359MOL0     H47386   1.898   5.784   5.342  2.3417  2.4624  2.2396
  359MOL0     H47387   2.369   6.239   5.554 -0.7209  0.0202 -0.3854
  359MOL0     H47388   2.350   6.378   5.774 -1.1995  0.2071 -1.8681
  360MOL0     O47389   9.990   6.026   4.680  0.2182  0.3474  0.6754
  360MOL0     C47390  10.001   5.911   4.636  0.5208  0.9601  0.4589
  360MOL0     O47391   9.904   5.807   4.636  0.7813 -0.2700  0.2041
  360MOL0     C47392   9.805   5.791   4.731 -0.7978  0.3122  0.9841
  360MOL0     C47393   9.810   5.860   4.851  0.1667 -1.9302  0.5264
  360MOL0     C47394   9.712   5.834   4.942  0.2411  0.4258 -0.1975
  360MOL0     C47395   9.611   5.741   4.926 -0.8297 -0.6032 -0.2390
  360MOL0     O47396   9.522   5.728   5.026 -0.0117  0.6605  0.3629
  360MOL0     C47397   9.571   5.659   5.137 -0.5570 -0.1450  0.2665
  360MOL0     C47398   9.466   5.571   5.201 -0.3465  0.4913  0.4866
  360MOL0     C47399   9.370   5.658   5.268 -0.4712 -0.2632 -0.2912
  360MOL0     C47400   9.269   5.575   5.361  0.7623  0.4952  1.4516
  360MOL0     C47401   9.117   5.601   5.360 -0.0493  0.3213 -0.2727
  360MOL0     C47402   9.058   5.524   5.471  0.2293  1.1687 -0.5033
  360MOL0     C47403   8.908   5.552   5.489  0.0258 -0.0484 -0.0714
  360MOL0     C47404   8.816   5.497   5.381  0.1667 -0.3723 -0.1446
  360MOL0     N47405   8.687   5.562   5.367 -0.1496  0.0477  0.4430
  360MOL0     C47406   8.588   5.546   5.458  0.5901  0.2445  0.3821
  360MOL0     C47407   8.487   5.632   5.424  0.5727 -0.6027  0.3209
  360MOL0     C47408   8.343   5.624   5.491  0.3285 -1.6507  0.3145
  360MOL0     C47409   8.310   5.477   5.520  1.2578  0.2628  1.5872
  360MOL0     C47410   8.185   5.461   5.595  0.5368 -0.8542  0.2635
  360MOL0     C47411   8.059   5.468   5.513  0.0318 -0.5177  0.1272
  360MOL0     O47412   8.026   5.603   5.479  0.4522  0.2671 -0.2507
  360MOL0     C47413   7.895   5.622   5.459 -0.8156  0.5894 -0.3591
  360MOL0     C47414   7.845   5.740   5.510  0.6610 -0.4459  0.9477
  360MOL0     C47415   7.715   5.781   5.484  0.5759  0.1292 -0.8719
  360MOL0     C47416   7.634   5.702   5.407  0.3878 -0.9792  0.0106
  360MOL0     C47417   7.499   5.745   5.371  0.8258 -0.3683  0.5767
  360MOL0     O47418   7.442   5.668   5.265 -0.6037 -0.2804  0.1053
  360MOL0     C47419   7.311   5.670   5.228  1.1709 -0.6258 -0.3980
  360MOL0     C47420   7.214   5.693   5.328 -0.1026  0.6401 -0.2942
  360MOL0     C47421   7.083   5.688   5.297  0.5373 -0.5508  0.2042
  360MOL0     C47422   7.045   5.666   5.165 -0.6838  0.7296  0.8168
  360MOL0     O47423   6.922   5.670   5.106 -0.3458 -0.2050 -0.9580
  360MOL0     C47424   6.886   5.796   5.055 -0.1950 -0.7854  0.6068
  360MOL0     C47425   6.827   5.878   5.173 -0.0767  0.1763  0.2647
  360MOL0     C47426   6.680   5.865   5.199 -0.1060 -0.6370 -0.7579
  360MOL0     C47427   6.588   5.924   5.084 -0.4018 -0.3574 -0.3399
  360MOL0     C47428   6.441   5.908   5.108 -0.2017  0.8364  0.0131
  360MOL0     C47429   6.393   5.763   5.134  0.2785  0.1158  0.4121
  360MOL0     C47430   6.244   5.750   5.150  0.7207  0.2158 -0.3923
  360MOL0     C47431   6.174   5.834   5.253 -0.0061 -0.2617 -0.0044
  360MOL0    Cl47432   6.210   5.783   5.416  0.0240 -0.1346 -0.1625
  360MOL0     C47433   7.146   5.647   5.066 -0.9684 -0.0761  0.4770
  360MOL0     C47434   7.281   5.659   5.097 -0.2363  0.8647  0.2008
  360MOL0     O47435   7.444   5.840   5.427  0.1354  0.7523  0.0365
  360MOL0     C47436   7.687   5.585   5.353 -0.3704  0.4596  0.0417
  360MOL0     C47437   7.808   5.536   5.388  0.9565  0.4500  0.4576
  360MOL0     N47438   8.531   5.710   5.322  0.2911 -0.6281  0.2178
  360MOL0     N47439   8.655   5.672   5.293  1.0082 -0.7571  0.9803
  360MOL0     C47440   9.610   5.671   4.809 -0.2021  0.1799  0.6433
  360MOL0     C47441   9.709   5.696   4.702 -0.3204 -0.2873  0.2298
  360MOL0     C47442  10.112   5.888   4.538 -0.3316  1.7075 -0.6298
  360MOL0     C47443  10.197   5.995   4.511 -0.0961  0.1816 -0.4344
  360MOL0     C47444  10.312   5.976   4.428  0.8157  1.0281  0.4793
  360MOL0     C47445  10.349   5.843   4.387  0.0525  1.0291 -0.9241
  360MOL0     O47446  10.467   5.825   4.317  0.4722  0.1211 -0.1488
  360MOL0     C47447  10.506   5.696   4.267 -0.0860  0.2571  0.6820
  360MOL0     C47448  10.646   5.700   4.204  0.3871  0.0585 -0.3316
  360MOL0     C47449  10.656   5.754   4.061  0.4700 -0.1268  0.4905
  360MOL0     C47450  10.597   5.893   4.049  0.5934  0.8899 -0.0974
  360MOL0     C47451  10.664   5.971   3.942 -0.9191 -0.5395  0.8638
  360MOL0     C47452  10.746   6.033   3.863  0.1382 -0.0774 -0.4186
  360MOL0     C47453  10.261   5.740   4.411  0.9035 -0.3880  0.6643
  360MOL0     C47454  10.144   5.755   4.486  0.2639 -0.8490 -0.6837
  360MOL0     H47455   9.874   5.948   4.860 -2.4627  0.0040  1.5387
  360MOL0     H47456   9.731   5.882   5.037  4.6571  1.3398 -1.3209
  360MOL0     H47457   9.607   5.727   5.214 -0.4495 -1.2242  1.2016
  360MOL0     H47458   9.661   5.604   5.107 -0.9241 -0.3907 -0.4208
  360MOL0     H47459   9.514   5.514   5.281  0.0594  2.2290  1.5300
  360MOL0     H47460   9.416   5.509   5.126 -0.7872  1.6262 -0.1890
  360MOL0     H47461   9.316   5.717   5.194 -0.1825 -0.9385 -1.0451
  360MOL0     H47462   9.429   5.722   5.335 -1.7848  0.1382  0.5178
  360MOL0     H47463   9.289   5.470   5.337  0.9664  0.3401  2.2741
  360MOL0     H47464   9.297   5.592   5.465  0.6424  0.1568  1.5404
  360MOL0     H47465   9.086   5.568   5.260  2.7275  1.9515 -1.8178
  360MOL0     H47466   9.097   5.707   5.380  1.1055  0.6185 -0.5911
  360MOL0     H47467   9.103   5.555   5.566  1.1608  0.4283 -0.6913
  360MOL0     H47468   9.072   5.416   5.464  1.7583  1.4137 -1.6960
  360MOL0     H47469   8.873   5.510   5.584 -0.1510  0.7242  0.2172
  360MOL0     H47470   8.891   5.660   5.488 -2.4378 -0.3647  0.1763
  360MOL0     H47471   8.795   5.391   5.398  0.2310 -0.0835  2.1483
  360MOL0     H47472   8.869   5.498   5.286  1.5405 -0.9451  0.5874
  360MOL0     H47473   8.586   5.477   5.542  1.9464 -0.0963  0.1667
  360MOL0     H47474   8.272   5.680   5.430  1.4365 -1.5246 -0.9037
  360MOL0     H47475   8.348   5.682   5.584  1.1224  0.3249 -0.8719
  360MOL0     H47476   8.395   5.434   5.574  2.9940 -3.5750 -3.3965
  360MOL0     H47477   8.302   5.421   5.426  0.5281 -0.7618  2.2439
  360MOL0     H47478   8.176   5.358   5.630 -4.9819 -1.9827 -3.1784
  360MOL0     H47479   8.189   5.521   5.686 -0.9036 -1.2726  0.6300
  360MOL0     H47480   7.970   5.422   5.558 -0.2271  1.1174  1.3528
  360MOL0     H47481   8.078   5.419   5.417 -0.3168  3.1680 -1.9902
  360MOL0     H47482   7.911   5.802   5.570  1.1602 -0.5273  0.4878
  360MOL0     H47483   7.676   5.870   5.533 -0.5661 -1.2579  0.9077
  360MOL0     H47484   7.238   5.708   5.433 -1.1295  1.7388 -0.1961
  360MOL0     H47485   7.007   5.709   5.372  1.2740  2.5538  0.2399
  360MOL0     H47486   6.815   5.787   4.972  0.5000 -3.1193  0.2117
  360MOL0     H47487   6.978   5.844   5.019 -0.7030  1.0863  1.6535
  360MOL0     H47488   6.856   5.981   5.153  0.8156 -0.1245 -0.0193
  360MOL0     H47489   6.875   5.841   5.264 -3.0859 -1.3579  1.3615
  360MOL0     H47490   6.679   5.921   5.293  3.4090 -1.5013 -0.0433
  360MOL0     H47491   6.656   5.759   5.208 -2.5588 -0.3313 -2.5943
  360MOL0     H47492   6.609   6.031   5.075  0.2260 -0.3923  0.6108
  360MOL0     H47493   6.612   5.877   4.988  4.8057  1.0123 -0.0086
  360MOL0     H47494   6.392   5.948   5.018 -2.3984  2.6487  1.8618
  360MOL0     H47495   6.400   5.972   5.187 -1.5562 -0.2603  0.2452
  360MOL0     H47496   6.439   5.715   5.221 -0.7398 -1.6483  0.0301
  360MOL0     H47497   6.417   5.715   5.039  0.6537  1.7563 -0.3628
  360MOL0     H47498   6.205   5.780   5.052  1.1828  2.7455  0.1272
  360MOL0     H47499   6.210   5.646   5.159 -1.3555  0.3886 -4.0434
  360MOL0     H47500   6.067   5.822   5.234 -0.0357  2.4886 -2.1827
  360MOL0     H47501   6.184   5.942   5.239 -0.8931 -0.3899 -2.0118
  360MOL0     H47502   7.118   5.622   4.964 -2.8191 -1.2198  1.2172
  360MOL0     H47503   7.355   5.636   5.020  0.3596 -0.8398  1.2287
  360MOL0     H47504   7.628   5.517   5.293  1.1428 -3.1025  2.2775
  360MOL0     H47505   7.853   5.449   5.341  0.5854  0.6858 -0.3385
  360MOL0     H47506   9.539   5.591   4.790 -0.2788 -0.2395  2.5260
  360MOL0     H47507   9.703   5.647   4.606 -2.0080 -1.0151  0.6811
  360MOL0     H47508  10.166   6.094   4.540 -2.7521 -0.2712 -1.4657
  360MOL0     H47509  10.375   6.064   4.428  3.1461 -0.4920 -2.0109
  360MOL0     H47510  10.439   5.658   4.190  1.8145  1.6307 -1.7726
  360MOL0     H47511  10.519   5.621   4.346  0.3204 -2.3893 -1.7368
  360MOL0     H47512  10.717   5.769   4.251  0.2716  3.2300 -4.2866
  360MOL0     H47513  10.695   5.602   4.202 -1.5659 -0.9711 -0.3269
  360MOL0     H47514  10.597   5.688   3.997 -0.3118 -4.9723  5.4572
  360MOL0     H47515  10.763   5.751   4.038  0.3755 -2.5183  0.0944
  360MOL0     H47516  10.490   5.885   4.028  1.1764 -1.0325 -2.8301
  360MOL0     H47517  10.619   5.957   4.135  1.0617  1.8060 -0.8686
  360MOL0     H47518  10.814   6.087   3.800 -1.7325  1.1545 -1.4682
  360MOL0     H47519  10.277   5.641   4.370 -1.6345 -1.4244  1.9546
  360MOL0     H47520  10.089   5.663   4.499  1.6712 -1.6815 -0.4079
  361MOL0     O47521   2.434   9.461   4.210  0.0933  1.0016 -0.3767
  361MOL0     C47522   2.423   9.403   4.100  0.0680 -0.5612 -0.1498
  361MOL0     O47523   2.311   9.401   4.022 -0.2903  0.1478  0.0740
  361MOL0     C47524   2.197   9.469   4.050 -0.5410  0.3128 -0.1093
  361MOL0     C47525   2.196   9.606   4.075  0.0167 -0.0530  0.7271
  361MOL0     C47526   2.075   9.674   4.097  0.0402  0.4174 -0.3775
  361MOL0     C47527   1.958   9.614   4.088  0.1817  1.0751 -0.7948
  361MOL0     O47528   1.849   9.695   4.123 -0.9974 -0.0928  0.1030
  361MOL0     C47529   1.721   9.635   4.148  0.5261 -0.1563 -0.4361
  361MOL0     C47530   1.611   9.740   4.144  0.1965 -0.2357  0.2334
  361MOL0     C47531   1.473   9.660   4.144 -0.2482 -0.5909 -0.1895
  361MOL0     C47532   1.359   9.763   4.156  0.2239 -0.7180  0.2297
  361MOL0     C47533   1.219   9.702   4.141  0.1037  0.0612  0.9072
  361MOL0     C47534   1.120   9.809   4.124  0.4904 -0.0613 -0.5520
  361MOL0     C47535   0.976   9.746   4.108  0.0935 -0.9327  0.4770
  361MOL0     C47536   0.868   9.854   4.117  0.4398  0.5672 -0.8516
  361MOL0     N47537   0.735   9.801   4.069  1.0533 -0.2195  0.4714
  361MOL0     C47538   0.629   9.769   4.150 -0.5254 -0.5133 -0.3752
  361MOL0     C47539   0.538   9.710   4.068 -0.2894  0.6610  0.0645
  361MOL0     C47540   0.395   9.671   4.104  0.5472 -1.1998  0.2053
  361MOL0     C47541   0.376   9.525   4.056 -0.7154  0.5847  0.5738
  361MOL0     C47542   0.231   9.477   4.090  0.0875  0.6121 -0.2348
  361MOL0     C47543   0.218   9.340   4.032 -0.0855 -0.6705  0.2310
  361MOL0     O47544   0.081   9.301   4.054  0.8864  0.2111 -0.3672
  361MOL0     C47545   0.034   9.200   3.977  0.1506  0.3162 -0.3798
  361MOL0     C47546   0.121   9.129   3.890  0.6509 -0.1513  0.1902
  361MOL0     C47547   0.063   9.025   3.815  0.3798 -0.1804  0.3013
  361MOL0     C47548  -0.070   8.987   3.837 -0.6382 -0.9039  0.4823
  361MOL0     C47549  -0.131   8.896   3.738 -0.2616  0.6818  0.6009
  361MOL0     O47550  -0.109   8.916   3.601 -0.2513  0.1306 -0.0667
  361MOL0     C47551  -0.160   8.810   3.532 -0.8953 -0.2035  0.0612
  361MOL0     C47552  -0.078   8.731   3.448  0.2627  0.5542 -0.9229
  361MOL0     C47553  -0.127   8.624   3.369  0.3758 -0.2813 -0.4757
  361MOL0     C47554  -0.265   8.589   3.382 -0.8086 -0.1756 -0.0245
  361MOL0     O47555  -0.305   8.477   3.317 -0.5089 -0.4054  0.1667
  361MOL0     C47556  -0.409   8.405   3.379 -0.0486  0.4057  0.4624
  361MOL0     C47557  -0.418   8.270   3.309 -0.3985 -0.6083 -0.2619
  361MOL0     C47558  -0.507   8.278   3.181  0.1915 -0.8490 -0.1739
  361MOL0     C47559  -0.532   8.140   3.129  0.3480 -0.4756 -0.5921
  361MOL0     C47560  -0.626   8.133   3.013  0.5154 -0.0644 -0.5899
  361MOL0     C47561  -0.614   8.007   2.934 -0.3864 -0.5857  0.1281
  361MOL0     C47562  -0.690   8.010   2.802  0.0434 -0.9359  0.9802
  361MOL0     C47563  -0.685   7.867   2.736  0.3029  0.0989 -0.0915
  361MOL0    Cl47564  -0.517   7.802   2.692  0.1696 -0.4707  0.2528
  361MOL0     C47565  -0.350   8.668   3.450  1.3070  0.7800 -0.8273
  361MOL0     C47566  -0.299   8.777   3.525  0.4402  0.8589 -0.0688
  361MOL0     O47567  -0.197   8.806   3.796 -0.4005  0.5212 -0.2402
  361MOL0     C47568  -0.145   9.045   3.935  1.0591 -0.4824 -0.0326
  361MOL0     C47569  -0.089   9.152   4.011  0.3900  0.1458 -0.3238
  361MOL0     N47570   0.589   9.707   3.940 -0.4241  0.2705  0.1808
  361MOL0     N47571   0.704   9.761   3.945 -0.1462 -0.0592  0.8221
  361MOL0     C47572   1.951   9.473   4.066 -0.2157 -0.0009  0.6433
  361MOL0     C47573   2.072   9.406   4.055 -0.1196  0.2096  0.9798
  361MOL0     C47574   2.555   9.348   4.043 -0.1099 -0.0999 -0.4508
  361MOL0     C47575   2.673   9.358   4.118 -0.3079  0.7239 -0.3739
  361MOL0     C47576   2.787   9.300   4.072 -0.7695  0.3356 -0.0555
  361MOL0     C47577   2.789   9.236   3.947 -0.2981  0.6679  0.4614
  361MOL0     O47578   2.902   9.176   3.896 -0.6433 -0.4567 -0.1519
  361MOL0     C47579   3.016   9.159   3.978 -0.1730 -0.1089 -0.6804
  361MOL0     C47580   3.110   9.066   3.906 -0.6401 -0.0197  0.2987
  361MOL0     C47581   3.200   9.142   3.796  0.1136 -0.5559 -0.9700
  361MOL0     C47582   3.286   9.048   3.709 -0.3076  0.0514 -0.4098
  361MOL0     C47583   3.378   8.963   3.774 -0.2678  0.2706 -0.1971
  361MOL0     C47584   3.446   8.877   3.834 -0.0336 -0.0753  0.6416
  361MOL0     C47585   2.679   9.236   3.864 -0.5242 -0.5086  0.1734
  361MOL0     C47586   2.565   9.288   3.919  0.2694  0.5266 -0.3250
  361MOL0     H47587   2.288   9.663   4.085 -0.2810  0.5467  0.1446
  361MOL0     H47588   2.068   9.782   4.110  1.6684  0.2714  2.4907
  361MOL0     H47589   1.737   9.600   4.250  1.7476  0.0832 -0.5295
  361MOL0     H47590   1.693   9.553   4.083 -2.5857 -3.0259  3.9684
  361MOL0     H47591   1.613   9.813   4.063  0.0333 -1.0745 -0.5486
  361MOL0     H47592   1.603   9.786   4.243 -1.4641  2.4691 -1.0384
  361MOL0     H47593   1.473   9.596   4.233 -2.2976 -1.7975 -0.9881
  361MOL0     H47594   1.460   9.592   4.060  0.2076  1.4880 -2.0183
  361MOL0     H47595   1.367   9.806   4.256 -1.4563  2.3955 -0.8553
  361MOL0     H47596   1.376   9.840   4.081  1.6140 -0.6946  0.5436
  361MOL0     H47597   1.205   9.640   4.230 -0.4357  0.9403  1.4532
  361MOL0     H47598   1.213   9.636   4.055  1.0387  2.2353 -0.9166
  361MOL0     H47599   1.156   9.875   4.045  2.7198  0.9981  1.2242
  361MOL0     H47600   1.122   9.872   4.214  1.7182  2.1230 -2.0085
  361MOL0     H47601   0.964   9.686   4.017  1.2468 -0.7909  0.2117
  361MOL0     H47602   0.962   9.675   4.190 -0.4704  0.5512  1.7180
  361MOL0     H47603   0.896   9.945   4.062 -0.0603  2.0663  1.2308
  361MOL0     H47604   0.860   9.881   4.223  1.4583 -2.1002 -0.0080
  361MOL0     H47605   0.624   9.779   4.258 -2.0411 -1.0278 -0.3606
  361MOL0     H47606   0.324   9.741   4.060  3.4540  0.2763 -2.5730
  361MOL0     H47607   0.378   9.675   4.212  0.5707  1.9971  0.1812
  361MOL0     H47608   0.455   9.461   4.097 -0.9543  0.5403  0.9766
  361MOL0     H47609   0.388   9.521   3.948 -0.5318  0.6502  0.5914
  361MOL0     H47610   0.215   9.460   4.197 -4.4778 -0.4230 -0.8409
  361MOL0     H47611   0.155   9.545   4.049 -0.9741  1.0953  2.3232
  361MOL0     H47612   0.291   9.271   4.076 -0.1791 -1.2754 -0.5303
  361MOL0     H47613   0.228   9.348   3.924 -0.5760 -1.6353  0.0974
  361MOL0     H47614   0.220   9.165   3.861 -0.5739  2.3571 -1.1915
  361MOL0     H47615   0.119   8.994   3.727  2.0769  0.9882  0.9165
  361MOL0     H47616   0.028   8.751   3.437  0.4431  0.9917  1.2197
  361MOL0     H47617  -0.056   8.561   3.315  3.8235  2.2896  0.6442
  361MOL0     H47618  -0.504   8.460   3.374 -0.7917 -0.8843 -0.2005
  361MOL0     H47619  -0.390   8.383   3.485  0.3150  2.5650  0.8964
  361MOL0     H47620  -0.463   8.197   3.377  2.5977 -2.6783 -0.2800
  361MOL0     H47621  -0.316   8.231   3.301 -0.9359 -2.3222  0.6246
  361MOL0     H47622  -0.451   8.334   3.106  2.8979 -0.1578  2.1697
  361MOL0     H47623  -0.601   8.323   3.212  2.8158  4.5931  1.1440
  361MOL0     H47624  -0.434   8.107   3.094  1.1540  1.6229 -0.4629
  361MOL0     H47625  -0.579   8.082   3.209 -4.1209  1.0902 -1.8095
  361MOL0     H47626  -0.614   8.221   2.949 -0.4102  0.5194  0.0193
  361MOL0     H47627  -0.729   8.136   3.049  0.0117  2.5281 -2.0188
  361MOL0     H47628  -0.656   7.924   2.993 -0.2870 -0.7250  0.0034
  361MOL0     H47629  -0.507   7.997   2.916  0.2165 -2.2182  3.6631
  361MOL0     H47630  -0.796   8.032   2.814  0.4315  1.9623 -0.0693
  361MOL0     H47631  -0.641   8.075   2.729  2.1175 -2.0583  1.2973
  361MOL0     H47632  -0.736   7.875   2.640 -0.7431  1.2383  0.5234
  361MOL0     H47633  -0.736   7.796   2.802  1.8709 -0.1575  0.8983
  361MOL0     H47634  -0.457   8.650   3.448  1.6633 -2.1722  1.3381
  361MOL0     H47635  -0.373   8.834   3.580 -0.9377 -1.4713  0.6133
  361MOL0     H47636  -0.245   9.017   3.965  0.2042  1.1799 -1.1647
  361MOL0     H47637  -0.146   9.200   4.090  1.2232  4.1803 -1.9064
  361MOL0     H47638   1.851   9.433   4.057 -1.6577  2.7426  2.7578
  361MOL0     H47639   2.056   9.300   4.036 -3.1862  0.8538 -0.6050
  361MOL0     H47640   2.676   9.397   4.219  0.0306 -0.1516 -0.0372
  361MOL0     H47641   2.877   9.310   4.130 -1.1977  1.4636  0.4396
  361MOL0     H47642   2.968   9.107   4.061 -4.7202  0.3793 -2.7078
  361MOL0     H47643   3.062   9.256   3.999  0.1301  0.0986 -2.1730
  361MOL0     H47644   3.181   9.017   3.973  1.1254  1.7772 -0.1627
  361MOL0     H47645   3.056   8.982   3.860 -0.1049 -1.4545  2.1670
  361MOL0     H47646   3.270   9.207   3.848 -1.0575  0.5342 -0.6969
  361MOL0     H47647   3.137   9.204   3.731  0.5767  1.3329  0.3029
  361MOL0     H47648   3.233   8.987   3.635 -0.1685  1.2114 -1.4939
  361MOL0     H47649   3.347   9.119   3.653 -1.2143  0.5981 -0.7211
  361MOL0     H47650   3.504   8.803   3.885  1.1150  1.0966  1.1046
  361MOL0     H47651   2.679   9.174   3.776  0.2233 -4.6266  2.8037
  361MOL0     H47652   2.478   9.288   3.854  0.1953  1.6329 -0.2506
  362MOL0     O47653  10.410   4.126   7.201 -0.1489  0.4646  0.3439
  362MOL0     C47654  10.463   4.022   7.238 -0.6567  0.9412  0.7596
  362MOL0     O47655  10.399   3.922   7.312  0.0994 -0.0307 -0.3366
  362MOL0     C47656  10.262   3.927   7.311  0.6291 -1.7687  0.0359
  362MOL0     C47657  10.202   3.808   7.290  0.5026 -0.2894  0.4788
  362MOL0     C47658  10.062   3.784   7.303  0.2893  0.4138  0.2889
  362MOL0     C47659   9.976   3.886   7.351  0.1770 -0.2485  0.4293
  362MOL0     O47660   9.831   3.883   7.349 -0.9079 -0.2585 -0.1580
  362MOL0     C47661   9.768   3.757   7.345  0.2332 -0.2102 -0.5156
  362MOL0     C47662   9.619   3.777   7.340  1.0786  0.6749 -0.0437
  362MOL0     C47663   9.560   3.848   7.453 -0.1473 -0.8777  0.0514
  362MOL0     C47664   9.412   3.833   7.479 -0.1482  0.3142  1.0074
  362MOL0     C47665   9.329   3.876   7.357  0.2379 -0.3569  0.4563
  362MOL0     C47666   9.187   3.895   7.404  0.0951  0.5048  0.2453
  362MOL0     C47667   9.085   3.907   7.291 -0.1080  1.0724 -0.1892
  362MOL0     C47668   9.077   4.041   7.219  0.8032  0.7293  0.6328
  362MOL0     N47669   8.971   4.048   7.122  0.0382 -0.0172  0.8972
  362MOL0     C47670   8.839   4.052   7.132 -0.2737 -0.2537  0.6922
  362MOL0     C47671   8.787   4.068   7.009  0.8155 -0.2853 -0.1221
  362MOL0     C47672   8.636   4.101   6.982  0.5400  0.0985  0.4003
  362MOL0     C47673   8.557   3.976   6.933 -1.1843  0.0849 -0.6529
  362MOL0     C47674   8.586   3.862   7.024 -0.4899 -0.6174 -0.1346
  362MOL0     C47675   8.484   3.745   7.017 -0.3540  0.3146  0.5153
  362MOL0     O47676   8.355   3.778   7.062 -0.4079 -0.5995  0.2509
  362MOL0     C47677   8.250   3.733   6.993  0.6124  0.0078  0.4066
  362MOL0     C47678   8.149   3.833   6.975  0.1352  0.0835  0.5984
  362MOL0     C47679   8.032   3.796   6.909  0.1910 -0.2363  0.4682
  362MOL0     C47680   8.014   3.664   6.844 -0.4003 -0.1753 -0.2625
  362MOL0     C47681   7.880   3.619   6.785 -0.5589  0.3780  0.2319
  362MOL0     O47682   7.879   3.579   6.651  0.2916  0.1026  0.0539
  362MOL0     C47683   7.757   3.539   6.590 -0.1226  0.7840 -0.0014
  362MOL0     C47684   7.689   3.416   6.625  0.0289  0.2284  0.9343
  362MOL0     C47685   7.570   3.383   6.556  0.7381  0.8928 -0.2676
  362MOL0     C47686   7.514   3.474   6.458 -0.1046 -0.2003  0.4839
  362MOL0     O47687   7.403   3.437   6.384 -0.8513 -0.1632 -0.1456
  362MOL0     C47688   7.283   3.413   6.450 -0.2692  1.0971 -0.4196
  362MOL0     C47689   7.154   3.450   6.369 -0.1550  0.3559 -0.5359
  362MOL0     C47690   7.136   3.359   6.242 -0.0321  0.6206 -0.2079
  362MOL0     C47691   7.003   3.382   6.187  0.5504 -0.5496 -0.1239
  362MOL0     C47692   6.956   3.258   6.113  0.6027  0.8721  0.7941
  362MOL0     C47693   7.018   3.220   5.983 -0.0375  0.1220  0.2402
  362MOL0     C47694   6.990   3.320   5.863  0.4472 -1.2891  0.2250
  362MOL0     C47695   6.846   3.295   5.800 -0.0989 -0.5944 -0.0187
  362MOL0    Cl47696   6.843   3.158   5.697  0.1886  0.6859  0.5679
  362MOL0     C47697   7.591   3.588   6.422 -0.0804  0.0130  0.7827
  362MOL0     C47698   7.715   3.615   6.481 -0.2560  0.3674 -0.8685
  362MOL0     O47699   7.782   3.610   6.863 -0.1193 -0.0293 -0.4556
  362MOL0     C47700   8.116   3.570   6.871  0.1343  0.3893  0.5456
  362MOL0     C47701   8.229   3.606   6.942 -1.0363 -0.6703 -0.0078
  362MOL0     N47702   8.887   4.054   6.921  0.0903  1.0670  0.3290
  362MOL0     N47703   9.001   4.031   6.984 -0.5403 -0.1208 -0.2628
  362MOL0     C47704  10.038   4.014   7.361  0.0806  0.4774 -1.1017
  362MOL0     C47705  10.173   4.038   7.338 -0.5266 -0.7040  0.0660
  362MOL0     C47706  10.605   4.003   7.208 -0.0637  0.0109  0.0454
  362MOL0     C47707  10.664   4.056   7.093 -0.0566 -0.2054  0.5665
  362MOL0     C47708  10.798   4.020   7.061  0.4405  0.6973 -0.3005
  362MOL0     C47709  10.873   3.942   7.141 -0.5982 -0.9938  0.3755
  362MOL0     O47710  10.998   3.909   7.107  0.1751  0.3187 -0.8964
  362MOL0     C47711  11.069   3.810   7.176 -0.8792  0.2431 -0.3556
  362MOL0     C47712  11.194   3.772   7.098  0.0295 -0.2513 -0.5360
  362MOL0     C47713  11.292   3.892   7.073  0.2170 -0.8276 -0.4941
  362MOL0     C47714  11.326   3.984   7.197 -0.1850  0.6831 -0.5006
  362MOL0     C47715  11.383   3.904   7.310 -0.0467  0.0074  0.4128
  362MOL0     C47716  11.423   3.849   7.417  0.0751  0.4011  0.6802
  362MOL0     C47717  10.809   3.894   7.262 -0.5445 -0.1128  0.0672
  362MOL0     C47718  10.678   3.920   7.289  0.4805 -0.6916 -0.1597
  362MOL0     H47719  10.266   3.720   7.289  2.0572  0.8038 -0.5498
  362MOL0     H47720  10.020   3.686   7.283 -2.2402  1.2767  0.9300
  362MOL0     H47721   9.778   3.705   7.441  0.1707 -0.8711 -0.8568
  362MOL0     H47722   9.805   3.696   7.262 -1.0538  0.6123 -1.7463
  362MOL0     H47723   9.571   3.679   7.340  1.4955  0.4348 -1.9768
  362MOL0     H47724   9.587   3.814   7.243 -0.6907  2.8691  1.2850
  362MOL0     H47725   9.582   3.955   7.445 -0.2285 -1.0194 -5.0068
  362MOL0     H47726   9.594   3.809   7.550 -2.6653  1.0579  1.8373
  362MOL0     H47727   9.394   3.725   7.487  0.2624  0.1335 -0.2685
  362MOL0     H47728   9.381   3.883   7.571 -0.9150 -1.8348  1.9868
  362MOL0     H47729   9.336   3.793   7.285  1.0079  0.3185 -0.2645
  362MOL0     H47730   9.378   3.967   7.321  0.0516 -0.9858 -1.5270
  362MOL0     H47731   9.185   3.988   7.461  0.2270  0.2898  0.5994
  362MOL0     H47732   9.163   3.806   7.463  1.6538 -2.6096 -3.3615
  362MOL0     H47733   9.090   3.816   7.230  2.1512 -0.8255  2.5331
  362MOL0     H47734   8.990   3.894   7.344  0.2695  1.2366  0.5400
  362MOL0     H47735   9.169   4.075   7.170  1.6903  0.1862  1.8839
  362MOL0     H47736   9.049   4.126   7.281  0.1887  0.6459  0.4781
  362MOL0     H47737   8.800   4.063   7.233 -0.4288  2.0366  0.4245
  362MOL0     H47738   8.627   4.174   6.901  1.7197 -1.6516 -1.4072
  362MOL0     H47739   8.581   4.146   7.065 -3.8980 -1.2609 -1.4958
  362MOL0     H47740   8.600   3.939   6.839 -1.4210  0.6881 -1.0064
  362MOL0     H47741   8.455   4.006   6.907 -0.9581  1.8311  0.3151
  362MOL0     H47742   8.687   3.827   7.002 -0.6110 -0.7859 -0.4241
  362MOL0     H47743   8.597   3.899   7.126 -0.2341  0.4706 -0.5430
  362MOL0     H47744   8.527   3.663   7.075 -2.1751 -1.3130 -0.3065
  362MOL0     H47745   8.484   3.706   6.914 -5.3878 -0.8862  0.7011
  362MOL0     H47746   8.168   3.936   7.004  1.4453  1.6024 -4.5183
  362MOL0     H47747   7.957   3.874   6.923  2.9285  2.6114  0.3182
  362MOL0     H47748   7.734   3.347   6.694 -0.5866 -0.4540  0.6663
  362MOL0     H47749   7.544   3.278   6.570 -2.8423  1.8595  1.4323
  362MOL0     H47750   7.279   3.477   6.539 -1.9383  2.0380 -1.1218
  362MOL0     H47751   7.288   3.304   6.461  1.8251  1.1025 -0.8756
  362MOL0     H47752   7.169   3.555   6.342  0.3492  1.0915  2.2420
  362MOL0     H47753   7.067   3.447   6.435  0.2547  0.5305  0.0291
  362MOL0     H47754   7.145   3.259   6.284 -1.4291  0.2800 -0.6702
  362MOL0     H47755   7.221   3.377   6.177 -0.5742 -1.8013 -1.7125
  362MOL0     H47756   6.926   3.388   6.264 -0.9049 -1.6879 -1.4157
  362MOL0     H47757   7.000   3.467   6.118  2.5483 -2.0545 -2.2155
  362MOL0     H47758   6.851   3.268   6.084  0.8491 -2.3206 -1.6379
  362MOL0     H47759   6.959   3.176   6.186  2.9146  1.3229  1.2913
  362MOL0     H47760   6.982   3.125   5.942  0.5289  0.2729 -0.6317
  362MOL0     H47761   7.125   3.216   6.003  0.8512 -4.3848 -3.5641
  362MOL0     H47762   7.016   3.426   5.876 -1.0855 -0.7810 -0.5841
  362MOL0     H47763   7.058   3.293   5.782  0.6470  0.6053 -0.2931
  362MOL0     H47764   6.818   3.384   5.743 -1.4961 -0.5402  0.7127
  362MOL0     H47765   6.765   3.277   5.871 -1.7382 -0.1182 -1.6871
  362MOL0     H47766   7.554   3.649   6.341  0.1137  1.0565  1.4609
  362MOL0     H47767   7.772   3.697   6.438  2.9509 -1.5586 -0.6087
  362MOL0     H47768   8.115   3.469   6.829 -0.6008  0.9156 -0.7664
  362MOL0     H47769   8.309   3.533   6.933 -0.1196  0.5397 -5.6752
  362MOL0     H47770   9.978   4.098   7.393  1.3103  1.5807 -1.5650
  362MOL0     H47771  10.221   4.135   7.340  0.1352 -0.9904 -0.9041
  362MOL0     H47772  10.618   4.120   7.018  0.1953 -1.6729 -0.8901
  362MOL0     H47773  10.828   4.064   6.967  1.0704 -2.1136 -1.4929
  362MOL0     H47774  11.008   3.720   7.186  2.1454 -2.2720 -2.4991
  362MOL0     H47775  11.101   3.839   7.277  3.9216 -3.1085 -0.5668
  362MOL0     H47776  11.243   3.691   7.153 -1.2791  1.2007  3.0947
  362MOL0     H47777  11.179   3.730   6.999 -0.3405 -1.8988  0.1860
  362MOL0     H47778  11.235   3.944   6.995 -1.7061 -1.4717  0.4049
  362MOL0     H47779  11.386   3.848   7.040  1.5597 -0.1705  2.1856
  362MOL0     H47780  11.401   4.060   7.171  2.1959 -0.7226  1.7665
  362MOL0     H47781  11.234   4.031   7.232 -0.1127  0.2018  0.3545
  362MOL0     H47782  11.459   3.801   7.505 -1.8822 -1.8145  0.3700
  362MOL0     H47783  10.870   3.825   7.321  0.4854  2.3629  2.1112
  362MOL0     H47784  10.643   3.882   7.385 -0.3259  0.6530  0.1165
  363MOL0     O47785   0.965   6.322   4.144 -0.1412  0.6250 -0.2897
  363MOL0     C47786   0.981   6.209   4.105  0.2859 -0.4800 -0.0677
  363MOL0     O47787   1.100   6.159   4.051  0.0170  0.4166 -0.5408
  363MOL0     C47788   1.215   6.234   4.030  0.0295  0.2287  0.1202
  363MOL0     C47789   1.251   6.360   4.082  0.7777 -0.3357 -0.0481
  363MOL0     C47790   1.364   6.420   4.046 -0.2097 -0.8674 -0.2269
  363MOL0     C47791   1.462   6.359   3.962  1.1039 -0.2540  0.1814
  363MOL0     O47792   1.580   6.425   3.953  0.2711 -0.9490 -0.2969
  363MOL0     C47793   1.677   6.374   3.857 -0.8310  0.3372 -0.5156
  363MOL0     C47794   1.799   6.457   3.871 -0.0637 -0.3239 -0.0342
  363MOL0     C47795   1.913   6.424   3.779 -0.3761  0.0557  0.2649
  363MOL0     C47796   2.004   6.315   3.833  0.0749  0.2843  0.0988
  363MOL0     C47797   2.109   6.272   3.728  0.1216 -1.0570  1.0566
  363MOL0     C47798   2.229   6.370   3.705  0.5350 -0.0911  0.7963
  363MOL0     C47799   2.330   6.337   3.603  0.4763  0.3199  1.2123
  363MOL0     C47800   2.458   6.423   3.592  0.3436  0.2511  1.4487
  363MOL0     N47801   2.535   6.400   3.471  0.0286 -0.1354  0.1664
  363MOL0     C47802   2.496   6.426   3.335 -0.2461 -0.4286 -0.1697
  363MOL0     C47803   2.583   6.363   3.258 -0.0560 -0.1429  0.3198
  363MOL0     C47804   2.600   6.396   3.112 -0.0866 -0.5809  0.2831
  363MOL0     C47805   2.715   6.493   3.083  0.0421 -0.4053  0.0991
  363MOL0     C47806   2.711   6.553   2.945 -0.0158  0.0776 -0.3563
  363MOL0     C47807   2.838   6.526   2.861  0.0832 -0.0351 -0.0547
  363MOL0     O47808   2.945   6.615   2.915 -0.5825 -1.2918  0.7084
  363MOL0     C47809   3.040   6.659   2.823  0.5599  0.5795  0.5537
  363MOL0     C47810   3.176   6.630   2.849  0.3639  0.2122 -0.2181
  363MOL0     C47811   3.274   6.655   2.752  0.4940 -0.3190  0.7469
  363MOL0     C47812   3.240   6.731   2.632 -0.8281 -0.3337 -0.1055
  363MOL0     C47813   3.336   6.782   2.535  0.5081 -0.3316 -0.3643
  363MOL0     O47814   3.293   6.817   2.411  0.4948 -0.5631  0.0829
  363MOL0     C47815   3.376   6.853   2.306  0.2424 -0.0211  1.0512
  363MOL0     C47816   3.338   6.826   2.176 -0.1565  0.4365  0.0332
  363MOL0     C47817   3.418   6.862   2.067 -0.3900 -1.3404  0.5089
  363MOL0     C47818   3.550   6.909   2.085 -0.5200  0.6474  0.1990
  363MOL0     O47819   3.638   6.922   1.985 -0.1358  0.2481  0.1851
  363MOL0     C47820   3.782   6.879   1.995  0.6320  0.2806  0.2568
  363MOL0     C47821   3.851   6.881   1.850  0.5098  0.8416 -1.0362
  363MOL0     C47822   3.880   7.026   1.809  0.3251 -0.2156  0.4920
  363MOL0     C47823   3.947   7.022   1.671  0.5547  0.2585  0.0852
  363MOL0     C47824   3.971   7.166   1.618  0.3373 -0.7613 -0.0006
  363MOL0     C47825   4.100   7.196   1.543  0.4786  0.0360  0.4539
  363MOL0     C47826   4.107   7.342   1.497 -0.9086  0.7416 -0.4494
  363MOL0     C47827   4.001   7.379   1.396  0.2159 -0.6212  0.1371
  363MOL0    Cl47828   4.065   7.524   1.298  0.2211  0.4756  0.0002
  363MOL0     C47829   3.588   6.933   2.212 -0.4600 -0.1233 -0.5252
  363MOL0     C47830   3.494   6.910   2.312 -0.0798  0.0427 -0.5146
  363MOL0     O47831   3.451   6.763   2.556 -0.2284 -0.2225 -1.0352
  363MOL0     C47832   3.104   6.761   2.616 -0.3386 -1.1776 -0.3265
  363MOL0     C47833   3.002   6.730   2.708  0.8051  1.1854  1.0892
  363MOL0     N47834   2.675   6.303   3.342  0.6013 -0.3429 -0.1996
  363MOL0     N47835   2.644   6.327   3.463 -0.3615 -0.2384 -0.8027
  363MOL0     C47836   1.436   6.229   3.915 -0.4937 -0.6015 -0.3230
  363MOL0     C47837   1.311   6.170   3.945 -0.1572  0.5046 -0.0220
  363MOL0     C47838   0.857   6.125   4.104  0.2305 -0.0543  0.1527
  363MOL0     C47839   0.873   5.996   4.056 -0.1029  0.3949  0.3768
  363MOL0     C47840   0.758   5.922   4.034 -0.3938  0.5544  0.1309
  363MOL0     C47841   0.635   5.969   4.064  0.3087  0.2276 -0.2760
  363MOL0     O47842   0.514   5.903   4.064 -0.5073 -0.6190 -0.3261
  363MOL0     C47843   0.506   5.775   3.984  0.7170 -0.0750 -0.7412
  363MOL0     C47844   0.364   5.735   4.015  1.0183  0.7752 -0.3155
  363MOL0     C47845   0.256   5.792   3.925 -0.8340  0.0095  0.2095
  363MOL0     C47846   0.260   5.739   3.780  1.0865  0.0984  0.8901
  363MOL0     C47847   0.130   5.735   3.719 -0.1891  0.0106 -0.1896
  363MOL0     C47848   0.014   5.741   3.675  0.2890 -0.0729  0.5056
  363MOL0     C47849   0.618   6.095   4.125 -0.7835 -0.0892 -0.0900
  363MOL0     C47850   0.732   6.179   4.125  0.5896 -0.2967 -0.3928
  363MOL0     H47851   1.197   6.413   4.160 -0.0498 -2.9297  1.2582
  363MOL0     H47852   1.398   6.514   4.087  0.4865 -1.8865  1.6184
  363MOL0     H47853   1.650   6.378   3.751 -1.5682 -2.7239 -0.5209
  363MOL0     H47854   1.705   6.272   3.883  0.1414  0.3083 -1.6268
  363MOL0     H47855   1.821   6.447   3.977 -4.5127 -0.7381  1.0302
  363MOL0     H47856   1.767   6.562   3.870 -0.0878 -0.2898  1.5380
  363MOL0     H47857   1.977   6.513   3.786  2.2863 -1.8070  1.6923
  363MOL0     H47858   1.891   6.395   3.675 -1.2698 -0.1344  0.5027
  363MOL0     H47859   2.048   6.343   3.929 -2.4049 -3.8314  2.7648
  363MOL0     H47860   1.933   6.234   3.855  1.5561 -0.5278  2.0946
  363MOL0     H47861   2.073   6.271   3.624  2.6663  0.7864  0.0789
  363MOL0     H47862   2.146   6.172   3.751  0.6606 -0.9245  0.7753
  363MOL0     H47863   2.266   6.397   3.804 -4.4471  5.0721  1.8313
  363MOL0     H47864   2.180   6.462   3.670 -1.6384 -1.6805 -0.5556
  363MOL0     H47865   2.371   6.238   3.625  1.3083  1.2177  4.1024
  363MOL0     H47866   2.284   6.329   3.504  0.8166 -0.2576  1.0959
  363MOL0     H47867   2.528   6.420   3.675  3.3810  1.1399 -0.8883
  363MOL0     H47868   2.431   6.529   3.593  0.2593  0.3475 -1.6538
  363MOL0     H47869   2.421   6.502   3.315  1.3468  0.7307 -2.1219
  363MOL0     H47870   2.506   6.435   3.072  1.0046  0.6420 -1.2325
  363MOL0     H47871   2.620   6.296   3.072 -3.1669 -1.0179 -0.3944
  363MOL0     H47872   2.801   6.431   3.109 -0.4295 -1.1516 -0.0913
  363MOL0     H47873   2.728   6.578   3.151 -1.8605  1.6974 -1.9752
  363MOL0     H47874   2.626   6.521   2.884 -0.3968 -4.3793  2.0716
  363MOL0     H47875   2.703   6.662   2.943 -1.2414 -0.0026 -1.8855
  363MOL0     H47876   2.834   6.554   2.755  0.8976 -2.1116 -0.6951
  363MOL0     H47877   2.855   6.418   2.866  1.4144 -0.0489 -2.7866
  363MOL0     H47878   3.205   6.568   2.933  1.6701 -2.0822 -2.2214
  363MOL0     H47879   3.372   6.614   2.769 -0.2375 -1.0965  3.5520
  363MOL0     H47880   3.245   6.770   2.170  0.7326 -0.9270 -2.3997
  363MOL0     H47881   3.382   6.850   1.965  0.1242 -1.3443  0.3255
  363MOL0     H47882   3.790   6.778   2.038  3.8915  0.0065 -0.6625
  363MOL0     H47883   3.846   6.951   2.046  1.9358  0.4085 -1.4500
  363MOL0     H47884   3.787   6.831   1.776  1.3675 -0.7471 -0.7539
  363MOL0     H47885   3.937   6.815   1.862 -1.8099 -1.8472  3.7985
  363MOL0     H47886   3.946   7.078   1.879 -0.4540  1.4665  0.0166
  363MOL0     H47887   3.783   7.075   1.797  1.6181  1.9163 -3.0877
  363MOL0     H47888   4.035   6.958   1.681  0.4509 -0.3093 -2.1484
  363MOL0     H47889   3.878   6.966   1.608  2.6697 -1.6730 -0.6236
  363MOL0     H47890   3.955   7.242   1.695  0.7553 -1.4876  0.8166
  363MOL0     H47891   3.888   7.183   1.548  0.3154  1.9389  0.5746
  363MOL0     H47892   4.114   7.123   1.462 -3.0067 -2.6592  2.0257
  363MOL0     H47893   4.176   7.191   1.621 -1.5269  1.1602  2.5921
  363MOL0     H47894   4.093   7.400   1.589 -0.4310 -0.1293  0.1904
  363MOL0     H47895   4.206   7.365   1.456 -0.8810 -1.3578 -1.6874
  363MOL0     H47896   3.907   7.399   1.448  0.5166  0.5591  0.2504
  363MOL0     H47897   3.992   7.293   1.329  0.0735 -0.0472 -0.5844
  363MOL0     H47898   3.693   6.957   2.226  0.4055 -2.2276 -2.6507
  363MOL0     H47899   3.543   6.935   2.406 -2.3499 -0.8047  0.9759
  363MOL0     H47900   3.070   6.819   2.531 -1.5964  1.7424  1.9915
  363MOL0     H47901   2.900   6.754   2.681  0.8367 -1.1777 -1.7189
  363MOL0     H47902   1.510   6.178   3.855 -1.5123  0.0915 -2.2363
  363MOL0     H47903   1.305   6.071   3.900  1.5721 -0.8478  2.4876
  363MOL0     H47904   0.962   5.935   4.041 -2.5756 -2.8674 -2.8729
  363MOL0     H47905   0.771   5.819   4.003 -0.0718 -0.1658  2.4416
  363MOL0     H47906   0.585   5.706   4.017 -0.1107 -0.3395  0.7804
  363MOL0     H47907   0.525   5.784   3.876  3.0376 -2.3642 -0.6322
  363MOL0     H47908   0.354   5.627   3.996 -3.3344  1.6208 -4.5976
  363MOL0     H47909   0.351   5.752   4.123  1.9342  0.9411 -0.2185
  363MOL0     H47910   0.276   5.898   3.942  0.4680 -0.5978  3.1664
  363MOL0     H47911   0.161   5.776   3.978 -0.4786  0.1298  0.9050
  363MOL0     H47912   0.335   5.790   3.719 -0.7940  0.5540 -1.2041
  363MOL0     H47913   0.292   5.635   3.775  0.7335 -0.0824  2.1222
  363MOL0     H47914  -0.076   5.742   3.616  1.4545  2.7707 -1.4310
  363MOL0     H47915   0.518   6.127   4.152 -1.7416  0.4823 -3.7019
  363MOL0     H47916   0.705   6.280   4.153 -1.8210 -1.1566  0.6460
  364MOL0     O47917   0.897   8.743   7.720  0.8898 -0.2028 -0.5512
  364MOL0     C47918   0.922   8.775   7.841  0.2926  0.0643 -0.2844
  364MOL0     O47919   0.851   8.865   7.923 -0.2193  0.0998  0.3460
  364MOL0     C47920   0.721   8.889   7.880  0.2817  0.7557  1.9164
  364MOL0     C47921   0.628   8.787   7.853  0.6231  0.5863  0.3843
  364MOL0     C47922   0.495   8.815   7.813  0.5290  0.4720  0.7549
  364MOL0     C47923   0.453   8.948   7.781 -0.8858  0.1783 -0.0363
  364MOL0     O47924   0.328   8.971   7.732  0.1128 -0.6609  0.9360
  364MOL0     C47925   0.213   8.981   7.817 -0.6027 -0.1628  0.3714
  364MOL0     C47926   0.088   9.026   7.731  0.7399 -1.3397 -0.2667
  364MOL0     C47927   0.027   9.160   7.780  0.3171  0.3701  0.1005
  364MOL0     C47928  -0.112   9.201   7.712 -0.1068  0.2304  0.0570
  364MOL0     C47929  -0.232   9.117   7.759  0.3740  0.5714 -0.3335
  364MOL0     C47930  -0.358   9.169   7.680 -0.8512 -0.7558 -0.1501
  364MOL0     C47931  -0.485   9.111   7.746 -0.9321  0.0821  0.3159
  364MOL0     C47932  -0.613   9.142   7.663  0.2878  1.0162  0.4120
  364MOL0     N47933  -0.730   9.137   7.739  0.5548  0.4960 -0.4641
  364MOL0     C47934  -0.779   9.239   7.816  0.4711 -1.0300 -0.5110
  364MOL0     C47935  -0.897   9.195   7.861  0.2118  0.6587 -0.3447
  364MOL0     C47936  -1.010   9.262   7.933 -0.3755 -0.0831  0.4081
  364MOL0     C47937  -1.122   9.298   7.849 -0.0107 -0.1981  0.2020
  364MOL0     C47938  -1.232   9.340   7.942 -1.3830 -0.7150 -0.0442
  364MOL0     C47939  -1.348   9.403   7.871 -0.2720  0.6319  0.3018
  364MOL0     O47940  -1.463   9.397   7.952 -0.2098  0.5409 -0.7084
  364MOL0     C47941  -1.577   9.444   7.897 -0.0812  1.4587  0.1357
  364MOL0     C47942  -1.594   9.475   7.763 -0.9469 -0.5979 -0.0246
  364MOL0     C47943  -1.718   9.519   7.713 -0.4159 -0.3731  0.0522
  364MOL0     C47944  -1.827   9.535   7.797  0.2835  0.1763  0.1520
  364MOL0     C47945  -1.961   9.572   7.753 -0.4642  0.3616  0.2035
  364MOL0     O47946  -2.067   9.558   7.847 -0.4640  0.4446  0.1723
  364MOL0     C47947  -2.187   9.611   7.804 -0.3707  0.4278  1.2167
  364MOL0     C47948  -2.212   9.747   7.790 -1.0379  0.4809 -0.5303
  364MOL0     C47949  -2.332   9.793   7.755  0.3862 -0.0904 -0.0202
  364MOL0     C47950  -2.437   9.704   7.715 -0.8342 -0.4794 -0.7596
  364MOL0     O47951  -2.550   9.765   7.679 -1.1798  0.2951 -0.1141
  364MOL0     C47952  -2.676   9.695   7.666 -0.6525  0.3556  0.2315
  364MOL0     C47953  -2.791   9.795   7.651 -0.6894 -0.3407 -0.5254
  364MOL0     C47954  -2.912   9.712   7.615  1.1748  0.4120  0.4998
  364MOL0     C47955  -3.038   9.797   7.609 -0.2757 -0.1940  0.6092
  364MOL0     C47956  -3.036   9.888   7.486 -0.5725 -0.5561 -0.7467
  364MOL0     C47957  -3.165   9.976   7.490  0.2071  0.4174 -0.2928
  364MOL0     C47958  -3.231   9.950   7.356 -0.2581 -0.3693  0.3025
  364MOL0     C47959  -3.347  10.051   7.324  0.4772 -0.0243 -0.0669
  364MOL0    Cl47960  -3.481  10.028   7.431  0.2933 -0.1436  0.2788
  364MOL0     C47961  -2.415   9.566   7.714  0.4837 -0.4894 -0.6068
  364MOL0     C47962  -2.290   9.528   7.756 -0.0871  0.1352  1.6161
  364MOL0     O47963  -1.973   9.618   7.637 -1.3304 -0.3182 -0.2028
  364MOL0     C47964  -1.809   9.505   7.933 -0.4363 -0.9260 -0.5181
  364MOL0     C47965  -1.690   9.458   7.985 -0.3904  0.4921  0.5621
  364MOL0     N47966  -0.919   9.064   7.799 -0.1225 -0.2874 -0.1044
  364MOL0     N47967  -0.817   9.034   7.728  0.1408 -0.6960 -0.0165
  364MOL0     C47968   0.543   9.046   7.815 -0.1804 -1.7969  0.5298
  364MOL0     C47969   0.670   9.018   7.863  1.0487 -0.0056 -0.4078
  364MOL0     C47970   1.061   8.727   7.885  1.1215 -0.4075  0.3373
  364MOL0     C47971   1.131   8.626   7.819 -0.1447 -0.2674 -0.2740
  364MOL0     C47972   1.258   8.603   7.866  0.4638 -0.1989  0.8913
  364MOL0     C47973   1.313   8.666   7.976  0.4790 -0.9042  0.4551
  364MOL0     O47974   1.441   8.656   8.008  0.2224  0.4079  0.5969
  364MOL0     C47975   1.537   8.658   7.905  0.6023 -0.3743  1.7180
  364MOL0     C47976   1.541   8.797   7.825 -1.0657 -0.4471  0.6642
  364MOL0     C47977   1.601   8.892   7.922  0.0492 -0.4263  1.6325
  364MOL0     C47978   1.524   8.955   8.042  0.0152 -0.2596  0.6344
  364MOL0     C47979   1.401   9.017   8.008 -0.2888  0.5037 -0.4703
  364MOL0     C47980   1.293   9.060   7.982 -0.5019 -0.6418  0.5933
  364MOL0     C47981   1.232   8.749   8.057 -0.3197  0.6821  0.0369
  364MOL0     C47982   1.118   8.783   8.005 -0.1909  0.6784 -0.3617
  364MOL0     H47983   0.664   8.685   7.863  1.3844  0.7551 -0.4772
  364MOL0     H47984   0.441   8.725   7.785 -0.9919  1.1333  1.4945
  364MOL0     H47985   0.237   9.054   7.894 -2.2182  2.0541 -1.0817
  364MOL0     H47986   0.202   8.882   7.861  1.1067 -0.2432  0.6504
  364MOL0     H47987   0.017   8.944   7.748 -0.7678 -0.3922 -1.7169
  364MOL0     H47988   0.116   9.040   7.627  2.5895 -0.2034  0.3340
  364MOL0     H47989   0.104   9.237   7.774  1.1262 -0.5141 -1.4138
  364MOL0     H47990   0.002   9.138   7.884 -1.4902 -2.7689 -0.8816
  364MOL0     H47991  -0.148   9.301   7.739 -0.1683  0.0028  0.8496
  364MOL0     H47992  -0.092   9.211   7.605 -0.6295  1.8232  0.0793
  364MOL0     H47993  -0.258   9.134   7.864 -0.1478  0.0554 -0.3752
  364MOL0     H47994  -0.222   9.011   7.735 -0.2034  0.5223 -0.3748
  364MOL0     H47995  -0.340   9.142   7.575  0.8745 -0.3536  0.0088
  364MOL0     H47996  -0.372   9.277   7.696  0.4511 -1.0450  4.3707
  364MOL0     H47997  -0.475   9.003   7.758  0.5510 -0.0112 -1.4267
  364MOL0     H47998  -0.502   9.151   7.847 -1.0480 -1.2981  0.8698
  364MOL0     H47999  -0.609   9.061   7.589  0.1582  1.3272  0.0612
  364MOL0     H48000  -0.609   9.238   7.610 -1.1787  0.4990 -0.6993
  364MOL0     H48001  -0.751   9.334   7.859 -3.3418 -1.4212  3.5044
  364MOL0     H48002  -0.968   9.358   7.965  1.9364 -0.5236 -1.1266
  364MOL0     H48003  -1.041   9.201   8.018  1.0628 -1.2726  0.1220
  364MOL0     H48004  -1.164   9.221   7.783 -0.3009 -1.6178  1.9596
  364MOL0     H48005  -1.095   9.387   7.792 -0.2274  2.1928  3.5159
  364MOL0     H48006  -1.269   9.251   7.992 -1.0945  0.0059  1.5195
  364MOL0     H48007  -1.194   9.413   8.014 -1.1797 -0.5410 -0.3231
  364MOL0     H48008  -1.355   9.344   7.779  1.7955 -0.9191  1.0494
  364MOL0     H48009  -1.314   9.504   7.847 -0.7362  0.4156 -1.3894
  364MOL0     H48010  -1.505   9.481   7.699  0.7503  1.1206  2.3209
  364MOL0     H48011  -1.733   9.538   7.607  1.3716 -2.5628 -0.6817
  364MOL0     H48012  -2.125   9.804   7.818 -0.9860 -0.5346  1.5272
  364MOL0     H48013  -2.339   9.895   7.720  3.3422 -0.3825 -1.7527
  364MOL0     H48014  -2.712   9.630   7.746 -6.5787  0.8495 -1.5641
  364MOL0     H48015  -2.674   9.627   7.580 -1.7538  2.9876 -2.0363
  364MOL0     H48016  -2.770   9.875   7.580 -0.2598 -2.0632 -2.4215
  364MOL0     H48017  -2.798   9.847   7.747 -0.9697  0.5381 -1.0065
  364MOL0     H48018  -2.945   9.634   7.684 -0.1310  1.8904  1.6353
  364MOL0     H48019  -2.909   9.670   7.514 -0.6119  1.1229  0.1072
  364MOL0     H48020  -3.116   9.720   7.602  1.6611 -2.3202  0.9982
  364MOL0     H48021  -3.058   9.850   7.703 -0.3940 -0.7160  0.8832
  364MOL0     H48022  -3.029   9.827   7.395  1.1622  3.9096 -4.0062
  364MOL0     H48023  -2.948   9.952   7.497 -0.9741  0.1267 -1.3697
  364MOL0     H48024  -3.152  10.084   7.499 -0.2068  0.4591 -0.1621
  364MOL0     H48025  -3.234   9.954   7.572  1.6427  0.2711  0.9320
  364MOL0     H48026  -3.153   9.953   7.280 -0.4711 -0.8988  0.0596
  364MOL0     H48027  -3.260   9.845   7.356  0.0945 -0.4680  0.4689
  364MOL0     H48028  -3.367  10.053   7.217  3.0413  0.9362 -0.6037
  364MOL0     H48029  -3.325  10.154   7.352 -1.7527 -0.1781  2.6765
  364MOL0     H48030  -2.503   9.504   7.699 -1.0642  1.4501 -0.1229
  364MOL0     H48031  -2.279   9.423   7.781 -0.4410  0.1028  1.6361
  364MOL0     H48032  -1.895   9.517   7.998 -0.4204  0.7178 -0.7451
  364MOL0     H48033  -1.682   9.434   8.090 -0.3283  0.5292  0.5657
  364MOL0     H48034   0.522   9.152   7.800 -1.6569 -1.7235  2.6936
  364MOL0     H48035   0.736   9.093   7.905 -0.0854  2.9957 -3.5195
  364MOL0     H48036   1.092   8.555   7.747  3.0391 -4.6343  1.8411
  364MOL0     H48037   1.319   8.530   7.814 -2.4934 -3.0379  1.0824
  364MOL0     H48038   1.524   8.562   7.853  2.3001 -0.3528  1.1962
  364MOL0     H48039   1.631   8.660   7.960  1.2762  1.8205  0.6031
  364MOL0     H48040   1.605   8.792   7.737  0.7628 -0.0037  1.9232
  364MOL0     H48041   1.441   8.827   7.793  0.6040  1.3540 -3.4843
  364MOL0     H48042   1.621   8.985   7.868 -0.4197 -0.7039  0.9672
  364MOL0     H48043   1.696   8.851   7.957 -0.0637  0.0624  2.5543
  364MOL0     H48044   1.508   8.884   8.123  0.5000  0.5137  1.4237
  364MOL0     H48045   1.593   9.031   8.080 -0.3177  0.0667  0.5842
  364MOL0     H48046   1.199   9.112   7.982  0.1080  0.5910 -1.6795
  364MOL0     H48047   1.262   8.771   8.159  1.4870  0.8129 -0.5010
  364MOL0     H48048   1.073   8.872   8.047 -0.2510  0.2695  0.4674
  365MOL0     O48049   2.253   6.348   9.190  0.5354 -0.2117 -0.6002
  365MOL0     C48050   2.321   6.426   9.122 -0.1038  1.1206 -0.8648
  365MOL0     O48051   2.297   6.458   8.994 -0.5772 -0.6416 -0.6689
  365MOL0     C48052   2.191   6.431   8.915 -0.2781  0.5245  0.0036
  365MOL0     C48053   2.121   6.308   8.907  0.0343 -0.1107 -0.0664
  365MOL0     C48054   2.019   6.286   8.818 -0.9863  0.5629  0.1966
  365MOL0     C48055   1.974   6.392   8.748  1.6412 -0.1206  0.3375
  365MOL0     O48056   1.862   6.359   8.666 -0.7080  0.6361  0.6105
  365MOL0     C48057   1.850   6.442   8.549 -1.1218 -0.0282  0.0256
  365MOL0     C48058   1.775   6.362   8.447 -0.6172  0.5347  0.3661
  365MOL0     C48059   1.622   6.364   8.483 -0.1824  1.0536  0.1078
  365MOL0     C48060   1.549   6.337   8.356  0.5183 -0.0465 -0.3384
  365MOL0     C48061   1.402   6.310   8.389 -0.2544 -1.2137  0.1002
  365MOL0     C48062   1.321   6.366   8.271 -0.6159  0.7553  0.1604
  365MOL0     C48063   1.178   6.316   8.266 -0.4830  0.0923 -0.4060
  365MOL0     C48064   1.079   6.346   8.383 -0.5236 -1.2108  0.0968
  365MOL0     N48065   0.943   6.335   8.348 -0.4938  0.3114  0.7681
  365MOL0     C48066   0.881   6.401   8.237 -0.3361 -0.3937  0.6981
  365MOL0     C48067   0.763   6.343   8.223  0.1331  0.0181  1.3275
  365MOL0     C48068   0.665   6.390   8.122  0.3020 -0.6128  0.3859
  365MOL0     C48069   0.623   6.274   8.028 -1.6304 -0.0712  0.1395
  365MOL0     C48070   0.514   6.343   7.937  0.1209 -0.0155 -0.3010
  365MOL0     C48071   0.480   6.263   7.817  0.1865  0.5849  0.8118
  365MOL0     O48072   0.385   6.338   7.741 -0.8489 -0.7395 -0.3159
  365MOL0     C48073   0.256   6.292   7.723 -0.1237 -0.1788 -0.8166
  365MOL0     C48074   0.190   6.215   7.825  0.1801  0.2177  0.7483
  365MOL0     C48075   0.045   6.202   7.821  0.0820 -0.9312 -0.3859
  365MOL0     C48076  -0.029   6.241   7.711 -0.0030 -0.1817 -0.0692
  365MOL0     C48077  -0.168   6.200   7.670 -0.2572  0.1266  0.4400
  365MOL0     O48078  -0.211   6.218   7.534  0.1552 -0.3840  0.7696
  365MOL0     C48079  -0.334   6.176   7.493  0.5664 -0.5350  0.3381
  365MOL0     C48080  -0.385   6.046   7.510 -0.3974 -0.5703  0.2850
  365MOL0     C48081  -0.520   6.021   7.474 -0.8365 -0.3864 -0.7686
  365MOL0     C48082  -0.593   6.128   7.424  1.0046  0.3865 -0.0619
  365MOL0     O48083  -0.715   6.086   7.386  0.6143  0.1666 -0.1052
  365MOL0     C48084  -0.783   6.154   7.273  0.3387  0.8363  0.0787
  365MOL0     C48085  -0.892   6.063   7.210  0.1656 -1.1365  0.6488
  365MOL0     C48086  -1.004   6.149   7.132 -0.1954  0.0099 -0.0771
  365MOL0     C48087  -1.132   6.065   7.091  0.4061 -0.1672  0.4404
  365MOL0     C48088  -1.099   5.939   7.008 -0.4482 -0.6343 -0.5674
  365MOL0     C48089  -1.030   5.974   6.874  0.1595 -0.0283  0.0764
  365MOL0     C48090  -0.973   5.849   6.792 -0.2219  0.5124 -0.8037
  365MOL0     C48091  -1.064   5.721   6.784  0.4584  1.1786 -0.6268
  365MOL0    Cl48092  -1.226   5.768   6.732 -0.0607  0.3563 -0.7863
  365MOL0     C48093  -0.545   6.260   7.414 -0.2660  2.0480 -0.4109
  365MOL0     C48094  -0.415   6.282   7.452 -0.5525 -0.2281 -1.0402
  365MOL0     O48095  -0.235   6.135   7.752 -0.2733  0.2756  0.0151
  365MOL0     C48096   0.046   6.313   7.616 -0.2642  0.3982 -0.2603
  365MOL0     C48097   0.182   6.345   7.623  0.0925  0.3510  0.7239
  365MOL0     N48098   0.749   6.245   8.309  0.0864  0.4626  0.7625
  365MOL0     N48099   0.860   6.230   8.376  0.3664 -0.0176 -0.1597
  365MOL0     C48100   2.037   6.517   8.760 -0.0837 -0.4542  0.3424
  365MOL0     C48101   2.149   6.527   8.837 -0.1275 -0.1407  0.1892
  365MOL0     C48102   2.422   6.507   9.190 -0.4709 -0.3371  0.1612
  365MOL0     C48103   2.431   6.531   9.326  0.6293  0.6304  0.3817
  365MOL0     C48104   2.532   6.609   9.389  0.3928  0.8882 -0.3184
  365MOL0     C48105   2.626   6.667   9.306  0.5618  0.1973 -0.3040
  365MOL0     O48106   2.726   6.729   9.376 -0.3160  0.3507 -0.5081
  365MOL0     C48107   2.824   6.789   9.307 -1.3083 -0.1076  0.7558
  365MOL0     C48108   2.902   6.839   9.422 -0.5448 -0.2233  0.5002
  365MOL0     C48109   2.975   6.741   9.504  0.5213  0.1753  0.1553
  365MOL0     C48110   3.044   6.822   9.616  0.5501  0.7655  0.3409
  365MOL0     C48111   3.168   6.757   9.656  0.1280  0.3663 -0.0023
  365MOL0     C48112   3.276   6.726   9.699  0.4903 -0.0600  0.0824
  365MOL0     C48113   2.612   6.659   9.165 -0.4902  0.4002 -0.1343
  365MOL0     C48114   2.516   6.571   9.110 -0.5175  0.1441 -0.4349
  365MOL0     H48115   2.157   6.225   8.967 -0.9042 -0.7805 -0.4000
  365MOL0     H48116   1.973   6.190   8.800 -0.8539  0.6907 -0.9262
  365MOL0     H48117   1.949   6.458   8.505 -0.0159  0.4876  2.5442
  365MOL0     H48118   1.814   6.543   8.570  4.6731  2.6564 -0.9410
  365MOL0     H48119   1.820   6.263   8.445 -0.8296  0.4300 -2.0312
  365MOL0     H48120   1.792   6.409   8.350 -0.4331 -1.4388 -0.5885
  365MOL0     H48121   1.587   6.448   8.544  1.2417  0.3211  2.0232
  365MOL0     H48122   1.611   6.274   8.545  1.2125 -0.2850 -1.5140
  365MOL0     H48123   1.559   6.437   8.312 -2.5848  1.2605  1.5599
  365MOL0     H48124   1.596   6.255   8.302  0.2129 -1.2567  1.1442
  365MOL0     H48125   1.370   6.354   8.484  1.5878  0.7169 -0.0904
  365MOL0     H48126   1.389   6.202   8.398 -0.3815 -1.2127 -0.0796
  365MOL0     H48127   1.366   6.343   8.174 -0.5809  0.8793  0.1473
  365MOL0     H48128   1.330   6.475   8.280  1.3758  0.6878 -0.5635
  365MOL0     H48129   1.127   6.357   8.179  3.7215  0.0381 -3.1725
  365MOL0     H48130   1.187   6.207   8.262  0.3300  0.0755  1.0684
  365MOL0     H48131   1.105   6.442   8.429 -0.0324 -0.8469 -0.9031
  365MOL0     H48132   1.093   6.269   8.459  0.2297 -1.1860 -0.0107
  365MOL0     H48133   0.926   6.471   8.168 -2.5973  0.6555  0.2067
  365MOL0     H48134   0.712   6.465   8.058  1.6595  1.7708  3.8794
  365MOL0     H48135   0.573   6.423   8.171 -0.0773  0.4600 -0.9716
  365MOL0     H48136   0.578   6.189   8.080  1.0974 -0.6353  1.7257
  365MOL0     H48137   0.710   6.231   7.979  1.7626  4.3283  1.6772
  365MOL0     H48138   0.424   6.364   7.995  1.0321  2.3056  0.3786
  365MOL0     H48139   0.546   6.443   7.906 -0.7685 -0.2573 -2.1025
  365MOL0     H48140   0.445   6.162   7.840  1.1768  0.1860  0.5856
  365MOL0     H48141   0.572   6.255   7.759 -0.9196  0.0316 -0.9447
  365MOL0     H48142   0.238   6.161   7.906 -1.3262 -0.6480  1.1013
  365MOL0     H48143  -0.005   6.146   7.899 -0.5592 -1.6190 -1.2555
  365MOL0     H48144  -0.322   5.962   7.537  2.2794  1.1223 -0.3338
  365MOL0     H48145  -0.552   5.917   7.480  0.1397 -0.6819 -0.4647
  365MOL0     H48146  -0.701   6.165   7.201 -0.1688  1.1228 -0.4707
  365MOL0     H48147  -0.820   6.252   7.306  1.0689  0.4652  2.1197
  365MOL0     H48148  -0.942   5.993   7.277 -2.1166 -0.7996 -0.6336
  365MOL0     H48149  -0.839   6.007   7.132 -1.8099 -3.8353  1.1100
  365MOL0     H48150  -0.950   6.197   7.050  0.2783 -0.0008  0.2255
  365MOL0     H48151  -1.048   6.226   7.197  0.1284  0.4863 -0.4129
  365MOL0     H48152  -1.174   6.037   7.188  0.4647 -0.2721  0.4352
  365MOL0     H48153  -1.202   6.128   7.036  0.5731  0.2242  0.6707
  365MOL0     H48154  -1.192   5.891   6.978 -0.8045  0.0352 -0.5702
  365MOL0     H48155  -1.034   5.874   7.068  1.0536 -0.0897 -1.5594
  365MOL0     H48156  -0.948   6.044   6.894  1.6501 -1.2025 -1.6132
  365MOL0     H48157  -1.098   6.034   6.813 -1.2455  0.2853  1.8724
  365MOL0     H48158  -0.964   5.883   6.688 -0.6917 -0.8295 -1.2985
  365MOL0     H48159  -0.875   5.835   6.838 -1.2575  0.3552  1.4662
  365MOL0     H48160  -1.074   5.675   6.883 -1.6908  3.0404  0.1156
  365MOL0     H48161  -1.027   5.647   6.712 -0.6059 -0.0601  0.0495
  365MOL0     H48162  -0.588   6.339   7.353  1.7478  2.7554 -1.0110
  365MOL0     H48163  -0.378   6.383   7.466 -2.0867  0.0296  2.0486
  365MOL0     H48164  -0.007   6.346   7.527  0.3830 -1.9667 -1.6252
  365MOL0     H48165   0.239   6.402   7.550 -0.6397  1.1807  0.7808
  365MOL0     H48166   2.006   6.603   8.701  3.1391 -0.5467 -1.6702
  365MOL0     H48167   2.196   6.625   8.841  0.1126 -0.0162 -3.2051
  365MOL0     H48168   2.363   6.487   9.397 -0.4170  2.1199  0.3631
  365MOL0     H48169   2.530   6.624   9.496  2.4981 -0.8104  0.0221
  365MOL0     H48170   2.790   6.872   9.245  0.2738  0.4209  0.5375
  365MOL0     H48171   2.886   6.729   9.239 -1.8828  1.1458 -0.9394
  365MOL0     H48172   2.969   6.909   9.370 -1.1759  0.2456  0.3091
  365MOL0     H48173   2.838   6.904   9.483  0.1543 -0.6774  1.7441
  365MOL0     H48174   3.048   6.681   9.449 -1.0078 -2.5322  0.9060
  365MOL0     H48175   2.899   6.678   9.552  1.8670 -1.7454 -0.0931
  365MOL0     H48176   3.077   6.914   9.568 -1.6360  0.5532 -1.7845
  365MOL0     H48177   2.971   6.843   9.695  2.1121  3.4140  1.2021
  365MOL0     H48178   3.366   6.694   9.748 -1.1316 -1.2248  2.5079
  365MOL0     H48179   2.682   6.709   9.097 -1.2014  2.0926  0.3264
  365MOL0     H48180   2.504   6.559   9.003 -1.6046  2.3732 -0.6232
  366MOL0     O48181   2.554   5.580   6.596  0.6727  0.0628 -0.4033
  366MOL0     C48182   2.656   5.568   6.528  0.1822 -0.3874 -0.1046
  366MOL0     O48183   2.664   5.497   6.416 -1.0148  0.3376  0.0142
  366MOL0     C48184   2.588   5.390   6.383 -0.3951 -0.4598 -0.6028
  366MOL0     C48185   2.455   5.386   6.398  0.7807  0.2144  0.0546
  366MOL0     C48186   2.369   5.273   6.380 -0.4617  1.0193  0.5321
  366MOL0     C48187   2.430   5.157   6.315 -0.7754 -0.2130 -0.1848
  366MOL0     O48188   2.364   5.040   6.279  0.4209  0.7865  1.0682
  366MOL0     C48189   2.236   5.025   6.345 -0.4389 -0.0274 -1.3081
  366MOL0     C48190   2.179   4.895   6.296  1.2083  0.8162  0.4239
  366MOL0     C48191   2.035   4.864   6.332 -0.5124 -0.2803 -0.5617
  366MOL0     C48192   1.994   4.731   6.264  0.4718  0.3419 -0.4450
  366MOL0     C48193   1.834   4.727   6.247  0.1506 -0.4349 -0.1459
  366MOL0     C48194   1.766   4.598   6.242  0.3227  0.4654 -0.7869
  366MOL0     C48195   1.615   4.601   6.233  0.6821  0.1101 -1.0057
  366MOL0     C48196   1.538   4.467   6.277 -0.1089  0.5165 -0.6775
  366MOL0     N48197   1.578   4.359   6.187 -0.1824 -0.0993 -0.5378
  366MOL0     C48198   1.526   4.350   6.057  1.1774  0.1739  1.0457
  366MOL0     C48199   1.549   4.217   6.029 -1.3572 -0.0761 -0.1882
  366MOL0     C48200   1.523   4.140   5.904  0.1209 -0.0954 -0.4253
  366MOL0     C48201   1.377   4.120   5.874  1.0262  0.0961  0.5347
  366MOL0     C48202   1.336   4.009   5.978 -0.4308 -1.0582 -0.8022
  366MOL0     C48203   1.201   3.954   5.961 -0.2733  0.0969 -0.0467
  366MOL0     O48204   1.104   4.045   6.006 -0.6981  0.1301 -0.2281
  366MOL0     C48205   0.975   4.008   5.987  0.7073 -0.6621  0.4705
  366MOL0     C48206   0.907   4.006   6.107 -0.3212 -0.4566  0.0832
  366MOL0     C48207   0.771   3.972   6.107  0.0430 -0.1878  0.0303
  366MOL0     C48208   0.703   3.932   5.994 -0.2674 -0.1111  0.7030
  366MOL0     C48209   0.571   3.876   6.002 -0.7380  0.1431 -0.7471
  366MOL0     O48210   0.502   3.863   5.880 -0.4050 -0.3613  0.1617
  366MOL0     C48211   0.390   3.785   5.871  0.4644 -1.0585  0.3359
  366MOL0     C48212   0.339   3.685   5.958  0.2881 -0.0105 -0.7170
  366MOL0     C48213   0.221   3.618   5.923 -0.3034 -0.4001 -0.2419
  366MOL0     C48214   0.144   3.653   5.804 -0.8778 -0.8964  1.1144
  366MOL0     O48215   0.029   3.594   5.761 -0.0081 -0.5080 -0.1639
  366MOL0     C48216   0.022   3.452   5.778 -1.0611 -0.5390 -0.0026
  366MOL0     C48217  -0.115   3.399   5.752  0.6434 -0.1361 -0.4757
  366MOL0     C48218  -0.220   3.473   5.834 -1.5422 -0.3358  0.0261
  366MOL0     C48219  -0.361   3.441   5.787  0.2878  0.0629 -1.0158
  366MOL0     C48220  -0.459   3.533   5.856  0.3796  0.2355  0.5910
  366MOL0     C48221  -0.463   3.517   5.998  0.4411  0.8057  0.5245
  366MOL0     C48222  -0.586   3.587   6.066  0.5324  0.2115  0.0560
  366MOL0     C48223  -0.609   3.548   6.216 -1.0885 -0.4576  0.0422
  366MOL0    Cl48224  -0.478   3.628   6.307 -0.7470  0.2492  0.4742
  366MOL0     C48225   0.199   3.749   5.713  0.4036 -0.4737 -0.0067
  366MOL0     C48226   0.310   3.822   5.756  0.5050  0.4502  0.2997
  366MOL0     O48227   0.533   3.837   6.111  0.0598 -0.1048 -0.6623
  366MOL0     C48228   0.772   3.936   5.869 -0.2973  1.2763 -0.4595
  366MOL0     C48229   0.909   3.976   5.862 -1.0289 -0.3251  0.0468
  366MOL0     N48230   1.635   4.168   6.121  1.3401  0.1773  0.6106
  366MOL0     N48231   1.653   4.250   6.210 -0.2260  0.2842  0.1936
  366MOL0     C48232   2.570   5.162   6.306  0.2550  0.0356  0.4416
  366MOL0     C48233   2.653   5.276   6.335 -0.3283  0.3765 -0.5492
  366MOL0     C48234   2.763   5.653   6.573  0.4211  0.5308 -0.5303
  366MOL0     C48235   2.763   5.718   6.701 -0.3348 -0.1666  0.3153
  366MOL0     C48236   2.854   5.825   6.727  0.8908 -0.2879 -0.0696
  366MOL0     C48237   2.961   5.845   6.636 -0.3266 -0.0575  0.0582
  366MOL0     O48238   3.051   5.938   6.649 -0.1614 -0.3266  0.0544
  366MOL0     C48239   3.050   6.036   6.753 -0.2089  0.1447 -0.3472
  366MOL0     C48240   3.149   6.145   6.707 -0.4843  0.2597 -0.2340
  366MOL0     C48241   3.290   6.090   6.717  0.1530 -0.5883  1.3318
  366MOL0     C48242   3.403   6.191   6.671  0.0201 -0.8748 -0.2139
  366MOL0     C48243   3.419   6.313   6.763  0.1276  0.0154 -0.3577
  366MOL0     C48244   3.427   6.400   6.849 -0.1336  0.7062 -0.2047
  366MOL0     C48245   2.967   5.765   6.516  0.6810 -0.3892 -0.1182
  366MOL0     C48246   2.868   5.674   6.487  0.3541 -0.7243  0.4493
  366MOL0     H48247   2.403   5.470   6.443 -1.4896 -1.1289  0.1145
  366MOL0     H48248   2.265   5.283   6.410  0.0319  1.7711  2.1058
  366MOL0     H48249   2.171   5.108   6.316  0.6402  2.3048  2.2515
  366MOL0     H48250   2.241   5.019   6.454  0.1605 -2.5944 -1.4226
  366MOL0     H48251   2.233   4.809   6.336  0.1075  0.5124  1.2979
  366MOL0     H48252   2.183   4.892   6.186  0.1550  0.8783  0.3782
  366MOL0     H48253   1.970   4.945   6.297 -4.9622 -1.9816  2.9065
  366MOL0     H48254   2.023   4.853   6.440 -3.5335  2.7443 -0.4331
  366MOL0     H48255   2.051   4.720   6.172  0.4549 -2.8057 -0.1761
  366MOL0     H48256   2.030   4.648   6.325  0.8407  0.1990 -0.8546
  366MOL0     H48257   1.822   4.784   6.155 -2.0322 -2.5184 -1.2560
  366MOL0     H48258   1.786   4.780   6.330  1.0913 -2.1469  1.5824
  366MOL0     H48259   1.790   4.544   6.334  0.9884  0.5935 -0.8812
  366MOL0     H48260   1.807   4.537   6.161  0.7480  0.6776 -0.7281
  366MOL0     H48261   1.582   4.674   6.307  1.1085 -0.9712  0.3035
  366MOL0     H48262   1.573   4.623   6.135  1.1689  1.6266 -0.8991
  366MOL0     H48263   1.432   4.487   6.261 -0.2570 -0.3014 -0.7441
  366MOL0     H48264   1.561   4.445   6.382 -0.4511  2.8169 -0.0614
  366MOL0     H48265   1.467   4.429   6.012  3.3415  1.6215  0.6248
  366MOL0     H48266   1.580   4.047   5.895 -1.5799 -1.0558 -2.2183
  366MOL0     H48267   1.563   4.200   5.821  0.2093  1.4400  0.6987
  366MOL0     H48268   1.346   4.090   5.773 -1.6145  1.2961  0.8847
  366MOL0     H48269   1.314   4.209   5.890  0.7039  0.2966 -1.5516
  366MOL0     H48270   1.411   3.929   5.977  1.3510  0.5545 -0.5854
  366MOL0     H48271   1.337   4.056   6.077  2.0311 -3.1312  0.2929
  366MOL0     H48272   1.195   3.862   6.020 -3.0838  0.2029 -0.0409
  366MOL0     H48273   1.182   3.923   5.858 -2.8691  2.1969 -0.3094
  366MOL0     H48274   0.957   4.034   6.199  1.4964  0.2719 -1.0750
  366MOL0     H48275   0.715   3.982   6.200 -0.3261 -2.7168  0.1564
  366MOL0     H48276   0.390   3.659   6.050 -2.6634 -2.9346  0.2735
  366MOL0     H48277   0.185   3.545   5.994 -1.9681  1.6256  1.1293
  366MOL0     H48278   0.043   3.418   5.880 -1.3983 -0.5763  0.0528
  366MOL0     H48279   0.101   3.401   5.722 -1.3783 -1.6276  0.5139
  366MOL0     H48280  -0.113   3.292   5.778  0.8273  0.4200  2.0821
  366MOL0     H48281  -0.140   3.408   5.646  1.1569  1.1040 -0.5048
  366MOL0     H48282  -0.204   3.581   5.847 -1.9867 -0.2832  0.1608
  366MOL0     H48283  -0.203   3.425   5.931 -2.2513  1.2036  0.9490
  366MOL0     H48284  -0.359   3.465   5.680  1.1359 -0.7536 -1.1864
  366MOL0     H48285  -0.387   3.337   5.808 -2.7464  0.0726 -3.8117
  366MOL0     H48286  -0.557   3.507   5.815  0.5070  2.2096 -1.1427
  366MOL0     H48287  -0.434   3.634   5.822 -0.2370  0.6834  1.4390
  366MOL0     H48288  -0.372   3.552   6.047  0.9035  0.1238  0.1638
  366MOL0     H48289  -0.465   3.410   6.022 -1.0774  0.9849  1.3045
  366MOL0     H48290  -0.570   3.695   6.070  0.6043  0.2315 -0.7097
  366MOL0     H48291  -0.679   3.580   6.008 -1.9127 -0.2457  3.6437
  366MOL0     H48292  -0.609   3.441   6.237  1.2214 -1.1116 -2.7003
  366MOL0     H48293  -0.707   3.585   6.249 -0.1894  1.9925  0.1529
  366MOL0     H48294   0.153   3.782   5.621 -1.4307  0.6943  1.2524
  366MOL0     H48295   0.333   3.890   5.675  1.1230 -0.5614 -0.4121
  366MOL0     H48296   0.722   3.910   5.777  3.4394 -0.5952 -2.2078
  366MOL0     H48297   0.972   3.996   5.775 -1.1403  0.1294  0.0658
  366MOL0     H48298   2.621   5.073   6.269  0.6782  1.1659 -1.8531
  366MOL0     H48299   2.761   5.269   6.340 -0.1734  1.3204 -1.9504
  366MOL0     H48300   2.678   5.703   6.768  0.3241 -1.1370  0.9597
  366MOL0     H48301   2.835   5.887   6.814 -0.8999  2.1966 -2.1025
  366MOL0     H48302   3.087   6.000   6.850  0.9630  1.0456 -0.4294
  366MOL0     H48303   2.950   6.079   6.756 -1.4713 -2.5953  0.7081
  366MOL0     H48304   3.133   6.199   6.613  0.3996  2.0587  0.5825
  366MOL0     H48305   3.125   6.224   6.779  0.1983  1.7043 -1.5360
  366MOL0     H48306   3.308   6.005   6.651  3.2974  0.0490  1.1964
  366MOL0     H48307   3.306   6.053   6.819 -0.5330 -1.7173  1.0462
  366MOL0     H48308   3.499   6.138   6.675  0.8850  0.6090  4.4131
  366MOL0     H48309   3.387   6.230   6.570 -0.3012  0.5446  0.3649
  366MOL0     H48310   3.432   6.481   6.919 -4.5443 -0.2467  1.5512
  366MOL0     H48311   3.045   5.788   6.445 -0.0292  0.4742 -0.6342
  366MOL0     H48312   2.883   5.632   6.388  1.5647  1.4107 -0.3272
  367MOL0     O48313   8.070   3.225   5.337 -0.5072 -0.0405  0.2048
  367MOL0     C48314   8.060   3.295   5.437 -0.3396 -0.8221 -0.0346
  367MOL0     O48315   7.937   3.326   5.503  0.5049 -0.0794  0.1528
  367MOL0     C48316   7.800   3.306   5.455 -0.3433 -0.5242 -0.1613
  367MOL0     C48317   7.695   3.349   5.537  1.0362  0.3203  0.4219
  367MOL0     C48318   7.565   3.319   5.498 -0.1516  0.0613 -0.0587
  367MOL0     C48319   7.539   3.274   5.369 -0.1419 -0.4141  0.4617
  367MOL0     O48320   7.404   3.255   5.344 -1.3470 -0.2642  0.2635
  367MOL0     C48321   7.367   3.252   5.204 -0.1115 -0.1451 -1.2381
  367MOL0     C48322   7.233   3.327   5.198  0.4425  0.3641 -0.0500
  367MOL0     C48323   7.236   3.470   5.141  0.1990  0.3948  0.0109
  367MOL0     C48324   7.273   3.575   5.256  0.5366 -0.1272  0.9396
  367MOL0     C48325   7.290   3.710   5.184 -0.2808  0.1719 -0.9905
  367MOL0     C48326   7.318   3.817   5.294  0.3137 -0.3691  0.1677
  367MOL0     C48327   7.426   3.795   5.386  0.3899 -0.3681  0.4996
  367MOL0     C48328   7.556   3.757   5.313  0.1016 -0.3180  0.7214
  367MOL0     N48329   7.675   3.766   5.393  0.3490 -0.4611  0.9978
  367MOL0     C48330   7.783   3.680   5.390  0.4813  0.4537 -0.8588
  367MOL0     C48331   7.882   3.742   5.460 -0.3718 -0.4357  0.4468
  367MOL0     C48332   8.016   3.683   5.498 -0.2960 -0.2899  0.1151
  367MOL0     C48333   8.125   3.794   5.454  0.1580 -0.1476  0.3424
  367MOL0     C48334   8.260   3.754   5.529 -0.3377 -0.0116  0.6494
  367MOL0     C48335   8.355   3.874   5.511  0.1383 -0.2501  0.2084
  367MOL0     O48336   8.492   3.834   5.516  0.0916 -0.2670 -0.0614
  367MOL0     C48337   8.583   3.928   5.554 -0.5715  0.3819 -0.5777
  367MOL0     C48338   8.700   3.881   5.610 -0.6754 -0.1879  0.2035
  367MOL0     C48339   8.798   3.980   5.649 -0.0338 -0.4728 -0.3871
  367MOL0     C48340   8.780   4.121   5.644  0.1042  0.6710 -0.3955
  367MOL0     C48341   8.879   4.220   5.692  0.4543 -0.6925 -0.1646
  367MOL0     O48342   8.839   4.343   5.676  1.2108 -0.5361 -0.0092
  367MOL0     C48343   8.913   4.446   5.740  0.2125  0.4537 -0.0474
  367MOL0     C48344   8.966   4.433   5.868 -0.7220 -0.8132 -1.0101
  367MOL0     C48345   9.000   4.551   5.933 -0.0656 -0.0798 -0.1362
  367MOL0     C48346   8.990   4.673   5.877 -0.3111  1.6369 -0.4480
  367MOL0     O48347   9.013   4.786   5.940 -0.2504 -0.6201 -0.1932
  367MOL0     C48348   9.150   4.815   5.940 -0.3649  0.0454  0.8417
  367MOL0     C48349   9.168   4.967   5.974 -0.2934  1.2641  0.3881
  367MOL0     C48350   9.310   4.991   6.002 -0.8198  0.8294  0.3856
  367MOL0     C48351   9.394   4.971   5.876  0.2008 -0.4349 -0.5059
  367MOL0     C48352   9.536   5.025   5.885 -0.2739  0.2221 -0.0840
  367MOL0     C48353   9.586   5.060   5.745 -0.1163 -0.2194 -0.4555
  367MOL0     C48354   9.734   5.091   5.739 -0.0546 -0.3491  0.8413
  367MOL0     C48355   9.791   5.064   5.599  0.5624  0.8379 -0.1138
  367MOL0    Cl48356   9.960   5.099   5.612 -0.4707  0.3129 -0.0967
  367MOL0     C48357   8.961   4.676   5.742 -0.4092 -0.2598  0.4640
  367MOL0     C48358   8.912   4.562   5.679  0.4361 -0.2951 -0.1993
  367MOL0     O48359   8.983   4.174   5.746  0.4293 -1.2547 -0.2233
  367MOL0     C48360   8.660   4.156   5.593  0.3251 -0.3828  0.6186
  367MOL0     C48361   8.552   4.065   5.556 -0.1922  0.5986  0.5713
  367MOL0     N48362   7.829   3.866   5.512 -0.2959  0.7286  0.3638
  367MOL0     N48363   7.708   3.883   5.464  1.0230  0.8716 -0.0886
  367MOL0     C48364   7.646   3.232   5.286  0.6665  0.0300  0.1101
  367MOL0     C48365   7.774   3.246   5.332 -0.9361 -0.9900  0.8352
  367MOL0     C48366   8.181   3.328   5.513 -0.7532  1.4587 -0.2387
  367MOL0     C48367   8.188   3.371   5.647  0.4204  0.4282 -0.2578
  367MOL0     C48368   8.308   3.379   5.726  1.2250  0.0380  1.3078
  367MOL0     C48369   8.433   3.348   5.668  0.2790 -0.2887 -0.3625
  367MOL0     O48370   8.544   3.353   5.756  0.5121 -0.1626  0.4048
  367MOL0     C48371   8.666   3.278   5.733  0.1467 -0.2111  0.4445
  367MOL0     C48372   8.781   3.302   5.827  0.2063  0.6534 -0.1564
  367MOL0     C48373   8.925   3.290   5.788  0.0333 -0.5972 -0.2626
  367MOL0     C48374   8.981   3.423   5.737 -0.1841 -0.2413  0.0678
  367MOL0     C48375   9.095   3.408   5.651 -0.2389  0.5934  0.5103
  367MOL0     C48376   9.193   3.390   5.585  0.3392  0.1258  0.5824
  367MOL0     C48377   8.430   3.300   5.537  0.4117 -0.3881  0.4449
  367MOL0     C48378   8.311   3.288   5.465 -0.1069 -0.5309 -0.3957
  367MOL0     H48379   7.705   3.378   5.642  0.1562  0.0498  0.5872
  367MOL0     H48380   7.480   3.325   5.564 -0.5192 -0.6901 -0.4591
  367MOL0     H48381   7.354   3.150   5.168 -0.7081 -0.6732  0.3499
  367MOL0     H48382   7.427   3.305   5.130 -0.2495  0.0186 -1.2355
  367MOL0     H48383   7.174   3.318   5.290 -0.8011  0.3659 -0.8155
  367MOL0     H48384   7.164   3.279   5.128 -2.6341  0.5551  2.6141
  367MOL0     H48385   7.142   3.500   5.092  2.3424  1.6957 -3.6983
  367MOL0     H48386   7.319   3.485   5.072  0.8784  0.6202  0.8580
  367MOL0     H48387   7.192   3.587   5.328  1.0201 -1.6788  1.7798
  367MOL0     H48388   7.359   3.531   5.307  1.4032 -0.8320 -1.0376
  367MOL0     H48389   7.210   3.745   5.118 -1.0889 -0.6608 -0.4799
  367MOL0     H48390   7.374   3.701   5.115 -1.0178  1.5578 -2.1220
  367MOL0     H48391   7.228   3.822   5.356 -1.7848 -2.1172 -2.4998
  367MOL0     H48392   7.323   3.911   5.238  0.0228 -1.4200 -1.7363
  367MOL0     H48393   7.446   3.891   5.434  3.8958 -1.0167  0.6160
  367MOL0     H48394   7.401   3.719   5.461 -0.1171 -0.0790  0.6242
  367MOL0     H48395   7.573   3.823   5.228  0.1551 -1.8438 -0.5115
  367MOL0     H48396   7.542   3.659   5.266 -2.1734 -0.4947  1.6359
  367MOL0     H48397   7.775   3.582   5.344 -0.2848  0.0531  0.0902
  367MOL0     H48398   8.044   3.589   5.449  0.5856  0.2952 -0.5485
  367MOL0     H48399   8.017   3.679   5.607 -1.8707 -1.5593  0.1099
  367MOL0     H48400   8.105   3.896   5.488 -0.2483 -0.2639  0.4666
  367MOL0     H48401   8.144   3.793   5.346  0.1098 -0.2276  0.3347
  367MOL0     H48402   8.235   3.744   5.635 -0.2324  1.0453  0.7905
  367MOL0     H48403   8.309   3.662   5.496  0.4258  0.1305  1.3657
  367MOL0     H48404   8.341   3.949   5.588  1.5803  0.4519 -0.1788
  367MOL0     H48405   8.342   3.919   5.412 -2.1017 -2.4179 -0.6124
  367MOL0     H48406   8.733   3.778   5.621  3.0330  0.8375  0.1181
  367MOL0     H48407   8.894   3.947   5.688  0.1400 -0.6004 -0.9059
  367MOL0     H48408   8.983   4.337   5.914 -1.3548 -1.0351 -1.2236
  367MOL0     H48409   9.043   4.545   6.032 -0.5296  1.8076  0.2253
  367MOL0     H48410   9.186   4.799   5.838  0.4747 -4.3050  1.6368
  367MOL0     H48411   9.211   4.752   6.005 -1.0704 -3.9620 -2.0064
  367MOL0     H48412   9.108   4.985   6.064  3.7977 -1.0155  3.9579
  367MOL0     H48413   9.130   5.031   5.893  0.6027  1.4170  0.0729
  367MOL0     H48414   9.339   4.926   6.084  0.6766  1.3806  0.3290
  367MOL0     H48415   9.330   5.093   6.036  0.5212  0.9553 -0.6672
  367MOL0     H48416   9.396   4.864   5.857 -2.3071 -1.3597  3.3319
  367MOL0     H48417   9.337   5.028   5.802 -1.4893  1.8240  2.2993
  367MOL0     H48418   9.609   4.954   5.924  0.7089  0.9065 -0.6537
  367MOL0     H48419   9.544   5.109   5.954 -1.0455 -0.9227  1.4746
  367MOL0     H48420   9.533   5.149   5.709  0.3037 -0.1014 -0.7978
  367MOL0     H48421   9.567   4.980   5.673 -0.6919  1.7651 -2.6461
  367MOL0     H48422   9.733   5.196   5.769  1.8003 -0.9942  3.4545
  367MOL0     H48423   9.782   5.032   5.817 -1.4494 -1.9459  0.5378
  367MOL0     H48424   9.742   5.126   5.523 -2.5244  1.1601  1.9904
  367MOL0     H48425   9.784   4.957   5.574  0.5938  0.8092 -0.0028
  367MOL0     H48426   8.957   4.774   5.696  0.4756 -0.8093 -0.8441
  367MOL0     H48427   8.868   4.588   5.583 -1.4957  1.8918  1.1927
  367MOL0     H48428   8.651   4.263   5.574 -1.8719  0.1251  3.7675
  367MOL0     H48429   8.457   4.096   5.516  0.1297  0.3118 -0.4513
  367MOL0     H48430   7.633   3.180   5.192  2.2541 -0.1293 -0.0563
  367MOL0     H48431   7.852   3.213   5.265  0.1740  0.5981  1.3002
  367MOL0     H48432   8.095   3.394   5.697 -0.7602  3.3474 -3.3403
  367MOL0     H48433   8.295   3.405   5.830  3.4815 -0.2938  1.7342
  367MOL0     H48434   8.699   3.310   5.634  0.7603  4.1401  1.8751
  367MOL0     H48435   8.653   3.171   5.714  3.8891 -0.7179 -0.0508
  367MOL0     H48436   8.758   3.400   5.871 -0.1012  0.2836  0.5240
  367MOL0     H48437   8.774   3.227   5.906 -1.6972 -0.1030 -0.9566
  367MOL0     H48438   8.927   3.207   5.718 -1.6774 -1.9955  1.2518
  367MOL0     H48439   8.986   3.270   5.877  0.3113 -1.0102 -0.5474
  367MOL0     H48440   8.904   3.468   5.673 -0.1080  0.6129  0.5621
  367MOL0     H48441   9.007   3.491   5.819  1.3072  1.5733 -1.7941
  367MOL0     H48442   9.275   3.363   5.521 -0.9542  0.1198 -1.1554
  367MOL0     H48443   8.504   3.261   5.468  0.5666 -1.8047  1.3826
  367MOL0     H48444   8.328   3.251   5.365 -0.0059  0.8186 -0.8879
  368MOL0     O48445   8.806   7.885   7.853  0.0517  0.8215 -1.0601
  368MOL0     C48446   8.884   7.974   7.822  0.1849 -0.5357  0.4257
  368MOL0     O48447   8.852   8.073   7.728 -0.0510 -0.2678  0.3153
  368MOL0     C48448   8.734   8.050   7.658 -0.6171  0.1499 -1.1901
  368MOL0     C48449   8.741   8.048   7.519 -0.5661 -0.0982  0.0346
  368MOL0     C48450   8.619   8.065   7.441 -0.3222  0.3505 -0.2920
  368MOL0     C48451   8.496   8.062   7.504  0.3831  0.0539 -1.3138
  368MOL0     O48452   8.384   8.063   7.438  0.3833  0.1317  0.0228
  368MOL0     C48453   8.382   8.134   7.309 -0.8008  0.3242  0.4358
  368MOL0     C48454   8.234   8.142   7.268 -0.0807 -0.2869  0.0925
  368MOL0     C48455   8.179   8.009   7.223  0.6237  0.6241  0.0219
  368MOL0     C48456   8.034   8.037   7.176  0.5467 -0.3164  0.0079
  368MOL0     C48457   7.922   7.963   7.257 -1.0144 -1.0306  1.1258
  368MOL0     C48458   7.785   8.009   7.212  0.5924 -0.6261  0.4157
  368MOL0     C48459   7.672   7.943   7.278 -0.5123  0.0031 -0.8215
  368MOL0     C48460   7.630   8.004   7.414  0.5017 -0.0631  0.1987
  368MOL0     N48461   7.495   8.016   7.423  0.1289 -0.2731  0.2938
  368MOL0     C48462   7.402   7.930   7.380  0.1506 -0.1430  0.5185
  368MOL0     C48463   7.298   8.000   7.359  1.6938 -0.7752 -0.4829
  368MOL0     C48464   7.156   7.963   7.324 -0.4419 -0.3289 -0.2501
  368MOL0     C48465   7.054   8.002   7.440 -0.0910 -0.8883 -0.1007
  368MOL0     C48466   6.923   7.954   7.396 -0.4376  0.0531 -0.0179
  368MOL0     C48467   6.809   7.990   7.495  0.5260  0.0871 -0.9641
  368MOL0     O48468   6.693   7.911   7.456 -0.0147 -0.7497 -0.5745
  368MOL0     C48469   6.572   7.937   7.522  0.6840  0.3776 -0.9875
  368MOL0     C48470   6.463   7.855   7.488  0.9734 -0.6717  0.5083
  368MOL0     C48471   6.351   7.840   7.565 -0.5204 -0.0240 -0.0927
  368MOL0     C48472   6.336   7.937   7.669  0.0737 -0.3696 -0.6518
  368MOL0     C48473   6.225   7.926   7.764  0.6409 -0.9992  0.5089
  368MOL0     O48474   6.158   7.807   7.752  0.1753  0.0753 -0.4043
  368MOL0     C48475   6.073   7.782   7.860 -0.0324 -0.4484  0.7248
  368MOL0     C48476   6.086   7.662   7.934  0.6774 -0.2023 -0.4489
  368MOL0     C48477   5.989   7.623   8.026 -0.2934 -0.1270 -0.2298
  368MOL0     C48478   5.874   7.702   8.044  0.6240  1.0278 -0.0014
  368MOL0     O48479   5.788   7.665   8.137 -0.2650  0.9592  0.7874
  368MOL0     C48480   5.642   7.672   8.102  0.2625  0.1218  0.3891
  368MOL0     C48481   5.562   7.616   8.217 -0.8874 -0.8826 -0.0043
  368MOL0     C48482   5.417   7.636   8.177 -0.0772  0.0753 -0.3040
  368MOL0     C48483   5.332   7.563   8.289 -0.8500  0.3273  0.5948
  368MOL0     C48484   5.185   7.590   8.259 -1.0886  0.6393  0.3097
  368MOL0     C48485   5.085   7.510   8.352 -0.4184  0.5868  0.1067
  368MOL0     C48486   5.092   7.556   8.501  1.0698  0.3987 -0.5504
  368MOL0     C48487   4.990   7.485   8.592 -0.5229 -0.7028  0.4878
  368MOL0    Cl48488   4.832   7.471   8.518 -0.0326  0.2231  0.0888
  368MOL0     C48489   5.858   7.816   7.966  0.6294 -0.2149 -0.2839
  368MOL0     C48490   5.956   7.857   7.876 -0.2392 -0.1206 -0.4140
  368MOL0     O48491   6.203   8.020   7.842 -0.6328 -0.2301 -0.1574
  368MOL0     C48492   6.430   8.034   7.685 -0.4556 -0.0160 -0.0493
  368MOL0     C48493   6.543   8.040   7.611 -0.2003 -0.1628 -0.4614
  368MOL0     N48494   7.322   8.130   7.393  0.3036  0.5579  0.0415
  368MOL0     N48495   7.439   8.141   7.439  0.5837  0.7352 -0.5045
  368MOL0     C48496   8.500   8.042   7.647  0.4148 -0.2161  0.6065
  368MOL0     C48497   8.617   8.048   7.722 -0.2550  0.6354  0.3381
  368MOL0     C48498   9.012   7.979   7.888  0.2486  0.4926 -0.6274
  368MOL0     C48499   9.038   7.885   7.996  0.1760 -0.2162  0.8129
  368MOL0     C48500   9.162   7.888   8.056  0.1384  0.0230 -0.6720
  368MOL0     C48501   9.255   7.986   8.036 -0.2123  0.0544 -0.3560
  368MOL0     O48502   9.378   7.971   8.109  0.0108 -0.2726  0.3425
  368MOL0     C48503   9.485   8.046   8.052  0.9710  0.7334 -0.7629
  368MOL0     C48504   9.614   7.993   8.120 -0.8421  1.2157  0.1463
  368MOL0     C48505   9.735   8.078   8.090  0.0259  0.4846 -0.1000
  368MOL0     C48506   9.862   8.023   8.172  0.1955 -0.2900 -0.3668
  368MOL0     C48507   9.901   7.887   8.132 -0.1991 -0.4143 -0.5220
  368MOL0     C48508   9.942   7.780   8.094 -0.7130  0.5231  0.7465
  368MOL0     C48509   9.226   8.073   7.937 -1.0262  0.3812 -0.3040
  368MOL0     C48510   9.112   8.072   7.862  0.3111  0.1086 -0.4949
  368MOL0     H48511   8.838   8.046   7.470  0.9862  1.5497  2.7929
  368MOL0     H48512   8.616   8.053   7.333 -1.6807  0.5799 -0.2945
  368MOL0     H48513   8.432   8.077   7.231 -2.0980 -2.3100  1.4030
  368MOL0     H48514   8.421   8.235   7.325  0.3993 -0.1614  0.6717
  368MOL0     H48515   8.223   8.210   7.183 -1.4804 -1.8816 -1.0406
  368MOL0     H48516   8.187   8.192   7.353  1.3952  3.0459 -0.8858
  368MOL0     H48517   8.194   7.931   7.298 -2.2690  2.1898  2.4576
  368MOL0     H48518   8.227   7.985   7.128 -3.2046 -1.2744 -1.6665
  368MOL0     H48519   8.006   8.142   7.163  0.8347 -0.1054  1.0409
  368MOL0     H48520   8.034   7.998   7.074  4.3982 -2.4845  0.6445
  368MOL0     H48521   7.931   7.993   7.362 -0.0292  1.9685  0.2688
  368MOL0     H48522   7.933   7.855   7.247  2.0781 -0.8179  1.2899
  368MOL0     H48523   7.774   7.997   7.103  2.9538 -2.8076  0.3296
  368MOL0     H48524   7.783   8.118   7.219  1.0303 -0.5758 -0.1900
  368MOL0     H48525   7.582   7.948   7.216 -2.4640  2.6268  1.9509
  368MOL0     H48526   7.694   7.839   7.301  1.8044  0.7822  0.9000
  368MOL0     H48527   7.680   8.101   7.413  0.4355 -0.0190 -0.9547
  368MOL0     H48528   7.682   7.951   7.495  1.2563 -1.3515 -1.0688
  368MOL0     H48529   7.415   7.823   7.365  1.8269  0.1693 -0.4681
  368MOL0     H48530   7.147   7.854   7.315 -1.6120 -0.2334 -0.4816
  368MOL0     H48531   7.132   8.024   7.236  1.0684  0.0253 -0.4400
  368MOL0     H48532   7.043   8.110   7.453 -1.4895 -1.0703  0.3310
  368MOL0     H48533   7.073   7.959   7.538 -0.7380 -1.0092 -0.0257
  368MOL0     H48534   6.901   8.017   7.309 -1.9178  1.8443  1.5706
  368MOL0     H48535   6.926   7.849   7.365 -1.1574  0.0858 -0.2180
  368MOL0     H48536   6.795   8.098   7.482 -0.0776  0.3958  1.6224
  368MOL0     H48537   6.837   7.980   7.601 -1.8884  1.6022 -0.0809
  368MOL0     H48538   6.475   7.788   7.403 -0.2590  1.5669 -1.5713
  368MOL0     H48539   6.280   7.768   7.526  2.2782 -3.2679  0.3827
  368MOL0     H48540   6.167   7.590   7.929  0.2120 -0.8353  0.7165
  368MOL0     H48541   5.992   7.525   8.074 -1.1547 -1.1876 -2.2310
  368MOL0     H48542   5.618   7.612   8.013  0.1133 -2.2053  1.9113
  368MOL0     H48543   5.608   7.774   8.086  1.5933  0.3362 -1.4070
  368MOL0     H48544   5.578   7.672   8.311 -0.8221 -1.2691  0.2168
  368MOL0     H48545   5.592   7.513   8.237  3.5848  0.2582  0.4125
  368MOL0     H48546   5.396   7.584   8.083 -1.6715 -1.3786  0.7728
  368MOL0     H48547   5.389   7.742   8.173  0.8042  0.3056 -0.4887
  368MOL0     H48548   5.351   7.456   8.285 -2.4034 -0.0654  2.2351
  368MOL0     H48549   5.349   7.596   8.392 -0.9975  3.3028 -0.2398
  368MOL0     H48550   5.168   7.566   8.154  1.8228 -2.5817  0.3715
  368MOL0     H48551   5.156   7.695   8.272 -0.2790  1.3409 -2.8375
  368MOL0     H48552   5.100   7.402   8.340  0.3615  0.6226  0.6569
  368MOL0     H48553   4.983   7.536   8.324 -0.3251  0.2663 -0.5434
  368MOL0     H48554   5.189   7.528   8.543  1.9646 -1.1421 -3.4203
  368MOL0     H48555   5.091   7.666   8.503  0.8561  0.4185 -1.3643
  368MOL0     H48556   4.967   7.531   8.688 -4.1348 -2.5841  0.6822
  368MOL0     H48557   5.010   7.380   8.614  0.4294 -0.6867 -0.2155
  368MOL0     H48558   5.779   7.887   7.983  2.4670  1.5659  1.3321
  368MOL0     H48559   5.942   7.938   7.805 -0.0085 -1.2672 -1.7844
  368MOL0     H48560   6.428   8.109   7.763 -0.0909  3.7507 -3.3027
  368MOL0     H48561   6.622   8.109   7.638  1.7765 -3.0613  1.7585
  368MOL0     H48562   8.408   8.031   7.705 -0.2739 -1.6673 -0.6853
  368MOL0     H48563   8.610   8.045   7.831  1.9041 -2.2713  0.5197
  368MOL0     H48564   8.958   7.816   8.023 -0.0246  0.5900  2.3918
  368MOL0     H48565   9.193   7.809   8.124 -1.6107 -0.0932  0.0380
  368MOL0     H48566   9.481   8.148   8.091 -0.8943  0.8344 -1.1351
  368MOL0     H48567   9.494   8.048   7.943  0.2161  0.2844 -0.8360
  368MOL0     H48568   9.600   7.992   8.228  0.2850  2.9974  0.3465
  368MOL0     H48569   9.627   7.890   8.084 -0.3965  1.1815  0.3997
  368MOL0     H48570   9.725   8.182   8.123 -1.4645 -0.3064  2.1942
  368MOL0     H48571   9.763   8.082   7.985  1.2202  3.0773  0.2453
  368MOL0     H48572   9.928   8.110   8.175 -0.8626  0.5312  0.2378
  368MOL0     H48573   9.832   7.993   8.273  0.3230  0.0875 -0.2144
  368MOL0     H48574   9.991   7.689   8.066  0.3248  0.0908  3.6338
  368MOL0     H48575   9.301   8.151   7.922 -2.6244  1.8835 -0.8942
  368MOL0     H48576   9.105   8.143   7.781 -1.7591  1.5554  0.8666
  369MOL0     O48577   9.530   8.117   6.079  0.1888 -0.5736 -0.2292
  369MOL0     C48578   9.617   8.030   6.113 -0.9597 -0.5215  0.5754
  369MOL0     O48579   9.606   7.895   6.074  0.4253  0.1767 -0.5300
  369MOL0     C48580   9.478   7.848   6.053 -0.9782  0.9413  0.4817
  369MOL0     C48581   9.392   7.838   6.159  0.3325  0.3770 -0.6017
  369MOL0     C48582   9.264   7.784   6.146  0.5045 -0.7262 -0.8055
  369MOL0     C48583   9.233   7.730   6.023  1.2247  0.4502  0.8103
  369MOL0     O48584   9.111   7.665   5.994  1.2707  0.1728 -0.7844
  369MOL0     C48585   8.986   7.741   6.023  0.1508  0.0454  0.6504
  369MOL0     C48586   8.890   7.644   6.098  0.6157  0.0902 -1.3336
  369MOL0     C48587   8.747   7.682   6.068  0.5588 -0.6271  0.0853
  369MOL0     C48588   8.645   7.608   6.157  0.7055  0.8353  0.9458
  369MOL0     C48589   8.494   7.630   6.138 -0.7250  0.7049  0.0955
  369MOL0     C48590   8.445   7.769   6.151 -1.0259  0.0209  0.3914
  369MOL0     C48591   8.298   7.763   6.126  0.0960 -0.3044 -0.4940
  369MOL0     C48592   8.243   7.906   6.151  0.0268  0.6794 -1.1597
  369MOL0     N48593   8.100   7.920   6.107 -0.4975  1.0499  1.3412
  369MOL0     C48594   7.996   7.869   6.181  0.5184 -1.0184  0.1742
  369MOL0     C48595   7.887   7.876   6.091 -0.3610 -0.0825 -0.1812
  369MOL0     C48596   7.738   7.842   6.125 -1.2766 -0.9634 -0.8284
  369MOL0     C48597   7.724   7.694   6.104  0.3836  0.3525  0.4281
  369MOL0     C48598   7.578   7.636   6.092 -0.4264 -0.3387  0.3175
  369MOL0     C48599   7.480   7.697   5.995  0.4501  0.1672 -0.0606
  369MOL0     O48600   7.438   7.835   6.032  0.7694  0.2669  0.2813
  369MOL0     C48601   7.348   7.852   6.128 -0.3111 -0.2354 -0.5576
  369MOL0     C48602   7.333   7.987   6.171 -0.0679  0.4091  0.1983
  369MOL0     C48603   7.233   8.017   6.267 -0.8230 -0.8488 -0.8565
  369MOL0     C48604   7.165   7.917   6.334  0.2769  0.1169 -0.4497
  369MOL0     C48605   7.063   7.946   6.436  0.3296 -0.7675 -0.1582
  369MOL0     O48606   7.008   7.843   6.498  0.3077  0.1706 -0.5027
  369MOL0     C48607   6.900   7.867   6.583  0.1065 -0.2359 -0.0906
  369MOL0     C48608   6.770   7.920   6.538  0.1490  0.3030  0.0354
  369MOL0     C48609   6.666   7.936   6.630 -0.6857  0.8593  1.0705
  369MOL0     C48610   6.689   7.918   6.763 -0.2201  0.0309 -0.6442
  369MOL0     O48611   6.578   7.911   6.848  0.4959  0.4363  0.4016
  369MOL0     C48612   6.596   7.899   6.993 -0.2339 -0.1226  0.3280
  369MOL0     C48613   6.458   7.914   7.063 -0.4634  0.2364 -0.4944
  369MOL0     C48614   6.379   7.788   7.098 -0.5768  0.2168  0.2606
  369MOL0     C48615   6.336   7.705   6.968 -0.4564 -0.1184 -0.2988
  369MOL0     C48616   6.259   7.573   6.996  0.5828 -0.6634  0.0427
  369MOL0     C48617   6.134   7.611   7.084  0.0877 -0.2519 -0.8013
  369MOL0     C48618   6.047   7.487   7.108  0.5874  0.4546 -0.3518
  369MOL0     C48619   5.924   7.520   7.192  0.4655 -0.0687  0.3718
  369MOL0    Cl48620   5.858   7.389   7.288  0.1643  0.3131  0.1587
  369MOL0     C48621   6.807   7.861   6.803 -0.2125 -0.3474  0.0879
  369MOL0     C48622   6.910   7.829   6.714 -0.6138  0.1453 -0.7124
  369MOL0     O48623   7.019   8.060   6.445  0.4169 -0.5580 -0.0951
  369MOL0     C48624   7.186   7.784   6.292  0.2898 -0.2285 -0.6076
  369MOL0     C48625   7.271   7.754   6.191  0.8260 -0.0086  0.9219
  369MOL0     N48626   7.934   7.933   5.971  0.4538 -0.5008 -0.3818
  369MOL0     N48627   8.060   7.955   5.976 -0.9848 -0.4064 -0.6564
  369MOL0     C48628   9.326   7.730   5.916 -1.2843  0.7403  0.4338
  369MOL0     C48629   9.451   7.791   5.928 -0.3669  0.3923  0.5729
  369MOL0     C48630   9.748   8.070   6.167  0.0574 -0.2534  0.3153
  369MOL0     C48631   9.847   7.977   6.186  0.1660  0.3671 -0.5124
  369MOL0     C48632   9.970   8.008   6.246  0.5415  0.5351 -0.1482
  369MOL0     C48633  10.001   8.141   6.264 -0.7260  0.2639 -1.0824
  369MOL0     O48634  10.131   8.170   6.303  0.2651 -0.6129  0.3328
  369MOL0     C48635  10.169   8.300   6.330 -0.1942  0.4007  1.7229
  369MOL0     C48636  10.316   8.329   6.368 -0.5038  0.4138 -0.7831
  369MOL0     C48637  10.347   8.479   6.334 -0.3495 -1.4991 -0.7265
  369MOL0     C48638  10.266   8.586   6.414 -0.5692 -0.4486  0.3847
  369MOL0     C48639  10.330   8.718   6.423  0.4108 -0.5802  0.2422
  369MOL0     C48640  10.397   8.821   6.435 -0.0923  0.3165 -0.0347
  369MOL0     C48641   9.903   8.241   6.232 -0.1699  0.0244 -0.0303
  369MOL0     C48642   9.778   8.198   6.180 -0.7771 -0.6266  0.0243
  369MOL0     H48643   9.418   7.878   6.256 -0.3013 -0.1482 -0.2140
  369MOL0     H48644   9.200   7.791   6.234  0.4817  0.9888 -0.9267
  369MOL0     H48645   8.947   7.768   5.925  2.2041 -0.1969 -0.2809
  369MOL0     H48646   8.990   7.828   6.089  0.0903 -1.6958  3.0867
  369MOL0     H48647   8.913   7.647   6.205 -0.7573  0.6882 -1.0324
  369MOL0     H48648   8.917   7.547   6.054  0.1774  0.2614 -2.0034
  369MOL0     H48649   8.721   7.662   5.963 -0.4644 -0.5565  0.3192
  369MOL0     H48650   8.728   7.789   6.074  0.6054 -0.6930  1.8570
  369MOL0     H48651   8.666   7.502   6.140  3.8337  1.7415 -1.9800
  369MOL0     H48652   8.658   7.625   6.264  0.7519 -0.8132  1.2337
  369MOL0     H48653   8.443   7.565   6.209 -0.3417 -1.7899 -1.7768
  369MOL0     H48654   8.470   7.597   6.037  1.2440  1.4727 -0.6847
  369MOL0     H48655   8.491   7.839   6.081 -0.4011  0.6070  1.3861
  369MOL0     H48656   8.457   7.810   6.251 -1.1184  0.4712  0.2233
  369MOL0     H48657   8.278   7.735   6.022 -4.6364 -4.4382  1.0826
  369MOL0     H48658   8.245   7.693   6.191 -1.7584  2.7249  1.4845
  369MOL0     H48659   8.310   7.981   6.107  3.7239 -1.9185 -0.3456
  369MOL0     H48660   8.253   7.924   6.258 -7.2220  0.6228  0.0465
  369MOL0     H48661   7.989   7.827   6.281  0.0043  2.3522  1.6798
  369MOL0     H48662   7.665   7.898   6.066 -1.2347  0.3937  0.3514
  369MOL0     H48663   7.709   7.874   6.225  2.7029 -1.6307  0.7218
  369MOL0     H48664   7.774   7.652   6.191  4.4788  3.6827  0.0070
  369MOL0     H48665   7.779   7.652   6.019  0.9653  0.5863  0.6860
  369MOL0     H48666   7.582   7.533   6.055 -0.9784 -0.3018  0.1398
  369MOL0     H48667   7.529   7.632   6.190  0.1248 -2.5060  0.5374
  369MOL0     H48668   7.396   7.626   5.996  1.0420 -0.6137  2.9885
  369MOL0     H48669   7.533   7.691   5.899 -0.4609  2.1205 -0.7269
  369MOL0     H48670   7.383   8.065   6.116 -3.5079  2.4529 -0.3361
  369MOL0     H48671   7.221   8.117   6.307  4.2395 -1.3205  2.9046
  369MOL0     H48672   6.756   7.933   6.432  0.6660  2.0772  0.1408
  369MOL0     H48673   6.567   7.968   6.602  0.0122  2.6625  0.5642
  369MOL0     H48674   6.666   7.972   7.033 -2.3756  1.0884  2.0341
  369MOL0     H48675   6.637   7.800   7.017 -0.4786 -0.0051  1.2694
  369MOL0     H48676   6.389   7.982   7.012 -3.4116 -0.4299  2.2668
  369MOL0     H48677   6.485   7.956   7.160 -1.2988  1.7689 -0.8885
  369MOL0     H48678   6.291   7.812   7.158 -1.5271 -1.6623 -0.3084
  369MOL0     H48679   6.441   7.721   7.159 -0.0337  1.7474  1.4780
  369MOL0     H48680   6.278   7.773   6.905 -0.8369  0.3172  0.5034
  369MOL0     H48681   6.425   7.675   6.912  2.2339  1.5992  2.7057
  369MOL0     H48682   6.322   7.495   7.039 -1.5525 -2.0943  0.7242
  369MOL0     H48683   6.218   7.519   6.910 -6.1801  1.1891  1.5078
  369MOL0     H48684   6.075   7.695   7.047 -0.1694  0.1612  0.4886
  369MOL0     H48685   6.174   7.634   7.183  2.8396 -1.9579 -1.3962
  369MOL0     H48686   6.020   7.446   7.010  1.2452 -4.0072  1.0899
  369MOL0     H48687   6.089   7.395   7.150 -0.8057 -0.3852 -0.7066
  369MOL0     H48688   5.847   7.566   7.129  1.1558  3.4852  1.9029
  369MOL0     H48689   5.958   7.591   7.267  1.4775 -2.1004  1.9386
  369MOL0     H48690   6.826   7.844   6.909  1.4611  1.8299  0.1946
  369MOL0     H48691   6.999   7.773   6.742 -0.7073  0.3368 -0.0414
  369MOL0     H48692   7.135   7.700   6.338  0.9104  0.9497  2.4480
  369MOL0     H48693   7.281   7.652   6.153 -0.7091  0.0468  0.2772
  369MOL0     H48694   9.298   7.694   5.817 -2.3604  1.6402  0.3906
  369MOL0     H48695   9.512   7.817   5.842 -1.1930  0.4962  0.0062
  369MOL0     H48696   9.828   7.871   6.173  2.6007 -0.2982  0.6918
  369MOL0     H48697  10.041   7.932   6.274  2.8802  2.0548 -1.5587
  369MOL0     H48698  10.106   8.339   6.410 -0.4771  2.9852  0.3246
  369MOL0     H48699  10.148   8.357   6.239 -0.6212 -0.5970  1.1788
  369MOL0     H48700  10.316   8.311   6.475 -2.1846  0.9011 -0.6659
  369MOL0     H48701  10.396   8.273   6.318  1.3350 -0.1116  2.4822
  369MOL0     H48702  10.331   8.481   6.226  0.1252 -1.2029 -0.7918
  369MOL0     H48703  10.451   8.493   6.366 -0.6018 -1.4594  0.1022
  369MOL0     H48704  10.173   8.598   6.358 -0.1577 -2.0578 -0.7048
  369MOL0     H48705  10.241   8.547   6.513 -3.7473 -0.7010 -0.4255
  369MOL0     H48706  10.448   8.914   6.453 -1.9727  1.3047  0.5003
  369MOL0     H48707   9.944   8.341   6.243  0.1943 -0.0921 -0.3086
  369MOL0     H48708   9.704   8.277   6.162 -2.0651 -1.8714 -0.3407
  370MOL0     O48709   2.421  11.267   1.750 -0.0483  0.4591 -0.1624
  370MOL0     C48710   2.501  11.173   1.727  0.3338  1.2575  0.3590
  370MOL0     O48711   2.517  11.106   1.605 -0.4556  0.4392 -0.4046
  370MOL0     C48712   2.463  11.166   1.494 -0.1461  0.0908  0.1215
  370MOL0     C48713   2.347  11.105   1.429  0.6873 -0.7989 -0.5649
  370MOL0     C48714   2.306  11.154   1.305 -0.3159 -0.2294 -0.6705
  370MOL0     C48715   2.379  11.259   1.243  0.6002 -0.2240  0.7841
  370MOL0     O48716   2.338  11.318   1.129  0.2436 -0.5659  0.0099
  370MOL0     C48717   2.332  11.461   1.114 -0.7542  0.9751 -0.3342
  370MOL0     C48718   2.214  11.498   1.200 -0.4675 -0.5127  0.0107
  370MOL0     C48719   2.087  11.432   1.151 -0.5660 -0.6993  0.3442
  370MOL0     C48720   1.972  11.453   1.247  0.0288 -0.4456  0.8443
  370MOL0     C48721   1.840  11.430   1.187 -0.1678 -0.3107  0.2853
  370MOL0     C48722   1.732  11.425   1.295  0.0109  0.5069 -0.2986
  370MOL0     C48723   1.588  11.383   1.246 -0.6300  0.3308 -0.0937
  370MOL0     C48724   1.556  11.429   1.097  0.4423  0.0464  0.0577
  370MOL0     N48725   1.409  11.428   1.060  0.0713 -1.0017  0.3880
  370MOL0     C48726   1.355  11.386   0.938 -0.2905  0.0083 -0.0347
  370MOL0     C48727   1.221  11.396   0.961  0.3418  0.8968  0.4506
  370MOL0     C48728   1.109  11.343   0.855 -0.3378 -0.7663 -0.0884
  370MOL0     C48729   1.086  11.183   0.878 -0.4544 -0.2976  0.2559
  370MOL0     C48730   1.014  11.148   1.011 -0.1476  0.4096 -0.0327
  370MOL0     C48731   0.872  11.203   1.025 -1.0538  0.5316  0.5939
  370MOL0     O48732   0.804  11.181   0.900  0.5166 -0.0379 -0.2976
  370MOL0     C48733   0.671  11.215   0.897  0.3949  0.4560 -0.1611
  370MOL0     C48734   0.603  11.301   0.983  0.0951 -0.6039 -1.0406
  370MOL0     C48735   0.464  11.335   0.976 -0.2536 -0.7995 -0.7659
  370MOL0     C48736   0.391  11.274   0.882  0.3204 -0.3361  1.3080
  370MOL0     C48737   0.243  11.284   0.876  0.3014  0.3707  0.6131
  370MOL0     O48738   0.180  11.211   0.780 -0.0353 -0.1435  0.1460
  370MOL0     C48739   0.041  11.207   0.765 -0.5831 -0.9969  0.4141
  370MOL0     C48740   0.013  11.164   0.632 -0.1001 -0.3043  0.3687
  370MOL0     C48741  -0.116  11.139   0.584 -1.2737  0.3948  0.2016
  370MOL0     C48742  -0.219  11.167   0.676  0.8201 -0.2485  0.0812
  370MOL0     O48743  -0.345  11.158   0.615 -0.1223 -0.6992  0.1820
  370MOL0     C48744  -0.451  11.237   0.661  0.0608  0.0487 -0.5814
  370MOL0     C48745  -0.570  11.201   0.567  0.5257  0.3702  0.4126
  370MOL0     C48746  -0.580  11.271   0.434  1.4493 -0.3168  0.5580
  370MOL0     C48747  -0.704  11.220   0.352  0.7289 -0.2767  0.6093
  370MOL0     C48748  -0.711  11.291   0.213  0.7771  0.3893  0.4401
  370MOL0     C48749  -0.821  11.265   0.114  0.6363  0.4008  0.9201
  370MOL0     C48750  -0.797  11.361  -0.003  0.5622  0.1505  0.4519
  370MOL0     C48751  -0.905  11.339  -0.108  0.7154 -0.5996 -0.2587
  370MOL0    Cl48752  -1.044  11.416  -0.037 -0.0727 -0.0672 -0.2824
  370MOL0     C48753  -0.189  11.222   0.807  0.3947 -0.1680 -0.2367
  370MOL0     C48754  -0.061  11.233   0.850  0.8668  0.2628  0.4445
  370MOL0     O48755   0.188  11.343   0.967  0.1639 -0.5062 -0.6320
  370MOL0     C48756   0.455  11.192   0.780 -0.3361 -0.5466  0.1431
  370MOL0     C48757   0.593  11.169   0.796 -0.1771  0.1144 -0.2012
  370MOL0     N48758   1.195  11.452   1.081 -0.0223 -0.4807 -0.6937
  370MOL0     N48759   1.306  11.477   1.138  0.0009  0.3253 -0.0336
  370MOL0     C48760   2.486  11.318   1.303 -0.6466  0.1838 -1.4201
  370MOL0     C48761   2.527  11.269   1.425 -0.1895 -0.4667  0.0026
  370MOL0     C48762   2.576  11.130   1.849 -0.5552 -0.2666  0.0582
  370MOL0     C48763   2.544  11.192   1.965  0.4575  0.2394 -0.4794
  370MOL0     C48764   2.618  11.167   2.084  0.6725  0.0683  0.4884
  370MOL0     C48765   2.731  11.087   2.082  1.0329 -0.9487  0.3532
  370MOL0     O48766   2.803  11.098   2.193 -0.2787 -0.2628  0.0656
  370MOL0     C48767   2.819  10.983   2.279  0.2683  0.7407  0.4131
  370MOL0     C48768   2.944  10.904   2.254  0.2168  0.2923  0.0589
  370MOL0     C48769   3.074  10.976   2.245 -0.1669 -0.3622 -0.7665
  370MOL0     C48770   3.097  11.075   2.369 -0.6175  0.1199  0.7629
  370MOL0     C48771   3.215  11.155   2.356 -0.1962 -0.7578 -0.4209
  370MOL0     C48772   3.312  11.223   2.357  0.2237 -0.4674 -0.5042
  370MOL0     C48773   2.772  11.030   1.965  0.3647  0.4133  0.2721
  370MOL0     C48774   2.695  11.049   1.850  0.7772 -0.2015  0.6715
  370MOL0     H48775   2.297  11.035   1.495  0.5667 -1.0977 -0.9759
  370MOL0     H48776   2.215  11.110   1.265  0.8332 -1.7292 -1.7380
  370MOL0     H48777   2.324  11.495   1.011  0.7524  0.1143 -0.7690
  370MOL0     H48778   2.418  11.514   1.155  0.4529 -1.8293  1.0841
  370MOL0     H48779   2.196  11.605   1.185 -0.8364 -0.7133 -1.0799
  370MOL0     H48780   2.229  11.477   1.307  3.0606 -1.8111 -0.6268
  370MOL0     H48781   2.111  11.329   1.123 -0.6769 -0.2519 -1.4850
  370MOL0     H48782   2.059  11.497   1.069 -0.0511 -1.5615 -0.5340
  370MOL0     H48783   1.988  11.390   1.335  1.9021 -1.0184  0.1524
  370MOL0     H48784   1.970  11.553   1.292 -1.0701 -1.1155  2.3500
  370MOL0     H48785   1.839  11.339   1.128 -3.0687  0.2260 -0.6864
  370MOL0     H48786   1.810  11.512   1.121 -3.4543  0.0779  2.0264
  370MOL0     H48787   1.712  11.516   1.352  1.6661  2.3128 -2.4180
  370MOL0     H48788   1.768  11.347   1.363  1.7232  0.9774 -0.6224
  370MOL0     H48789   1.582  11.273   1.248  0.3733  0.2634  2.6853
  370MOL0     H48790   1.505  11.423   1.304 -1.5513  1.3340 -2.0043
  370MOL0     H48791   1.603  11.379   1.012 -0.3734 -2.9130  1.2035
  370MOL0     H48792   1.592  11.532   1.098 -0.5281  0.4010 -0.1419
  370MOL0     H48793   1.409  11.339   0.857  1.9867 -0.1691  1.5080
  370MOL0     H48794   1.160  11.369   0.762 -1.2023  3.3833  0.4070
  370MOL0     H48795   1.011  11.393   0.859 -0.3881 -0.8754  0.0438
  370MOL0     H48796   1.184  11.133   0.880 -0.9719 -1.4880 -1.7946
  370MOL0     H48797   1.021  11.147   0.799 -1.1789  2.9538 -0.7768
  370MOL0     H48798   1.001  11.043   1.037  3.0414  0.5514  2.8898
  370MOL0     H48799   1.059  11.192   1.100  0.7600  0.2268 -0.3936
  370MOL0     H48800   0.886  11.306   1.058 -2.1435  0.4970  1.1848
  370MOL0     H48801   0.815  11.162   1.109 -4.0456  0.3987 -1.3410
  370MOL0     H48802   0.659  11.335   1.069 -1.4177 -4.4737  1.7380
  370MOL0     H48803   0.415  11.398   1.049 -0.5615  0.1664 -1.7849
  370MOL0     H48804   0.094  11.162   0.559 -1.5587  0.7748 -1.3463
  370MOL0     H48805  -0.127  11.122   0.478 -3.2452  0.4538  0.3492
  370MOL0     H48806  -0.426  11.342   0.646 -1.2918  0.4280 -0.2580
  370MOL0     H48807  -0.487  11.226   0.763  0.1247 -0.9280 -0.6520
  370MOL0     H48808  -0.648  11.221   0.641  3.8145  1.6548  3.9112
  370MOL0     H48809  -0.569  11.092   0.554  1.1561  0.5636 -1.4105
  370MOL0     H48810  -0.490  11.244   0.378  0.3382  0.3958 -1.7191
  370MOL0     H48811  -0.578  11.378   0.458  3.1277 -0.1152 -0.3304
  370MOL0     H48812  -0.689  11.112   0.336 -2.2050 -0.6485 -0.2232
  370MOL0     H48813  -0.798  11.242   0.403 -0.8027 -0.9905 -1.7488
  370MOL0     H48814  -0.618  11.266   0.161 -0.7372 -0.8703 -1.8765
  370MOL0     H48815  -0.698  11.399   0.224  1.8321  0.0159  3.7975
  370MOL0     H48816  -0.917  11.285   0.163  0.0568 -0.2826  0.0830
  370MOL0     H48817  -0.811  11.159   0.091 -1.0794  0.0896  1.4446
  370MOL0     H48818  -0.795  11.462   0.037  3.2668 -0.2931  1.5934
  370MOL0     H48819  -0.702  11.329  -0.046 -0.6760 -3.0088 -0.2511
  370MOL0     H48820  -0.922  11.233  -0.129  0.8297 -0.4426 -1.2044
  370MOL0     H48821  -0.874  11.388  -0.201  1.1149  0.3263  0.3391
  370MOL0     H48822  -0.269  11.269   0.864 -0.7189  0.6873 -2.4174
  370MOL0     H48823  -0.027  11.256   0.951  1.7233  2.2724 -0.2648
  370MOL0     H48824   0.403  11.139   0.701  0.2061  3.1644 -3.0139
  370MOL0     H48825   0.642  11.119   0.713 -2.5606  0.7397 -2.1093
  370MOL0     H48826   2.544  11.397   1.255  1.0266 -0.9671 -1.3967
  370MOL0     H48827   2.622  11.308   1.459  0.2899 -0.0629 -1.7346
  370MOL0     H48828   2.460  11.261   1.970  1.7446  1.8689 -0.6577
  370MOL0     H48829   2.590  11.216   2.177  0.5777  0.7120  0.1321
  370MOL0     H48830   2.744  10.908   2.254  2.0379 -0.8071 -0.6003
  370MOL0     H48831   2.799  11.014   2.382 -1.5924 -2.2072  1.0439
  370MOL0     H48832   2.949  10.822   2.326  0.2884 -0.2082 -0.5071
  370MOL0     H48833   2.942  10.853   2.157 -1.3404  0.3369  0.0506
  370MOL0     H48834   3.083  11.037   2.155 -0.5222  0.7497 -0.0773
  370MOL0     H48835   3.157  10.905   2.248  1.5101  1.5212 -0.8144
  370MOL0     H48836   3.019  11.149   2.391 -0.1882  0.2177  2.0409
  370MOL0     H48837   3.111  11.014   2.459  0.8648 -1.7757 -0.6653
  370MOL0     H48838   3.396  11.289   2.369  0.7325 -1.1786 -0.1031
  370MOL0     H48839   2.868  10.982   1.953  1.2859  2.4862 -1.1638
  370MOL0     H48840   2.722  11.005   1.755 -1.8356  0.3616 -0.4203
  371MOL0     O48841   3.880   8.380  10.098  0.3059 -0.3179  0.1089
  371MOL0     C48842   3.857   8.299  10.003  1.0590  1.1493 -1.0869
  371MOL0     O48843   3.729   8.264   9.958  0.8489 -0.9693  0.2418
  371MOL0     C48844   3.617   8.335  10.003 -0.6102 -0.2013 -0.1185
  371MOL0     C48845   3.512   8.265  10.054 -0.2529  0.7023 -0.6779
  371MOL0     C48846   3.394   8.335  10.095  0.3755  0.4445 -0.0528
  371MOL0     C48847   3.379   8.471  10.092  0.0061  0.6398 -0.3348
  371MOL0     O48848   3.264   8.536  10.130 -0.1305  0.3041  0.3812
  371MOL0     C48849   3.146   8.462  10.112 -0.0194 -0.3586 -0.5922
  371MOL0     C48850   3.034   8.544  10.150 -0.7728  0.2694 -0.4506
  371MOL0     C48851   2.902   8.498  10.106 -0.8470 -0.9059  0.3787
  371MOL0     C48852   2.792   8.586  10.152 -0.5927 -0.5526 -0.9768
  371MOL0     C48853   2.737   8.571  10.296  0.8542  0.1624  0.1605
  371MOL0     C48854   2.654   8.681  10.350  0.0506 -0.7136 -1.2511
  371MOL0     C48855   2.511   8.672  10.286 -0.3588 -0.0670 -0.1105
  371MOL0     C48856   2.410   8.754  10.355 -0.2092 -0.3404 -0.3203
  371MOL0     N48857   2.287   8.778  10.276  1.1134  0.0859 -0.9838
  371MOL0     C48858   2.247   8.721  10.161  0.6397  0.8094 -0.7004
  371MOL0     C48859   2.121   8.771  10.142 -0.3708  0.4885 -0.5587
  371MOL0     C48860   2.038   8.769  10.016 -1.0470  0.2241  0.4350
  371MOL0     C48861   2.047   8.639   9.929  0.1852 -0.0656 -1.0487
  371MOL0     C48862   1.989   8.654   9.793  0.0232  0.5499  0.2309
  371MOL0     C48863   2.035   8.540   9.701 -0.8955 -0.5203  0.1643
  371MOL0     O48864   1.965   8.416   9.734  0.3064  0.4346 -0.8082
  371MOL0     C48865   1.833   8.407   9.705  0.2438 -0.4544 -0.0214
  371MOL0     C48866   1.777   8.288   9.756  0.5128 -0.0594 -0.5550
  371MOL0     C48867   1.649   8.252   9.708  0.2003  0.3916  0.1799
  371MOL0     C48868   1.575   8.337   9.628 -0.6979 -0.3573  0.5348
  371MOL0     C48869   1.446   8.296   9.580  0.8839 -0.6894 -1.1278
  371MOL0     O48870   1.417   8.168   9.575  0.2007  0.5344  0.1464
  371MOL0     C48871   1.289   8.121   9.543 -1.0014 -0.2570 -1.1315
  371MOL0     C48872   1.270   8.020   9.445  0.2750 -0.5311 -1.1104
  371MOL0     C48873   1.140   7.970   9.420  0.0370 -0.7223 -0.5201
  371MOL0     C48874   1.025   8.018   9.483  0.6164 -1.0004  0.1546
  371MOL0     O48875   0.898   7.964   9.451 -0.1078  0.0527  0.2915
  371MOL0     C48876   0.776   8.029   9.480  0.7095  0.7298 -0.4935
  371MOL0     C48877   0.646   7.966   9.418  0.6245 -0.1537  1.0930
  371MOL0     C48878   0.515   8.016   9.496  0.8916 -0.6230 -0.0307
  371MOL0     C48879   0.386   7.959   9.437  0.8075 -0.2108 -0.2550
  371MOL0     C48880   0.265   7.979   9.524 -0.2620 -0.3230 -0.3772
  371MOL0     C48881   0.130   7.937   9.458  0.0149 -0.2081  0.6434
  371MOL0     C48882   0.013   7.976   9.546  0.1642  0.3648 -0.2190
  371MOL0     C48883  -0.115   7.951   9.472  0.1060 -0.6867 -0.3861
  371MOL0    Cl48884  -0.251   8.033   9.574  0.4706  0.0921 -0.3450
  371MOL0     C48885   1.048   8.120   9.575  0.7111 -0.2301 -0.1369
  371MOL0     C48886   1.173   8.169   9.609 -0.5180 -0.0011  0.4348
  371MOL0     O48887   1.369   8.384   9.531 -1.0621  0.4857 -0.5933
  371MOL0     C48888   1.620   8.465   9.590 -1.6395 -0.2655  0.0712
  371MOL0     C48889   1.758   8.497   9.618  0.0691  0.3757  0.0673
  371MOL0     N48890   2.092   8.851  10.245 -0.5260 -0.1494 -0.2519
  371MOL0     N48891   2.193   8.865  10.320 -0.0786  0.0451  0.5525
  371MOL0     C48892   3.489   8.544  10.048 -0.6301 -0.1696  0.1183
  371MOL0     C48893   3.610   8.476   9.996 -0.4112  0.7427 -0.7459
  371MOL0     C48894   3.977   8.257   9.938 -0.3780  0.3397  0.2559
  371MOL0     C48895   3.968   8.184   9.818  0.9600 -0.7728 -0.6329
  371MOL0     C48896   4.087   8.157   9.749  0.1663  0.2587  0.2099
  371MOL0     C48897   4.212   8.185   9.806 -0.3655 -0.1254 -0.4971
  371MOL0     O48898   4.333   8.187   9.739 -0.1152  0.1994 -0.0843
  371MOL0     C48899   4.360   8.132   9.615  0.0290 -0.2105 -0.5126
  371MOL0     C48900   4.512   8.130   9.577  0.3679  0.7402 -0.7112
  371MOL0     C48901   4.592   8.034   9.662 -0.5756  0.7530 -0.7557
  371MOL0     C48902   4.735   8.023   9.614 -0.6003 -0.7704 -0.1659
  371MOL0     C48903   4.814   7.925   9.692 -0.4616  0.4263  0.2284
  371MOL0     C48904   4.889   7.841   9.737 -0.2068 -0.1108  0.0411
  371MOL0     C48905   4.219   8.226   9.938 -0.2209  0.7412  0.3537
  371MOL0     C48906   4.104   8.271  10.001 -0.1430 -0.5497 -0.0034
  371MOL0     H48907   3.510   8.156  10.056 -1.4363  0.7200  0.6497
  371MOL0     H48908   3.308   8.284  10.139  1.7136 -2.1190 -0.1967
  371MOL0     H48909   3.146   8.380  10.184 -1.0993 -0.6565 -0.9152
  371MOL0     H48910   3.126   8.434  10.008  0.5431 -0.3590 -0.7022
  371MOL0     H48911   3.044   8.639  10.095  0.2249 -0.2079 -1.1225
  371MOL0     H48912   3.046   8.565  10.256  3.2476 -2.3283 -0.1852
  371MOL0     H48913   2.881   8.395  10.136 -0.9715 -0.5307  1.6828
  371MOL0     H48914   2.903   8.505   9.997  2.4188  1.5554  0.4125
  371MOL0     H48915   2.811   8.694  10.142 -2.4941  0.2835  2.5824
  371MOL0     H48916   2.703   8.564  10.093 -2.2291  0.5512  0.9262
  371MOL0     H48917   2.819   8.547  10.365  0.9835  1.5980  0.5407
  371MOL0     H48918   2.669   8.486  10.302  0.2327  0.7179  1.6331
  371MOL0     H48919   2.691   8.780  10.321 -1.3810  0.0001 -0.7248
  371MOL0     H48920   2.670   8.658  10.456 -0.7267 -0.2086 -1.0106
  371MOL0     H48921   2.523   8.705  10.182  1.8091 -2.6306 -0.7850
  371MOL0     H48922   2.472   8.570  10.283  3.0771 -1.5683  1.2330
  371MOL0     H48923   2.444   8.851  10.392  0.6225 -0.8070  0.1433
  371MOL0     H48924   2.363   8.705  10.441 -3.0783  1.3233 -0.7900
  371MOL0     H48925   2.315   8.659  10.103  2.1160  0.0423  1.7004
  371MOL0     H48926   2.069   8.853   9.953 -0.3436 -1.9918 -2.3964
  371MOL0     H48927   1.933   8.773  10.045 -1.8631 -1.8852 -1.8839
  371MOL0     H48928   2.003   8.553   9.981  0.9347  1.7226  2.9631
  371MOL0     H48929   2.155   8.625   9.923  0.4947  0.5791  1.7358
  371MOL0     H48930   1.881   8.645   9.807 -0.0270  1.2297  0.3153
  371MOL0     H48931   2.017   8.751   9.750 -1.3284  1.9093  2.2282
  371MOL0     H48932   2.143   8.528   9.718 -0.2795 -0.7147 -3.1773
  371MOL0     H48933   2.036   8.567   9.596  1.2838 -2.2369 -0.3485
  371MOL0     H48934   1.847   8.228   9.813  1.1857  1.2225  0.0168
  371MOL0     H48935   1.597   8.159   9.733  0.2190 -0.1304 -1.6289
  371MOL0     H48936   1.344   7.975   9.379 -0.5060 -0.1914 -2.2312
  371MOL0     H48937   1.130   7.898   9.339  1.5375  0.2982 -1.6749
  371MOL0     H48938   0.776   8.132   9.442 -1.5515  1.4633  1.2460
  371MOL0     H48939   0.764   8.038   9.588  0.5929  1.1228 -0.5367
  371MOL0     H48940   0.642   7.857   9.426 -2.8141 -0.2098  0.2018
  371MOL0     H48941   0.637   7.990   9.312  3.8794 -0.5193  0.6292
  371MOL0     H48942   0.510   8.125   9.506 -1.8642 -0.4701 -1.8276
  371MOL0     H48943   0.509   7.977   9.598 -4.1645  0.2826  0.2623
  371MOL0     H48944   0.371   7.996   9.335  0.5481 -0.3587 -0.2699
  371MOL0     H48945   0.398   7.850   9.439 -2.4628 -0.7140 -1.4578
  371MOL0     H48946   0.259   8.088   9.538  0.7099 -0.4287  1.0394
  371MOL0     H48947   0.291   7.948   9.625  1.0005  0.2747 -0.4967
  371MOL0     H48948   0.124   7.827   9.458 -1.9486 -0.1805  2.8401
  371MOL0     H48949   0.112   7.977   9.358 -5.1054 -0.8944  1.0059
  371MOL0     H48950   0.025   7.927   9.642  2.6816 -0.0329 -0.6737
  371MOL0     H48951   0.018   8.081   9.577 -2.8273  0.7934 -0.8054
  371MOL0     H48952  -0.134   7.845   9.454  1.6077 -0.8827 -0.9173
  371MOL0     H48953  -0.099   7.992   9.373  2.2823  0.7727  0.4970
  371MOL0     H48954   0.958   8.162   9.619  0.3793 -0.9192 -0.1467
  371MOL0     H48955   1.166   8.247   9.685 -2.4872 -0.5388  0.8685
  371MOL0     H48956   1.564   8.536   9.530  1.0008  0.1630 -2.1228
  371MOL0     H48957   1.803   8.589   9.580 -3.4119  1.6735 -1.3826
  371MOL0     H48958   3.475   8.652  10.044  2.8344  0.3462 -1.8735
  371MOL0     H48959   3.691   8.536   9.954 -0.2956  3.5068  2.9513
  371MOL0     H48960   3.869   8.160   9.781  1.5139 -1.4490 -1.7256
  371MOL0     H48961   4.080   8.122   9.647  0.6597 -0.3412  0.3777
  371MOL0     H48962   4.310   8.188   9.536 -3.1749  0.1844  1.6195
  371MOL0     H48963   4.321   8.030   9.619  0.9063 -0.6496 -2.3937
  371MOL0     H48964   4.515   8.105   9.471  1.0278 -4.2216  0.2612
  371MOL0     H48965   4.550   8.233   9.581 -0.6515  1.1014  2.0231
  371MOL0     H48966   4.554   7.932   9.668 -0.0494  0.5569 -0.6963
  371MOL0     H48967   4.597   8.081   9.761 -2.1459  0.2055 -0.3767
  371MOL0     H48968   4.730   7.999   9.507  0.1196 -1.4731 -0.0511
  371MOL0     H48969   4.793   8.116   9.620 -2.1399  0.2458 -0.4891
  371MOL0     H48970   4.949   7.759   9.771  0.4115 -0.1387 -1.0433
  371MOL0     H48971   4.320   8.241   9.975  1.2488 -0.2143 -2.8595
  371MOL0     H48972   4.120   8.328  10.092 -1.0472 -0.8596  0.3587
  372MOL0     O48973   8.305   8.134   8.077 -0.8199 -0.5709  0.1477
  372MOL0     C48974   8.355   8.168   8.182  1.2320  0.3996  0.3452
  372MOL0     O48975   8.297   8.258   8.269 -0.2047  0.1493 -0.1227
  372MOL0     C48976   8.172   8.300   8.241  0.2693  0.8207 -0.6336
  372MOL0     C48977   8.140   8.381   8.134 -0.2156  0.5278 -0.2742
  372MOL0     C48978   8.004   8.431   8.117 -0.3694 -0.7207 -1.3269
  372MOL0     C48979   7.908   8.417   8.218  0.0451  0.1051  0.8553
  372MOL0     O48980   7.776   8.459   8.198  0.2322 -0.3079  0.5269
  372MOL0     C48981   7.727   8.474   8.063  0.7844  0.3059 -0.4387
  372MOL0     C48982   7.573   8.506   8.052  0.0025  0.0323 -0.2474
  372MOL0     C48983   7.550   8.653   8.105 -0.6851 -0.1839 -0.3511
  372MOL0     C48984   7.433   8.708   8.028 -0.7999 -0.7003  0.2968
  372MOL0     C48985   7.352   8.813   8.101  0.8699  0.4271  0.8226
  372MOL0     C48986   7.216   8.836   8.027  0.0076  0.4044 -0.9188
  372MOL0     C48987   7.136   8.960   8.062 -0.7585  1.0122 -0.0784
  372MOL0     C48988   7.205   9.075   7.994  0.7233 -0.1426  0.1231
  372MOL0     N48989   7.109   9.188   8.002 -0.7468 -0.3408  1.0070
  372MOL0     C48990   6.993   9.217   7.936  0.9928  0.5565  0.6088
  372MOL0     C48991   6.947   9.327   7.998 -0.3697  0.2907  0.4834
  372MOL0     C48992   6.825   9.392   7.947 -0.2531 -0.2222  0.2521
  372MOL0     C48993   6.854   9.477   7.827 -0.3506 -0.0305  0.9664
  372MOL0     C48994   6.822   9.400   7.700  0.7880  0.1445  0.5592
  372MOL0     C48995   6.897   9.455   7.576 -0.3523 -0.7167 -1.0261
  372MOL0     O48996   6.833   9.583   7.539  0.3571  0.2632  0.1394
  372MOL0     C48997   6.725   9.572   7.455 -0.5237 -0.0179  0.0071
  372MOL0     C48998   6.661   9.459   7.401  0.3409 -0.2170 -0.6887
  372MOL0     C48999   6.542   9.482   7.331  0.4449 -0.4048  0.0764
  372MOL0     C49000   6.479   9.613   7.317  0.7454  0.9256 -0.4233
  372MOL0     C49001   6.346   9.633   7.256 -0.0340  0.4136 -0.0320
  372MOL0     O49002   6.305   9.757   7.248  0.2350  0.3664 -0.1532
  372MOL0     C49003   6.224   9.799   7.147 -0.0525  0.0854  0.1572
  372MOL0     C49004   6.237   9.755   7.011  0.2760 -0.6778 -0.5637
  372MOL0     C49005   6.156   9.814   6.912  0.4465  0.5439 -0.2546
  372MOL0     C49006   6.083   9.926   6.943  0.1272 -0.4190 -0.2033
  372MOL0     O49007   5.995   9.988   6.853  0.5066  0.5548 -0.2996
  372MOL0     C49008   5.901   9.905   6.790  0.1703  0.3442  0.3998
  372MOL0     C49009   5.794  10.001   6.740 -0.3379  0.3215 -0.6248
  372MOL0     C49010   5.725  10.105   6.838  0.3278  0.7026  0.4108
  372MOL0     C49011   5.641  10.192   6.754  0.0081  0.3241  0.3059
  372MOL0     C49012   5.534  10.268   6.829 -0.2199 -1.0482  0.6840
  372MOL0     C49013   5.465  10.374   6.734 -0.3716  0.6067 -0.3621
  372MOL0     C49014   5.349  10.448   6.799  0.1870 -0.2116  0.2367
  372MOL0     C49015   5.250  10.528   6.711  0.3064 -1.1650 -0.2814
  372MOL0    Cl49016   5.121  10.561   6.825  0.2000 -0.4103 -0.3180
  372MOL0     C49017   6.068   9.971   7.070 -0.7310  0.0820  0.0318
  372MOL0     C49018   6.141   9.902   7.174  0.4340  0.4127 -0.4446
  372MOL0     O49019   6.293   9.537   7.203 -0.3735 -0.1785  0.0839
  372MOL0     C49020   6.558   9.714   7.359  0.2208 -0.4045  0.3091
  372MOL0     C49021   6.668   9.692   7.433 -0.0351  0.1049 -0.5000
  372MOL0     N49022   7.031   9.375   8.090  0.0256  1.0453  0.2219
  372MOL0     N49023   7.129   9.287   8.095 -0.0926 -0.4212  0.0634
  372MOL0     C49024   7.945   8.341   8.326 -1.2797 -0.7266 -0.6911
  372MOL0     C49025   8.081   8.300   8.351  0.0971 -0.0578 -0.6241
  372MOL0     C49026   8.490   8.121   8.212 -0.5708  0.3412  0.1232
  372MOL0     C49027   8.557   8.031   8.130 -1.0777  0.4371  0.3153
  372MOL0     C49028   8.692   8.008   8.143  0.1685  0.1622  0.0331
  372MOL0     C49029   8.771   8.067   8.246 -0.4598 -0.4325  0.4483
  372MOL0     O49030   8.909   8.043   8.248  0.6115  0.2124  0.6767
  372MOL0     C49031   8.973   8.065   8.376  0.2446 -0.3103  0.5569
  372MOL0     C49032   9.117   8.027   8.358 -0.1931 -0.5316  0.5182
  372MOL0     C49033   9.180   8.006   8.499  1.0987  0.5017  0.1124
  372MOL0     C49034   9.318   7.964   8.499 -0.5953  1.0324  0.6630
  372MOL0     C49035   9.381   7.965   8.632  0.0569  0.1925 -0.8491
  372MOL0     C49036   9.431   7.943   8.739 -0.5112 -0.5359  0.0989
  372MOL0     C49037   8.706   8.147   8.342  0.2942  0.1434  0.7089
  372MOL0     C49038   8.563   8.185   8.318  0.4417  0.0913  0.7380
  372MOL0     H49039   8.222   8.407   8.067  1.9009  0.7430  2.2190
  372MOL0     H49040   7.985   8.479   8.022  1.7045  2.1259 -0.4218
  372MOL0     H49041   7.758   8.387   8.005  0.5665  0.3157 -0.5670
  372MOL0     H49042   7.784   8.559   8.025  0.8037  0.4013 -0.2041
  372MOL0     H49043   7.518   8.419   8.089  1.8075 -0.0272  2.5977
  372MOL0     H49044   7.552   8.516   7.945 -0.1523  1.9681 -0.0773
  372MOL0     H49045   7.641   8.709   8.082  0.0212 -0.7246  0.9928
  372MOL0     H49046   7.519   8.645   8.210  1.0603 -4.9363  0.0410
  372MOL0     H49047   7.474   8.736   7.931 -0.0789 -1.1500  0.4636
  372MOL0     H49048   7.359   8.630   8.005 -2.9752  1.1880  0.5967
  372MOL0     H49049   7.414   8.902   8.114  3.0083 -0.7372 -0.7726
  372MOL0     H49050   7.328   8.779   8.202 -1.7956  1.6853  0.6891
  372MOL0     H49051   7.157   8.747   8.047  1.7794 -0.4372  0.9548
  372MOL0     H49052   7.246   8.832   7.922  0.6872 -1.2481 -0.6850
  372MOL0     H49053   7.036   8.940   8.021 -0.1983 -0.3579 -0.8616
  372MOL0     H49054   7.115   8.979   8.167 -1.7218 -2.9083  0.5994
  372MOL0     H49055   7.219   9.041   7.891 -2.7492  2.5705 -1.4392
  372MOL0     H49056   7.297   9.101   8.046  3.1791 -0.5117 -3.6879
  372MOL0     H49057   6.934   9.151   7.874  1.9885 -0.1158  0.3551
  372MOL0     H49058   6.787   9.450   8.031  1.9413 -0.2016  1.3164
  372MOL0     H49059   6.745   9.324   7.917 -0.3343 -1.2773  2.6269
  372MOL0     H49060   6.953   9.524   7.819  0.3465 -1.2703  1.9631
  372MOL0     H49061   6.797   9.570   7.824  1.9252  1.4510 -1.6941
  372MOL0     H49062   6.838   9.292   7.709 -1.4028 -0.3082 -0.2891
  372MOL0     H49063   6.714   9.411   7.684  0.7850 -0.2265  0.3139
  372MOL0     H49064   6.890   9.377   7.499 -0.2390  0.0848 -1.8596
  372MOL0     H49065   7.003   9.470   7.597 -0.4117 -1.8465  0.1764
  372MOL0     H49066   6.684   9.360   7.438  2.1072  0.4538  0.1567
  372MOL0     H49067   6.486   9.398   7.292 -2.5457  2.5284 -2.5967
  372MOL0     H49068   6.294   9.663   6.999 -0.5280 -1.0679 -1.6339
  372MOL0     H49069   6.137   9.771   6.814 -0.4042 -3.5586  1.4746
  372MOL0     H49070   5.862   9.835   6.864 -1.5315  0.0664 -0.6971
  372MOL0     H49071   5.941   9.826   6.725  0.8367 -1.5078  2.9234
  372MOL0     H49072   5.721   9.937   6.690 -2.1243 -0.3396  2.5680
  372MOL0     H49073   5.838  10.059   6.658 -3.6173  2.4581 -1.0712
  372MOL0     H49074   5.789  10.180   6.885 -0.0231  1.1049  0.2591
  372MOL0     H49075   5.669  10.054   6.917  0.1970  0.7011  0.3170
  372MOL0     H49076   5.704  10.256   6.692 -3.1402  1.0059 -2.4945
  372MOL0     H49077   5.592  10.140   6.671  3.6247  0.0404 -1.8623
  372MOL0     H49078   5.570  10.327   6.913 -0.5305 -1.6255  1.2308
  372MOL0     H49079   5.468  10.185   6.856 -0.7917 -1.0370 -0.5888
  372MOL0     H49080   5.412  10.333   6.648 -0.3162  2.8638 -1.5442
  372MOL0     H49081   5.546  10.445   6.712 -0.7313  1.1567  0.0569
  372MOL0     H49082   5.287  10.372   6.849 -0.1035  0.1052  0.3587
  372MOL0     H49083   5.386  10.522   6.870 -1.1497  1.3352 -0.6283
  372MOL0     H49084   5.212  10.464   6.631 -0.4886 -1.6019  0.4352
  372MOL0     H49085   5.283  10.617   6.656 -3.1072  0.4128 -0.0418
  372MOL0     H49086   5.998  10.049   7.098  1.9896  1.8167  2.6522
  372MOL0     H49087   6.123   9.931   7.278  2.5854 -2.6023  0.9033
  372MOL0     H49088   6.528   9.814   7.327 -0.6425 -1.4037 -2.2704
  372MOL0     H49089   6.724   9.773   7.479  0.6853  0.5236 -2.0158
  372MOL0     H49090   7.872   8.321   8.404 -0.6281  0.0861  0.1584
  372MOL0     H49091   8.107   8.253   8.445 -0.4877 -0.9477 -0.8954
  372MOL0     H49092   8.500   7.978   8.054  2.2842 -2.3355 -0.5211
  372MOL0     H49093   8.754   7.932   8.096 -1.0729 -0.6576 -0.3074
  372MOL0     H49094   8.921   7.998   8.445  2.5654 -0.6887  2.0433
  372MOL0     H49095   8.973   8.173   8.395  1.0146 -0.1866 -0.0824
  372MOL0     H49096   9.124   7.937   8.297  0.6461  0.5932 -1.1157
  372MOL0     H49097   9.177   8.101   8.303 -0.7343  0.2242  0.9294
  372MOL0     H49098   9.118   7.939   8.559 -0.9480  0.7223 -1.6254
  372MOL0     H49099   9.192   8.109   8.533  2.5381  0.0863  0.9461
  372MOL0     H49100   9.317   7.866   8.450  0.4779  1.2344  0.2233
  372MOL0     H49101   9.380   8.028   8.437 -2.7384  2.4306 -0.1481
  372MOL0     H49102   9.475   7.915   8.832 -1.0390 -2.3021 -0.1289
  372MOL0     H49103   8.753   8.197   8.425 -3.3877 -0.8041  3.6375
  372MOL0     H49104   8.504   8.258   8.373  0.5834  0.4306  0.4411
  373MOL0     O49105   9.857  10.106  10.069 -0.2503 -0.4965 -0.1083
  373MOL0     C49106   9.947  10.038  10.125 -0.5873 -0.1169  0.2931
  373MOL0     O49107   9.977   9.908  10.109  0.1844 -0.0113  0.4897
  373MOL0     C49108   9.898   9.825  10.026 -1.1399 -0.1498  0.1959
  373MOL0     C49109   9.776   9.848   9.974  0.4629 -0.6331  0.5878
  373MOL0     C49110   9.714   9.755   9.888  0.8776  0.4748  0.4162
  373MOL0     C49111   9.780   9.638   9.839 -0.8439 -0.0809 -0.6504
  373MOL0     O49112   9.728   9.550   9.754 -0.1360  0.7382  0.0755
  373MOL0     C49113   9.629   9.582   9.655 -0.2760 -0.7967  1.9652
  373MOL0     C49114   9.687   9.658   9.544 -1.2472 -0.2287 -0.3047
  373MOL0     C49115   9.611   9.641   9.416 -0.3136  0.3420  0.2649
  373MOL0     C49116   9.489   9.736   9.416  0.0422 -0.8556 -0.0199
  373MOL0     C49117   9.418   9.745   9.279 -0.1777  0.0581 -0.0438
  373MOL0     C49118   9.284   9.833   9.279 -0.4056  0.1987  0.2071
  373MOL0     C49119   9.198   9.817   9.161  0.2067 -0.3413  1.1573
  373MOL0     C49120   9.079   9.905   9.152 -0.1673 -0.1765 -0.0590
  373MOL0     N49121   8.979   9.862   9.247 -0.8365 -0.2043  0.6656
  373MOL0     C49122   8.924   9.733   9.258 -0.3756  0.3280  0.1710
  373MOL0     C49123   8.841   9.746   9.356 -0.0490 -0.6122  0.0112
  373MOL0     C49124   8.740   9.662   9.426  0.1619 -0.4385 -0.4160
  373MOL0     C49125   8.669   9.567   9.333  0.0557 -0.5072  0.2952
  373MOL0     C49126   8.530   9.518   9.387 -0.9028 -0.8028  0.1304
  373MOL0     C49127   8.412   9.598   9.331  0.4319  0.8405 -0.0259
  373MOL0     O49128   8.305   9.514   9.351 -1.3434 -0.2975 -0.4670
  373MOL0     C49129   8.183   9.533   9.292  1.0281 -0.2545 -0.1106
  373MOL0     C49130   8.083   9.423   9.273  0.4635 -0.6696 -0.6167
  373MOL0     C49131   7.952   9.445   9.235 -0.8717  0.3575  0.5401
  373MOL0     C49132   7.909   9.581   9.212  0.4715  0.1551  0.4248
  373MOL0     C49133   7.759   9.609   9.198 -0.2210 -1.2225  0.5417
  373MOL0     O49134   7.683   9.519   9.261 -0.2724  0.2068  0.3472
  373MOL0     C49135   7.547   9.549   9.266 -0.1586 -0.3076  0.0448
  373MOL0     C49136   7.456   9.452   9.258 -0.1394 -0.1582  0.4041
  373MOL0     C49137   7.322   9.471   9.287  0.6249  0.9398  0.7663
  373MOL0     C49138   7.260   9.585   9.327 -0.4898  0.7603 -0.0710
  373MOL0     O49139   7.121   9.595   9.362  0.2574 -0.6269 -1.1423
  373MOL0     C49140   7.038   9.519   9.281  0.1829  0.5038  0.0872
  373MOL0     C49141   6.894   9.552   9.297 -0.5215  0.3331  0.4497
  373MOL0     C49142   6.821   9.418   9.248  0.8146 -0.2756  0.1998
  373MOL0     C49143   6.669   9.436   9.253 -0.3880 -0.6999  0.0675
  373MOL0     C49144   6.601   9.319   9.191  0.5767  0.8312 -0.1718
  373MOL0     C49145   6.457   9.356   9.195  0.3704  0.0136  0.1576
  373MOL0     C49146   6.373   9.247   9.119  0.2329  0.5493 -0.4702
  373MOL0     C49147   6.226   9.301   9.097  0.0988 -0.9459  0.3243
  373MOL0    Cl49148   6.141   9.171   9.031  0.0444 -0.2365 -0.0100
  373MOL0     C49149   7.353   9.688   9.343  0.3757  0.0727 -0.0428
  373MOL0     C49150   7.489   9.668   9.309  0.4906 -0.1946  0.0891
  373MOL0     O49151   7.723   9.716   9.135 -0.3416 -0.0134 -0.0665
  373MOL0     C49152   8.003   9.684   9.216  0.1708 -0.1107  0.2680
  373MOL0     C49153   8.132   9.667   9.254  0.4749 -0.0832 -0.8956
  373MOL0     N49154   8.867   9.861   9.427 -0.2599 -0.0205 -0.8995
  373MOL0     N49155   8.941   9.939   9.348  0.4113  0.2333 -0.0460
  373MOL0     C49156   9.904   9.618   9.893  0.5518  0.1392 -0.1799
  373MOL0     C49157   9.961   9.708   9.982  0.0263  1.0700 -0.6869
  373MOL0     C49158  10.005  10.120  10.242 -0.0430  0.2064  0.8329
  373MOL0     C49159  10.009  10.261  10.234 -0.1029 -0.0371 -1.2808
  373MOL0     C49160  10.075  10.332  10.326  0.0740  0.4405  0.6322
  373MOL0     C49161  10.141  10.262  10.435 -0.6863 -0.7885  1.0930
  373MOL0     O49162  10.209  10.328  10.545 -0.8335  0.3990  0.2915
  373MOL0     C49163  10.213  10.467  10.553 -0.2912  2.0728  0.4947
  373MOL0     C49164  10.285  10.512  10.679 -0.2988  0.2710 -0.9994
  373MOL0     C49165  10.183  10.508  10.790 -0.1450 -0.6045  0.2651
  373MOL0     C49166  10.249  10.462  10.914 -0.6176 -0.5666 -0.3483
  373MOL0     C49167  10.154  10.443  11.035 -0.4890  0.5168  0.6859
  373MOL0     C49168  10.076  10.436  11.127 -0.0468  0.0473 -0.0673
  373MOL0     C49169  10.155  10.124  10.432 -0.8844  0.7700 -0.5108
  373MOL0     C49170  10.090  10.054  10.334  0.0070 -0.0350 -0.1500
  373MOL0     H49171   9.718   9.937   9.997  1.4966 -0.4746  2.7963
  373MOL0     H49172   9.623   9.787   9.838  1.7885  2.8951  0.1756
  373MOL0     H49173   9.550   9.646   9.696 -0.2130  0.9792 -0.4671
  373MOL0     H49174   9.584   9.486   9.629  2.1223 -1.0540 -2.0036
  373MOL0     H49175   9.792   9.625   9.544 -0.6572  1.5328  0.6983
  373MOL0     H49176   9.693   9.763   9.572  2.7606  0.2402 -2.1445
  373MOL0     H49177   9.590   9.535   9.396  2.2931 -0.2237  0.2120
  373MOL0     H49178   9.680   9.683   9.342  0.1400 -0.3069  0.3148
  373MOL0     H49179   9.424   9.712   9.501 -1.0005  1.4102 -0.1033
  373MOL0     H49180   9.509   9.840   9.442  0.3472 -0.8143 -0.4072
  373MOL0     H49181   9.384   9.646   9.247  0.4776 -1.0041  2.3181
  373MOL0     H49182   9.472   9.779   9.190  2.6859 -1.6110  0.9185
  373MOL0     H49183   9.320   9.937   9.285 -0.4086  0.2772 -0.9721
  373MOL0     H49184   9.226   9.801   9.366  2.4625 -0.5083  2.0177
  373MOL0     H49185   9.266   9.845   9.080  2.6708  0.3091  3.2984
  373MOL0     H49186   9.166   9.713   9.146 -0.8544 -0.1189  1.8119
  373MOL0     H49187   9.035   9.904   9.052  1.1400  0.2250 -0.6705
  373MOL0     H49188   9.116  10.005   9.176  1.4592 -1.0416  1.2640
  373MOL0     H49189   8.936   9.645   9.195  1.2382 -0.5927  1.6628
  373MOL0     H49190   8.664   9.728   9.468 -0.2910 -0.6039 -0.9559
  373MOL0     H49191   8.799   9.598   9.492  1.0108 -0.2369 -0.9580
  373MOL0     H49192   8.729   9.476   9.325  0.9343 -0.5769  4.9156
  373MOL0     H49193   8.653   9.615   9.236  0.1222  1.4712  1.2222
  373MOL0     H49194   8.517   9.413   9.360 -1.0697 -0.7849  0.1392
  373MOL0     H49195   8.531   9.515   9.496  4.0805  1.2315  0.4392
  373MOL0     H49196   8.424   9.610   9.223  0.3136 -1.8959 -0.4066
  373MOL0     H49197   8.406   9.691   9.389 -0.7420  0.3436  0.6873
  373MOL0     H49198   8.137   9.328   9.276  0.0231 -1.2578 -5.0454
  373MOL0     H49199   7.878   9.366   9.228  0.0827 -0.5969  0.9999
  373MOL0     H49200   7.498   9.359   9.222 -1.7633 -0.7603 -0.0329
  373MOL0     H49201   7.269   9.377   9.281  1.4726  0.4887  0.1309
  373MOL0     H49202   7.046   9.414   9.310 -1.5473  0.7758  1.8017
  373MOL0     H49203   7.059   9.527   9.174 -0.0268  2.6440  0.1607
  373MOL0     H49204   6.870   9.640   9.238  0.7637 -1.2781 -2.7105
  373MOL0     H49205   6.864   9.570   9.401 -3.8920  0.4824 -0.4402
  373MOL0     H49206   6.849   9.336   9.315 -0.1632 -0.2384  0.6780
  373MOL0     H49207   6.858   9.394   9.147 -1.0431 -0.4324 -0.4828
  373MOL0     H49208   6.642   9.428   9.359 -0.8798  0.2909  0.0312
  373MOL0     H49209   6.649   9.535   9.211 -0.2678 -0.7402 -0.0852
  373MOL0     H49210   6.622   9.234   9.255  0.9582 -1.5154 -3.1672
  373MOL0     H49211   6.641   9.302   9.091 -1.1787  0.2858 -0.8276
  373MOL0     H49212   6.440   9.457   9.158  2.2419  0.4852  0.4867
  373MOL0     H49213   6.421   9.351   9.299 -0.8265 -0.1165 -0.2387
  373MOL0     H49214   6.425   9.225   9.025 -2.9581  1.4555 -2.6234
  373MOL0     H49215   6.358   9.158   9.181  0.6123  2.5340  2.6583
  373MOL0     H49216   6.229   9.383   9.025  0.3486 -2.2317 -1.1895
  373MOL0     H49217   6.182   9.334   9.191  0.7458 -2.2131  1.0959
  373MOL0     H49218   7.311   9.783   9.374 -0.6841  0.1144 -1.5057
  373MOL0     H49219   7.554   9.751   9.336  0.9433 -1.1404  2.1042
  373MOL0     H49220   7.977   9.782   9.178 -0.3822 -0.6367 -0.7496
  373MOL0     H49221   8.196   9.755   9.257 -0.7525  0.9438 -2.7096
  373MOL0     H49222   9.952   9.524   9.868 -0.3316 -0.2996 -0.2714
  373MOL0     H49223  10.056   9.673  10.021 -0.1575  3.1351  1.8750
  373MOL0     H49224   9.951  10.320  10.164 -1.8861  1.3862  1.2144
  373MOL0     H49225  10.057  10.439  10.326 -1.5259  0.2127  0.0623
  373MOL0     H49226  10.116  10.515  10.540 -0.3784  1.4787 -1.2769
  373MOL0     H49227  10.277  10.498  10.469  0.6634 -2.8418 -0.9161
  373MOL0     H49228  10.372  10.450  10.702 -0.8365  0.3143  1.4279
  373MOL0     H49229  10.338  10.606  10.662  2.3349 -1.3769 -2.5116
  373MOL0     H49230  10.100  10.439  10.772  0.9514 -1.5605 -1.4525
  373MOL0     H49231  10.132  10.602  10.811  3.4482  1.2732  1.3787
  373MOL0     H49232  10.291  10.362  10.894 -0.4593 -0.0775 -2.7011
  373MOL0     H49233  10.337  10.524  10.933 -0.7045  0.2579 -2.4297
  373MOL0     H49234   9.997  10.433  11.200 -0.1476  4.7159  0.2977
  373MOL0     H49235  10.204  10.070  10.513 -1.0256  0.0255 -0.9168
  373MOL0     H49236  10.099   9.946  10.330  1.5124  0.0859 -0.4288
  374MOL0     O49237   7.485   2.394   4.501  0.7197  0.1592  1.3843
  374MOL0     C49238   7.438   2.508   4.508 -1.0929 -0.8154  0.8986
  374MOL0     O49239   7.308   2.536   4.523 -0.6711 -1.0581  0.0941
  374MOL0     C49240   7.216   2.429   4.521 -0.2110 -0.0444  0.2567
  374MOL0     C49241   7.125   2.420   4.629 -0.5507 -0.2314  0.8572
  374MOL0     C49242   7.034   2.310   4.626 -0.1739  0.1736 -0.1151
  374MOL0     C49243   7.026   2.227   4.514 -0.3374  1.0156  0.3438
  374MOL0     O49244   6.958   2.106   4.515  0.5259 -0.1885  0.2748
  374MOL0     C49245   6.814   2.102   4.528  0.1323 -0.0380 -0.0725
  374MOL0     C49246   6.756   2.078   4.391 -0.4669  0.5260 -0.6443
  374MOL0     C49247   6.689   2.204   4.330  0.3176 -0.3428 -0.7014
  374MOL0     C49248   6.563   2.254   4.405  1.1839  0.6271  0.2031
  374MOL0     C49249   6.557   2.410   4.405 -0.0901  0.3543  0.2033
  374MOL0     C49250   6.603   2.462   4.536  0.3602 -0.3511  0.4363
  374MOL0     C49251   6.484   2.470   4.634 -0.8137 -0.3739  1.2825
  374MOL0     C49252   6.530   2.438   4.777  0.3760  0.1891  0.0051
  374MOL0     N49253   6.629   2.536   4.832  0.3885 -0.5588 -0.4332
  374MOL0     C49254   6.605   2.650   4.907 -0.0772 -0.0169  0.4055
  374MOL0     C49255   6.735   2.698   4.923 -0.4286  0.3049 -0.3524
  374MOL0     C49256   6.774   2.823   5.005  0.6617  0.0645  0.4195
  374MOL0     C49257   6.692   2.828   5.136 -0.3975 -0.0255  0.4733
  374MOL0     C49258   6.721   2.949   5.223  0.5335 -0.3279  0.9089
  374MOL0     C49259   6.712   3.084   5.134 -0.7714  0.9110 -0.1969
  374MOL0     O49260   6.745   3.194   5.225  0.4528 -0.6646 -0.5910
  374MOL0     C49261   6.638   3.276   5.256  0.0284  0.1746  0.8981
  374MOL0     C49262   6.561   3.349   5.157  0.3659 -0.4539  0.1111
  374MOL0     C49263   6.463   3.446   5.200  0.0093  0.1175  0.1810
  374MOL0     C49264   6.433   3.461   5.336  0.7143  0.5167 -0.2191
  374MOL0     C49265   6.322   3.555   5.381 -0.3362 -0.3126 -0.5409
  374MOL0     O49266   6.314   3.584   5.511  0.7099 -0.7452 -0.0523
  374MOL0     C49267   6.216   3.668   5.561  0.0013  0.5667 -0.6884
  374MOL0     C49268   6.107   3.601   5.618  0.7129 -0.8256  0.2623
  374MOL0     C49269   5.999   3.682   5.658  0.3781  0.2268 -1.1240
  374MOL0     C49270   5.988   3.817   5.659 -0.8695  0.2273  0.8238
  374MOL0     O49271   5.878   3.897   5.693  0.4450 -0.2732  0.2066
  374MOL0     C49272   5.773   3.826   5.762  0.0036 -0.6366 -0.2945
  374MOL0     C49273   5.663   3.928   5.803 -0.3828  0.8866 -0.8247
  374MOL0     C49274   5.576   3.966   5.677  0.9404 -0.2135 -0.4060
  374MOL0     C49275   5.433   4.000   5.710  0.4950 -0.0059 -0.0801
  374MOL0     C49276   5.339   3.879   5.732 -0.3638 -1.1109 -0.4555
  374MOL0     C49277   5.197   3.938   5.744  0.1782 -0.5486  0.1497
  374MOL0     C49278   5.100   3.829   5.769  0.0131  0.4400  0.3164
  374MOL0     C49279   4.967   3.893   5.768 -0.3187 -0.5190  0.7412
  374MOL0    Cl49280   4.907   3.911   5.600  0.1653  0.3918  0.2919
  374MOL0     C49281   6.101   3.877   5.597 -0.2931 -0.0181  0.0263
  374MOL0     C49282   6.211   3.809   5.543 -0.8233  0.0437 -0.3193
  374MOL0     O49283   6.245   3.593   5.294  0.6567  0.5039  0.0610
  374MOL0     C49284   6.500   3.377   5.427  0.1507 -0.3129  0.1030
  374MOL0     C49285   6.595   3.287   5.389 -0.5865 -0.0275  0.1557
  374MOL0     N49286   6.828   2.618   4.849  0.0666 -0.2330 -0.4271
  374MOL0     N49287   6.759   2.521   4.800  0.0054  0.8907 -0.1354
  374MOL0     C49288   7.121   2.235   4.408  0.7155  0.6434 -0.1640
  374MOL0     C49289   7.214   2.341   4.409 -0.3770  0.4704 -0.1762
  374MOL0     C49290   7.531   2.624   4.513  0.4179 -0.6362  0.3416
  374MOL0     C49291   7.669   2.621   4.520  0.3805 -0.2651 -1.0217
  374MOL0     C49292   7.737   2.741   4.526 -0.6082  0.1115  0.0173
  374MOL0     C49293   7.673   2.861   4.502  0.1571  0.2582 -0.3872
  374MOL0     O49294   7.742   2.971   4.480 -0.1873 -0.3461 -0.5876
  374MOL0     C49295   7.881   2.981   4.485 -0.5937  0.2724 -0.0237
  374MOL0     C49296   7.933   3.097   4.379 -0.5741 -0.6870 -0.0048
  374MOL0     C49297   8.012   3.219   4.434  0.2797  0.8040 -0.1348
  374MOL0     C49298   8.152   3.190   4.485 -0.0696 -0.7745  0.2315
  374MOL0     C49299   8.165   3.094   4.593  0.2380 -0.3916  0.6328
  374MOL0     C49300   8.186   3.021   4.697 -0.0466 -0.5056 -0.0405
  374MOL0     C49301   7.542   2.863   4.482  0.2331  0.4646 -0.4868
  374MOL0     C49302   7.464   2.747   4.492  0.0319 -1.2855 -0.1135
  374MOL0     H49303   7.142   2.493   4.708  0.3671  0.4085  0.0886
  374MOL0     H49304   6.975   2.291   4.715 -0.3721  1.2115 -0.0113
  374MOL0     H49305   6.763   2.192   4.564  2.8146  2.0691 -1.1534
  374MOL0     H49306   6.790   2.020   4.596  0.6615 -0.5091 -0.4446
  374MOL0     H49307   6.688   1.993   4.399  0.4303 -0.0266  1.8229
  374MOL0     H49308   6.843   2.060   4.328  1.8941  1.9809  2.0133
  374MOL0     H49309   6.651   2.172   4.232 -2.4611  0.0288  0.1933
  374MOL0     H49310   6.758   2.288   4.315  0.1935 -0.2531 -0.7674
  374MOL0     H49311   6.480   2.222   4.341  1.5010 -0.4476  0.3061
  374MOL0     H49312   6.554   2.207   4.504 -3.2843  0.0868 -0.2297
  374MOL0     H49313   6.458   2.451   4.382 -0.7809  0.9504  3.7655
  374MOL0     H49314   6.629   2.448   4.332 -0.6184 -1.1369 -1.1867
  374MOL0     H49315   6.656   2.554   4.511  0.4735 -0.6735 -0.5458
  374MOL0     H49316   6.674   2.399   4.590 -0.5692 -0.9220  1.0214
  374MOL0     H49317   6.435   2.567   4.636  0.2275  0.1991  0.0037
  374MOL0     H49318   6.404   2.403   4.600 -0.7224 -0.1072  0.5168
  374MOL0     H49319   6.563   2.334   4.785 -0.9256 -0.2883 -0.5277
  374MOL0     H49320   6.443   2.452   4.842 -0.1422  1.2659 -0.8890
  374MOL0     H49321   6.510   2.699   4.929 -0.2780 -0.6918  1.0989
  374MOL0     H49322   6.765   2.912   4.942  0.5766 -1.9899 -2.6878
  374MOL0     H49323   6.881   2.806   5.022  1.5488  0.0322 -3.8429
  374MOL0     H49324   6.723   2.738   5.192  0.6934 -0.7017 -1.1558
  374MOL0     H49325   6.584   2.821   5.118 -0.3715  1.0868 -0.1880
  374MOL0     H49326   6.662   2.955   5.315  2.3015 -2.8733  2.3423
  374MOL0     H49327   6.824   2.945   5.258  0.3905 -0.6620  1.3072
  374MOL0     H49328   6.610   3.079   5.093 -1.6520 -1.2641  2.0336
  374MOL0     H49329   6.784   3.087   5.052  1.0501  1.2214  1.3396
  374MOL0     H49330   6.572   3.349   5.050  1.4382 -0.1417  0.2111
  374MOL0     H49331   6.420   3.521   5.135  0.0198  2.0510  2.2919
  374MOL0     H49332   6.104   3.495   5.598 -4.4934 -0.4643 -2.5277
  374MOL0     H49333   5.924   3.620   5.706  1.7298  0.7057  1.8528
  374MOL0     H49334   5.818   3.780   5.850  0.7032  0.6760  0.0632
  374MOL0     H49335   5.740   3.746   5.695 -1.1100 -0.2431 -0.2364
  374MOL0     H49336   5.705   4.012   5.858 -1.0826  0.1726  0.8442
  374MOL0     H49337   5.610   3.858   5.868  1.0606 -1.0426 -1.6190
  374MOL0     H49338   5.586   3.896   5.594 -0.3459 -1.8613  0.7531
  374MOL0     H49339   5.619   4.060   5.641  1.7824 -0.8794 -1.1875
  374MOL0     H49340   5.433   4.050   5.807  1.5161  1.6686 -0.9067
  374MOL0     H49341   5.398   4.063   5.627 -1.7268 -0.1186  0.6989
  374MOL0     H49342   5.367   3.825   5.823 -0.8545  0.4149  0.6461
  374MOL0     H49343   5.353   3.807   5.651  0.6686  0.8827 -2.1619
  374MOL0     H49344   5.167   3.985   5.650  1.0544  1.1055  0.6561
  374MOL0     H49345   5.189   4.012   5.824 -1.9670 -0.6355  0.0611
  374MOL0     H49346   5.101   3.742   5.702 -0.0994  0.3955  0.3729
  374MOL0     H49347   5.109   3.788   5.870  4.4107  2.4263  0.9571
  374MOL0     H49348   4.978   3.984   5.828  3.0701  0.0531 -0.5209
  374MOL0     H49349   4.897   3.832   5.826 -0.3918  0.3387  1.5824
  374MOL0     H49350   6.091   3.980   5.565 -0.6087 -0.7326 -2.4045
  374MOL0     H49351   6.297   3.862   5.504  1.0233 -1.8141  1.0103
  374MOL0     H49352   6.458   3.365   5.527 -3.9184 -0.5860 -1.4526
  374MOL0     H49353   6.647   3.228   5.464  2.1382  2.0123  0.0536
  374MOL0     H49354   7.110   2.174   4.319  0.1839  0.3944  0.0714
  374MOL0     H49355   7.277   2.368   4.325  1.0167  1.9602  1.2826
  374MOL0     H49356   7.736   2.537   4.531  3.3818  2.2413  2.3302
  374MOL0     H49357   7.843   2.738   4.548 -0.7494  0.9073  0.8684
  374MOL0     H49358   7.937   2.896   4.445 -3.9893 -2.5069  0.7204
  374MOL0     H49359   7.921   2.989   4.587  2.4399  2.3572 -1.2210
  374MOL0     H49360   7.994   3.046   4.303 -0.1748 -1.5891  0.9030
  374MOL0     H49361   7.856   3.152   4.324  0.1079  1.1846  0.8624
  374MOL0     H49362   7.958   3.267   4.516  1.0897 -0.7447  1.3526
  374MOL0     H49363   8.025   3.294   4.355  1.8730 -1.2580 -1.9799
  374MOL0     H49364   8.221   3.170   4.402 -0.5309  1.2252 -0.6913
  374MOL0     H49365   8.190   3.284   4.528 -1.3378  0.8700 -2.0022
  374MOL0     H49366   8.203   2.960   4.783 -0.1895 -0.4508  0.0267
  374MOL0     H49367   7.495   2.957   4.454  0.4305 -0.1096 -2.9331
  374MOL0     H49368   7.360   2.769   4.474  0.9102  1.3819 -2.6246
  375MOL0     O49369   4.127   6.830   3.738  0.3445  0.5454 -0.2317
  375MOL0     C49370   4.148   6.717   3.685  0.8363  0.4203  0.1403
  375MOL0     O49371   4.056   6.608   3.700 -0.5277 -0.0506  0.2141
  375MOL0     C49372   3.932   6.626   3.750 -0.2013  0.0418  0.3252
  375MOL0     C49373   3.882   6.542   3.850 -0.8950 -0.0191  0.8586
  375MOL0     C49374   3.757   6.569   3.907  0.2210 -0.5956  0.4730
  375MOL0     C49375   3.678   6.679   3.859 -0.2821  0.6123 -0.0679
  375MOL0     O49376   3.563   6.703   3.931  0.9798 -0.3545  0.4278
  375MOL0     C49377   3.474   6.820   3.908  0.7077 -0.2642  0.2201
  375MOL0     C49378   3.350   6.803   3.987  0.1922 -0.1889  0.1344
  375MOL0     C49379   3.277   6.669   3.955 -0.4163  0.8568  0.2630
  375MOL0     C49380   3.127   6.660   3.983 -0.3803 -0.0644  0.0316
  375MOL0     C49381   3.041   6.753   3.904  0.0761 -0.0544 -0.0916
  375MOL0     C49382   2.890   6.757   3.938 -0.1072 -0.1411  0.0030
  375MOL0     C49383   2.811   6.817   3.824  0.5398  0.2009  0.3009
  375MOL0     C49384   2.675   6.872   3.861  0.0141  0.0996  0.3534
  375MOL0     N49385   2.572   6.767   3.879 -0.9510  0.2639  0.3597
  375MOL0     C49386   2.482   6.772   3.976 -0.1101 -0.2618 -0.1876
  375MOL0     C49387   2.374   6.691   3.932 -1.0325  0.0134 -0.7775
  375MOL0     C49388   2.252   6.667   4.002 -0.8112 -0.9000 -0.4919
  375MOL0     C49389   2.158   6.791   4.006  0.7827  1.0917 -0.0586
  375MOL0     C49390   2.130   6.840   3.865  0.3260 -0.1177  0.1347
  375MOL0     C49391   1.997   6.914   3.865  0.5578 -0.5667  0.5126
  375MOL0     O49392   1.975   6.962   3.729  0.5360 -0.3825 -0.2903
  375MOL0     C49393   1.865   7.044   3.727 -0.7366 -0.4140  0.3355
  375MOL0     C49394   1.759   7.051   3.826 -0.3996  0.5517  0.7138
  375MOL0     C49395   1.656   7.143   3.803 -0.4909 -0.2716 -0.4133
  375MOL0     C49396   1.645   7.216   3.682 -0.9980 -0.1303  0.5796
  375MOL0     C49397   1.528   7.303   3.647 -0.0180 -0.2481 -0.4144
  375MOL0     O49398   1.440   7.320   3.749 -0.4607 -0.0040  0.5096
  375MOL0     C49399   1.334   7.399   3.716  0.0181  0.2442  0.3557
  375MOL0     C49400   1.205   7.347   3.718  0.7653 -0.6121 -0.2736
  375MOL0     C49401   1.095   7.425   3.699  1.2366 -0.3792 -0.5753
  375MOL0     C49402   1.117   7.562   3.665 -0.1158 -0.5782 -0.4516
  375MOL0     O49403   1.023   7.654   3.617  0.4395 -0.0481 -0.3617
  375MOL0     C49404   0.913   7.603   3.533  0.6314 -0.0398 -0.3434
  375MOL0     C49405   0.949   7.498   3.430  0.3030 -0.8679 -0.4357
  375MOL0     C49406   0.839   7.487   3.322 -0.0466 -0.6878 -0.2877
  375MOL0     C49407   0.878   7.397   3.197 -0.2544  0.6892 -0.2284
  375MOL0     C49408   0.995   7.451   3.119  1.0715 -0.0473  0.2968
  375MOL0     C49409   0.983   7.593   3.057  0.3668  0.3862  0.7364
  375MOL0     C49410   1.121   7.633   3.010  0.2626  1.2366 -0.2008
  375MOL0     C49411   1.137   7.785   2.974 -0.6792 -0.7788  0.4945
  375MOL0    Cl49412   1.300   7.835   2.911  0.2423  0.5032 -0.2991
  375MOL0     C49413   1.242   7.618   3.661 -0.7510  0.8009 -0.4496
  375MOL0     C49414   1.356   7.533   3.692 -0.6084  0.9127  0.9779
  375MOL0     O49415   1.530   7.356   3.538  0.0933 -0.4476 -0.7217
  375MOL0     C49416   1.751   7.209   3.587  0.6184  0.2837  0.0287
  375MOL0     C49417   1.859   7.128   3.611  0.5923  0.2765  0.3556
  375MOL0     N49418   2.412   6.642   3.810 -0.0895 -0.2354 -0.2314
  375MOL0     N49419   2.523   6.695   3.776  0.4596  0.5111 -0.4643
  375MOL0     C49420   3.722   6.754   3.752  0.0431 -0.1541  0.1004
  375MOL0     C49421   3.851   6.726   3.691  0.2223  0.2985  0.0192
  375MOL0     C49422   4.279   6.699   3.632 -0.5661 -0.9839 -0.5341
  375MOL0     C49423   4.361   6.800   3.586 -0.2512 -0.7038 -0.5404
  375MOL0     C49424   4.478   6.779   3.514 -0.5653 -0.6760  0.1897
  375MOL0     C49425   4.535   6.650   3.507  0.7789 -0.2717 -0.2438
  375MOL0     O49426   4.660   6.624   3.453  0.6733  0.7229 -0.6390
  375MOL0     C49427   4.712   6.697   3.348 -0.8427 -0.2935 -0.0121
  375MOL0     C49428   4.636   6.662   3.222  0.6649 -0.1485  0.1551
  375MOL0     C49429   4.625   6.511   3.204 -0.1717 -0.2715  1.2995
  375MOL0     C49430   4.567   6.473   3.065  0.2712 -0.1673 -0.8308
  375MOL0     C49431   4.653   6.500   2.955 -0.7589  0.9634  0.3593
  375MOL0     C49432   4.716   6.550   2.862 -0.7081  1.0411  0.4345
  375MOL0     C49433   4.465   6.544   3.577  0.2923 -0.3552 -0.5183
  375MOL0     C49434   4.338   6.565   3.631 -0.3704 -0.1722 -0.0308
  375MOL0     H49435   3.950   6.461   3.875  2.0931  2.3856  1.1191
  375MOL0     H49436   3.716   6.505   3.985 -2.1435 -0.7020 -0.7625
  375MOL0     H49437   3.446   6.842   3.805  0.2163  0.5502  0.5144
  375MOL0     H49438   3.536   6.906   3.937  1.8346 -0.8744 -0.3045
  375MOL0     H49439   3.296   6.894   3.959 -0.0521 -0.9023 -1.9065
  375MOL0     H49440   3.369   6.810   4.094 -2.5463  1.4488  0.5943
  375MOL0     H49441   3.336   6.592   4.006  1.1836  1.0297 -1.2427
  375MOL0     H49442   3.281   6.651   3.848  1.6209 -0.4164  0.5054
  375MOL0     H49443   3.087   6.559   3.969 -0.1767  0.0025 -1.0470
  375MOL0     H49444   3.110   6.685   4.088 -1.0029 -0.1724 -0.0389
  375MOL0     H49445   3.057   6.727   3.799  0.5577 -0.5332  0.0922
  375MOL0     H49446   3.073   6.857   3.910 -3.7441  1.2126  1.3949
  375MOL0     H49447   2.878   6.828   4.020  1.7142  0.6235 -0.3342
  375MOL0     H49448   2.841   6.663   3.965 -2.4567  1.3225  1.1422
  375MOL0     H49449   2.862   6.906   3.787 -1.0533  0.4340 -1.5669
  375MOL0     H49450   2.806   6.747   3.739 -1.2101  0.9469 -0.2577
  375MOL0     H49451   2.625   6.934   3.786  0.6512  0.4674  0.2284
  375MOL0     H49452   2.674   6.936   3.949 -2.3438 -0.0098  0.4806
  375MOL0     H49453   2.495   6.811   4.076 -2.5935  0.1215  0.0601
  375MOL0     H49454   2.269   6.632   4.104 -0.2820 -1.0194 -0.6164
  375MOL0     H49455   2.202   6.591   3.942 -0.3081 -0.5152 -1.4253
  375MOL0     H49456   2.207   6.867   4.068  1.0557  0.0031  1.1028
  375MOL0     H49457   2.072   6.771   4.071  0.7251  0.2886 -0.3643
  375MOL0     H49458   2.206   6.914   3.839 -1.8688  2.3429  0.2980
  375MOL0     H49459   2.130   6.764   3.786  0.2082  2.1528 -2.1817
  375MOL0     H49460   2.003   6.994   3.939  0.8925  1.2984 -1.4511
  375MOL0     H49461   1.919   6.839   3.885 -0.7094  0.6187  0.1132
  375MOL0     H49462   1.740   6.977   3.903 -1.8795 -2.6494 -2.4033
  375MOL0     H49463   1.571   7.138   3.870 -2.6535 -2.0368 -3.0739
  375MOL0     H49464   1.196   7.242   3.741 -2.5248 -0.3471  0.1416
  375MOL0     H49465   0.996   7.381   3.710  2.3936 -3.5952 -1.7930
  375MOL0     H49466   0.854   7.687   3.494 -1.7666 -0.0676  2.8110
  375MOL0     H49467   0.844   7.543   3.593  1.2218 -3.6794 -2.9792
  375MOL0     H49468   0.948   7.402   3.483 -0.4209 -2.4765 -3.1768
  375MOL0     H49469   1.049   7.512   3.390  0.2257  0.6005 -0.1740
  375MOL0     H49470   0.811   7.584   3.281  2.7334 -0.1432 -1.1527
  375MOL0     H49471   0.750   7.438   3.363  1.1080 -2.8084 -0.1380
  375MOL0     H49472   0.899   7.297   3.235  0.1199  0.3336 -1.3555
  375MOL0     H49473   0.794   7.389   3.128 -0.9231  0.5809  0.5713
  375MOL0     H49474   1.010   7.383   3.035 -1.7672  0.0099 -0.3760
  375MOL0     H49475   1.080   7.450   3.187 -1.2192  0.9626  3.4093
  375MOL0     H49476   0.957   7.668   3.133  2.1976 -1.1543  3.0457
  375MOL0     H49477   0.913   7.590   2.973 -0.9583 -2.9755  1.8138
  375MOL0     H49478   1.197   7.613   3.086 -3.5692 -3.4868  2.9554
  375MOL0     H49479   1.126   7.580   2.914  0.4096  1.5007 -0.3403
  375MOL0     H49480   1.108   7.842   3.062 -0.0668 -1.3051  1.0532
  375MOL0     H49481   1.068   7.818   2.895  1.0482  0.1417 -0.7128
  375MOL0     H49482   1.252   7.725   3.647  0.4008  0.8767  0.8408
  375MOL0     H49483   1.457   7.572   3.699  0.7118 -0.6030 -4.7495
  375MOL0     H49484   1.746   7.262   3.493 -2.1553 -2.3740 -1.5325
  375MOL0     H49485   1.946   7.132   3.546  2.1203 -1.4371  2.1415
  375MOL0     H49486   3.662   6.834   3.709 -2.0209 -0.2665  2.5287
  375MOL0     H49487   3.879   6.786   3.605 -0.5429 -1.5820 -1.6085
  375MOL0     H49488   4.336   6.905   3.595 -1.7518 -0.9134 -1.8901
  375MOL0     H49489   4.542   6.863   3.487  1.4079 -2.1598 -0.0369
  375MOL0     H49490   4.818   6.671   3.339  0.3924  2.2582  4.2819
  375MOL0     H49491   4.715   6.805   3.361  0.5470 -0.4088  0.8605
  375MOL0     H49492   4.536   6.703   3.234  1.1188  0.4816  2.3836
  375MOL0     H49493   4.699   6.693   3.138  0.3659 -1.8051 -0.7189
  375MOL0     H49494   4.554   6.472   3.278 -2.6065  1.4289  0.0034
  375MOL0     H49495   4.720   6.461   3.226  0.8737  0.9661 -0.2529
  375MOL0     H49496   4.532   6.370   3.071 -0.9343  0.2994  0.7477
  375MOL0     H49497   4.482   6.540   3.050  1.3060  1.2177 -0.7314
  375MOL0     H49498   4.761   6.600   2.779  2.4391 -1.9142  0.0949
  375MOL0     H49499   4.496   6.440   3.578 -1.4967 -0.9415  0.4579
  375MOL0     H49500   4.282   6.478   3.665  0.9489 -1.4568 -1.0628
  376MOL0     O49501   0.545   9.175   4.211  0.1506  0.0190  0.2312
  376MOL0     C49502   0.641   9.245   4.176  1.2740 -0.1971  1.5401
  376MOL0     O49503   0.664   9.285   4.043  0.1407 -0.4331  0.2110
  376MOL0     C49504   0.601   9.234   3.936 -0.0133  0.7120  0.7078
  376MOL0     C49505   0.535   9.109   3.930 -0.3361  0.1543 -0.3403
  376MOL0     C49506   0.478   9.069   3.815  0.0074 -0.2765 -0.5071
  376MOL0     C49507   0.471   9.146   3.696  0.5199 -0.6739 -0.4509
  376MOL0     O49508   0.419   9.121   3.573  0.7765 -0.7320 -0.0074
  376MOL0     C49509   0.371   8.987   3.549 -1.0104 -0.7183  0.1556
  376MOL0     C49510   0.261   8.987   3.450 -0.5683 -0.3935  0.0941
  376MOL0     C49511   0.292   9.070   3.327  0.0783 -0.5308  0.3972
  376MOL0     C49512   0.183   9.072   3.218  0.0101  0.0186  0.2733
  376MOL0     C49513   0.214   9.160   3.091 -0.4489 -0.0105 -0.7088
  376MOL0     C49514   0.236   9.311   3.128 -0.4333  0.5575  0.3834
  376MOL0     C49515   0.230   9.399   3.001 -0.1857  0.0466  0.1747
  376MOL0     C49516   0.299   9.539   3.004  0.3375 -0.9493 -0.2791
  376MOL0     N49517   0.215   9.642   3.068  0.6290 -0.5062  0.3681
  376MOL0     C49518   0.106   9.694   3.000  0.4616  0.6775  0.4014
  376MOL0     C49519   0.029   9.739   3.094  0.4795  0.3598  0.7699
  376MOL0     C49520  -0.109   9.796   3.076 -0.3087 -0.4034  0.2209
  376MOL0     C49521  -0.119   9.948   3.074  0.4463 -0.3166  0.2101
  376MOL0     C49522  -0.163  10.020   3.204 -0.0661 -0.4593  0.6069
  376MOL0     C49523  -0.185  10.165   3.172 -0.8654 -0.1634 -0.5409
  376MOL0     O49524  -0.195  10.227   3.301 -0.0872  0.4148 -0.1319
  376MOL0     C49525  -0.317  10.261   3.353 -0.9114 -0.2590 -0.6904
  376MOL0     C49526  -0.423  10.315   3.275 -0.2812  0.5333  0.6204
  376MOL0     C49527  -0.532  10.381   3.333  0.4856  0.4198 -0.2462
  376MOL0     C49528  -0.551  10.374   3.476  0.9026  0.2359 -0.3657
  376MOL0     C49529  -0.671  10.420   3.548  0.7823 -0.3291  0.7400
  376MOL0     O49530  -0.685  10.409   3.687 -1.2832 -0.3619  0.3938
  376MOL0     C49531  -0.804  10.455   3.741 -0.0888 -0.1578  0.0175
  376MOL0     C49532  -0.803  10.561   3.837 -0.8073 -0.1677  0.5164
  376MOL0     C49533  -0.921  10.604   3.893  1.5957  0.8013 -0.4007
  376MOL0     C49534  -1.051  10.548   3.859 -0.6232 -0.7162 -0.4970
  376MOL0     O49535  -1.159  10.595   3.926  0.6495  0.4972 -0.7520
  376MOL0     C49536  -1.256  10.489   3.936 -0.1358  0.0751  0.6686
  376MOL0     C49537  -1.375  10.535   4.012  0.2107  0.0786 -0.1451
  376MOL0     C49538  -1.466  10.623   3.932  0.3458  0.5002 -1.2526
  376MOL0     C49539  -1.586  10.685   4.004  0.3146  0.6864  0.4018
  376MOL0     C49540  -1.708  10.586   4.007 -0.6825  0.0263 -0.2475
  376MOL0     C49541  -1.812  10.647   4.101 -0.4089  0.0822  0.0800
  376MOL0     C49542  -1.949  10.585   4.105  0.3264  0.5762  0.4208
  376MOL0     C49543  -2.025  10.578   3.968  0.8090  0.2450  0.7297
  376MOL0    Cl49544  -2.188  10.504   3.982 -0.5127 -0.5887 -0.3188
  376MOL0     C49545  -1.044  10.441   3.766 -0.0430  0.7768 -0.7986
  376MOL0     C49546  -0.933  10.397   3.702 -0.4986  0.3858 -0.9439
  376MOL0     O49547  -0.752  10.472   3.477 -0.7036  0.2217 -0.2866
  376MOL0     C49548  -0.451  10.315   3.548 -0.4430  0.0219  0.0897
  376MOL0     C49549  -0.336  10.260   3.485 -0.4718  0.5640  0.2762
  376MOL0     N49550   0.097   9.737   3.218  0.3839 -0.2017  0.2722
  376MOL0     N49551   0.211   9.675   3.200 -0.8060  0.0870  0.1405
  376MOL0     C49552   0.515   9.280   3.711  0.4008  0.0617 -0.6064
  376MOL0     C49553   0.578   9.319   3.829 -0.1523  0.9038  0.7253
  376MOL0     C49554   0.733   9.302   4.287  0.5358  0.6369  0.2359
  376MOL0     C49555   0.830   9.388   4.250 -0.0684  0.1090  0.6379
  376MOL0     C49556   0.940   9.422   4.336 -0.2485  0.6846  0.1723
  376MOL0     C49557   0.950   9.352   4.459 -0.1486 -0.0341  0.7651
  376MOL0     O49558   1.051   9.357   4.552 -0.5016 -0.1284  0.8281
  376MOL0     C49559   1.183   9.411   4.508 -0.3145  0.6729 -0.7287
  376MOL0     C49560   1.272   9.404   4.631  0.5768 -0.5500 -0.3796
  376MOL0     C49561   1.418   9.425   4.578 -1.2467 -0.7476 -0.2942
  376MOL0     C49562   1.516   9.431   4.701  0.7273 -0.0429  0.3538
  376MOL0     C49563   1.482   9.533   4.796  0.4694 -0.3301 -0.2037
  376MOL0     C49564   1.438   9.621   4.872  0.2662  0.2795 -0.6067
  376MOL0     C49565   0.849   9.262   4.498  1.0797 -0.3964 -0.8942
  376MOL0     C49566   0.744   9.236   4.406 -0.6085  0.3148 -0.4584
  376MOL0     H49567   0.532   9.031   4.006 -1.0974 -1.3188 -1.8252
  376MOL0     H49568   0.472   8.962   3.834  2.2464 -0.6399 -1.5088
  376MOL0     H49569   0.344   8.935   3.642  1.8162 -0.8356  1.0131
  376MOL0     H49570   0.453   8.929   3.506  1.5683  0.1634  3.4412
  376MOL0     H49571   0.172   9.039   3.486 -1.8166  2.8420 -6.2013
  376MOL0     H49572   0.247   8.884   3.417 -1.7318  0.0583 -0.9115
  376MOL0     H49573   0.388   9.047   3.279 -1.5344 -2.5008 -2.1238
  376MOL0     H49574   0.311   9.176   3.348  0.2720 -0.5356  0.2561
  376MOL0     H49575   0.161   8.969   3.188 -2.0509  0.7100 -0.8056
  376MOL0     H49576   0.094   9.115   3.266  0.7830 -0.6874  2.5037
  376MOL0     H49577   0.137   9.158   3.013 -2.8406  0.4635  1.5018
  376MOL0     H49578   0.298   9.105   3.048 -1.3669 -4.1976  2.3009
  376MOL0     H49579   0.337   9.326   3.167 -0.9445  4.1113  0.6925
  376MOL0     H49580   0.160   9.352   3.195 -3.1574  0.0836 -2.1919
  376MOL0     H49581   0.287   9.350   2.922 -0.0065  0.1558  0.2351
  376MOL0     H49582   0.127   9.416   2.967  0.0062  4.7606  1.2239
  376MOL0     H49583   0.314   9.575   2.902 -0.5852 -1.0326 -0.4480
  376MOL0     H49584   0.401   9.530   3.045  0.9705 -0.9375 -1.7774
  376MOL0     H49585   0.094   9.681   2.893 -0.4634 -2.7001  0.7772
  376MOL0     H49586  -0.170   9.758   3.159  0.9386  2.0357  2.4284
  376MOL0     H49587  -0.147   9.753   2.984  1.9213  0.6078 -1.2683
  376MOL0     H49588  -0.199   9.972   3.003 -0.0017 -0.1573  0.7666
  376MOL0     H49589  -0.024   9.988   3.037 -0.9048  1.4666 -1.5749
  376MOL0     H49590  -0.250   9.974   3.251 -0.1196 -1.4206 -0.3971
  376MOL0     H49591  -0.087  10.004   3.281 -0.5210 -1.3624  0.8849
  376MOL0     H49592  -0.270  10.188   3.108 -1.1577  3.3560  0.8883
  376MOL0     H49593  -0.093  10.205   3.128  0.6323 -1.8494  0.8809
  376MOL0     H49594  -0.411  10.321   3.168  0.7281  0.4154  0.7177
  376MOL0     H49595  -0.614  10.420   3.273  1.8600 -2.2408 -4.3350
  376MOL0     H49596  -0.716  10.620   3.863  0.2500 -2.0300  1.3560
  376MOL0     H49597  -0.929  10.670   3.979 -1.9790 -0.1426  0.1508
  376MOL0     H49598  -1.202  10.407   3.984  3.5624  0.1050 -2.8626
  376MOL0     H49599  -1.294  10.458   3.838 -1.5451  2.4226  0.4005
  376MOL0     H49600  -1.344  10.587   4.103 -1.0356  1.4097 -0.4397
  376MOL0     H49601  -1.437  10.450   4.042 -2.1719  1.5226 -0.6320
  376MOL0     H49602  -1.507  10.557   3.855 -4.0161  1.2256  0.1670
  376MOL0     H49603  -1.405  10.708   3.901  0.0006  1.3611  0.3463
  376MOL0     H49604  -1.567  10.708   4.110 -1.2428 -0.0741  0.8809
  376MOL0     H49605  -1.617  10.779   3.958  0.6878 -0.5415 -2.5392
  376MOL0     H49606  -1.672  10.488   4.037  0.6382  1.1416  2.0592
  376MOL0     H49607  -1.744  10.568   3.905  2.1740 -0.9159 -1.1906
  376MOL0     H49608  -1.823  10.751   4.066  1.0949 -0.3491 -1.8682
  376MOL0     H49609  -1.779  10.649   4.205 -2.0933  1.5164  0.6395
  376MOL0     H49610  -1.939  10.482   4.141 -0.3718  1.2173  2.6432
  376MOL0     H49611  -2.008  10.641   4.178  0.7983  2.0244 -0.2860
  376MOL0     H49612  -1.963  10.514   3.905 -1.1633 -0.5531 -0.4638
  376MOL0     H49613  -2.021  10.675   3.918 -1.9319  1.3796  2.4544
  376MOL0     H49614  -1.133  10.381   3.753  0.8581 -0.1648 -3.1629
  376MOL0     H49615  -0.937  10.308   3.640  1.2915  0.5661 -1.3849
  376MOL0     H49616  -0.472  10.301   3.654  1.1619  0.4194  0.4986
  376MOL0     H49617  -0.266  10.213   3.553 -0.7238 -1.2286 -0.6643
  376MOL0     H49618   0.517   9.346   3.624  2.4276 -0.0879 -0.7429
  376MOL0     H49619   0.620   9.418   3.819 -2.2052  1.7810  0.4712
  376MOL0     H49620   0.815   9.445   4.158 -1.3069 -5.5460 -3.1990
  376MOL0     H49621   1.029   9.471   4.301 -0.3045 -0.2099 -1.2982
  376MOL0     H49622   1.151   9.509   4.471 -4.3419 -0.0415  0.4525
  376MOL0     H49623   1.234   9.351   4.432  0.1107 -0.1377  0.1666
  376MOL0     H49624   1.249   9.489   4.696 -0.0054 -2.0680  1.5175
  376MOL0     H49625   1.262   9.312   4.689 -2.1781  0.2760  0.6232
  376MOL0     H49626   1.429   9.526   4.539 -1.5767 -0.9412 -0.9028
  376MOL0     H49627   1.449   9.354   4.500 -1.3276 -0.8013 -0.2779
  376MOL0     H49628   1.512   9.343   4.767  1.2781  0.8386  1.6048
  376MOL0     H49629   1.618   9.452   4.667  1.2615 -1.5702  0.8932
  376MOL0     H49630   1.406   9.692   4.946  2.0728  1.1962 -0.6533
  376MOL0     H49631   0.858   9.210   4.593  1.7677 -0.1649 -0.8205
  376MOL0     H49632   0.663   9.167   4.427 -1.2947  1.2604  0.0307
  377MOL0     O49633   6.307   6.135   6.421 -0.7934  0.4768 -0.4303
  377MOL0     C49634   6.311   6.189   6.312 -0.5071 -0.5786 -0.2174
  377MOL0     O49635   6.208   6.261   6.251 -0.2627  0.3428 -0.3243
  377MOL0     C49636   6.094   6.293   6.321  0.4718 -0.1942  0.2562
  377MOL0     C49637   5.965   6.247   6.286  0.2900  0.0944 -0.0240
  377MOL0     C49638   5.853   6.296   6.344 -0.8551 -0.7173 -0.5987
  377MOL0     C49639   5.867   6.398   6.446  0.0950  0.1170 -0.3619
  377MOL0     O49640   5.753   6.437   6.504 -0.3460  0.6225 -0.5854
  377MOL0     C49641   5.732   6.487   6.635 -0.7958  0.4183  0.4475
  377MOL0     C49642   5.693   6.629   6.633  0.6022 -0.9868 -0.6739
  377MOL0     C49643   5.819   6.717   6.611  0.2746 -0.6932  0.3949
  377MOL0     C49644   5.779   6.849   6.548  0.0391  0.0411 -0.4804
  377MOL0     C49645   5.918   6.906   6.501  0.0342  0.4318 -0.2889
  377MOL0     C49646   6.017   6.822   6.422  0.5824  0.4342  0.9347
  377MOL0     C49647   6.115   6.915   6.339  0.5824 -0.0578  0.0059
  377MOL0     C49648   6.198   6.833   6.244 -0.7024  0.2863  0.2458
  377MOL0     N49649   6.303   6.755   6.319 -0.2493  0.2080  0.1048
  377MOL0     C49650   6.407   6.800   6.395  0.6368 -0.0257  0.8504
  377MOL0     C49651   6.468   6.689   6.442  0.6527 -0.4575 -0.4273
  377MOL0     C49652   6.602   6.693   6.509  0.3657  0.3608 -0.2263
  377MOL0     C49653   6.716   6.712   6.399  0.1270 -0.6776 -0.5916
  377MOL0     C49654   6.745   6.592   6.313  0.0062 -0.4066 -0.0018
  377MOL0     C49655   6.875   6.598   6.240 -0.3522  0.1064 -0.4140
  377MOL0     O49656   6.861   6.501   6.128  0.2846 -0.0467 -0.0376
  377MOL0     C49657   6.977   6.482   6.056  0.8274 -0.0305  0.3835
  377MOL0     C49658   7.035   6.573   5.970  0.0399  0.2261 -0.2125
  377MOL0     C49659   7.155   6.546   5.902  0.3137 -1.0011 -0.3888
  377MOL0     C49660   7.205   6.410   5.897  0.5230 -0.5066  0.4868
  377MOL0     C49661   7.328   6.374   5.817 -0.5784  0.0071 -0.7201
  377MOL0     O49662   7.366   6.241   5.822 -0.0477  0.2582  1.2105
  377MOL0     C49663   7.492   6.210   5.779 -0.2385  0.1185 -0.0344
  377MOL0     C49664   7.598   6.216   5.875 -0.3127  0.1087 -0.3195
  377MOL0     C49665   7.723   6.184   5.850  1.0015  0.4418 -0.9071
  377MOL0     C49666   7.754   6.160   5.721 -0.4555  0.7603  0.6498
  377MOL0     O49667   7.892   6.135   5.707 -0.6182  0.6078  0.0433
  377MOL0     C49668   7.954   6.188   5.591 -0.3718 -0.0078 -0.9293
  377MOL0     C49669   8.096   6.122   5.546  0.0687  0.1442  0.6043
  377MOL0     C49670   8.206   6.107   5.655  0.1512 -1.2689  0.0346
  377MOL0     C49671   8.308   5.995   5.637 -0.5101 -0.0740 -0.4098
  377MOL0     C49672   8.389   5.988   5.507  0.2851 -0.2494 -0.8920
  377MOL0     C49673   8.433   6.127   5.470 -0.3855 -0.3548  0.1937
  377MOL0     C49674   8.542   6.110   5.360  0.0194  0.2986  0.3117
  377MOL0     C49675   8.675   6.052   5.413 -0.6390  0.1637 -1.0643
  377MOL0    Cl49676   8.744   6.177   5.508 -0.6567 -0.4133  0.0341
  377MOL0     C49677   7.659   6.152   5.613 -0.4644  0.4094  0.0217
  377MOL0     C49678   7.524   6.183   5.645  0.6719 -0.2824  0.8900
  377MOL0     O49679   7.397   6.467   5.773  0.4119 -0.1807  0.0652
  377MOL0     C49680   7.142   6.316   5.975 -0.6254 -0.0155 -0.7106
  377MOL0     C49681   7.032   6.353   6.053  0.1133 -0.7894 -0.1133
  377MOL0     N49682   6.403   6.581   6.389 -0.0306  0.0377  0.8260
  377MOL0     N49683   6.308   6.621   6.313 -1.0351  0.6983  0.3110
  377MOL0     C49684   5.998   6.435   6.488  0.4646  0.2496  0.2024
  377MOL0     C49685   6.109   6.388   6.419 -0.3091  0.8971 -0.5268
  377MOL0     C49686   6.427   6.166   6.220  0.9496  0.0718 -0.6489
  377MOL0     C49687   6.529   6.065   6.244 -0.0616 -0.2461  1.0337
  377MOL0     C49688   6.646   6.061   6.164 -0.1118  0.1550  0.9071
  377MOL0     C49689   6.674   6.150   6.059  0.1666 -0.3802 -0.3620
  377MOL0     O49690   6.791   6.134   5.984 -0.3943 -0.4356  0.6405
  377MOL0     C49691   6.800   6.195   5.854 -0.5624  1.0019 -0.0674
  377MOL0     C49692   6.887   6.110   5.765 -0.1439  0.1111 -0.8591
  377MOL0     C49693   6.824   6.099   5.620  0.0801 -0.1922 -0.6078
  377MOL0     C49694   6.891   5.989   5.533  0.1106  0.4425  0.2543
  377MOL0     C49695   7.034   6.029   5.520 -0.3124  0.0834 -0.4944
  377MOL0     C49696   7.146   6.066   5.510 -0.4450 -0.3247 -0.6496
  377MOL0     C49697   6.565   6.232   6.031 -0.7079 -0.6527 -0.6065
  377MOL0     C49698   6.451   6.247   6.111 -0.0721 -1.2732  0.4182
  377MOL0     H49699   5.948   6.188   6.196  4.6873 -1.4645 -0.0727
  377MOL0     H49700   5.752   6.278   6.309 -1.0684  1.0294 -0.9887
  377MOL0     H49701   5.827   6.465   6.685 -0.7291  1.5059  0.8124
  377MOL0     H49702   5.651   6.423   6.671  0.3852 -0.1013  2.3132
  377MOL0     H49703   5.643   6.651   6.728  0.3803 -0.4732 -0.9022
  377MOL0     H49704   5.616   6.649   6.558 -0.4776  2.6713  1.1685
  377MOL0     H49705   5.872   6.661   6.534  1.0786  1.3256 -0.6200
  377MOL0     H49706   5.879   6.734   6.700 -1.4334  2.8956  1.0860
  377MOL0     H49707   5.703   6.831   6.472 -2.5546  3.9173  0.9160
  377MOL0     H49708   5.747   6.920   6.624  4.0053  0.6203  0.8778
  377MOL0     H49709   5.978   6.949   6.581 -1.1808  1.3486  0.1757
  377MOL0     H49710   5.878   6.985   6.436 -0.4261 -0.0274 -0.5751
  377MOL0     H49711   5.968   6.752   6.353 -0.0711  1.1124  0.6922
  377MOL0     H49712   6.068   6.754   6.491 -2.4742 -3.1466 -0.0161
  377MOL0     H49713   6.077   6.992   6.272 -1.3086 -3.8035 -3.6617
  377MOL0     H49714   6.175   6.973   6.410 -0.2925 -1.0424  1.6197
  377MOL0     H49715   6.261   6.897   6.181 -1.7194 -0.6537 -1.8466
  377MOL0     H49716   6.144   6.767   6.174  2.8151  1.0504 -3.5706
  377MOL0     H49717   6.449   6.900   6.402 -0.2118  0.4115 -0.0990
  377MOL0     H49718   6.616   6.611   6.580  0.1769  1.7046  1.4246
  377MOL0     H49719   6.601   6.776   6.580 -0.7850 -0.4962  0.8006
  377MOL0     H49720   6.809   6.732   6.453  1.6625  0.1600 -3.3459
  377MOL0     H49721   6.693   6.802   6.341  1.6448  1.1433  1.4574
  377MOL0     H49722   6.745   6.492   6.358 -0.2328 -1.3294 -1.9542
  377MOL0     H49723   6.659   6.592   6.245  0.1735  2.7206 -0.3492
  377MOL0     H49724   6.961   6.570   6.302  0.4042  0.5619 -1.2344
  377MOL0     H49725   6.890   6.703   6.214 -0.6001  0.3149  0.2660
  377MOL0     H49726   6.981   6.666   5.957 -0.8119 -0.1839  0.3114
  377MOL0     H49727   7.201   6.622   5.840 -0.4557 -0.7938 -0.7132
  377MOL0     H49728   7.567   6.259   5.970  2.6660  0.2283  0.6958
  377MOL0     H49729   7.795   6.189   5.931 -2.5190  2.3769  2.4412
  377MOL0     H49730   7.977   6.294   5.603  3.9744 -0.7297 -1.0068
  377MOL0     H49731   7.890   6.160   5.507 -1.7057 -1.6070  0.5417
  377MOL0     H49732   8.133   6.155   5.449 -1.6537  1.9929  0.5102
  377MOL0     H49733   8.057   6.020   5.536 -0.6428  0.4395  0.2965
  377MOL0     H49734   8.155   6.094   5.751  0.7212  0.7435  0.6572
  377MOL0     H49735   8.255   6.205   5.655 -2.2560  0.0403 -0.9138
  377MOL0     H49736   8.388   6.016   5.709 -0.7380  1.6449 -0.6293
  377MOL0     H49737   8.265   5.896   5.655 -1.9380  0.6124  0.1121
  377MOL0     H49738   8.326   5.945   5.428 -0.3404 -1.5413  0.2640
  377MOL0     H49739   8.467   5.918   5.540  2.4679  1.8231 -1.3774
  377MOL0     H49740   8.465   6.192   5.552 -0.0845  2.3835 -1.9330
  377MOL0     H49741   8.352   6.188   5.431  0.6065 -0.2622 -1.8536
  377MOL0     H49742   8.503   6.036   5.289 -0.8920  1.4160 -0.3764
  377MOL0     H49743   8.568   6.198   5.301 -0.2813  0.3766  0.2936
  377MOL0     H49744   8.741   6.018   5.332  0.9829  2.6610 -0.9045
  377MOL0     H49745   8.660   5.963   5.474  1.7869  2.1058  2.7221
  377MOL0     H49746   7.690   6.127   5.512  1.3836  2.1206  0.1057
  377MOL0     H49747   7.443   6.195   5.575  3.0389  1.2961 -1.8023
  377MOL0     H49748   7.176   6.213   5.989  2.3491  0.8474 -0.8475
  377MOL0     H49749   6.981   6.281   6.116 -1.3808  0.7019  0.4729
  377MOL0     H49750   6.009   6.515   6.561  0.3239  0.6778 -0.2346
  377MOL0     H49751   6.211   6.410   6.449  0.5168 -4.5583  1.8408
  377MOL0     H49752   6.511   6.000   6.329 -0.3646  0.5529  1.5918
  377MOL0     H49753   6.724   5.985   6.170 -1.8038 -1.8394 -0.7722
  377MOL0     H49754   6.839   6.297   5.854  0.5034  0.6057  0.0222
  377MOL0     H49755   6.707   6.201   5.796  1.1567  1.3252 -2.9907
  377MOL0     H49756   6.990   6.147   5.755  0.4993 -0.8998  1.3159
  377MOL0     H49757   6.905   6.010   5.807 -0.6320 -0.5063 -2.0735
  377MOL0     H49758   6.829   6.200   5.577  3.0887 -0.0477 -0.0681
  377MOL0     H49759   6.722   6.059   5.622  0.9786 -2.6545 -0.3662
  377MOL0     H49760   6.874   5.901   5.595 -2.1757  0.0274 -0.8432
  377MOL0     H49761   6.847   5.980   5.433 -0.6226 -1.3074  0.6988
  377MOL0     H49762   7.249   6.094   5.506 -0.1299 -0.8453  1.8877
  377MOL0     H49763   6.568   6.297   5.944  0.2635  2.2888  1.4598
  377MOL0     H49764   6.378   6.325   6.091  0.7680 -0.5436  0.1221
  378MOL0     O49765   5.239   0.101   2.169  0.5169 -0.4292 -0.2380
  378MOL0     C49766   5.291   0.211   2.179  0.0265 -0.7212 -0.9687
  378MOL0     O49767   5.236   0.328   2.129  0.2515  0.1583  0.2259
  378MOL0     C49768   5.108   0.316   2.061 -0.4525 -0.0728 -0.6786
  378MOL0     C49769   5.097   0.307   1.922 -0.5979  1.1042 -0.2404
  378MOL0     C49770   4.978   0.301   1.861  0.6378 -0.3073  0.1899
  378MOL0     C49771   4.869   0.321   1.937  0.1094 -0.4879  0.2183
  378MOL0     O49772   4.751   0.331   1.873  0.0153  0.0703 -0.2180
  378MOL0     C49773   4.617   0.348   1.937  0.3188  0.3122 -0.4381
  378MOL0     C49774   4.506   0.346   1.823  0.3243 -0.1617 -1.2508
  378MOL0     C49775   4.367   0.308   1.873 -0.3190 -0.4186  0.5200
  378MOL0     C49776   4.263   0.284   1.759 -0.7967  0.5998  0.9431
  378MOL0     C49777   4.140   0.191   1.776  0.2919 -0.8186  0.4800
  378MOL0     C49778   4.037   0.239   1.874  0.9330  1.0375  0.6976
  378MOL0     C49779   3.949   0.125   1.924  0.0632 -0.3457  0.7171
  378MOL0     C49780   3.881   0.175   2.053  0.0347  0.6348  0.5306
  378MOL0     N49781   3.785   0.067   2.091 -0.4241  0.1972 -0.0293
  378MOL0     C49782   3.810  -0.018   2.190 -0.4224  0.0065 -0.1190
  378MOL0     C49783   3.712  -0.107   2.184 -0.3474  0.2143  0.3225
  378MOL0     C49784   3.693  -0.228   2.280  0.0417  0.6938  0.6919
  378MOL0     C49785   3.724  -0.357   2.205  0.1976  0.2010  0.7830
  378MOL0     C49786   3.607  -0.399   2.118 -0.0302 -0.3119 -0.4044
  378MOL0     C49787   3.590  -0.552   2.117  0.6059  0.0243  0.3622
  378MOL0     O49788   3.688  -0.631   2.055  0.4764 -0.2903  0.5802
  378MOL0     C49789   3.678  -0.768   2.059  0.0211  0.1582  0.4409
  378MOL0     C49790   3.566  -0.846   2.064 -0.2687  0.9471  0.5108
  378MOL0     C49791   3.569  -0.982   2.083  0.7955  0.9809 -0.2851
  378MOL0     C49792   3.691  -1.043   2.100 -0.1464 -0.5862  0.3166
  378MOL0     C49793   3.702  -1.190   2.126 -0.1322  0.2006 -0.2554
  378MOL0     O49794   3.590  -1.251   2.077 -0.0536 -1.4145 -0.3975
  378MOL0     C49795   3.579  -1.382   2.078 -0.8735  0.3770 -0.1849
  378MOL0     C49796   3.673  -1.469   2.037 -0.2041  0.4123  0.1889
  378MOL0     C49797   3.636  -1.605   2.012  0.0568 -0.6268  0.4862
  378MOL0     C49798   3.503  -1.646   2.044  0.2868 -0.2533 -0.2995
  378MOL0     O49799   3.476  -1.777   2.023 -0.6832 -0.3115  0.4524
  378MOL0     C49800   3.416  -1.849   2.140 -0.3865  0.0502  0.4875
  378MOL0     C49801   3.387  -1.989   2.085  0.2435 -0.3800 -0.7992
  378MOL0     C49802   3.313  -2.086   2.181  0.1956 -0.9269 -0.7594
  378MOL0     C49803   3.353  -2.234   2.136 -0.3263  0.4284  0.8210
  378MOL0     C49804   3.284  -2.257   2.000 -1.0615  0.1183  0.1457
  378MOL0     C49805   3.258  -2.404   1.974 -0.2502 -0.3308  0.8783
  378MOL0     C49806   3.155  -2.428   1.863 -0.2533  0.8339  0.0059
  378MOL0     C49807   3.158  -2.576   1.826 -1.6055  0.2285  0.0937
  378MOL0    Cl49808   2.996  -2.620   1.771 -0.8013 -0.1292 -0.0602
  378MOL0     C49809   3.403  -1.552   2.075 -0.9892  0.3825 -0.4995
  378MOL0     C49810   3.442  -1.412   2.086 -0.1208 -0.3285 -0.4265
  378MOL0     O49811   3.807  -1.239   2.168  0.3977  0.0114 -0.2686
  378MOL0     C49812   3.807  -0.971   2.097 -0.0821 -0.7116 -0.5777
  378MOL0     C49813   3.798  -0.831   2.077 -0.7635 -0.3064 -0.3193
  378MOL0     N49814   3.630  -0.068   2.085  0.9036 -0.8167 -0.8352
  378MOL0     N49815   3.671   0.042   2.034  1.0635  0.0987  0.0369
  378MOL0     C49816   4.870   0.343   2.079  0.7524 -0.8862  0.4370
  378MOL0     C49817   4.998   0.337   2.141 -1.4180  0.5368 -0.8129
  378MOL0     C49818   5.423   0.224   2.243  0.7334 -0.0439  0.4084
  378MOL0     C49819   5.491   0.348   2.230  0.1797  0.4789  0.1453
  378MOL0     C49820   5.608   0.377   2.304  0.2143  0.6381 -0.1632
  378MOL0     C49821   5.655   0.275   2.382  1.0617 -0.5297 -0.8995
  378MOL0     O49822   5.764   0.302   2.463  0.0390 -0.4291  0.5160
  378MOL0     C49823   5.765   0.280   2.611 -0.4895  0.1907  0.0925
  378MOL0     C49824   5.911   0.267   2.661  0.7390  0.0356  0.1314
  378MOL0     C49825   6.004   0.343   2.563 -0.0346 -0.0427 -0.2756
  378MOL0     C49826   6.148   0.358   2.627  0.5020 -0.4461  0.7701
  378MOL0     C49827   6.144   0.466   2.730 -0.2335 -0.3043 -0.5878
  378MOL0     C49828   6.153   0.561   2.805 -0.3252  0.2363 -0.6018
  378MOL0     C49829   5.598   0.150   2.389  0.4457 -0.3382 -0.0222
  378MOL0     C49830   5.482   0.132   2.328 -0.4182  0.3161  0.6226
  378MOL0     H49831   5.184   0.286   1.861 -1.0867 -2.4379  0.0514
  378MOL0     H49832   4.973   0.282   1.754  0.1227 -0.9108  0.3156
  378MOL0     H49833   4.619   0.443   1.991  0.1098  1.1864 -1.9400
  378MOL0     H49834   4.599   0.274   2.016  4.0259  1.0879  1.3695
  378MOL0     H49835   4.532   0.281   1.739 -1.8328  0.5578 -2.5599
  378MOL0     H49836   4.514   0.444   1.775  1.2194  0.6038  0.4194
  378MOL0     H49837   4.334   0.391   1.937 -1.5431 -1.0711  0.7747
  378MOL0     H49838   4.377   0.210   1.919 -1.4370 -2.1156 -2.5821
  378MOL0     H49839   4.235   0.383   1.724  0.2799  0.7968  0.5940
  378MOL0     H49840   4.305   0.225   1.677 -1.4467 -0.3125  1.2459
  378MOL0     H49841   4.184   0.098   1.813 -1.0406 -0.2447  3.9535
  378MOL0     H49842   4.086   0.188   1.681  3.7540 -1.8242 -1.6337
  378MOL0     H49843   3.978   0.315   1.822 -0.3160 -0.3477  0.0056
  378MOL0     H49844   4.084   0.285   1.962 -0.4784  2.4273  0.7820
  378MOL0     H49845   3.873   0.101   1.850 -0.7510 -1.0477  1.7473
  378MOL0     H49846   4.011   0.036   1.939  0.3771 -0.0571  1.1770
  378MOL0     H49847   3.834   0.273   2.039  1.7053  1.4332  0.3120
  378MOL0     H49848   3.951   0.180   2.136  2.2845 -0.4335 -1.1924
  378MOL0     H49849   3.893  -0.021   2.260 -1.0497  2.2156  0.8258
  378MOL0     H49850   3.588  -0.232   2.311 -1.2357  0.7915 -3.1673
  378MOL0     H49851   3.753  -0.207   2.369 -1.9511  3.2902  1.5521
  378MOL0     H49852   3.738  -0.430   2.285 -1.8823 -2.7272 -1.3180
  378MOL0     H49853   3.818  -0.346   2.151  0.0318  1.5990  0.7558
  378MOL0     H49854   3.517  -0.363   2.168  0.0705  0.1542 -0.5520
  378MOL0     H49855   3.612  -0.352   2.019  1.7069 -0.5051 -0.4364
  378MOL0     H49856   3.493  -0.565   2.068 -0.6172 -1.4038  2.9348
  378MOL0     H49857   3.579  -0.584   2.221 -1.1176 -1.0665 -0.1125
  378MOL0     H49858   3.468  -0.802   2.047 -0.6708  0.0885  0.5484
  378MOL0     H49859   3.478  -1.040   2.086  0.8440  0.9489  1.3768
  378MOL0     H49860   3.778  -1.445   2.022  0.6641 -2.6111  0.6097
  378MOL0     H49861   3.699  -1.680   1.966  0.7502  0.9860 -1.3553
  378MOL0     H49862   3.327  -1.799   2.179 -0.2942 -0.7679  1.8182
  378MOL0     H49863   3.492  -1.853   2.219 -0.0385 -0.5163  0.1302
  378MOL0     H49864   3.486  -2.021   2.053 -0.0630 -0.9742 -1.1882
  378MOL0     H49865   3.321  -1.983   1.998 -2.1993  1.6639  1.0449
  378MOL0     H49866   3.207  -2.062   2.195  0.9669  2.0332  0.7274
  378MOL0     H49867   3.351  -2.066   2.281  2.0348  0.2171 -1.6367
  378MOL0     H49868   3.459  -2.254   2.121  0.2438  2.3043  2.0056
  378MOL0     H49869   3.329  -2.309   2.212  3.3169  0.1784  1.8864
  378MOL0     H49870   3.357  -2.223   1.926 -0.7453  0.3493  0.5656
  378MOL0     H49871   3.193  -2.197   1.990 -1.9751 -1.2476 -0.1529
  378MOL0     H49872   3.226  -2.443   2.071 -1.8994 -0.8333  0.1685
  378MOL0     H49873   3.350  -2.454   1.941 -1.1561  0.5681 -3.8221
  378MOL0     H49874   3.052  -2.404   1.893 -0.2309  1.4721 -0.4265
  378MOL0     H49875   3.172  -2.370   1.772  0.7525  1.2464  0.4520
  378MOL0     H49876   3.190  -2.632   1.913  1.7309 -2.3687 -2.5501
  378MOL0     H49877   3.234  -2.592   1.749 -0.6496  3.3299  0.2589
  378MOL0     H49878   3.300  -1.579   2.091 -0.8298  1.5100  3.6264
  378MOL0     H49879   3.378  -1.326   2.105 -2.2906 -1.9002 -0.2078
  378MOL0     H49880   3.901  -1.019   2.122  1.3088  1.6699 -0.9941
  378MOL0     H49881   3.884  -0.766   2.084 -2.3936  1.8499  0.8911
  378MOL0     H49882   4.783   0.369   2.137 -0.5679 -3.4176 -0.2499
  378MOL0     H49883   4.995   0.326   2.249 -2.8292 -0.4289 -0.9231
  378MOL0     H49884   5.456   0.435   2.176  0.0292  0.7957  0.7442
  378MOL0     H49885   5.648   0.477   2.296  0.1621  0.6704 -0.0182
  378MOL0     H49886   5.718   0.184   2.631  2.2378 -1.2754  0.0091
  378MOL0     H49887   5.709   0.363   2.654 -0.0391  1.0182 -0.8633
  378MOL0     H49888   5.931   0.301   2.763  1.1675 -0.3608  0.1871
  378MOL0     H49889   5.940   0.162   2.661  0.6841 -0.0571 -2.8200
  378MOL0     H49890   5.966   0.444   2.544 -0.3549 -0.1953 -0.4460
  378MOL0     H49891   6.018   0.294   2.467  1.6952  2.7063 -1.5520
  378MOL0     H49892   6.202   0.267   2.655  0.6736  0.2603  2.9152
  378MOL0     H49893   6.223   0.396   2.557  0.7361 -2.4467 -0.1326
  378MOL0     H49894   6.156   0.644   2.872 -0.9225 -0.9006  0.8904
  378MOL0     H49895   5.652   0.069   2.436 -0.8435  0.7589  3.7675
  378MOL0     H49896   5.450   0.028   2.330  2.6905 -0.8068 -0.7655
  379MOL0     O49897   5.280   7.380   3.342 -0.2867  0.5881  0.1980
  379MOL0     C49898   5.213   7.288   3.291 -0.6241 -0.1971  0.0134
  379MOL0     O49899   5.080   7.272   3.316 -0.1179  1.2966  0.1550
  379MOL0     C49900   5.010   7.350   3.405 -0.2163 -0.6750 -0.1465
  379MOL0     C49901   5.072   7.389   3.530 -0.2919  0.4673 -0.1237
  379MOL0     C49902   4.999   7.472   3.618 -0.2085  0.4131 -0.5184
  379MOL0     C49903   4.874   7.510   3.586 -0.0772  0.6332  0.7295
  379MOL0     O49904   4.791   7.572   3.676  0.4626 -0.9143  0.8290
  379MOL0     C49905   4.815   7.572   3.817  0.6765 -0.3746 -0.5251
  379MOL0     C49906   4.747   7.437   3.869  0.6348 -0.0387 -0.2337
  379MOL0     C49907   4.809   7.412   4.007  0.7410 -0.8821 -0.9665
  379MOL0     C49908   4.731   7.292   4.069 -0.4628 -0.3405  0.6890
  379MOL0     C49909   4.602   7.332   4.152 -0.9158  0.1569  0.3250
  379MOL0     C49910   4.527   7.210   4.177 -0.0524  0.4453 -0.0060
  379MOL0     C49911   4.414   7.214   4.274  0.2017 -1.1009  0.2040
  379MOL0     C49912   4.339   7.076   4.291  0.1297 -0.4218 -0.1781
  379MOL0     N49913   4.274   7.089   4.417  0.2997  0.4481  0.3444
  379MOL0     C49914   4.138   7.085   4.431 -0.4261 -0.0870  0.4250
  379MOL0     C49915   4.107   7.076   4.561 -0.3152  0.2172 -0.2261
  379MOL0     C49916   3.985   7.040   4.628 -1.2274 -1.1089 -1.4474
  379MOL0     C49917   3.875   7.118   4.565  0.5768  0.1857 -0.4584
  379MOL0     C49918   3.879   7.274   4.594  0.0672  0.4891  0.4271
  379MOL0     C49919   3.761   7.339   4.526  0.3739 -0.2945  0.4618
  379MOL0     O49920   3.641   7.303   4.600 -0.2558  0.0501 -0.6024
  379MOL0     C49921   3.529   7.370   4.562 -0.5738  0.1080  0.2743
  379MOL0     C49922   3.416   7.363   4.650 -1.0661  0.1785  0.1453
  379MOL0     C49923   3.297   7.421   4.625 -0.1555  0.6265  0.6186
  379MOL0     C49924   3.276   7.484   4.505 -0.2517  0.4065  0.4334
  379MOL0     C49925   3.138   7.534   4.478 -0.6077 -0.1511  0.5153
  379MOL0     O49926   3.114   7.586   4.347  0.1134 -0.2038 -0.1949
  379MOL0     C49927   2.984   7.618   4.318  0.1768 -0.2542  0.2524
  379MOL0     C49928   2.970   7.747   4.255 -0.0384  0.1460  0.1088
  379MOL0     C49929   2.842   7.800   4.237 -0.6565 -0.0658 -0.2232
  379MOL0     C49930   2.723   7.725   4.263  1.3907 -0.6344  0.2664
  379MOL0     O49931   2.601   7.793   4.257 -0.0751  0.0232  0.5472
  379MOL0     C49932   2.488   7.711   4.267 -0.4945  0.9004  0.0422
  379MOL0     C49933   2.375   7.806   4.221  0.8355 -0.0372 -0.3211
  379MOL0     C49934   2.257   7.725   4.157 -0.5732 -0.1583 -0.0672
  379MOL0     C49935   2.153   7.818   4.093  0.0331  0.0237  0.7946
  379MOL0     C49936   2.047   7.751   4.005  0.0434  0.1716 -0.2151
  379MOL0     C49937   1.966   7.638   4.072 -0.3063  0.6060  0.3995
  379MOL0     C49938   1.974   7.501   3.990 -0.6112 -0.8734 -0.7459
  379MOL0     C49939   1.896   7.506   3.854 -0.2434 -0.2214 -0.4118
  379MOL0    Cl49940   1.722   7.512   3.887 -0.0041 -0.5353 -1.0769
  379MOL0     C49941   2.739   7.606   4.333 -0.8533  0.5705  0.1853
  379MOL0     C49942   2.865   7.554   4.351  0.6862 -0.4665  0.4871
  379MOL0     O49943   3.063   7.535   4.574  0.1453 -0.2204 -0.0357
  379MOL0     C49944   3.379   7.486   4.414  0.7654 -0.2914 -0.2132
  379MOL0     C49945   3.503   7.437   4.442 -1.1375  0.6271  0.1803
  379MOL0     N49946   4.226   7.060   4.629  0.5981 -0.1617 -0.5873
  379MOL0     N49947   4.323   7.074   4.549 -0.6448  0.2415 -0.3977
  379MOL0     C49948   4.812   7.466   3.465  0.1330  0.2782 -0.3374
  379MOL0     C49949   4.878   7.390   3.376 -0.0294  0.6954 -0.6923
  379MOL0     C49950   5.274   7.201   3.194 -0.7235  0.2239  0.1685
  379MOL0     C49951   5.406   7.164   3.190  0.2118  0.0635 -0.0303
  379MOL0     C49952   5.462   7.080   3.090  0.0859  0.0016 -0.5944
  379MOL0     C49953   5.369   7.021   3.000  0.2460 -0.5853  0.5256
  379MOL0     O49954   5.411   6.948   2.895  0.7408 -0.3998 -0.3356
  379MOL0     C49955   5.546   6.948   2.844 -0.5912 -0.9397 -0.5477
  379MOL0     C49956   5.540   6.912   2.698  0.3624  1.1143  0.8358
  379MOL0     C49957   5.446   7.010   2.617 -0.2926  0.2720  0.2296
  379MOL0     C49958   5.500   7.151   2.607  0.7586  0.8726  0.1388
  379MOL0     C49959   5.417   7.224   2.508 -1.3745 -0.8368 -0.2900
  379MOL0     C49960   5.356   7.291   2.427  0.4544 -0.3451  0.1935
  379MOL0     C49961   5.241   7.051   3.003  0.8882  0.2518 -0.1528
  379MOL0     C49962   5.199   7.150   3.093  0.2512  0.4282 -0.4526
  379MOL0     H49963   5.175   7.360   3.546  0.0526  1.2070 -0.9361
  379MOL0     H49964   5.052   7.507   3.705 -0.2223 -0.3030 -0.2138
  379MOL0     H49965   4.765   7.659   3.860  1.6429 -0.4953  0.9054
  379MOL0     H49966   4.919   7.599   3.836 -0.3907  3.9154  0.0703
  379MOL0     H49967   4.753   7.349   3.805 -4.7395 -3.7646  3.4811
  379MOL0     H49968   4.640   7.449   3.891  0.8180  2.2820 -0.3058
  379MOL0     H49969   4.810   7.501   4.071  1.2673  0.6471 -2.9818
  379MOL0     H49970   4.914   7.388   3.990  0.8418 -2.6831  1.6275
  379MOL0     H49971   4.719   7.218   3.990  0.3158  2.4023 -2.1919
  379MOL0     H49972   4.810   7.260   4.139 -0.6924  0.1625  1.1866
  379MOL0     H49973   4.538   7.404   4.100  1.2057  1.2881 -0.8709
  379MOL0     H49974   4.623   7.383   4.246  0.5544  2.2058 -1.0396
  379MOL0     H49975   4.598   7.136   4.216 -0.4918 -0.8059 -1.4939
  379MOL0     H49976   4.489   7.175   4.080  0.0703  0.3662 -0.0255
  379MOL0     H49977   4.456   7.252   4.368  0.5708 -1.1267  0.0502
  379MOL0     H49978   4.351   7.289   4.226  1.3066  0.5520  1.2161
  379MOL0     H49979   4.411   6.996   4.310 -0.1536 -0.7228 -0.3502
  379MOL0     H49980   4.268   7.052   4.211 -1.0783  0.9293  0.4471
  379MOL0     H49981   4.067   7.081   4.348 -0.8866  1.6299  0.6997
  379MOL0     H49982   3.992   7.059   4.736  1.9966 -0.6569 -1.6345
  379MOL0     H49983   3.970   6.936   4.597  1.3394 -0.5782 -5.1436
  379MOL0     H49984   3.781   7.073   4.599 -0.1858 -1.5138 -4.3049
  379MOL0     H49985   3.864   7.096   4.458 -1.2142 -3.2190  0.2997
  379MOL0     H49986   3.879   7.284   4.703  0.9705 -3.2367  0.8931
  379MOL0     H49987   3.972   7.320   4.558  0.4994 -1.9648 -1.8465
  379MOL0     H49988   3.757   7.319   4.418  0.4686  0.4974  0.2980
  379MOL0     H49989   3.763   7.447   4.542  1.7486 -0.5141  2.0878
  379MOL0     H49990   3.431   7.299   4.736  0.3257 -0.3349 -0.4343
  379MOL0     H49991   3.217   7.414   4.697  1.6628 -1.2767  2.5895
  379MOL0     H49992   3.062   7.800   4.235 -1.3403  3.4658  2.1324
  379MOL0     H49993   2.851   7.896   4.188 -2.0050  1.3208  2.0731
  379MOL0     H49994   2.472   7.680   4.371 -3.6614 -0.2430 -0.6723
  379MOL0     H49995   2.503   7.622   4.206  0.5853  1.5867 -0.7083
  379MOL0     H49996   2.416   7.872   4.144  0.5058  0.3080 -0.2055
  379MOL0     H49997   2.350   7.866   4.309 -2.8821  1.1341 -1.9730
  379MOL0     H49998   2.213   7.661   4.233 -0.2402  0.7964  0.9600
  379MOL0     H49999   2.302   7.656   4.085  2.4874 -2.1855  3.4696
  379MOL0     H50000   2.102   7.876   4.171  2.3297  0.1275  2.3113
  379MOL0     H50001   2.205   7.885   4.024  0.0303 -2.4689 -1.7627
  379MOL0     H50002   2.091   7.718   3.911 -0.2308  1.0126 -0.6533
  379MOL0     H50003   1.978   7.824   3.962  1.8282  1.7999 -0.4195
  379MOL0     H50004   1.862   7.674   4.070 -0.2934  0.6226  0.1190
  379MOL0     H50005   2.008   7.616   4.171  2.0556 -3.3727 -1.2665
  379MOL0     H50006   2.082   7.486   3.984 -0.0771  1.3106  1.6904
  379MOL0     H50007   1.922   7.427   4.051 -2.2921  0.0301 -1.0196
  379MOL0     H50008   1.906   7.412   3.798 -0.0682 -0.0013 -0.7558
  379MOL0     H50009   1.935   7.586   3.790  2.2196 -0.3710  0.7796
  379MOL0     H50010   2.664   7.549   4.388 -1.5539  1.1801 -0.1152
  379MOL0     H50011   2.881   7.464   4.409  2.8393 -0.2456  0.3256
  379MOL0     H50012   3.352   7.526   4.316 -1.2732 -1.5813 -0.2488
  379MOL0     H50013   3.569   7.438   4.356 -0.6566  0.4135  0.5433
  379MOL0     H50014   4.713   7.504   3.441  0.7618  0.8001 -2.3280
  379MOL0     H50015   4.847   7.349   3.281  1.8810 -2.6312 -0.0365
  379MOL0     H50016   5.463   7.198   3.276 -1.7790 -0.6883  1.6747
  379MOL0     H50017   5.568   7.063   3.078  0.4037  1.8546 -0.7974
  379MOL0     H50018   5.598   6.872   2.903 -0.8207 -0.6476  0.0353
  379MOL0     H50019   5.596   7.045   2.854 -0.6534 -1.0750  1.5209
  379MOL0     H50020   5.642   6.926   2.662  0.9007 -3.5544 -0.0977
  379MOL0     H50021   5.500   6.811   2.684  1.7505  0.6198  0.2861
  379MOL0     H50022   5.340   7.007   2.644 -0.6108  0.3636 -0.9778
  379MOL0     H50023   5.446   6.962   2.519  1.6530 -1.5487  1.0553
  379MOL0     H50024   5.497   7.202   2.703  2.8245  0.1445  0.6412
  379MOL0     H50025   5.602   7.156   2.566 -0.0101  0.9855 -1.8704
  379MOL0     H50026   5.301   7.354   2.361  3.7187  3.9468  1.0706
  379MOL0     H50027   5.161   7.013   2.939 -1.4359  4.0199  0.2306
  379MOL0     H50028   5.094   7.176   3.097  0.4738  1.3009 -0.1890
  380MOL0     O50029   5.032   6.907   5.508 -0.0596 -0.3971 -0.4042
  380MOL0     C50030   5.064   6.795   5.533  0.4159  0.4542 -0.9041
  380MOL0     O50031   5.009   6.731   5.650 -0.6119 -0.1977 -0.8298
  380MOL0     C50032   4.919   6.786   5.748  0.9228 -0.9981  0.0460
  380MOL0     C50033   4.900   6.696   5.855  0.9378 -0.0404  0.5873
  380MOL0     C50034   4.831   6.728   5.972 -0.7107 -0.0959 -0.4910
  380MOL0     C50035   4.778   6.854   5.985 -0.4269 -0.7092  0.0043
  380MOL0     O50036   4.711   6.877   6.093  0.0048  0.1203 -0.1244
  380MOL0     C50037   4.569   6.906   6.079 -0.8129  0.3396 -0.0606
  380MOL0     C50038   4.525   7.003   6.181  0.2954  0.9669 -0.7463
  380MOL0     C50039   4.528   6.943   6.323 -0.8550  0.3922  0.4226
  380MOL0     C50040   4.474   7.041   6.430  0.4569  0.2985  0.1577
  380MOL0     C50041   4.438   6.972   6.569 -0.3658  0.4840 -0.2665
  380MOL0     C50042   4.560   6.927   6.654  0.6014 -0.5295  0.0360
  380MOL0     C50043   4.626   7.032   6.736  0.0258  0.3215 -0.2084
  380MOL0     C50044   4.753   6.982   6.820  1.4026  0.0843 -0.1057
  380MOL0     N50045   4.826   7.092   6.891  0.1230 -0.6128 -0.5996
  380MOL0     C50046   4.780   7.162   7.003  0.7190  0.3686  0.7299
  380MOL0     C50047   4.887   7.241   7.043 -0.0182  0.0025 -0.0510
  380MOL0     C50048   4.920   7.337   7.164 -0.6229  0.5372 -0.4677
  380MOL0     C50049   5.036   7.273   7.251  0.2024  0.2124 -0.7700
  380MOL0     C50050   5.015   7.128   7.298  1.0429 -0.4897  0.5965
  380MOL0     C50051   5.139   7.071   7.364 -0.4455  0.1543 -0.4792
  380MOL0     O50052   5.126   6.927   7.392  0.1970 -0.1316  0.6970
  380MOL0     C50053   5.245   6.861   7.384 -0.5885 -0.5080  0.3911
  380MOL0     C50054   5.299   6.786   7.491 -0.0762  0.6033 -0.1462
  380MOL0     C50055   5.424   6.718   7.481  0.0377  0.3016  0.1386
  380MOL0     C50056   5.510   6.746   7.374 -0.0170  0.2315  0.3699
  380MOL0     C50057   5.647   6.701   7.371 -0.5849  0.0332  0.7523
  380MOL0     O50058   5.734   6.776   7.292 -0.1682 -0.6726  0.1582
  380MOL0     C50059   5.869   6.755   7.300  0.1917 -0.6282  0.4966
  380MOL0     C50060   5.935   6.631   7.321 -0.0474  0.7884 -0.7589
  380MOL0     C50061   6.070   6.619   7.345 -1.3222 -0.1318 -1.4476
  380MOL0     C50062   6.155   6.727   7.336 -0.4154 -0.4091 -0.3486
  380MOL0     O50063   6.297   6.727   7.347  0.4312 -0.4535 -0.1651
  380MOL0     C50064   6.365   6.622   7.278  0.2442 -0.8129  0.7017
  380MOL0     C50065   6.342   6.625   7.124 -0.7177 -0.9632  0.2249
  380MOL0     C50066   6.415   6.740   7.051 -0.2371 -0.3068 -0.4836
  380MOL0     C50067   6.367   6.750   6.902 -0.0995 -0.5034 -0.5723
  380MOL0     C50068   6.441   6.860   6.825 -0.9172 -0.0227  0.0822
  380MOL0     C50069   6.370   6.992   6.822 -0.8694 -0.4457 -0.0384
  380MOL0     C50070   6.461   7.103   6.754  0.4574 -0.5117 -0.1647
  380MOL0     C50071   6.418   7.126   6.610  0.6959  0.0132  0.6448
  380MOL0    Cl50072   6.264   7.216   6.598 -0.5274 -0.4772 -0.3263
  380MOL0     C50073   6.099   6.850   7.315  0.9047  0.2172  0.2426
  380MOL0     C50074   5.957   6.870   7.293  0.7196  0.5048  0.2554
  380MOL0     O50075   5.680   6.611   7.450  0.2458  0.3577  0.7894
  380MOL0     C50076   5.460   6.820   7.270 -0.7049  0.4270 -0.8214
  380MOL0     C50077   5.333   6.878   7.268  0.6759 -0.6598 -0.3593
  380MOL0     N50078   4.981   7.224   6.948  0.3343 -0.1515  0.1951
  380MOL0     N50079   4.950   7.131   6.872  0.4426  0.1385 -0.1633
  380MOL0     C50080   4.782   6.950   5.886  0.2476 -1.3194  0.1207
  380MOL0     C50081   4.860   6.916   5.766  0.3559  1.1298  0.4066
  380MOL0     C50082   5.161   6.722   5.457 -0.5672 -0.9485  0.0114
  380MOL0     C50083   5.209   6.601   5.500 -0.7379  0.6889  0.0043
  380MOL0     C50084   5.326   6.553   5.445 -0.2059  0.1202  0.1271
  380MOL0     C50085   5.397   6.625   5.343  0.1918 -0.9167  0.4483
  380MOL0     O50086   5.516   6.580   5.302 -0.0345 -0.1195  0.1395
  380MOL0     C50087   5.566   6.618   5.182  0.0469 -0.0529  0.8081
  380MOL0     C50088   5.709   6.564   5.176  0.5292 -0.3395 -0.1905
  380MOL0     C50089   5.814   6.660   5.126  0.8265  0.5261 -0.4668
  380MOL0     C50090   5.960   6.599   5.143  0.3243  0.5495  0.7328
  380MOL0     C50091   6.054   6.694   5.084 -0.8292  1.0519  0.3878
  380MOL0     C50092   6.124   6.780   5.034 -0.2264 -0.2392 -1.6754
  380MOL0     C50093   5.323   6.723   5.277 -0.3926 -0.6486 -0.1802
  380MOL0     C50094   5.217   6.782   5.345 -0.7561 -0.5695  0.2310
  380MOL0     H50095   4.931   6.592   5.853  0.9429 -0.1437  3.0241
  380MOL0     H50096   4.816   6.672   6.063 -0.4004  2.2760  1.0940
  380MOL0     H50097   4.510   6.815   6.091 -0.4659  0.1349  0.1026
  380MOL0     H50098   4.552   6.960   5.985  2.2333 -0.6339 -1.2974
  380MOL0     H50099   4.426   7.033   6.147 -0.2164  0.2819  0.0978
  380MOL0     H50100   4.578   7.099   6.181  0.6786  0.7827  0.6856
  380MOL0     H50101   4.629   6.921   6.359 -0.4460  2.1764  0.4613
  380MOL0     H50102   4.476   6.847   6.330  1.3280 -0.9511 -0.4160
  380MOL0     H50103   4.555   7.114   6.444  0.1931  0.4389  1.0307
  380MOL0     H50104   4.378   7.084   6.399 -1.4512  1.5093  6.2940
  380MOL0     H50105   4.369   6.889   6.555 -1.9160  1.8279 -0.8292
  380MOL0     H50106   4.392   7.050   6.630 -0.5736 -0.4895  0.8427
  380MOL0     H50107   4.628   6.873   6.586  0.8555  0.2370 -0.3277
  380MOL0     H50108   4.518   6.866   6.734 -2.0178  2.2876  1.0066
  380MOL0     H50109   4.662   7.095   6.654 -4.3146  2.3773 -0.7998
  380MOL0     H50110   4.551   7.079   6.800 -2.9075 -1.3721 -2.1771
  380MOL0     H50111   4.827   6.930   6.758  2.2823  1.4321 -0.2348
  380MOL0     H50112   4.722   6.905   6.891  2.6990 -0.1942  0.1854
  380MOL0     H50113   4.684   7.158   7.052  1.1396 -3.1359  1.4939
  380MOL0     H50114   4.832   7.355   7.226 -1.6544 -0.2320 -1.6634
  380MOL0     H50115   4.968   7.432   7.140 -1.5192  1.1161  0.0004
  380MOL0     H50116   5.064   7.342   7.332 -0.8646 -1.9818  1.6040
  380MOL0     H50117   5.121   7.276   7.183  2.0574 -1.4885  1.3482
  380MOL0     H50118   4.926   7.125   7.361  0.9822 -0.2298  0.5250
  380MOL0     H50119   4.998   7.063   7.212 -0.2879 -2.1652  2.0544
  380MOL0     H50120   5.149   7.131   7.454 -2.6938  2.2645 -1.5475
  380MOL0     H50121   5.224   7.090   7.297 -0.0188  2.1663  0.5599
  380MOL0     H50122   5.233   6.795   7.577 -3.6817 -2.6353 -2.2898
  380MOL0     H50123   5.462   6.652   7.558 -0.0401 -0.4083 -0.4183
  380MOL0     H50124   5.874   6.540   7.321 -2.4111  2.1739  2.3093
  380MOL0     H50125   6.108   6.522   7.375  0.8196  1.4878  1.5295
  380MOL0     H50126   6.334   6.524   7.315  0.3340 -1.1488 -0.0792
  380MOL0     H50127   6.470   6.633   7.303  0.4691 -0.8325 -0.1837
  380MOL0     H50128   6.234   6.632   7.111 -0.9713  1.4184  2.5749
  380MOL0     H50129   6.390   6.531   7.097 -0.3393 -1.7005  3.0673
  380MOL0     H50130   6.524   6.735   7.053 -0.0891  1.3704 -2.0089
  380MOL0     H50131   6.391   6.837   7.097 -2.3153 -0.5582 -0.9278
  380MOL0     H50132   6.393   6.654   6.857  1.1176  0.2194 -1.4974
  380MOL0     H50133   6.260   6.766   6.889 -0.4196 -1.8065  0.3251
  380MOL0     H50134   6.458   6.813   6.727 -0.8245  1.4793 -0.6460
  380MOL0     H50135   6.539   6.879   6.868  0.3941 -0.9010 -2.3397
  380MOL0     H50136   6.345   7.017   6.926 -2.4716 -2.9726  0.2675
  380MOL0     H50137   6.276   6.988   6.767 -1.6294  0.4183  1.1687
  380MOL0     H50138   6.450   7.202   6.798 -0.3260 -1.1323  1.1028
  380MOL0     H50139   6.566   7.075   6.769  0.1971 -0.5370  1.9397
  380MOL0     H50140   6.406   7.031   6.557  0.1523 -1.3868  3.0974
  380MOL0     H50141   6.492   7.194   6.567 -1.8851  1.0009 -2.7266
  380MOL0     H50142   6.161   6.939   7.324 -0.6440  1.3545  0.0431
  380MOL0     H50143   5.919   6.971   7.278  0.5862  0.0363 -3.6689
  380MOL0     H50144   5.538   6.855   7.203  3.0878  0.5841  3.3066
  380MOL0     H50145   5.300   6.935   7.181 -2.5796  1.7542  2.2048
  380MOL0     H50146   4.741   7.050   5.875 -1.0502 -1.9091 -0.8261
  380MOL0     H50147   4.888   6.991   5.694  0.2554 -0.4250 -1.3215
  380MOL0     H50148   5.167   6.569   5.595  2.6867  3.6400  2.8123
  380MOL0     H50149   5.356   6.462   5.497 -0.5217 -0.4899 -0.7199
  380MOL0     H50150   5.566   6.727   5.174  2.4117 -0.1085 -1.0437
  380MOL0     H50151   5.501   6.590   5.099 -1.4218  0.4628  1.7487
  380MOL0     H50152   5.731   6.545   5.281  0.4796  0.2941 -0.0559
  380MOL0     H50153   5.709   6.468   5.124  1.2846 -1.9403  2.6069
  380MOL0     H50154   5.797   6.754   5.180  0.5526  0.3036 -0.1660
  380MOL0     H50155   5.793   6.684   5.022  0.8225  0.8645 -0.3903
  380MOL0     H50156   5.976   6.578   5.249 -0.7730 -0.8360  0.6660
  380MOL0     H50157   5.959   6.506   5.085 -1.7803  0.9217  0.0759
  380MOL0     H50158   6.180   6.854   4.981 -1.9290  0.5401 -2.4735
  380MOL0     H50159   5.374   6.783   5.202 -0.8341 -0.8743 -0.6637
  380MOL0     H50160   5.182   6.876   5.303  0.9978  0.6610  1.3936
  381MOL0     O50161   2.521   0.937   7.680  0.0111 -0.4842  0.2586
  381MOL0     C50162   2.584   1.020   7.745 -0.4748  0.3002 -0.4747
  381MOL0     O50163   2.525   1.126   7.815  0.0307  0.3360 -0.5576
  381MOL0     C50164   2.390   1.121   7.805  0.6028 -0.1970 -0.7228
  381MOL0     C50165   2.309   1.106   7.920 -0.1351  0.2388  0.3204
  381MOL0     C50166   2.165   1.120   7.909  0.1291  0.1498 -0.3659
  381MOL0     C50167   2.096   1.133   7.783 -0.5993  0.1891  0.3490
  381MOL0     O50168   1.962   1.116   7.791  0.1014 -0.7052  0.1163
  381MOL0     C50169   1.895   1.116   7.665  0.7277  1.5432  0.9247
  381MOL0     C50170   1.906   0.987   7.589  0.0594  0.1186  1.2709
  381MOL0     C50171   1.835   0.990   7.453  0.3205 -0.2278 -0.2369
  381MOL0     C50172   1.915   1.075   7.352  0.3374 -0.5992  0.9811
  381MOL0     C50173   1.863   1.075   7.210  0.2126  1.6913  0.3024
  381MOL0     C50174   1.914   1.199   7.129  0.1859  0.4537  0.6458
  381MOL0     C50175   1.842   1.197   6.989 -0.1853 -0.1749  0.2222
  381MOL0     C50176   1.943   1.258   6.894  0.2688 -0.3074  0.2329
  381MOL0     N50177   1.900   1.237   6.754 -0.8247  0.6196 -0.0143
  381MOL0     C50178   1.807   1.325   6.698 -0.3301 -1.0236 -0.1124
  381MOL0     C50179   1.805   1.286   6.568 -0.4640  0.8923  0.3740
  381MOL0     C50180   1.714   1.336   6.463 -0.4411  1.2854  0.5375
  381MOL0     C50181   1.634   1.456   6.510 -0.3943 -0.4725 -0.7790
  381MOL0     C50182   1.562   1.526   6.401  0.1983  0.3172 -0.3194
  381MOL0     C50183   1.432   1.458   6.356 -0.5426 -1.0202  0.5573
  381MOL0     O50184   1.371   1.507   6.232 -0.0042 -0.3466  0.2842
  381MOL0     C50185   1.237   1.476   6.222  0.5578  0.1879 -0.1660
  381MOL0     C50186   1.173   1.539   6.117  0.0538  0.5997  0.7430
  381MOL0     C50187   1.039   1.508   6.088  0.7667  0.4756  0.0667
  381MOL0     C50188   0.950   1.439   6.177 -0.4813 -0.3343 -1.3532
  381MOL0     C50189   0.804   1.428   6.153  1.0503  0.4568  0.8330
  381MOL0     O50190   0.758   1.508   6.050 -0.1684 -0.3471  0.5350
  381MOL0     C50191   0.629   1.511   5.998 -0.8182 -0.1308  0.2260
  381MOL0     C50192   0.597   1.432   5.893  0.7260  0.3089 -1.1122
  381MOL0     C50193   0.468   1.425   5.838 -0.8182  0.0580 -0.0444
  381MOL0     C50194   0.367   1.504   5.907  0.1708 -0.4433 -0.0783
  381MOL0     O50195   0.231   1.500   5.874 -0.5885 -1.0357  0.2682
  381MOL0     C50196   0.181   1.407   5.772 -0.3865  0.7627  0.3425
  381MOL0     C50197   0.045   1.468   5.742  0.0155  0.2121  0.3016
  381MOL0     C50198  -0.025   1.409   5.621 -0.0114  0.2714  0.1100
  381MOL0     C50199  -0.170   1.458   5.620  0.3416 -0.3060  0.9444
  381MOL0     C50200  -0.252   1.421   5.497 -0.4248  0.2037  0.9901
  381MOL0     C50201  -0.287   1.273   5.483  0.1536 -0.0740  0.1256
  381MOL0     C50202  -0.344   1.204   5.605 -1.3332 -0.4218 -0.2049
  381MOL0     C50203  -0.450   1.104   5.572 -0.3038  0.1191 -0.0468
  381MOL0    Cl50204  -0.463   1.003   5.712  0.4785  0.2117  0.2941
  381MOL0     C50205   0.400   1.586   6.015  1.1873 -0.0400 -0.3730
  381MOL0     C50206   0.532   1.590   6.062 -0.0684  0.1925  0.3874
  381MOL0     O50207   0.737   1.347   6.219  0.5134 -0.5229  0.1820
  381MOL0     C50208   1.014   1.385   6.292  0.1014 -0.2126 -0.4790
  381MOL0     C50209   1.150   1.400   6.307 -0.6389  0.7237  0.0553
  381MOL0     N50210   1.902   1.180   6.545 -0.1255 -0.3580 -0.6876
  381MOL0     N50211   1.958   1.156   6.653  0.2717 -0.2634  0.1966
  381MOL0     C50212   2.187   1.152   7.673 -0.1165  0.6717 -0.5783
  381MOL0     C50213   2.327   1.154   7.680  0.1471  0.0925  0.5345
  381MOL0     C50214   2.735   1.013   7.725  0.5885 -1.2852 -0.9478
  381MOL0     C50215   2.830   1.095   7.784  0.9087  0.4388  1.1526
  381MOL0     C50216   2.967   1.077   7.770  0.2171  0.1815  0.6814
  381MOL0     C50217   3.021   0.987   7.687 -0.7812  0.5207 -0.8155
  381MOL0     O50218   3.159   0.968   7.676 -0.1082 -1.0290  0.0909
  381MOL0     C50219   3.223   0.843   7.696 -0.5213  0.0185  0.5531
  381MOL0     C50220   3.375   0.856   7.694  0.6474 -0.0424  0.1238
  381MOL0     C50221   3.423   0.962   7.592 -0.0104 -0.4289 -0.3373
  381MOL0     C50222   3.571   0.961   7.572 -0.7258 -0.1680  0.1032
  381MOL0     C50223   3.621   0.830   7.537  0.2217 -0.3302  0.3746
  381MOL0     C50224   3.676   0.720   7.517 -0.1925 -0.2589  0.4772
  381MOL0     C50225   2.936   0.900   7.629  0.4160  0.7374 -0.0551
  381MOL0     C50226   2.785   0.913   7.644 -0.9200  0.5167 -1.0509
  381MOL0     H50227   2.362   1.069   8.008 -1.1717 -3.3887 -0.3908
  381MOL0     H50228   2.114   1.107   8.004  1.0098 -1.1002 -0.0278
  381MOL0     H50229   1.915   1.204   7.602 -0.6897  2.0902  1.2060
  381MOL0     H50230   1.791   1.127   7.697  0.9554  1.1918  1.8171
  381MOL0     H50231   1.851   0.913   7.648 -3.0957  0.2679 -1.1848
  381MOL0     H50232   2.011   0.961   7.575  0.7396  3.2781 -0.3978
  381MOL0     H50233   1.735   1.033   7.462  0.9799  0.9618  2.2168
  381MOL0     H50234   1.831   0.889   7.412 -0.5352 -0.5001  0.4863
  381MOL0     H50235   1.910   1.182   7.375  0.5042 -0.5355  0.7211
  381MOL0     H50236   2.020   1.046   7.354  0.6259  0.4274  1.3378
  381MOL0     H50237   1.756   1.054   7.205  0.9588 -3.1293 -1.0295
  381MOL0     H50238   1.895   0.980   7.167 -2.1521  2.5054 -3.7316
  381MOL0     H50239   2.023   1.191   7.127  0.1751 -0.1854  1.5847
  381MOL0     H50240   1.883   1.289   7.184 -0.3237  0.9805 -0.4738
  381MOL0     H50241   1.825   1.091   6.965  1.6545 -0.0141 -2.2171
  381MOL0     H50242   1.751   1.256   6.979  1.2086  1.6447 -4.1749
  381MOL0     H50243   2.047   1.223   6.895  0.6560  0.7596  1.8781
  381MOL0     H50244   1.951   1.365   6.917  2.0663  0.0475 -1.6999
  381MOL0     H50245   1.747   1.387   6.763  0.6081 -3.2681  3.1326
  381MOL0     H50246   1.668   1.245   6.426  0.6322  1.1958 -0.6510
  381MOL0     H50247   1.784   1.369   6.385 -0.0706 -1.5605 -0.4343
  381MOL0     H50248   1.704   1.528   6.553  0.0387 -1.5825  0.4433
  381MOL0     H50249   1.560   1.424   6.585 -1.2524 -2.0816 -2.2593
  381MOL0     H50250   1.541   1.632   6.419 -1.7025  0.1126 -1.1843
  381MOL0     H50251   1.629   1.527   6.314 -2.5096  0.0966 -2.5395
  381MOL0     H50252   1.372   1.441   6.446  0.3147  0.5638  1.4590
  381MOL0     H50253   1.472   1.360   6.328 -1.4377 -0.6972 -2.1768
  381MOL0     H50254   1.234   1.597   6.049  1.9684 -0.6174  1.3497
  381MOL0     H50255   1.006   1.538   5.990 -0.9106  1.5064  0.9024
  381MOL0     H50256   0.670   1.364   5.848  0.1748  0.1670 -1.8223
  381MOL0     H50257   0.437   1.352   5.764 -2.2352  0.4222  0.1753
  381MOL0     H50258   0.179   1.301   5.797  1.5190  1.2969  3.1392
  381MOL0     H50259   0.225   1.408   5.672 -1.3388 -0.8847 -0.1436
  381MOL0     H50260   0.051   1.576   5.732 -2.9064  0.3972 -0.3171
  381MOL0     H50261  -0.014   1.459   5.834  0.4262 -2.2287  0.3895
  381MOL0     H50262  -0.029   1.301   5.641 -1.9214  0.6128  1.9450
  381MOL0     H50263   0.021   1.423   5.523  0.2702  0.0139  0.2033
  381MOL0     H50264  -0.225   1.429   5.710  2.4541 -5.8840  0.8397
  381MOL0     H50265  -0.172   1.567   5.623 -0.3788 -0.2657 -0.1288
  381MOL0     H50266  -0.194   1.466   5.415 -1.3101 -0.5878 -0.0976
  381MOL0     H50267  -0.342   1.482   5.496 -1.3618 -1.1299 -0.4402
  381MOL0     H50268  -0.197   1.215   5.461 -0.8870 -0.7150 -2.8538
  381MOL0     H50269  -0.349   1.248   5.396 -1.7142 -2.0432  1.8543
  381MOL0     H50270  -0.271   1.154   5.670  3.8686  2.2414 -3.3406
  381MOL0     H50271  -0.401   1.274   5.667 -1.6148  1.1844 -2.1722
  381MOL0     H50272  -0.429   1.051   5.479 -0.7423 -1.5749  0.7957
  381MOL0     H50273  -0.536   1.171   5.558 -1.2990 -0.1386  3.6514
  381MOL0     H50274   0.318   1.629   6.072 -0.9837 -1.2731 -2.3452
  381MOL0     H50275   0.559   1.647   6.151 -1.1620 -0.4063  1.1315
  381MOL0     H50276   0.954   1.325   6.359  0.3906  1.2874  1.1986
  381MOL0     H50277   1.181   1.351   6.399  0.3958  1.1142 -0.0728
  381MOL0     H50278   2.140   1.190   7.583 -0.6652 -0.3535 -0.7428
  381MOL0     H50279   2.391   1.150   7.592  0.4868  4.9838  0.2972
  381MOL0     H50280   2.799   1.172   7.854 -0.2863 -0.1270  1.2661
  381MOL0     H50281   3.034   1.135   7.833 -0.5311  1.3960  0.4065
  381MOL0     H50282   3.193   0.780   7.612 -1.1670  1.3732 -0.2698
  381MOL0     H50283   3.194   0.795   7.790  0.1255 -1.3640  0.0537
  381MOL0     H50284   3.416   0.875   7.794 -0.6213  0.7609  0.5136
  381MOL0     H50285   3.410   0.756   7.664 -1.6407 -0.5647 -1.0541
  381MOL0     H50286   3.382   1.060   7.616  1.1427 -0.0928  0.3675
  381MOL0     H50287   3.381   0.951   7.491 -0.1422 -1.5284 -0.1807
  381MOL0     H50288   3.598   1.031   7.493 -4.2725  2.1222  0.7144
  381MOL0     H50289   3.620   0.982   7.668 -0.7943 -2.3593  0.6955
  381MOL0     H50290   3.719   0.626   7.488  0.8775 -0.1596  1.6183
  381MOL0     H50291   2.980   0.819   7.572  0.3474 -0.3281  1.3358
  381MOL0     H50292   2.720   0.835   7.606 -2.3855 -1.0040  3.8103
  382MOL0     O50293   8.350   8.594   3.760 -0.3614 -0.4261 -0.3909
  382MOL0     C50294   8.340   8.619   3.638  0.3870  0.5512  0.2378
  382MOL0     O50295   8.444   8.616   3.557  0.8688 -0.1938  0.4694
  382MOL0     C50296   8.576   8.609   3.616  0.3292 -0.8669 -0.6042
  382MOL0     C50297   8.656   8.730   3.623  0.4890  0.3687  0.5803
  382MOL0     C50298   8.782   8.725   3.675  0.4596 -0.3533  0.0147
  382MOL0     C50299   8.834   8.601   3.709  1.8967 -0.1677 -0.3139
  382MOL0     O50300   8.957   8.601   3.764  0.8456  0.3155 -0.7265
  382MOL0     C50301   8.959   8.545   3.893 -0.2535  0.4792  0.2307
  382MOL0     C50302   9.093   8.607   3.935  0.1061  0.4055 -0.0342
  382MOL0     C50303   9.118   8.561   4.084  0.3117 -0.2523  0.4048
  382MOL0     C50304   9.266   8.583   4.116 -0.1197  0.8109 -0.0174
  382MOL0     C50305   9.282   8.589   4.264  0.9054  0.2373 -0.2530
  382MOL0     C50306   9.425   8.624   4.296  1.0675  0.7792 -0.1459
  382MOL0     C50307   9.465   8.768   4.285  0.3023  0.0862  0.2192
  382MOL0     C50308   9.618   8.768   4.302  0.1816 -0.4147  0.4319
  382MOL0     N50309   9.664   8.896   4.347 -0.3638  0.1321  0.2035
  382MOL0     C50310   9.668   8.952   4.471 -0.7096  0.9359 -0.1947
  382MOL0     C50311   9.733   9.072   4.455 -0.2839  0.4536 -0.8779
  382MOL0     C50312   9.788   9.159   4.562  0.8143 -0.9429  0.0883
  382MOL0     C50313   9.920   9.120   4.616 -0.4127  0.2730 -0.9777
  382MOL0     C50314  10.028   9.216   4.553 -0.5933 -0.4807  0.6830
  382MOL0     C50315  10.172   9.191   4.609  0.2130 -0.5611 -0.8453
  382MOL0     O50316  10.207   9.055   4.588  0.7974 -0.2532 -0.6779
  382MOL0     C50317  10.329   9.026   4.622  0.3711  0.5736 -0.7537
  382MOL0     C50318  10.435   9.106   4.685  0.1289  0.3692 -0.4716
  382MOL0     C50319  10.561   9.052   4.717  0.1343  0.7204 -0.0048
  382MOL0     C50320  10.596   8.920   4.675  0.5089 -1.0795  0.0407
  382MOL0     C50321  10.729   8.866   4.695 -0.1499 -0.6125 -0.5224
  382MOL0     O50322  10.740   8.723   4.676 -0.9393  0.6742 -0.3686
  382MOL0     C50323  10.855   8.661   4.732 -0.8553  0.1445  0.1926
  382MOL0     C50324  10.909   8.547   4.676 -0.4621 -0.6636  0.4166
  382MOL0     C50325  11.015   8.466   4.735 -0.4098 -0.8469  0.4596
  382MOL0     C50326  11.064   8.514   4.855  0.0454  0.3036  0.4499
  382MOL0     O50327  11.171   8.441   4.897  0.4290  0.1455 -0.2328
  382MOL0     C50328  11.167   8.378   5.024 -0.6167  0.3709 -0.3956
  382MOL0     C50329  11.272   8.270   5.048 -0.0554 -0.0818 -0.1558
  382MOL0     C50330  11.280   8.154   4.943 -0.0909  0.4431 -0.2173
  382MOL0     C50331  11.328   8.195   4.804  0.0174 -0.4409 -0.2686
  382MOL0     C50332  11.395   8.088   4.724  0.2661 -0.1620  0.7820
  382MOL0     C50333  11.293   7.985   4.675  0.5262  0.7002 -0.2340
  382MOL0     C50334  11.199   8.035   4.569 -0.3577 -0.4849 -0.1442
  382MOL0     C50335  11.152   7.925   4.475 -0.4691  0.4128  0.2117
  382MOL0    Cl50336  11.060   7.788   4.554  0.6785  0.0678 -0.4579
  382MOL0     C50337  11.011   8.619   4.921 -0.4354 -0.6909 -0.5644
  382MOL0     C50338  10.910   8.695   4.865  0.3252 -1.1466 -0.6793
  382MOL0     O50339  10.820   8.948   4.721 -0.3050 -0.5411  0.7199
  382MOL0     C50340  10.485   8.839   4.625 -0.2015 -0.0034 -0.2341
  382MOL0     C50341  10.357   8.890   4.588  0.4258 -0.1704 -0.3097
  382MOL0     N50342   9.757   9.080   4.318 -0.1433 -0.2456  0.8432
  382MOL0     N50343   9.712   8.984   4.252 -0.9580  0.2046  0.8480
  382MOL0     C50344   8.763   8.486   3.687  0.0622 -0.8164 -0.4350
  382MOL0     C50345   8.634   8.489   3.638 -0.2802 -0.8515 -0.5419
  382MOL0     C50346   8.207   8.657   3.587 -0.4565 -0.1292 -0.3342
  382MOL0     C50347   8.195   8.685   3.453 -0.1656  0.1853  0.4676
  382MOL0     C50348   8.071   8.716   3.401  0.0749  0.5666  0.0117
  382MOL0     C50349   7.959   8.731   3.487  0.7342  0.5652  0.0103
  382MOL0     O50350   7.834   8.772   3.452  0.0198 -0.2451  0.6081
  382MOL0     C50351   7.801   8.832   3.316 -0.0022  0.1402  0.3132
  382MOL0     C50352   7.767   8.975   3.347  0.1514  0.1508  0.1218
  382MOL0     C50353   7.903   9.057   3.342  0.0631 -0.1420 -0.8692
  382MOL0     C50354   7.972   9.081   3.482 -0.3243  0.2784 -0.7190
  382MOL0     C50355   7.892   9.156   3.588  0.4452  0.3452 -0.1318
  382MOL0     C50356   7.818   9.206   3.669  0.1882  0.1786  1.3683
  382MOL0     C50357   7.968   8.696   3.626  0.1322 -0.0779  0.7113
  382MOL0     C50358   8.091   8.652   3.672  0.4367 -1.4524  0.2805
  382MOL0     H50359   8.603   8.822   3.603 -0.8897 -0.8884 -2.0266
  382MOL0     H50360   8.837   8.818   3.684 -2.1964  1.5224 -1.7723
  382MOL0     H50361   8.969   8.437   3.879  3.7158  0.6088  0.7776
  382MOL0     H50362   8.874   8.575   3.955 -0.3820  0.4189  0.0853
  382MOL0     H50363   9.110   8.715   3.935 -0.4735  0.5302  1.6645
  382MOL0     H50364   9.169   8.569   3.867 -0.1643  0.9405 -0.6442
  382MOL0     H50365   9.086   8.457   4.094  1.0890 -0.4430  0.9833
  382MOL0     H50366   9.054   8.616   4.154  0.7938 -0.6141  1.1476
  382MOL0     H50367   9.332   8.506   4.075  3.1266  1.6854  3.0693
  382MOL0     H50368   9.302   8.675   4.070 -0.1758  2.7185  3.4467
  382MOL0     H50369   9.253   8.492   4.305 -1.3662  0.2937 -1.5281
  382MOL0     H50370   9.216   8.667   4.303 -0.5489 -1.0142 -0.1253
  382MOL0     H50371   9.488   8.572   4.224  0.0123 -2.5230  1.1028
  382MOL0     H50372   9.446   8.588   4.397  0.7963  1.1324  0.0406
  382MOL0     H50373   9.433   8.812   4.191 -0.5230 -1.2769 -0.1650
  382MOL0     H50374   9.415   8.830   4.361  0.2522  0.8796 -0.4495
  382MOL0     H50375   9.647   8.756   4.197 -3.3567 -1.0266 -0.6226
  382MOL0     H50376   9.651   8.678   4.355 -0.7110 -2.0712 -1.6800
  382MOL0     H50377   9.643   8.891   4.557  0.6559 -0.0495 -0.4653
  382MOL0     H50378   9.715   9.163   4.643  0.1580 -3.3490 -0.3096
  382MOL0     H50379   9.797   9.262   4.526 -2.0050 -0.0865  1.5850
  382MOL0     H50380   9.952   9.017   4.598 -0.2472  0.2116 -0.3230
  382MOL0     H50381   9.926   9.129   4.724  1.8947 -2.5603 -0.7499
  382MOL0     H50382  10.045   9.201   4.446  2.4200  2.0193  0.6550
  382MOL0     H50383  10.005   9.322   4.560  3.0038  0.5370 -0.8679
  382MOL0     H50384  10.163   9.212   4.716 -0.5548 -4.0538 -0.1015
  382MOL0     H50385  10.244   9.265   4.573  1.7352 -0.3488  2.2777
  382MOL0     H50386  10.399   9.205   4.711 -1.6113 -0.0711 -1.0589
  382MOL0     H50387  10.642   9.110   4.760  0.2018 -0.5452  1.6597
  382MOL0     H50388  10.866   8.515   4.581 -2.7615  1.9169  0.4660
  382MOL0     H50389  11.057   8.375   4.694  2.1377  0.4521 -0.0772
  382MOL0     H50390  11.065   8.340   5.034 -0.0227 -0.9291  1.2166
  382MOL0     H50391  11.180   8.453   5.102 -0.0095  0.1758 -0.3065
  382MOL0     H50392  11.276   8.229   5.149 -0.2134 -0.2581 -0.2214
  382MOL0     H50393  11.372   8.313   5.038  0.5670 -1.2171  0.8485
  382MOL0     H50394  11.181   8.107   4.937  0.4348 -0.5123 -2.2251
  382MOL0     H50395  11.353   8.082   4.982  0.3514  1.0592  0.1199
  382MOL0     H50396  11.245   8.233   4.743  1.7681  2.7128 -0.9003
  382MOL0     H50397  11.402   8.275   4.807 -0.4511  0.0441 -1.2725
  382MOL0     H50398  11.472   8.037   4.784  1.9840  1.1417 -0.2164
  382MOL0     H50399  11.457   8.128   4.643 -0.1094 -3.2492 -1.1933
  382MOL0     H50400  11.239   7.934   4.755  1.5936 -3.9662 -2.1717
  382MOL0     H50401  11.356   7.906   4.635  2.4589  0.0966  3.5069
  382MOL0     H50402  11.111   8.077   4.618 -0.2002 -1.3421  0.9143
  382MOL0     H50403  11.262   8.112   4.522  0.8958 -2.6322 -2.2119
  382MOL0     H50404  11.228   7.889   4.405 -1.3464 -1.8243  0.2992
  382MOL0     H50405  11.097   7.986   4.403  1.4001  2.2122  0.2228
  382MOL0     H50406  11.037   8.661   5.017  0.8419 -1.6192 -0.4795
  382MOL0     H50407  10.867   8.776   4.922 -0.8586 -2.4733  0.4064
  382MOL0     H50408  10.507   8.738   4.591  2.4924  0.2960  0.3720
  382MOL0     H50409  10.288   8.830   4.529 -1.1143  2.3069 -1.2120
  382MOL0     H50410   8.807   8.389   3.710 -0.0044 -0.3828  1.7969
  382MOL0     H50411   8.585   8.394   3.618 -0.2152 -0.7717 -1.1052
  382MOL0     H50412   8.287   8.699   3.397  0.4997  0.4474  1.6006
  382MOL0     H50413   8.066   8.754   3.299 -3.6290  3.3388  1.0140
  382MOL0     H50414   7.718   8.777   3.272  0.5252  0.7062 -1.4784
  382MOL0     H50415   7.889   8.825   3.252  2.4802 -0.1799  3.4751
  382MOL0     H50416   7.704   9.013   3.266  0.2657 -0.3443 -0.2013
  382MOL0     H50417   7.703   8.989   3.435 -0.3693  0.6953 -0.3342
  382MOL0     H50418   7.879   9.151   3.292  1.0060  0.4044 -0.3297
  382MOL0     H50419   7.973   9.006   3.275  2.3612 -2.1986  2.7512
  382MOL0     H50420   8.010   8.985   3.520  1.5446  0.6850 -1.4728
  382MOL0     H50421   8.054   9.147   3.452  1.7851 -1.6846  0.4085
  382MOL0     H50422   7.746   9.243   3.740  0.0596  3.1865 -0.1604
  382MOL0     H50423   7.882   8.700   3.691  0.1329 -0.4436  0.7395
  382MOL0     H50424   8.099   8.619   3.775 -3.7161 -1.5433  0.7439
  383MOL0     O50425   7.884   2.371   0.164 -0.0668  0.3066 -0.1114
  383MOL0     C50426   7.957   2.449   0.104  0.5823  0.0773 -0.4935
  383MOL0     O50427   7.928   2.581   0.074  0.0630 -0.1566 -0.4176
  383MOL0     C50428   7.815   2.642   0.102  0.7685  0.0996  0.9463
  383MOL0     C50429   7.751   2.714   0.005  0.1718  0.3476  0.5719
  383MOL0     C50430   7.629   2.776   0.020  0.0448  0.1676 -0.8125
  383MOL0     C50431   7.572   2.779   0.146  0.0513 -0.8283 -0.2360
  383MOL0     O50432   7.449   2.840   0.168 -0.0230  0.0740 -0.4274
  383MOL0     C50433   7.422   2.879   0.307  0.9874 -0.0910 -0.0052
  383MOL0     C50434   7.324   2.998   0.295  0.5374  0.2075  0.0166
  383MOL0     C50435   7.318   3.104   0.410  0.3302 -0.2717  0.8363
  383MOL0     C50436   7.199   3.202   0.394 -0.1058  0.0221 -0.3745
  383MOL0     C50437   7.058   3.133   0.402  0.8600  0.4640 -0.1649
  383MOL0     C50438   7.037   3.055   0.535 -0.3098  0.1282 -0.1564
  383MOL0     C50439   6.893   3.002   0.548  0.1905 -0.2428  0.5024
  383MOL0     C50440   6.872   2.886   0.653  0.7171 -0.4248  0.1123
  383MOL0     N50441   6.739   2.822   0.665 -0.0266 -0.3150  0.0075
  383MOL0     C50442   6.667   2.784   0.555 -0.0833  0.1289 -1.2174
  383MOL0     C50443   6.553   2.729   0.601 -0.0136  0.5624 -0.3201
  383MOL0     C50444   6.441   2.666   0.516 -0.7267 -0.4360 -0.0574
  383MOL0     C50445   6.364   2.553   0.586  0.0173 -0.2550 -0.1146
  383MOL0     C50446   6.312   2.438   0.499 -0.0184 -0.2183 -0.6010
  383MOL0     C50447   6.177   2.462   0.430  0.2909  1.0590 -0.3722
  383MOL0     O50448   6.071   2.496   0.524 -0.1529  0.3533 -0.1606
  383MOL0     C50449   5.940   2.522   0.484 -0.7410  0.0974  0.7464
  383MOL0     C50450   5.850   2.551   0.586 -0.5501  0.7332 -0.1176
  383MOL0     C50451   5.722   2.595   0.554  0.7439 -0.6272  0.7497
  383MOL0     C50452   5.679   2.600   0.429  0.2584  0.2917  0.6699
  383MOL0     C50453   5.544   2.642   0.397  0.6596  0.0246 -0.6163
  383MOL0     O50454   5.509   2.751   0.466  0.1176  0.2830  0.1056
  383MOL0     C50455   5.375   2.796   0.455  0.6824  0.1420  0.7344
  383MOL0     C50456   5.277   2.779   0.557  0.3212  0.7478  0.2745
  383MOL0     C50457   5.151   2.834   0.540  0.1174  0.2746 -0.3190
  383MOL0     C50458   5.115   2.908   0.426  0.1523 -1.1353  0.1139
  383MOL0     O50459   4.990   2.960   0.424  0.5887 -0.2008  0.0015
  383MOL0     C50460   4.908   2.903   0.317  0.1189  0.2435 -0.6960
  383MOL0     C50461   4.764   2.945   0.338 -0.3928 -0.2945 -0.4943
  383MOL0     C50462   4.668   2.881   0.243 -0.5428  0.9822 -0.2493
  383MOL0     C50463   4.526   2.919   0.281  0.6107 -0.0644 -0.2130
  383MOL0     C50464   4.438   2.884   0.171  0.3106  0.6103  0.4071
  383MOL0     C50465   4.287   2.897   0.194 -0.3789 -0.0682  0.7411
  383MOL0     C50466   4.233   2.866   0.326  0.2932  0.3631 -0.5504
  383MOL0     C50467   4.080   2.848   0.322 -0.6078 -0.4120 -0.0743
  383MOL0    Cl50468   3.988   2.994   0.259  0.6862 -0.1014  0.1075
  383MOL0     C50469   5.214   2.925   0.331  0.6811 -0.0667 -0.5148
  383MOL0     C50470   5.342   2.876   0.345  0.4908 -0.4499 -0.1828
  383MOL0     O50471   5.474   2.580   0.320 -0.4364  0.5138  0.3904
  383MOL0     C50472   5.769   2.564   0.319  0.8791  0.5754  0.4835
  383MOL0     C50473   5.899   2.537   0.347 -0.8038  0.2277  0.6393
  383MOL0     N50474   6.559   2.737   0.738 -0.1331  0.3127 -0.4029
  383MOL0     N50475   6.669   2.785   0.776 -0.4249 -0.2083 -0.0180
  383MOL0     C50476   7.629   2.701   0.244 -0.4026 -0.0261  0.8996
  383MOL0     C50477   7.742   2.627   0.219 -0.6987 -0.1838 -0.3389
  383MOL0     C50478   8.081   2.400   0.051  0.2166  0.1552 -0.0850
  383MOL0     C50479   8.147   2.291   0.115 -0.4092 -1.0869 -0.3681
  383MOL0     C50480   8.273   2.244   0.067 -0.5976 -0.1175 -0.2298
  383MOL0     C50481   8.344   2.304  -0.035 -0.7559 -0.5683 -0.5312
  383MOL0     O50482   8.479   2.267  -0.057  0.4652 -0.6443  0.2828
  383MOL0     C50483   8.491   2.137  -0.114  0.2746 -0.5731  0.0985
  383MOL0     C50484   8.524   2.158  -0.269 -0.8282 -0.5901 -0.1908
  383MOL0     C50485   8.637   2.256  -0.292 -0.7514 -0.2269 -0.5568
  383MOL0     C50486   8.771   2.178  -0.275 -0.7852  0.1532 -0.2075
  383MOL0     C50487   8.888   2.253  -0.321  0.7803  0.1684  0.5986
  383MOL0     C50488   8.972   2.333  -0.347  0.4929 -0.2817 -0.3544
  383MOL0     C50489   8.281   2.417  -0.098  0.9033  0.4849 -0.1097
  383MOL0     C50490   8.145   2.445  -0.063  0.4438  0.8746 -0.1946
  383MOL0     H50491   7.807   2.719  -0.088 -1.6231 -1.4134 -0.7074
  383MOL0     H50492   7.571   2.813  -0.064  0.8491  1.7358 -0.6902
  383MOL0     H50493   7.507   2.913   0.367 -1.0997  1.3901  2.3385
  383MOL0     H50494   7.371   2.793   0.352  0.4801  0.8468  1.2785
  383MOL0     H50495   7.229   2.947   0.274  0.0255  1.0606  0.2342
  383MOL0     H50496   7.342   3.059   0.206  0.5337  1.0892  0.6092
  383MOL0     H50497   7.418   3.149   0.409  1.7396 -3.0668 -1.4705
  383MOL0     H50498   7.301   3.060   0.509  0.9010  2.0366  2.0422
  383MOL0     H50499   7.195   3.267   0.482 -2.7738 -2.0183  1.1493
  383MOL0     H50500   7.214   3.262   0.303  0.8661 -1.4124 -1.2018
  383MOL0     H50501   7.046   3.070   0.313  0.4399  1.5236 -0.8802
  383MOL0     H50502   6.986   3.215   0.409  0.5983  0.3740 -1.5192
  383MOL0     H50503   7.055   3.110   0.627 -1.4177 -2.0622  1.4752
  383MOL0     H50504   7.111   2.975   0.544  0.8215  1.3095  1.5062
  383MOL0     H50505   6.820   3.078   0.577  0.3004 -0.2216  0.7294
  383MOL0     H50506   6.864   2.972   0.447 -4.9362 -0.5764  1.7967
  383MOL0     H50507   6.900   2.927   0.751 -0.5271  0.9572 -0.0812
  383MOL0     H50508   6.943   2.806   0.628 -0.9578 -2.0807  0.3484
  383MOL0     H50509   6.694   2.794   0.450 -0.7430  1.9193 -1.2561
  383MOL0     H50510   6.491   2.635   0.423  1.4142  0.8815  0.5863
  383MOL0     H50511   6.367   2.740   0.484  0.6614  1.4666  0.9741
  383MOL0     H50512   6.280   2.603   0.634  0.5531  0.3027  0.2533
  383MOL0     H50513   6.427   2.506   0.663  2.1384 -0.6008 -1.9486
  383MOL0     H50514   6.393   2.408   0.432  1.1660 -1.9876  1.5058
  383MOL0     H50515   6.281   2.357   0.566 -3.6847  1.3761 -0.1016
  383MOL0     H50516   6.137   2.374   0.378  1.3788 -0.3374  1.0859
  383MOL0     H50517   6.188   2.549   0.364 -3.4040  2.7984  1.0050
  383MOL0     H50518   5.888   2.548   0.687  0.7275 -0.4531 -0.6013
  383MOL0     H50519   5.654   2.620   0.635  1.9903 -1.6933  2.1652
  383MOL0     H50520   5.298   2.717   0.644  0.9188  0.7699  0.1500
  383MOL0     H50521   5.083   2.824   0.623 -1.3297  0.0462 -1.4848
  383MOL0     H50522   4.909   2.795   0.331  2.8596  0.4461  1.6452
  383MOL0     H50523   4.941   2.937   0.219 -3.7383  3.0497 -1.2346
  383MOL0     H50524   4.761   3.053   0.325  2.0493  0.6900  4.4996
  383MOL0     H50525   4.734   2.913   0.439  0.7024  0.4733  0.1042
  383MOL0     H50526   4.677   2.772   0.245  2.9157  1.1681  1.2833
  383MOL0     H50527   4.681   2.921   0.142  0.4332 -0.2104 -0.6195
  383MOL0     H50528   4.498   2.871   0.375  0.9756 -2.1087 -1.0958
  383MOL0     H50529   4.512   3.028   0.279 -0.7196 -0.2119 -2.5968
  383MOL0     H50530   4.439   2.779   0.141  0.8484  0.5760  0.5394
  383MOL0     H50531   4.450   2.939   0.077 -0.8112  1.7833  0.9236
  383MOL0     H50532   4.237   2.837   0.118  1.9850 -0.0730 -0.9299
  383MOL0     H50533   4.257   2.997   0.161 -0.0230  1.3357  4.2970
  383MOL0     H50534   4.288   2.775   0.351 -1.4743 -0.8563 -0.9589
  383MOL0     H50535   4.249   2.950   0.395  1.1676  1.6093 -2.1864
  383MOL0     H50536   4.045   2.842   0.426 -0.2637 -0.5180  0.0358
  383MOL0     H50537   4.043   2.765   0.261 -2.2143  1.3054 -1.5603
  383MOL0     H50538   5.191   2.969   0.234 -2.0718 -1.8790 -0.7956
  383MOL0     H50539   5.415   2.896   0.268  0.4316 -2.2667 -0.7545
  383MOL0     H50540   5.742   2.574   0.214  1.1708  0.4278  0.3935
  383MOL0     H50541   5.978   2.526   0.273 -0.1054  1.2999  1.2089
  383MOL0     H50542   7.580   2.682   0.339  0.4400  1.6866  1.7105
  383MOL0     H50543   7.764   2.557   0.299 -0.2689  1.6326  1.1773
  383MOL0     H50544   8.100   2.239   0.198  0.0834 -0.3358  0.3902
  383MOL0     H50545   8.322   2.177   0.137 -2.5261 -1.6768 -0.2837
  383MOL0     H50546   8.401   2.078  -0.094  1.0749 -1.2367  2.0240
  383MOL0     H50547   8.573   2.083  -0.065  0.2527  1.0926  2.0646
  383MOL0     H50548   8.549   2.066  -0.323  0.2770  0.1125 -0.9035
  383MOL0     H50549   8.435   2.203  -0.313 -0.2867  0.0012 -0.7041
  383MOL0     H50550   8.629   2.343  -0.227 -0.6525 -2.7909  3.2005
  383MOL0     H50551   8.646   2.297  -0.393  0.2549  1.3154  0.1406
  383MOL0     H50552   8.781   2.145  -0.171  1.0508 -1.8153 -0.9208
  383MOL0     H50553   8.769   2.088  -0.337 -0.5832 -1.2586  1.7189
  383MOL0     H50554   9.053   2.403  -0.355 -0.0325  0.2196 -1.5683
  383MOL0     H50555   8.336   2.470  -0.175  0.7666  0.9403  0.1065
  383MOL0     H50556   8.104   2.534  -0.110  0.7782 -0.4568 -3.2403
  384MOL0     O50557   8.149   4.960   6.926  0.1714  0.4237  0.1690
  384MOL0     C50558   8.105   4.998   7.033 -0.4377  0.4908 -0.9968
  384MOL0     O50559   7.995   4.957   7.101 -0.3455 -0.0055 -0.0158
  384MOL0     C50560   7.900   4.883   7.044  0.0075 -0.2036 -0.2753
  384MOL0     C50561   7.930   4.762   6.991  0.3568  0.8255 -0.1047
  384MOL0     C50562   7.830   4.682   6.937 -0.3710 -0.4877  0.4438
  384MOL0     C50563   7.696   4.715   6.952  0.5413 -0.0146  0.2144
  384MOL0     O50564   7.602   4.633   6.894  0.2653  0.9444  0.0761
  384MOL0     C50565   7.473   4.681   6.846  0.5788 -0.1856 -0.7338
  384MOL0     C50566   7.395   4.562   6.823 -0.0254  0.3437 -0.2485
  384MOL0     C50567   7.251   4.598   6.780 -0.3736  0.4481  0.3317
  384MOL0     C50568   7.140   4.590   6.900  0.0418 -0.2369  0.8437
  384MOL0     C50569   7.004   4.647   6.846  0.1961  0.1934 -0.3597
  384MOL0     C50570   6.902   4.535   6.818  0.8447  0.2704  0.3478
  384MOL0     C50571   6.751   4.571   6.813 -0.8987  0.0014 -0.0829
  384MOL0     C50572   6.660   4.457   6.770 -0.1948  0.1992  0.0034
  384MOL0     N50573   6.536   4.507   6.700  1.1504 -0.4808 -0.5099
  384MOL0     C50574   6.443   4.600   6.739 -0.7769 -0.3015  0.5641
  384MOL0     C50575   6.332   4.585   6.663 -0.5575 -0.3723  0.7964
  384MOL0     C50576   6.209   4.667   6.688 -0.4994  1.0498 -0.4524
  384MOL0     C50577   6.093   4.561   6.668 -0.2407  0.6586  0.1036
  384MOL0     C50578   6.029   4.551   6.535  0.2581  0.0887  0.3666
  384MOL0     C50579   5.905   4.456   6.538  0.4448  0.1128  0.4174
  384MOL0     O50580   5.803   4.509   6.623  0.0738 -0.0941  0.4266
  384MOL0     C50581   5.673   4.476   6.616 -0.2495 -0.0587 -0.2107
  384MOL0     C50582   5.609   4.397   6.519  0.4940  0.1489 -0.1005
  384MOL0     C50583   5.472   4.377   6.529  0.4480  0.2064 -1.3970
  384MOL0     C50584   5.389   4.434   6.621  0.3081 -0.3091  0.8328
  384MOL0     C50585   5.241   4.410   6.640  0.9998  0.2446  0.2920
  384MOL0     O50586   5.185   4.323   6.553  0.2080 -0.4780  0.2853
  384MOL0     C50587   5.051   4.283   6.587 -0.0049 -0.1909  1.0771
  384MOL0     C50588   4.943   4.351   6.522  0.5948  0.2356 -0.7410
  384MOL0     C50589   4.816   4.310   6.546 -0.4383 -1.7041 -0.3802
  384MOL0     C50590   4.788   4.199   6.628 -0.7358  0.2767  0.2886
  384MOL0     O50591   4.660   4.172   6.662 -0.0295 -0.5079 -0.0453
  384MOL0     C50592   4.632   4.110   6.783 -0.2801 -0.3899 -0.3852
  384MOL0     C50593   4.505   4.161   6.828 -0.0981 -0.4645 -0.9268
  384MOL0     C50594   4.507   4.293   6.904  0.7286 -0.9855 -0.2049
  384MOL0     C50595   4.369   4.310   6.982 -0.6051  0.0805  0.3206
  384MOL0     C50596   4.376   4.438   7.073 -0.2035 -0.7283  0.1042
  384MOL0     C50597   4.232   4.450   7.146 -0.1562 -0.6846 -0.2890
  384MOL0     C50598   4.237   4.590   7.222 -0.3106 -1.1717  0.7656
  384MOL0     C50599   4.094   4.614   7.273  0.0382 -0.0837 -0.5545
  384MOL0    Cl50600   3.962   4.622   7.154 -0.3241  0.8436 -0.4008
  384MOL0     C50601   4.901   4.114   6.678 -1.1263 -1.1849  0.2190
  384MOL0     C50602   5.039   4.160   6.649 -0.4506  0.3232 -0.1505
  384MOL0     O50603   5.184   4.477   6.729 -0.0357  0.1736 -0.1483
  384MOL0     C50604   5.455   4.519   6.716 -0.5022  0.9045 -0.0218
  384MOL0     C50605   5.593   4.535   6.712 -0.4069  1.5543 -0.3158
  384MOL0     N50606   6.374   4.498   6.559  0.4478 -0.0930  0.1634
  384MOL0     N50607   6.487   4.449   6.586 -0.6066 -0.2475 -0.9116
  384MOL0     C50608   7.660   4.828   7.026  0.3223 -0.1605  0.0508
  384MOL0     C50609   7.770   4.909   7.067 -0.1058  0.5508  0.0834
  384MOL0     C50610   8.182   5.102   7.104  0.2937 -0.0178 -1.0044
  384MOL0     C50611   8.136   5.157   7.223 -0.3864 -0.0190 -0.3858
  384MOL0     C50612   8.223   5.247   7.297 -0.2912  0.9518  1.1606
  384MOL0     C50613   8.339   5.299   7.236 -0.1817  0.2530 -0.1044
  384MOL0     O50614   8.412   5.410   7.280  1.0062 -0.0591 -0.1944
  384MOL0     C50615   8.358   5.489   7.387 -0.5478  0.0375 -0.0293
  384MOL0     C50616   8.457   5.605   7.428  0.1332 -0.4039  0.1413
  384MOL0     C50617   8.395   5.702   7.529  0.5562 -0.0631  0.2025
  384MOL0     C50618   8.497   5.751   7.631 -0.5577  0.2270 -1.1406
  384MOL0     C50619   8.528   5.649   7.730  0.0713  0.4374 -0.2346
  384MOL0     C50620   8.548   5.560   7.812  1.5144  0.3161  0.0145
  384MOL0     C50621   8.387   5.234   7.122  0.3101 -0.0480  0.8266
  384MOL0     C50622   8.311   5.139   7.054 -0.7487  0.1268 -0.2190
  384MOL0     H50623   8.034   4.740   6.969 -0.0273  2.8817 -6.0666
  384MOL0     H50624   7.859   4.594   6.880 -0.0330 -0.3416  0.3851
  384MOL0     H50625   7.467   4.740   6.754 -1.4362  0.1514 -0.4175
  384MOL0     H50626   7.415   4.736   6.920 -1.0397  0.2279 -2.2512
  384MOL0     H50627   7.389   4.497   6.911  0.7726 -1.7362 -1.6724
  384MOL0     H50628   7.444   4.496   6.752 -0.1415 -3.6955  3.0640
  384MOL0     H50629   7.239   4.513   6.712  2.8279 -0.2086  0.4337
  384MOL0     H50630   7.249   4.695   6.730  2.9456  0.8873  0.8338
  384MOL0     H50631   7.136   4.484   6.926 -0.7739 -0.5435 -0.4182
  384MOL0     H50632   7.177   4.658   6.977 -0.2986  2.0562 -0.8876
  384MOL0     H50633   7.017   4.707   6.755 -2.6444 -0.9895 -1.6656
  384MOL0     H50634   6.965   4.711   6.926  2.0556 -0.6932  1.3366
  384MOL0     H50635   6.919   4.461   6.897  0.3548 -0.7160 -0.4472
  384MOL0     H50636   6.926   4.476   6.729  1.2121 -0.5431  0.9842
  384MOL0     H50637   6.722   4.600   6.915  0.4315  0.9409  0.0576
  384MOL0     H50638   6.740   4.661   6.751  3.0613  2.8677  2.7968
  384MOL0     H50639   6.632   4.411   6.865  0.6725  0.1251  0.2344
  384MOL0     H50640   6.721   4.379   6.723 -1.7810 -0.3512 -1.2400
  384MOL0     H50641   6.446   4.671   6.821 -2.4218 -2.7275  2.9281
  384MOL0     H50642   6.199   4.752   6.619  1.6803  1.9708  0.2987
  384MOL0     H50643   6.206   4.704   6.791 -4.4564 -0.1971  0.0768
  384MOL0     H50644   6.017   4.594   6.739  0.9803  2.0290  0.8397
  384MOL0     H50645   6.131   4.465   6.702  0.3767  1.0652  0.5828
  384MOL0     H50646   5.992   4.649   6.503  0.9557  0.6585  1.2522
  384MOL0     H50647   6.103   4.509   6.465  1.2671  2.6276 -0.2209
  384MOL0     H50648   5.938   4.366   6.590 -2.0684  0.2996  2.5855
  384MOL0     H50649   5.871   4.443   6.434  1.1385 -0.5975  0.2750
  384MOL0     H50650   5.679   4.356   6.447  1.8990 -0.0165  1.3077
  384MOL0     H50651   5.438   4.325   6.440  2.9010 -1.1842 -1.6200
  384MOL0     H50652   4.969   4.438   6.462 -0.7544  0.9050 -0.3780
  384MOL0     H50653   4.748   4.381   6.501 -0.1683 -0.5770  0.9077
  384MOL0     H50654   4.704   4.138   6.861 -0.5280 -0.0063 -0.2914
  384MOL0     H50655   4.625   4.001   6.769 -2.3864 -0.4516  0.6623
  384MOL0     H50656   4.458   4.083   6.888  1.0022 -1.8221 -1.7563
  384MOL0     H50657   4.438   4.179   6.743 -1.2340 -1.2326 -0.2272
  384MOL0     H50658   4.516   4.370   6.827  2.9214  1.2736  2.1123
  384MOL0     H50659   4.587   4.307   6.977  0.4402  1.0983 -0.2240
  384MOL0     H50660   4.283   4.312   6.914  1.4720 -0.0071 -2.4984
  384MOL0     H50661   4.360   4.222   7.046 -1.9605 -2.4794 -3.0680
  384MOL0     H50662   4.396   4.534   7.024 -2.6375  1.2951  2.7512
  384MOL0     H50663   4.453   4.428   7.149  0.5611 -1.5476 -0.7431
  384MOL0     H50664   4.218   4.376   7.225  0.3280 -0.5178 -0.0410
  384MOL0     H50665   4.151   4.451   7.073  0.1444 -0.1574 -0.6126
  384MOL0     H50666   4.310   4.592   7.304  1.6458 -1.7788 -0.8786
  384MOL0     H50667   4.262   4.678   7.161 -1.0636 -1.9079 -0.6361
  384MOL0     H50668   4.088   4.696   7.345  1.2164  0.6276 -1.2381
  384MOL0     H50669   4.073   4.523   7.331  2.8099  0.4368  1.4705
  384MOL0     H50670   4.876   4.030   6.743 -0.2642 -0.4135  1.5970
  384MOL0     H50671   5.113   4.081   6.661 -1.5519 -1.4428 -3.5866
  384MOL0     H50672   5.399   4.584   6.783  0.7269  0.2685  1.7180
  384MOL0     H50673   5.637   4.590   6.794  1.6360 -0.1794 -0.1703
  384MOL0     H50674   7.557   4.855   7.046 -0.9838 -2.1570 -3.2956
  384MOL0     H50675   7.734   4.996   7.121 -0.3184 -0.4206  1.5588
  384MOL0     H50676   8.042   5.132   7.271 -0.1397 -1.3534 -0.5637
  384MOL0     H50677   8.198   5.287   7.394 -1.5109 -0.8951  1.6509
  384MOL0     H50678   8.352   5.439   7.485 -2.5156  0.5218  0.1317
  384MOL0     H50679   8.262   5.537   7.367  0.5593  2.0463 -0.8027
  384MOL0     H50680   8.540   5.567   7.487  0.1715 -1.4130 -0.5286
  384MOL0     H50681   8.502   5.657   7.342 -0.8362 -1.0206 -0.7767
  384MOL0     H50682   8.302   5.661   7.570 -0.1897  0.1655 -1.1980
  384MOL0     H50683   8.354   5.786   7.472 -2.7967 -2.2755 -0.9477
  384MOL0     H50684   8.590   5.792   7.590  1.8372 -2.5784  1.0229
  384MOL0     H50685   8.450   5.833   7.686 -0.2307  0.7897 -1.6968
  384MOL0     H50686   8.551   5.485   7.889  1.7028 -0.3610 -0.6394
  384MOL0     H50687   8.484   5.265   7.084  0.2878 -0.3692  0.4978
  384MOL0     H50688   8.342   5.104   6.956 -1.1677  1.5313 -0.8819
  385MOL0     O50689   1.070   8.560   1.089 -0.5297  0.3342 -0.1625
  385MOL0     C50690   1.124   8.623   1.003  0.3259  0.7738  0.9285
  385MOL0     O50691   1.068   8.669   0.880  0.2153  0.4171  0.2260
  385MOL0     C50692   0.935   8.644   0.856 -0.4932  0.1544  0.0376
  385MOL0     C50693   0.896   8.660   0.725 -0.3053  0.4562 -0.2343
  385MOL0     C50694   0.767   8.666   0.681 -0.6143  0.5072 -0.3608
  385MOL0     C50695   0.659   8.647   0.772  0.1565 -0.4582 -0.8219
  385MOL0     O50696   0.528   8.647   0.729 -0.6341 -1.0015 -0.1536
  385MOL0     C50697   0.493   8.657   0.592 -1.2597  0.8066  0.9014
  385MOL0     C50698   0.340   8.686   0.606 -1.1584  0.6578 -0.3195
  385MOL0     C50699   0.276   8.663   0.470 -0.1251 -0.0132  0.7406
  385MOL0     C50700   0.132   8.717   0.458 -0.7829  0.0456 -0.1729
  385MOL0     C50701   0.053   8.657   0.346  0.6762  0.6412  1.1904
  385MOL0     C50702  -0.097   8.714   0.351  1.2613 -0.3589  0.2529
  385MOL0     C50703  -0.165   8.722   0.213  0.8875  0.6361  0.9952
  385MOL0     C50704  -0.292   8.804   0.216  0.2071 -0.5770  0.1832
  385MOL0     N50705  -0.401   8.732   0.281  0.2854  0.2045 -0.1752
  385MOL0     C50706  -0.451   8.769   0.406 -0.1198 -0.3983 -0.2364
  385MOL0     C50707  -0.553   8.684   0.434 -0.4706  0.1351  0.4378
  385MOL0     C50708  -0.644   8.693   0.555  0.1433 -0.1441  0.5798
  385MOL0     C50709  -0.792   8.702   0.510  0.6888  0.8676 -0.1311
  385MOL0     C50710  -0.886   8.728   0.629 -0.7348  0.4177  0.5075
  385MOL0     C50711  -0.899   8.615   0.726 -0.6130  0.6564 -0.2878
  385MOL0     O50712  -0.960   8.505   0.663 -0.9220  0.5543  0.4699
  385MOL0     C50713  -1.092   8.477   0.667  0.9108  0.8804  0.7582
  385MOL0     C50714  -1.174   8.534   0.573  0.2606 -0.4426  0.5717
  385MOL0     C50715  -1.307   8.498   0.569 -0.2568 -0.4159  0.5687
  385MOL0     C50716  -1.367   8.424   0.676 -0.4548 -0.5655  0.2546
  385MOL0     C50717  -1.516   8.415   0.690  0.0804 -0.2158  0.7124
  385MOL0     O50718  -1.568   8.373   0.814  0.1630  0.4241 -0.0102
  385MOL0     C50719  -1.706   8.363   0.837  0.8650  0.4845  0.5538
  385MOL0     C50720  -1.760   8.250   0.896  1.0092  0.1657 -1.2550
  385MOL0     C50721  -1.902   8.240   0.925 -0.3930 -0.6794  0.5975
  385MOL0     C50722  -1.988   8.335   0.887 -0.1537 -0.9458  1.1562
  385MOL0     O50723  -2.124   8.314   0.889 -0.5887  0.0985 -0.4194
  385MOL0     C50724  -2.208   8.378   0.795  0.1749  0.9597 -0.4080
  385MOL0     C50725  -2.363   8.357   0.827 -0.2863  0.1965 -0.4862
  385MOL0     C50726  -2.408   8.418   0.960  0.0299 -0.0579  1.0017
  385MOL0     C50727  -2.547   8.365   0.990  0.2257 -0.2473  1.2189
  385MOL0     C50728  -2.638   8.482   1.037  0.1218  0.6486  0.4361
  385MOL0     C50729  -2.670   8.589   0.935  0.0077  0.8966  0.0350
  385MOL0     C50730  -2.780   8.686   1.002 -0.8990  0.0253  0.3119
  385MOL0     C50731  -2.804   8.810   0.912  0.0240  0.2726  0.1858
  385MOL0    Cl50732  -2.848   8.759   0.742 -0.3084 -0.0351  0.4157
  385MOL0     C50733  -1.931   8.456   0.837 -0.2107  0.7100  0.0617
  385MOL0     C50734  -1.791   8.473   0.807 -0.7660 -0.0356  1.1197
  385MOL0     O50735  -1.582   8.422   0.588  0.2378 -0.1822  0.1756
  385MOL0     C50736  -1.280   8.369   0.779 -0.0642  0.5990  0.3017
  385MOL0     C50737  -1.144   8.402   0.770 -0.3781 -0.9726 -0.2455
  385MOL0     N50738  -0.563   8.599   0.324 -0.1049 -0.8166 -0.1506
  385MOL0     N50739  -0.467   8.624   0.240  0.3530  0.0091 -0.4977
  385MOL0     C50740   0.686   8.625   0.899 -0.1527  0.4981 -0.4834
  385MOL0     C50741   0.826   8.634   0.942  0.0790  0.2856 -0.1566
  385MOL0     C50742   1.266   8.645   1.027 -0.2408  0.0916 -0.3646
  385MOL0     C50743   1.335   8.583   1.135 -0.1949  0.3375 -0.1713
  385MOL0     C50744   1.464   8.611   1.158 -0.4386 -1.2593 -0.1421
  385MOL0     C50745   1.535   8.710   1.091  0.1120 -0.0031 -0.3058
  385MOL0     O50746   1.670   8.738   1.105 -0.1906 -0.4793 -0.7845
  385MOL0     C50747   1.742   8.673   1.211  0.7669  0.4925  0.8310
  385MOL0     C50748   1.864   8.757   1.245 -0.4857 -0.0712  0.2078
  385MOL0     C50749   1.984   8.769   1.145 -0.1197  0.5605 -0.1974
  385MOL0     C50750   2.098   8.852   1.197  0.1374 -0.1326 -0.7996
  385MOL0     C50751   2.054   8.995   1.223  0.8269 -0.8820 -0.8417
  385MOL0     C50752   2.025   9.115   1.242  0.3745 -0.0992  0.0359
  385MOL0     C50753   1.459   8.782   0.987 -0.2536 -0.3132 -0.8541
  385MOL0     C50754   1.329   8.739   0.949 -0.3129  0.0648 -0.2815
  385MOL0     H50755   0.968   8.660   0.644  0.6513  0.7188  0.5837
  385MOL0     H50756   0.753   8.679   0.575  1.0799 -0.6499 -0.7530
  385MOL0     H50757   0.506   8.562   0.541  3.5975  0.1761  2.8223
  385MOL0     H50758   0.545   8.739   0.542 -0.2020  0.4364  1.3696
  385MOL0     H50759   0.339   8.793   0.630 -2.8827  0.3100  1.4069
  385MOL0     H50760   0.286   8.618   0.672 -3.5970 -1.2926 -3.9742
  385MOL0     H50761   0.282   8.556   0.452 -4.3534 -0.3799  0.6523
  385MOL0     H50762   0.334   8.711   0.390 -1.0169  2.1522  1.3011
  385MOL0     H50763   0.094   8.682   0.555  3.4959  1.4330  2.3192
  385MOL0     H50764   0.132   8.826   0.454 -2.0924  0.0004 -2.3897
  385MOL0     H50765   0.047   8.548   0.358  0.3711  0.7249  1.8441
  385MOL0     H50766   0.090   8.668   0.244 -3.7771 -0.0988 -0.7633
  385MOL0     H50767  -0.104   8.820   0.376 -1.5904  0.3708 -2.9134
  385MOL0     H50768  -0.154   8.662   0.429  2.3153 -1.8281  0.0930
  385MOL0     H50769  -0.092   8.757   0.140 -0.2948  0.9904 -0.0621
  385MOL0     H50770  -0.179   8.619   0.178  0.8832  0.2571  2.0884
  385MOL0     H50771  -0.324   8.819   0.113 -3.6639 -1.7737  1.0552
  385MOL0     H50772  -0.273   8.897   0.271 -0.6385  0.0284 -0.5314
  385MOL0     H50773  -0.419   8.853   0.467 -2.0342 -1.1356  1.9314
  385MOL0     H50774  -0.601   8.783   0.602  0.6169 -0.4990  0.8372
  385MOL0     H50775  -0.644   8.613   0.630  0.3837  1.8100  2.7923
  385MOL0     H50776  -0.827   8.607   0.469  0.4602  0.5280  0.8181
  385MOL0     H50777  -0.811   8.780   0.437  1.3814  2.7234  1.5823
  385MOL0     H50778  -0.836   8.814   0.672  1.5989  0.2217 -1.5888
  385MOL0     H50779  -0.988   8.755   0.600 -0.1891  1.6463 -0.3796
  385MOL0     H50780  -0.970   8.648   0.802  0.5002  1.6772  0.3415
  385MOL0     H50781  -0.806   8.589   0.777 -0.9114  2.6497  1.3996
  385MOL0     H50782  -1.134   8.600   0.497  0.0116 -3.3885 -2.3649
  385MOL0     H50783  -1.376   8.537   0.495  0.0870  3.4156  2.0210
  385MOL0     H50784  -1.688   8.173   0.919  4.2515  2.5081 -2.7238
  385MOL0     H50785  -1.950   8.156   0.973 -1.5561 -0.6013 -0.3814
  385MOL0     H50786  -2.165   8.348   0.699  2.9762 -1.6402  1.4881
  385MOL0     H50787  -2.206   8.487   0.806  1.0838  0.7895  1.3913
  385MOL0     H50788  -2.385   8.250   0.841 -2.0790  0.8132  2.2103
  385MOL0     H50789  -2.421   8.402   0.746 -2.5112  0.1736  1.0010
  385MOL0     H50790  -2.405   8.527   0.952  0.5767 -0.1314  0.0325
  385MOL0     H50791  -2.345   8.379   1.040  1.1186 -2.8156 -1.0049
  385MOL0     H50792  -2.582   8.321   0.895  1.8000  1.0480 -0.0205
  385MOL0     H50793  -2.540   8.290   1.069 -0.6834  1.2496  2.7955
  385MOL0     H50794  -2.580   8.522   1.121 -2.9393  1.5801  2.2310
  385MOL0     H50795  -2.733   8.433   1.057 -0.8032  0.9168 -2.7911
  385MOL0     H50796  -2.713   8.537   0.849  1.1161  0.2410 -0.1407
  385MOL0     H50797  -2.582   8.645   0.901  1.3461 -1.4908 -0.6776
  385MOL0     H50798  -2.874   8.635   1.027 -0.3098 -1.5315 -0.5447
  385MOL0     H50799  -2.726   8.733   1.085 -1.1586 -0.5854  0.8397
  385MOL0     H50800  -2.716   8.875   0.919  1.3169 -1.5057  1.3603
  385MOL0     H50801  -2.893   8.860   0.951 -0.5986  0.8907 -1.9018
  385MOL0     H50802  -1.998   8.539   0.813 -2.6989 -1.2394 -0.1382
  385MOL0     H50803  -1.757   8.574   0.786  0.5834 -0.6241  0.3981
  385MOL0     H50804  -1.316   8.297   0.852  0.4409 -2.3905 -2.2114
  385MOL0     H50805  -1.086   8.357   0.851 -0.0301 -2.8262 -1.4597
  385MOL0     H50806   0.607   8.604   0.970  0.5115  0.8919  0.4000
  385MOL0     H50807   0.845   8.623   1.048  0.4310 -2.1383 -0.4037
  385MOL0     H50808   1.292   8.496   1.183 -0.9811  0.2786 -0.9483
  385MOL0     H50809   1.509   8.543   1.229 -1.4114 -2.3623 -0.5511
  385MOL0     H50810   1.754   8.569   1.181 -1.2738  0.8923 -1.7335
  385MOL0     H50811   1.686   8.669   1.304 -0.9219  2.1330 -0.0436
  385MOL0     H50812   1.825   8.859   1.256  1.1945  0.5581  0.6461
  385MOL0     H50813   1.900   8.722   1.342 -0.7334 -2.7194 -0.5906
  385MOL0     H50814   1.937   8.813   1.057 -2.9485 -2.1612 -0.2134
  385MOL0     H50815   2.032   8.678   1.107 -0.0851  0.7121 -0.5233
  385MOL0     H50816   2.137   8.817   1.293  0.2237 -0.6798 -1.0293
  385MOL0     H50817   2.187   8.851   1.134  1.6024  1.5088  1.1004
  385MOL0     H50818   2.001   9.218   1.263  1.4521  0.0582  0.6125
  385MOL0     H50819   1.514   8.864   0.942  0.4838 -0.5380 -0.3906
  385MOL0     H50820   1.271   8.774   0.864 -4.0671 -1.1687  1.5405
  386MOL0     O50821   8.206   3.114   3.963  0.2135  0.3106 -0.4621
  386MOL0     C50822   8.190   3.028   4.054 -0.0146  0.1656  0.8766
  386MOL0     O50823   8.081   2.946   4.073  0.0176  0.2893  0.1991
  386MOL0     C50824   7.977   2.948   3.983  0.0857  0.1540  0.0210
  386MOL0     C50825   7.896   3.061   3.975  0.1415 -0.1204 -1.3212
  386MOL0     C50826   7.781   3.056   3.895 -0.1210  0.5855  0.2069
  386MOL0     C50827   7.757   2.952   3.809  0.7085  0.4180 -0.4822
  386MOL0     O50828   7.658   2.971   3.716  0.2345  0.1157 -0.1277
  386MOL0     C50829   7.611   2.875   3.614 -0.6827 -0.7102 -0.7402
  386MOL0     C50830   7.537   2.952   3.496 -0.5497  0.8654  0.1751
  386MOL0     C50831   7.412   3.027   3.558  0.6464  0.2581 -0.8011
  386MOL0     C50832   7.324   3.101   3.451  0.2243  0.7081 -0.1969
  386MOL0     C50833   7.193   3.167   3.514  0.2569 -0.1195  0.2132
  386MOL0     C50834   7.106   3.202   3.398  0.9960 -0.1953  0.2345
  386MOL0     C50835   6.976   3.274   3.455  0.4148  0.1864  0.9190
  386MOL0     C50836   6.867   3.271   3.337  0.2724  0.3973  0.3565
  386MOL0     N50837   6.736   3.312   3.389 -0.0007  0.3108  0.0889
  386MOL0     C50838   6.635   3.227   3.420 -0.4220 -0.1234  0.3022
  386MOL0     C50839   6.545   3.303   3.483  0.8816  0.8494 -0.2941
  386MOL0     C50840   6.406   3.248   3.520 -0.3988 -0.2269  0.5510
  386MOL0     C50841   6.368   3.262   3.673 -1.4714 -0.1048 -0.2171
  386MOL0     C50842   6.240   3.180   3.727 -0.5405 -0.4317  0.4757
  386MOL0     C50843   6.112   3.228   3.678 -1.1470  0.3127 -0.5780
  386MOL0     O50844   6.096   3.192   3.541 -0.3092 -0.6013 -0.3561
  386MOL0     C50845   5.979   3.233   3.477  0.5348  0.1041 -0.0385
  386MOL0     C50846   5.850   3.196   3.528  0.7970  0.0114 -0.6174
  386MOL0     C50847   5.737   3.257   3.461 -0.2273  0.3934  0.4911
  386MOL0     C50848   5.750   3.328   3.335  0.2723  0.3551 -0.0736
  386MOL0     C50849   5.635   3.382   3.265  0.7222  1.5371  0.3746
  386MOL0     O50850   5.659   3.490   3.183 -0.0782 -0.2618 -0.1617
  386MOL0     C50851   5.558   3.525   3.094 -0.0490 -0.6979 -0.3385
  386MOL0     C50852   5.571   3.519   2.957  0.4475  1.2977 -0.0354
  386MOL0     C50853   5.472   3.575   2.871 -0.4405  1.0756  0.3829
  386MOL0     C50854   5.346   3.615   2.925  0.6100 -0.0964  0.7182
  386MOL0     O50855   5.246   3.656   2.842 -0.0826  0.6554  0.0303
  386MOL0     C50856   5.109   3.674   2.909  0.3536  0.8594  0.9870
  386MOL0     C50857   5.005   3.704   2.797 -0.1514 -0.1555 -0.4372
  386MOL0     C50858   4.875   3.662   2.860  0.4106  0.3886 -0.2391
  386MOL0     C50859   4.750   3.678   2.769 -0.1380  0.5365  0.1511
  386MOL0     C50860   4.739   3.597   2.632 -0.3446  0.9399 -0.2792
  386MOL0     C50861   4.764   3.439   2.663  0.0879 -0.3558 -0.7765
  386MOL0     C50862   4.706   3.346   2.563 -0.4186  0.2016  0.5765
  386MOL0     C50863   4.680   3.209   2.609 -0.6451 -0.3255  0.4644
  386MOL0    Cl50864   4.554   3.213   2.738  0.2039 -0.4918 -0.5895
  386MOL0     C50865   5.322   3.608   3.068 -0.1876 -0.1543  0.1788
  386MOL0     C50866   5.433   3.573   3.145  0.1590 -0.2129  0.3079
  386MOL0     O50867   5.526   3.339   3.301  0.1356  0.3038 -0.5664
  386MOL0     C50868   5.879   3.349   3.288  0.5909  0.3736  0.1482
  386MOL0     C50869   5.994   3.307   3.359 -0.5476  0.0568  0.8697
  386MOL0     N50870   6.590   3.437   3.481  0.5271 -0.8237 -1.4615
  386MOL0     N50871   6.709   3.436   3.434  0.0342 -0.2004 -0.9858
  386MOL0     C50872   7.846   2.845   3.805  0.0395 -0.1627 -0.1094
  386MOL0     C50873   7.953   2.839   3.895 -1.0712 -0.0162  0.1094
  386MOL0     C50874   8.289   3.024   4.164 -0.6284  0.0386  0.1140
  386MOL0     C50875   8.265   2.929   4.263 -0.1619 -0.5417 -0.2658
  386MOL0     C50876   8.350   2.925   4.380 -0.1536  0.1544  1.1581
  386MOL0     C50877   8.467   3.015   4.393 -0.3212 -0.2075  0.9031
  386MOL0     O50878   8.558   3.002   4.486 -0.7218 -0.2164 -0.1458
  386MOL0     C50879   8.507   2.951   4.612 -0.8040 -0.3201  1.2151
  386MOL0     C50880   8.613   2.960   4.727  1.1061  0.6001  0.1826
  386MOL0     C50881   8.548   2.917   4.856  0.3066  0.4179 -0.6297
  386MOL0     C50882   8.648   2.896   4.969  0.6011  0.7002 -0.4154
  386MOL0     C50883   8.589   2.804   5.064  0.6017  0.7167 -0.3711
  386MOL0     C50884   8.536   2.730   5.150 -0.7843 -0.2679  0.5267
  386MOL0     C50885   8.478   3.111   4.296 -0.1477 -0.2641  0.7411
  386MOL0     C50886   8.392   3.121   4.183 -0.8584 -0.0893  0.3857
  386MOL0     H50887   7.919   3.152   4.030 -0.4580  0.2730 -1.7027
  386MOL0     H50888   7.717   3.144   3.887 -0.6511  0.0979 -1.2201
  386MOL0     H50889   7.545   2.802   3.660  0.0466 -2.1270 -1.8548
  386MOL0     H50890   7.701   2.819   3.586 -0.5254  1.0120 -4.3396
  386MOL0     H50891   7.507   2.864   3.439  1.6603  0.4263 -0.4014
  386MOL0     H50892   7.595   3.022   3.435 -0.3486  0.2357 -0.3721
  386MOL0     H50893   7.440   3.107   3.627  1.3123 -0.3150 -0.3922
  386MOL0     H50894   7.349   2.955   3.612  0.5851 -0.7127 -2.1275
  386MOL0     H50895   7.393   3.171   3.404  1.7752 -1.8093 -1.9359
  386MOL0     H50896   7.291   3.030   3.374 -1.7698  0.3934  0.8899
  386MOL0     H50897   7.220   3.255   3.573 -0.2614  1.2475 -1.5016
  386MOL0     H50898   7.136   3.097   3.575 -0.5864  0.1016 -0.3047
  386MOL0     H50899   7.072   3.109   3.352  0.2142  0.5377 -0.7002
  386MOL0     H50900   7.147   3.262   3.317 -1.2481 -1.3796 -1.9120
  386MOL0     H50901   6.932   3.213   3.535  0.5610 -1.9334 -0.5228
  386MOL0     H50902   6.999   3.376   3.485 -3.8821  2.0491 -1.3272
  386MOL0     H50903   6.865   3.166   3.304 -0.6548  0.1030  1.3007
  386MOL0     H50904   6.898   3.329   3.250  0.0283 -1.0667 -0.7362
  386MOL0     H50905   6.631   3.120   3.406 -1.0721 -0.4327  2.4414
  386MOL0     H50906   6.377   3.152   3.478  0.5329  0.1791 -1.0782
  386MOL0     H50907   6.331   3.321   3.488  1.3942  2.1244  1.4250
  386MOL0     H50908   6.347   3.367   3.696 -1.6942  0.3039 -2.1124
  386MOL0     H50909   6.453   3.220   3.727 -2.0495 -1.4777 -0.3422
  386MOL0     H50910   6.262   3.074   3.714 -3.3972 -0.8753 -1.8351
  386MOL0     H50911   6.243   3.193   3.836  2.5399 -2.5996  0.7824
  386MOL0     H50912   6.116   3.337   3.689 -0.4028  0.2976 -0.6157
  386MOL0     H50913   6.027   3.187   3.733 -1.8892  0.1366 -1.8027
  386MOL0     H50914   5.838   3.140   3.620  1.6365  0.3959 -0.2579
  386MOL0     H50915   5.636   3.245   3.499 -1.1057 -2.3334 -2.2552
  386MOL0     H50916   5.674   3.500   2.929  0.1713 -0.8144  0.2720
  386MOL0     H50917   5.502   3.606   2.771 -2.0599  0.3860 -0.3657
  386MOL0     H50918   5.102   3.754   2.984  0.1881  3.0334 -1.2057
  386MOL0     H50919   5.079   3.578   2.951  2.3316  0.5242  1.7395
  386MOL0     H50920   5.041   3.647   2.711  4.4890  0.3009  0.9445
  386MOL0     H50921   4.998   3.811   2.778 -0.2101 -0.4454 -2.1545
  386MOL0     H50922   4.845   3.726   2.944  2.5668  2.3700 -0.8564
  386MOL0     H50923   4.880   3.558   2.893 -1.9901  0.7171  1.4213
  386MOL0     H50924   4.666   3.647   2.833 -0.7230  4.3952  1.4941
  386MOL0     H50925   4.719   3.781   2.753 -0.0123  0.3196 -1.7605
  386MOL0     H50926   4.807   3.627   2.552  3.3139 -0.9753  1.8709
  386MOL0     H50927   4.637   3.593   2.592  0.5793 -1.4583 -2.6628
  386MOL0     H50928   4.730   3.407   2.762  1.8042  1.8121  0.6134
  386MOL0     H50929   4.873   3.428   2.672  0.0543 -1.2729 -1.3903
  386MOL0     H50930   4.604   3.384   2.545 -0.4352  0.7066  1.6121
  386MOL0     H50931   4.757   3.344   2.467 -4.1737  3.0970 -1.7703
  386MOL0     H50932   4.773   3.167   2.647 -1.7038 -1.3263  2.0529
  386MOL0     H50933   4.648   3.154   2.520  0.9774 -2.8321  1.3287
  386MOL0     H50934   5.225   3.612   3.115 -1.0208  2.6395 -1.5767
  386MOL0     H50935   5.437   3.572   3.253 -1.7882  0.3591  0.4289
  386MOL0     H50936   5.898   3.421   3.208 -2.8681  1.9029  0.5237
  386MOL0     H50937   6.096   3.311   3.322  0.0946  1.7561  2.6323
  386MOL0     H50938   7.851   2.765   3.733  3.8426 -2.0405  1.9505
  386MOL0     H50939   8.019   2.754   3.905  2.1143  2.4152  1.3322
  386MOL0     H50940   8.176   2.868   4.261 -1.7025  1.5964 -1.0166
  386MOL0     H50941   8.322   2.846   4.449 -1.4171  1.0749  1.7335
  386MOL0     H50942   8.486   2.846   4.590  1.2782 -0.6714  0.6756
  386MOL0     H50943   8.417   3.009   4.634 -0.5416  0.9746 -0.9163
  386MOL0     H50944   8.693   2.891   4.697  0.1445  0.2378 -1.6701
  386MOL0     H50945   8.652   3.061   4.741 -3.1490  2.1213  2.7739
  386MOL0     H50946   8.496   2.826   4.823 -0.3316  1.2302 -1.9685
  386MOL0     H50947   8.468   2.988   4.880  2.5265  3.4712 -1.5948
  386MOL0     H50948   8.742   2.855   4.931  0.3546  1.4892 -1.9589
  386MOL0     H50949   8.671   2.994   5.009 -1.0829  0.0132  2.4755
  386MOL0     H50950   8.503   2.660   5.223 -0.1338  0.7522  1.8473
  386MOL0     H50951   8.556   3.187   4.294 -0.0940 -0.3240  0.3835
  386MOL0     H50952   8.404   3.188   4.099 -5.0358  1.9335  1.1517
  387MOL0     O50953   0.631   8.323   2.804 -0.0564 -0.1501  0.4220
  387MOL0     C50954   0.592   8.421   2.869 -0.1427  0.0012  0.2665
  387MOL0     O50955   0.472   8.442   2.911  0.7753 -0.9462 -0.5948
  387MOL0     C50956   0.367   8.365   2.861  0.9716 -1.1565  0.7699
  387MOL0     C50957   0.281   8.430   2.775 -0.0962 -0.3547  0.1629
  387MOL0     C50958   0.178   8.359   2.710  0.4563 -0.4237  0.2282
  387MOL0     C50959   0.178   8.220   2.708  0.1598  0.9157  0.0627
  387MOL0     O50960   0.082   8.140   2.656  0.6022  0.3262 -0.5864
  387MOL0     C50961  -0.005   8.190   2.558 -0.6425  0.1398 -0.1548
  387MOL0     C50962  -0.087   8.079   2.476 -0.1672  0.0028  0.1213
  387MOL0     C50963  -0.134   8.135   2.342 -0.5693  0.7389 -0.3473
  387MOL0     C50964  -0.238   8.039   2.280 -0.4016  0.5264 -0.5692
  387MOL0     C50965  -0.282   8.072   2.143  0.5632  0.8900  0.4729
  387MOL0     C50966  -0.178   8.070   2.034 -0.1831  1.0475  0.1132
  387MOL0     C50967  -0.232   8.094   1.892 -0.1069 -0.0343 -0.8268
  387MOL0     C50968  -0.121   8.145   1.797 -0.1381 -0.3265  0.5270
  387MOL0     N50969  -0.075   8.285   1.827  0.1898  0.5511  0.9802
  387MOL0     C50970   0.043   8.316   1.900  1.1088 -0.0066 -0.1990
  387MOL0     C50971   0.045   8.449   1.902  0.2679  0.4219 -0.2306
  387MOL0     C50972   0.137   8.540   1.971  0.2497  0.6686 -0.1372
  387MOL0     C50973   0.280   8.500   1.966 -0.4005  0.6672 -0.0498
  387MOL0     C50974   0.371   8.589   2.052 -0.9913 -0.3227 -0.1484
  387MOL0     C50975   0.518   8.555   2.045 -0.1491 -1.1460 -0.5191
  387MOL0     O50976   0.593   8.657   2.122 -0.0433 -0.9211 -0.1512
  387MOL0     C50977   0.728   8.667   2.107 -0.3761  0.1673  0.6797
  387MOL0     C50978   0.806   8.562   2.055 -0.0209 -0.7412 -0.1918
  387MOL0     C50979   0.941   8.580   2.047  0.4646 -0.1795  0.1603
  387MOL0     C50980   1.007   8.699   2.049 -0.5008 -0.6518 -0.2349
  387MOL0     C50981   1.149   8.720   2.029 -0.1694 -0.8288 -0.0020
  387MOL0     O50982   1.221   8.611   2.002 -0.5705 -0.1992 -0.5759
  387MOL0     C50983   1.361   8.614   1.992 -1.2364 -0.6959  0.3126
  387MOL0     C50984   1.448   8.722   1.979 -0.0475  0.1604  1.0762
  387MOL0     C50985   1.590   8.704   1.961  0.3893 -0.1355 -0.0454
  387MOL0     C50986   1.646   8.581   1.969  0.9386 -0.7086 -0.5882
  387MOL0     O50987   1.789   8.586   1.963  0.6806  0.0428 -0.0742
  387MOL0     C50988   1.869   8.468   1.973  0.2894 -0.4571 -0.5217
  387MOL0     C50989   2.014   8.503   1.960  0.1358  0.5126  0.6429
  387MOL0     C50990   2.065   8.603   2.068 -0.3308 -0.4214 -0.3114
  387MOL0     C50991   2.211   8.628   2.073  0.6406  0.1919  0.3343
  387MOL0     C50992   2.243   8.759   2.136 -0.6314  0.7000  0.9333
  387MOL0     C50993   2.398   8.789   2.141 -0.4458  0.2069  0.7155
  387MOL0     C50994   2.458   8.771   1.994  0.0050  0.1170 -0.2361
  387MOL0     C50995   2.581   8.848   1.965 -0.4804  1.2405  0.2715
  387MOL0    Cl50996   2.693   8.800   2.106  0.4406  0.3727  0.2974
  387MOL0     C50997   1.567   8.466   1.994  0.7242 -0.7937 -0.9678
  387MOL0     C50998   1.426   8.480   2.001 -0.3804 -0.6812 -0.5396
  387MOL0     O50999   1.194   8.835   2.059  0.3347  0.4094 -0.4693
  387MOL0     C51000   0.926   8.810   2.101 -0.4922  0.5027 -0.3038
  387MOL0     C51001   0.785   8.792   2.130 -0.0897 -0.0125 -0.1760
  387MOL0     N51002  -0.071   8.496   1.840  0.4103 -0.5863  1.0985
  387MOL0     N51003  -0.138   8.396   1.788  0.1889 -0.7252  0.0707
  387MOL0     C51004   0.270   8.151   2.785 -0.0326 -0.6979  0.8267
  387MOL0     C51005   0.359   8.219   2.869  1.2564  0.0518 -0.1366
  387MOL0     C51006   0.687   8.521   2.896  0.4019 -0.0429 -0.3523
  387MOL0     C51007   0.662   8.659   2.877 -1.6297  0.4684 -1.4332
  387MOL0     C51008   0.763   8.753   2.918 -0.1645  0.5007  0.3200
  387MOL0     C51009   0.888   8.708   2.970  0.0472  0.4336  0.3452
  387MOL0     O51010   0.978   8.804   3.001  0.6372 -0.6848 -0.2291
  387MOL0     C51011   1.106   8.759   3.033  0.3271 -0.6403 -0.0352
  387MOL0     C51012   1.187   8.893   3.046 -0.5947 -0.6248 -0.7596
  387MOL0     C51013   1.296   8.889   3.148 -0.3541  0.2630 -0.0960
  387MOL0     C51014   1.429   8.820   3.093  0.0597  0.1581 -0.4049
  387MOL0     C51015   1.515   8.918   3.027  0.2004 -0.4195  0.4211
  387MOL0     C51016   1.591   8.977   2.956 -0.2765 -0.4775 -0.0234
  387MOL0     C51017   0.906   8.568   2.991  0.1922 -0.6397 -0.8793
  387MOL0     C51018   0.804   8.477   2.954  0.0791 -0.4178  0.5250
  387MOL0     H51019   0.280   8.538   2.759 -2.4058 -0.2708  0.5476
  387MOL0     H51020   0.091   8.410   2.670 -0.9329 -1.0805  2.2762
  387MOL0     H51021   0.042   8.252   2.481 -0.3164  0.3131  0.1759
  387MOL0     H51022  -0.086   8.245   2.609 -2.5203 -1.4919 -1.2423
  387MOL0     H51023  -0.176   8.055   2.535 -0.5189  2.3873  0.6379
  387MOL0     H51024  -0.021   7.992   2.466 -0.1866  0.1380 -1.3028
  387MOL0     H51025  -0.048   8.139   2.273 -0.3821  1.0082 -0.1015
  387MOL0     H51026  -0.171   8.237   2.343  0.9857  1.4048  2.8579
  387MOL0     H51027  -0.197   7.938   2.290 -2.2545 -0.2059  0.0422
  387MOL0     H51028  -0.330   8.041   2.339 -2.8227 -1.3626 -3.9381
  387MOL0     H51029  -0.336   8.166   2.133 -0.3065  0.4069  0.4398
  387MOL0     H51030  -0.351   7.992   2.113  1.2515  0.3471  0.3126
  387MOL0     H51031  -0.118   7.978   2.036  0.3997  1.4091 -0.4910
  387MOL0     H51032  -0.108   8.148   2.064  0.9629 -0.0879  0.4612
  387MOL0     H51033  -0.249   8.003   1.834  3.7808  2.0718 -6.0493
  387MOL0     H51034  -0.315   8.163   1.876  0.5702  0.1118 -4.4370
  387MOL0     H51035  -0.167   8.146   1.697 -1.2602  0.5330  1.0339
  387MOL0     H51036  -0.035   8.080   1.813  0.5294  0.6242  0.9308
  387MOL0     H51037   0.105   8.240   1.946 -0.4294 -0.6212  0.9495
  387MOL0     H51038   0.101   8.558   2.072  1.2539 -0.8467  0.5309
  387MOL0     H51039   0.129   8.645   1.940 -0.8413  0.8667  0.7773
  387MOL0     H51040   0.320   8.504   1.864  0.5935  2.0276  0.3734
  387MOL0     H51041   0.295   8.402   2.013  0.7139  0.9740  0.2658
  387MOL0     H51042   0.358   8.695   2.026 -2.2477 -0.0203  1.5725
  387MOL0     H51043   0.341   8.577   2.156 -0.5222  0.0138  0.0303
  387MOL0     H51044   0.547   8.556   1.940 -0.1221  0.5821 -0.5309
  387MOL0     H51045   0.530   8.459   2.097  1.7932  0.8218  3.1039
  387MOL0     H51046   0.768   8.462   2.039 -0.2622 -0.5948 -0.5474
  387MOL0     H51047   1.001   8.498   2.008  1.9487  1.0331 -0.1832
  387MOL0     H51048   1.407   8.821   1.959 -0.4498 -0.1260  0.4455
  387MOL0     H51049   1.651   8.792   1.938 -0.0975 -0.2760 -2.0807
  387MOL0     H51050   1.844   8.413   1.881 -1.4711  0.4339 -0.6174
  387MOL0     H51051   1.855   8.406   2.062 -1.3615 -3.5692 -2.7668
  387MOL0     H51052   2.020   8.544   1.858 -3.6516  1.2058  0.5578
  387MOL0     H51053   2.068   8.408   1.967  0.4432  0.8218  3.6634
  387MOL0     H51054   2.029   8.575   2.168 -1.1538  0.5859 -0.3139
  387MOL0     H51055   2.015   8.699   2.052 -0.3763 -0.2257  0.9059
  387MOL0     H51056   2.255   8.543   2.125  0.2908 -0.2165 -0.0347
  387MOL0     H51057   2.245   8.628   1.970  0.7348  2.3863  0.3160
  387MOL0     H51058   2.207   8.756   2.239 -0.4133 -2.9286  1.0485
  387MOL0     H51059   2.182   8.834   2.085 -0.3660  0.2200 -0.1236
  387MOL0     H51060   2.448   8.718   2.206  0.3342  0.3022  0.2318
  387MOL0     H51061   2.414   8.893   2.173  0.2602  0.8914 -1.6196
  387MOL0     H51062   2.478   8.666   1.970 -1.0539  0.0176 -0.7333
  387MOL0     H51063   2.378   8.813   1.932 -1.3367  1.1721  2.0725
  387MOL0     H51064   2.559   8.955   1.960 -0.4026  1.2083 -2.7868
  387MOL0     H51065   2.621   8.812   1.870 -2.2267  0.8797 -0.3523
  387MOL0     H51066   1.617   8.370   2.000 -1.9191 -2.3091 -1.4834
  387MOL0     H51067   1.367   8.389   2.012 -1.9612  0.4126  0.4396
  387MOL0     H51068   0.973   8.905   2.121  1.9853 -0.4336 -1.2387
  387MOL0     H51069   0.721   8.874   2.159 -0.9353 -0.7013 -0.0706
  387MOL0     H51070   0.280   8.043   2.777  0.8338 -0.6249  0.8224
  387MOL0     H51071   0.436   8.163   2.921 -0.6736  0.0056  2.9006
  387MOL0     H51072   0.566   8.697   2.842 -1.0927  0.0123 -3.5175
  387MOL0     H51073   0.727   8.854   2.908 -4.4156 -0.6592  1.8902
  387MOL0     H51074   1.140   8.704   2.946 -0.1606  2.0965 -2.1118
  387MOL0     H51075   1.104   8.701   3.125 -0.1815 -0.6894 -0.0720
  387MOL0     H51076   1.238   8.921   2.953  2.4821  0.8600  1.2359
  387MOL0     H51077   1.123   8.977   3.075  0.6416 -0.1930  0.8546
  387MOL0     H51078   1.265   8.845   3.243  0.9717  0.5623  0.4977
  387MOL0     H51079   1.337   8.987   3.174 -0.5676 -0.1143  1.8656
  387MOL0     H51080   1.477   8.776   3.181 -0.0043  1.0041  0.0769
  387MOL0     H51081   1.408   8.733   3.031  0.6842  0.6328 -1.2998
  387MOL0     H51082   1.654   9.018   2.880  1.5045  0.8420  2.0623
  387MOL0     H51083   0.998   8.527   3.031  0.5579  0.2995 -0.7241
  387MOL0     H51084   0.837   8.373   2.959  1.0367 -0.1159  0.6730
  388MOL0     O51085   1.181   0.271   2.987 -0.2205 -0.2116 -0.2311
  388MOL0     C51086   1.144   0.200   3.075  0.1013  0.7039  0.2082
  388MOL0     O51087   1.015   0.161   3.082  0.2864  0.5832 -0.4357
  388MOL0     C51088   0.927   0.200   2.982 -0.3429  0.0096  0.5532
  388MOL0     C51089   0.857   0.313   2.987 -0.0926  0.0752  0.8749
  388MOL0     C51090   0.782   0.342   2.875 -0.3327  0.2431  0.0367
  388MOL0     C51091   0.766   0.263   2.766 -0.3406  0.4930 -0.4798
  388MOL0     O51092   0.694   0.310   2.658 -0.2269 -0.0430 -0.0456
  388MOL0     C51093   0.643   0.213   2.556  0.0805 -1.5325  0.9196
  388MOL0     C51094   0.554   0.302   2.460 -0.1517 -0.0586  0.5153
  388MOL0     C51095   0.490   0.229   2.343  0.1155  0.4172  0.7997
  388MOL0     C51096   0.385   0.315   2.278  0.1681 -0.5448  0.8339
  388MOL0     C51097   0.300   0.237   2.167 -0.0506  0.0714 -1.2666
  388MOL0     C51098   0.176   0.311   2.122  0.6732  0.7352 -0.6652
  388MOL0     C51099   0.211   0.447   2.050  0.2380  0.4198  0.1399
  388MOL0     C51100   0.082   0.516   2.018  0.2305  0.6609  0.1731
  388MOL0     N51101  -0.027   0.444   1.953 -0.2293 -0.5171 -1.0903
  388MOL0     C51102  -0.156   0.461   1.992 -0.8602 -0.7909 -0.6733
  388MOL0     C51103  -0.224   0.406   1.886  0.4725 -0.1368 -0.6165
  388MOL0     C51104  -0.370   0.432   1.894 -0.1560 -0.3833  0.6054
  388MOL0     C51105  -0.447   0.354   1.998 -0.6403 -0.7285  0.9202
  388MOL0     C51106  -0.502   0.221   1.944 -0.4205 -0.0297 -0.2526
  388MOL0     C51107  -0.606   0.246   1.835  0.0235  0.2608  0.3439
  388MOL0     O51108  -0.726   0.290   1.899 -0.8482  0.3626  0.5775
  388MOL0     C51109  -0.835   0.272   1.822  0.1708  0.3975 -0.1933
  388MOL0     C51110  -0.854   0.332   1.697  0.1900 -0.0850  0.5387
  388MOL0     C51111  -0.969   0.316   1.630  0.5579 -1.8602  0.1430
  388MOL0     C51112  -1.075   0.247   1.682 -0.4157  0.2209 -0.3685
  388MOL0     C51113  -1.197   0.232   1.597  0.1909  0.2609 -1.3552
  388MOL0     O51114  -1.309   0.182   1.670  0.7165 -0.5127  0.0628
  388MOL0     C51115  -1.418   0.119   1.604  0.2102  0.2059  0.5578
  388MOL0     C51116  -1.424   0.044   1.482 -0.8355  0.1766  0.1041
  388MOL0     C51117  -1.539  -0.023   1.443  0.2585 -0.5361 -0.5285
  388MOL0     C51118  -1.657  -0.004   1.520  0.7217  0.1652  0.5119
  388MOL0     O51119  -1.778  -0.069   1.482  0.0025  0.2150  0.6673
  388MOL0     C51120  -1.900  -0.015   1.534  0.0005 -0.4105  0.0205
  388MOL0     C51121  -2.015  -0.099   1.472  0.2621  0.5687 -0.2231
  388MOL0     C51122  -2.161  -0.040   1.502 -0.1230  0.5761 -0.3907
  388MOL0     C51123  -2.261  -0.122   1.434 -0.6658 -0.3460 -0.2390
  388MOL0     C51124  -2.407  -0.085   1.455  0.5381  0.1604  0.2690
  388MOL0     C51125  -2.449  -0.123   1.597 -0.4618 -0.2763 -0.0207
  388MOL0     C51126  -2.594  -0.083   1.612  1.3103  1.0169  0.1773
  388MOL0     C51127  -2.693  -0.193   1.570 -0.5962 -0.4112  0.3937
  388MOL0    Cl51128  -2.859  -0.130   1.580 -0.7921 -0.0869 -0.4627
  388MOL0     C51129  -1.646   0.075   1.637 -0.5356 -0.8875 -0.2608
  388MOL0     C51130  -1.533   0.141   1.675  0.1639  0.0655 -0.5399
  388MOL0     O51131  -1.194   0.241   1.478  0.9237  0.0821 -0.8434
  388MOL0     C51132  -1.067   0.202   1.816 -0.4103  0.3800  0.0122
  388MOL0     C51133  -0.942   0.209   1.883  0.0605 -0.7084 -0.4749
  388MOL0     N51134  -0.132   0.355   1.797 -0.1281  0.1226 -0.5196
  388MOL0     N51135  -0.014   0.388   1.831 -0.7286 -0.5546 -0.0633
  388MOL0     C51136   0.824   0.139   2.772  0.0442 -0.2332  0.1664
  388MOL0     C51137   0.904   0.109   2.880 -0.0281  0.3532 -0.2837
  388MOL0     C51138   1.242   0.150   3.169 -0.7797 -0.6996 -1.0810
  388MOL0     C51139   1.379   0.155   3.142  0.6329  0.6163  0.0588
  388MOL0     C51140   1.463   0.126   3.241 -0.4271 -0.5651 -0.9435
  388MOL0     C51141   1.422   0.094   3.373 -0.2581  0.0450  0.2909
  388MOL0     O51142   1.522   0.056   3.461 -0.0748  1.1520  0.0485
  388MOL0     C51143   1.494   0.031   3.599  0.0557  0.1450  0.3127
  388MOL0     C51144   1.487   0.164   3.665  0.0356  0.9095 -0.7929
  388MOL0     C51145   1.470   0.140   3.815 -0.0292  0.6634 -0.2583
  388MOL0     C51146   1.451   0.275   3.895 -0.0662 -0.1657 -0.6495
  388MOL0     C51147   1.422   0.241   4.032  0.4612 -0.7883 -0.7610
  388MOL0     C51148   1.403   0.214   4.144  0.0292  0.9763  0.3137
  388MOL0     C51149   1.287   0.088   3.407 -0.6024  0.3613 -0.5532
  388MOL0     C51150   1.198   0.117   3.300 -0.6706 -0.4514  1.0309
  388MOL0     H51151   0.853   0.380   3.072 -2.7523 -2.2331  2.7499
  388MOL0     H51152   0.739   0.441   2.877  0.6239  0.8603 -3.5288
  388MOL0     H51153   0.574   0.143   2.605 -4.9480  1.6666 -0.8368
  388MOL0     H51154   0.721   0.158   2.503 -1.7812 -1.5969 -1.9300
  388MOL0     H51155   0.609   0.392   2.431  0.4001  0.0788  1.8632
  388MOL0     H51156   0.471   0.336   2.522  0.2544 -1.7245  2.0904
  388MOL0     H51157   0.447   0.131   2.367 -3.5456  0.4685 -4.0544
  388MOL0     H51158   0.562   0.219   2.261 -0.1118  0.3438  0.6060
  388MOL0     H51159   0.311   0.326   2.358 -1.2816 -1.6079 -0.3060
  388MOL0     H51160   0.422   0.413   2.249 -0.2922 -1.2839 -2.6713
  388MOL0     H51161   0.263   0.139   2.199 -2.5354  0.7945 -1.6666
  388MOL0     H51162   0.360   0.210   2.080 -1.2331  0.8373 -2.3378
  388MOL0     H51163   0.112   0.332   2.208  1.4979  2.9347 -0.5430
  388MOL0     H51164   0.117   0.248   2.054  0.3549  0.5739 -0.2469
  388MOL0     H51165   0.265   0.520   2.110 -1.3453  1.8955 -0.1286
  388MOL0     H51166   0.268   0.437   1.957 -0.4313  2.5046 -0.5619
  388MOL0     H51167   0.105   0.602   1.954 -0.6434  0.0212 -1.0593
  388MOL0     H51168   0.051   0.543   2.119  0.9444 -2.2477  1.2895
  388MOL0     H51169  -0.192   0.523   2.074 -0.9859 -1.8003  0.0524
  388MOL0     H51170  -0.402   0.426   1.790 -1.5755 -0.4070  1.0223
  388MOL0     H51171  -0.374   0.536   1.931  1.9780  0.3123 -0.9326
  388MOL0     H51172  -0.534   0.409   2.034 -0.4383 -0.1283  0.5055
  388MOL0     H51173  -0.380   0.323   2.078  2.2038  0.6402 -0.8023
  388MOL0     H51174  -0.423   0.163   1.896  0.4406  0.6023  0.3682
  388MOL0     H51175  -0.557   0.178   2.028 -2.3791  0.4042 -1.2554
  388MOL0     H51176  -0.620   0.157   1.774 -2.2041  0.6253  0.2325
  388MOL0     H51177  -0.576   0.325   1.765  0.2717 -0.3990 -0.3012
  388MOL0     H51178  -0.783   0.402   1.654 -1.2784  0.4041 -1.1969
  388MOL0     H51179  -0.969   0.361   1.531  1.8123 -0.7761  0.6103
  388MOL0     H51180  -1.331   0.020   1.431  0.6699  3.7436  0.8654
  388MOL0     H51181  -1.544  -0.090   1.358  0.2335  0.4011 -1.2736
  388MOL0     H51182  -1.917   0.085   1.495 -0.6347 -1.1282 -1.6547
  388MOL0     H51183  -1.893  -0.004   1.642  1.5782  4.6687 -0.3715
  388MOL0     H51184  -2.010  -0.202   1.508  2.2690 -0.4473 -2.9832
  388MOL0     H51185  -1.998  -0.098   1.364  0.2266  0.3402 -0.2308
  388MOL0     H51186  -2.173   0.063   1.468 -0.0082  1.3921  1.8627
  388MOL0     H51187  -2.177  -0.034   1.610  3.7269  1.1280  0.3068
  388MOL0     H51188  -2.237  -0.104   1.328  1.6458  1.4094  0.5136
  388MOL0     H51189  -2.252  -0.228   1.456 -2.7674 -0.0606  2.4981
  388MOL0     H51190  -2.470  -0.149   1.392  1.5194 -0.8960  0.3147
  388MOL0     H51191  -2.428   0.020   1.435 -0.7049 -0.2999 -1.0239
  388MOL0     H51192  -2.391  -0.060   1.664  0.2862 -0.4585 -0.4832
  388MOL0     H51193  -2.442  -0.231   1.614 -3.2286 -0.8331 -1.6491
  388MOL0     H51194  -2.620  -0.061   1.716  1.0478  0.5729  0.2065
  388MOL0     H51195  -2.630   0.008   1.562  1.5038 -0.2491 -2.4433
  388MOL0     H51196  -2.685  -0.264   1.653  0.4400  0.1311  0.7699
  388MOL0     H51197  -2.675  -0.231   1.469 -1.9532  0.6860 -0.2967
  388MOL0     H51198  -1.739   0.099   1.687  0.4772  1.9201  0.5124
  388MOL0     H51199  -1.538   0.207   1.761 -0.9069  0.1978 -0.6908
  388MOL0     H51200  -1.149   0.152   1.866 -0.1329  2.1459  2.4309
  388MOL0     H51201  -0.927   0.162   1.980  1.8692  1.0913  0.2100
  388MOL0     H51202   0.819   0.069   2.690 -1.7927  1.3970 -1.2235
  388MOL0     H51203   0.938   0.006   2.886 -0.5600  0.0473 -2.0216
  388MOL0     H51204   1.408   0.179   3.041  1.2524  2.0873  0.5613
  388MOL0     H51205   1.569   0.114   3.217 -0.8084 -3.4940 -1.5638
  388MOL0     H51206   1.583  -0.016   3.642  2.2051  0.8466 -2.9759
  388MOL0     H51207   1.399  -0.021   3.615 -2.2182  2.8666 -2.9386
  388MOL0     H51208   1.577   0.223   3.644  2.4791 -2.4338 -0.7022
  388MOL0     H51209   1.402   0.225   3.633  1.4640  2.8340 -1.1057
  388MOL0     H51210   1.553   0.080   3.852 -1.1932 -0.5112  0.5435
  388MOL0     H51211   1.384   0.078   3.843  0.5070  1.0352  2.4103
  388MOL0     H51212   1.541   0.336   3.903  0.3670 -0.9387  0.7357
  388MOL0     H51213   1.369   0.340   3.863 -0.4357 -0.4120 -0.2203
  388MOL0     H51214   1.402   0.198   4.250  1.5598 -1.7609  0.0169
  388MOL0     H51215   1.248   0.069   3.507  2.4375  2.6179  1.2341
  388MOL0     H51216   1.092   0.121   3.322 -1.3257  0.2799 -1.8828
  389MOL0     O51217   5.321   7.407   4.612  0.0720  0.2115  0.1211
  389MOL0     C51218   5.415   7.325   4.606  0.2327  0.1760 -0.6184
  389MOL0     O51219   5.440   7.232   4.707 -0.2341  0.1387 -0.4231
  389MOL0     C51220   5.349   7.205   4.812 -0.8949 -0.6201 -0.4540
  389MOL0     C51221   5.214   7.196   4.791 -0.5327  0.1021  0.3230
  389MOL0     C51222   5.130   7.139   4.886  0.5570  0.3530 -0.5057
  389MOL0     C51223   5.185   7.101   5.012 -0.1768  0.7527  0.0395
  389MOL0     O51224   5.099   7.077   5.119 -0.2343  0.5032  0.5476
  389MOL0     C51225   4.957   7.074   5.105  1.4266 -0.2050 -0.7948
  389MOL0     C51226   4.911   7.047   5.242  0.4096  0.3977 -0.2619
  389MOL0     C51227   4.756   7.040   5.264  0.2399 -0.5323  0.3739
  389MOL0     C51228   4.664   7.140   5.202 -1.2111  0.4731 -1.0703
  389MOL0     C51229   4.520   7.098   5.250 -0.0868  0.3976  0.1744
  389MOL0     C51230   4.421   7.199   5.186  0.5134 -0.0291 -0.8722
  389MOL0     C51231   4.271   7.171   5.214 -0.5326 -0.1674 -0.5161
  389MOL0     C51232   4.180   7.282   5.166  0.8607 -0.3258  0.1445
  389MOL0     N51233   4.039   7.244   5.159  0.5340 -0.3465 -0.4746
  389MOL0     C51234   3.978   7.164   5.064 -0.6096 -0.6466  0.2547
  389MOL0     C51235   3.841   7.185   5.079  0.2512 -0.4890  0.7073
  389MOL0     C51236   3.719   7.141   4.993 -0.8566 -0.4829 -0.2099
  389MOL0     C51237   3.726   6.991   4.945 -0.0344 -0.5290  0.0764
  389MOL0     C51238   3.612   6.962   4.845 -0.2234  0.2455 -0.1042
  389MOL0     C51239   3.655   6.853   4.754 -0.0624  0.4115  0.7613
  389MOL0     O51240   3.666   6.731   4.826  0.6416  0.1029 -0.2762
  389MOL0     C51241   3.548   6.667   4.861 -0.9119 -0.8874 -0.5688
  389MOL0     C51242   3.468   6.629   4.754 -0.3520 -0.0455 -0.3059
  389MOL0     C51243   3.346   6.572   4.765  0.8705 -0.4720  0.3489
  389MOL0     C51244   3.304   6.548   4.900  0.3794  1.3355  0.0328
  389MOL0     C51245   3.183   6.469   4.915 -0.0169 -0.4040  0.1980
  389MOL0     O51246   3.091   6.470   4.816 -0.6495 -0.0049 -0.2131
  389MOL0     C51247   2.966   6.426   4.844  0.5594 -1.3216 -0.0054
  389MOL0     C51248   2.931   6.290   4.855 -0.2110 -0.1340  0.1499
  389MOL0     C51249   2.798   6.246   4.881  0.4680  0.4406 -0.1285
  389MOL0     C51250   2.688   6.332   4.884 -0.4967  1.3050  0.4765
  389MOL0     O51251   2.571   6.270   4.900 -0.1073 -0.1198 -0.5563
  389MOL0     C51252   2.457   6.355   4.906  0.0335 -0.7460  0.0697
  389MOL0     C51253   2.328   6.284   4.861 -0.8056 -1.0890  0.2694
  389MOL0     C51254   2.202   6.360   4.901  0.3708 -0.1043 -0.7571
  389MOL0     C51255   2.093   6.314   4.805  0.2100  0.0045  1.3623
  389MOL0     C51256   1.955   6.379   4.802  0.5276  0.2847  0.8741
  389MOL0     C51257   1.868   6.324   4.920 -0.6330 -0.0437 -0.2892
  389MOL0     C51258   1.737   6.396   4.944 -0.6711  0.6506 -0.3143
  389MOL0     C51259   1.755   6.521   5.029 -0.0317  0.5690 -0.9634
  389MOL0    Cl51260   1.812   6.468   5.201  0.3799 -0.0028  0.0018
  389MOL0     C51261   2.719   6.468   4.884  0.4367  0.3807 -0.4723
  389MOL0     C51262   2.855   6.518   4.869  0.8559  0.5095  0.9976
  389MOL0     O51263   3.162   6.422   5.031 -0.6838  0.3904  0.6083
  389MOL0     C51264   3.374   6.594   5.014 -0.5426  0.9976 -0.0884
  389MOL0     C51265   3.486   6.666   4.991  0.5816 -0.2069  0.3836
  389MOL0     N51266   3.831   7.258   5.193 -0.2773  0.3051  0.1176
  389MOL0     N51267   3.944   7.294   5.241 -0.1700 -0.5380 -0.2283
  389MOL0     C51268   5.323   7.091   5.026 -0.1681  0.1333 -0.6791
  389MOL0     C51269   5.405   7.143   4.923  0.1548 -0.4349 -0.7686
  389MOL0     C51270   5.517   7.345   4.507 -0.3847 -0.1903 -1.0155
  389MOL0     C51271   5.540   7.470   4.465 -0.3348  0.0663  0.1452
  389MOL0     C51272   5.629   7.483   4.357 -0.2698  0.1190 -0.7176
  389MOL0     C51273   5.698   7.377   4.308 -0.1456 -1.1371  0.6548
  389MOL0     O51274   5.770   7.408   4.200  0.3342  0.3090 -0.7231
  389MOL0     C51275   5.910   7.362   4.205  0.2605 -0.0620  0.6944
  389MOL0     C51276   5.968   7.415   4.076  0.2445  1.1687 -0.2578
  389MOL0     C51277   6.082   7.327   4.033 -0.0899  0.6580  0.8065
  389MOL0     C51278   6.205   7.354   4.118  0.1902  0.2030  0.0717
  389MOL0     C51279   6.324   7.273   4.076  0.5807  0.4226  0.2409
  389MOL0     C51280   6.426   7.228   4.040 -0.5528 -0.1437 -0.1307
  389MOL0     C51281   5.688   7.255   4.363 -0.1804 -0.0731  0.3128
  389MOL0     C51282   5.595   7.239   4.466 -0.2776  1.2351  0.3913
  389MOL0     H51283   5.178   7.228   4.693  1.2748  1.9677  0.1939
  389MOL0     H51284   5.023   7.138   4.870  0.5093  0.7274 -0.2340
  389MOL0     H51285   4.938   6.993   5.034 -0.4583  0.4868 -1.1397
  389MOL0     H51286   4.921   7.173   5.076  0.0686  0.9623  3.9912
  389MOL0     H51287   4.950   7.128   5.304 -1.9405 -0.2138  2.1862
  389MOL0     H51288   4.951   6.956   5.287 -1.2810 -0.1311  0.2436
  389MOL0     H51289   4.736   7.030   5.371  0.4243  2.4493  0.7656
  389MOL0     H51290   4.740   6.939   5.226 -1.2852 -0.7127  1.4143
  389MOL0     H51291   4.686   7.243   5.234  0.5894  0.5348 -2.3710
  389MOL0     H51292   4.668   7.130   5.094 -0.0927 -1.1204 -0.9213
  389MOL0     H51293   4.508   7.093   5.359 -1.1550 -0.2345  0.0391
  389MOL0     H51294   4.490   7.002   5.207 -1.3410  0.0022  1.8181
  389MOL0     H51295   4.443   7.194   5.079 -0.3156  2.1520 -1.1763
  389MOL0     H51296   4.443   7.299   5.223 -1.3477 -0.1828  0.8018
  389MOL0     H51297   4.252   7.080   5.156  1.9249  2.6626 -6.5884
  389MOL0     H51298   4.252   7.154   5.320 -2.1382  0.4282 -0.6843
  389MOL0     H51299   4.212   7.297   5.063 -1.6056 -2.2741 -1.0234
  389MOL0     H51300   4.187   7.373   5.225 -0.3689  1.8464 -2.8253
  389MOL0     H51301   4.036   7.120   4.983  2.3391  1.7636  0.8942
  389MOL0     H51302   3.723   7.206   4.906 -6.5179  1.1550  0.4031
  389MOL0     H51303   3.631   7.187   5.038  2.6730  2.8472  4.3540
  389MOL0     H51304   3.711   6.931   5.036  0.2335 -1.6616 -0.6057
  389MOL0     H51305   3.822   6.978   4.895 -1.5745 -1.3848 -2.8680
  389MOL0     H51306   3.516   6.941   4.894 -1.5287  1.1790 -2.1275
  389MOL0     H51307   3.579   7.045   4.782 -2.7484  0.0125  0.7776
  389MOL0     H51308   3.756   6.882   4.722  0.4253  0.6166  2.3480
  389MOL0     H51309   3.592   6.844   4.666 -0.8539 -1.7175  1.4833
  389MOL0     H51310   3.513   6.627   4.655 -1.4759 -2.3979 -0.8468
  389MOL0     H51311   3.297   6.539   4.674 -0.2371  2.6842 -0.3344
  389MOL0     H51312   3.008   6.216   4.834  0.3539  1.1239 -2.7021
  389MOL0     H51313   2.782   6.143   4.910  0.8519  1.0783  2.6114
  389MOL0     H51314   2.471   6.433   4.831  1.0829 -1.4641 -0.4915
  389MOL0     H51315   2.436   6.401   5.003  0.6363  1.3496 -0.7309
  389MOL0     H51316   2.323   6.185   4.909 -0.7928 -1.0757  0.2988
  389MOL0     H51317   2.336   6.263   4.754 -3.2730 -1.8482  0.1718
  389MOL0     H51318   2.202   6.468   4.882  0.1120  0.3490  1.5883
  389MOL0     H51319   2.183   6.327   5.003  2.6242 -0.2936 -0.3553
  389MOL0     H51320   2.133   6.325   4.703 -2.2230  3.3612  0.6264
  389MOL0     H51321   2.075   6.206   4.805 -0.4213  0.0903  0.3081
  389MOL0     H51322   1.905   6.345   4.711  0.9023  1.1514  0.3293
  389MOL0     H51323   1.972   6.487   4.806  2.9141 -0.0355  0.9766
  389MOL0     H51324   1.934   6.338   5.007 -1.2681 -2.9318  0.7829
  389MOL0     H51325   1.859   6.216   4.907  1.6097 -0.8280  3.1766
  389MOL0     H51326   1.698   6.418   4.844 -1.3879  0.5928 -0.0549
  389MOL0     H51327   1.669   6.327   4.996  1.4771 -1.5099 -0.1843
  389MOL0     H51328   1.660   6.575   5.039  1.9927  4.3120 -0.2133
  389MOL0     H51329   1.821   6.590   4.975 -1.2706  3.8910  1.4142
  389MOL0     H51330   2.634   6.534   4.900  0.0001 -0.2393 -0.1918
  389MOL0     H51331   2.873   6.625   4.862  0.4886  0.4780 -0.6396
  389MOL0     H51332   3.344   6.570   5.116  2.5003 -1.2936  0.4225
  389MOL0     H51333   3.537   6.708   5.077 -0.9439  3.6681 -0.3927
  389MOL0     H51334   5.366   7.052   5.118 -1.1778  1.0974  0.2277
  389MOL0     H51335   5.510   7.118   4.918  0.8063  2.1406 -3.3306
  389MOL0     H51336   5.489   7.558   4.503  1.9103  1.0637  1.0226
  389MOL0     H51337   5.641   7.579   4.308 -0.2554 -0.1996 -1.3458
  389MOL0     H51338   5.918   7.253   4.217  4.9484 -0.0625 -0.4143
  389MOL0     H51339   5.973   7.386   4.291  0.0472 -2.4347  1.5807
  389MOL0     H51340   5.890   7.413   4.000 -3.2156  1.6081  2.9922
  389MOL0     H51341   6.011   7.513   4.097  3.1462 -0.1191  0.3122
  389MOL0     H51342   6.120   7.353   3.934 -0.1424 -1.8336  0.0591
  389MOL0     H51343   6.059   7.221   4.020 -1.6793  1.3715 -3.6645
  389MOL0     H51344   6.233   7.459   4.116 -1.3767  0.7007  1.8290
  389MOL0     H51345   6.182   7.329   4.222  2.2886  0.5135  0.6657
  389MOL0     H51346   6.515   7.186   3.998 -0.3177 -0.3751  0.5846
  389MOL0     H51347   5.749   7.173   4.326 -1.0075 -0.2051 -0.8360
  389MOL0     H51348   5.575   7.144   4.515 -2.1667  1.4371  0.0945
  390MOL0     O51349   8.473   7.858   5.561 -0.1480  0.2307  1.0418
  390MOL0     C51350   8.480   7.944   5.643  0.2675 -0.1770 -0.4818
  390MOL0     O51351   8.398   8.060   5.649  0.6843 -0.4164 -0.3898
  390MOL0     C51352   8.277   8.064   5.580  0.3055 -0.2683 -0.6537
  390MOL0     C51353   8.271   8.128   5.457 -0.2935  0.4926  0.1533
  390MOL0     C51354   8.151   8.129   5.390 -0.3187  0.3801 -0.1142
  390MOL0     C51355   8.028   8.095   5.455  0.0498  0.7660 -0.1802
  390MOL0     O51356   7.925   8.095   5.362  0.6496 -0.2115 -0.1528
  390MOL0     C51357   7.795   8.095   5.412 -0.3364  0.1092 -0.0465
  390MOL0     C51358   7.695   8.098   5.299 -0.2074 -0.0482  0.2152
  390MOL0     C51359   7.653   7.967   5.218 -0.7191  0.2659 -0.5971
  390MOL0     C51360   7.531   7.990   5.129 -0.1142 -0.5226  0.5801
  390MOL0     C51361   7.485   7.864   5.072  0.4625 -0.4367  0.0967
  390MOL0     C51362   7.411   7.878   4.936 -0.8118 -0.3317 -0.1480
  390MOL0     C51363   7.379   7.747   4.855 -0.6627 -0.8094 -0.4635
  390MOL0     C51364   7.249   7.671   4.910 -0.3819 -0.5037 -0.5730
  390MOL0     N51365   7.120   7.740   4.878  0.5439 -1.5014  0.5035
  390MOL0     C51366   7.000   7.713   4.946  0.4322  0.3041 -0.1229
  390MOL0     C51367   6.904   7.778   4.880 -1.3156  0.8319 -0.0658
  390MOL0     C51368   6.760   7.780   4.901  0.1918  1.0203 -0.2730
  390MOL0     C51369   6.699   7.654   4.965  0.0147  0.1480  0.4903
  390MOL0     C51370   6.546   7.668   4.960 -1.1830  0.0999 -0.1236
  390MOL0     C51371   6.485   7.568   5.061  0.2830  0.1260 -0.0633
  390MOL0     O51372   6.467   7.640   5.188  0.0119  0.1409 -0.5282
  390MOL0     C51373   6.374   7.732   5.218  0.6404  0.7898  0.1272
  390MOL0     C51374   6.269   7.772   5.132  0.6315  0.8651  0.7485
  390MOL0     C51375   6.160   7.861   5.173  0.1542 -0.3858 -0.9433
  390MOL0     C51376   6.152   7.893   5.310  0.7175 -0.4346 -0.2359
  390MOL0     C51377   6.024   7.945   5.361 -0.3341 -0.6598 -1.3067
  390MOL0     O51378   5.932   8.003   5.279  0.5497 -0.4438 -0.1851
  390MOL0     C51379   5.813   8.040   5.335 -1.2010  0.3729  1.0789
  390MOL0     C51380   5.743   7.960   5.421  1.4123 -0.6013  0.1782
  390MOL0     C51381   5.605   7.993   5.450 -0.3590  0.3863  0.3491
  390MOL0     C51382   5.549   8.106   5.394 -0.4543  0.1367 -0.2009
  390MOL0     O51383   5.418   8.131   5.420  0.9064  0.6174 -0.0261
  390MOL0     C51384   5.318   8.051   5.359 -0.3361 -0.3402 -0.2872
  390MOL0     C51385   5.265   7.959   5.470  0.5207  0.2146 -0.0718
  390MOL0     C51386   5.111   7.957   5.485 -0.2019 -0.8285 -0.0765
  390MOL0     C51387   5.058   7.914   5.625 -0.2569 -0.0074 -0.0932
  390MOL0     C51388   4.910   7.882   5.621 -0.5143  0.2407  0.2420
  390MOL0     C51389   4.862   7.837   5.757 -0.0481  0.1463 -0.6716
  390MOL0     C51390   4.720   7.784   5.769  0.6314  0.4771  0.6216
  390MOL0     C51391   4.616   7.890   5.729 -0.5614  0.3625 -0.7090
  390MOL0    Cl51392   4.447   7.825   5.774  0.1512 -0.1620 -0.4129
  390MOL0     C51393   5.631   8.199   5.331 -0.3291  0.1417  0.0618
  390MOL0     C51394   5.768   8.166   5.303 -0.1328 -0.1883  0.5702
  390MOL0     O51395   6.008   7.934   5.487  0.0412 -0.9559  0.5398
  390MOL0     C51396   6.258   7.861   5.395  0.2526 -0.4458 -0.0940
  390MOL0     C51397   6.364   7.782   5.348  0.4086  0.4801  0.4948
  390MOL0     N51398   6.965   7.845   4.776 -0.2142 -1.1621  0.0499
  390MOL0     N51399   7.090   7.816   4.769 -0.1731 -0.3169  0.3805
  390MOL0     C51400   8.030   8.044   5.590  0.6745 -0.3700  0.2573
  390MOL0     C51401   8.157   8.037   5.655 -0.4387  0.5937  1.2974
  390MOL0     C51402   8.603   7.959   5.723 -0.3394  0.2847  0.3675
  390MOL0     C51403   8.582   8.005   5.853 -0.8805  0.5268 -0.1391
  390MOL0     C51404   8.688   8.047   5.936  0.0058  0.1298  0.4954
  390MOL0     C51405   8.816   8.042   5.878  0.2522 -0.1112 -0.7146
  390MOL0     O51406   8.909   8.102   5.959 -0.0006 -0.0968  0.0539
  390MOL0     C51407   9.052   8.091   5.917 -0.2752  0.0508  0.4114
  390MOL0     C51408   9.138   8.168   6.020 -0.0421 -1.0214 -0.1709
  390MOL0     C51409   9.118   8.132   6.166  1.0270  0.4531  0.2855
  390MOL0     C51410   9.227   8.188   6.261 -0.3173  0.4703  0.1536
  390MOL0     C51411   9.238   8.139   6.400 -0.0810  0.4443 -0.1167
  390MOL0     C51412   9.252   8.099   6.511  0.7342 -1.4475  0.6076
  390MOL0     C51413   8.838   7.987   5.746 -0.9432  0.4391  0.3138
  390MOL0     C51414   8.731   7.936   5.671 -1.0421  0.2581  0.4451
  390MOL0     H51415   8.356   8.163   5.399 -0.5879  1.4687  0.2880
  390MOL0     H51416   8.162   8.164   5.288  1.8109  0.8516  0.2290
  390MOL0     H51417   7.787   8.185   5.474  1.4485  1.1541 -1.2414
  390MOL0     H51418   7.770   8.004   5.466  0.9130  0.3171  0.9452
  390MOL0     H51419   7.732   8.171   5.225 -0.6959 -0.0298 -0.0169
  390MOL0     H51420   7.607   8.141   5.348 -0.3403 -0.7650  0.6024
  390MOL0     H51421   7.628   7.888   5.290 -2.0027  0.2026 -1.0975
  390MOL0     H51422   7.740   7.933   5.160  0.8430  3.2263 -0.1701
  390MOL0     H51423   7.447   8.035   5.182 -2.2668  0.4777 -3.3377
  390MOL0     H51424   7.560   8.056   5.047 -0.4606  1.1497  1.7336
  390MOL0     H51425   7.416   7.805   5.133 -0.1380  0.2610  0.0933
  390MOL0     H51426   7.571   7.798   5.052 -0.0237 -1.6756  1.8269
  390MOL0     H51427   7.469   7.944   4.871 -0.7964  1.4234  1.5621
  390MOL0     H51428   7.319   7.934   4.957  0.9715  1.6012  3.5315
  390MOL0     H51429   7.360   7.789   4.756 -2.5257  2.3320  1.0668
  390MOL0     H51430   7.471   7.689   4.842 -0.7653 -0.3837 -4.7286
  390MOL0     H51431   7.259   7.655   5.018 -3.6075  0.8778  0.0288
  390MOL0     H51432   7.261   7.568   4.876  1.1271 -0.4587 -0.2415
  390MOL0     H51433   6.998   7.643   5.029 -0.0530  0.9358  0.4066
  390MOL0     H51434   6.723   7.797   4.800 -4.2052 -0.1039  0.9570
  390MOL0     H51435   6.723   7.860   4.966  0.8890  0.7915  0.4206
  390MOL0     H51436   6.739   7.643   5.067  0.2785 -1.4249  0.2421
  390MOL0     H51437   6.710   7.562   4.907 -0.2696  0.7955 -0.6178
  390MOL0     H51438   6.514   7.769   4.988 -0.5147 -0.4384  2.8991
  390MOL0     H51439   6.504   7.637   4.864 -0.0459  1.0449 -0.9591
  390MOL0     H51440   6.550   7.483   5.081  0.9526  0.7860  0.6308
  390MOL0     H51441   6.390   7.526   5.027  1.1577 -0.4572 -1.9207
  390MOL0     H51442   6.276   7.750   5.026 -0.9919  0.3626  0.7259
  390MOL0     H51443   6.075   7.882   5.109 -2.0394 -3.0406  0.8962
  390MOL0     H51444   5.786   7.871   5.467 -0.0437  0.1458  3.2348
  390MOL0     H51445   5.541   7.925   5.505 -1.7342 -0.0542 -1.7085
  390MOL0     H51446   5.353   7.997   5.271 -0.5414  0.5257 -0.9131
  390MOL0     H51447   5.239   8.120   5.328  1.8367  2.7941  0.5682
  390MOL0     H51448   5.306   7.988   5.567 -1.9445  1.1427  0.7792
  390MOL0     H51449   5.301   7.857   5.450 -1.0839 -0.7171  1.5422
  390MOL0     H51450   5.077   7.872   5.424 -2.5605  0.4817 -0.6978
  390MOL0     H51451   5.062   8.043   5.439  2.0113  0.8530  0.5430
  390MOL0     H51452   5.125   7.839   5.669 -0.1977  0.5992  0.8676
  390MOL0     H51453   5.067   8.001   5.691  0.6791 -0.1673 -0.0000
  390MOL0     H51454   4.883   7.801   5.552 -0.2399  2.0625 -2.1472
  390MOL0     H51455   4.854   7.968   5.583  0.3566  0.5401 -0.3911
  390MOL0     H51456   4.871   7.928   5.819 -0.9519  1.2140 -2.0485
  390MOL0     H51457   4.931   7.766   5.803 -0.1835 -0.1637 -0.9430
  390MOL0     H51458   4.719   7.695   5.705  0.7062  1.7996 -1.3246
  390MOL0     H51459   4.704   7.761   5.874  0.3472 -0.1239  0.4508
  390MOL0     H51460   4.626   7.910   5.622  3.5043  1.3579 -0.3109
  390MOL0     H51461   4.645   7.979   5.785  1.8624 -0.0871 -1.1344
  390MOL0     H51462   5.586   8.292   5.298 -1.2632 -0.5190 -0.5499
  390MOL0     H51463   5.832   8.232   5.244  0.6359  0.4012  2.0070
  390MOL0     H51464   6.248   7.886   5.500 -2.7592  1.7248 -0.7665
  390MOL0     H51465   6.428   7.746   5.427 -1.0065 -3.2752  0.1127
  390MOL0     H51466   7.944   8.024   5.654 -1.4020  2.3889 -1.4104
  390MOL0     H51467   8.171   8.006   5.758  0.9972  0.3084  1.0395
  390MOL0     H51468   8.483   8.020   5.895 -1.5161 -2.0123 -0.5618
  390MOL0     H51469   8.668   8.082   6.037 -0.5741  0.8429  0.1419
  390MOL0     H51470   9.061   8.140   5.820  0.2401  0.5543  0.7095
  390MOL0     H51471   9.081   7.985   5.914 -1.9344 -0.4098 -0.4817
  390MOL0     H51472   9.243   8.155   5.991 -0.3834  0.6694 -2.3468
  390MOL0     H51473   9.106   8.271   6.008  2.2519 -0.4611 -2.3998
  390MOL0     H51474   9.090   8.027   6.177  0.3171  0.5011 -0.8397
  390MOL0     H51475   9.020   8.172   6.193 -0.4851 -0.1918 -3.5733
  390MOL0     H51476   9.320   8.170   6.207  0.1397  0.6407  0.8722
  390MOL0     H51477   9.212   8.297   6.260 -0.0159  0.5082 -0.5212
  390MOL0     H51478   9.286   8.069   6.609 -1.6802  2.4235  2.8880
  390MOL0     H51479   8.939   7.974   5.708 -0.8137 -2.8741  1.4045
  390MOL0     H51480   8.745   7.906   5.568 -2.0138  1.6964 -0.1313
  391MOL0     O51481   8.685   5.090  11.323 -0.4619 -0.2136 -0.5466
  391MOL0     C51482   8.654   5.033  11.218  0.3122  0.2258  0.2678
  391MOL0     O51483   8.520   5.000  11.186  0.2419  0.2661  0.1245
  391MOL0     C51484   8.424   5.025  11.274 -0.5493  0.3953 -0.3442
  391MOL0     C51485   8.368   5.149  11.287  0.9938  1.1297 -0.9207
  391MOL0     C51486   8.255   5.177  11.378 -1.3057  0.2997  0.8788
  391MOL0     C51487   8.194   5.070  11.434  0.0404  0.6034  0.3864
  391MOL0     O51488   8.091   5.058  11.513  0.6991  0.2992 -0.0731
  391MOL0     C51489   8.046   5.175  11.585 -0.0615  1.0931 -0.0165
  391MOL0     C51490   7.914   5.222  11.523 -0.4609  1.0033 -0.0954
  391MOL0     C51491   7.856   5.353  11.590  0.6696 -0.1429  0.4345
  391MOL0     C51492   7.706   5.369  11.576  0.2706 -0.6376  1.0157
  391MOL0     C51493   7.652   5.503  11.636  0.6366 -1.1626 -0.2604
  391MOL0     C51494   7.659   5.619  11.528 -0.9752  0.1226 -0.1994
  391MOL0     C51495   7.561   5.739  11.552  0.1719  0.8566 -0.7134
  391MOL0     C51496   7.567   5.804  11.696 -0.5969  0.0363  0.3241
  391MOL0     N51497   7.500   5.932  11.711 -0.4737 -0.4446  0.3135
  391MOL0     C51498   7.526   6.047  11.643  0.8402 -0.8390  1.0089
  391MOL0     C51499   7.416   6.127  11.641 -0.1114  0.1208 -0.2120
  391MOL0     C51500   7.393   6.253  11.564 -0.1688 -0.5972  0.6269
  391MOL0     C51501   7.294   6.348  11.625  0.4523 -0.4133 -0.8672
  391MOL0     C51502   7.294   6.495  11.570 -0.1769  0.4658  1.1906
  391MOL0     C51503   7.211   6.588  11.662 -1.1739 -0.1857 -0.3046
  391MOL0     O51504   7.078   6.570  11.621  0.0957 -0.2102 -0.7192
  391MOL0     C51505   6.987   6.670  11.653 -0.2693  0.4543 -0.1369
  391MOL0     C51506   6.881   6.694  11.569  0.4789  0.1359  0.8726
  391MOL0     C51507   6.774   6.783  11.602 -0.4280  0.3780 -0.2525
  391MOL0     C51508   6.799   6.877  11.712 -0.0460  0.4837 -0.1919
  391MOL0     C51509   6.716   6.993  11.735 -0.0818 -0.2363  0.1381
  391MOL0     O51510   6.746   7.078  11.831  0.0546  0.5814 -0.0769
  391MOL0     C51511   6.646   7.132  11.910 -0.0130 -0.9009  0.2939
  391MOL0     C51512   6.674   7.143  12.054 -0.2196 -0.2943  0.5875
  391MOL0     C51513   6.584   7.218  12.135 -0.4331  0.1185 -0.3291
  391MOL0     C51514   6.473   7.290  12.079  0.5284  0.0434 -0.2910
  391MOL0     O51515   6.383   7.360  12.146  0.8504  0.1560 -0.4530
  391MOL0     C51516   6.392   7.384  12.283  0.1724  0.2901 -0.0416
  391MOL0     C51517   6.276   7.477  12.313 -1.1487 -0.1341 -0.4176
  391MOL0     C51518   6.241   7.480  12.465  0.4023  0.5887  0.3542
  391MOL0     C51519   6.140   7.587  12.509 -1.0350  0.1453  0.4045
  391MOL0     C51520   6.207   7.725  12.489  0.3032 -0.6307  0.3807
  391MOL0     C51521   6.145   7.835  12.576 -1.5903  0.0929 -0.0663
  391MOL0     C51522   6.218   7.845  12.716 -1.5496 -0.2778  1.3547
  391MOL0     C51523   6.149   7.953  12.787  0.2980  0.8497 -0.2013
  391MOL0    Cl51524   6.190   8.129  12.733 -0.0478 -0.4425 -0.1336
  391MOL0     C51525   6.447   7.267  11.948  0.3866  0.3648  0.3503
  391MOL0     C51526   6.528   7.195  11.863 -0.0050 -0.3652  0.6942
  391MOL0     O51527   6.615   7.001  11.664 -0.6131  0.2071 -0.0443
  391MOL0     C51528   6.917   6.862  11.792  0.3251  1.0809 -0.1264
  391MOL0     C51529   6.997   6.753  11.765 -0.0779 -0.0728 -0.2048
  391MOL0     N51530   7.325   6.065  11.717 -0.7302 -0.2192  0.4475
  391MOL0     N51531   7.368   5.945  11.745 -0.4835 -0.3079 -0.7442
  391MOL0     C51532   8.248   4.937  11.411  0.4783  0.1110 -0.5076
  391MOL0     C51533   8.358   4.918  11.337  0.8838 -1.0346 -0.2702
  391MOL0     C51534   8.747   5.008  11.105  0.3412  0.6010 -0.6527
  391MOL0     C51535   8.874   5.059  11.109 -0.5816 -0.1786 -0.4909
  391MOL0     C51536   8.970   5.037  11.003  0.1408 -0.1202 -0.7668
  391MOL0     C51537   8.929   4.950  10.903  0.0341  0.3071 -0.3783
  391MOL0     O51538   9.014   4.926  10.803 -0.6327  0.3129  0.3082
  391MOL0     C51539   9.036   5.044  10.721  0.4021 -0.6777 -0.7365
  391MOL0     C51540   9.181   5.067  10.732 -0.3504  0.0321  0.3375
  391MOL0     C51541   9.231   5.194  10.663  0.5560 -0.4888 -0.1382
  391MOL0     C51542   9.379   5.223  10.695  0.1891  0.5126 -0.1450
  391MOL0     C51543   9.388   5.303  10.818  0.7368 -0.1179 -0.1365
  391MOL0     C51544   9.436   5.356  10.919  0.6665 -0.2415  0.5069
  391MOL0     C51545   8.801   4.887  10.907 -0.4410 -0.5384 -0.3348
  391MOL0     C51546   8.714   4.927  11.003  0.3861 -0.9676 -1.1273
  391MOL0     H51547   8.416   5.219  11.219 -1.2924  2.4351 -1.3125
  391MOL0     H51548   8.220   5.278  11.398  0.1869  1.3989 -1.5227
  391MOL0     H51549   8.119   5.253  11.608  0.5148  0.4366  0.4200
  391MOL0     H51550   8.029   5.129  11.683  0.8933 -0.6982 -0.6397
  391MOL0     H51551   7.834   5.148  11.526 -0.4904  1.0267 -0.2802
  391MOL0     H51552   7.931   5.244  11.418 -1.2888 -3.4552 -1.3367
  391MOL0     H51553   7.910   5.432  11.538  0.2886  0.7135  1.3079
  391MOL0     H51554   7.891   5.360  11.694 -1.4534 -3.1856  1.5275
  391MOL0     H51555   7.691   5.371  11.467 -0.3166  0.2580  1.1043
  391MOL0     H51556   7.650   5.278  11.601 -0.0326 -1.8141 -3.0845
  391MOL0     H51557   7.708   5.528  11.727  0.2381 -1.6906  0.1345
  391MOL0     H51558   7.546   5.490  11.659  0.7867 -4.6470 -0.9054
  391MOL0     H51559   7.650   5.585  11.424  0.3056 -1.5475  0.1920
  391MOL0     H51560   7.758   5.665  11.536 -0.0595 -1.8173  0.4257
  391MOL0     H51561   7.603   5.820  11.491  2.2364 -1.0687 -1.9867
  391MOL0     H51562   7.457   5.724  11.525  0.8443 -1.9689 -2.0215
  391MOL0     H51563   7.672   5.815  11.724 -0.7043 -0.8694  1.1391
  391MOL0     H51564   7.528   5.731  11.768  2.6447 -2.5650 -0.3357
  391MOL0     H51565   7.613   6.076  11.584  1.4470  2.0884  3.0752
  391MOL0     H51566   7.374   6.215  11.463 -1.0831  0.3666  0.4152
  391MOL0     H51567   7.488   6.306  11.558  0.1423 -1.2656 -0.9682
  391MOL0     H51568   7.312   6.340  11.733 -0.9074 -0.5628 -0.6389
  391MOL0     H51569   7.193   6.306  11.620  0.5433 -1.2207  2.1170
  391MOL0     H51570   7.399   6.527  11.568  1.1326 -3.3152 -1.2653
  391MOL0     H51571   7.265   6.488  11.465  1.6569 -0.5386  0.6949
  391MOL0     H51572   7.258   6.687  11.657  0.7531 -1.1323 -3.0878
  391MOL0     H51573   7.211   6.561  11.768  3.7001  1.3133  0.3051
  391MOL0     H51574   6.874   6.627  11.484  1.5898 -0.5662  1.3118
  391MOL0     H51575   6.688   6.783  11.535 -1.2457  1.8832  0.7419
  391MOL0     H51576   6.768   7.103  12.090  1.3503  2.9197  0.3634
  391MOL0     H51577   6.610   7.232  12.239 -0.3511  3.3602 -0.6936
  391MOL0     H51578   6.483   7.435  12.314 -1.0512  2.3177  0.4496
  391MOL0     H51579   6.378   7.287  12.331 -0.8110  0.3634 -0.1561
  391MOL0     H51580   6.187   7.450  12.256 -0.1092 -0.4160 -1.9997
  391MOL0     H51581   6.296   7.579  12.278  0.1017  0.2294  1.2317
  391MOL0     H51582   6.337   7.504  12.512  0.1718  0.3814  0.9315
  391MOL0     H51583   6.203   7.385  12.503  0.6866 -0.9809 -2.9267
  391MOL0     H51584   6.052   7.576  12.446 -0.9995  1.5088  0.0853
  391MOL0     H51585   6.107   7.556  12.609  0.0304 -0.0005  0.7297
  391MOL0     H51586   6.218   7.766  12.388 -0.0518  0.9722  0.9619
  391MOL0     H51587   6.312   7.731  12.520  0.5736 -0.6432 -0.5055
  391MOL0     H51588   6.043   7.805  12.603 -0.9893 -2.8079 -0.7255
  391MOL0     H51589   6.145   7.931  12.524 -0.5823  2.2243  3.5086
  391MOL0     H51590   6.199   7.754  12.774  0.9587 -0.7820  1.5195
  391MOL0     H51591   6.325   7.863  12.707 -1.2272 -2.7785 -1.0066
  391MOL0     H51592   6.155   7.953  12.896 -1.0393  0.8353 -0.1049
  391MOL0     H51593   6.040   7.949  12.776  0.2602  2.1240 -0.4538
  391MOL0     H51594   6.349   7.300  11.913  0.8553  1.3726 -0.0485
  391MOL0     H51595   6.501   7.204  11.758 -1.7069 -0.1138  1.1346
  391MOL0     H51596   6.951   6.919  11.877 -1.3549 -1.9312  2.8272
  391MOL0     H51597   7.081   6.727  11.829  0.7086 -2.1904 -1.9735
  391MOL0     H51598   8.199   4.846  11.445  3.2758 -2.0352 -1.7813
  391MOL0     H51599   8.385   4.817  11.307  1.7828 -0.1543 -2.7065
  391MOL0     H51600   8.905   5.126  11.188  1.9875 -1.5933 -0.1722
  391MOL0     H51601   9.070   5.079  10.999  0.0166  1.0933  3.7040
  391MOL0     H51602   8.970   5.125  10.752 -2.2644 -1.9742 -2.5657
  391MOL0     H51603   9.010   5.033  10.615  1.0533 -0.6349 -0.9069
  391MOL0     H51604   9.207   5.088  10.837  0.8518  0.7592 -0.0793
  391MOL0     H51605   9.246   4.986  10.698 -0.3911  0.0313  0.2629
  391MOL0     H51606   9.168   5.278  10.691  0.4236 -0.8622  0.7099
  391MOL0     H51607   9.219   5.173  10.556  1.6808 -0.5248 -0.2714
  391MOL0     H51608   9.439   5.131  10.699 -1.8173 -0.8306  0.7129
  391MOL0     H51609   9.406   5.282  10.607  0.0082  2.2195  0.9017
  391MOL0     H51610   9.486   5.426  10.981  1.1676 -0.4260  0.3125
  391MOL0     H51611   8.759   4.828  10.826 -1.2280  0.9426 -1.0493
  391MOL0     H51612   8.610   4.896  10.998 -0.0952  0.8070 -3.1716
  392MOL0     O51613   4.361   2.752   1.176  0.3001 -0.3693  0.1227
  392MOL0     C51614   4.359   2.861   1.239 -0.4951  0.0354  0.9173
  392MOL0     O51615   4.437   2.967   1.223 -0.6300  0.5593  0.5601
  392MOL0     C51616   4.525   2.965   1.119 -0.1766 -0.3256  0.6742
  392MOL0     C51617   4.645   2.891   1.117 -0.2392  0.4797  0.1502
  392MOL0     C51618   4.727   2.912   1.007  0.2240 -0.3690 -0.1949
  392MOL0     C51619   4.707   3.017   0.909  0.1466 -0.2045 -0.4864
  392MOL0     O51620   4.787   3.042   0.799  0.0329  0.6907 -0.5202
  392MOL0     C51621   4.911   2.976   0.785 -0.6302  0.3992 -0.2658
  392MOL0     C51622   5.026   3.058   0.850 -0.3846 -1.1079  0.3018
  392MOL0     C51623   5.168   3.005   0.838 -0.5651 -0.0195  0.2378
  392MOL0     C51624   5.260   3.081   0.936 -0.3596  0.7667  0.9145
  392MOL0     C51625   5.405   3.048   0.889  0.1969  0.0055 -0.4743
  392MOL0     C51626   5.497   3.119   0.983 -0.4258  0.1415  0.3988
  392MOL0     C51627   5.523   3.274   0.963  1.4779 -0.7555  0.1274
  392MOL0     C51628   5.577   3.336   1.091  0.1198  0.1563 -0.3480
  392MOL0     N51629   5.692   3.268   1.155 -0.2290  0.6905  0.2438
  392MOL0     C51630   5.816   3.240   1.098  0.1242 -0.5062 -0.9661
  392MOL0     C51631   5.902   3.202   1.198 -0.3030  0.5117  0.1639
  392MOL0     C51632   6.042   3.158   1.185  0.3396  0.3008 -0.1276
  392MOL0     C51633   6.132   3.271   1.214  0.2050 -0.8163 -0.3231
  392MOL0     C51634   6.131   3.347   1.359  0.3413  0.5683  0.3146
  392MOL0     C51635   6.140   3.247   1.472  1.2312  0.1474  0.9405
  392MOL0     O51636   6.264   3.171   1.478 -0.7315 -0.2794  0.5648
  392MOL0     C51637   6.358   3.182   1.576 -1.4376  0.2569  0.0560
  392MOL0     C51638   6.486   3.218   1.542  0.9968 -0.0471  0.3137
  392MOL0     C51639   6.582   3.215   1.641  0.1892 -0.3426 -0.8546
  392MOL0     C51640   6.546   3.188   1.771  0.6264 -0.4702 -0.2494
  392MOL0     C51641   6.653   3.187   1.875  0.7239 -0.4566  1.0333
  392MOL0     O51642   6.783   3.199   1.833  0.6331  0.6642  0.3795
  392MOL0     C51643   6.875   3.241   1.920  0.5009 -0.0604 -0.8463
  392MOL0     C51644   6.900   3.190   2.051  0.9250  0.4451 -0.1505
  392MOL0     C51645   7.003   3.240   2.123  0.2278  0.4989  0.0470
  392MOL0     C51646   7.097   3.330   2.066  0.3842 -0.1561 -0.6240
  392MOL0     O51647   7.199   3.387   2.132 -0.2593  0.3914 -1.0923
  392MOL0     C51648   7.274   3.297   2.209 -0.3255  0.3712 -1.1661
  392MOL0     C51649   7.373   3.233   2.115 -0.6395  0.4873 -0.4335
  392MOL0     C51650   7.469   3.129   2.180  0.0507  0.0356 -0.7057
  392MOL0     C51651   7.563   3.193   2.291  0.1898  0.0651 -0.5024
  392MOL0     C51652   7.651   3.091   2.366 -0.5022 -0.7065 -1.1448
  392MOL0     C51653   7.751   3.011   2.293 -0.0437  0.5109 -0.8596
  392MOL0     C51654   7.845   3.090   2.198 -0.8616  0.1885  0.0993
  392MOL0     C51655   7.949   2.995   2.143 -0.1662 -0.0194  0.0044
  392MOL0    Cl51656   8.061   2.964   2.269 -0.0368 -0.3331 -0.2469
  392MOL0     C51657   7.070   3.386   1.936 -0.5374  0.4981 -0.0202
  392MOL0     C51658   6.963   3.328   1.861  0.5849  0.1600 -0.8780
  392MOL0     O51659   6.609   3.194   1.992 -0.2321 -0.1406  0.6137
  392MOL0     C51660   6.411   3.156   1.803 -0.0174  0.3982 -0.4018
  392MOL0     C51661   6.321   3.145   1.697  0.1915  0.3401 -0.7074
  392MOL0     N51662   5.826   3.205   1.308  0.4164 -0.2433  0.4764
  392MOL0     N51663   5.698   3.233   1.286 -0.5554  0.5898 -0.1675
  392MOL0     C51664   4.584   3.080   0.914  0.6100  0.4131 -1.2729
  392MOL0     C51665   4.496   3.055   1.022 -0.0200 -0.0286  1.3876
  392MOL0     C51666   4.271   2.850   1.359  0.2995  0.5831 -0.2801
  392MOL0     C51667   4.234   2.730   1.406  0.6098  0.4777  0.1769
  392MOL0     C51668   4.139   2.724   1.513  0.0481  0.0598 -0.1422
  392MOL0     C51669   4.079   2.840   1.556  0.2639  0.5845 -0.7630
  392MOL0     O51670   3.961   2.841   1.633  0.0140 -0.5226 -0.3108
  392MOL0     C51671   3.868   2.727   1.624 -0.0124  0.3125 -1.3995
  392MOL0     C51672   3.799   2.717   1.491 -0.5920 -0.2349 -0.2926
  392MOL0     C51673   3.654   2.657   1.524 -0.1479 -0.1976  0.4778
  392MOL0     C51674   3.544   2.757   1.557 -0.4444 -0.2815  0.4099
  392MOL0     C51675   3.419   2.698   1.595  0.1304  0.3978 -0.4902
  392MOL0     C51676   3.327   2.632   1.634  0.5260 -0.8000 -0.5770
  392MOL0     C51677   4.126   2.961   1.519  0.3685 -0.2443  0.1948
  392MOL0     C51678   4.220   2.969   1.420  0.6034 -0.2556 -0.3456
  392MOL0     H51679   4.665   2.815   1.192  0.5897 -0.9926 -1.5027
  392MOL0     H51680   4.820   2.859   0.996  1.4494  1.5036  0.5617
  392MOL0     H51681   4.932   2.957   0.680  0.5986 -0.4179  0.1036
  392MOL0     H51682   4.904   2.874   0.826 -0.3949  0.1752 -0.7785
  392MOL0     H51683   5.002   3.066   0.956  2.4162 -0.4379  0.9874
  392MOL0     H51684   5.031   3.153   0.795 -0.1728 -1.0175  0.4744
  392MOL0     H51685   5.208   3.028   0.740 -0.7484  3.3711  0.8354
  392MOL0     H51686   5.161   2.897   0.851 -1.9818 -0.3047 -2.3547
  392MOL0     H51687   5.235   3.186   0.920 -0.3381  0.5662 -0.6426
  392MOL0     H51688   5.241   3.050   1.039 -4.2380 -0.9247 -0.1282
  392MOL0     H51689   5.418   3.081   0.785 -2.7556  2.8745 -0.1142
  392MOL0     H51690   5.422   2.940   0.897  0.2558 -0.0528 -1.3255
  392MOL0     H51691   5.595   3.072   0.981 -1.7938 -2.9066 -0.3945
  392MOL0     H51692   5.459   3.100   1.084  0.3065 -4.2977  0.0461
  392MOL0     H51693   5.596   3.295   0.884  1.2962  3.4719  0.8076
  392MOL0     H51694   5.423   3.315   0.946  1.2253 -2.1520 -2.0787
  392MOL0     H51695   5.495   3.346   1.163 -2.8153 -3.1839 -2.8996
  392MOL0     H51696   5.603   3.441   1.072 -3.7654  1.2615 -0.3404
  392MOL0     H51697   5.836   3.259   0.993  2.1001  2.7054 -0.1622
  392MOL0     H51698   6.053   3.132   1.079 -1.6201  2.8579 -1.0685
  392MOL0     H51699   6.061   3.067   1.243 -2.7694  0.1543  0.8192
  392MOL0     H51700   6.111   3.352   1.144 -1.1115  0.6647  1.6806
  392MOL0     H51701   6.234   3.239   1.191  2.4582  3.8634  1.7069
  392MOL0     H51702   6.222   3.408   1.357  0.8579 -0.1916 -0.0841
  392MOL0     H51703   6.033   3.395   1.366  0.7878  2.6470 -3.9182
  392MOL0     H51704   6.060   3.179   1.441  0.3076  1.7719 -0.4099
  392MOL0     H51705   6.118   3.298   1.567 -1.9511 -1.1184  1.0292
  392MOL0     H51706   6.501   3.250   1.439 -2.0215  1.8265  0.3301
  392MOL0     H51707   6.682   3.252   1.621  1.2845 -3.3072 -1.2878
  392MOL0     H51708   6.838   3.119   2.105 -1.2293  2.1815 -0.1946
  392MOL0     H51709   7.003   3.227   2.231 -4.3763 -1.3816  0.0260
  392MOL0     H51710   7.215   3.218   2.255 -0.2828 -0.4560 -2.4928
  392MOL0     H51711   7.312   3.349   2.297  0.3030 -0.4099 -0.9626
  392MOL0     H51712   7.440   3.313   2.082  1.0648  1.0410  3.7353
  392MOL0     H51713   7.325   3.198   2.023  3.5070  0.6671 -2.8980
  392MOL0     H51714   7.528   3.086   2.099  0.9595  1.7799 -1.0408
  392MOL0     H51715   7.405   3.063   2.238 -1.1988 -1.3916 -3.5191
  392MOL0     H51716   7.626   3.266   2.239 -1.0771  0.5700 -1.3740
  392MOL0     H51717   7.507   3.248   2.367 -0.3779  1.4224 -1.8402
  392MOL0     H51718   7.587   3.023   2.422 -1.3208  1.2055  0.3708
  392MOL0     H51719   7.689   3.159   2.443 -3.0900  2.7738 -2.6502
  392MOL0     H51720   7.687   2.939   2.241 -1.7454  0.5119  1.1010
  392MOL0     H51721   7.807   2.948   2.362 -2.0395 -1.2778 -0.7389
  392MOL0     H51722   7.790   3.127   2.111 -1.3389  0.9147  0.6905
  392MOL0     H51723   7.888   3.168   2.262  2.6639 -1.9992  0.6138
  392MOL0     H51724   8.002   3.032   2.054  1.6220 -3.0199 -0.3137
  392MOL0     H51725   7.899   2.909   2.099 -1.6628  1.4572 -1.3525
  392MOL0     H51726   7.130   3.464   1.889  0.5834 -0.7008 -0.6499
  392MOL0     H51727   6.934   3.364   1.763 -0.3880 -2.4822 -1.6715
  392MOL0     H51728   6.388   3.128   1.905  2.5072  2.9369  1.0164
  392MOL0     H51729   6.221   3.108   1.718 -0.9765  4.5462  2.5024
  392MOL0     H51730   4.570   3.151   0.834 -0.0891 -3.4048 -4.8745
  392MOL0     H51731   4.400   3.105   1.011 -0.3589 -0.3864  2.5600
  392MOL0     H51732   4.271   2.637   1.366  1.0295  0.4331  0.6583
  392MOL0     H51733   4.109   2.625   1.547  2.1799  0.2330  2.5951
  392MOL0     H51734   3.791   2.735   1.702 -0.0533 -1.8618 -1.1690
  392MOL0     H51735   3.920   2.636   1.656 -2.1877  0.1071  2.1535
  392MOL0     H51736   3.799   2.818   1.448  1.3063  0.4893  1.2688
  392MOL0     H51737   3.837   2.646   1.418 -3.4307 -0.6310 -1.5046
  392MOL0     H51738   3.657   2.594   1.614 -1.9609  0.6285  1.1702
  392MOL0     H51739   3.612   2.599   1.441  1.4560 -2.2025  0.9991
  392MOL0     H51740   3.581   2.821   1.638  1.0652  0.0104 -0.4574
  392MOL0     H51741   3.519   2.825   1.474 -0.7683  0.0669  0.7869
  392MOL0     H51742   3.240   2.571   1.646  0.0738 -0.8549 -3.3433
  392MOL0     H51743   4.088   3.057   1.552  0.0080 -0.3300  0.0307
  392MOL0     H51744   4.246   3.065   1.377  2.3138 -0.8660 -0.7679
  393MOL0     O51745   3.278   9.637   6.785 -0.7025  0.0300 -0.6092
  393MOL0     C51746   3.360   9.676   6.871  0.9479  0.5948 -0.2855
  393MOL0     O51747   3.333   9.685   7.003 -1.0368  0.1647  0.0935
  393MOL0     C51748   3.200   9.686   7.030 -0.0069  0.6782  0.5686
  393MOL0     C51749   3.132   9.799   7.042 -0.5178 -0.1334 -0.0300
  393MOL0     C51750   2.998   9.797   7.079 -0.7734  0.8557 -0.5241
  393MOL0     C51751   2.929   9.676   7.095  0.0339  0.0947 -0.5082
  393MOL0     O51752   2.785   9.674   7.100 -0.5642 -0.0829 -0.1319
  393MOL0     C51753   2.711   9.793   7.085  0.1608  1.5780  0.0220
  393MOL0     C51754   2.563   9.750   7.102 -0.1275 -0.6551  0.5629
  393MOL0     C51755   2.517   9.657   7.001  0.1484 -0.3471 -0.5769
  393MOL0     C51756   2.486   9.718   6.861 -0.2044 -0.1093  0.4665
  393MOL0     C51757   2.419   9.617   6.769  0.1214  0.2052  1.7775
  393MOL0     C51758   2.485   9.479   6.741  0.3637  0.2073 -0.0191
  393MOL0     C51759   2.631   9.495   6.709 -0.2119 -0.4372 -0.5968
  393MOL0     C51760   2.668   9.570   6.576  0.4104  0.4102 -0.1809
  393MOL0     N51761   2.740   9.685   6.605 -0.5091  0.2716 -0.6543
  393MOL0     C51762   2.868   9.690   6.659  0.4611  0.4809  0.2976
  393MOL0     C51763   2.882   9.820   6.682 -0.0140 -0.2932  0.2369
  393MOL0     C51764   3.019   9.868   6.732 -0.0261 -0.2377  0.3803
  393MOL0     C51765   3.085   9.959   6.626  0.3775  0.4848  1.0477
  393MOL0     C51766   3.230   9.970   6.635  0.4701  0.7167  0.3699
  393MOL0     C51767   3.267  10.023   6.775 -0.4669  0.4268  0.3946
  393MOL0     O51768   3.329  10.155   6.768 -0.2630 -0.1901  0.0333
  393MOL0     C51769   3.469  10.154   6.752 -0.8568 -0.2896  0.6636
  393MOL0     C51770   3.551  10.047   6.703  0.5858 -0.8445 -0.5710
  393MOL0     C51771   3.685  10.065   6.685 -0.5516  0.2954  0.2868
  393MOL0     C51772   3.746  10.193   6.716 -0.1483 -0.3805  0.4204
  393MOL0     C51773   3.895  10.210   6.702 -0.1058  0.5463 -0.6182
  393MOL0     O51774   3.978  10.108   6.659 -0.0808  0.2627 -0.1410
  393MOL0     C51775   4.109  10.143   6.649 -0.3404  0.0706  0.0900
  393MOL0     C51776   4.198  10.090   6.747  0.1880 -0.0422 -0.5619
  393MOL0     C51777   4.333  10.141   6.746 -0.2810 -0.5155  0.3727
  393MOL0     C51778   4.380  10.237   6.663  0.0047  0.5547 -0.5694
  393MOL0     O51779   4.511  10.267   6.668  0.2418 -0.4736 -0.1271
  393MOL0     C51780   4.548  10.398   6.624 -0.0694  0.5312 -0.0146
  393MOL0     C51781   4.701  10.429   6.650  0.9603  0.1595  0.8321
  393MOL0     C51782   4.792  10.320   6.590  0.4430  0.2556 -0.0856
  393MOL0     C51783   4.942  10.340   6.609  0.5046  0.3221 -0.6547
  393MOL0     C51784   5.034  10.229   6.549  0.2974  0.5763  0.1241
  393MOL0     C51785   5.025  10.197   6.398  0.4554  0.1960  0.0490
  393MOL0     C51786   5.102  10.072   6.347  0.3645  0.3082 -0.8039
  393MOL0     C51787   5.068  10.043   6.196 -0.8176 -0.3410  0.5829
  393MOL0    Cl51788   5.175   9.906   6.157  0.1769  0.1082  0.0180
  393MOL0     C51789   4.300  10.285   6.560  0.6493 -0.7929 -0.2363
  393MOL0     C51790   4.168  10.242   6.556  0.5674 -0.0120 -0.1339
  393MOL0     O51791   3.942  10.317   6.748  0.6003 -0.5429  0.5967
  393MOL0     C51792   3.666  10.298   6.764 -0.3693  0.1361  0.3196
  393MOL0     C51793   3.527  10.277   6.798 -0.7743  0.3607  0.5379
  393MOL0     N51794   2.778   9.903   6.640  0.0595  0.2533 -0.3945
  393MOL0     N51795   2.694   9.815   6.592 -0.2775  0.1265 -0.4076
  393MOL0     C51796   3.004   9.559   7.097 -0.2498 -0.2413  0.5627
  393MOL0     C51797   3.138   9.566   7.074 -0.7345 -0.3205  0.4649
  393MOL0     C51798   3.500   9.708   6.824 -0.2699  0.0490 -0.3782
  393MOL0     C51799   3.540   9.692   6.692  0.3040 -0.8424 -1.1709
  393MOL0     C51800   3.677   9.697   6.659  0.9669  0.2550  0.8419
  393MOL0     C51801   3.777   9.711   6.762  0.4456 -0.4023 -0.2896
  393MOL0     O51802   3.905   9.685   6.724  0.2425  0.4676 -0.5451
  393MOL0     C51803   4.007   9.732   6.815  0.1464  0.8084 -0.3579
  393MOL0     C51804   4.151   9.714   6.759  0.4474  0.6568  0.2748
  393MOL0     C51805   4.202   9.571   6.732 -0.3407 -1.0371  0.7081
  393MOL0     C51806   4.345   9.584   6.680  0.3618 -0.4200 -0.4846
  393MOL0     C51807   4.369   9.528   6.556 -0.5989  0.0108 -0.3211
  393MOL0     C51808   4.413   9.485   6.453  1.0216 -0.2949  0.3737
  393MOL0     C51809   3.732   9.744   6.893  0.0462 -0.9273  0.1586
  393MOL0     C51810   3.598   9.749   6.920 -0.2516  0.2717  0.3181
  393MOL0     H51811   3.188   9.891   7.025  2.9559 -2.1470 -0.6207
  393MOL0     H51812   2.944   9.891   7.080 -0.1974  1.1867 -0.1465
  393MOL0     H51813   2.730   9.834   6.985 -0.5183 -1.5086 -1.4954
  393MOL0     H51814   2.740   9.865   7.162  3.5587 -1.7199  2.1974
  393MOL0     H51815   2.512   9.844   7.079  2.1392  0.1656 -1.5338
  393MOL0     H51816   2.538   9.706   7.200  1.2661  1.5392  1.9836
  393MOL0     H51817   2.421   9.619   7.035  0.4919 -0.5777  0.1580
  393MOL0     H51818   2.579   9.567   6.987  1.7805  0.6628 -0.1021
  393MOL0     H51819   2.418   9.802   6.877 -1.0342 -1.2744  3.9128
  393MOL0     H51820   2.579   9.762   6.824 -0.3187 -2.3587 -2.9330
  393MOL0     H51821   2.395   9.659   6.671 -1.6073 -4.9147 -0.3898
  393MOL0     H51822   2.316   9.598   6.800 -1.3794  3.8142 -0.3176
  393MOL0     H51823   2.434   9.428   6.659 -0.0148 -1.6640  1.2982
  393MOL0     H51824   2.475   9.419   6.832 -2.0019  0.2897 -0.1464
  393MOL0     H51825   2.665   9.549   6.797 -0.7529 -1.1241  0.0465
  393MOL0     H51826   2.685   9.400   6.718  1.0778  0.4198  1.1486
  393MOL0     H51827   2.573   9.597   6.530 -0.9933 -0.9469  1.7170
  393MOL0     H51828   2.719   9.503   6.507 -1.8564 -1.5302 -0.1231
  393MOL0     H51829   2.931   9.606   6.687 -1.7988 -0.3679  3.3459
  393MOL0     H51830   3.085   9.783   6.750 -0.8862 -1.3360 -1.4440
  393MOL0     H51831   2.993   9.929   6.820  1.1440  1.9217 -0.7024
  393MOL0     H51832   3.042  10.059   6.619  3.4949  1.9298  0.5739
  393MOL0     H51833   3.070   9.919   6.525  0.8886 -1.0853  1.5611
  393MOL0     H51834   3.295   9.887   6.604  1.7867  1.2474  1.6302
  393MOL0     H51835   3.248  10.045   6.557  1.3150 -2.5908 -2.9187
  393MOL0     H51836   3.341   9.953   6.817 -2.0810 -1.5622  0.0853
  393MOL0     H51837   3.179  10.038   6.838  0.4831  0.8530  1.6711
  393MOL0     H51838   3.508   9.950   6.678 -1.3153 -0.1885 -0.0034
  393MOL0     H51839   3.744   9.980   6.651 -0.9864  0.8745 -2.1142
  393MOL0     H51840   4.166  10.016   6.820  0.5720  0.0884 -0.2548
  393MOL0     H51841   4.399  10.106   6.824  1.1994 -0.1175 -0.6605
  393MOL0     H51842   4.502  10.480   6.680  0.9550  0.5678  0.7949
  393MOL0     H51843   4.542  10.422   6.518 -0.9628 -0.1976 -0.1418
  393MOL0     H51844   4.715  10.446   6.757  1.0930  2.0867  0.5467
  393MOL0     H51845   4.729  10.519   6.594 -0.3653 -0.5064 -0.9969
  393MOL0     H51846   4.762  10.303   6.486  1.1953 -2.8567  0.0828
  393MOL0     H51847   4.777  10.223   6.640  2.8201  0.6820  1.6720
  393MOL0     H51848   4.962  10.441   6.570 -0.1582  0.4237 -0.7458
  393MOL0     H51849   4.959  10.341   6.717  0.3086  0.7648 -0.6226
  393MOL0     H51850   5.010  10.142   6.611  0.7839  0.0772 -0.3787
  393MOL0     H51851   5.138  10.257   6.567  1.0272 -1.0730 -1.2303
  393MOL0     H51852   5.073  10.284   6.352  0.0256 -1.2954 -3.5621
  393MOL0     H51853   4.924  10.204   6.358 -0.0503  0.1761  1.2806
  393MOL0     H51854   5.211  10.085   6.348  0.4455 -0.3683  0.0200
  393MOL0     H51855   5.089   9.985   6.411  1.2251  1.7639  1.4833
  393MOL0     H51856   5.077  10.131   6.132 -2.9675  0.5636  1.4257
  393MOL0     H51857   4.965  10.009   6.181 -1.1264  0.7115  0.2814
  393MOL0     H51858   4.345  10.349   6.484 -1.7427  0.9060 -0.3260
  393MOL0     H51859   4.100  10.283   6.482  0.5298 -3.0490 -1.9564
  393MOL0     H51860   3.713  10.394   6.782 -1.6971  0.7880  0.4614
  393MOL0     H51861   3.483  10.370   6.834 -1.1383 -0.5456  2.5797
  393MOL0     H51862   2.953   9.465   7.112 -1.0510  0.0023 -0.5496
  393MOL0     H51863   3.174   9.464   7.058 -0.4229 -0.8094  3.5857
  393MOL0     H51864   3.473   9.660   6.613  1.9445 -0.7242 -2.6767
  393MOL0     H51865   3.715   9.680   6.559 -0.6228  0.9064  0.0849
  393MOL0     H51866   3.995   9.681   6.911  0.2719  1.4015 -0.0273
  393MOL0     H51867   3.990   9.839   6.830 -1.5947  0.5692 -0.3349
  393MOL0     H51868   4.151   9.767   6.664 -0.9733  1.9128  0.9312
  393MOL0     H51869   4.228   9.760   6.821  1.7898  2.2487 -2.4026
  393MOL0     H51870   4.129   9.522   6.668 -1.3685  3.1097 -1.7012
  393MOL0     H51871   4.184   9.524   6.829 -6.1741  2.0728  1.5643
  393MOL0     H51872   4.371   9.690   6.674 -2.6194  0.4132 -0.0096
  393MOL0     H51873   4.407   9.530   6.753 -0.0100 -0.5925 -0.2936
  393MOL0     H51874   4.440   9.444   6.358 -0.4216  1.3722 -0.8266
  393MOL0     H51875   3.805   9.767   6.970  0.9215 -0.1643 -0.8655
  393MOL0     H51876   3.550   9.774   7.014  0.7441  4.0411 -0.0405
  394MOL0     O51877   3.957   8.207   1.044 -0.6449  0.1492 -0.4187
  394MOL0     C51878   4.043   8.229   1.128 -0.6729  0.3826 -0.6983
  394MOL0     O51879   4.028   8.249   1.263  0.5438  0.0580  0.0712
  394MOL0     C51880   3.905   8.229   1.313  0.5650  0.1509  0.1035
  394MOL0     C51881   3.787   8.304   1.295 -0.7882  0.9538 -0.8209
  394MOL0     C51882   3.663   8.263   1.345 -0.6690 -0.3921  0.0610
  394MOL0     C51883   3.659   8.153   1.427  0.5868  0.5092  0.6030
  394MOL0     O51884   3.540   8.121   1.488 -0.3310  0.3959 -0.3601
  394MOL0     C51885   3.547   8.141   1.623 -0.5716  0.0349 -0.2681
  394MOL0     C51886   3.432   8.084   1.708  0.0773 -0.0029  0.0012
  394MOL0     C51887   3.304   8.130   1.653  0.3188  0.3153 -0.2602
  394MOL0     C51888   3.177   8.079   1.722  0.2969  0.4025  1.0166
  394MOL0     C51889   3.064   8.117   1.626  0.4265  0.8962  0.0203
  394MOL0     C51890   2.931   8.094   1.697 -0.3670  0.4785 -0.3180
  394MOL0     C51891   2.824   8.146   1.607  0.1994  0.2417  0.2418
  394MOL0     C51892   2.678   8.146   1.660 -0.3325  0.7340  0.3615
  394MOL0     N51893   2.653   8.240   1.767  0.4849 -1.0995  0.2245
  394MOL0     C51894   2.619   8.209   1.891  0.0035 -0.0741 -0.7332
  394MOL0     C51895   2.584   8.333   1.943  0.4376  0.8152  0.3570
  394MOL0     C51896   2.562   8.375   2.089  1.4254  1.0756 -0.3615
  394MOL0     C51897   2.661   8.337   2.196 -0.2149 -0.8966  0.1322
  394MOL0     C51898   2.761   8.455   2.222  0.1863  0.0734 -0.2558
  394MOL0     C51899   2.856   8.472   2.096  0.8525  0.6614 -0.5756
  394MOL0     O51900   2.913   8.344   2.045  0.5160 -0.3720  0.3860
  394MOL0     C51901   3.032   8.353   1.981  0.0114  0.1095  0.8020
  394MOL0     C51902   3.060   8.426   1.864 -0.2627 -0.2241 -0.6800
  394MOL0     C51903   3.194   8.447   1.812 -0.2741 -0.1130  0.0316
  394MOL0     C51904   3.305   8.396   1.877 -0.0807  0.1581 -0.2750
  394MOL0     C51905   3.442   8.425   1.833  0.4307 -0.1179 -0.1524
  394MOL0     O51906   3.439   8.512   1.723  0.3013  0.3442  0.3139
  394MOL0     C51907   3.550   8.552   1.651 -0.4886  0.5766 -0.2069
  394MOL0     C51908   3.681   8.560   1.703  0.0395  0.4185 -0.0151
  394MOL0     C51909   3.790   8.612   1.628  1.0812 -0.1649  0.1664
  394MOL0     C51910   3.763   8.667   1.504 -0.3169  0.4210 -0.4219
  394MOL0     O51911   3.857   8.739   1.443 -0.7351  0.6550  0.3082
  394MOL0     C51912   3.865   8.722   1.299  0.1754 -0.5210 -0.6508
  394MOL0     C51913   3.998   8.663   1.273  0.6789 -0.1062 -0.1613
  394MOL0     C51914   4.011   8.627   1.119  0.8658 -0.1638 -0.5738
  394MOL0     C51915   4.156   8.582   1.101  1.2384  0.2036 -0.2871
  394MOL0     C51916   4.261   8.699   1.097 -0.3822  0.1534 -0.3932
  394MOL0     C51917   4.395   8.649   1.040 -0.2023  0.1827  0.7820
  394MOL0     C51918   4.459   8.542   1.126 -0.2882 -0.2955 -0.3114
  394MOL0     C51919   4.616   8.554   1.130 -1.1349 -0.1539  0.1324
  394MOL0    Cl51920   4.678   8.403   1.214 -0.3478 -0.1846 -0.1549
  394MOL0     C51921   3.635   8.675   1.455  0.6320  0.8244 -0.7743
  394MOL0     C51922   3.532   8.604   1.521 -0.5839  0.3419 -0.5105
  394MOL0     O51923   3.543   8.373   1.880 -0.6409  0.1775 -0.0028
  394MOL0     C51924   3.278   8.326   1.997 -1.4736  0.1928  0.4051
  394MOL0     C51925   3.152   8.307   2.042 -0.4942  0.5692 -0.0209
  394MOL0     N51926   2.589   8.430   1.840  0.3521 -0.5616  0.4609
  394MOL0     N51927   2.626   8.365   1.737  0.1593  0.3665 -0.2591
  394MOL0     C51928   3.774   8.078   1.452  0.3573 -0.6331 -0.7944
  394MOL0     C51929   3.890   8.114   1.394  1.0756 -0.4909  0.2095
  394MOL0     C51930   4.183   8.214   1.078 -0.9618  0.6967 -0.3428
  394MOL0     C51931   4.220   8.254   0.942  0.1232  0.4229 -0.5974
  394MOL0     C51932   4.353   8.245   0.907  0.4183 -0.7764  0.2123
  394MOL0     C51933   4.454   8.208   0.991 -0.2882 -0.2239 -0.0942
  394MOL0     O51934   4.591   8.183   0.967  0.2443  0.2199 -1.1390
  394MOL0     C51935   4.630   8.230   0.835  0.9173  0.0090 -0.1112
  394MOL0     C51936   4.781   8.243   0.832 -0.6968 -0.5633  0.0196
  394MOL0     C51937   4.848   8.271   0.974  1.4204  0.3166 -0.1420
  394MOL0     C51938   4.999   8.248   0.976 -0.8743 -0.7532  0.2653
  394MOL0     C51939   5.065   8.333   1.072 -0.5070  0.0308  0.2837
  394MOL0     C51940   5.105   8.416   1.154  0.0826  0.4423 -0.7436
  394MOL0     C51941   4.414   8.166   1.120  0.5306  1.0102  0.2367
  394MOL0     C51942   4.287   8.175   1.169  0.4976 -0.2809 -0.0952
  394MOL0     H51943   3.791   8.390   1.229  1.0887  1.1771 -0.4880
  394MOL0     H51944   3.584   8.335   1.324 -1.3225 -1.7922 -2.8241
  394MOL0     H51945   3.563   8.247   1.646  0.4229  0.5446 -2.9062
  394MOL0     H51946   3.640   8.099   1.663 -0.4902  0.7388  0.3035
  394MOL0     H51947   3.432   8.115   1.813 -2.8172 -1.3082  0.4760
  394MOL0     H51948   3.421   7.975   1.713 -2.3948  0.1831 -0.2159
  394MOL0     H51949   3.303   8.091   1.551  0.7777  3.6171 -1.6520
  394MOL0     H51950   3.286   8.237   1.649 -1.7932 -0.0118 -0.8673
  394MOL0     H51951   3.178   7.970   1.737  2.9404  0.4052  1.3318
  394MOL0     H51952   3.170   8.137   1.814  2.5176  1.5970  0.5074
  394MOL0     H51953   3.073   8.060   1.533  3.6081 -0.6779  1.1607
  394MOL0     H51954   3.080   8.224   1.614  2.7942  0.6426  0.4161
  394MOL0     H51955   2.925   8.146   1.793 -2.4689 -2.4267  1.2785
  394MOL0     H51956   2.909   7.988   1.711 -1.2653  0.8175  0.9982
  394MOL0     H51957   2.855   8.246   1.579  1.1460 -0.4477 -1.2690
  394MOL0     H51958   2.830   8.083   1.518 -1.6828 -0.3638  0.4960
  394MOL0     H51959   2.649   8.043   1.683 -0.0445 -0.0987 -2.6832
  394MOL0     H51960   2.616   8.166   1.572  0.3367 -0.6481 -0.4536
  394MOL0     H51961   2.625   8.114   1.941 -0.0719 -0.3497 -1.2417
  394MOL0     H51962   2.472   8.320   2.120 -0.2076  4.0420  0.5697
  394MOL0     H51963   2.518   8.476   2.093 -0.1934  0.4326 -0.7667
  394MOL0     H51964   2.709   8.241   2.173 -1.9213 -1.5855 -0.7291
  394MOL0     H51965   2.610   8.322   2.292 -1.3894 -1.7705 -0.6041
  394MOL0     H51966   2.708   8.548   2.241 -0.1230 -0.0792 -0.3653
  394MOL0     H51967   2.832   8.432   2.302  0.7399 -1.4434 -1.1300
  394MOL0     H51968   2.935   8.534   2.138  1.7654 -0.8022 -0.0719
  394MOL0     H51969   2.802   8.510   2.009  0.3005 -1.7823 -1.3827
  394MOL0     H51970   2.972   8.475   1.823 -1.9721 -0.2918  2.6107
  394MOL0     H51971   3.200   8.499   1.717 -1.2293 -0.3090 -0.1442
  394MOL0     H51972   3.701   8.523   1.803  2.8903  1.9979  0.1127
  394MOL0     H51973   3.888   8.616   1.674  1.0022 -4.9827  1.2945
  394MOL0     H51974   3.843   8.819   1.254 -1.7543 -0.2652  0.7648
  394MOL0     H51975   3.795   8.644   1.267  1.9144 -3.0853  1.3311
  394MOL0     H51976   4.008   8.576   1.338 -0.8338 -1.0769 -1.1544
  394MOL0     H51977   4.075   8.738   1.292  1.3873 -0.5475 -1.2078
  394MOL0     H51978   3.991   8.714   1.056  3.1806  1.9590  1.4335
  394MOL0     H51979   3.934   8.554   1.090  0.1004 -1.2136  3.5641
  394MOL0     H51980   4.186   8.508   1.175  0.9678 -0.6465 -1.0068
  394MOL0     H51981   4.156   8.521   1.011  3.5718 -1.5580  0.8206
  394MOL0     H51982   4.280   8.727   1.201 -0.7861 -0.2376 -0.2112
  394MOL0     H51983   4.237   8.793   1.045  2.0141  1.0402 -0.0168
  394MOL0     H51984   4.467   8.731   1.031  1.2249 -1.2212 -1.8916
  394MOL0     H51985   4.391   8.614   0.937  4.9932 -0.6308  0.5677
  394MOL0     H51986   4.407   8.544   1.222  0.3666  0.8256  0.0338
  394MOL0     H51987   4.432   8.447   1.078  3.1750 -0.3233 -2.6224
  394MOL0     H51988   4.652   8.640   1.188 -0.4982 -0.4731  0.2227
  394MOL0     H51989   4.655   8.555   1.028 -2.9478  4.6330 -0.7341
  394MOL0     H51990   3.616   8.734   1.365 -2.1454  1.6635  0.2622
  394MOL0     H51991   3.430   8.595   1.486 -1.3749  2.6197  0.9507
  394MOL0     H51992   3.367   8.281   2.040 -1.9905 -2.8362 -1.4213
  394MOL0     H51993   3.125   8.254   2.133  4.8770 -4.8547 -0.9998
  394MOL0     H51994   3.762   7.999   1.525 -0.5485  0.5810  0.4317
  394MOL0     H51995   3.975   8.046   1.395  1.8822  0.4248 -1.3158
  394MOL0     H51996   4.137   8.255   0.872  0.2920 -2.6426 -0.9843
  394MOL0     H51997   4.373   8.256   0.801  1.6537  0.1104  0.5151
  394MOL0     H51998   4.595   8.331   0.812  1.1864 -0.4568 -2.9269
  394MOL0     H51999   4.588   8.174   0.752  0.7421  1.4356 -1.0242
  394MOL0     H52000   4.825   8.147   0.802  2.9624  0.5978  1.1365
  394MOL0     H52001   4.813   8.321   0.763 -1.9197 -0.8585 -0.9138
  394MOL0     H52002   4.816   8.203   1.053  3.3371  1.0950  1.3998
  394MOL0     H52003   4.833   8.370   1.017  1.5125 -1.6313  5.0401
  394MOL0     H52004   5.032   8.146   0.999  3.7917  0.3542 -0.4278
  394MOL0     H52005   5.031   8.253   0.872 -2.3130 -2.5149 -0.3059
  394MOL0     H52006   5.149   8.458   1.242  1.6110 -1.3048 -0.6150
  394MOL0     H52007   4.496   8.131   1.182  1.5332  0.6571 -1.2361
  394MOL0     H52008   4.265   8.141   1.269 -0.7080 -1.7409 -0.8197
  395MOL0     O52009   4.766   5.520   2.845 -0.2499  0.1827  0.0629
  395MOL0     C52010   4.877   5.538   2.796 -0.3017  0.0276  1.0289
  395MOL0     O52011   4.915   5.647   2.715  0.4572 -0.3846 -0.0883
  395MOL0     C52012   4.809   5.712   2.660 -0.2455  0.2290 -0.1972
  395MOL0     C52013   4.703   5.659   2.583 -0.2430  1.1522 -0.5666
  395MOL0     C52014   4.612   5.755   2.517  0.1430  0.1308 -0.2467
  395MOL0     C52015   4.635   5.892   2.518 -0.2228 -0.1505 -0.2979
  395MOL0     O52016   4.547   5.971   2.452  0.6442  0.3950 -0.0354
  395MOL0     C52017   4.567   6.114   2.446 -0.1102  0.0721  0.1988
  395MOL0     C52018   4.509   6.200   2.550 -0.4960 -0.1459  0.6042
  395MOL0     C52019   4.502   6.353   2.514 -0.7514  0.2592 -0.2013
  395MOL0     C52020   4.449   6.439   2.635 -0.7207 -0.3006  0.3270
  395MOL0     C52021   4.437   6.593   2.609  0.0418  0.5632 -0.2844
  395MOL0     C52022   4.346   6.664   2.711  0.4260  0.1152 -0.7438
  395MOL0     C52023   4.198   6.608   2.709 -0.3030 -0.5719 -0.1203
  395MOL0     C52024   4.099   6.714   2.754 -0.0441  0.4461 -0.2362
  395MOL0     N52025   4.132   6.754   2.891  0.0142  0.4042  0.5788
  395MOL0     C52026   4.183   6.672   2.997  0.9263  0.5360 -0.2601
  395MOL0     C52027   4.183   6.757   3.102  0.5438 -0.2349 -0.1998
  395MOL0     C52028   4.206   6.691   3.239 -0.1392 -0.3992  0.5436
  395MOL0     C52029   4.086   6.635   3.311  1.4634 -0.3382  1.0696
  395MOL0     C52030   4.083   6.484   3.343  0.1612  0.0631 -0.3814
  395MOL0     C52031   3.963   6.445   3.427  0.2472 -0.8131  0.5827
  395MOL0     O52032   3.851   6.437   3.336  0.0538 -0.0062  0.6812
  395MOL0     C52033   3.724   6.471   3.384 -0.0545 -0.7454 -0.1003
  395MOL0     C52034   3.677   6.469   3.524  0.6830 -0.5554 -0.7939
  395MOL0     C52035   3.540   6.491   3.553  0.0589  0.0130  0.7103
  395MOL0     C52036   3.449   6.511   3.454 -0.1365 -1.0150 -0.3865
  395MOL0     C52037   3.311   6.560   3.478  0.9355  0.7204  0.4920
  395MOL0     O52038   3.241   6.597   3.370  0.2992  0.0914  0.0099
  395MOL0     C52039   3.107   6.638   3.370 -0.1604 -0.4846 -0.2623
  395MOL0     C52040   3.071   6.699   3.244  0.2395 -0.9711  0.4753
  395MOL0     C52041   2.940   6.744   3.230  0.1865  0.9199  0.2666
  395MOL0     C52042   2.848   6.731   3.335 -0.0152 -0.2719 -0.3051
  395MOL0     O52043   2.729   6.801   3.317  0.2175  0.7338 -0.1314
  395MOL0     C52044   2.623   6.787   3.417 -0.8487 -0.1037 -0.0678
  395MOL0     C52045   2.495   6.817   3.332  0.2510 -0.2747  0.5235
  395MOL0     C52046   2.364   6.827   3.408 -0.7657  0.0524  0.0182
  395MOL0     C52047   2.248   6.859   3.319 -0.6110  0.7216 -0.6382
  395MOL0     C52048   2.121   6.899   3.394 -1.1224 -1.4709  0.3886
  395MOL0     C52049   2.047   6.799   3.478 -0.8976 -0.4870 -0.6920
  395MOL0     C52050   2.022   6.659   3.424  0.9004 -0.9104 -0.6012
  395MOL0     C52051   1.929   6.655   3.317 -0.6855 -0.5358  0.7061
  395MOL0    Cl52052   1.960   6.497   3.235  0.0483  0.0523  0.0912
  395MOL0     C52053   2.884   6.661   3.457  0.7553 -0.8939  0.3770
  395MOL0     C52054   3.015   6.616   3.474 -0.5545 -0.2454  0.4842
  395MOL0     O52055   3.272   6.580   3.597 -0.7860  0.5801  0.5497
  395MOL0     C52056   3.497   6.512   3.328 -0.6706  0.0174  0.6721
  395MOL0     C52057   3.627   6.491   3.288  0.1984 -0.1420  0.5594
  395MOL0     N52058   4.133   6.882   3.064  0.3140  0.2650  0.1723
  395MOL0     N52059   4.110   6.874   2.936  0.7838 -0.1669 -0.1289
  395MOL0     C52060   4.738   5.938   2.597 -0.0379  0.1964  0.4838
  395MOL0     C52061   4.822   5.852   2.667 -0.3971 -0.0391 -0.0480
  395MOL0     C52062   4.978   5.452   2.849 -0.7389 -0.1475  0.6870
  395MOL0     C52063   5.112   5.503   2.848  0.5428 -0.3360 -0.6880
  395MOL0     C52064   5.209   5.444   2.927 -0.5309  0.0388  0.9436
  395MOL0     C52065   5.196   5.324   2.986  1.0987 -0.2892 -0.1080
  395MOL0     O52066   5.306   5.285   3.057 -1.0689  0.4924  0.4088
  395MOL0     C52067   5.273   5.197   3.166  0.7441 -0.4552  0.4040
  395MOL0     C52068   5.388   5.190   3.267 -0.6306  0.5156  0.4708
  395MOL0     C52069   5.524   5.152   3.208 -0.4238  0.7222 -0.5071
  395MOL0     C52070   5.519   5.012   3.118  0.3765 -1.0284 -0.1806
  395MOL0     C52071   5.486   4.900   3.200  0.4121 -0.1988 -0.2728
  395MOL0     C52072   5.470   4.796   3.262  0.1991 -0.7243  0.2483
  395MOL0     C52073   5.071   5.262   2.977 -0.4654  0.2919  0.7731
  395MOL0     C52074   4.959   5.327   2.920  0.2456  0.5613  0.2412
  395MOL0     H52075   4.703   5.552   2.567 -1.4007  0.8743  1.0322
  395MOL0     H52076   4.527   5.717   2.460  0.9819 -2.1899 -0.0671
  395MOL0     H52077   4.517   6.131   2.350  1.4204 -0.7001 -0.7838
  395MOL0     H52078   4.671   6.147   2.436 -0.2798  1.0232  1.4105
  395MOL0     H52079   4.573   6.196   2.640 -0.2046  1.4102  0.5003
  395MOL0     H52080   4.412   6.159   2.577 -0.0478 -0.5107  1.7279
  395MOL0     H52081   4.440   6.363   2.425 -2.6332 -1.4107  0.8244
  395MOL0     H52082   4.605   6.386   2.497 -0.1688  0.4512  2.9881
  395MOL0     H52083   4.362   6.391   2.681  1.0794 -2.3600  1.7826
  395MOL0     H52084   4.528   6.438   2.710 -0.5883  0.3862  0.1985
  395MOL0     H52085   4.381   6.608   2.517 -2.3931  0.8939  1.1609
  395MOL0     H52086   4.536   6.636   2.592 -1.0514  2.6498 -1.8315
  395MOL0     H52087   4.356   6.766   2.674  1.9384  0.0126 -0.6722
  395MOL0     H52088   4.390   6.664   2.811  3.0532  1.0804 -1.8121
  395MOL0     H52089   4.169   6.565   2.612 -0.0806 -2.1911  0.5063
  395MOL0     H52090   4.188   6.521   2.773 -0.7939 -0.7436 -0.4197
  395MOL0     H52091   3.995   6.679   2.750 -0.6781  2.0937  0.7496
  395MOL0     H52092   4.108   6.797   2.684  0.3229  0.2506 -0.4229
  395MOL0     H52093   4.221   6.572   2.982  0.7879  0.3053  0.8508
  395MOL0     H52094   4.266   6.755   3.304  2.2068 -1.3429 -0.5556
  395MOL0     H52095   4.272   6.606   3.217 -0.9123 -1.2886  1.5098
  395MOL0     H52096   4.003   6.664   3.246  1.8015  2.3827  1.7593
  395MOL0     H52097   4.081   6.690   3.406  1.9769  1.2316  0.2192
  395MOL0     H52098   4.096   6.430   3.248 -0.2957 -0.0154 -0.4048
  395MOL0     H52099   4.174   6.451   3.394 -0.7811 -1.3797  0.4455
  395MOL0     H52100   3.954   6.521   3.505 -1.0307  0.2017 -0.5147
  395MOL0     H52101   3.982   6.354   3.484  2.9812  0.0806  1.2684
  395MOL0     H52102   3.741   6.437   3.606 -0.7429 -0.0676  0.5525
  395MOL0     H52103   3.520   6.496   3.660  0.5754 -1.5607  0.8995
  395MOL0     H52104   3.148   6.708   3.167  0.0782  2.6708  0.5934
  395MOL0     H52105   2.918   6.792   3.135 -0.1051 -2.3393 -1.4476
  395MOL0     H52106   2.627   6.860   3.499 -0.9836 -2.7276  2.4241
  395MOL0     H52107   2.610   6.685   3.453 -3.3003 -1.5427 -4.3271
  395MOL0     H52108   2.497   6.742   3.252  1.4919  0.5637 -0.2598
  395MOL0     H52109   2.516   6.912   3.281  0.1648 -0.9941 -0.9065
  395MOL0     H52110   2.376   6.906   3.483  0.2376  0.1763 -0.2578
  395MOL0     H52111   2.353   6.734   3.463  1.4691  1.2651  2.7381
  395MOL0     H52112   2.284   6.942   3.257  2.4588 -0.3953 -0.5214
  395MOL0     H52113   2.231   6.769   3.259 -3.5838 -0.0067  1.1201
  395MOL0     H52114   2.061   6.929   3.308 -0.7489  0.7506  0.8585
  395MOL0     H52115   2.133   6.991   3.452 -3.4745 -0.6356 -0.3260
  395MOL0     H52116   1.946   6.836   3.499 -0.9186 -1.9845  2.4677
  395MOL0     H52117   2.099   6.785   3.573 -1.1588  2.0187 -0.1214
  395MOL0     H52118   2.118   6.618   3.393  2.4949  2.1360 -0.1074
  395MOL0     H52119   1.968   6.598   3.497  0.8361  0.6108  0.6826
  395MOL0     H52120   1.962   6.728   3.242 -2.7596  1.0613  1.2497
  395MOL0     H52121   1.824   6.673   3.342  0.1869  1.9948  3.0287
  395MOL0     H52122   2.817   6.646   3.542 -0.2903 -1.9257 -0.5976
  395MOL0     H52123   3.031   6.558   3.565 -0.8408 -0.0716  0.6461
  395MOL0     H52124   3.429   6.532   3.246  0.3757  1.0957  0.0289
  395MOL0     H52125   3.660   6.507   3.186 -1.7351  0.0943 -0.0700
  395MOL0     H52126   4.751   6.046   2.596 -1.9674  0.4629 -0.9093
  395MOL0     H52127   4.902   5.909   2.714 -1.1208  1.3710 -0.4700
  395MOL0     H52128   5.160   5.590   2.804  1.7520 -0.6584 -0.0427
  395MOL0     H52129   5.306   5.491   2.931 -1.1974  1.3919  2.1894
  395MOL0     H52130   5.241   5.104   3.119 -0.7763 -0.5253  1.5073
  395MOL0     H52131   5.187   5.237   3.219 -0.2571 -2.4279  0.3702
  395MOL0     H52132   5.408   5.285   3.318  0.2760 -0.2622  1.6168
  395MOL0     H52133   5.340   5.128   3.344 -0.8432  0.3748  0.2261
  395MOL0     H52134   5.595   5.133   3.290  1.6257  1.7073 -1.9766
  395MOL0     H52135   5.571   5.232   3.152  1.1166  0.2064 -0.0267
  395MOL0     H52136   5.448   5.026   3.036 -0.8512 -1.2319  0.8217
  395MOL0     H52137   5.612   4.985   3.067 -0.9141  0.9550 -3.9371
  395MOL0     H52138   5.441   4.698   3.294 -0.2887 -0.3031  1.1176
  395MOL0     H52139   5.045   5.174   3.035 -0.5143 -0.2073  0.0009
  395MOL0     H52140   4.862   5.283   2.941 -0.1282 -1.3047 -4.1480
  396MOL0     O52141   2.003   6.527  11.048 -0.2889  0.6493  0.1978
  396MOL0     C52142   1.974   6.409  11.028 -0.1580  0.2848 -0.4003
  396MOL0     O52143   1.851   6.360  10.994 -0.0519 -0.3768 -0.6748
  396MOL0     C52144   1.755   6.446  10.934 -0.5787  0.0911  0.1737
  396MOL0     C52145   1.684   6.548  11.007  1.2746  1.2777 -0.4800
  396MOL0     C52146   1.595   6.635  10.950 -0.2656  0.0291  0.3290
  396MOL0     C52147   1.588   6.633  10.808 -0.3212  0.7848  0.2526
  396MOL0     O52148   1.491   6.710  10.738  0.6363 -0.2741 -0.0723
  396MOL0     C52149   1.489   6.851  10.782  0.0018 -0.0101  0.7015
  396MOL0     C52150   1.401   6.928  10.679  1.0612 -0.1837  1.0859
  396MOL0     C52151   1.274   6.849  10.657 -0.2126  0.1385 -0.0346
  396MOL0     C52152   1.168   6.945  10.606  0.5317  0.4229 -0.2797
  396MOL0     C52153   1.028   6.894  10.574 -0.4458  0.1477  0.5204
  396MOL0     C52154   0.934   7.006  10.550 -0.5029 -0.1838  0.5047
  396MOL0     C52155   0.787   6.967  10.506 -0.6708 -0.2831  0.5646
  396MOL0     C52156   0.706   7.089  10.487  0.7470  0.0912  0.6334
  396MOL0     N52157   0.568   7.042  10.450  0.4761 -0.4117 -0.4226
  396MOL0     C52158   0.494   6.987  10.549 -1.4098 -0.2375  0.5241
  396MOL0     C52159   0.388   6.926  10.492 -0.0667  0.9757  0.7526
  396MOL0     C52160   0.280   6.852  10.573  0.0657  0.0927  0.2381
  396MOL0     C52161   0.157   6.933  10.572  0.5089 -0.6905  0.1964
  396MOL0     C52162   0.049   6.870  10.648  0.6694  0.4655 -1.0719
  396MOL0     C52163  -0.077   6.955  10.643  0.6141 -0.8377  0.3451
  396MOL0     O52164  -0.195   6.894  10.709 -0.3874 -0.4513  0.5818
  396MOL0     C52165  -0.265   6.792  10.652 -0.2783  0.6866 -0.1944
  396MOL0     C52166  -0.257   6.765  10.514  0.2383 -1.1663 -0.7183
  396MOL0     C52167  -0.328   6.657  10.456  0.8278 -0.7329  0.6250
  396MOL0     C52168  -0.396   6.570  10.542  0.8416  0.3097 -0.0772
  396MOL0     C52169  -0.469   6.457  10.494  0.2555 -0.0567  1.3528
  396MOL0     O52170  -0.541   6.393  10.586  0.9078 -0.2640  0.3752
  396MOL0     C52171  -0.640   6.305  10.562  0.3537 -0.1346 -0.5277
  396MOL0     C52172  -0.666   6.215  10.666 -0.0988  0.6180  0.3842
  396MOL0     C52173  -0.777   6.131  10.658  0.2832  0.4281 -0.8652
  396MOL0     C52174  -0.879   6.137  10.563  0.3173  0.7118  0.2900
  396MOL0     O52175  -0.988   6.054  10.575 -0.5195 -0.4442  0.2107
  396MOL0     C52176  -1.097   6.073  10.477  0.0403  0.2193  0.2730
  396MOL0     C52177  -1.210   5.986  10.509  0.2096  1.3416 -0.9004
  396MOL0     C52178  -1.203   5.840  10.459 -0.1689 -1.0098 -1.4136
  396MOL0     C52179  -1.332   5.757  10.500 -0.3350  0.0565  0.6477
  396MOL0     C52180  -1.363   5.739  10.654 -0.0813 -0.1765  0.2888
  396MOL0     C52181  -1.498   5.658  10.679  0.3187 -0.1761  0.2432
  396MOL0     C52182  -1.493   5.516  10.615  0.3175  0.3883  0.1998
  396MOL0     C52183  -1.613   5.433  10.647 -0.7680 -0.0137 -0.0970
  396MOL0    Cl52184  -1.614   5.410  10.812  0.2641  0.1855 -0.0624
  396MOL0     C52185  -0.847   6.221  10.448  0.3107 -0.9169 -0.6889
  396MOL0     C52186  -0.733   6.313  10.454 -0.5569  0.4717 -0.5274
  396MOL0     O52187  -0.455   6.422  10.376  0.1903 -0.4006  0.1849
  396MOL0     C52188  -0.406   6.602  10.679 -0.3860 -0.4228 -0.3648
  396MOL0     C52189  -0.348   6.717  10.731  0.5290  0.5115  0.6732
  396MOL0     N52190   0.411   6.936  10.351  0.3809 -0.8401  0.3683
  396MOL0     N52191   0.523   7.000  10.334  1.4463  0.3658  0.1063
  396MOL0     C52192   1.658   6.544  10.724  0.7465  0.2404  0.2202
  396MOL0     C52193   1.731   6.443  10.791 -0.9344  0.0168 -0.6244
  396MOL0     C52194   2.076   6.297  11.050  0.8407  0.1231 -0.5917
  396MOL0     C52195   2.211   6.329  11.039 -0.9225 -0.7156  0.9298
  396MOL0     C52196   2.310   6.244  11.065 -0.1660  0.7969 -0.2617
  396MOL0     C52197   2.275   6.115  11.123 -0.7332  0.2673  0.0304
  396MOL0     O52198   2.370   6.033  11.173  0.0163  1.0793  0.3960
  396MOL0     C52199   2.515   6.051  11.160  0.2214 -0.1746 -0.3475
  396MOL0     C52200   2.571   6.134  11.277  0.3969 -0.6588 -0.5712
  396MOL0     C52201   2.721   6.176  11.239  0.6940  0.2704  1.0575
  396MOL0     C52202   2.771   6.240  11.359  0.1746 -0.0280 -0.1177
  396MOL0     C52203   2.841   6.151  11.454  1.3519 -0.1832 -0.0079
  396MOL0     C52204   2.889   6.075  11.537  0.9591 -0.6246  0.5486
  396MOL0     C52205   2.147   6.073  11.126 -0.6600 -0.0845 -0.3867
  396MOL0     C52206   2.046   6.167  11.094 -0.4805  0.3549 -0.0048
  396MOL0     H52207   1.685   6.551  11.116  0.3794  1.9652 -0.4844
  396MOL0     H52208   1.532   6.699  11.011  0.5764  3.4861 -2.1447
  396MOL0     H52209   1.586   6.899  10.768 -0.6713  1.8383  2.0000
  396MOL0     H52210   1.449   6.867  10.882 -0.4234  2.4936  0.2092
  396MOL0     H52211   1.445   6.933  10.579  0.2678 -0.3861  0.7157
  396MOL0     H52212   1.382   7.030  10.714  0.3624 -0.5530  1.8277
  396MOL0     H52213   1.239   6.822  10.757  0.7473 -2.8569 -0.4119
  396MOL0     H52214   1.287   6.752  10.608 -0.3655 -0.5596  1.2585
  396MOL0     H52215   1.160   7.029  10.675 -0.9028  0.9103 -0.9890
  396MOL0     H52216   1.193   6.988  10.509  1.2666 -2.1023 -1.3021
  396MOL0     H52217   0.983   6.822  10.643 -1.4152 -0.4858 -0.7336
  396MOL0     H52218   1.044   6.839  10.481  2.9474 -1.3614  1.8452
  396MOL0     H52219   0.976   7.090  10.494  0.1577 -1.0476 -0.3162
  396MOL0     H52220   0.916   7.041  10.652 -0.6690 -2.4979  1.3257
  396MOL0     H52221   0.804   6.918  10.409 -1.5075 -0.9091  0.7203
  396MOL0     H52222   0.748   6.897  10.581 -0.7399 -2.4585 -1.3530
  396MOL0     H52223   0.762   7.150  10.415 -0.1710 -1.4048 -1.4702
  396MOL0     H52224   0.688   7.141  10.581 -2.3462  3.4399 -1.5464
  396MOL0     H52225   0.522   6.981  10.654 -1.7437 -1.3638  0.5611
  396MOL0     H52226   0.320   6.837  10.673  2.4627  1.8678 -0.3775
  396MOL0     H52227   0.243   6.762  10.521 -1.7736  0.3497  1.0028
  396MOL0     H52228   0.124   6.943  10.468 -2.4634  1.5262  1.1975
  396MOL0     H52229   0.172   7.034  10.611 -0.5773 -1.6624  3.4659
  396MOL0     H52230   0.024   6.776  10.598 -0.4637  0.2338 -0.1045
  396MOL0     H52231   0.073   6.847  10.752  3.3775 -0.5712 -1.8264
  396MOL0     H52232  -0.096   6.992  10.542 -1.7696 -2.5643  0.0923
  396MOL0     H52233  -0.063   7.045  10.704 -4.8788  1.3351 -1.0139
  396MOL0     H52234  -0.202   6.830  10.448  2.1794 -1.8516  0.1648
  396MOL0     H52235  -0.327   6.631  10.350 -0.9732  1.2769  0.0216
  396MOL0     H52236  -0.593   6.196  10.745  2.8058  0.3650 -2.1776
  396MOL0     H52237  -0.790   6.057  10.737 -1.9872  0.9560 -0.6656
  396MOL0     H52238  -1.071   6.040  10.376 -2.9383 -1.9229  0.0671
  396MOL0     H52239  -1.130   6.177  10.473 -3.3261 -0.7114  1.0249
  396MOL0     H52240  -1.285   6.036  10.448 -1.4786  0.2066  0.1517
  396MOL0     H52241  -1.238   6.012  10.612 -2.6211  2.1795 -1.7950
  396MOL0     H52242  -1.115   5.793  10.504 -0.2232  0.1636  0.0008
  396MOL0     H52243  -1.198   5.835  10.350 -0.0957  2.3757 -1.6876
  396MOL0     H52244  -1.424   5.804  10.464  0.3399  1.8749  1.1810
  396MOL0     H52245  -1.317   5.657  10.457 -2.4284  0.7928 -2.0562
  396MOL0     H52246  -1.364   5.830  10.715  1.0649 -0.3846  0.6319
  396MOL0     H52247  -1.276   5.691  10.698 -0.2388 -0.9256 -0.1899
  396MOL0     H52248  -1.580   5.720  10.643 -1.2237 -2.2268  0.0665
  396MOL0     H52249  -1.489   5.648  10.787  0.4387  1.2911  0.3967
  396MOL0     H52250  -1.468   5.507  10.509  1.1132  2.0987  0.1922
  396MOL0     H52251  -1.405   5.462  10.650 -0.7896 -2.6644 -1.3375
  396MOL0     H52252  -1.611   5.335  10.597 -0.7295  0.5579 -1.2451
  396MOL0     H52253  -1.706   5.483  10.617 -0.4490  1.2387  0.9276
  396MOL0     H52254  -0.907   6.223  10.358 -0.2139  0.3030 -0.3281
  396MOL0     H52255  -0.712   6.374  10.367 -0.4055 -2.0047 -2.3579
  396MOL0     H52256  -0.461   6.538  10.748  0.4528 -2.7891 -1.7867
  396MOL0     H52257  -0.345   6.724  10.839 -0.6503 -1.2286  0.8471
  396MOL0     H52258   1.641   6.535  10.617 -2.1983 -0.9082  0.6901
  396MOL0     H52259   1.786   6.372  10.731  2.3961  2.3214 -0.5522
  396MOL0     H52260   2.255   6.426  11.019 -0.2694 -1.6774 -3.3886
  396MOL0     H52261   2.406   6.295  11.070  0.5736 -0.1991 -2.8585
  396MOL0     H52262   2.548   6.092  11.064 -1.4617  0.4982 -0.6671
  396MOL0     H52263   2.550   5.948  11.152  3.0683  0.5548  1.0917
  396MOL0     H52264   2.496   6.213  11.290 -0.9786 -1.6473 -2.0975
  396MOL0     H52265   2.576   6.078  11.371 -2.0260  0.6105  0.4056
  396MOL0     H52266   2.705   6.255  11.165 -4.5986 -1.2014  0.2057
  396MOL0     H52267   2.779   6.089  11.206 -2.1889 -0.6040 -2.3356
  396MOL0     H52268   2.834   6.317  11.315 -3.0245  2.2066 -1.1448
  396MOL0     H52269   2.699   6.300  11.416  0.1979  0.6311 -0.7615
  396MOL0     H52270   2.913   6.004  11.613 -2.2015 -2.5012 -0.0091
  396MOL0     H52271   2.109   5.979  11.164 -1.0040  0.0774 -0.3262
  396MOL0     H52272   1.942   6.133  11.096  0.0338 -1.5791 -1.7641
  397MOL0     O52273   9.320   7.064   2.257 -0.2640  0.3467 -0.2644
  397MOL0     C52274   9.389   7.094   2.164 -0.3888 -0.6474  1.2538
  397MOL0     O52275   9.381   7.034   2.036  0.0637  0.9246 -0.1672
  397MOL0     C52276   9.287   6.936   2.016 -0.2679  0.1310 -0.5395
  397MOL0     C52277   9.266   6.830   2.097  0.5109  0.4421  0.7464
  397MOL0     C52278   9.164   6.737   2.071  0.2754 -0.2278  0.0848
  397MOL0     C52279   9.094   6.752   1.947  0.1773  0.5939 -0.3379
  397MOL0     O52280   9.001   6.657   1.905  0.3727  0.0433 -0.1525
  397MOL0     C52281   9.045   6.515   1.905  0.5049 -0.5726 -0.1946
  397MOL0     C52282   8.943   6.429   1.987  0.4862 -0.1974 -0.1207
  397MOL0     C52283   8.812   6.424   1.908  1.3274 -0.6244  0.7401
  397MOL0     C52284   8.704   6.399   2.013  0.0860  0.0365 -0.5437
  397MOL0     C52285   8.553   6.412   1.978  0.6686 -0.5796  0.1911
  397MOL0     C52286   8.515   6.345   1.850 -0.7232  0.3300  0.1105
  397MOL0     C52287   8.383   6.393   1.785 -0.5605 -0.1287  0.1076
  397MOL0     C52288   8.264   6.371   1.874  0.4537 -0.1563  0.2156
  397MOL0     N52289   8.233   6.229   1.907 -0.1344 -0.7451 -0.0347
  397MOL0     C52290   8.293   6.164   2.006 -0.1368 -0.1025 -0.0922
  397MOL0     C52291   8.232   6.040   1.995  0.3487  0.2447 -0.2095
  397MOL0     C52292   8.232   5.930   2.092 -0.1670  0.2561 -0.2445
  397MOL0     C52293   8.109   5.951   2.187 -0.8491  0.7266  0.2191
  397MOL0     C52294   7.969   5.944   2.118 -0.7164  1.0814 -0.0164
  397MOL0     C52295   7.927   5.800   2.079 -0.8810 -0.0688  0.0104
  397MOL0     O52296   7.787   5.799   2.040 -0.2938  0.0045 -0.4499
  397MOL0     C52297   7.682   5.771   2.122 -1.3835 -0.5917 -0.3673
  397MOL0     C52298   7.696   5.771   2.258  0.7016  1.2550 -0.3201
  397MOL0     C52299   7.592   5.726   2.342  0.0459 -0.1549 -0.4179
  397MOL0     C52300   7.463   5.703   2.297 -0.1563  0.3266  1.0192
  397MOL0     C52301   7.355   5.663   2.384  0.1952  0.2244  0.2351
  397MOL0     O52302   7.232   5.666   2.323  0.6056 -0.0609 -0.6549
  397MOL0     C52303   7.117   5.634   2.390  0.1554 -0.1826  0.0806
  397MOL0     C52304   7.009   5.681   2.328 -0.7343  0.3541  0.9240
  397MOL0     C52305   6.884   5.655   2.371  1.1021  0.3694  0.4457
  397MOL0     C52306   6.869   5.566   2.479 -1.6760 -0.5618  0.6304
  397MOL0     O52307   6.753   5.544   2.538 -0.1295  0.3563 -0.1114
  397MOL0     C52308   6.639   5.546   2.449 -0.2884 -0.4400  0.3474
  397MOL0     C52309   6.531   5.515   2.538  0.2670 -0.7653 -0.3508
  397MOL0     C52310   6.420   5.445   2.463 -0.3381 -0.2962  0.2544
  397MOL0     C52311   6.447   5.307   2.401  0.4735  0.5719 -0.1484
  397MOL0     C52312   6.308   5.261   2.347 -0.2772 -0.1545 -0.3873
  397MOL0     C52313   6.257   5.140   2.423 -0.7613  0.0781 -0.0774
  397MOL0     C52314   6.107   5.145   2.432  0.2242 -0.2467  1.5394
  397MOL0     C52315   6.036   5.038   2.509 -0.2265 -0.4587  0.9917
  397MOL0    Cl52316   5.870   5.045   2.471 -0.0515 -0.1174  0.4398
  397MOL0     C52317   6.981   5.514   2.543  0.0806 -0.3729 -0.3467
  397MOL0     C52318   7.111   5.555   2.499  0.2778  0.0559  0.4264
  397MOL0     O52319   7.376   5.637   2.502 -0.7823 -0.2070  0.3595
  397MOL0     C52320   7.446   5.724   2.158 -0.1909  0.6608  0.2843
  397MOL0     C52321   7.557   5.738   2.074 -0.0243 -0.1376  0.6925
  397MOL0     N52322   8.157   6.035   1.879  0.5944 -0.3554 -0.7875
  397MOL0     N52323   8.149   6.157   1.836  0.1770  0.3737  0.5308
  397MOL0     C52324   9.099   6.871   1.874  1.1674  0.4103  0.6682
  397MOL0     C52325   9.201   6.961   1.902  0.8068  0.6615 -1.0536
  397MOL0     C52326   9.480   7.204   2.183 -0.6156 -0.5314 -0.2836
  397MOL0     C52327   9.500   7.289   2.073 -0.2819  0.2230 -0.9603
  397MOL0     C52328   9.580   7.395   2.088 -0.0186  0.1646 -0.3710
  397MOL0     C52329   9.643   7.435   2.211  0.3672  0.2775  0.0073
  397MOL0     O52330   9.720   7.543   2.240 -0.2877 -0.5165 -0.9593
  397MOL0     C52331   9.784   7.603   2.129 -0.9999 -0.0064 -0.2021
  397MOL0     C52332   9.836   7.741   2.167 -0.0137  0.1418 -0.2522
  397MOL0     C52333   9.976   7.725   2.236  0.3982  0.1990 -0.5085
  397MOL0     C52334  10.054   7.859   2.233 -0.7867 -0.2681  0.7589
  397MOL0     C52335  10.096   7.906   2.090 -0.2388  0.2965  0.4047
  397MOL0     C52336  10.144   7.946   1.987 -0.1130  0.5554  0.0383
  397MOL0     C52337   9.605   7.353   2.318  0.0265  0.2626  0.0562
  397MOL0     C52338   9.538   7.233   2.305 -0.3483 -0.2321  0.1239
  397MOL0     H52339   9.323   6.823   2.189 -0.2395 -0.5023  1.1669
  397MOL0     H52340   9.140   6.660   2.144 -3.2241  1.8237  1.3588
  397MOL0     H52341   9.141   6.504   1.955  0.5540 -0.6956 -0.3188
  397MOL0     H52342   9.045   6.466   1.807 -0.7752  0.3101 -0.6764
  397MOL0     H52343   8.929   6.467   2.088 -3.6317 -5.1680  1.5562
  397MOL0     H52344   8.989   6.331   2.003 -0.2687 -0.2696  1.8387
  397MOL0     H52345   8.799   6.349   1.829 -1.8501 -1.0798  1.5257
  397MOL0     H52346   8.794   6.519   1.857  2.3197 -1.0822 -0.4995
  397MOL0     H52347   8.726   6.295   2.042  1.6029  0.0509 -1.5635
  397MOL0     H52348   8.716   6.459   2.104  0.5764 -0.7755 -0.0575
  397MOL0     H52349   8.523   6.516   1.958 -1.4564 -1.3698 -1.0732
  397MOL0     H52350   8.493   6.374   2.061 -1.3483 -0.6242 -1.1980
  397MOL0     H52351   8.528   6.238   1.865  1.7018  0.3274 -1.4467
  397MOL0     H52352   8.590   6.374   1.775 -0.7986 -1.8998 -0.8993
  397MOL0     H52353   8.385   6.501   1.768 -1.8452  0.1781  1.5866
  397MOL0     H52354   8.367   6.341   1.690  2.8061  1.8807 -1.7423
  397MOL0     H52355   8.179   6.416   1.823  1.6359 -0.0209 -1.7398
  397MOL0     H52356   8.285   6.420   1.969  2.2798  2.8417 -1.5650
  397MOL0     H52357   8.354   6.197   2.089  1.7174 -2.0882 -0.5552
  397MOL0     H52358   8.324   5.930   2.152 -0.5077  1.0343  0.3066
  397MOL0     H52359   8.220   5.838   2.036 -1.0096 -0.2367  0.7144
  397MOL0     H52360   8.126   6.055   2.216 -0.6840  1.3058 -1.8044
  397MOL0     H52361   8.119   5.882   2.272 -1.8318 -1.4716 -1.3567
  397MOL0     H52362   7.895   5.977   2.192  0.1817  0.7064  1.0743
  397MOL0     H52363   7.966   6.005   2.028  2.4875  4.0694  1.6629
  397MOL0     H52364   7.947   5.745   2.172 -1.8124  1.7269  1.3598
  397MOL0     H52365   7.987   5.759   1.998 -0.3991 -0.9028  0.7630
  397MOL0     H52366   7.791   5.778   2.309 -0.2746 -1.4958  2.1530
  397MOL0     H52367   7.614   5.719   2.448 -4.3873  0.5177  0.7594
  397MOL0     H52368   7.015   5.747   2.242 -4.3362  0.0480  0.3055
  397MOL0     H52369   6.801   5.713   2.332  2.3436  0.5191 -2.2236
  397MOL0     H52370   6.665   5.479   2.366  1.2071  2.2440 -1.5542
  397MOL0     H52371   6.625   5.646   2.406 -1.1008 -0.4966  0.4689
  397MOL0     H52372   6.495   5.612   2.575 -1.0720  0.0310 -3.3994
  397MOL0     H52373   6.572   5.446   2.612  2.7417 -0.8606 -1.7030
  397MOL0     H52374   6.396   5.501   2.372 -0.9361 -0.9528 -0.0014
  397MOL0     H52375   6.332   5.446   2.529 -2.0423 -1.2747 -1.8803
  397MOL0     H52376   6.518   5.330   2.320  0.1105 -4.1792 -2.1284
  397MOL0     H52377   6.494   5.237   2.470 -1.4769  0.5429  1.1923
  397MOL0     H52378   6.319   5.225   2.245  0.0420  0.3581 -0.5359
  397MOL0     H52379   6.240   5.347   2.349 -0.0973 -0.0021 -0.8012
  397MOL0     H52380   6.295   5.123   2.525 -0.0685 -1.0666 -0.5064
  397MOL0     H52381   6.288   5.045   2.377  0.0767 -0.2192  1.0456
  397MOL0     H52382   6.082   5.238   2.482 -3.8128 -1.8297  2.8938
  397MOL0     H52383   6.061   5.148   2.332 -1.0108  2.0596  2.1208
  397MOL0     H52384   6.047   5.045   2.618 -0.4432 -0.1857  0.9953
  397MOL0     H52385   6.073   4.943   2.470  2.4362  1.1656 -0.8339
  397MOL0     H52386   6.966   5.432   2.612 -0.8664 -0.5376 -0.7400
  397MOL0     H52387   7.204   5.514   2.537  1.6537  2.0981 -0.5466
  397MOL0     H52388   7.345   5.710   2.121  0.2783  0.7908 -1.1103
  397MOL0     H52389   7.546   5.742   1.966  0.2697 -2.7187  0.5021
  397MOL0     H52390   9.041   6.888   1.784  0.7366  0.3894  0.9384
  397MOL0     H52391   9.208   7.052   1.844 -7.6753  1.9242 -1.3055
  397MOL0     H52392   9.436   7.269   1.987 -3.4840  1.4225  0.9966
  397MOL0     H52393   9.605   7.449   1.997  0.9074 -0.6594 -0.6282
  397MOL0     H52394   9.724   7.605   2.037 -3.4401  1.8916  1.3050
  397MOL0     H52395   9.873   7.548   2.098 -1.3302 -0.8842  0.3815
  397MOL0     H52396   9.852   7.810   2.083  0.9392  0.6825  0.3533
  397MOL0     H52397   9.771   7.796   2.236  0.1442 -0.5264  0.4438
  397MOL0     H52398  10.035   7.645   2.190 -1.2696 -0.8068 -0.9796
  397MOL0     H52399   9.954   7.711   2.342 -0.9693  1.3983 -0.6034
  397MOL0     H52400  10.014   7.940   2.295  0.9792  0.7746  0.6102
  397MOL0     H52401  10.147   7.842   2.288 -1.2528 -0.2135  1.5681
  397MOL0     H52402  10.163   7.990   1.891 -3.9779 -0.9005 -1.5979
  397MOL0     H52403   9.630   7.382   2.420  1.7796 -1.6727  0.2546
  397MOL0     H52404   9.548   7.168   2.392  5.6331 -0.5566 -0.4080
  398MOL0     O52405   9.119   4.605   4.769  0.1596 -0.1362 -0.3765
  398MOL0     C52406   9.149   4.588   4.892  0.0792  0.1352  0.8391
  398MOL0     O52407   9.082   4.512   4.974  0.9014 -0.3947  0.4059
  398MOL0     C52408   8.949   4.490   4.945 -0.3602  0.0611 -0.3216
  398MOL0     C52409   8.853   4.572   4.998 -0.3982  0.1684  0.3588
  398MOL0     C52410   8.714   4.560   4.963 -0.0951  0.2211  0.3280
  398MOL0     C52411   8.669   4.452   4.882 -0.6950  0.5100 -0.1083
  398MOL0     O52412   8.539   4.441   4.838 -0.3382 -1.0035 -0.0159
  398MOL0     C52413   8.432   4.478   4.916 -0.4494  0.1861  0.4560
  398MOL0     C52414   8.311   4.375   4.926 -1.1677  0.1750 -0.2584
  398MOL0     C52415   8.216   4.391   4.807 -0.3057  0.0585  0.4019
  398MOL0     C52416   8.070   4.369   4.837  0.0360 -0.3452  0.2289
  398MOL0     C52417   8.003   4.275   4.734  0.7512 -0.2794 -0.1206
  398MOL0     C52418   7.850   4.294   4.755 -0.5137  0.1485 -0.5339
  398MOL0     C52419   7.776   4.192   4.673 -0.0811  0.5487  0.0791
  398MOL0     C52420   7.629   4.219   4.707 -0.7016  0.9283  0.4813
  398MOL0     N52421   7.544   4.131   4.631 -0.3503 -0.3566 -0.8769
  398MOL0     C52422   7.553   3.996   4.623  1.0176 -0.0925 -0.7226
  398MOL0     C52423   7.462   3.952   4.535 -0.0057 -0.5403 -0.7390
  398MOL0     C52424   7.443   3.806   4.503 -0.0849 -0.3006 -0.2938
  398MOL0     C52425   7.320   3.751   4.567  0.1136  0.0412  0.5209
  398MOL0     C52426   7.194   3.792   4.488 -0.3606  0.4371 -0.9034
  398MOL0     C52427   7.180   3.695   4.367 -0.0574 -0.4466 -0.1696
  398MOL0     O52428   7.055   3.714   4.302  0.2033  0.0680  1.3207
  398MOL0     C52429   6.941   3.671   4.363  0.1374 -0.7187  0.6767
  398MOL0     C52430   6.924   3.563   4.439 -0.4063  0.2174  0.0900
  398MOL0     C52431   6.804   3.530   4.488 -0.3504 -0.5304  0.8419
  398MOL0     C52432   6.689   3.610   4.459 -0.7302 -0.5815  0.2277
  398MOL0     C52433   6.560   3.571   4.527  0.2507  0.1198 -0.1032
  398MOL0     O52434   6.560   3.453   4.592  0.3450 -0.2106 -0.8822
  398MOL0     C52435   6.447   3.410   4.655 -0.1861 -0.3327 -0.1230
  398MOL0     C52436   6.399   3.449   4.777  0.0115  0.1370 -0.0882
  398MOL0     C52437   6.302   3.379   4.850 -0.7222 -0.0306 -0.4687
  398MOL0     C52438   6.258   3.252   4.799  0.2169 -0.5805  0.8526
  398MOL0     O52439   6.173   3.194   4.895 -0.5641  0.4550 -0.1664
  398MOL0     C52440   6.089   3.087   4.831  0.5301 -0.2249  0.5040
  398MOL0     C52441   6.163   2.951   4.813  0.2978 -1.0232 -0.2001
  398MOL0     C52442   6.055   2.853   4.763 -0.6330  1.3361 -0.0753
  398MOL0     C52443   6.112   2.714   4.744 -0.4746  0.3835  0.0454
  398MOL0     C52444   6.020   2.600   4.685  0.4009 -0.3506  0.9639
  398MOL0     C52445   6.099   2.490   4.613  0.3074 -0.3132  0.3366
  398MOL0     C52446   6.003   2.404   4.535  0.3922 -0.1884 -0.8561
  398MOL0     C52447   6.074   2.280   4.484 -0.6781  0.9012  0.0837
  398MOL0    Cl52448   6.209   2.338   4.382 -0.1562  0.5754  0.0865
  398MOL0     C52449   6.303   3.210   4.673  0.0706 -0.2194 -0.5105
  398MOL0     C52450   6.394   3.293   4.607 -0.3924 -0.8013 -0.6819
  398MOL0     O52451   6.467   3.651   4.524 -0.0819 -0.1409  0.8086
  398MOL0     C52452   6.703   3.720   4.376 -0.5332  0.6436  0.5294
  398MOL0     C52453   6.830   3.743   4.327  0.4211  0.3945 -0.0690
  398MOL0     N52454   7.394   4.068   4.498 -0.8222  0.2857  0.4147
  398MOL0     N52455   7.443   4.171   4.557 -0.1928  0.4384  0.4508
  398MOL0     C52456   8.774   4.364   4.839 -0.5931  0.0832 -0.2695
  398MOL0     C52457   8.910   4.382   4.864 -0.4374 -0.5561  0.2888
  398MOL0     C52458   9.276   4.640   4.941  0.3743  0.2287  1.0448
  398MOL0     C52459   9.375   4.691   4.853 -0.5611  0.2136  0.0047
  398MOL0     C52460   9.485   4.758   4.897  0.0604 -0.2430  0.1008
  398MOL0     C52461   9.504   4.780   5.037  0.1164 -0.1590 -1.0234
  398MOL0     O52462   9.604   4.843   5.111 -0.8122  0.2885  0.9233
  398MOL0     C52463   9.697   4.922   5.035  0.1610 -0.0075 -0.4344
  398MOL0     C52464   9.805   4.852   4.951  0.6937 -0.2081  0.4915
  398MOL0     C52465   9.919   4.783   5.018 -0.3929  0.0428 -0.6053
  398MOL0     C52466  10.045   4.871   5.023  0.0566  1.2499 -0.2325
  398MOL0     C52467  10.158   4.770   5.020  0.7101  0.0985 -0.0760
  398MOL0     C52468  10.245   4.688   5.024 -0.0363 -0.1550  0.3711
  398MOL0     C52469   9.420   4.715   5.129 -0.7672 -1.2586  0.0418
  398MOL0     C52470   9.306   4.648   5.076  0.1146 -0.5642  1.0828
  398MOL0     H52471   8.887   4.658   5.056 -1.7831  0.8067  0.2790
  398MOL0     H52472   8.654   4.635   5.012  1.0806  1.1917  0.3262
  398MOL0     H52473   8.403   4.579   4.885 -2.2868 -1.0350 -2.1641
  398MOL0     H52474   8.475   4.488   5.016  1.9706  1.2861 -0.5899
  398MOL0     H52475   8.251   4.383   5.018 -0.3106  0.1288  0.3139
  398MOL0     H52476   8.349   4.273   4.925 -3.6908 -0.8930  1.0864
  398MOL0     H52477   8.257   4.317   4.738  2.8830  1.8130  0.2354
  398MOL0     H52478   8.215   4.487   4.756 -3.3198 -0.7288 -1.3096
  398MOL0     H52479   8.050   4.327   4.935 -0.7066 -0.4689  0.0289
  398MOL0     H52480   8.030   4.469   4.818  1.8224  0.0591 -1.8393
  398MOL0     H52481   8.028   4.170   4.753 -0.1248 -0.1110  2.3561
  398MOL0     H52482   8.033   4.311   4.636 -0.7258  0.9582 -0.1531
  398MOL0     H52483   7.812   4.395   4.741 -2.6189 -0.1471  2.1334
  398MOL0     H52484   7.830   4.271   4.860  0.9057 -0.1524 -0.3176
  398MOL0     H52485   7.806   4.188   4.568  0.3595  2.0002  0.1335
  398MOL0     H52486   7.806   4.093   4.711  0.6366  1.3210  1.6292
  398MOL0     H52487   7.609   4.320   4.669  2.6127  0.8773 -1.8215
  398MOL0     H52488   7.604   4.215   4.813 -2.1292 -0.1313  0.1342
  398MOL0     H52489   7.631   3.944   4.679  1.5422  0.5166 -0.8722
  398MOL0     H52490   7.533   3.755   4.540  1.0153 -0.1566 -2.6171
  398MOL0     H52491   7.439   3.799   4.394 -2.5315 -0.0971 -0.2612
  398MOL0     H52492   7.314   3.773   4.674  1.4209  0.3736  0.5427
  398MOL0     H52493   7.315   3.641   4.565 -1.5447  0.0186  2.6391
  398MOL0     H52494   7.113   3.758   4.552  3.4894 -2.9458  2.7726
  398MOL0     H52495   7.199   3.898   4.458 -0.4656  0.3280 -1.3185
  398MOL0     H52496   7.185   3.592   4.401  0.2962  0.1451  1.6705
  398MOL0     H52497   7.253   3.715   4.288  0.7155  1.4286  0.9375
  398MOL0     H52498   7.013   3.501   4.448 -0.8837 -0.7545 -1.4978
  398MOL0     H52499   6.795   3.447   4.557 -2.7298 -0.3377  0.8591
  398MOL0     H52500   6.447   3.535   4.820  2.4794 -1.9613  1.6411
  398MOL0     H52501   6.267   3.402   4.950  2.2152 -0.6072  0.7911
  398MOL0     H52502   6.053   3.118   4.733 -0.4739 -1.0545  0.5936
  398MOL0     H52503   5.999   3.067   4.890  3.7995 -0.9342  5.9456
  398MOL0     H52504   6.194   2.907   4.908 -1.6588 -3.4952 -0.5837
  398MOL0     H52505   6.252   2.962   4.751 -1.7796  0.1698 -3.1699
  398MOL0     H52506   6.024   2.888   4.664 -1.9853 -3.5704 -1.6814
  398MOL0     H52507   5.966   2.854   4.827 -0.6812  0.1909 -0.1022
  398MOL0     H52508   6.202   2.718   4.681 -1.3624 -1.4729 -1.4532
  398MOL0     H52509   6.149   2.679   4.841 -1.6322  0.9780  0.7160
  398MOL0     H52510   5.946   2.641   4.616  0.9109 -1.5638 -0.3702
  398MOL0     H52511   5.975   2.541   4.765  0.2468 -1.9371 -0.2172
  398MOL0     H52512   6.152   2.421   4.679  0.5058 -0.4761  0.0107
  398MOL0     H52513   6.176   2.535   4.549  2.2445 -0.9445  2.1243
  398MOL0     H52514   5.923   2.364   4.598 -0.3077 -1.1188 -2.2830
  398MOL0     H52515   5.969   2.464   4.451  1.7602  2.4028  0.3348
  398MOL0     H52516   6.012   2.221   4.416  2.1450 -1.4746 -0.6220
  398MOL0     H52517   6.104   2.216   4.567 -0.0010 -0.3127 -1.0644
  398MOL0     H52518   6.265   3.123   4.621 -2.1458  0.3539  0.0647
  398MOL0     H52519   6.438   3.259   4.514 -1.3862 -0.8122 -1.1579
  398MOL0     H52520   6.617   3.778   4.346  0.7052  2.7286  0.8399
  398MOL0     H52521   6.842   3.832   4.267 -1.3712  1.6631  1.3557
  398MOL0     H52522   8.749   4.282   4.772 -0.1902  0.7256 -1.2208
  398MOL0     H52523   8.982   4.311   4.826  1.1833  1.5069 -0.7192
  398MOL0     H52524   9.355   4.711   4.748 -1.0601 -1.8075 -0.3268
  398MOL0     H52525   9.543   4.811   4.822 -0.2867  0.3719  0.2601
  398MOL0     H52526   9.754   4.986   5.104  0.7557 -0.0523 -0.8761
  398MOL0     H52527   9.641   4.997   4.979 -0.1043  0.5627  0.5632
  398MOL0     H52528   9.753   4.775   4.894  2.2605  0.3220 -1.8130
  398MOL0     H52529   9.844   4.917   4.872 -0.3110  0.5606  0.6117
  398MOL0     H52530   9.928   4.692   4.959 -4.0552 -0.0995 -1.1776
  398MOL0     H52531   9.893   4.740   5.115 -0.1286 -1.3979 -1.1483
  398MOL0     H52532  10.067   4.929   4.934 -0.3424  0.7695 -0.6479
  398MOL0     H52533  10.038   4.923   5.119 -3.8509  2.3889 -0.9558
  398MOL0     H52534  10.320   4.611   5.035  0.4269  0.3478  0.7937
  398MOL0     H52535   9.426   4.734   5.236  1.4756  1.4220 -0.4565
  398MOL0     H52536   9.223   4.613   5.136 -1.5908  0.2898 -0.6710
  399MOL0     O52537   6.199   7.404   8.513 -0.3840  0.5117  0.1027
  399MOL0     C52538   6.104   7.439   8.452 -0.1715  0.8198 -0.5512
  399MOL0     O52539   6.059   7.395   8.334 -0.6562 -0.4643  0.6379
  399MOL0     C52540   6.141   7.316   8.246  0.2247 -0.4590 -0.0651
  399MOL0     C52541   6.280   7.326   8.235 -0.2779 -1.3098 -0.2369
  399MOL0     C52542   6.343   7.242   8.144  0.1474  0.5321 -0.6491
  399MOL0     C52543   6.274   7.162   8.056 -0.2168  0.5428  0.4347
  399MOL0     O52544   6.328   7.067   7.970  0.3592 -0.1003 -0.3184
  399MOL0     C52545   6.460   7.092   7.928 -0.4763  0.1075  0.3780
  399MOL0     C52546   6.494   6.999   7.806 -0.0751 -0.2517  0.1383
  399MOL0     C52547   6.646   6.996   7.776 -1.1024  0.3412  1.2125
  399MOL0     C52548   6.663   6.980   7.625  0.0415  0.7298  0.7341
  399MOL0     C52549   6.808   6.951   7.580 -0.1373 -0.0853  0.1300
  399MOL0     C52550   6.811   6.906   7.433  0.4551  1.0019 -0.5289
  399MOL0     C52551   6.950   6.920   7.364 -0.2208 -0.5020  0.0544
  399MOL0     C52552   6.919   6.913   7.209 -0.4809  0.3745  0.3590
  399MOL0     N52553   6.877   6.778   7.170 -0.3725  0.6088  0.0961
  399MOL0     C52554   6.863   6.658   7.250  0.9676 -0.6250  0.3413
  399MOL0     C52555   6.849   6.551   7.165  0.0207 -1.1618  0.2725
  399MOL0     C52556   6.828   6.408   7.200  0.2829 -0.8948  0.3878
  399MOL0     C52557   6.681   6.375   7.208 -0.7827  0.2648  0.6293
  399MOL0     C52558   6.632   6.248   7.279 -0.2105  0.4163 -0.3053
  399MOL0     C52559   6.478   6.232   7.265 -0.6754  0.3254 -0.2568
  399MOL0     O52560   6.433   6.118   7.349  0.1104  0.2956  0.5518
  399MOL0     C52561   6.316   6.055   7.312  1.0426 -0.7224  0.1516
  399MOL0     C52562   6.230   6.089   7.208 -0.1693 -0.0269 -0.3840
  399MOL0     C52563   6.115   6.011   7.182 -0.4068 -0.1424  0.5466
  399MOL0     C52564   6.084   5.905   7.269  0.1198  1.3390  0.5724
  399MOL0     C52565   5.965   5.818   7.242 -0.5827 -1.1706  0.2108
  399MOL0     O52566   5.875   5.864   7.147  0.1206 -0.5056 -0.1395
  399MOL0     C52567   5.744   5.814   7.147  0.2657  0.4963  0.0278
  399MOL0     C52568   5.731   5.699   7.084  0.4602 -1.3266 -0.0791
  399MOL0     C52569   5.618   5.629   7.093 -0.5235 -0.0588  0.9356
  399MOL0     C52570   5.514   5.673   7.183  0.2599  0.4053  0.0487
  399MOL0     O52571   5.387   5.618   7.181 -0.5607  0.5485 -0.2249
  399MOL0     C52572   5.379   5.487   7.209  0.1106  1.1990  0.2897
  399MOL0     C52573   5.222   5.471   7.230 -0.3330 -0.2023 -0.0016
  399MOL0     C52574   5.174   5.323   7.227  0.4437  0.2554 -0.4597
  399MOL0     C52575   5.025   5.315   7.254  0.3128 -0.6543  0.0447
  399MOL0     C52576   4.963   5.177   7.252  0.3368 -0.6027 -0.0060
  399MOL0     C52577   4.817   5.193   7.315  0.6618  0.2880  0.3535
  399MOL0     C52578   4.747   5.059   7.309 -0.2288 -0.6738 -0.8265
  399MOL0     C52579   4.802   4.951   7.400 -1.3781 -0.3155 -0.6221
  399MOL0    Cl52580   4.821   5.016   7.565 -0.0304 -0.1928  0.1289
  399MOL0     C52581   5.522   5.793   7.258 -0.1688  0.1507  0.2047
  399MOL0     C52582   5.644   5.870   7.238 -0.5310 -0.0956  0.8080
  399MOL0     O52583   5.941   5.718   7.312 -0.0204  0.3249  0.8899
  399MOL0     C52584   6.168   5.883   7.388  0.0545  1.2601  0.8926
  399MOL0     C52585   6.282   5.955   7.404  0.7509  0.1741  0.7976
  399MOL0     N52586   6.853   6.608   7.039 -0.2072 -0.4707 -0.0807
  399MOL0     N52587   6.855   6.741   7.043  0.2341  0.5136 -0.7449
  399MOL0     C52588   6.133   7.155   8.065 -0.2297  0.1214  0.9336
  399MOL0     C52589   6.072   7.228   8.164  0.1240 -0.0166  1.4350
  399MOL0     C52590   6.011   7.539   8.511 -0.0185 -0.2669 -0.4552
  399MOL0     C52591   5.927   7.616   8.425 -0.0402 -0.6029 -0.0784
  399MOL0     C52592   5.861   7.730   8.475  0.0760 -0.0639 -0.0304
  399MOL0     C52593   5.888   7.778   8.601 -0.1064 -0.1572 -0.8485
  399MOL0     O52594   5.816   7.889   8.640  0.4332  0.0381 -0.0762
  399MOL0     C52595   5.822   7.939   8.779 -0.1504  0.0344 -0.7673
  399MOL0     C52596   5.707   7.862   8.858 -0.0133 -0.1958  0.8026
  399MOL0     C52597   5.675   7.937   8.988 -0.4574 -0.4520 -0.5167
  399MOL0     C52598   5.766   7.882   9.105  0.7842 -0.6726  0.0979
  399MOL0     C52599   5.905   7.934   9.108 -0.1191 -0.0219 -0.6848
  399MOL0     C52600   6.023   7.945   9.114  0.6735 -0.2536  0.6119
  399MOL0     C52601   5.968   7.693   8.690  1.5348  0.4628 -0.1805
  399MOL0     C52602   6.026   7.568   8.649  0.9325 -0.9132  0.0949
  399MOL0     H52603   6.333   7.396   8.299 -2.5006 -1.2775  1.7009
  399MOL0     H52604   6.449   7.262   8.136 -0.2078  2.3487 -1.2069
  399MOL0     H52605   6.517   7.070   8.018 -2.2865  0.4186  1.6540
  399MOL0     H52606   6.463   7.197   7.898  2.6582  0.4724  1.5872
  399MOL0     H52607   6.436   7.030   7.719 -0.9859 -2.7753 -0.2203
  399MOL0     H52608   6.468   6.894   7.823  1.3108 -0.4514  1.2190
  399MOL0     H52609   6.692   6.913   7.830 -2.0393 -0.0893  1.3705
  399MOL0     H52610   6.687   7.092   7.808 -2.3297  1.3217 -0.0499
  399MOL0     H52611   6.603   6.891   7.605 -0.6013  0.6785  2.6617
  399MOL0     H52612   6.616   7.054   7.559  0.0371  1.4065  1.4715
  399MOL0     H52613   6.849   6.872   7.643  0.5436 -1.9719 -2.5060
  399MOL0     H52614   6.871   7.041   7.583  0.1808 -0.0639 -3.1145
  399MOL0     H52615   6.738   6.957   7.370 -0.6419 -1.7214 -1.6142
  399MOL0     H52616   6.765   6.806   7.434 -0.3696  1.3387  1.8873
  399MOL0     H52617   6.999   7.014   7.392 -3.5121  1.1139  0.8804
  399MOL0     H52618   7.013   6.838   7.400  1.2376  0.1546 -0.9149
  399MOL0     H52619   7.017   6.931   7.162 -0.9148  1.2661 -0.2358
  399MOL0     H52620   6.858   6.995   7.170  0.8056  0.5710 -1.3496
  399MOL0     H52621   6.874   6.648   7.358 -1.2163 -2.7215  0.4500
  399MOL0     H52622   6.876   6.392   7.297  0.8110  1.6860  0.6193
  399MOL0     H52623   6.873   6.347   7.121 -1.8345  0.5421 -2.1158
  399MOL0     H52624   6.646   6.371   7.105  0.9048  2.0447 -0.0686
  399MOL0     H52625   6.642   6.466   7.253 -0.0120  0.7720  0.2877
  399MOL0     H52626   6.674   6.157   7.234 -1.0013 -0.7582  1.2202
  399MOL0     H52627   6.660   6.246   7.385 -0.2031  0.0877 -0.3111
  399MOL0     H52628   6.455   6.224   7.159  0.2090 -0.7947 -0.3825
  399MOL0     H52629   6.432   6.318   7.314 -1.7191 -0.1840 -0.3046
  399MOL0     H52630   6.249   6.173   7.142  3.3445  1.1475  1.8365
  399MOL0     H52631   6.052   6.046   7.101  2.0639  3.4545 -0.0540
  399MOL0     H52632   5.821   5.661   7.039  0.6606  0.0280 -0.8947
  399MOL0     H52633   5.612   5.542   7.028  0.1697  0.8500 -0.3894
  399MOL0     H52634   5.429   5.458   7.301  1.0765  2.9654  0.3534
  399MOL0     H52635   5.411   5.425   7.125  0.8743 -0.1591  1.5419
  399MOL0     H52636   5.168   5.525   7.152 -0.5604 -0.6202 -0.1322
  399MOL0     H52637   5.201   5.516   7.328 -0.0471 -0.4157  0.1619
  399MOL0     H52638   5.215   5.277   7.317 -0.5222 -2.7124 -1.4062
  399MOL0     H52639   5.211   5.271   7.138 -1.3104 -1.3361 -0.3301
  399MOL0     H52640   5.011   5.358   7.354 -0.3316  1.4092 -0.8773
  399MOL0     H52641   4.973   5.378   7.181 -0.3843 -1.9224 -0.5896
  399MOL0     H52642   5.029   5.105   7.301 -1.1263 -3.5305 -2.1109
  399MOL0     H52643   4.955   5.151   7.147 -1.5117  2.4532 -0.7593
  399MOL0     H52644   4.770   5.273   7.258 -1.3070  0.7247  2.4390
  399MOL0     H52645   4.815   5.236   7.416  0.2535 -2.8439  1.7864
  399MOL0     H52646   4.642   5.069   7.335  0.4251 -2.2246  3.1109
  399MOL0     H52647   4.748   5.023   7.205 -0.3043 -1.8509 -0.4314
  399MOL0     H52648   4.901   4.920   7.366 -0.7561  0.2655  0.5969
  399MOL0     H52649   4.731   4.868   7.396 -1.2492 -0.3970 -1.3012
  399MOL0     H52650   5.445   5.838   7.319 -0.8514 -0.7909  0.0499
  399MOL0     H52651   5.660   5.971   7.275 -1.4490  1.1875 -2.0728
  399MOL0     H52652   6.179   5.793   7.448  1.2010  0.4711 -0.4281
  399MOL0     H52653   6.335   5.925   7.494  1.6854  0.4272  0.3474
  399MOL0     H52654   6.085   7.081   8.001  0.7389 -0.8902  1.3423
  399MOL0     H52655   5.967   7.206   8.179 -0.3741  0.6705 -0.6283
  399MOL0     H52656   5.918   7.588   8.321  0.1131  0.4738 -0.3946
  399MOL0     H52657   5.804   7.792   8.407  2.3013 -0.8853 -2.8550
  399MOL0     H52658   5.785   8.040   8.760 -1.5921 -0.4597 -0.7520
  399MOL0     H52659   5.923   7.946   8.820 -0.4221  0.5407 -0.1697
  399MOL0     H52660   5.613   7.883   8.805 -0.3657 -1.0289  1.0857
  399MOL0     H52661   5.736   7.758   8.872 -0.2526 -0.5780 -1.2224
  399MOL0     H52662   5.572   7.915   9.019 -0.2473  2.2646  2.5910
  399MOL0     H52663   5.691   8.044   8.976  0.6577 -0.6459 -0.9056
  399MOL0     H52664   5.717   7.901   9.201 -0.4286  0.9186 -0.7739
  399MOL0     H52665   5.763   7.773   9.094 -0.7146 -0.5018 -1.8064
  399MOL0     H52666   6.129   7.947   9.130  1.2205  1.0612 -2.5627
  399MOL0     H52667   5.986   7.718   8.795  2.4747  0.4500 -0.3291
  399MOL0     H52668   6.072   7.503   8.723 -0.2795 -1.0167  0.7844
  400MOL0     O52669   1.954   4.736   1.254  0.3626 -0.1288 -0.2422
  400MOL0     C52670   1.929   4.626   1.205 -0.4302 -1.0411 -0.2784
  400MOL0     O52671   1.810   4.597   1.154  0.2392 -0.1685  0.6408
  400MOL0     C52672   1.721   4.703   1.148  0.7117  0.5983  0.3315
  400MOL0     C52673   1.708   4.769   1.030 -1.2414  0.0135  0.2808
  400MOL0     C52674   1.608   4.864   1.013 -0.2387  0.9559  0.1776
  400MOL0     C52675   1.509   4.879   1.115  0.4780  0.1352 -1.7125
  400MOL0     O52676   1.403   4.962   1.113  0.2018 -0.9133 -0.2186
  400MOL0     C52677   1.320   4.941   0.997  0.4551 -0.6031  0.8139
  400MOL0     C52678   1.313   5.077   0.916  0.6457 -0.0440  0.4281
  400MOL0     C52679   1.191   5.071   0.822  0.3800 -0.7399  0.2029
  400MOL0     C52680   1.180   5.207   0.746 -0.0190  0.5219  0.4483
  400MOL0     C52681   1.047   5.224   0.674  0.9285  0.4958 -0.0255
  400MOL0     C52682   1.035   5.359   0.605  0.2821  0.0871  0.2507
  400MOL0     C52683   1.018   5.478   0.710 -0.2369  0.1770 -0.2872
  400MOL0     C52684   0.948   5.602   0.647 -0.2166  0.3515  0.5921
  400MOL0     N52685   0.956   5.727   0.725 -0.3383  0.2062  0.2435
  400MOL0     C52686   0.939   5.738   0.868  0.4985  0.8926  0.9119
  400MOL0     C52687   0.988   5.859   0.894 -1.1724 -0.3988  0.4581
  400MOL0     C52688   0.997   5.925   1.031  0.0106 -0.5945 -0.6331
  400MOL0     C52689   0.863   5.980   1.090  1.1062 -0.5521 -0.4997
  400MOL0     C52690   0.872   6.062   1.220  0.5760  0.2153 -0.0897
  400MOL0     C52691   0.928   6.201   1.184  1.1685 -0.3151 -0.3919
  400MOL0     O52692   0.907   6.304   1.285 -0.1036 -0.2740 -0.2507
  400MOL0     C52693   0.785   6.375   1.286 -0.7619  0.2291  0.6999
  400MOL0     C52694   0.774   6.485   1.362  0.2609 -0.5054  0.5449
  400MOL0     C52695   0.657   6.551   1.390 -0.0813 -0.8216 -0.4168
  400MOL0     C52696   0.536   6.505   1.330 -0.3423 -0.0092 -0.5908
  400MOL0     C52697   0.408   6.580   1.338 -0.7097  0.1599 -0.0326
  400MOL0     O52698   0.297   6.514   1.319  0.9549 -0.7614 -0.0181
  400MOL0     C52699   0.178   6.578   1.316 -0.1448 -0.4892  0.0619
  400MOL0     C52700   0.088   6.558   1.421  0.2087 -0.8282  0.1047
  400MOL0     C52701  -0.039   6.622   1.409 -0.0805  0.8646  0.0069
  400MOL0     C52702  -0.079   6.678   1.296 -0.9476  0.6730  1.2647
  400MOL0     O52703  -0.205   6.728   1.269  1.6990  0.1343  0.0413
  400MOL0     C52704  -0.258   6.801   1.380  0.3788 -0.1047 -0.8298
  400MOL0     C52705  -0.381   6.708   1.411  0.5040  0.2099 -0.1587
  400MOL0     C52706  -0.473   6.735   1.531 -0.3299 -0.1661 -0.1035
  400MOL0     C52707  -0.407   6.746   1.665  0.6562  0.8829 -0.0509
  400MOL0     C52708  -0.511   6.728   1.787 -0.1228  0.3569 -0.6708
  400MOL0     C52709  -0.447   6.785   1.909 -1.0064  0.5092 -0.6155
  400MOL0     C52710  -0.519   6.757   2.035  1.5005  0.8633  0.2238
  400MOL0     C52711  -0.459   6.814   2.162  0.4820 -0.0498 -0.5142
  400MOL0    Cl52712  -0.537   6.959   2.208 -0.2902 -0.1650 -0.4304
  400MOL0     C52713   0.020   6.702   1.198 -0.9669  1.3063 -0.0371
  400MOL0     C52714   0.147   6.653   1.200 -1.0189  0.5139 -0.4654
  400MOL0     O52715   0.413   6.695   1.385 -0.1323 -0.1748  0.5233
  400MOL0     C52716   0.548   6.389   1.242  0.9268 -0.8729  0.1300
  400MOL0     C52717   0.670   6.329   1.215  0.5733 -0.0732  0.4026
  400MOL0     N52718   1.029   5.912   0.774  0.0194  0.3229 -0.0079
  400MOL0     N52719   1.000   5.840   0.671 -0.7623 -0.3086 -0.9213
  400MOL0     C52720   1.524   4.812   1.239  0.8407 -0.0814 -0.2034
  400MOL0     C52721   1.631   4.728   1.256  0.0417  0.0919 -0.6589
  400MOL0     C52722   2.028   4.517   1.223 -0.3123  0.4223  0.7035
  400MOL0     C52723   2.158   4.550   1.270  0.7907  0.6861 -0.2999
  400MOL0     C52724   2.265   4.454   1.273 -0.2271 -0.3322 -0.2340
  400MOL0     C52725   2.247   4.324   1.222  0.7787 -0.1001  0.0423
  400MOL0     O52726   2.335   4.223   1.212 -0.1667  0.2508  0.3983
  400MOL0     C52727   2.469   4.272   1.183  0.5213  0.5912 -0.2227
  400MOL0     C52728   2.527   4.198   1.066 -0.0983 -0.9166  1.3736
  400MOL0     C52729   2.664   4.275   1.030 -0.0682 -0.5704 -0.0697
  400MOL0     C52730   2.719   4.213   0.907 -0.0198 -0.4601  0.5819
  400MOL0     C52731   2.834   4.298   0.859  0.6256 -0.0117 -0.1955
  400MOL0     C52732   2.929   4.365   0.802  0.2839  0.3080  0.4920
  400MOL0     C52733   2.111   4.290   1.180  0.0974 -0.5384  0.4452
  400MOL0     C52734   2.007   4.382   1.186 -0.0335 -0.5691  1.6097
  400MOL0     H52735   1.766   4.734   0.946 -0.3133 -1.7525  1.6093
  400MOL0     H52736   1.616   4.909   0.914  0.9246 -1.7404 -1.0672
  400MOL0     H52737   1.223   4.902   1.029 -0.5312 -1.4890 -2.8496
  400MOL0     H52738   1.351   4.868   0.922 -1.6492 -0.4110 -0.3107
  400MOL0     H52739   1.405   5.090   0.860  1.9549 -1.3353  2.1564
  400MOL0     H52740   1.298   5.157   0.990 -0.0847 -0.7784  1.1016
  400MOL0     H52741   1.099   5.048   0.876 -1.2084  2.3569 -0.9331
  400MOL0     H52742   1.207   4.988   0.754 -1.6824 -0.7183 -0.3817
  400MOL0     H52743   1.190   5.285   0.822  0.2083  2.1201 -1.1653
  400MOL0     H52744   1.262   5.221   0.675 -0.1954  4.9856  0.8475
  400MOL0     H52745   0.967   5.214   0.749  2.2613  2.1190  1.7282
  400MOL0     H52746   1.040   5.153   0.592 -0.8804  1.8201 -1.0966
  400MOL0     H52747   0.935   5.366   0.560 -1.5813 -2.0603  3.6500
  400MOL0     H52748   1.107   5.381   0.526 -2.3140  0.5438 -2.1697
  400MOL0     H52749   0.936   5.448   0.775  1.1150 -0.0720  1.3699
  400MOL0     H52750   1.106   5.501   0.771 -0.6573 -1.0415  0.8237
  400MOL0     H52751   0.847   5.570   0.620  0.7765 -1.1066 -1.6954
  400MOL0     H52752   1.001   5.630   0.556 -0.8330  1.0627  0.4355
  400MOL0     H52753   0.901   5.660   0.934 -3.9065  2.6186  0.7554
  400MOL0     H52754   1.073   6.004   1.024 -0.3481 -0.2635 -0.8356
  400MOL0     H52755   1.037   5.846   1.096 -0.2296 -0.8387 -0.7790
  400MOL0     H52756   0.792   5.896   1.099  0.4892 -0.1706 -1.5937
  400MOL0     H52757   0.823   6.053   1.019  5.7260  0.5200 -2.3101
  400MOL0     H52758   0.771   6.060   1.263  1.3323  2.3959  2.0160
  400MOL0     H52759   0.935   6.008   1.290  0.8784 -0.7555 -1.0879
  400MOL0     H52760   0.886   6.236   1.089 -0.0680  0.7375  0.4968
  400MOL0     H52761   1.036   6.197   1.172  1.2871 -3.8877  0.7614
  400MOL0     H52762   0.860   6.517   1.419  1.4767 -1.3155 -0.7548
  400MOL0     H52763   0.666   6.653   1.425  1.9262 -2.1777  3.6480
  400MOL0     H52764   0.112   6.512   1.516  1.3053  0.0084  0.2491
  400MOL0     H52765  -0.121   6.610   1.478  1.6697 -0.5859  1.9565
  400MOL0     H52766  -0.293   6.897   1.340 -0.3976 -0.7282 -1.6683
  400MOL0     H52767  -0.190   6.816   1.465 -2.9586 -0.1257  2.0878
  400MOL0     H52768  -0.349   6.604   1.417  1.4387  0.5033  0.1927
  400MOL0     H52769  -0.450   6.714   1.326  0.7111 -2.6157 -0.6218
  400MOL0     H52770  -0.546   6.654   1.533 -0.4649 -0.0466 -0.1625
  400MOL0     H52771  -0.531   6.827   1.520  0.5997  0.5042  0.3884
  400MOL0     H52772  -0.334   6.665   1.669 -1.7374 -1.3735  0.5799
  400MOL0     H52773  -0.346   6.837   1.673  0.2324  1.0730  1.3201
  400MOL0     H52774  -0.526   6.622   1.806 -1.7414  0.5793 -0.4885
  400MOL0     H52775  -0.608   6.772   1.762 -0.2596  0.5485  0.1793
  400MOL0     H52776  -0.427   6.889   1.885  1.7707  0.3237  0.4315
  400MOL0     H52777  -0.342   6.756   1.922 -1.1991  0.5820  1.4398
  400MOL0     H52778  -0.626   6.776   2.023  0.6199 -3.2442  0.2975
  400MOL0     H52779  -0.505   6.650   2.051 -0.5678  0.7217  1.5363
  400MOL0     H52780  -0.352   6.835   2.159  0.9387 -0.8956  3.7644
  400MOL0     H52781  -0.464   6.750   2.250 -2.0436 -1.8308 -1.8341
  400MOL0     H52782   0.000   6.765   1.112 -1.6615 -0.9003 -1.5691
  400MOL0     H52783   0.219   6.658   1.120  2.1669 -1.2858  2.0625
  400MOL0     H52784   0.459   6.355   1.191  0.8037  4.3957 -4.0749
  400MOL0     H52785   0.676   6.247   1.144  0.7542  0.4480 -0.1966
  400MOL0     H52786   1.453   4.852   1.310  1.2511 -0.3798  0.3860
  400MOL0     H52787   1.630   4.671   1.348 -1.6598  0.0736 -0.6555
  400MOL0     H52788   2.189   4.650   1.300  1.7886  0.7981 -1.6148
  400MOL0     H52789   2.364   4.484   1.306 -0.5357 -0.2913  0.6954
  400MOL0     H52790   2.544   4.252   1.260  1.2625  1.8470 -0.5856
  400MOL0     H52791   2.467   4.379   1.161  1.4085  0.8374  0.7871
  400MOL0     H52792   2.556   4.094   1.082  3.0695  0.1240  3.3597
  400MOL0     H52793   2.454   4.204   0.984 -0.0868  0.2690  1.4303
  400MOL0     H52794   2.736   4.263   1.111  1.6575  0.3288 -1.4135
  400MOL0     H52795   2.649   4.382   1.012 -0.2988 -0.7097 -0.7711
  400MOL0     H52796   2.753   4.114   0.936  1.0336  0.0131  1.0018
  400MOL0     H52797   2.647   4.220   0.825  0.1675 -2.5147  0.1953
  400MOL0     H52798   2.990   4.417   0.732 -1.6644  3.0763  0.6519
  400MOL0     H52799   2.091   4.188   1.149  0.2583 -0.3898 -0.1585
  400MOL0     H52800   1.908   4.362   1.146  0.6889 -4.0078  1.2647
  401MOL0     O52801   5.780   0.148   8.330  0.4882 -0.3350 -0.0903
  401MOL0     C52802   5.731   0.052   8.372  1.1926  0.5340 -0.4518
  401MOL0     O52803   5.597   0.025   8.360  0.0441  0.2910  0.3675
  401MOL0     C52804   5.504   0.096   8.272  0.0770 -0.3194 -0.4584
  401MOL0     C52805   5.409   0.023   8.196 -0.1629  0.8586  0.3630
  401MOL0     C52806   5.318   0.090   8.104 -0.6421  0.4358 -0.6579
  401MOL0     C52807   5.312   0.228   8.114  0.5442 -1.0876 -0.4711
  401MOL0     O52808   5.200   0.292   8.052  0.2663 -0.5461 -0.1856
  401MOL0     C52809   5.159   0.424   8.098  0.0475  0.3595 -0.1010
  401MOL0     C52810   5.044   0.458   8.004  0.4280 -0.4406 -0.3192
  401MOL0     C52811   4.982   0.594   8.028  0.2309  0.3677 -0.3741
  401MOL0     C52812   4.926   0.647   7.901 -0.3676  0.4703 -0.2982
  401MOL0     C52813   4.836   0.777   7.905  0.0976  0.4515  0.3807
  401MOL0     C52814   4.713   0.751   7.989  0.3320 -0.4121 -0.8159
  401MOL0     C52815   4.604   0.854   7.981  0.1043 -0.5247  0.5372
  401MOL0     C52816   4.550   0.885   7.839 -0.6114  0.0979  0.0781
  401MOL0     N52817   4.532   0.766   7.754 -0.2170  0.5975  0.2692
  401MOL0     C52818   4.454   0.659   7.790 -0.6673 -0.1405 -1.1234
  401MOL0     C52819   4.447   0.583   7.683  0.2253  0.2269  0.4968
  401MOL0     C52820   4.376   0.453   7.657 -0.5128  0.3766 -0.5313
  401MOL0     C52821   4.251   0.456   7.573 -0.6553 -0.5964 -0.3780
  401MOL0     C52822   4.117   0.487   7.652 -0.1842  0.2670 -0.1058
  401MOL0     C52823   4.013   0.446   7.559  0.4656 -0.3449 -0.0250
  401MOL0     O52824   3.890   0.464   7.629 -0.5600  0.4774 -0.0323
  401MOL0     C52825   3.777   0.391   7.600 -0.0927 -0.1675  1.6641
  401MOL0     C52826   3.751   0.332   7.473 -0.0452  0.7366  0.2533
  401MOL0     C52827   3.636   0.257   7.446  0.4894  1.0845 -0.1843
  401MOL0     C52828   3.534   0.251   7.544 -0.4056  0.1231 -1.1032
  401MOL0     C52829   3.404   0.190   7.516  0.1042  0.0292  0.4001
  401MOL0     O52830   3.392   0.127   7.401  1.0365  0.6832 -0.1185
  401MOL0     C52831   3.269   0.096   7.354  1.0373  1.7330  0.2561
  401MOL0     C52832   3.164   0.041   7.429 -0.9550 -0.3411 -0.7046
  401MOL0     C52833   3.037   0.017   7.377 -0.0802 -0.5419 -0.4130
  401MOL0     C52834   2.999   0.056   7.245 -0.1232  1.4624  0.7240
  401MOL0     O52835   2.873   0.037   7.192 -1.1241 -0.6029  0.7147
  401MOL0     C52836   2.788  -0.066   7.241  0.3736 -0.6066 -0.0802
  401MOL0     C52837   2.688   0.005   7.331 -0.1572 -0.4427  0.0787
  401MOL0     C52838   2.563   0.061   7.264  0.4769 -0.7995  0.1811
  401MOL0     C52839   2.456  -0.045   7.216 -0.6407  0.3853  0.0692
  401MOL0     C52840   2.356   0.010   7.117 -0.2733 -0.6911  0.1235
  401MOL0     C52841   2.312   0.150   7.134 -0.3896  0.1134  0.4374
  401MOL0     C52842   2.195   0.208   7.043 -0.0721 -0.2961 -0.3222
  401MOL0     C52843   2.175   0.133   6.917 -0.6161  0.6171 -0.6609
  401MOL0    Cl52844   2.069   0.218   6.801  0.2454  0.0595 -0.3807
  401MOL0     C52845   3.105   0.109   7.168 -0.4867 -0.1589 -0.4510
  401MOL0     C52846   3.235   0.130   7.222  0.1775 -0.7805  0.1041
  401MOL0     O52847   3.315   0.222   7.597 -0.0808  0.5040  0.5929
  401MOL0     C52848   3.545   0.340   7.663  0.0281  0.1942  0.9696
  401MOL0     C52849   3.671   0.397   7.683 -0.1208 -0.5596  0.1293
  401MOL0     N52850   4.517   0.649   7.587  0.2941 -0.5688  0.7219
  401MOL0     N52851   4.574   0.755   7.631 -0.4935 -0.6623  0.2548
  401MOL0     C52852   5.398   0.305   8.204  0.7014 -0.2979 -0.2132
  401MOL0     C52853   5.493   0.239   8.279 -0.9026  0.4832  0.0240
  401MOL0     C52854   5.796  -0.022   8.473 -0.0323 -0.0037 -0.6650
  401MOL0     C52855   5.931  -0.012   8.499 -0.5252 -0.2815  0.8323
  401MOL0     C52856   5.985  -0.097   8.596 -0.4688 -0.2911 -0.7613
  401MOL0     C52857   5.906  -0.176   8.680  0.3537  0.4151 -0.0892
  401MOL0     O52858   5.957  -0.248   8.786  0.5575 -0.1298 -0.0531
  401MOL0     C52859   5.878  -0.332   8.877 -0.2104 -0.3629 -0.8720
  401MOL0     C52860   5.968  -0.431   8.940 -0.4598  0.6596  0.2764
  401MOL0     C52861   5.894  -0.504   9.051 -0.3056  1.0465  0.1441
  401MOL0     C52862   5.974  -0.614   9.124  0.2312 -0.1879 -0.4138
  401MOL0     C52863   6.105  -0.578   9.170 -0.1238  0.2569  0.0896
  401MOL0     C52864   6.210  -0.555   9.222  0.0573  0.0411  1.4314
  401MOL0     C52865   5.764  -0.170   8.667  0.7319  0.6925  0.4076
  401MOL0     C52866   5.709  -0.095   8.567  0.0739  0.5654  0.2869
  401MOL0     H52867   5.409  -0.083   8.174  2.0095  1.1479 -1.4523
  401MOL0     H52868   5.240   0.033   8.055 -0.3833  0.0038 -0.5713
  401MOL0     H52869   5.230   0.506   8.104  1.4203 -0.8871  1.7212
  401MOL0     H52870   5.116   0.421   8.199 -0.6893  0.7622 -0.3938
  401MOL0     H52871   4.976   0.373   7.993  3.5496 -2.8314 -3.2402
  401MOL0     H52872   5.092   0.466   7.906  0.1674 -0.4042 -0.4441
  401MOL0     H52873   5.056   0.671   8.054  1.1382 -0.2463 -1.0512
  401MOL0     H52874   4.913   0.582   8.112 -0.4973  2.2326 -0.6768
  401MOL0     H52875   5.010   0.659   7.832  0.3271  1.4463  0.6713
  401MOL0     H52876   4.865   0.564   7.865  1.6626 -0.9126 -0.7281
  401MOL0     H52877   4.806   0.822   7.810  0.7769  2.1102  0.9176
  401MOL0     H52878   4.891   0.852   7.962 -0.9842  0.5426  1.3442
  401MOL0     H52879   4.749   0.751   8.093  3.3517  3.1622 -1.6388
  401MOL0     H52880   4.669   0.651   7.984 -1.0584  0.1430 -0.2161
  401MOL0     H52881   4.518   0.829   8.044  0.2161 -0.1854  0.8317
  401MOL0     H52882   4.639   0.944   8.032 -2.1756  0.2469  0.8486
  401MOL0     H52883   4.623   0.951   7.791 -1.9508 -0.6853 -3.3181
  401MOL0     H52884   4.462   0.949   7.846 -0.2142  1.1093 -2.8650
  401MOL0     H52885   4.423   0.628   7.889 -2.3050  0.6383 -1.3619
  401MOL0     H52886   4.359   0.391   7.745  3.9198 -1.2572 -0.5574
  401MOL0     H52887   4.452   0.389   7.612  1.2314 -0.7499  3.5129
  401MOL0     H52888   4.242   0.358   7.524  1.9286 -1.7294  1.2318
  401MOL0     H52889   4.266   0.527   7.491  2.4643 -2.3875 -1.5278
  401MOL0     H52890   4.109   0.440   7.750 -0.7074 -1.2818 -0.8592
  401MOL0     H52891   4.105   0.594   7.670  1.1121  0.4221 -0.1123
  401MOL0     H52892   4.032   0.340   7.537  1.1632 -0.0571 -0.8159
  401MOL0     H52893   4.014   0.505   7.467  1.4792  1.7810  1.2727
  401MOL0     H52894   3.834   0.328   7.402 -0.2766 -0.5368  0.0426
  401MOL0     H52895   3.627   0.198   7.355 -0.1275  0.7374  0.0963
  401MOL0     H52896   3.178   0.021   7.535  1.8974  1.0218 -0.7217
  401MOL0     H52897   2.952  -0.021   7.432 -1.9624  1.0699 -2.0494
  401MOL0     H52898   2.840  -0.153   7.282  3.3986  0.2589 -1.7565
  401MOL0     H52899   2.728  -0.113   7.163  0.1280 -0.6045  0.1032
  401MOL0     H52900   2.740   0.078   7.393  1.3553 -1.0415 -0.4348
  401MOL0     H52901   2.653  -0.077   7.395  0.1814 -1.8756 -1.4786
  401MOL0     H52902   2.586   0.111   7.170 -2.3050 -3.0427 -1.8737
  401MOL0     H52903   2.507   0.124   7.334 -0.8955  0.9474 -2.3397
  401MOL0     H52904   2.504  -0.141   7.199  0.5051  0.9498  0.0274
  401MOL0     H52905   2.390  -0.064   7.301 -2.5841  2.8870 -0.7481
  401MOL0     H52906   2.272  -0.059   7.115  0.3450 -1.4575 -2.1324
  401MOL0     H52907   2.407   0.015   7.020  1.6597  0.9884  1.1295
  401MOL0     H52908   2.385   0.227   7.108  0.3353 -0.8716 -0.5354
  401MOL0     H52909   2.288   0.168   7.239  0.3373  0.5535  0.5303
  401MOL0     H52910   2.101   0.205   7.100 -2.5000 -3.9101 -3.9728
  401MOL0     H52911   2.206   0.313   7.016 -2.9683 -0.0006 -0.6817
  401MOL0     H52912   2.127   0.037   6.937 -1.1355  1.2805  1.4285
  401MOL0     H52913   2.275   0.117   6.875  0.3932  4.0728  0.1816
  401MOL0     H52914   3.098   0.155   7.070  0.7343  1.9110  0.3833
  401MOL0     H52915   3.301   0.184   7.155 -1.0489 -1.8823 -2.1304
  401MOL0     H52916   3.466   0.361   7.734  1.6761  1.8602  2.4502
  401MOL0     H52917   3.689   0.446   7.779  2.5483 -0.3852 -0.3856
  401MOL0     H52918   5.372   0.409   8.218 -1.0911 -0.6976 -0.3083
  401MOL0     H52919   5.557   0.288   8.352 -2.3066  1.7363  0.4564
  401MOL0     H52920   5.999   0.045   8.435 -1.3939 -0.0256  0.1156
  401MOL0     H52921   6.093  -0.109   8.595 -0.5310 -0.9706 -1.8489
  401MOL0     H52922   5.811  -0.390   8.813  1.4718  1.6977 -4.7957
  401MOL0     H52923   5.838  -0.272   8.960  2.0844  0.5423 -0.3453
  401MOL0     H52924   6.002  -0.500   8.862 -3.1982  1.5619 -1.8850
  401MOL0     H52925   6.047  -0.365   8.978 -0.0474  2.1342 -2.8003
  401MOL0     H52926   5.805  -0.544   9.001  1.1071 -0.4604 -1.2854
  401MOL0     H52927   5.872  -0.436   9.134 -2.0261  2.8760 -1.7307
  401MOL0     H52928   5.911  -0.643   9.208 -1.9775 -2.6082 -2.7254
  401MOL0     H52929   5.979  -0.696   9.052  1.9032  0.5449 -1.2060
  401MOL0     H52930   6.307  -0.562   9.267  0.2221  0.2975  1.1193
  401MOL0     H52931   5.702  -0.222   8.739 -1.5710  0.6001 -1.5124
  401MOL0     H52932   5.601  -0.095   8.562 -0.0336  2.6112  1.4355
  402MOL0     O52933   8.214   8.361   1.875 -0.7221 -0.8316 -0.5794
  402MOL0     C52934   8.224   8.275   1.784  1.0006  0.2417 -0.7036
  402MOL0     O52935   8.116   8.206   1.733 -0.1619 -0.1371  0.9850
  402MOL0     C52936   7.986   8.246   1.762 -0.4107 -0.7020  0.6050
  402MOL0     C52937   7.932   8.352   1.693 -0.2913 -0.7614  1.1544
  402MOL0     C52938   7.792   8.381   1.702  0.3969  0.1539  0.2706
  402MOL0     C52939   7.709   8.291   1.780  0.3613 -0.3705  0.4509
  402MOL0     O52940   7.572   8.329   1.781 -0.1285  0.2838 -0.2624
  402MOL0     C52941   7.476   8.242   1.837  0.1446  0.2375  0.1902
  402MOL0     C52942   7.477   8.283   1.979 -0.4313  0.5396  0.1749
  402MOL0     C52943   7.378   8.200   2.070 -0.2295 -0.2156  0.0370
  402MOL0     C52944   7.237   8.222   2.019  0.0264  0.1397 -0.1381
  402MOL0     C52945   7.130   8.205   2.132  0.6702 -0.0645 -0.0537
  402MOL0     C52946   6.998   8.249   2.077  0.4568 -0.3508 -0.1589
  402MOL0     C52947   6.885   8.230   2.178 -0.6998  1.0244  0.8925
  402MOL0     C52948   6.848   8.086   2.185 -0.6126  0.3351 -0.3785
  402MOL0     N52949   6.717   8.055   2.242  0.6456 -0.2326  0.4864
  402MOL0     C52950   6.701   8.065   2.379 -0.5012  0.1609  0.3515
  402MOL0     C52951   6.569   8.067   2.390  0.7682 -0.6977  0.4195
  402MOL0     C52952   6.505   8.082   2.520  0.1410 -0.1017  0.4880
  402MOL0     C52953   6.534   7.963   2.608  0.1822  0.0552 -0.4631
  402MOL0     C52954   6.428   7.970   2.720 -1.0348 -0.0096  0.2015
  402MOL0     C52955   6.440   7.860   2.825 -0.0327  0.0902  0.3284
  402MOL0     O52956   6.314   7.842   2.878 -0.2649  0.4400  0.2673
  402MOL0     C52957   6.303   7.727   2.955 -1.8013 -0.2643  0.4054
  402MOL0     C52958   6.175   7.674   2.971  0.6331 -0.6590 -0.0268
  402MOL0     C52959   6.149   7.563   3.052  0.5063  0.6393  0.1852
  402MOL0     C52960   6.253   7.478   3.089 -0.3518 -0.6955 -0.1153
  402MOL0     C52961   6.224   7.358   3.168  0.1685  0.3975  0.2201
  402MOL0     O52962   6.099   7.350   3.220  0.0520 -0.6404 -0.9222
  402MOL0     C52963   6.073   7.252   3.311 -0.1081  0.4924  0.5990
  402MOL0     C52964   6.063   7.119   3.271 -0.1774  0.5075 -0.0224
  402MOL0     C52965   6.047   7.018   3.368 -0.7513 -0.4316  0.4474
  402MOL0     C52966   6.042   7.063   3.502  1.1389  0.4230  0.3680
  402MOL0     O52967   5.995   6.972   3.588  0.0041 -0.1032 -0.5916
  402MOL0     C52968   6.084   6.874   3.643 -1.0884 -0.1436 -0.0769
  402MOL0     C52969   6.013   6.780   3.742 -0.1584  0.0951 -0.7105
  402MOL0     C52970   5.947   6.847   3.865 -0.0386 -0.5228 -0.4464
  402MOL0     C52971   5.854   6.749   3.942 -0.8750  0.3766  0.1075
  402MOL0     C52972   5.769   6.833   4.042 -0.2479 -0.8385 -0.5863
  402MOL0     C52973   5.690   6.749   4.138 -0.1777 -0.0679 -0.8292
  402MOL0     C52974   5.612   6.842   4.233  0.2602 -0.5016  0.2051
  402MOL0     C52975   5.481   6.893   4.170 -0.3595  0.5960 -0.0682
  402MOL0    Cl52976   5.396   6.998   4.292 -0.2061  0.1735  0.4972
  402MOL0     C52977   6.047   7.198   3.540 -0.0799  0.6842  0.1099
  402MOL0     C52978   6.070   7.288   3.444  1.0220  0.8902  0.2264
  402MOL0     O52979   6.301   7.264   3.164  0.2001 -0.3991 -0.5228
  402MOL0     C52980   6.388   7.513   3.055 -0.1968 -0.4613 -0.9462
  402MOL0     C52981   6.414   7.645   3.002 -0.0591  0.2061 -0.2438
  402MOL0     N52982   6.513   8.049   2.255 -0.0832  0.1626  0.2592
  402MOL0     N52983   6.604   8.054   2.162 -0.3854 -0.5570 -0.0923
  402MOL0     C52984   7.765   8.179   1.846 -0.5589 -0.6640  0.2173
  402MOL0     C52985   7.906   8.149   1.832  0.7981  0.6723  0.2299
  402MOL0     C52986   8.358   8.235   1.738 -0.1527 -0.0541  0.4629
  402MOL0     C52987   8.383   8.128   1.648  0.0313 -0.3644 -0.1016
  402MOL0     C52988   8.510   8.090   1.600 -0.3916  0.0815  0.1843
  402MOL0     C52989   8.629   8.162   1.645 -0.5610 -0.3952 -0.7080
  402MOL0     O52990   8.753   8.125   1.588  0.1567 -0.7624  0.3372
  402MOL0     C52991   8.872   8.192   1.648  0.4575  0.2895  0.1654
  402MOL0     C52992   8.930   8.315   1.569 -0.0945  0.0707  1.0461
  402MOL0     C52993   9.000   8.254   1.440  0.9848  0.2707  0.5803
  402MOL0     C52994   9.057   8.339   1.331  0.4754 -0.2275  0.1791
  402MOL0     C52995   9.158   8.257   1.255 -0.0274  0.1975  0.2603
  402MOL0     C52996   9.212   8.158   1.191 -0.7750  0.1312 -0.3307
  402MOL0     C52997   8.606   8.276   1.727  0.2363 -0.3230  0.5049
  402MOL0     C52998   8.475   8.311   1.775 -0.1255 -0.5505  0.8749
  402MOL0     H52999   7.987   8.410   1.620 -1.1984 -0.0215  1.0335
  402MOL0     H53000   7.738   8.456   1.646  0.9603  2.4868  2.6843
  402MOL0     H53001   7.505   8.137   1.822 -0.9739 -0.1127  0.3188
  402MOL0     H53002   7.375   8.260   1.798  0.5128  0.3444 -0.7338
  402MOL0     H53003   7.446   8.387   1.986 -0.6401  0.4565  0.5159
  402MOL0     H53004   7.578   8.265   2.017  0.0885  0.1671 -1.3329
  402MOL0     H53005   7.378   8.233   2.174 -2.6194 -0.4534  0.1617
  402MOL0     H53006   7.415   8.097   2.065  0.0964 -0.3325  3.0373
  402MOL0     H53007   7.218   8.317   1.969 -2.8341  0.2058  0.9180
  402MOL0     H53008   7.207   8.148   1.944  2.0557 -0.9609  0.0555
  402MOL0     H53009   7.163   8.265   2.217  2.9898 -3.4493  1.6677
  402MOL0     H53010   7.121   8.101   2.166  2.0104  0.2998  1.5704
  402MOL0     H53011   6.964   8.205   1.983 -1.2574 -0.7658  0.6287
  402MOL0     H53012   7.026   8.352   2.053  0.6775 -0.0972  1.1183
  402MOL0     H53013   6.918   8.255   2.279  2.8939 -1.3828  0.4924
  402MOL0     H53014   6.805   8.300   2.151  0.4686  2.6914  1.5994
  402MOL0     H53015   6.917   8.034   2.252 -2.3999 -2.7342 -0.7272
  402MOL0     H53016   6.857   8.037   2.088  2.1464 -0.0063 -0.0168
  402MOL0     H53017   6.789   8.076   2.441  1.5615  1.3072 -2.5369
  402MOL0     H53018   6.397   8.090   2.504 -0.0278 -0.5460  1.3560
  402MOL0     H53019   6.530   8.173   2.575  0.7937  1.2839 -1.9375
  402MOL0     H53020   6.633   7.967   2.654 -1.1006  0.5775  2.5019
  402MOL0     H53021   6.528   7.871   2.550 -1.4740 -0.3096  0.2334
  402MOL0     H53022   6.446   8.069   2.760 -2.2560  1.1071 -1.8069
  402MOL0     H53023   6.328   7.964   2.675 -0.8809 -3.5291  0.0599
  402MOL0     H53024   6.508   7.890   2.905  0.3873 -1.9623  0.7856
  402MOL0     H53025   6.480   7.774   2.770  0.8537 -1.8649  3.7185
  402MOL0     H53026   6.084   7.712   2.925  1.7474 -0.0227 -1.8193
  402MOL0     H53027   6.047   7.541   3.081  0.5809 -1.0118 -0.6655
  402MOL0     H53028   6.083   7.083   3.171  0.8034  2.0729 -0.4171
  402MOL0     H53029   6.037   6.912   3.350 -0.1550 -1.2979  4.3051
  402MOL0     H53030   6.169   6.927   3.686  1.2025 -2.9111 -0.8913
  402MOL0     H53031   6.133   6.821   3.561  1.5955  0.0199  1.3115
  402MOL0     H53032   6.084   6.704   3.777 -2.7021 -0.9724  2.6453
  402MOL0     H53033   5.936   6.726   3.686 -1.2458  0.2338  0.6087
  402MOL0     H53034   5.892   6.936   3.833  2.3204  1.2796  0.2309
  402MOL0     H53035   6.038   6.882   3.915  1.7230  0.0402 -3.7329
  402MOL0     H53036   5.793   6.685   3.878  0.3551  0.4370 -1.1606
  402MOL0     H53037   5.921   6.677   3.991  1.3938  2.3047  0.0358
  402MOL0     H53038   5.691   6.889   3.990 -0.2285  2.0567  2.1853
  402MOL0     H53039   5.831   6.907   4.095  1.5895 -1.5879 -1.5765
  402MOL0     H53040   5.761   6.689   4.196  0.5675  0.8510 -0.7895
  402MOL0     H53041   5.628   6.680   4.079 -0.2172 -0.9138  0.1723
  402MOL0     H53042   5.577   6.789   4.322  0.0783  0.9768  1.0510
  402MOL0     H53043   5.668   6.933   4.256  1.6907 -1.0274 -1.0378
  402MOL0     H53044   5.421   6.809   4.134  2.2370 -0.5146 -2.1501
  402MOL0     H53045   5.495   6.953   4.080  1.0397 -1.2955 -1.1946
  402MOL0     H53046   6.034   7.220   3.645  0.3672  2.1235 -0.1123
  402MOL0     H53047   6.080   7.393   3.471  3.7270  0.9612 -0.7324
  402MOL0     H53048   6.482   7.461   3.068 -0.4481 -1.2190 -2.0682
  402MOL0     H53049   6.513   7.681   2.980  0.5188 -1.8788 -1.3511
  402MOL0     H53050   7.710   8.110   1.909 -1.2155 -0.5198 -0.1955
  402MOL0     H53051   7.949   8.051   1.847  4.2339  1.6895 -1.9300
  402MOL0     H53052   8.300   8.070   1.609 -1.9900  2.4582 -0.3555
  402MOL0     H53053   8.525   8.003   1.537 -0.8453  0.5083 -0.5214
  402MOL0     H53054   8.950   8.115   1.643 -1.8915 -2.2053 -0.5684
  402MOL0     H53055   8.852   8.216   1.753 -1.7467  0.4614 -0.2421
  402MOL0     H53056   8.856   8.388   1.533  2.0407  1.3138 -1.1032
  402MOL0     H53057   8.992   8.370   1.640 -0.5041  0.2791  1.2445
  402MOL0     H53058   8.929   8.185   1.395  2.2615 -2.0988  1.9694
  402MOL0     H53059   9.074   8.179   1.470 -0.2544 -1.3064 -0.1564
  402MOL0     H53060   8.983   8.370   1.256  0.3375  2.6128  1.3643
  402MOL0     H53061   9.104   8.431   1.367 -0.7419  0.2535  0.5644
  402MOL0     H53062   9.264   8.081   1.137  0.0836  0.5813 -0.1647
  402MOL0     H53063   8.686   8.339   1.764 -0.4248 -0.5174  2.3604
  402MOL0     H53064   8.471   8.390   1.850  1.4086  0.3934  0.0067
  403MOL0     O53065   7.925   8.589   1.255  0.6952  0.0243 -0.3678
  403MOL0     C53066   8.004   8.507   1.305  0.4860 -0.5496  0.2286
  403MOL0     O53067   7.984   8.370   1.313  0.5254 -0.0636  0.4538
  403MOL0     C53068   7.863   8.326   1.259 -0.9877 -0.2353 -0.2553
  403MOL0     C53069   7.755   8.315   1.343 -0.6128  0.4461  0.2439
  403MOL0     C53070   7.636   8.249   1.310  0.3093 -0.2151  0.2770
  403MOL0     C53071   7.626   8.185   1.189 -0.4229 -1.0919 -0.2474
  403MOL0     O53072   7.514   8.136   1.130 -0.2596 -0.5033 -0.6519
  403MOL0     C53073   7.405   8.079   1.205  0.6967  0.6400 -0.3936
  403MOL0     C53074   7.280   8.054   1.119 -0.3233  0.1348  0.6174
  403MOL0     C53075   7.172   7.989   1.207  0.1100 -0.2957  0.2965
  403MOL0     C53076   7.066   7.951   1.114  0.4487  0.3492 -0.2859
  403MOL0     C53077   6.938   7.912   1.186  0.2650 -0.3321 -1.3861
  403MOL0     C53078   6.827   7.971   1.107  0.5285  0.1637 -0.0699
  403MOL0     C53079   6.679   7.941   1.152  0.0879  0.5654 -0.4333
  403MOL0     C53080   6.640   7.792   1.158  0.1988 -0.0088  0.2544
  403MOL0     N53081   6.635   7.723   1.029 -0.3542  0.0963  0.4096
  403MOL0     C53082   6.743   7.670   0.962  0.1927 -0.7160 -0.7028
  403MOL0     C53083   6.704   7.661   0.832 -0.9597  0.1553  0.7639
  403MOL0     C53084   6.788   7.631   0.707  0.0068  0.4754 -1.1161
  403MOL0     C53085   6.864   7.751   0.652 -0.4405 -0.2548  0.2896
  403MOL0     C53086   7.007   7.756   0.720 -0.0769  0.6183 -0.7198
  403MOL0     C53087   7.051   7.893   0.736 -0.2129 -0.7998  0.1120
  403MOL0     O53088   7.189   7.893   0.780  0.1355  0.5895  0.4366
  403MOL0     C53089   7.298   7.862   0.698  0.2065  0.3362  1.0679
  403MOL0     C53090   7.284   7.851   0.560  0.8611 -0.2823 -0.3492
  403MOL0     C53091   7.395   7.814   0.489  0.1067  0.3023  0.5610
  403MOL0     C53092   7.525   7.804   0.551 -0.6310  0.4016  0.0943
  403MOL0     C53093   7.650   7.792   0.474  0.0092  1.0371 -0.4662
  403MOL0     O53094   7.750   7.735   0.542 -0.4343 -0.1738 -0.1407
  403MOL0     C53095   7.843   7.659   0.485  0.8092  0.7519 -0.4195
  403MOL0     C53096   7.801   7.575   0.383 -0.1908 -0.0555 -0.5800
  403MOL0     C53097   7.896   7.487   0.322  0.0593  0.4185 -1.0296
  403MOL0     C53098   8.033   7.479   0.367 -0.4536 -0.2749  0.2454
  403MOL0     O53099   8.130   7.405   0.316  0.0193  0.7670 -0.3922
  403MOL0     C53100   8.184   7.455   0.195  0.5046 -0.0136 -0.2044
  403MOL0     C53101   8.323   7.399   0.176  0.8654 -0.8038 -0.2084
  403MOL0     C53102   8.427   7.449   0.277  0.5616 -0.2069  0.7926
  403MOL0     C53103   8.560   7.384   0.245 -0.6014  0.1813  0.6811
  403MOL0     C53104   8.685   7.446   0.320 -1.1716  0.5363  0.3307
  403MOL0     C53105   8.819   7.398   0.248 -0.7169  0.3775 -0.2457
  403MOL0     C53106   8.840   7.257   0.282  0.4475 -0.9615  0.6072
  403MOL0     C53107   8.987   7.215   0.247  0.7715 -0.2501  0.2540
  403MOL0    Cl53108   9.018   7.271   0.083 -0.4583 -0.0445  0.1176
  403MOL0     C53109   8.072   7.558   0.477 -0.1774 -0.0674  0.5607
  403MOL0     C53110   7.974   7.640   0.538  0.2307 -0.8651  0.3562
  403MOL0     O53111   7.646   7.809   0.351  0.3712 -0.2398  0.6275
  403MOL0     C53112   7.532   7.802   0.697 -0.1892 -0.7590 -0.7354
  403MOL0     C53113   7.412   7.828   0.763  0.3175 -0.4394 -0.0391
  403MOL0     N53114   6.574   7.702   0.827  0.1723  0.4087 -0.0624
  403MOL0     N53115   6.531   7.741   0.947 -0.7240  0.9258  0.2070
  403MOL0     C53116   7.738   8.195   1.097  0.4762  0.0563 -0.0600
  403MOL0     C53117   7.852   8.263   1.140  0.1237 -0.2507 -0.4637
  403MOL0     C53118   8.129   8.556   1.360  0.5364  0.0925  0.0534
  403MOL0     C53119   8.210   8.466   1.439  0.7247  0.3884  0.6986
  403MOL0     C53120   8.342   8.507   1.473 -0.6637  0.2070  0.1591
  403MOL0     C53121   8.401   8.628   1.431  0.2590 -0.4822  0.5542
  403MOL0     O53122   8.531   8.654   1.465 -0.2413 -0.3001  0.2493
  403MOL0     C53123   8.607   8.768   1.397  0.2236  0.8668 -0.1188
  403MOL0     C53124   8.609   8.889   1.491  0.3575 -0.6573  0.4849
  403MOL0     C53125   8.697   8.995   1.422 -0.0617  0.1466  1.3209
  403MOL0     C53126   8.723   9.113   1.510 -0.0011 -0.3276 -0.4444
  403MOL0     C53127   8.711   9.236   1.448  0.1477 -0.5815 -0.1977
  403MOL0     C53128   8.710   9.336   1.383 -0.1644  0.8802 -0.3104
  403MOL0     C53129   8.311   8.723   1.364 -0.3576 -0.2469  0.2519
  403MOL0     C53130   8.187   8.679   1.325 -0.0748  0.9039 -0.9620
  403MOL0     H53131   7.767   8.361   1.441 -1.6137  0.4792  0.3604
  403MOL0     H53132   7.550   8.254   1.375 -0.9683 -0.4939 -1.3375
  403MOL0     H53133   7.371   8.146   1.285  1.9485 -1.7845  2.3479
  403MOL0     H53134   7.444   7.989   1.252  1.6278  1.0097 -0.4315
  403MOL0     H53135   7.310   7.991   1.036  4.0868 -0.6787  2.5192
  403MOL0     H53136   7.240   8.150   1.085 -3.1499 -1.1451  0.0473
  403MOL0     H53137   7.136   8.058   1.285  1.5490 -1.0932  1.7362
  403MOL0     H53138   7.216   7.905   1.261  1.2239  2.4749  4.1850
  403MOL0     H53139   7.049   8.038   1.051  1.3805  0.8319  0.1087
  403MOL0     H53140   7.098   7.863   1.058  0.8594 -0.0026  0.4772
  403MOL0     H53141   6.928   7.961   1.284 -0.3456 -2.3774 -0.3619
  403MOL0     H53142   6.936   7.803   1.185 -2.1057 -0.3605 -3.8186
  403MOL0     H53143   6.841   7.933   1.005  3.1677 -0.8279  0.5867
  403MOL0     H53144   6.826   8.080   1.097 -0.7676  0.1288 -0.4134
  403MOL0     H53145   6.662   7.987   1.250  0.3383 -1.7984  0.7671
  403MOL0     H53146   6.601   7.991   1.094 -1.4619 -1.8099 -0.4956
  403MOL0     H53147   6.543   7.774   1.205  0.1367 -0.1151  0.0841
  403MOL0     H53148   6.719   7.744   1.217 -0.1635  0.1891  0.9093
  403MOL0     H53149   6.834   7.638   1.011 -1.3702 -1.2574  2.0675
  403MOL0     H53150   6.723   7.598   0.625 -0.2906 -0.5929 -0.4586
  403MOL0     H53151   6.855   7.550   0.738  1.2558  1.3220 -1.4950
  403MOL0     H53152   6.806   7.843   0.666 -2.0581 -1.3444  1.0236
  403MOL0     H53153   6.885   7.737   0.545  1.7943 -1.4227  0.8181
  403MOL0     H53154   7.006   7.698   0.813 -0.5542  1.4614 -0.1901
  403MOL0     H53155   7.069   7.698   0.651 -1.1112 -1.0376 -0.3306
  403MOL0     H53156   7.001   7.946   0.818  0.3305  3.7937 -2.1908
  403MOL0     H53157   7.042   7.955   0.647 -0.0734 -1.1938 -0.1771
  403MOL0     H53158   7.185   7.859   0.516  0.1224 -1.0710  1.0923
  403MOL0     H53159   7.372   7.793   0.385 -1.0094  0.6558  0.7203
  403MOL0     H53160   7.698   7.576   0.349 -1.2051  0.4221  2.2340
  403MOL0     H53161   7.862   7.412   0.251 -2.8194 -0.9390  1.5116
  403MOL0     H53162   8.195   7.564   0.198  0.9802 -0.0811  0.8897
  403MOL0     H53163   8.121   7.426   0.110 -0.8478 -1.1831  1.1353
  403MOL0     H53164   8.352   7.428   0.074 -0.7029 -0.3007 -0.5374
  403MOL0     H53165   8.311   7.290   0.173 -2.0834 -0.5465 -1.9608
  403MOL0     H53166   8.402   7.429   0.382  1.0646  3.6752  1.8016
  403MOL0     H53167   8.430   7.557   0.263 -0.3469 -0.3921 -1.0537
  403MOL0     H53168   8.552   7.280   0.276 -2.3182 -0.0510 -0.3793
  403MOL0     H53169   8.576   7.385   0.137  0.5611  1.4660  0.8304
  403MOL0     H53170   8.685   7.417   0.425 -0.8140 -0.7526 -0.0176
  403MOL0     H53171   8.670   7.554   0.304 -2.1077  0.8172  2.6798
  403MOL0     H53172   8.905   7.459   0.276 -1.5507  1.0153  1.0178
  403MOL0     H53173   8.798   7.412   0.141  1.5324  2.8856 -0.4678
  403MOL0     H53174   8.831   7.230   0.388 -0.4508 -1.9522  0.2957
  403MOL0     H53175   8.753   7.207   0.239 -0.1263 -1.2701  2.0393
  403MOL0     H53176   8.999   7.108   0.266  0.5394  0.0229  2.2256
  403MOL0     H53177   9.049   7.264   0.323  1.9294 -0.9253 -0.2303
  403MOL0     H53178   8.169   7.559   0.525 -0.5262 -3.6402  1.6274
  403MOL0     H53179   8.000   7.687   0.632  1.4405 -1.4203  0.3211
  403MOL0     H53180   7.623   7.798   0.755 -1.2026 -2.0439  0.8612
  403MOL0     H53181   7.401   7.842   0.870 -2.9813 -0.0584 -0.3037
  403MOL0     H53182   7.750   8.149   1.000  1.7358  1.2018 -0.4787
  403MOL0     H53183   7.936   8.280   1.072  0.7516 -1.8305 -0.1319
  403MOL0     H53184   8.176   8.368   1.472 -0.2396  0.6937  0.6320
  403MOL0     H53185   8.407   8.444   1.532  1.0329  2.0556  0.3581
  403MOL0     H53186   8.576   8.789   1.294  0.8363  3.1086  0.1037
  403MOL0     H53187   8.712   8.737   1.399  0.1511  0.3513 -2.0598
  403MOL0     H53188   8.503   8.913   1.498  0.0638 -1.7694  0.0063
  403MOL0     H53189   8.657   8.845   1.579 -1.0024 -2.1336  0.5213
  403MOL0     H53190   8.645   9.031   1.333 -0.8842  4.1995  3.2060
  403MOL0     H53191   8.787   8.942   1.391 -1.9933 -2.1750 -0.8371
  403MOL0     H53192   8.642   9.117   1.584  2.6182  1.1108  2.6044
  403MOL0     H53193   8.818   9.096   1.561  0.6342  0.7549 -1.2255
  403MOL0     H53194   8.692   9.424   1.325 -4.2937 -0.3736 -1.2307
  403MOL0     H53195   8.350   8.824   1.353 -1.7141  0.3811  1.0852
  403MOL0     H53196   8.112   8.748   1.287 -2.2166 -0.2014  1.0264
  404MOL0     O53197  10.161   0.850   0.921  0.4942 -0.7722  0.5390
  404MOL0     C53198  10.168   0.976   0.922  0.2772 -0.3866  0.6206
  404MOL0     O53199  10.086   1.059   0.851  0.6689  0.7342 -0.2164
  404MOL0     C53200   9.988   1.017   0.764  0.4387 -0.0838 -0.0637
  404MOL0     C53201   9.908   0.906   0.803  0.8104  0.1184 -0.0776
  404MOL0     C53202   9.796   0.876   0.727  0.2347  0.1695 -0.0098
  404MOL0     C53203   9.754   0.937   0.614 -0.0667 -0.0296 -0.3153
  404MOL0     O53204   9.631   0.920   0.567  1.3010  0.2230  0.4739
  404MOL0     C53205   9.521   0.919   0.659  0.0516  0.1246 -0.4003
  404MOL0     C53206   9.386   0.889   0.592 -0.0174 -0.1407  0.9060
  404MOL0     C53207   9.330   1.001   0.510 -0.2000 -0.4604 -0.3258
  404MOL0     C53208   9.182   0.987   0.471 -0.1481  0.5089 -0.5985
  404MOL0     C53209   9.143   0.852   0.405  0.6722 -0.9923 -0.9159
  404MOL0     C53210   9.097   0.747   0.500  0.1771 -0.4676 -0.4144
  404MOL0     C53211   8.968   0.773   0.570  0.6933  0.4667 -0.0244
  404MOL0     C53212   8.900   0.641   0.605 -0.6649  0.0925 -0.1256
  404MOL0     N53213   8.809   0.646   0.723  0.5868 -0.4591 -0.7805
  404MOL0     C53214   8.848   0.659   0.857 -0.3750  0.0232  0.3073
  404MOL0     C53215   8.737   0.704   0.920 -0.6354 -0.5828  0.0980
  404MOL0     C53216   8.746   0.744   1.070 -0.2834  0.9751 -0.3083
  404MOL0     C53217   8.616   0.718   1.135 -0.7077  0.1769  0.4560
  404MOL0     C53218   8.585   0.567   1.147 -0.1201  0.2651 -0.3541
  404MOL0     C53219   8.457   0.536   1.229  0.0852  0.5457  0.3639
  404MOL0     O53220   8.441   0.629   1.333 -0.0065 -0.5633  0.0003
  404MOL0     C53221   8.323   0.628   1.402  0.0951  0.1730 -0.0272
  404MOL0     C53222   8.225   0.519   1.408  0.0585 -0.5169  1.0776
  404MOL0     C53223   8.117   0.542   1.488 -1.0597 -0.6130 -0.2054
  404MOL0     C53224   8.094   0.664   1.553 -0.7906  0.4541 -0.5337
  404MOL0     C53225   7.974   0.685   1.620 -0.4933  0.4119  0.9378
  404MOL0     O53226   7.941   0.810   1.652 -0.8598 -0.1465 -0.2464
  404MOL0     C53227   7.826   0.841   1.717 -0.0136  0.7088  0.8414
  404MOL0     C53228   7.824   0.964   1.771  0.7787  0.2566  0.0375
  404MOL0     C53229   7.694   1.014   1.815 -0.0984 -0.2493  1.1067
  404MOL0     C53230   7.577   0.945   1.805 -1.6412  0.2257 -0.0956
  404MOL0     O53231   7.471   1.004   1.868  1.1686 -0.2099 -0.8097
  404MOL0     C53232   7.369   0.921   1.939  0.3935  0.7126  0.5181
  404MOL0     C53233   7.274   1.009   2.020 -0.2594  0.8682  0.6707
  404MOL0     C53234   7.158   0.920   2.065 -0.2852 -0.1447  0.0656
  404MOL0     C53235   7.029   0.998   2.074 -0.4274 -0.2954  0.2527
  404MOL0     C53236   7.018   1.068   2.212  1.0845  0.3033  0.5385
  404MOL0     C53237   6.869   1.106   2.227 -0.2777 -0.5231 -0.2641
  404MOL0     C53238   6.875   1.230   2.318  0.9881  0.9110  0.5827
  404MOL0     C53239   6.727   1.279   2.339 -0.4488 -0.7548 -1.3345
  404MOL0    Cl53240   6.730   1.423   2.449  0.0056  0.6099  0.7147
  404MOL0     C53241   7.584   0.822   1.747  1.0302 -0.0554  0.9487
  404MOL0     C53242   7.707   0.772   1.698  0.9776  0.0780 -0.6935
  404MOL0     O53243   7.912   0.589   1.658  0.1782  0.0916  0.5441
  404MOL0     C53244   8.183   0.763   1.538  0.0548 -0.1694 -0.2679
  404MOL0     C53245   8.307   0.748   1.476  0.5281 -0.0923  0.3370
  404MOL0     N53246   8.644   0.718   0.820  0.3717 -0.5569 -0.3226
  404MOL0     N53247   8.682   0.684   0.701 -0.3834 -0.3698  0.2905
  404MOL0     C53248   9.841   1.039   0.570 -0.1016  0.6376 -0.3297
  404MOL0     C53249   9.958   1.088   0.641  0.6608  0.0595  0.1065
  404MOL0     C53250  10.274   1.031   1.006 -0.6237 -0.7762  0.2697
  404MOL0     C53251  10.353   0.938   1.079  0.1560  0.3181 -0.3906
  404MOL0     C53252  10.448   0.989   1.174 -0.4987 -0.2188  0.4068
  404MOL0     C53253  10.460   1.125   1.194 -0.3908 -0.2853 -0.3638
  404MOL0     O53254  10.559   1.170   1.275 -0.0311 -0.8651  0.3073
  404MOL0     C53255  10.554   1.126   1.404 -1.5504 -0.0082 -0.5789
  404MOL0     C53256  10.639   1.230   1.492  0.4858  0.2173  0.6943
  404MOL0     C53257  10.780   1.224   1.451 -0.0355 -0.2040  0.4004
  404MOL0     C53258  10.848   1.340   1.520  0.0788  0.8350 -0.1837
  404MOL0     C53259  10.985   1.353   1.463  0.5456 -0.4953  0.3295
  404MOL0     C53260  11.102   1.385   1.426 -0.2492 -0.3553 -0.4192
  404MOL0     C53261  10.386   1.219   1.116 -0.1078  0.7734  0.2392
  404MOL0     C53262  10.289   1.171   1.021  1.0684 -0.5639 -0.7214
  404MOL0     H53263   9.929   0.848   0.891 -0.1486 -0.6523 -0.3499
  404MOL0     H53264   9.741   0.791   0.765 -1.7919  1.8106  0.9267
  404MOL0     H53265   9.516   1.010   0.720 -7.6235 -1.5350  2.7141
  404MOL0     H53266   9.540   0.836   0.727 -0.1783 -0.4679 -1.0539
  404MOL0     H53267   9.315   0.871   0.673 -0.5364  1.9177  0.9620
  404MOL0     H53268   9.398   0.801   0.528  1.0121  0.5860  0.0622
  404MOL0     H53269   9.389   1.016   0.420 -0.7357  1.5408 -0.3735
  404MOL0     H53270   9.338   1.096   0.564 -0.9422 -0.6364  0.1218
  404MOL0     H53271   9.119   1.010   0.556 -0.3883  1.6778 -1.0811
  404MOL0     H53272   9.148   1.073   0.414 -3.0317 -0.6100 -0.7033
  404MOL0     H53273   9.224   0.817   0.341 -1.0442  0.9138 -4.4570
  404MOL0     H53274   9.066   0.880   0.331 -0.2304 -2.2660 -0.4792
  404MOL0     H53275   9.172   0.724   0.576  0.0538 -0.8456 -0.4022
  404MOL0     H53276   9.083   0.652   0.447 -1.9406 -0.8267  0.6480
  404MOL0     H53277   8.978   0.837   0.658  0.9822  2.0889 -1.1914
  404MOL0     H53278   8.900   0.831   0.507  1.2448  1.2245  0.0554
  404MOL0     H53279   8.972   0.560   0.612  0.2848  0.9888  0.7208
  404MOL0     H53280   8.835   0.619   0.519 -3.5668 -2.2423  2.4001
  404MOL0     H53281   8.947   0.638   0.897  0.2330  0.6582 -0.8208
  404MOL0     H53282   8.775   0.849   1.080 -2.5163  1.4945  1.5861
  404MOL0     H53283   8.821   0.680   1.116 -0.4165  0.4898 -0.7467
  404MOL0     H53284   8.541   0.775   1.081  0.2945  1.5041  0.4252
  404MOL0     H53285   8.631   0.756   1.237  1.2017  0.2230  0.1866
  404MOL0     H53286   8.556   0.527   1.050  1.1731 -4.1868  0.8594
  404MOL0     H53287   8.672   0.516   1.191 -0.0024  1.7296  1.2329
  404MOL0     H53288   8.469   0.433   1.264 -1.0782  0.0509 -0.6275
  404MOL0     H53289   8.368   0.540   1.166  0.7874 -1.1754 -0.8082
  404MOL0     H53290   8.253   0.437   1.342  0.6831  1.2990 -1.0185
  404MOL0     H53291   8.044   0.464   1.507  0.9091 -2.3393  0.5286
  404MOL0     H53292   7.912   1.027   1.757 -1.0202  2.4364 -2.7680
  404MOL0     H53293   7.704   1.103   1.877 -2.0983 -0.4429  1.7793
  404MOL0     H53294   7.414   0.842   1.999 -0.4917  0.6891  1.1584
  404MOL0     H53295   7.319   0.857   1.866  5.6227 -1.9541 -1.2621
  404MOL0     H53296   7.242   1.078   1.942  1.5102 -2.8928 -3.9192
  404MOL0     H53297   7.322   1.044   2.112  0.8369 -2.2621  1.4048
  404MOL0     H53298   7.188   0.874   2.159  0.8571 -1.2477 -0.8006
  404MOL0     H53299   7.138   0.834   2.001 -1.0087 -0.0362  0.1397
  404MOL0     H53300   7.025   1.071   1.993  1.0643 -0.2865  0.1546
  404MOL0     H53301   6.951   0.921   2.071 -0.8567 -0.1269  3.3594
  404MOL0     H53302   7.095   1.145   2.217  0.5575  0.9440 -0.7777
  404MOL0     H53303   7.039   0.997   2.293  0.2247 -1.3874 -0.6410
  404MOL0     H53304   6.817   1.021   2.271  0.6277  0.0011  1.9816
  404MOL0     H53305   6.826   1.139   2.132  3.4684 -0.9559 -2.3198
  404MOL0     H53306   6.902   1.183   2.413  0.8076 -2.7670 -1.0357
  404MOL0     H53307   6.942   1.312   2.292 -1.0276  2.4814  0.0240
  404MOL0     H53308   6.660   1.206   2.385 -0.3003  0.6196  1.2827
  404MOL0     H53309   6.704   1.306   2.235 -1.2170 -1.7401 -1.4261
  404MOL0     H53310   7.493   0.765   1.735  0.2468  1.6480 -2.6590
  404MOL0     H53311   7.705   0.685   1.634  1.0058 -0.9565  0.6764
  404MOL0     H53312   8.161   0.863   1.573  1.5007  0.1539 -0.2383
  404MOL0     H53313   8.382   0.826   1.476  0.4043  0.3111 -4.2115
  404MOL0     H53314   9.794   1.094   0.488 -1.4543 -0.2007 -0.1442
  404MOL0     H53315  10.010   1.178   0.609  3.4921 -1.0256  1.3113
  404MOL0     H53316  10.341   0.830   1.075  0.9540  0.2679 -2.9569
  404MOL0     H53317  10.497   0.923   1.246 -0.2417 -1.6052 -0.9817
  404MOL0     H53318  10.603   1.029   1.419 -2.3881 -0.3618 -0.0916
  404MOL0     H53319  10.457   1.102   1.448 -0.4832 -3.6657  0.1397
  404MOL0     H53320  10.601   1.332   1.484  0.0180 -0.1128 -1.9108
  404MOL0     H53321  10.624   1.197   1.596 -0.7266 -0.1347  0.4256
  404MOL0     H53322  10.781   1.224   1.342 -0.7627 -2.4684  0.3424
  404MOL0     H53323  10.829   1.132   1.484  1.0866  0.4739  0.6820
  404MOL0     H53324  10.798   1.436   1.511 -3.2976 -0.8419 -1.0285
  404MOL0     H53325  10.857   1.310   1.625 -0.7703 -2.0239 -0.8141
  404MOL0     H53326  11.203   1.402   1.398 -0.5720 -1.8725 -2.7159
  404MOL0     H53327  10.400   1.327   1.127  4.6000  0.5710 -1.3187
  404MOL0     H53328  10.228   1.246   0.973 -0.6599 -0.2257  1.8060
  405MOL0     O53329   7.528  10.914   9.710  0.4229  0.5471 -0.0305
  405MOL0     C53330   7.550  10.801   9.662 -0.9456 -0.3305 -0.4665
  405MOL0     O53331   7.466  10.695   9.655  0.1520  0.1103  0.2616
  405MOL0     C53332   7.349  10.707   9.719  0.9694  0.0380  0.5380
  405MOL0     C53333   7.309  10.589   9.770  0.0965 -0.0278  0.4929
  405MOL0     C53334   7.191  10.567   9.829  0.2427  0.7081 -1.1162
  405MOL0     C53335   7.097  10.667   9.848 -0.0588  0.2192 -0.4278
  405MOL0     O53336   6.977  10.634   9.908  0.0752  0.9315  0.0161
  405MOL0     C53337   6.895  10.733   9.960  0.6302 -0.3535  0.2224
  405MOL0     C53338   6.759  10.673   9.988  0.5445 -0.6135  0.2644
  405MOL0     C53339   6.692  10.774  10.085  0.8416  0.1557 -0.5278
  405MOL0     C53340   6.554  10.725  10.150  0.9033  0.8472  0.3291
  405MOL0     C53341   6.457  10.683  10.039 -0.2905  0.8828  0.1361
  405MOL0     C53342   6.412  10.800   9.950 -0.3243  0.8147 -1.1522
  405MOL0     C53343   6.282  10.756   9.868 -0.2484  0.0965  0.2740
  405MOL0     C53344   6.226  10.876   9.795 -0.2545 -1.0612  0.3535
  405MOL0     N53345   6.135  10.948   9.877  0.1375  0.6139  1.1257
  405MOL0     C53346   6.003  10.961   9.833  0.4204 -0.7603 -0.4286
  405MOL0     C53347   5.956  11.067   9.900  0.2778 -0.4004  0.2097
  405MOL0     C53348   5.823  11.129   9.881  1.3943  0.1238  0.4597
  405MOL0     C53349   5.818  11.276   9.862  0.4202 -0.0462  0.0680
  405MOL0     C53350   5.686  11.339   9.907 -0.2286 -0.3154 -0.0323
  405MOL0     C53351   5.677  11.480   9.884 -0.2863 -1.1203 -0.4602
  405MOL0     O53352   5.560  11.543   9.944  0.1746  0.2674 -0.0502
  405MOL0     C53353   5.442  11.528   9.878 -0.0802 -0.1795 -0.0824
  405MOL0     C53354   5.410  11.605   9.770 -0.5955 -0.2146  0.4272
  405MOL0     C53355   5.286  11.583   9.709 -0.2431  0.2193  0.1420
  405MOL0     C53356   5.195  11.490   9.767  0.3121  0.6393 -0.4881
  405MOL0     C53357   5.056  11.472   9.710 -0.2673  0.4559  0.8490
  405MOL0     O53358   4.981  11.379   9.776  0.9120  1.0207  0.2619
  405MOL0     C53359   4.846  11.394   9.759 -0.2334 -0.4906 -0.1699
  405MOL0     C53360   4.769  11.441   9.867 -0.4597  0.6671  0.3998
  405MOL0     C53361   4.633  11.447   9.862  0.3778 -0.2542 -0.5661
  405MOL0     C53362   4.565  11.438   9.735 -0.6642  1.5630 -0.4109
  405MOL0     O53363   4.432  11.457   9.728  0.0511 -0.0385  0.0042
  405MOL0     C53364   4.354  11.482   9.840  0.0756 -0.7967  0.4312
  405MOL0     C53365   4.211  11.504   9.800  0.5314 -0.2504  0.4798
  405MOL0     C53366   4.117  11.484   9.921  0.0267 -0.9678  0.0165
  405MOL0     C53367   3.965  11.506   9.900  0.9535  0.1110  0.3522
  405MOL0     C53368   3.929  11.626   9.816 -0.0736 -0.2868  0.1304
  405MOL0     C53369   3.783  11.664   9.824 -0.0196  0.2498  0.3075
  405MOL0     C53370   3.763  11.816   9.795 -0.2085 -0.6526 -0.6576
  405MOL0     C53371   3.830  11.853   9.649 -0.1940  0.4181  0.1362
  405MOL0    Cl53372   3.756  11.756   9.509 -0.4039  0.1173 -0.0169
  405MOL0     C53373   4.641  11.399   9.621  0.3005  0.1329  0.0614
  405MOL0     C53374   4.778  11.369   9.633 -0.6288  0.4329 -0.7056
  405MOL0     O53375   5.012  11.549   9.624  0.0386 -0.1927  0.1534
  405MOL0     C53376   5.239  11.413   9.877  0.6407  0.5802  0.0832
  405MOL0     C53377   5.359  11.419   9.928 -0.8924 -0.6525  0.1419
  405MOL0     N53378   6.049  11.104   9.998 -0.3886  0.1343 -0.1227
  405MOL0     N53379   6.163  11.045   9.968 -0.3842 -0.2086 -0.5159
  405MOL0     C53380   7.130  10.786   9.794 -0.5225 -0.3209  0.1400
  405MOL0     C53381   7.256  10.804   9.735  0.2214  0.0094  0.1136
  405MOL0     C53382   7.685  10.783   9.618 -0.1290  0.0271 -0.0690
  405MOL0     C53383   7.774  10.886   9.608  0.1674  0.3473  0.7629
  405MOL0     C53384   7.902  10.864   9.569  0.3104 -0.8482  0.0348
  405MOL0     C53385   7.956  10.737   9.550  0.5030 -0.3674  0.4972
  405MOL0     O53386   8.082  10.730   9.510  0.1266  0.0177 -0.5229
  405MOL0     C53387   8.154  10.599   9.516  0.3838 -0.2592  0.2494
  405MOL0     C53388   8.303  10.608   9.482 -0.2273 -0.1260  0.8582
  405MOL0     C53389   8.321  10.664   9.351 -1.1978 -0.2077 -0.4115
  405MOL0     C53390   8.469  10.695   9.337  0.2421  0.1061 -1.2605
  405MOL0     C53391   8.494  10.746   9.201  0.3365 -0.0892  0.0115
  405MOL0     C53392   8.495  10.817   9.097 -0.8161  0.0650  0.0822
  405MOL0     C53393   7.865  10.623   9.577 -0.4279 -0.3997  0.6061
  405MOL0     C53394   7.725  10.651   9.605 -0.6806  0.1119 -0.5751
  405MOL0     H53395   7.371  10.500   9.766  0.7188  0.4472 -0.7423
  405MOL0     H53396   7.160  10.465   9.845 -1.7107  1.0648 -2.3023
  405MOL0     H53397   6.865  10.814   9.893 -1.5047  1.6791  3.3542
  405MOL0     H53398   6.937  10.768  10.055 -3.2915 -2.7332  3.1283
  405MOL0     H53399   6.775  10.572  10.028 -1.5745 -1.0546  0.1062
  405MOL0     H53400   6.693  10.665   9.901 -0.0059 -1.6857  0.7476
  405MOL0     H53401   6.670  10.864  10.027 -2.4574  1.4535  2.3511
  405MOL0     H53402   6.759  10.795  10.170 -0.8908 -2.4540  1.6380
  405MOL0     H53403   6.549  10.644  10.222 -1.5887  1.6813  1.2045
  405MOL0     H53404   6.503  10.804  10.207 -0.2547  1.5675 -1.6080
  405MOL0     H53405   6.372  10.639  10.091 -0.6626  3.0036  1.4720
  405MOL0     H53406   6.502  10.613   9.968 -3.3140 -0.6604 -0.4027
  405MOL0     H53407   6.485  10.852   9.887 -0.2188  1.4653 -0.5114
  405MOL0     H53408   6.377  10.882  10.014 -0.4333 -1.2798  1.6102
  405MOL0     H53409   6.313  10.676   9.800 -1.1167 -2.0337  2.2486
  405MOL0     H53410   6.203  10.696   9.915  0.5588 -1.1986  0.0312
  405MOL0     H53411   6.194  10.849   9.694 -0.4327 -2.2400  0.7057
  405MOL0     H53412   6.311  10.943   9.780 -0.3260 -0.6925  1.5086
  405MOL0     H53413   5.973  10.892   9.754  1.2555  0.5181 -1.9259
  405MOL0     H53414   5.783  11.099   9.978  0.8496  0.2468  0.2786
  405MOL0     H53415   5.762  11.094   9.797 -4.3625  1.3522  3.6169
  405MOL0     H53416   5.830  11.299   9.756  0.6317 -0.7966 -0.0786
  405MOL0     H53417   5.907  11.311   9.915  0.3378  0.5462 -0.1743
  405MOL0     H53418   5.596  11.307   9.852 -0.9791  1.3606  0.1533
  405MOL0     H53419   5.682  11.328  10.016 -0.8676  0.2439  0.0113
  405MOL0     H53420   5.684  11.491   9.775  1.7156 -1.0570 -0.3629
  405MOL0     H53421   5.759  11.537   9.929 -1.6332  0.6112 -0.0961
  405MOL0     H53422   5.479  11.687   9.752  0.5697 -1.3382 -0.3926
  405MOL0     H53423   5.263  11.653   9.630  0.0858 -1.4820 -1.5491
  405MOL0     H53424   4.820  11.470   9.958 -0.0672  0.1937  0.3351
  405MOL0     H53425   4.584  11.472   9.955 -0.5098 -1.9932 -0.5136
  405MOL0     H53426   4.388  11.574   9.889  1.7580 -1.0989 -0.1169
  405MOL0     H53427   4.365  11.402   9.914  0.3376 -0.7559  0.4366
  405MOL0     H53428   4.183  11.445   9.713 -2.2579  0.7140  0.6040
  405MOL0     H53429   4.192  11.598   9.747 -0.0882 -0.1711  0.8243
  405MOL0     H53430   4.148  11.548  10.004 -1.2036  0.4616 -0.5894
  405MOL0     H53431   4.140  11.380   9.945  0.0327 -1.3920 -1.7287
  405MOL0     H53432   3.918  11.415   9.862  0.9857  0.5471 -0.7831
  405MOL0     H53433   3.928  11.519  10.002  1.6771  0.2804  0.5989
  405MOL0     H53434   3.958  11.608   9.712  3.8750 -2.8964  1.4449
  405MOL0     H53435   3.987  11.709   9.858  1.6030 -2.7489  3.0343
  405MOL0     H53436   3.742  11.642   9.923  0.5279 -3.9436 -0.2221
  405MOL0     H53437   3.726  11.617   9.744 -6.6605  2.0236  3.2929
  405MOL0     H53438   3.658  11.842   9.804 -0.4028 -1.3273 -0.8573
  405MOL0     H53439   3.818  11.871   9.872  0.5785 -0.3207 -1.4379
  405MOL0     H53440   3.937  11.835   9.646 -0.4912 -1.5573 -0.1386
  405MOL0     H53441   3.822  11.961   9.632 -0.0925  0.5270  0.7728
  405MOL0     H53442   4.594  11.402   9.523 -0.5352  2.2919  0.4535
  405MOL0     H53443   4.826  11.341   9.539 -1.0430  1.8338 -1.3686
  405MOL0     H53444   5.169  11.338   9.911  0.6320  2.0190  3.7130
  405MOL0     H53445   5.408  11.374  10.013  1.4366  1.4271  0.0112
  405MOL0     H53446   7.062  10.869   9.812  1.1524  0.4709  3.4527
  405MOL0     H53447   7.275  10.903   9.695 -0.7018 -0.1090 -0.6649
  405MOL0     H53448   7.734  10.987   9.605  0.4932  0.5053  1.4253
  405MOL0     H53449   7.970  10.945   9.545  0.3082 -0.2191  1.9885
  405MOL0     H53450   8.118  10.537   9.433  0.8220  0.1260 -0.2397
  405MOL0     H53451   8.137  10.561   9.617 -2.6735 -0.0407 -0.0922
  405MOL0     H53452   8.349  10.675   9.556  0.3756  2.6121 -1.8108
  405MOL0     H53453   8.352  10.510   9.488 -1.2409 -0.8372 -1.3745
  405MOL0     H53454   8.265  10.755   9.333 -1.5386 -0.4559 -0.6083
  405MOL0     H53455   8.290  10.600   9.268  0.6282  0.4363 -1.6537
  405MOL0     H53456   8.489  10.772   9.412 -2.9453  1.0674 -1.2428
  405MOL0     H53457   8.535  10.613   9.365 -0.7325 -0.3229 -0.1108
  405MOL0     H53458   8.491  10.879   9.009  2.0898 -2.2695 -1.8784
  405MOL0     H53459   7.916  10.527   9.575  1.7484  0.7144 -0.2675
  405MOL0     H53460   7.656  10.568   9.607 -0.8373 -0.0125 -4.2894
  406MOL0     O53461   4.499   6.210   4.552 -0.1354  0.3294  0.1210
  406MOL0     C53462   4.535   6.140   4.462  0.0200 -1.1112  0.5521
  406MOL0     O53463   4.449   6.100   4.364 -0.1188 -0.1144 -0.2658
  406MOL0     C53464   4.319   6.148   4.358  0.4978 -0.8543 -0.1496
  406MOL0     C53465   4.274   6.273   4.408  0.9544  0.0089  0.2586
  406MOL0     C53466   4.145   6.326   4.383 -0.1994 -0.1622  0.2283
  406MOL0     C53467   4.059   6.256   4.302 -0.2608  0.1981  0.1777
  406MOL0     O53468   3.932   6.297   4.304 -0.5845  0.0834  0.5874
  406MOL0     C53469   3.900   6.430   4.329  0.2072  0.1139 -0.3472
  406MOL0     C53470   3.775   6.437   4.249  0.0809  0.3392  0.2883
  406MOL0     C53471   3.652   6.365   4.292  0.4058 -0.6707  0.3946
  406MOL0     C53472   3.525   6.408   4.212  0.3068 -0.1208 -0.1569
  406MOL0     C53473   3.413   6.317   4.249  0.2512 -0.6080 -0.0070
  406MOL0     C53474   3.366   6.334   4.393  1.1399 -0.1606 -0.1695
  406MOL0     C53475   3.226   6.270   4.432  0.2152 -1.1492 -0.9157
  406MOL0     C53476   3.237   6.115   4.435 -0.9770 -0.6887 -0.2346
  406MOL0     N53477   3.108   6.064   4.441  0.4629  0.0717 -0.3361
  406MOL0     C53478   3.033   6.081   4.553 -0.1028 -0.1276  0.8137
  406MOL0     C53479   2.910   6.025   4.521  0.1917  1.0734 -0.6995
  406MOL0     C53480   2.792   6.036   4.613  0.5720  0.1628  0.6140
  406MOL0     C53481   2.662   6.002   4.548  0.0480  0.2652 -0.5394
  406MOL0     C53482   2.545   5.995   4.647 -0.5276 -0.2460 -0.1623
  406MOL0     C53483   2.408   5.993   4.592 -0.2564 -0.7560  0.0116
  406MOL0     O53484   2.307   5.947   4.679  0.5786  0.4432  1.0337
  406MOL0     C53485   2.171   5.976   4.649  0.8419  0.5874  0.3629
  406MOL0     C53486   2.122   6.061   4.550  0.9080 -0.0295  0.7175
  406MOL0     C53487   1.984   6.085   4.549  0.4255 -0.2331  0.2794
  406MOL0     C53488   1.885   6.014   4.629  0.1952 -0.2710  0.8628
  406MOL0     C53489   1.745   6.033   4.608 -0.1979  0.6724 -0.0299
  406MOL0     O53490   1.709   6.159   4.575  0.1210  0.2688  0.2131
  406MOL0     C53491   1.576   6.189   4.564  0.0490 -0.2627 -0.3213
  406MOL0     C53492   1.489   6.148   4.663 -1.2612  0.2640 -0.0724
  406MOL0     C53493   1.355   6.193   4.661 -0.5498  0.5539  0.6432
  406MOL0     C53494   1.303   6.259   4.554  0.2553 -0.5198 -0.6231
  406MOL0     O53495   1.172   6.296   4.572 -0.0864  1.2085  0.1468
  406MOL0     C53496   1.121   6.369   4.454  0.7347  0.4183 -1.2124
  406MOL0     C53497   0.973   6.402   4.479  0.3402 -0.7755 -0.7164
  406MOL0     C53498   0.887   6.275   4.484 -0.5801  0.1377 -0.2937
  406MOL0     C53499   0.734   6.300   4.476 -0.1041  0.1059 -0.4479
  406MOL0     C53500   0.650   6.175   4.488  0.5075 -1.1872  0.4067
  406MOL0     C53501   0.498   6.204   4.458 -0.0247 -0.2015 -0.8397
  406MOL0     C53502   0.415   6.078   4.461 -0.0574  0.5320  0.6758
  406MOL0     C53503   0.266   6.091   4.414 -0.3287 -0.5652  0.4834
  406MOL0    Cl53504   0.221   5.914   4.413  0.1330  0.1094  0.2141
  406MOL0     C53505   1.386   6.286   4.446 -0.8124  0.2170 -0.3555
  406MOL0     C53506   1.526   6.254   4.455  0.3584  0.5529 -1.1709
  406MOL0     O53507   1.676   5.933   4.600  0.8163  0.5097 -0.5238
  406MOL0     C53508   1.941   5.925   4.719  0.7278 -0.5256  0.0057
  406MOL0     C53509   2.079   5.899   4.728 -0.2087  0.0251 -0.8494
  406MOL0     N53510   2.919   5.970   4.401  0.3149 -0.6125 -0.5902
  406MOL0     N53511   3.035   5.998   4.357 -0.0218  0.3152  0.1295
  406MOL0     C53512   4.094   6.125   4.247 -0.5027 -0.2495 -0.3060
  406MOL0     C53513   4.225   6.078   4.273  0.1307 -0.0177  0.1430
  406MOL0     C53514   4.672   6.089   4.460  0.3017  0.4174 -0.1955
  406MOL0     C53515   4.746   6.072   4.575 -0.4076  0.1323  0.1514
  406MOL0     C53516   4.873   6.012   4.564 -0.4846  0.0974  0.3798
  406MOL0     C53517   4.929   5.981   4.440  0.4865  0.5468  0.3290
  406MOL0     O53518   5.062   5.943   4.440 -0.9754  0.2186 -0.4415
  406MOL0     C53519   5.127   5.869   4.342 -0.2838  0.1448  0.1154
  406MOL0     C53520   5.196   5.958   4.244 -0.9034  0.1302 -0.9318
  406MOL0     C53521   5.277   5.878   4.135 -0.1827 -0.0374 -1.0688
  406MOL0     C53522   5.377   5.964   4.066 -0.2605 -0.8405  0.5591
  406MOL0     C53523   5.320   6.020   3.946  0.9390  0.9834 -0.2280
  406MOL0     C53524   5.251   6.052   3.855  0.2786  0.8243  0.3381
  406MOL0     C53525   4.845   6.003   4.332 -0.0818 -0.0946  0.4102
  406MOL0     C53526   4.723   6.053   4.337  0.5947  0.1594  0.4770
  406MOL0     H53527   4.335   6.345   4.462 -0.7761  0.6248  1.5032
  406MOL0     H53528   4.119   6.424   4.423  1.2558  0.8105 -1.0954
  406MOL0     H53529   3.974   6.504   4.297 -1.2151  1.3430 -0.9122
  406MOL0     H53530   3.860   6.452   4.429 -0.9444  0.4243 -0.8550
  406MOL0     H53531   3.803   6.405   4.148 -2.3111 -1.4437  0.1118
  406MOL0     H53532   3.739   6.540   4.257 -2.5807 -0.5294  0.3497
  406MOL0     H53533   3.636   6.386   4.399 -2.8797  0.9738 -0.2908
  406MOL0     H53534   3.669   6.257   4.285 -0.5167 -0.9201  1.5727
  406MOL0     H53535   3.505   6.515   4.221  0.2068 -0.0443 -1.1815
  406MOL0     H53536   3.553   6.381   4.109 -0.2894 -1.1629 -0.0695
  406MOL0     H53537   3.444   6.215   4.226 -0.3287 -0.4423 -1.6814
  406MOL0     H53538   3.328   6.337   4.183  0.7708  2.0544  0.0242
  406MOL0     H53539   3.384   6.438   4.421  3.3963  0.0368 -2.0426
  406MOL0     H53540   3.440   6.281   4.454  0.1726 -1.8129 -0.3871
  406MOL0     H53541   3.198   6.296   4.535  1.5395  0.0280 -0.8296
  406MOL0     H53542   3.146   6.314   4.373  0.5380  2.2825  0.9690
  406MOL0     H53543   3.304   6.090   4.518 -0.2109 -1.0181 -0.9367
  406MOL0     H53544   3.283   6.072   4.345 -2.6317 -1.9183 -0.5433
  406MOL0     H53545   3.054   6.135   4.644  0.2260 -0.7223  1.0986
  406MOL0     H53546   2.794   6.135   4.661  3.2167  0.8197 -0.6505
  406MOL0     H53547   2.810   5.965   4.694 -1.3565 -0.0399  0.9149
  406MOL0     H53548   2.672   5.901   4.508 -1.3543  0.1748 -0.7205
  406MOL0     H53549   2.628   6.069   4.468  0.0724  1.5811  0.5145
  406MOL0     H53550   2.550   5.913   4.719 -2.1721  1.8310  2.5211
  406MOL0     H53551   2.559   6.091   4.697  4.0371 -0.8577  0.2458
  406MOL0     H53552   2.417   5.915   4.516  5.1798 -0.8928  0.4272
  406MOL0     H53553   2.381   6.089   4.546  2.6534  0.0862 -0.0914
  406MOL0     H53554   2.187   6.110   4.478  2.6360  0.9013  2.8111
  406MOL0     H53555   1.959   6.170   4.485  0.7127 -1.3764 -1.4280
  406MOL0     H53556   1.527   6.094   4.749  0.2728  1.2194 -0.1266
  406MOL0     H53557   1.290   6.164   4.742 -0.1444 -2.1487  0.1087
  406MOL0     H53558   1.117   6.305   4.365  0.0312  1.5577 -2.0180
  406MOL0     H53559   1.172   6.465   4.446  0.4438  0.6622 -0.3030
  406MOL0     H53560   0.958   6.461   4.389  0.2521 -1.9391 -1.4944
  406MOL0     H53561   0.957   6.464   4.567  0.4052 -0.3493 -1.0026
  406MOL0     H53562   0.897   6.227   4.582 -1.2331 -0.6686 -0.6090
  406MOL0     H53563   0.922   6.197   4.416 -1.3012 -0.0126 -0.4995
  406MOL0     H53564   0.704   6.374   4.551  1.3747  1.3745 -1.0607
  406MOL0     H53565   0.726   6.349   4.379  1.0359  1.9512  0.3338
  406MOL0     H53566   0.666   6.123   4.583  1.4207 -2.2010 -0.2776
  406MOL0     H53567   0.708   6.120   4.414  2.7861  1.9214 -0.2664
  406MOL0     H53568   0.487   6.254   4.361 -0.1114 -1.8344 -1.6982
  406MOL0     H53569   0.467   6.265   4.543 -2.3238 -2.6264  0.2126
  406MOL0     H53570   0.467   6.008   4.396  0.7410  1.1021  0.6775
  406MOL0     H53571   0.409   6.033   4.561  2.1334 -0.4185  0.4348
  406MOL0     H53572   0.271   6.136   4.315  3.1364 -0.0384  0.7618
  406MOL0     H53573   0.200   6.140   4.486  1.4846  1.9283  0.5704
  406MOL0     H53574   1.367   6.336   4.351 -0.4574 -0.4438 -0.7873
  406MOL0     H53575   1.595   6.263   4.372 -2.0345 -0.4163 -3.3730
  406MOL0     H53576   1.868   5.892   4.792 -0.7958  0.9655 -0.7621
  406MOL0     H53577   2.109   5.830   4.806 -2.5958 -1.4754 -1.1371
  406MOL0     H53578   4.031   6.074   4.175 -0.5972 -0.1638 -0.2844
  406MOL0     H53579   4.246   5.980   4.230 -0.4961 -1.1780  2.3426
  406MOL0     H53580   4.710   6.095   4.675 -2.2838  1.6285 -0.7860
  406MOL0     H53581   4.942   6.013   4.647  3.3833 -0.3844 -2.5436
  406MOL0     H53582   5.065   5.794   4.291  2.2865 -1.3732 -0.9788
  406MOL0     H53583   5.194   5.813   4.408  0.1280 -0.1420 -0.5395
  406MOL0     H53584   5.125   6.017   4.186  0.0229  2.0186 -0.2116
  406MOL0     H53585   5.263   6.025   4.298  0.3324  1.0250 -3.4515
  406MOL0     H53586   5.208   5.832   4.064 -2.6145  0.6274  0.7238
  406MOL0     H53587   5.334   5.798   4.184  1.0315  2.0734  1.2058
  406MOL0     H53588   5.412   6.041   4.136 -0.5987 -0.3276  0.1709
  406MOL0     H53589   5.465   5.906   4.041 -0.1306 -1.2815  1.9348
  406MOL0     H53590   5.188   6.065   3.770 -0.9596 -1.3347  0.8627
  406MOL0     H53591   4.889   5.992   4.233 -1.0922  0.3250 -0.0946
  406MOL0     H53592   4.666   6.075   4.248 -1.1234 -0.3570  1.4096
  407MOL0     O53593   2.347   9.215   9.652 -0.2273  0.0374  0.4029
  407MOL0     C53594   2.371   9.339   9.656  0.7267 -0.1826 -0.1459
  407MOL0     O53595   2.281   9.441   9.620 -0.2287  0.7799 -0.5090
  407MOL0     C53596   2.146   9.417   9.618 -0.2651  0.3787  0.1681
  407MOL0     C53597   2.077   9.331   9.710  0.1385 -0.0786  0.4370
  407MOL0     C53598   1.935   9.301   9.692 -0.1174  0.4865 -0.0908
  407MOL0     C53599   1.875   9.361   9.584  0.3078 -0.0341 -0.0827
  407MOL0     O53600   1.739   9.326   9.577 -0.0981 -0.2523  0.4139
  407MOL0     C53601   1.685   9.322   9.444  0.1316 -0.0925 -0.2718
  407MOL0     C53602   1.598   9.445   9.416  0.1979 -0.4099 -0.5796
  407MOL0     C53603   1.459   9.434   9.478  0.1986  0.6093 -0.0228
  407MOL0     C53604   1.381   9.566   9.483  0.1357 -0.0807 -0.2123
  407MOL0     C53605   1.247   9.523   9.554  0.1616 -0.1393 -0.0808
  407MOL0     C53606   1.130   9.620   9.513 -0.6719 -0.4670  0.7638
  407MOL0     C53607   0.985   9.562   9.554 -0.4799 -1.4979  1.1711
  407MOL0     C53608   0.954   9.561   9.708 -0.2207 -0.1637 -0.3482
  407MOL0     N53609   0.825   9.503   9.741  0.5740 -0.2172 -0.8478
  407MOL0     C53610   0.705   9.573   9.739  0.5001  0.0523  0.3429
  407MOL0     C53611   0.606   9.481   9.752 -1.0133 -0.2262 -1.0488
  407MOL0     C53612   0.462   9.525   9.738  0.4657  0.3075 -0.7869
  407MOL0     C53613   0.426   9.527   9.592  0.2984  0.4966  0.2686
  407MOL0     C53614   0.416   9.390   9.519 -0.1722  0.1494 -0.1711
  407MOL0     C53615   0.399   9.408   9.369 -0.2964 -0.4145 -0.3228
  407MOL0     O53616   0.519   9.469   9.305  0.3716 -0.0391 -0.9754
  407MOL0     C53617   0.634   9.395   9.291 -0.5992  0.2123  0.1532
  407MOL0     C53618   0.741   9.457   9.244 -0.2684 -0.7132 -0.3223
  407MOL0     C53619   0.870   9.397   9.233  0.3440  0.1024  0.0549
  407MOL0     C53620   0.893   9.273   9.287 -0.3055  0.4782 -0.6360
  407MOL0     C53621   1.025   9.211   9.306  0.5243  0.1432 -0.2587
  407MOL0     O53622   1.034   9.085   9.356  0.3066  0.0490  0.6460
  407MOL0     C53623   1.158   9.034   9.386 -0.3471  0.4061  0.3903
  407MOL0     C53624   1.236   9.101   9.478 -0.7227 -0.0960 -0.0865
  407MOL0     C53625   1.378   9.056   9.504  0.1253 -0.4757  0.1569
  407MOL0     C53626   1.432   8.940   9.441  0.7762  0.5179 -0.8231
  407MOL0     O53627   1.559   8.891   9.462 -0.3029 -0.1032 -0.0084
  407MOL0     C53628   1.627   8.925   9.583  0.2502 -0.2968 -0.2355
  407MOL0     C53629   1.562   8.857   9.705 -0.3201 -0.7376 -0.2308
  407MOL0     C53630   1.642   8.866   9.836  0.6495 -0.2240 -0.3019
  407MOL0     C53631   1.596   9.000   9.892  0.0786  0.1943  0.5750
  407MOL0     C53632   1.689   9.034  10.015 -0.4765 -0.1980  0.1870
  407MOL0     C53633   1.658   9.174  10.077  0.0436 -0.4701  0.4436
  407MOL0     C53634   1.708   9.201  10.215 -0.3218 -0.2844 -0.5148
  407MOL0     C53635   1.852   9.222  10.213  0.6098  0.5885 -0.5580
  407MOL0    Cl53636   1.887   9.350  10.336  0.0317  0.1566  0.1231
  407MOL0     C53637   1.348   8.873   9.344  0.5236 -0.3097 -0.4939
  407MOL0     C53638   1.210   8.924   9.321 -0.4469  0.4331  0.5670
  407MOL0     O53639   1.119   9.286   9.272 -0.0988 -0.3343 -0.7917
  407MOL0     C53640   0.778   9.203   9.331  0.4830  0.5393  0.7299
  407MOL0     C53641   0.649   9.262   9.330  0.8701 -0.1666 -0.1401
  407MOL0     N53642   0.671   9.353   9.765 -0.0331 -0.1041  0.1609
  407MOL0     N53643   0.795   9.372   9.767 -0.2222  0.2347 -0.7354
  407MOL0     C53644   1.939   9.452   9.505  0.2259 -0.1040  0.8175
  407MOL0     C53645   2.073   9.478   9.522  0.1913  0.5572  0.0719
  407MOL0     C53646   2.497   9.386   9.716  0.2612  0.2186 -0.2068
  407MOL0     C53647   2.605   9.298   9.742 -0.5218 -1.0514 -1.0515
  407MOL0     C53648   2.724   9.344   9.815  0.6075 -0.1476 -1.1416
  407MOL0     C53649   2.739   9.469   9.853  0.4960 -0.7401 -0.2567
  407MOL0     O53650   2.848   9.520   9.918  0.5882  0.2698 -0.2550
  407MOL0     C53651   2.897   9.463  10.034 -0.0526  0.1627 -0.0156
  407MOL0     C53652   2.918   9.570  10.136  1.5356 -0.5402  0.4670
  407MOL0     C53653   2.834   9.538  10.256  0.1412  0.1906 -0.4094
  407MOL0     C53654   2.682   9.535  10.235  0.7088 -0.2502 -0.1271
  407MOL0     C53655   2.621   9.659  10.183  1.1502 -0.3212 -1.0700
  407MOL0     C53656   2.589   9.769  10.145 -0.6432  0.5654  0.3875
  407MOL0     C53657   2.634   9.563   9.812  1.0100 -0.3706 -0.1957
  407MOL0     C53658   2.519   9.522   9.744  0.1726  0.0176 -0.4417
  407MOL0     H53659   2.136   9.270   9.777  0.7112  0.2081  0.1953
  407MOL0     H53660   1.890   9.228   9.758  0.9040  1.3137  1.6129
  407MOL0     H53661   1.617   9.236   9.450  0.0493  0.0292  0.8492
  407MOL0     H53662   1.751   9.308   9.359  1.4315  0.8745  0.5364
  407MOL0     H53663   1.592   9.470   9.310 -1.5400  0.8721 -0.2231
  407MOL0     H53664   1.646   9.529   9.467 -2.6242 -0.6481  2.8458
  407MOL0     H53665   1.472   9.386   9.576 -0.2839 -4.0695 -2.0017
  407MOL0     H53666   1.395   9.370   9.417 -2.0810 -0.6487  3.4085
  407MOL0     H53667   1.438   9.644   9.536 -0.9852  2.4191 -2.4440
  407MOL0     H53668   1.361   9.595   9.379 -3.9506  2.7166  1.1241
  407MOL0     H53669   1.248   9.530   9.663  3.3852 -0.3545  0.0236
  407MOL0     H53670   1.222   9.422   9.521 -0.0774  0.5040 -2.0013
  407MOL0     H53671   1.132   9.639   9.405  0.5161  2.8596  1.2362
  407MOL0     H53672   1.145   9.721   9.551 -0.6709 -0.3451  0.4506
  407MOL0     H53673   0.900   9.618   9.513 -0.9167 -1.8416  1.5918
  407MOL0     H53674   0.981   9.460   9.515  0.7584 -0.3102 -2.4061
  407MOL0     H53675   0.966   9.664   9.744 -1.5627 -0.3088  0.6073
  407MOL0     H53676   1.032   9.502   9.756  2.0953  0.3748 -3.1986
  407MOL0     H53677   0.683   9.678   9.722  0.9661  0.4366  1.9541
  407MOL0     H53678   0.456   9.627   9.776  3.0855 -0.2822  1.5235
  407MOL0     H53679   0.395   9.462   9.798 -0.3704  2.4870  0.6886
  407MOL0     H53680   0.513   9.577   9.548  2.2590  0.0254  3.3470
  407MOL0     H53681   0.337   9.586   9.566  1.1554  1.4705 -0.5518
  407MOL0     H53682   0.491   9.316   9.548  0.6907  1.1311  0.1834
  407MOL0     H53683   0.319   9.347   9.546  0.7516 -0.7523  1.9799
  407MOL0     H53684   0.315   9.469   9.336 -0.2781 -1.0148 -1.5208
  407MOL0     H53685   0.374   9.311   9.324 -4.0279  0.7484 -1.0938
  407MOL0     H53686   0.731   9.561   9.212 -0.8748 -0.2535  1.2568
  407MOL0     H53687   0.938   9.463   9.180  0.6265 -0.3100 -0.1039
  407MOL0     H53688   1.200   9.189   9.530  1.6047  0.8568  0.0463
  407MOL0     H53689   1.447   9.116   9.563 -0.1371  1.7306 -1.6785
  407MOL0     H53690   1.629   9.033   9.601 -1.2149 -0.4680  1.2158
  407MOL0     H53691   1.734   8.907   9.569  0.6341  1.5877 -0.0060
  407MOL0     H53692   1.551   8.751   9.680  0.6287 -0.1937 -3.3513
  407MOL0     H53693   1.458   8.889   9.716 -0.4136 -1.5058  1.5161
  407MOL0     H53694   1.750   8.867   9.819  0.8236  2.8022  0.3875
  407MOL0     H53695   1.618   8.788   9.909 -2.2403  0.5560 -0.3019
  407MOL0     H53696   1.615   9.081   9.821  1.4244  0.9218  1.7070
  407MOL0     H53697   1.491   9.010   9.922 -0.2406  3.1440 -1.1073
  407MOL0     H53698   1.794   9.037   9.984 -1.2323  0.1024 -2.6884
  407MOL0     H53699   1.679   8.967  10.101  2.3168 -1.4301 -0.3464
  407MOL0     H53700   1.551   9.196  10.089  0.4699  1.5834  0.9492
  407MOL0     H53701   1.700   9.247  10.006 -2.2431 -1.4553 -2.1082
  407MOL0     H53702   1.660   9.291  10.254  0.1473 -0.2815  0.0655
  407MOL0     H53703   1.683   9.131  10.295  1.4518  0.5287  0.8192
  407MOL0     H53704   1.888   9.267  10.120 -0.3997  0.3026 -1.1089
  407MOL0     H53705   1.901   9.127  10.239 -1.2739  0.3542  2.6182
  407MOL0     H53706   1.396   8.786   9.301 -0.2930  0.0469 -2.2320
  407MOL0     H53707   1.158   8.862   9.250  1.1755 -1.7067  1.1437
  407MOL0     H53708   0.792   9.104   9.373 -0.1470 -0.2815 -0.9004
  407MOL0     H53709   0.564   9.209   9.373 -2.6577  3.3100 -2.1634
  407MOL0     H53710   1.879   9.509   9.435 -0.5268  0.9085  2.2377
  407MOL0     H53711   2.115   9.553   9.456  0.8891  1.0060  0.9997
  407MOL0     H53712   2.591   9.190   9.743  0.2332 -1.1647  0.4839
  407MOL0     H53713   2.798   9.267   9.833  2.3609  1.6054 -0.5346
  407MOL0     H53714   2.998   9.435  10.003  1.1156  1.1644  2.5615
  407MOL0     H53715   2.848   9.370  10.066 -0.7473 -0.1543 -1.8935
  407MOL0     H53716   3.022   9.561  10.168  1.3723 -2.4178  0.5813
  407MOL0     H53717   2.900   9.669  10.093  3.5860  0.6989  2.2708
  407MOL0     H53718   2.857   9.627  10.316 -3.1382  1.3831 -0.6769
  407MOL0     H53719   2.866   9.453  10.315  0.2570  0.4047 -0.1616
  407MOL0     H53720   2.641   9.453  10.175  3.7961 -2.8551  1.0490
  407MOL0     H53721   2.645   9.507  10.334  2.5020 -0.0602  0.6403
  407MOL0     H53722   2.557   9.871  10.135 -1.9857 -0.0232 -2.3443
  407MOL0     H53723   2.646   9.664   9.848  1.6188 -1.8569  4.5074
  407MOL0     H53724   2.445   9.597   9.719  0.0339 -0.4572 -1.5036
  408MOL0     O53725  10.575   2.766   6.354 -0.1299 -0.1066  0.7265
  408MOL0     C53726  10.588   2.734   6.470 -0.3333 -0.3351 -0.5969
  408MOL0     O53727  10.500   2.691   6.553  0.7881  0.0386  0.1114
  408MOL0     C53728  10.379   2.659   6.496  0.0059  0.1260 -0.0277
  408MOL0     C53729  10.292   2.735   6.409  0.2222  0.6015 -0.0521
  408MOL0     C53730  10.161   2.697   6.388  0.2529  0.8529 -0.0293
  408MOL0     C53731  10.108   2.582   6.433 -0.2877  0.8554  0.0494
  408MOL0     O53732   9.976   2.551   6.419 -0.4435 -0.6839 -0.5801
  408MOL0     C53733   9.933   2.406   6.425 -0.9946  0.9599 -0.0087
  408MOL0     C53734   9.778   2.391   6.409  0.5010 -0.5720 -0.0590
  408MOL0     C53735   9.706   2.483   6.516 -0.0767 -0.0798  0.4506
  408MOL0     C53736   9.556   2.459   6.511 -0.3029  0.3323 -0.2675
  408MOL0     C53737   9.507   2.320   6.542  0.2438  0.5884  1.0160
  408MOL0     C53738   9.352   2.323   6.516 -0.3624  0.0798 -0.2989
  408MOL0     C53739   9.318   2.297   6.372  0.1328 -1.0164 -0.0627
  408MOL0     C53740   9.172   2.344   6.337 -0.5141 -0.2906 -0.2396
  408MOL0     N53741   9.074   2.272   6.416 -0.6718  0.0605  0.1842
  408MOL0     C53742   9.004   2.323   6.524 -0.3083  0.0525 -0.3734
  408MOL0     C53743   8.901   2.235   6.551 -0.1791  0.3926  0.5937
  408MOL0     C53744   8.808   2.243   6.660  0.8929  0.6151 -0.0987
  408MOL0     C53745   8.709   2.350   6.646 -0.4255 -0.9961 -0.2396
  408MOL0     C53746   8.633   2.356   6.777  0.0540 -0.9601  0.3287
  408MOL0     C53747   8.500   2.433   6.762  0.4312  0.2059  0.2208
  408MOL0     O53748   8.394   2.351   6.698  0.3319 -0.4683  0.5924
  408MOL0     C53749   8.269   2.402   6.685 -0.6177  0.5322  0.4351
  408MOL0     C53750   8.202   2.489   6.774  0.8853  0.3397  0.2333
  408MOL0     C53751   8.063   2.522   6.747 -0.5761  0.9443 -0.3170
  408MOL0     C53752   7.990   2.471   6.638 -0.2082  0.2608 -0.1477
  408MOL0     C53753   7.845   2.498   6.609 -0.5986  0.0111  0.1768
  408MOL0     O53754   7.791   2.443   6.488  0.5745  0.4520  0.6704
  408MOL0     C53755   7.652   2.438   6.484 -0.7301  0.2882  0.2734
  408MOL0     C53756   7.569   2.546   6.424 -0.7964  0.2527  0.4854
  408MOL0     C53757   7.429   2.528   6.433 -0.6528 -0.3957 -0.2646
  408MOL0     C53758   7.374   2.404   6.482  0.1032  0.0455  0.5372
  408MOL0     O53759   7.246   2.378   6.490  0.4980  0.4764 -0.4156
  408MOL0     C53760   7.141   2.479   6.472  0.0517  0.0661  0.3271
  408MOL0     C53761   6.998   2.420   6.467  0.2304 -0.6903  0.5910
  408MOL0     C53762   6.890   2.524   6.442 -0.7678  0.3778  0.0725
  408MOL0     C53763   6.756   2.464   6.454  1.6014  0.4608 -0.0299
  408MOL0     C53764   6.643   2.565   6.430  0.0179  0.3840  1.2426
  408MOL0     C53765   6.506   2.508   6.432  0.4447 -0.4386 -1.4482
  408MOL0     C53766   6.449   2.476   6.573  0.2417  0.2626 -0.1955
  408MOL0     C53767   6.403   2.580   6.664 -0.1894 -0.3648  0.7535
  408MOL0    Cl53768   6.281   2.687   6.576 -0.2951  0.2009  0.5191
  408MOL0     C53769   7.462   2.299   6.529 -0.2740  0.1901  1.0427
  408MOL0     C53770   7.598   2.317   6.530 -0.7124 -0.6101  0.7343
  408MOL0     O53771   7.788   2.557   6.697 -0.1367 -0.1824 -1.1150
  408MOL0     C53772   8.055   2.388   6.554 -0.0464  0.1584  0.1276
  408MOL0     C53773   8.196   2.347   6.584 -0.3751 -0.6990  0.1360
  408MOL0     N53774   8.907   2.133   6.459  0.6615 -0.8585  0.0785
  408MOL0     N53775   9.000   2.161   6.375 -0.6268  0.3321 -0.2203
  408MOL0     C53776  10.195   2.495   6.507 -0.4625  0.2957  0.9379
  408MOL0     C53777  10.327   2.538   6.539 -0.4128 -0.5686 -0.1453
  408MOL0     C53778  10.710   2.791   6.528 -0.5886  1.0561  0.2147
  408MOL0     C53779  10.745   2.772   6.661 -0.1254 -0.2428  0.9713
  408MOL0     C53780  10.867   2.827   6.709 -0.1242  0.4437 -0.5684
  408MOL0     C53781  10.961   2.894   6.637 -0.5977 -0.7396  0.1671
  408MOL0     O53782  11.086   2.934   6.683  0.0703 -0.3630 -0.1717
  408MOL0     C53783  11.117   2.895   6.815 -0.6213  0.8788 -0.7237
  408MOL0     C53784  11.272   2.921   6.842 -0.1099  0.3168  0.6259
  408MOL0     C53785  11.324   2.899   6.984  0.9206  0.1105 -0.1635
  408MOL0     C53786  11.472   2.931   7.000 -0.6166 -0.4692 -0.4136
  408MOL0     C53787  11.500   3.076   6.988  0.7112  0.5136 -0.3378
  408MOL0     C53788  11.507   3.195   6.970  0.8142 -0.2628 -0.7738
  408MOL0     C53789  10.934   2.907   6.503 -0.3607  0.1601 -1.0710
  408MOL0     C53790  10.812   2.861   6.445  0.2278  0.2777 -0.1493
  408MOL0     H53791  10.327   2.831   6.372 -1.3254  1.3524  0.3298
  408MOL0     H53792  10.104   2.769   6.330 -0.2702  0.3612 -0.1268
  408MOL0     H53793   9.971   2.362   6.517  1.4734  0.4320 -1.1961
  408MOL0     H53794   9.988   2.349   6.349  1.4400  1.0317  1.5919
  408MOL0     H53795   9.745   2.293   6.444 -0.3044  0.5652  2.6301
  408MOL0     H53796   9.740   2.407   6.307  0.7799  1.1739  0.0685
  408MOL0     H53797   9.723   2.590   6.507  1.1168 -0.0009  2.7038
  408MOL0     H53798   9.738   2.455   6.617 -1.5431  2.0199  1.5675
  408MOL0     H53799   9.507   2.538   6.569  0.8530  1.1101 -0.3195
  408MOL0     H53800   9.523   2.478   6.409  0.6752  0.2346 -0.6033
  408MOL0     H53801   9.537   2.299   6.645 -1.0639 -3.9579  0.6687
  408MOL0     H53802   9.552   2.237   6.486  2.9217  1.1368  2.1751
  408MOL0     H53803   9.309   2.416   6.553 -0.5273 -0.9192  2.1919
  408MOL0     H53804   9.315   2.238   6.576 -0.1576  1.9917  2.7256
  408MOL0     H53805   9.386   2.354   6.307  0.4811  1.6925  2.4425
  408MOL0     H53806   9.322   2.192   6.345 -3.3663 -1.1154 -0.6623
  408MOL0     H53807   9.143   2.320   6.234 -1.6212  0.7099 -0.1913
  408MOL0     H53808   9.163   2.452   6.351  2.0469  0.1286 -1.3259
  408MOL0     H53809   9.012   2.419   6.575  0.6653 -1.2178  2.0136
  408MOL0     H53810   8.861   2.256   6.755 -2.2692  3.0170  1.5220
  408MOL0     H53811   8.753   2.152   6.684  1.2985  1.0471  2.9282
  408MOL0     H53812   8.651   2.337   6.555 -0.2833  2.5515 -0.9900
  408MOL0     H53813   8.762   2.446   6.640  0.0663 -1.0724  2.0189
  408MOL0     H53814   8.608   2.256   6.812 -2.6213 -0.6703 -0.4861
  408MOL0     H53815   8.701   2.413   6.841  0.9383  1.1001 -2.2288
  408MOL0     H53816   8.520   2.508   6.685 -3.0809  0.3095 -0.7926
  408MOL0     H53817   8.459   2.480   6.852 -0.8001 -2.6303  1.2829
  408MOL0     H53818   8.258   2.537   6.853  0.0745  2.9785 -0.6706
  408MOL0     H53819   8.023   2.595   6.816  1.1411 -0.6565  2.5500
  408MOL0     H53820   7.613   2.637   6.383  1.5996  0.0140  2.2893
  408MOL0     H53821   7.360   2.608   6.409 -1.1431 -1.0843 -1.1990
  408MOL0     H53822   7.157   2.527   6.375  1.1428 -1.8799 -0.5162
  408MOL0     H53823   7.144   2.559   6.547 -2.5441  1.0146 -0.4530
  408MOL0     H53824   6.992   2.369   6.564  2.1179 -2.4625 -0.1638
  408MOL0     H53825   6.989   2.340   6.393  2.2993  0.0453 -0.5286
  408MOL0     H53826   6.892   2.556   6.337 -1.5176  0.3299  0.0379
  408MOL0     H53827   6.902   2.601   6.518  3.0599 -0.3548  0.4179
  408MOL0     H53828   6.738   2.380   6.387 -1.3323  1.3743 -0.5518
  408MOL0     H53829   6.744   2.428   6.556  0.4693  0.1933 -0.2432
  408MOL0     H53830   6.663   2.616   6.335  0.7989  2.2324  2.3342
  408MOL0     H53831   6.657   2.647   6.501  0.3051  0.5812  0.9629
  408MOL0     H53832   6.505   2.418   6.371  1.7187 -0.7318 -1.0624
  408MOL0     H53833   6.427   2.577   6.399 -0.1837 -0.4185  0.0510
  408MOL0     H53834   6.358   2.416   6.564 -1.2820  2.7006 -2.3751
  408MOL0     H53835   6.516   2.408   6.627 -1.3594 -1.2672 -0.0467
  408MOL0     H53836   6.487   2.638   6.703 -1.2335  2.6999 -1.1626
  408MOL0     H53837   6.352   2.536   6.750  1.3955  0.8674  2.4028
  408MOL0     H53838   7.430   2.204   6.571  0.2716 -0.1290  0.7514
  408MOL0     H53839   7.669   2.249   6.575  0.8927  2.9199  4.2186
  408MOL0     H53840   8.013   2.352   6.461 -0.6940  2.1389 -0.3884
  408MOL0     H53841   8.255   2.272   6.534  1.3183  2.2984 -2.7006
  408MOL0     H53842  10.165   2.408   6.565 -1.6791  0.9157  1.2790
  408MOL0     H53843  10.390   2.481   6.606 -1.3137 -1.6463 -0.1869
  408MOL0     H53844  10.682   2.727   6.737  0.4744  1.2263  2.4119
  408MOL0     H53845  10.892   2.813   6.813  0.4507 -0.8675 -0.8619
  408MOL0     H53846  11.092   2.789   6.825  2.5985 -0.1612 -2.3215
  408MOL0     H53847  11.051   2.953   6.880 -0.7208  0.7753 -0.7326
  408MOL0     H53848  11.345   2.883   6.770  2.6735 -0.1136  3.4720
  408MOL0     H53849  11.272   3.030   6.839  0.8854  0.3026 -0.3669
  408MOL0     H53850  11.321   2.792   7.006  3.0889  0.2513  1.0603
  408MOL0     H53851  11.264   2.952   7.059 -0.2412  1.3511 -1.8931
  408MOL0     H53852  11.507   2.893   7.097  0.2565  3.9722  1.2810
  408MOL0     H53853  11.530   2.874   6.928 -1.9870  1.4595 -3.2153
  408MOL0     H53854  11.477   3.297   6.956 -0.5228 -0.5802 -0.3415
  408MOL0     H53855  11.002   2.946   6.427 -3.1580  3.3044 -2.1981
  408MOL0     H53856  10.790   2.879   6.341  0.6941  1.5186 -0.0463
  409MOL0     O53857   4.382  10.976  11.145 -0.0671 -0.3195 -0.7338
  409MOL0     C53858   4.384  10.857  11.167 -0.3909 -0.5538 -0.3846
  409MOL0     O53859   4.277  10.775  11.179  0.1021  0.7657  0.3546
  409MOL0     C53860   4.147  10.813  11.159  0.4085 -0.1129 -0.1012
  409MOL0     C53861   4.040  10.736  11.225  0.0835  0.5850 -0.1239
  409MOL0     C53862   3.908  10.785  11.226 -0.9426  0.2565 -1.5543
  409MOL0     C53863   3.867  10.898  11.164 -0.4799 -1.0901 -0.3297
  409MOL0     O53864   3.738  10.942  11.151 -0.6386 -0.6784 -0.0509
  409MOL0     C53865   3.636  10.897  11.239  0.0564  0.3960  0.8077
  409MOL0     C53866   3.524  10.998  11.209  0.2721  0.1481  0.5209
  409MOL0     C53867   3.404  10.961  11.289 -0.1917  0.4584  0.5537
  409MOL0     C53868   3.300  11.077  11.268  0.1560  1.0805 -0.6645
  409MOL0     C53869   3.157  11.024  11.265 -0.9204  0.4535 -0.1682
  409MOL0     C53870   3.061  11.135  11.239 -0.0204  0.6165 -0.6815
  409MOL0     C53871   2.922  11.087  11.239 -0.3500 -0.7724  0.6139
  409MOL0     C53872   2.836  11.204  11.233 -0.1080 -0.1359  0.8105
  409MOL0     N53873   2.695  11.161  11.198 -0.6693  0.3243  0.0858
  409MOL0     C53874   2.575  11.184  11.269  0.2391  0.2673 -0.7986
  409MOL0     C53875   2.481  11.114  11.203  0.0595  0.2124 -0.2140
  409MOL0     C53876   2.325  11.101  11.221 -0.6827  0.6007 -0.6167
  409MOL0     C53877   2.253  11.222  11.296  0.4178  1.2693  0.9168
  409MOL0     C53878   2.132  11.271  11.216  0.4634  0.7868 -0.4391
  409MOL0     C53879   2.172  11.379  11.119  0.2913 -0.3631 -0.0279
  409MOL0     O53880   2.056  11.452  11.078  0.0953  0.1291 -0.3482
  409MOL0     C53881   1.956  11.383  11.006 -0.0704 -0.9602  1.5469
  409MOL0     C53882   1.972  11.276  10.918  0.5928  1.0775  0.8432
  409MOL0     C53883   1.860  11.215  10.854  0.1833 -0.6151  0.1507
  409MOL0     C53884   1.733  11.273  10.864  0.1412  0.3643  0.2147
  409MOL0     C53885   1.605  11.219  10.811  0.3475 -0.3312 -0.1750
  409MOL0     O53886   1.483  11.272  10.836  0.5812 -0.2800 -0.4060
  409MOL0     C53887   1.372  11.229  10.763 -0.0647  0.0804  0.0276
  409MOL0     C53888   1.269  11.185  10.840 -0.0865 -1.7103 -0.1644
  409MOL0     C53889   1.146  11.155  10.772 -0.6690  1.7402  0.1983
  409MOL0     C53890   1.132  11.181  10.631  0.7293  0.2874  0.5021
  409MOL0     O53891   1.010  11.153  10.575  0.4143  0.3123 -0.3478
  409MOL0     C53892   0.978  11.225  10.450 -0.5891 -0.6040  0.8057
  409MOL0     C53893   0.834  11.253  10.442  0.9707  0.2807  0.7808
  409MOL0     C53894   0.746  11.132  10.401  0.2241  0.1464 -0.3844
  409MOL0     C53895   0.602  11.174  10.366 -0.0526 -0.2022  0.8525
  409MOL0     C53896   0.502  11.054  10.354 -1.0540 -0.2945  0.1541
  409MOL0     C53897   0.407  11.057  10.233  0.3977 -0.8756  0.0934
  409MOL0     C53898   0.352  10.920  10.211  0.0055  0.5899  0.6065
  409MOL0     C53899   0.275  10.908  10.084 -0.4927  0.0342 -0.4778
  409MOL0    Cl53900   0.216  10.738  10.057 -0.0758 -0.2873 -0.1394
  409MOL0     C53901   1.246  11.217  10.565 -0.1026  1.0955 -0.3263
  409MOL0     C53902   1.366  11.235  10.630  1.7625 -0.5260 -0.3049
  409MOL0     O53903   1.621  11.118  10.745  0.1963  0.0261  0.1123
  409MOL0     C53904   1.714  11.381  10.945 -0.5404 -0.4561 -0.8620
  409MOL0     C53905   1.826  11.436  11.017 -0.0565  0.5641  0.2125
  409MOL0     N53906   2.542  11.056  11.090 -0.6749 -0.0549 -0.3548
  409MOL0     N53907   2.667  11.097  11.080 -0.3480 -0.0394  1.2923
  409MOL0     C53908   3.963  10.981  11.100  0.0511  0.7357 -0.0538
  409MOL0     C53909   4.102  10.934  11.090 -0.4236  0.7451 -0.6167
  409MOL0     C53910   4.510  10.786  11.206 -0.7197  0.7622  0.6788
  409MOL0     C53911   4.634  10.852  11.225 -0.0580  0.0963  0.7104
  409MOL0     C53912   4.751  10.784  11.255 -0.2389  0.2482  0.0507
  409MOL0     C53913   4.743  10.647  11.279 -0.2481  0.1663  0.1915
  409MOL0     O53914   4.854  10.569  11.317 -0.6093 -0.7271 -0.3168
  409MOL0     C53915   4.989  10.608  11.277 -0.3674 -0.1091  0.7449
  409MOL0     C53916   5.058  10.688  11.386 -0.4768  0.3645  0.3419
  409MOL0     C53917   5.206  10.699  11.370  0.4791  1.3704 -0.3571
  409MOL0     C53918   5.280  10.777  11.479  0.2111 -0.5142 -0.4185
  409MOL0     C53919   5.293  10.918  11.451  0.0181 -0.1706 -0.7950
  409MOL0     C53920   5.299  11.035  11.421  0.2296  0.8207 -0.0695
  409MOL0     C53921   4.624  10.581  11.280 -0.1680 -0.3863  0.4451
  409MOL0     C53922   4.509  10.649  11.246  0.5010 -1.4546 -0.1340
  409MOL0     H53923   4.056  10.637  11.267  0.4777  0.6787 -0.0505
  409MOL0     H53924   3.841  10.714  11.272  2.3871 -0.0180  3.6633
  409MOL0     H53925   3.676  10.895  11.341  0.4406  0.0982  0.6525
  409MOL0     H53926   3.608  10.793  11.217 -1.8187  0.6737  1.6589
  409MOL0     H53927   3.508  11.005  11.101 -0.9539  0.0722  0.6823
  409MOL0     H53928   3.561  11.097  11.237 -0.3889  0.7484 -0.6255
  409MOL0     H53929   3.435  10.957  11.394  0.8949  1.2291  0.2783
  409MOL0     H53930   3.374  10.863  11.251  1.0338  0.3637 -0.2305
  409MOL0     H53931   3.315  11.152  11.347  0.2713  1.5403 -1.1218
  409MOL0     H53932   3.317  11.131  11.175  1.2750  0.4758 -0.8263
  409MOL0     H53933   3.137  10.979  11.363 -0.6510  2.7294  0.9923
  409MOL0     H53934   3.149  10.953  11.182 -2.6414 -1.8894  1.8372
  409MOL0     H53935   3.084  11.186  11.145 -0.2736  1.1629 -0.4560
  409MOL0     H53936   3.075  11.219  11.307 -0.1568 -0.1874  0.3617
  409MOL0     H53937   2.912  11.022  11.151 -3.8769  1.0048 -0.5290
  409MOL0     H53938   2.888  11.031  11.326  1.9584 -0.2161  1.9304
  409MOL0     H53939   2.881  11.266  11.155  0.9617 -0.9575  0.7581
  409MOL0     H53940   2.843  11.266  11.323 -0.0610  0.5401  0.3529
  409MOL0     H53941   2.573  11.238  11.363  1.4037 -3.6724  1.7204
  409MOL0     H53942   2.316  11.005  11.273  1.5030 -0.1184 -1.4426
  409MOL0     H53943   2.273  11.082  11.127 -1.3368 -2.1483  0.1934
  409MOL0     H53944   2.318  11.307  11.319 -0.8237  2.1416  1.2743
  409MOL0     H53945   2.219  11.184  11.393 -2.1041  1.3122  0.1145
  409MOL0     H53946   2.080  11.194  11.157  3.2670 -1.0054 -0.7761
  409MOL0     H53947   2.051  11.302  11.282 -0.4890 -0.0470 -1.1673
  409MOL0     H53948   2.227  11.334  11.036  0.6691 -0.8708  0.4899
  409MOL0     H53949   2.233  11.446  11.180 -2.3131 -0.0808  2.5104
  409MOL0     H53950   2.070  11.236  10.892  0.2317  0.2919  0.6435
  409MOL0     H53951   1.865  11.125  10.794  0.4279 -0.2108 -0.4518
  409MOL0     H53952   1.284  11.184  10.947  0.5508 -0.2221 -0.2125
  409MOL0     H53953   1.056  11.114  10.818 -0.9332  0.0419 -1.6777
  409MOL0     H53954   1.019  11.173  10.363  2.6132 -0.0925  1.8599
  409MOL0     H53955   1.033  11.320  10.446 -0.6717 -0.5264  1.3658
  409MOL0     H53956   0.829  11.326  10.360  1.1149 -1.4987 -0.9045
  409MOL0     H53957   0.803  11.300  10.536 -1.8088  1.0034 -0.3863
  409MOL0     H53958   0.748  11.056  10.480 -0.8558 -1.0830 -1.4845
  409MOL0     H53959   0.787  11.087  10.310 -0.2283  0.1919 -0.6118
  409MOL0     H53960   0.554  11.251  10.428 -0.4633  0.9868 -0.8737
  409MOL0     H53961   0.614  11.223  10.269 -1.5747 -2.6959 -0.7161
  409MOL0     H53962   0.458  11.037  10.453  1.3364  0.1361  1.3919
  409MOL0     H53963   0.564  10.964  10.345 -1.1163 -0.1604 -2.3555
  409MOL0     H53964   0.482  11.074  10.155 -1.0279  2.3741 -0.7505
  409MOL0     H53965   0.329  11.131  10.252  0.2032 -1.7013  3.0082
  409MOL0     H53966   0.433  10.847  10.205 -0.6681 -0.0347 -2.5131
  409MOL0     H53967   0.295  10.895  10.301  1.4711 -2.1799  0.8682
  409MOL0     H53968   0.331  10.931   9.994 -0.0286 -1.5149 -0.6075
  409MOL0     H53969   0.194  10.980  10.096  0.7737  1.3234  0.6772
  409MOL0     H53970   1.250  11.217  10.456 -0.5927 -3.5365 -0.5358
  409MOL0     H53971   1.446  11.271  10.567  1.0389  0.7573 -0.5448
  409MOL0     H53972   1.616  11.423  10.964  0.3852  2.0354 -1.2482
  409MOL0     H53973   1.820  11.518  11.088  1.8994  0.8893  0.0575
  409MOL0     H53974   3.928  11.074  11.056 -2.2739 -1.1989 -2.6967
  409MOL0     H53975   4.171  10.999  11.036 -0.2290 -1.0610 -2.7040
  409MOL0     H53976   4.634  10.960  11.234 -0.1096  0.1379  0.2248
  409MOL0     H53977   4.836  10.841  11.292 -1.0202 -0.5632  3.4366
  409MOL0     H53978   5.000  10.662  11.182  1.6916 -2.0426 -0.2146
  409MOL0     H53979   5.036  10.511  11.255  0.6031 -0.2164  3.0834
  409MOL0     H53980   5.015  10.788  11.388 -0.0728  0.5620 -0.3958
  409MOL0     H53981   5.032  10.638  11.480  0.9751 -0.9050  0.1004
  409MOL0     H53982   5.235  10.731  11.269  0.5205  0.6042 -0.5913
  409MOL0     H53983   5.247  10.598  11.374  1.8055  1.8518 -1.3011
  409MOL0     H53984   5.232  10.765  11.577  2.6591 -2.2146  0.6765
  409MOL0     H53985   5.382  10.739  11.492 -0.0898 -1.2909 -0.2425
  409MOL0     H53986   5.298  11.140  11.398  1.4695  0.8970  0.1245
  409MOL0     H53987   4.628  10.480  11.320 -0.4003 -1.7877 -2.7741
  409MOL0     H53988   4.417  10.592  11.251 -0.3658 -0.0712  0.1146
  410MOL0     O53989  10.636   8.304   5.133  0.6363 -0.2030 -1.1811
  410MOL0     C53990  10.734   8.364   5.176 -0.2355  0.4660  0.4643
  410MOL0     O53991  10.742   8.498   5.177 -0.5021  0.2532 -0.6186
  410MOL0     C53992  10.625   8.576   5.155 -0.8877 -0.3522 -0.3076
  410MOL0     C53993  10.565   8.654   5.257 -0.0806 -0.3545  0.2825
  410MOL0     C53994  10.462   8.742   5.227 -0.2506 -0.2566 -0.0797
  410MOL0     C53995  10.426   8.762   5.092 -0.0470  0.1703  0.2640
  410MOL0     O53996  10.325   8.844   5.069 -1.5117  0.5451 -0.4991
  410MOL0     C53997  10.230   8.794   4.973 -0.0329  0.7356  0.5410
  410MOL0     C53998  10.089   8.827   5.029  0.0719 -0.2969 -0.0533
  410MOL0     C53999   9.991   8.782   4.929  0.1019  0.4413  0.6455
  410MOL0     C54000   9.984   8.624   4.910  0.0860  0.3942 -0.5452
  410MOL0     C54001   9.867   8.594   4.823  0.0016  0.6172  1.1669
  410MOL0     C54002   9.726   8.618   4.892  0.7078  0.3330  0.5952
  410MOL0     C54003   9.615   8.629   4.788  0.4512  0.3863 -0.4463
  410MOL0     C54004   9.472   8.647   4.855  0.9946 -1.0619  0.3818
  410MOL0     N54005   9.363   8.643   4.759 -0.2806  0.2047  0.0858
  410MOL0     C54006   9.304   8.758   4.699 -0.7176 -0.6798  0.5536
  410MOL0     C54007   9.192   8.708   4.636 -0.3662  0.2306  0.5895
  410MOL0     C54008   9.093   8.785   4.544  0.4160 -0.3316 -0.4613
  410MOL0     C54009   8.977   8.810   4.638  0.8884 -0.6187 -0.3704
  410MOL0     C54010   8.873   8.888   4.551  0.1463 -0.2771 -0.8135
  410MOL0     C54011   8.748   8.926   4.631 -0.1932 -0.8516  0.0621
  410MOL0     O54012   8.660   8.814   4.651  0.0565 -0.3790 -0.1194
  410MOL0     C54013   8.556   8.830   4.738  0.1859 -0.8303 -0.1090
  410MOL0     C54014   8.513   8.950   4.794 -0.2860  0.4754 -0.9364
  410MOL0     C54015   8.381   8.952   4.847  0.5226  0.4007 -0.3200
  410MOL0     C54016   8.290   8.849   4.843  0.8078 -0.2923  0.5259
  410MOL0     C54017   8.146   8.859   4.898  0.3487 -0.4246  0.6693
  410MOL0     O54018   8.076   8.746   4.931  0.4537  0.1962  0.2395
  410MOL0     C54019   7.941   8.743   4.939 -0.6179  0.9032  0.2897
  410MOL0     C54020   7.881   8.624   4.887  0.0535 -0.1107 -0.3070
  410MOL0     C54021   7.750   8.601   4.900  0.2505  0.1686 -0.2709
  410MOL0     C54022   7.662   8.695   4.959  0.6148 -0.8066 -0.4379
  410MOL0     O54023   7.523   8.656   4.969  0.5042  0.0478  0.0314
  410MOL0     C54024   7.427   8.765   4.987 -0.0502 -0.0202 -0.7549
  410MOL0     C54025   7.295   8.697   5.007  0.7281  0.0369  0.0048
  410MOL0     C54026   7.190   8.806   5.044  0.3675  0.1882 -0.5600
  410MOL0     C54027   7.057   8.745   5.084  0.4259  0.4268  0.9309
  410MOL0     C54028   6.951   8.853   5.108 -0.5030  0.1280  0.1577
  410MOL0     C54029   6.819   8.792   5.143 -0.6725  0.4682  0.4617
  410MOL0     C54030   6.712   8.894   5.151  0.1424 -0.7774 -0.0849
  410MOL0     C54031   6.713   8.989   5.274  0.1595  0.1707 -0.6837
  410MOL0    Cl54032   6.856   9.099   5.289  0.2460 -0.2487  0.0141
  410MOL0     C54033   7.718   8.821   5.006  0.2293  1.0946  0.2842
  410MOL0     C54034   7.853   8.840   5.000  0.3107 -0.6416  0.3901
  410MOL0     O54035   8.099   8.973   4.881 -0.2806  0.0380 -0.4186
  410MOL0     C54036   8.337   8.734   4.789 -0.3889 -0.1983 -0.8879
  410MOL0     C54037   8.469   8.730   4.734  0.1928 -0.4962 -0.4133
  410MOL0     N54038   9.183   8.570   4.665 -0.0505 -0.3138 -0.7618
  410MOL0     N54039   9.278   8.540   4.741  0.0697  1.0242 -0.0366
  410MOL0     C54040  10.502   8.705   4.994  0.6341  0.1784  1.0445
  410MOL0     C54041  10.595   8.600   5.024 -0.4085 -0.9157 -0.3888
  410MOL0     C54042  10.851   8.288   5.234 -0.3525 -0.0489  0.6780
  410MOL0     C54043  10.872   8.149   5.221  0.1883  0.2317 -1.1214
  410MOL0     C54044  10.983   8.096   5.278 -0.7916  1.3248  0.2353
  410MOL0     C54045  11.077   8.174   5.350  0.1353  0.2774 -0.6256
  410MOL0     O54046  11.195   8.133   5.407 -0.2435  0.1096 -0.1294
  410MOL0     C54047  11.235   7.993   5.414  0.8304 -0.5775  0.7758
  410MOL0     C54048  11.315   7.968   5.285  0.2582  0.4514 -0.3178
  410MOL0     C54049  11.380   7.832   5.290 -0.4591  0.2718 -0.7327
  410MOL0     C54050  11.524   7.838   5.231 -0.4967  0.1575 -0.2196
  410MOL0     C54051  11.519   7.823   5.085 -0.5024  0.1794 -0.2424
  410MOL0     C54052  11.520   7.812   4.964  0.5715 -0.2283 -0.0743
  410MOL0     C54053  11.045   8.309   5.369 -0.4340  0.5466  0.2283
  410MOL0     C54054  10.936   8.370   5.309 -0.7173 -0.0815 -0.7213
  410MOL0     H54055  10.601   8.652   5.360 -1.9455  1.8661  1.0560
  410MOL0     H54056  10.406   8.791   5.306  0.7552  1.4724 -0.3748
  410MOL0     H54057  10.252   8.688   4.961  3.1006  1.2994  0.3288
  410MOL0     H54058  10.244   8.845   4.877 -2.5162  2.1597  0.8643
  410MOL0     H54059  10.080   8.934   5.047  0.4867 -0.4353  1.0759
  410MOL0     H54060  10.081   8.773   5.124  0.8592  0.3246  0.3786
  410MOL0     H54061  10.009   8.824   4.829 -2.2841  1.5349  0.5887
  410MOL0     H54062   9.895   8.826   4.957  0.3998  1.1578  0.5574
  410MOL0     H54063  10.083   8.595   4.871  1.3255 -0.3357  2.8191
  410MOL0     H54064   9.971   8.565   5.001 -1.0719 -1.2211 -1.6796
  410MOL0     H54065   9.870   8.488   4.794  0.6980  1.4775 -2.2869
  410MOL0     H54066   9.883   8.645   4.728 -0.1436 -0.3801  0.5941
  410MOL0     H54067   9.725   8.712   4.946 -1.1296  0.1610  0.9128
  410MOL0     H54068   9.698   8.538   4.961 -3.7473  0.7311 -0.4496
  410MOL0     H54069   9.633   8.716   4.724 -0.7425  1.4863  0.6477
  410MOL0     H54070   9.604   8.541   4.724 -1.6734 -0.3463  0.8107
  410MOL0     H54071   9.452   8.740   4.908 -1.6079 -1.0248 -0.5081
  410MOL0     H54072   9.461   8.563   4.925 -0.6162 -0.5388  0.8025
  410MOL0     H54073   9.355   8.853   4.693 -0.6404 -0.7421  0.1767
  410MOL0     H54074   9.062   8.730   4.455 -0.9948  1.0074 -0.8411
  410MOL0     H54075   9.149   8.875   4.517  1.8518 -1.1346 -0.2903
  410MOL0     H54076   9.011   8.884   4.711  1.2088  1.2591 -2.3383
  410MOL0     H54077   8.944   8.713   4.676  1.3338 -0.8911 -0.6705
  410MOL0     H54078   8.917   8.978   4.506 -1.4821 -0.2214 -2.3695
  410MOL0     H54079   8.843   8.824   4.468 -1.4309 -0.6760  0.0329
  410MOL0     H54080   8.688   8.992   4.567  2.2374  0.4890 -0.9727
  410MOL0     H54081   8.770   8.973   4.728 -1.2919 -1.4313  0.6173
  410MOL0     H54082   8.576   9.038   4.797  0.1896  0.1197 -0.4361
  410MOL0     H54083   8.336   9.039   4.893 -2.0851 -0.2106 -1.5460
  410MOL0     H54084   7.945   8.540   4.865  0.5578 -0.1349  1.1313
  410MOL0     H54085   7.722   8.507   4.855 -0.4212  0.8250 -1.2795
  410MOL0     H54086   7.431   8.830   4.899  3.6318 -1.0731 -1.5172
  410MOL0     H54087   7.449   8.816   5.082 -1.2112 -0.1499 -0.4060
  410MOL0     H54088   7.306   8.630   5.093  1.2059  1.5405  1.1493
  410MOL0     H54089   7.261   8.650   4.914  1.4080  1.1543 -0.8293
  410MOL0     H54090   7.180   8.868   4.954  4.5876 -5.0866 -5.4441
  410MOL0     H54091   7.235   8.854   5.132 -0.3345  0.2838 -0.2479
  410MOL0     H54092   7.026   8.675   5.005  0.5454  0.0398  1.2268
  410MOL0     H54093   7.070   8.682   5.172 -1.5517 -0.8981  0.3189
  410MOL0     H54094   6.938   8.902   5.011  0.3087  1.1514  0.5568
  410MOL0     H54095   7.000   8.917   5.182  1.2769 -0.1145 -0.7719
  410MOL0     H54096   6.829   8.738   5.237  0.9497  0.1244  0.1073
  410MOL0     H54097   6.797   8.709   5.075 -0.2490 -2.0451  3.2022
  410MOL0     H54098   6.700   8.955   5.062 -0.9230  1.0025  1.2007
  410MOL0     H54099   6.620   8.835   5.162  0.2570 -1.0054 -0.3624
  410MOL0     H54100   6.695   8.923   5.359  2.4513 -1.0530 -1.0624
  410MOL0     H54101   6.630   9.059   5.264  2.2009  2.4035 -4.5590
  410MOL0     H54102   7.652   8.895   5.050  1.2310  2.6178 -0.6643
  410MOL0     H54103   7.887   8.932   5.045 -1.1965 -0.3760  1.0300
  410MOL0     H54104   8.273   8.646   4.784 -0.9496  0.2377 -1.6609
  410MOL0     H54105   8.505   8.637   4.693 -5.5050 -1.5990 -4.0636
  410MOL0     H54106  10.477   8.727   4.891 -0.3300 -1.8007  0.7929
  410MOL0     H54107  10.650   8.552   4.944  1.2333  0.5752 -0.2028
  410MOL0     H54108  10.797   8.099   5.161 -1.2064  0.0159  0.7078
  410MOL0     H54109  10.994   7.990   5.262 -2.8700  0.2311  4.5967
  410MOL0     H54110  11.139   7.940   5.424 -1.7906  3.6440  0.3435
  410MOL0     H54111  11.302   7.981   5.500  2.0891 -0.9047 -0.2213
  410MOL0     H54112  11.255   7.963   5.194 -2.4265  2.5938  1.1533
  410MOL0     H54113  11.388   8.050   5.282  0.2838  0.4023 -3.1533
  410MOL0     H54114  11.311   7.762   5.241 -2.0358  2.1766 -1.3549
  410MOL0     H54115  11.391   7.793   5.391 -1.0933  1.9698  0.0239
  410MOL0     H54116  11.582   7.923   5.269 -0.1181 -0.6208  1.0348
  410MOL0     H54117  11.586   7.753   5.262  0.0091  1.1035  1.5412
  410MOL0     H54118  11.515   7.802   4.858 -0.4054 -0.6006 -0.0089
  410MOL0     H54119  11.092   8.364   5.450  0.2193  2.6983 -1.4992
  410MOL0     H54120  10.918   8.475   5.329 -0.8293 -0.0325 -1.0735
  411MOL0     O54121   0.944   2.023   5.225  0.3592 -0.2684 -0.7890
  411MOL0     C54122   0.927   2.094   5.327 -0.7841 -0.1506  0.4188
  411MOL0     O54123   0.806   2.132   5.378 -0.5397  0.2483  0.2746
  411MOL0     C54124   0.690   2.122   5.302  1.2010 -0.4571 -0.5567
  411MOL0     C54125   0.592   2.217   5.316 -0.4941 -1.3227  0.0333
  411MOL0     C54126   0.468   2.222   5.248  0.0985  0.5473  0.4727
  411MOL0     C54127   0.437   2.108   5.169  0.2196  0.1106  0.0229
  411MOL0     O54128   0.315   2.112   5.096 -0.0628  1.2732 -0.5384
  411MOL0     C54129   0.274   1.995   5.026 -0.6801 -0.0042  0.4816
  411MOL0     C54130   0.144   2.016   4.957  0.6426 -0.9049 -0.2024
  411MOL0     C54131   0.039   2.088   5.048 -0.1972  0.3629  0.2899
  411MOL0     C54132  -0.093   2.094   4.964  0.2599  0.2193  0.8883
  411MOL0     C54133  -0.200   2.165   5.045  0.1754  0.0179  0.2168
  411MOL0     C54134  -0.167   2.314   5.083  0.5571  0.3757  1.3212
  411MOL0     C54135  -0.293   2.390   5.125  0.2050 -0.9769 -0.6348
  411MOL0     C54136  -0.333   2.359   5.263 -0.2315 -0.0517 -0.3578
  411MOL0     N54137  -0.474   2.406   5.272  0.1896  0.1945  0.4083
  411MOL0     C54138  -0.577   2.318   5.247  0.3894 -0.8726  0.1429
  411MOL0     C54139  -0.685   2.383   5.293  0.1595  0.1855  0.1092
  411MOL0     C54140  -0.832   2.348   5.282 -0.4174  0.6756 -0.0614
  411MOL0     C54141  -0.918   2.473   5.260 -1.4032  0.0666 -0.1569
  411MOL0     C54142  -1.059   2.437   5.221  0.1941 -0.8590  0.2071
  411MOL0     C54143  -1.157   2.548   5.234  0.7801  0.2913 -0.2760
  411MOL0     O54144  -1.285   2.520   5.174  0.3826 -0.3869 -0.6498
  411MOL0     C54145  -1.400   2.494   5.239  0.0269  0.3692 -1.0798
  411MOL0     C54146  -1.427   2.510   5.377 -0.3007  0.4854  0.0808
  411MOL0     C54147  -1.550   2.513   5.435  0.7363  0.9933  0.0064
  411MOL0     C54148  -1.660   2.486   5.345  0.0352 -0.3386 -0.5533
  411MOL0     C54149  -1.801   2.485   5.403 -0.4293  0.1754  0.2754
  411MOL0     O54150  -1.893   2.471   5.312 -0.3646 -0.2314  0.4722
  411MOL0     C54151  -2.020   2.435   5.354 -0.1749  0.2230  0.0311
  411MOL0     C54152  -2.073   2.317   5.309  0.1020  0.0800  1.0871
  411MOL0     C54153  -2.207   2.286   5.335 -0.5375  0.4703 -0.2310
  411MOL0     C54154  -2.282   2.360   5.429 -0.8968 -0.0021 -0.3700
  411MOL0     O54155  -2.407   2.329   5.462  0.1460  0.3252  0.9572
  411MOL0     C54156  -2.514   2.386   5.391  0.2561 -0.6908  0.0091
  411MOL0     C54157  -2.493   2.380   5.239 -0.3180 -0.1184  0.2248
  411MOL0     C54158  -2.629   2.384   5.163 -0.8335  0.7698  0.1478
  411MOL0     C54159  -2.699   2.236   5.175 -0.3153 -1.1956  0.1142
  411MOL0     C54160  -2.848   2.248   5.142 -0.8075  0.3966 -0.5903
  411MOL0     C54161  -2.922   2.312   5.257  0.4067 -0.3474  0.9711
  411MOL0     C54162  -2.961   2.200   5.357  0.8737  0.5130  0.2287
  411MOL0     C54163  -2.997   2.268   5.486  0.7274  0.0988  0.7348
  411MOL0    Cl54164  -2.852   2.319   5.569 -0.0805  0.1647  0.2312
  411MOL0     C54165  -2.235   2.482   5.476  0.1338  0.1157  0.4588
  411MOL0     C54166  -2.101   2.518   5.441 -0.1365 -0.2890  0.6864
  411MOL0     O54167  -1.818   2.482   5.525 -0.5579 -0.6108  0.0173
  411MOL0     C54168  -1.640   2.477   5.209  0.4623  1.2080 -0.1898
  411MOL0     C54169  -1.515   2.483   5.159  0.3465 -0.3082 -0.0356
  411MOL0     N54170  -0.646   2.506   5.339  0.0344  0.1054  0.6174
  411MOL0     N54171  -0.516   2.513   5.345 -0.1152 -0.0739  0.7640
  411MOL0     C54172   0.530   1.998   5.157 -0.3571 -0.0824 -0.2727
  411MOL0     C54173   0.652   2.009   5.222 -0.3072 -0.4494  0.8049
  411MOL0     C54174   1.050   2.140   5.390 -0.1053 -0.2799  0.2292
  411MOL0     C54175   1.175   2.099   5.345  0.4111 -0.3034  0.5565
  411MOL0     C54176   1.292   2.145   5.405 -0.9817 -0.6485  0.5242
  411MOL0     C54177   1.282   2.242   5.498 -0.8094 -0.4803  0.4017
  411MOL0     O54178   1.402   2.293   5.542  0.5665 -0.1692  0.3814
  411MOL0     C54179   1.395   2.406   5.625 -0.2346  0.4690 -0.3666
  411MOL0     C54180   1.535   2.441   5.665 -0.6268 -0.4322  0.3061
  411MOL0     C54181   1.607   2.319   5.721 -0.9162 -0.6022  0.2615
  411MOL0     C54182   1.739   2.358   5.776  0.4414 -0.2890  0.0270
  411MOL0     C54183   1.724   2.440   5.902  0.1117 -1.2534  0.2777
  411MOL0     C54184   1.721   2.533   5.978 -0.2797  0.1729  0.5001
  411MOL0     C54185   1.159   2.284   5.541  0.8372  0.0258 -0.0803
  411MOL0     C54186   1.038   2.237   5.487  0.3450  0.0581 -0.1358
  411MOL0     H54187   0.595   2.309   5.374 -0.5316 -0.3048 -1.5136
  411MOL0     H54188   0.384   2.290   5.261 -0.7543  0.1769 -2.3495
  411MOL0     H54189   0.260   1.910   5.093 -0.6130 -1.3893 -1.2011
  411MOL0     H54190   0.358   1.967   4.962 -0.0068 -2.2233  2.1846
  411MOL0     H54191   0.101   1.918   4.937 -2.0753  0.5688 -2.1566
  411MOL0     H54192   0.156   2.051   4.854  0.2127  0.3978  0.1618
  411MOL0     H54193   0.066   2.189   5.080 -0.7369  0.6305 -0.0840
  411MOL0     H54194   0.013   2.030   5.138  1.5430 -2.1727 -0.7068
  411MOL0     H54195  -0.075   2.142   4.868 -2.2378 -3.1859 -1.5206
  411MOL0     H54196  -0.118   1.990   4.940 -1.2794  0.4811  1.2523
  411MOL0     H54197  -0.236   2.105   5.129  1.8851 -2.1638 -0.4973
  411MOL0     H54198  -0.292   2.161   4.987 -1.1477 -3.6552  2.2494
  411MOL0     H54199  -0.120   2.367   5.000 -0.7655 -2.1698 -1.1749
  411MOL0     H54200  -0.088   2.320   5.160  0.7094  1.8629  1.0921
  411MOL0     H54201  -0.290   2.498   5.112  2.5796 -0.1011  4.6602
  411MOL0     H54202  -0.381   2.366   5.065 -0.9332  1.9093 -0.2345
  411MOL0     H54203  -0.269   2.403   5.340 -1.1710 -2.0913  1.7312
  411MOL0     H54204  -0.330   2.252   5.289 -0.3856  0.2146  0.7902
  411MOL0     H54205  -0.578   2.212   5.223 -0.3000 -1.6340  3.1290
  411MOL0     H54206  -0.857   2.300   5.377  3.3722 -3.3109 -0.7422
  411MOL0     H54207  -0.843   2.278   5.199 -0.4966 -1.0993  1.3822
  411MOL0     H54208  -0.870   2.540   5.189  1.3003  0.7184  2.1061
  411MOL0     H54209  -0.915   2.518   5.360  0.9121 -1.8600  0.7253
  411MOL0     H54210  -1.049   2.412   5.114  0.5697  4.8291 -1.4347
  411MOL0     H54211  -1.097   2.358   5.287 -2.5238  1.2126  1.3220
  411MOL0     H54212  -1.115   2.630   5.175  0.3069  1.4155  0.9095
  411MOL0     H54213  -1.172   2.558   5.342  1.7970  1.6426 -0.2355
  411MOL0     H54214  -1.346   2.538   5.443 -0.2035 -0.7309  0.5026
  411MOL0     H54215  -1.566   2.496   5.541  0.6419 -2.8720 -0.4824
  411MOL0     H54216  -2.005   2.250   5.258 -0.8881  0.5785 -1.0253
  411MOL0     H54217  -2.242   2.188   5.305  1.1541 -0.3147  0.2753
  411MOL0     H54218  -2.525   2.488   5.428 -0.1481 -0.6445 -0.2293
  411MOL0     H54219  -2.608   2.335   5.415 -1.2329  0.6463 -2.6211
  411MOL0     H54220  -2.438   2.293   5.202 -3.5628 -1.0681 -2.9819
  411MOL0     H54221  -2.445   2.474   5.206 -1.2021 -0.3088 -1.7505
  411MOL0     H54222  -2.610   2.415   5.061  0.6234 -0.1834  0.1008
  411MOL0     H54223  -2.692   2.462   5.207 -0.7694  1.4500 -0.9357
  411MOL0     H54224  -2.660   2.176   5.092 -3.2761  0.1851 -2.4920
  411MOL0     H54225  -2.687   2.197   5.277 -2.1385 -2.6080 -0.1534
  411MOL0     H54226  -2.875   2.144   5.123  1.2246 -0.6807  1.6838
  411MOL0     H54227  -2.877   2.300   5.051 -1.8087 -0.8058 -0.9882
  411MOL0     H54228  -3.013   2.358   5.217  1.5707  1.1719 -0.0516
  411MOL0     H54229  -2.879   2.406   5.293 -3.5989  2.0698  0.1131
  411MOL0     H54230  -3.053   2.151   5.324 -0.6390  3.1740  0.1497
  411MOL0     H54231  -2.875   2.136   5.377 -0.2944 -1.7383 -1.5863
  411MOL0     H54232  -3.054   2.201   5.551 -1.0660  1.9048  1.1346
  411MOL0     H54233  -3.064   2.353   5.469  0.6604 -0.2483 -0.9165
  411MOL0     H54234  -2.293   2.547   5.541 -0.7846  0.1138 -0.3439
  411MOL0     H54235  -2.067   2.617   5.469 -0.9471  0.3399 -0.4446
  411MOL0     H54236  -1.723   2.459   5.143 -1.5952  2.6207  1.8692
  411MOL0     H54237  -1.510   2.483   5.051 -2.2687  0.8170 -0.2395
  411MOL0     H54238   0.517   1.913   5.091 -1.3268  0.8676 -1.3322
  411MOL0     H54239   0.712   1.920   5.210 -0.8768 -0.5258 -2.0696
  411MOL0     H54240   1.180   2.030   5.261  1.6762  0.1292  0.2504
  411MOL0     H54241   1.390   2.109   5.375  0.2286  2.0346  0.9531
  411MOL0     H54242   1.339   2.379   5.715 -1.1034  2.9617 -0.0665
  411MOL0     H54243   1.348   2.484   5.564 -1.9357 -2.6598 -3.4151
  411MOL0     H54244   1.591   2.482   5.580 -3.1364 -1.8508 -2.2182
  411MOL0     H54245   1.520   2.528   5.730 -2.4475  1.2897 -2.2581
  411MOL0     H54246   1.618   2.253   5.635 -2.7285 -3.0976  1.8210
  411MOL0     H54247   1.552   2.259   5.794  1.2225 -3.9762 -0.6629
  411MOL0     H54248   1.789   2.263   5.801  1.6219  0.0032 -1.0895
  411MOL0     H54249   1.805   2.411   5.706  0.7847 -0.7806 -0.0319
  411MOL0     H54250   1.748   2.599   6.058 -1.7671 -0.6131  1.6991
  411MOL0     H54251   1.156   2.351   5.627  2.4329 -0.2969  0.2570
  411MOL0     H54252   0.942   2.278   5.517  0.0675 -1.1966  0.7708
  412MOL0     O54253   6.248  10.732   2.002  0.2144  1.0154  0.2537
  412MOL0     C54254   6.248  10.609   1.987  0.0362 -0.0090  0.2213
  412MOL0     O54255   6.139  10.522   2.015  0.1443 -0.8355  0.7413
  412MOL0     C54256   6.030  10.546   2.092 -0.1669  0.0852  0.4233
  412MOL0     C54257   5.984  10.670   2.143 -0.1089  0.1841  0.5691
  412MOL0     C54258   5.868  10.680   2.220 -0.2973  0.3995  0.0267
  412MOL0     C54259   5.788  10.567   2.249 -0.0662 -0.1532  0.3128
  412MOL0     O54260   5.672  10.579   2.319  0.7052 -0.1071  0.2004
  412MOL0     C54261   5.554  10.516   2.257  0.0835  0.4000  0.4294
  412MOL0     C54262   5.426  10.554   2.330 -0.5983  0.2648  0.5663
  412MOL0     C54263   5.302  10.568   2.239 -0.9363  0.5277 -0.5213
  412MOL0     C54264   5.192  10.614   2.329 -0.3457  0.8619  0.1396
  412MOL0     C54265   5.065  10.591   2.260 -0.2013  0.1282 -0.3180
  412MOL0     C54266   4.949  10.654   2.342 -0.1995 -0.0723  0.5137
  412MOL0     C54267   4.817  10.621   2.264 -0.0033 -0.2684  0.9419
  412MOL0     C54268   4.688  10.657   2.340 -0.0246  0.0612 -0.5083
  412MOL0     N54269   4.649  10.799   2.293 -0.4201 -0.5432  0.2160
  412MOL0     C54270   4.730  10.905   2.283 -0.1733 -0.1724 -0.5051
  412MOL0     C54271   4.651  11.006   2.247 -0.6718  0.0470  0.0220
  412MOL0     C54272   4.706  11.146   2.226 -0.6588 -0.1168 -0.1207
  412MOL0     C54273   4.745  11.219   2.356 -0.4257  0.0650 -0.3706
  412MOL0     C54274   4.723  11.381   2.346  0.0391  0.0557 -0.0773
  412MOL0     C54275   4.789  11.466   2.459  0.4828  0.2600  0.7625
  412MOL0     O54276   4.929  11.473   2.434  0.6300 -0.0613  0.6079
  412MOL0     C54277   4.988  11.571   2.510  0.6893 -0.5094 -0.4805
  412MOL0     C54278   5.123  11.582   2.475 -0.3413  0.1117 -0.0657
  412MOL0     C54279   5.212  11.672   2.545  0.7403  1.3028  0.6227
  412MOL0     C54280   5.162  11.753   2.638  0.2625 -0.2036 -0.4093
  412MOL0     C54281   5.238  11.868   2.695 -0.3111  0.8039  0.4957
  412MOL0     O54282   5.164  11.985   2.715  0.3552  0.0666  1.0722
  412MOL0     C54283   5.233  12.101   2.731 -1.2358 -1.0060 -0.0223
  412MOL0     C54284   5.353  12.117   2.816  0.1439 -0.6928  0.4201
  412MOL0     C54285   5.384  12.240   2.868 -0.1099 -0.0931  0.5056
  412MOL0     C54286   5.307  12.350   2.820  0.5449  0.5076 -0.1087
  412MOL0     O54287   5.364  12.475   2.851  0.2727  0.6698  0.6149
  412MOL0     C54288   5.267  12.571   2.896  0.8665 -0.6056  0.2169
  412MOL0     C54289   5.319  12.711   2.930 -0.0610 -0.4384  0.4832
  412MOL0     C54290   5.388  12.771   2.803 -0.2131  0.2563  0.1774
  412MOL0     C54291   5.305  12.793   2.676 -0.2892  0.8367 -0.0712
  412MOL0     C54292   5.376  12.875   2.571 -0.6716  1.1167 -0.0809
  412MOL0     C54293   5.493  12.789   2.506 -0.7109 -0.2524 -0.5201
  412MOL0     C54294   5.440  12.664   2.443 -0.3372  1.0407  0.1068
  412MOL0     C54295   5.556  12.580   2.379 -0.7807 -0.8700  0.4750
  412MOL0    Cl54296   5.644  12.676   2.250 -0.1539 -0.5915  0.9312
  412MOL0     C54297   5.181  12.340   2.754 -1.1041  0.7068  0.1183
  412MOL0     C54298   5.155  12.218   2.698 -1.0654  0.1511  0.5741
  412MOL0     O54299   5.362  11.856   2.696  0.8003 -0.3615  0.8141
  412MOL0     C54300   5.023  11.742   2.678  0.3084  0.2479 -0.3726
  412MOL0     C54301   4.938  11.653   2.615  0.2265  0.8641  0.4839
  412MOL0     N54302   4.516  10.960   2.239  0.3629 -0.1852 -0.1287
  412MOL0     N54303   4.524  10.835   2.267 -0.3083  0.1133 -0.4624
  412MOL0     C54304   5.825  10.450   2.199  0.3397  0.7336  0.8486
  412MOL0     C54305   5.943  10.435   2.116 -0.0312 -0.6259 -0.6775
  412MOL0     C54306   6.370  10.544   1.945 -0.4178  0.5659 -0.0605
  412MOL0     C54307   6.386  10.407   1.937  0.5388  0.3363 -0.1416
  412MOL0     C54308   6.498  10.340   1.894 -0.2837 -0.4381  0.8793
  412MOL0     C54309   6.614  10.415   1.880 -0.0149 -0.5573 -0.1240
  412MOL0     O54310   6.731  10.353   1.841 -0.2401  0.0786  0.2355
  412MOL0     C54311   6.852  10.420   1.838  0.6329  0.2912 -0.5615
  412MOL0     C54312   6.939  10.337   1.754 -0.3492  0.8450 -0.3548
  412MOL0     C54313   6.940  10.186   1.794 -0.5530  0.4275 -1.0010
  412MOL0     C54314   7.017  10.091   1.711 -0.3272 -0.4578  0.7496
  412MOL0     C54315   7.071   9.986   1.796  0.3901  0.2635  0.1511
  412MOL0     C54316   7.126   9.921   1.880  0.0579 -0.3461 -0.1123
  412MOL0     C54317   6.616  10.549   1.916  0.2637  0.2493  0.6491
  412MOL0     C54318   6.490  10.616   1.931  0.4648  0.5706  0.2213
  412MOL0     H54319   6.042  10.760   2.123  3.4994 -1.9718  0.4492
  412MOL0     H54320   5.830  10.771   2.263 -2.8385 -1.1973  1.3779
  412MOL0     H54321   5.550  10.408   2.245 -2.8229  0.4912 -0.4027
  412MOL0     H54322   5.545  10.553   2.155  1.0941 -3.4390 -1.2284
  412MOL0     H54323   5.464  10.649   2.370  0.2097  0.9302 -1.6151
  412MOL0     H54324   5.407  10.487   2.414  2.8707 -2.8462 -0.8445
  412MOL0     H54325   5.276  10.471   2.196 -2.6221  0.5699  0.3069
  412MOL0     H54326   5.315  10.641   2.159  1.0342  2.4959  1.4444
  412MOL0     H54327   5.188  10.548   2.416 -0.1996 -0.7781 -1.0512
  412MOL0     H54328   5.198  10.715   2.369 -4.2781  1.1168  0.4222
  412MOL0     H54329   5.053  10.484   2.246  0.8432  0.1980 -1.9118
  412MOL0     H54330   5.077  10.639   2.163 -0.1847 -0.2562 -0.5070
  412MOL0     H54331   4.961  10.761   2.361 -1.9315  0.5570 -1.5376
  412MOL0     H54332   4.950  10.601   2.438  1.0893 -3.1814 -1.0975
  412MOL0     H54333   4.824  10.670   2.167  4.2322  0.9589  1.6444
  412MOL0     H54334   4.825  10.515   2.235  0.7384 -0.0103  0.1622
  412MOL0     H54335   4.694  10.671   2.448 -2.0124 -2.9462  0.1273
  412MOL0     H54336   4.602  10.591   2.325 -1.1598  0.9610  1.6457
  412MOL0     H54337   4.836  10.910   2.302  0.1347 -2.7096 -1.1264
  412MOL0     H54338   4.636  11.204   2.165  0.9542  0.9527 -1.0314
  412MOL0     H54339   4.798  11.144   2.167 -1.1516  2.0309 -1.0906
  412MOL0     H54340   4.848  11.191   2.383 -1.0282 -0.3232  1.7069
  412MOL0     H54341   4.676  11.181   2.432  0.3980 -0.2896  0.2217
  412MOL0     H54342   4.751  11.427   2.251 -2.7962  0.3436 -0.8729
  412MOL0     H54343   4.615  11.388   2.360  0.0200 -2.3476  1.5275
  412MOL0     H54344   4.768  11.424   2.558  2.0914 -0.0012  1.0076
  412MOL0     H54345   4.745  11.566   2.468 -0.6676 -0.3620  2.9384
  412MOL0     H54346   5.157  11.519   2.394  1.2011  0.1412  0.5229
  412MOL0     H54347   5.313  11.691   2.509 -0.5420  4.3270 -1.9088
  412MOL0     H54348   5.416  12.035   2.851 -0.3932 -2.3658 -2.2310
  412MOL0     H54349   5.466  12.257   2.936  1.0464  0.2038 -0.9109
  412MOL0     H54350   5.230  12.541   2.995  0.4583  2.2129  1.0031
  412MOL0     H54351   5.187  12.598   2.827  3.3621 -0.8941 -2.9999
  412MOL0     H54352   5.394  12.707   3.009 -0.0930 -0.9248  0.4938
  412MOL0     H54353   5.236  12.776   2.960 -1.3145 -1.7872  0.0595
  412MOL0     H54354   5.473  12.709   2.774  0.0407  1.4294 -1.7909
  412MOL0     H54355   5.427  12.869   2.834 -1.2737  0.3490  1.2865
  412MOL0     H54356   5.278  12.696   2.633 -0.5459  0.7109  0.3597
  412MOL0     H54357   5.217  12.854   2.698 -0.6587  0.5799 -0.8211
  412MOL0     H54358   5.424  12.958   2.624  0.9241 -0.8835  1.8117
  412MOL0     H54359   5.307  12.903   2.491 -0.3785  1.8633 -0.0824
  412MOL0     H54360   5.566  12.750   2.579 -0.7121 -2.9404 -1.8372
  412MOL0     H54361   5.551  12.848   2.433 -1.7548 -0.8341 -1.8539
  412MOL0     H54362   5.410  12.596   2.524  3.6512 -3.2558 -1.5412
  412MOL0     H54363   5.365  12.692   2.369  1.1262  2.2490 -0.9790
  412MOL0     H54364   5.517  12.496   2.322  0.1419 -0.0710 -1.4124
  412MOL0     H54365   5.625  12.545   2.457 -1.2956  0.3786  1.5346
  412MOL0     H54366   5.123  12.432   2.746 -0.0524  1.2965 -1.2430
  412MOL0     H54367   5.064  12.214   2.639 -1.4060  1.9301  0.9132
  412MOL0     H54368   4.975  11.790   2.763  2.0321  2.8828 -0.7653
  412MOL0     H54369   4.833  11.669   2.638 -0.7004 -0.7572 -2.1139
  412MOL0     H54370   5.754  10.369   2.196 -0.0538  1.0992 -1.0629
  412MOL0     H54371   5.976  10.342   2.070  2.6049  2.2628 -5.4692
  412MOL0     H54372   6.325  10.326   1.975  1.0174  1.4586  3.3856
  412MOL0     H54373   6.515  10.233   1.896  1.1223 -0.2953 -1.0074
  412MOL0     H54374   6.876  10.429   1.944  1.6993  1.3073 -0.8602
  412MOL0     H54375   6.845  10.517   1.787  2.0071 -0.0413 -1.4442
  412MOL0     H54376   6.893  10.350   1.656 -0.5938 -0.2154 -0.3997
  412MOL0     H54377   7.042  10.372   1.747 -0.7305  2.1968  0.5221
  412MOL0     H54378   6.837  10.150   1.807 -0.5932  1.2153  1.3661
  412MOL0     H54379   6.989  10.182   1.892  0.7582  2.0844 -1.5434
  412MOL0     H54380   6.944  10.054   1.638 -0.3859 -1.9305  1.5105
  412MOL0     H54381   7.098  10.133   1.651 -1.2791 -1.4869 -1.3651
  412MOL0     H54382   7.177   9.858   1.950  1.6593  1.0611  0.0672
  412MOL0     H54383   6.707  10.606   1.901 -0.3762  0.4438 -4.0241
  412MOL0     H54384   6.485  10.724   1.929  3.7666  0.8561  1.4911
  413MOL0     O54385   0.554   2.155   3.874  0.4315  0.8586  0.0770
  413MOL0     C54386   0.561   2.249   3.950  0.0926  0.8271  0.9269
  413MOL0     O54387   0.473   2.346   3.968  0.6399 -0.2559  0.5481
  413MOL0     C54388   0.361   2.341   3.886  0.0598 -0.2784  0.3101
  413MOL0     C54389   0.240   2.279   3.925 -0.7708 -0.7540  0.4073
  413MOL0     C54390   0.146   2.255   3.826  0.2726  0.0918 -0.0654
  413MOL0     C54391   0.157   2.290   3.698  0.6404 -0.3441  0.7654
  413MOL0     O54392   0.054   2.271   3.606 -0.4363  0.0001  0.3510
  413MOL0     C54393   0.006   2.374   3.516 -0.9997 -0.4974  0.0188
  413MOL0     C54394  -0.110   2.328   3.429  0.5882  0.4978 -0.1983
  413MOL0     C54395  -0.241   2.300   3.513 -0.4828  0.5441  0.3917
  413MOL0     C54396  -0.375   2.260   3.435 -0.6677  0.4745  0.1890
  413MOL0     C54397  -0.486   2.274   3.539  0.0872 -0.0243 -0.0214
  413MOL0     C54398  -0.628   2.243   3.501 -0.2350  0.2471  0.6089
  413MOL0     C54399  -0.731   2.265   3.613 -0.2884  0.6171 -0.2520
  413MOL0     C54400  -0.871   2.242   3.570 -0.3143 -0.3877 -0.4292
  413MOL0     N54401  -0.954   2.302   3.682 -0.9361  0.0199  1.0690
  413MOL0     C54402  -0.986   2.242   3.802 -0.2272  0.3052  0.0538
  413MOL0     C54403  -1.059   2.336   3.866 -0.3847  0.3404 -1.1930
  413MOL0     C54404  -1.095   2.318   4.016  0.2704  0.2674  0.5931
  413MOL0     C54405  -1.241   2.359   4.051 -0.0114 -0.0644  0.2946
  413MOL0     C54406  -1.359   2.271   4.002 -0.3964  0.3229  1.0338
  413MOL0     C54407  -1.370   2.141   4.082  0.2041  0.1591 -0.0676
  413MOL0     O54408  -1.253   2.068   4.062  0.5421  0.6207  1.0449
  413MOL0     C54409  -1.240   1.948   4.135  0.2158  0.2665 -0.0778
  413MOL0     C54410  -1.345   1.894   4.208 -0.0477  0.1901 -0.4458
  413MOL0     C54411  -1.332   1.769   4.269  0.0206 -0.6808  0.5187
  413MOL0     C54412  -1.210   1.691   4.257 -0.3023  0.2481  0.2214
  413MOL0     C54413  -1.196   1.550   4.304 -0.1609 -0.6435 -0.0250
  413MOL0     O54414  -1.084   1.479   4.272 -0.0125 -0.6542  0.0634
  413MOL0     C54415  -1.075   1.340   4.296  0.1008 -0.0756  0.0953
  413MOL0     C54416  -1.032   1.264   4.186  0.2549 -1.1301 -0.8509
  413MOL0     C54417  -1.024   1.125   4.193  0.9349 -0.2389 -0.6842
  413MOL0     C54418  -1.073   1.066   4.316 -0.6597 -0.7134  0.4738
  413MOL0     O54419  -1.084   0.931   4.333 -0.9701  0.7016 -0.1932
  413MOL0     C54420  -0.992   0.848   4.260  0.9485 -0.9619  0.6546
  413MOL0     C54421  -0.967   0.711   4.332 -0.0753  1.0729  0.5644
  413MOL0     C54422  -0.853   0.644   4.242  0.8356  0.2376 -0.1948
  413MOL0     C54423  -0.823   0.509   4.296  0.6606  0.8489  0.1828
  413MOL0     C54424  -0.710   0.446   4.211  0.4734  0.3413  0.6380
  413MOL0     C54425  -0.600   0.532   4.168 -0.6238 -0.5535  0.3945
  413MOL0     C54426  -0.519   0.583   4.289 -0.1932  0.1493 -0.1635
  413MOL0     C54427  -0.488   0.479   4.399  0.2487 -0.2589  0.2863
  413MOL0    Cl54428  -0.365   0.558   4.506 -0.4048 -0.0060  0.2165
  413MOL0     C54429  -1.111   1.141   4.425 -0.2606 -0.3862 -0.5136
  413MOL0     C54430  -1.107   1.279   4.418 -0.7326  0.5463  0.8087
  413MOL0     O54431  -1.294   1.512   4.369 -0.0960 -0.2131  0.9525
  413MOL0     C54432  -1.103   1.753   4.177  0.3612 -0.0170  0.5949
  413MOL0     C54433  -1.118   1.876   4.121  0.1768 -0.4433 -0.5524
  413MOL0     N54434  -1.063   2.456   3.803  0.5107 -0.4319  0.0190
  413MOL0     N54435  -1.001   2.430   3.690  0.4610 -0.5515  0.2307
  413MOL0     C54436   0.272   2.357   3.655  0.8417 -1.3823  0.5862
  413MOL0     C54437   0.371   2.383   3.750 -0.0370  1.0079 -0.3508
  413MOL0     C54438   0.663   2.235   4.047 -0.0543  0.3275  0.4671
  413MOL0     C54439   0.689   2.110   4.102  0.6854 -0.2692  0.9310
  413MOL0     C54440   0.791   2.093   4.198  0.1692 -0.0094  1.4482
  413MOL0     C54441   0.875   2.209   4.212  0.8079 -0.2106  0.4952
  413MOL0     O54442   0.998   2.195   4.271 -0.0166 -0.0907  0.8601
  413MOL0     C54443   1.083   2.101   4.198 -1.1755  0.1119  0.1109
  413MOL0     C54444   1.195   2.074   4.290  1.0412 -0.4985  0.5987
  413MOL0     C54445   1.164   1.996   4.421  0.5682  0.9338  0.0300
  413MOL0     C54446   1.299   1.959   4.480 -0.7594  0.1278 -0.7145
  413MOL0     C54447   1.394   2.079   4.507  0.2803 -0.1374 -0.4130
  413MOL0     C54448   1.461   2.174   4.535  0.6903  0.4047  1.0589
  413MOL0     C54449   0.862   2.318   4.134  0.1267 -0.1851  1.0582
  413MOL0     C54450   0.745   2.344   4.067  0.2906 -0.2890  1.4806
  413MOL0     H54451   0.234   2.255   4.030  2.2751 -1.2084  0.5779
  413MOL0     H54452   0.048   2.215   3.849  0.4915 -0.5360 -0.2005
  413MOL0     H54453   0.087   2.411   3.452  0.2555  0.6926  2.1777
  413MOL0     H54454  -0.033   2.459   3.572 -1.5628  2.3566 -4.2272
  413MOL0     H54455  -0.088   2.237   3.373  1.7391 -0.1629  1.2628
  413MOL0     H54456  -0.127   2.408   3.356  2.8362  1.1600 -0.0768
  413MOL0     H54457  -0.256   2.396   3.562  1.4040  3.2641 -3.7638
  413MOL0     H54458  -0.221   2.219   3.584  1.3883 -2.6845 -3.3864
  413MOL0     H54459  -0.397   2.341   3.365  1.5984  1.2471  0.2897
  413MOL0     H54460  -0.386   2.162   3.387  0.3964  0.5929 -0.3211
  413MOL0     H54461  -0.482   2.378   3.573  0.8530  0.6828 -2.1363
  413MOL0     H54462  -0.448   2.223   3.628  0.6902  0.1792 -0.1561
  413MOL0     H54463  -0.623   2.136   3.481 -0.0037  0.5725 -1.3622
  413MOL0     H54464  -0.662   2.293   3.409  1.3104 -0.4340 -0.3797
  413MOL0     H54465  -0.710   2.193   3.693 -1.2845  1.1256  0.4832
  413MOL0     H54466  -0.719   2.363   3.659 -0.4745 -0.2624  1.7881
  413MOL0     H54467  -0.894   2.135   3.559  2.5628 -1.1123 -0.2728
  413MOL0     H54468  -0.902   2.298   3.481  0.9639 -0.3574 -0.8754
  413MOL0     H54469  -0.969   2.144   3.846 -0.3686 -0.0289 -0.6216
  413MOL0     H54470  -1.018   2.388   4.048  0.6368  0.8363 -1.4034
  413MOL0     H54471  -1.070   2.221   4.058 -0.1641  0.0349  0.3244
  413MOL0     H54472  -1.255   2.464   4.027  1.4549  0.2061  0.5188
  413MOL0     H54473  -1.237   2.361   4.160  0.9548  2.8075  0.2666
  413MOL0     H54474  -1.451   2.330   4.008 -1.4275 -1.3019  2.0360
  413MOL0     H54475  -1.343   2.259   3.895 -0.3746 -0.0297  1.0762
  413MOL0     H54476  -1.454   2.083   4.044 -1.1927  0.9807  1.5748
  413MOL0     H54477  -1.372   2.174   4.187  1.4902  1.0501 -0.3019
  413MOL0     H54478  -1.442   1.941   4.218 -0.3172 -0.4068 -0.2461
  413MOL0     H54479  -1.416   1.722   4.319 -0.0217 -2.2270 -0.9226
  413MOL0     H54480  -1.004   1.318   4.096 -0.9915 -1.8538 -1.6939
  413MOL0     H54481  -0.985   1.077   4.104 -2.0738 -1.3665 -1.5441
  413MOL0     H54482  -0.895   0.892   4.234  1.7836 -1.1692  3.1397
  413MOL0     H54483  -1.056   0.829   4.173 -0.1939  1.1806  0.9664
  413MOL0     H54484  -1.063   0.658   4.325 -0.5310  1.1788  4.3329
  413MOL0     H54485  -0.943   0.723   4.438 -1.9969  1.2738  1.0134
  413MOL0     H54486  -0.757   0.696   4.248  1.5305 -0.7427 -1.8807
  413MOL0     H54487  -0.898   0.638   4.142  0.0556  2.0132  0.0190
  413MOL0     H54488  -0.788   0.517   4.399  1.2130 -3.0543  0.4832
  413MOL0     H54489  -0.909   0.441   4.293 -0.6773  2.5016  0.0882
  413MOL0     H54490  -0.751   0.420   4.113  3.5241 -1.0982 -0.3803
  413MOL0     H54491  -0.677   0.350   4.252 -1.8055  0.0885  2.0540
  413MOL0     H54492  -0.634   0.620   4.112 -1.8479 -1.2648 -0.0196
  413MOL0     H54493  -0.537   0.472   4.102  2.9576  1.4203  1.7321
  413MOL0     H54494  -0.432   0.625   4.238 -0.1257  0.3833  0.1432
  413MOL0     H54495  -0.563   0.675   4.329 -1.5277  0.7321 -2.7750
  413MOL0     H54496  -0.438   0.391   4.357 -0.5402 -0.7170  0.2980
  413MOL0     H54497  -0.579   0.456   4.455  1.8715 -0.4567  3.0619
  413MOL0     H54498  -1.144   1.076   4.505  5.2919 -1.3218  1.4460
  413MOL0     H54499  -1.134   1.346   4.498 -2.1310 -0.7632  1.4919
  413MOL0     H54500  -1.010   1.698   4.163 -0.8594 -2.7022  2.1339
  413MOL0     H54501  -1.037   1.932   4.075  1.0149  1.9590  3.3416
  413MOL0     H54502   0.273   2.383   3.550 -1.2715  0.3920  0.9357
  413MOL0     H54503   0.468   2.426   3.725  1.2315 -0.2522  1.9891
  413MOL0     H54504   0.620   2.028   4.081  0.2329  0.8960 -2.9385
  413MOL0     H54505   0.798   2.000   4.253  1.3846 -0.2728  0.8985
  413MOL0     H54506   1.111   2.156   4.108 -2.4014  2.7688  1.2307
  413MOL0     H54507   1.028   2.013   4.163  0.2684 -0.0721 -1.8306
  413MOL0     H54508   1.272   2.020   4.234  1.6205 -0.1251  1.0314
  413MOL0     H54509   1.232   2.174   4.314  0.6427 -0.7813  2.5285
  413MOL0     H54510   1.096   1.914   4.398  2.2323  0.0947 -2.2542
  413MOL0     H54511   1.123   2.071   4.490  1.6652  2.3778 -0.8373
  413MOL0     H54512   1.291   1.912   4.579  3.8510 -1.9024 -1.0318
  413MOL0     H54513   1.347   1.885   4.415 -1.8262 -1.5278  0.3168
  413MOL0     H54514   1.520   2.254   4.573 -0.3998  3.0892 -2.3972
  413MOL0     H54515   0.930   2.403   4.143 -1.1382  0.8366  1.2135
  413MOL0     H54516   0.728   2.445   4.031  2.7003  0.2584  1.6772
  414MOL0     O54517   9.251  10.117   3.644 -0.6354  0.1981 -0.6892
  414MOL0     C54518   9.266  10.068   3.759  0.4259 -0.3641 -0.0557
  414MOL0     O54519   9.165  10.034   3.841 -0.4083  0.0152  0.1593
  414MOL0     C54520   9.032  10.048   3.804  0.6013  0.2228 -0.3113
  414MOL0     C54521   8.974   9.966   3.697 -0.7912  0.6425 -0.0100
  414MOL0     C54522   8.840   9.968   3.673  0.2212  0.6395 -0.3311
  414MOL0     C54523   8.758  10.059   3.744 -0.9451  0.3685  0.0608
  414MOL0     O54524   8.627  10.049   3.725  0.0198 -0.8411  1.0689
  414MOL0     C54525   8.573   9.932   3.774  0.3972  1.0641 -0.3596
  414MOL0     C54526   8.434   9.908   3.726 -0.1740  0.3905 -0.3685
  414MOL0     C54527   8.375   9.771   3.780 -0.3270  0.2639 -1.1361
  414MOL0     C54528   8.228   9.767   3.749  0.1917  0.3519  0.0484
  414MOL0     C54529   8.156   9.627   3.755  0.9236 -0.5806 -0.1610
  414MOL0     C54530   8.209   9.523   3.652  0.2618 -0.5585 -0.7690
  414MOL0     C54531   8.168   9.563   3.513  0.2504  0.5394 -0.0806
  414MOL0     C54532   8.193   9.437   3.435  0.3480  0.1333 -1.4106
  414MOL0     N54533   8.163   9.455   3.295 -0.3029  1.1988  0.1281
  414MOL0     C54534   8.032   9.454   3.249  0.5937  0.1984 -1.5694
  414MOL0     C54535   8.046   9.433   3.113 -0.0608 -0.2979 -0.4537
  414MOL0     C54536   7.945   9.456   3.003 -0.6035 -0.4080  0.1192
  414MOL0     C54537   7.830   9.359   3.023  0.9215 -0.5146 -0.6147
  414MOL0     C54538   7.736   9.334   2.905  0.1713 -1.0864 -0.2016
  414MOL0     C54539   7.623   9.240   2.933  0.8031  0.2731  0.0153
  414MOL0     O54540   7.551   9.271   3.054 -0.9667  0.1726  0.8744
  414MOL0     C54541   7.430   9.222   3.073  0.2000  0.4831  0.0751
  414MOL0     C54542   7.414   9.093   3.126  0.2374  1.3216  0.4661
  414MOL0     C54543   7.287   9.040   3.141  0.6107  0.3919  0.6302
  414MOL0     C54544   7.176   9.123   3.138  0.3188 -0.2275 -0.0250
  414MOL0     C54545   7.043   9.082   3.186 -0.3992  0.0540  0.1349
  414MOL0     O54546   7.003   8.953   3.161 -0.7401 -0.2363 -0.1577
  414MOL0     C54547   6.872   8.931   3.183  0.2158 -0.0525  0.5194
  414MOL0     C54548   6.774   9.013   3.120  0.4020 -0.1617  0.3762
  414MOL0     C54549   6.647   8.974   3.127 -0.1478  0.2242 -0.9495
  414MOL0     C54550   6.606   8.871   3.205 -0.4053 -0.1743  0.7559
  414MOL0     O54551   6.477   8.821   3.214  0.1911 -0.6236  0.3015
  414MOL0     C54552   6.368   8.922   3.221 -0.0633 -0.2898  0.5358
  414MOL0     C54553   6.237   8.868   3.288  0.5089  0.0566  0.9703
  414MOL0     C54554   6.187   8.752   3.205 -0.4170 -1.3746 -0.0276
  414MOL0     C54555   6.040   8.723   3.232 -1.3259  0.3252 -0.6338
  414MOL0     C54556   5.985   8.606   3.160  0.7244  0.3244 -0.0921
  414MOL0     C54557   5.831   8.608   3.184 -0.0498  0.5794  0.1838
  414MOL0     C54558   5.787   8.544   3.319  0.0262  0.0097  0.9460
  414MOL0     C54559   5.637   8.512   3.307 -0.3762  0.2480 -0.2332
  414MOL0    Cl54560   5.594   8.424   3.461 -0.5654  0.4018 -0.1548
  414MOL0     C54561   6.701   8.798   3.270  0.1340  0.7381 -0.4849
  414MOL0     C54562   6.836   8.819   3.258  0.1074  0.1725  0.8750
  414MOL0     O54563   6.989   9.163   3.263 -0.5916  0.0302 -0.5190
  414MOL0     C54564   7.196   9.261   3.109 -0.9339 -0.1741  0.0238
  414MOL0     C54565   7.324   9.306   3.083 -1.0430 -0.1319 -0.0743
  414MOL0     N54566   8.181   9.410   3.084 -0.7015 -0.6367  0.0438
  414MOL0     N54567   8.248   9.421   3.193 -0.4702 -0.4895 -0.3587
  414MOL0     C54568   8.816  10.135   3.849  0.5265 -0.2270  1.1134
  414MOL0     C54569   8.953  10.134   3.873 -0.4352 -0.0488 -0.4313
  414MOL0     C54570   9.407  10.056   3.796  0.1148 -0.1284  0.6628
  414MOL0     C54571   9.459   9.971   3.896  0.4608  1.0408  0.2937
  414MOL0     C54572   9.598   9.952   3.928  0.1603 -0.4579  0.3692
  414MOL0     C54573   9.694  10.016   3.862  0.6466  0.1285 -0.2283
  414MOL0     O54574   9.820   9.991   3.900  0.0092  0.3044 -0.6516
  414MOL0     C54575   9.930  10.022   3.811 -0.6450  0.2426 -0.0467
  414MOL0     C54576  10.053   9.963   3.868 -0.8320  0.2735 -0.2829
  414MOL0     C54577  10.091  10.010   4.007 -0.5882 -0.0612  0.3930
  414MOL0     C54578  10.213   9.931   4.052  0.4909  0.5373 -0.7925
  414MOL0     C54579  10.278   9.995   4.162  1.0746 -0.1917 -0.6493
  414MOL0     C54580  10.308  10.052   4.267 -0.4999 -1.6938  0.1698
  414MOL0     C54581   9.649  10.103   3.759 -0.1303 -0.5265 -0.0612
  414MOL0     C54582   9.509  10.114   3.729  0.4845 -0.2135 -0.4721
  414MOL0     H54583   9.049   9.907   3.646  0.3782  1.0075  1.2213
  414MOL0     H54584   8.799   9.891   3.608  1.7347  0.0530 -0.6358
  414MOL0     H54585   8.564   9.939   3.882 -3.9661 -1.0657 -0.3548
  414MOL0     H54586   8.638   9.847   3.748  1.0514  0.2670  3.3243
  414MOL0     H54587   8.421   9.916   3.617  0.7032 -1.8650 -0.6920
  414MOL0     H54588   8.378   9.983   3.782  0.5563 -0.5602  1.7174
  414MOL0     H54589   8.385   9.756   3.888 -0.3273 -0.4769 -1.2320
  414MOL0     H54590   8.435   9.696   3.727  0.9214  1.0391 -0.8570
  414MOL0     H54591   8.194   9.839   3.824  0.6244  0.3820  0.2194
  414MOL0     H54592   8.216   9.818   3.653  0.5699  1.0802  0.3755
  414MOL0     H54593   8.051   9.655   3.747  1.7573  2.7216 -1.3228
  414MOL0     H54594   8.169   9.584   3.855  0.1426 -2.1687 -0.7000
  414MOL0     H54595   8.169   9.426   3.683 -0.1209 -0.8722 -2.1678
  414MOL0     H54596   8.317   9.521   3.667  0.2754  0.3197 -0.7085
  414MOL0     H54597   8.062   9.590   3.512 -1.1750 -4.1882  0.1954
  414MOL0     H54598   8.236   9.638   3.471  1.5443 -1.3907 -1.6382
  414MOL0     H54599   8.119   9.365   3.473  1.3359  0.5408  1.5723
  414MOL0     H54600   8.295   9.398   3.442  0.1010 -0.3215  0.1745
  414MOL0     H54601   7.938   9.470   3.301  1.8227 -1.1213  1.2440
  414MOL0     H54602   7.989   9.458   2.902 -0.3924 -1.6995  0.1662
  414MOL0     H54603   7.908   9.558   3.010 -0.4594 -0.4213  1.3025
  414MOL0     H54604   7.780   9.397   3.113  2.1459  0.5848 -0.3739
  414MOL0     H54605   7.880   9.264   3.042  0.7043 -0.2927  1.2297
  414MOL0     H54606   7.690   9.429   2.878  0.2651 -1.0731 -0.3138
  414MOL0     H54607   7.802   9.308   2.821  0.8245  1.2652 -0.4829
  414MOL0     H54608   7.664   9.141   2.958  0.1654  0.3783  1.6007
  414MOL0     H54609   7.561   9.226   2.844 -1.1821  3.4377  0.7483
  414MOL0     H54610   7.500   9.028   3.135 -1.2690 -1.1055 -1.4133
  414MOL0     H54611   7.275   8.936   3.170  3.2262  0.2665  1.6055
  414MOL0     H54612   6.804   9.103   3.067 -2.2518 -0.5548 -2.0193
  414MOL0     H54613   6.561   9.022   3.082 -3.4380 -1.5964  2.7665
  414MOL0     H54614   6.339   8.954   3.121 -0.7196 -1.1661  0.4314
  414MOL0     H54615   6.418   9.007   3.269  6.2170 -2.9443 -0.2514
  414MOL0     H54616   6.157   8.941   3.270  0.8690 -0.1193 -1.7348
  414MOL0     H54617   6.254   8.834   3.391 -0.8495 -1.9761  0.5621
  414MOL0     H54618   6.242   8.659   3.222  1.2358 -0.6753 -1.2618
  414MOL0     H54619   6.211   8.773   3.100  1.5775 -0.8748  0.4916
  414MOL0     H54620   6.028   8.710   3.340  2.1763 -1.4202 -0.3297
  414MOL0     H54621   5.978   8.808   3.201 -2.5301 -0.2062  0.2180
  414MOL0     H54622   6.028   8.512   3.198  0.7303 -0.1304 -1.1870
  414MOL0     H54623   5.995   8.610   3.051  0.5085 -0.7525 -0.1681
  414MOL0     H54624   5.788   8.553   3.099  3.8486 -2.6694 -0.0017
  414MOL0     H54625   5.792   8.710   3.181  0.4141  0.9753  3.8681
  414MOL0     H54626   5.854   8.458   3.326  0.6964 -0.2794 -4.3671
  414MOL0     H54627   5.797   8.607   3.407  2.3894  1.5446 -0.3317
  414MOL0     H54628   5.613   8.457   3.216  0.7913 -0.4226 -0.1568
  414MOL0     H54629   5.582   8.607   3.312  0.8825  0.9598  1.7243
  414MOL0     H54630   6.664   8.721   3.337  2.4460  1.2420  1.5263
  414MOL0     H54631   6.900   8.740   3.297  0.0575  0.1829  0.9767
  414MOL0     H54632   7.109   9.326   3.105 -1.9221 -1.4873 -0.8380
  414MOL0     H54633   7.339   9.408   3.050 -2.4325 -0.8570 -3.3342
  414MOL0     H54634   8.751  10.202   3.905  0.6502  1.4910 -0.6737
  414MOL0     H54635   8.993  10.200   3.949 -1.0948 -0.6067  0.4187
  414MOL0     H54636   9.388   9.918   3.959  1.1133 -1.8379 -1.2155
  414MOL0     H54637   9.633   9.888   4.008  0.9026 -0.0227  0.4016
  414MOL0     H54638   9.929  10.129   3.786 -3.4990  1.3944  3.9407
  414MOL0     H54639   9.917   9.962   3.721  2.5689 -1.3993  0.4714
  414MOL0     H54640  10.030   9.856   3.881 -2.7825  0.1970 -3.4105
  414MOL0     H54641  10.133   9.986   3.797  0.1752 -0.4236  0.5707
  414MOL0     H54642  10.014   9.999   4.083  0.8905 -3.3854  1.5870
  414MOL0     H54643  10.116  10.117   4.005 -0.1545 -0.0826  2.5199
  414MOL0     H54644  10.177   9.830   4.075  1.3269  0.5295  0.5425
  414MOL0     H54645  10.288   9.925   3.973 -0.9846 -0.7781 -2.1552
  414MOL0     H54646  10.328  10.110   4.355  3.3806 -1.6464 -0.5694
  414MOL0     H54647   9.728  10.161   3.714  0.8102 -1.0619  0.8493
  414MOL0     H54648   9.490  10.164   3.635  1.9794 -1.1170 -1.3006
  415MOL0     O54649   5.530   8.444   1.521  0.1822  0.4539 -0.4911
  415MOL0     C54650   5.521   8.513   1.618  0.5848 -0.2279 -0.6494
  415MOL0     O54651   5.413   8.545   1.699 -0.8987 -0.0920 -0.2374
  415MOL0     C54652   5.295   8.486   1.666 -0.3690  0.4600 -0.7617
  415MOL0     C54653   5.223   8.410   1.769 -0.0644 -0.3479 -0.0630
  415MOL0     C54654   5.094   8.366   1.749  0.1712 -0.0604  0.3289
  415MOL0     C54655   5.032   8.395   1.629 -0.3646  1.2825 -0.3370
  415MOL0     O54656   4.895   8.362   1.639 -0.0286 -1.4908  0.6684
  415MOL0     C54657   4.814   8.408   1.531 -0.3795  0.8507 -0.4078
  415MOL0     C54658   4.663   8.368   1.558 -0.7784 -0.0766  0.2267
  415MOL0     C54659   4.627   8.223   1.517  0.4781  0.1870 -0.4012
  415MOL0     C54660   4.480   8.183   1.550 -0.0485  1.0425 -0.7480
  415MOL0     C54661   4.474   8.026   1.594 -0.3663  0.3704  0.5620
  415MOL0     C54662   4.392   7.942   1.504  1.1486 -0.0027  0.9991
  415MOL0     C54663   4.408   7.790   1.533 -0.5635  0.2514  0.8705
  415MOL0     C54664   4.296   7.708   1.484  0.6225 -0.1518  0.3239
  415MOL0     N54665   4.161   7.744   1.544 -0.2038 -0.3129  0.1227
  415MOL0     C54666   4.106   7.687   1.655 -0.7581  0.4728 -0.3704
  415MOL0     C54667   3.982   7.746   1.665 -0.3384  0.7148  0.6096
  415MOL0     C54668   3.876   7.713   1.756  0.2906 -0.0244 -0.3411
  415MOL0     C54669   3.899   7.775   1.899 -0.2258  0.8703 -0.4503
  415MOL0     C54670   3.811   7.707   2.003  0.2144 -0.3685 -0.5276
  415MOL0     C54671   3.669   7.767   2.007 -0.2543 -0.3534  0.3282
  415MOL0     O54672   3.577   7.692   2.092  0.1631  0.0219 -0.5327
  415MOL0     C54673   3.442   7.723   2.083 -0.4413  0.3010 -0.1573
  415MOL0     C54674   3.357   7.631   2.141 -0.7519 -0.5968 -0.3046
  415MOL0     C54675   3.216   7.645   2.128 -0.7542  0.4908  0.5646
  415MOL0     C54676   3.160   7.757   2.065 -0.2020  0.6532 -0.5398
  415MOL0     C54677   3.019   7.779   2.077  0.3785  0.1078 -0.5315
  415MOL0     O54678   2.955   7.893   2.016 -0.6025 -0.1785  0.1992
  415MOL0     C54679   2.822   7.900   2.022  0.3044 -0.4192  0.9223
  415MOL0     C54680   2.750   7.846   1.919  0.3031  0.5759  0.1428
  415MOL0     C54681   2.612   7.833   1.921  0.5653 -0.2824  0.1610
  415MOL0     C54682   2.542   7.879   2.040 -0.3002 -0.7621  0.3776
  415MOL0     O54683   2.412   7.853   2.061  0.2704  0.6957 -0.1285
  415MOL0     C54684   2.310   7.885   1.961 -0.2916 -0.4635  0.7264
  415MOL0     C54685   2.248   8.029   1.965  0.7985  0.4571 -0.4975
  415MOL0     C54686   2.209   8.052   2.110  1.0821  0.0213  1.1469
  415MOL0     C54687   2.156   8.197   2.133  0.0380  0.4327  0.5316
  415MOL0     C54688   2.090   8.219   2.269  0.3927  0.5336  0.9023
  415MOL0     C54689   2.194   8.248   2.388  0.1207 -0.7343  0.1447
  415MOL0     C54690   2.131   8.281   2.520  0.6857  0.2679 -0.2630
  415MOL0     C54691   2.215   8.244   2.638  0.0360 -0.4734  0.4387
  415MOL0    Cl54692   2.119   8.261   2.791 -0.0821  0.2665 -0.2557
  415MOL0     C54693   2.608   7.937   2.150  0.3741  0.6809  0.8836
  415MOL0     C54694   2.750   7.941   2.139  0.8152 -0.2026 -0.3732
  415MOL0     O54695   2.950   7.693   2.134  0.1311 -0.3568 -0.0198
  415MOL0     C54696   3.245   7.841   1.996 -0.4550 -0.6443 -0.2465
  415MOL0     C54697   3.389   7.830   2.013  0.8530 -0.0848  0.1100
  415MOL0     N54698   3.961   7.837   1.559 -0.2541 -0.5638  0.1811
  415MOL0     N54699   4.069   7.822   1.489  0.3910 -0.9933  0.1951
  415MOL0     C54700   5.104   8.461   1.529 -0.4547 -0.3176 -0.3420
  415MOL0     C54701   5.233   8.504   1.546 -0.3661  0.2127  0.0848
  415MOL0     C54702   5.648   8.582   1.654 -0.0775 -0.6091 -0.8525
  415MOL0     C54703   5.677   8.602   1.790 -1.2516 -0.4100  0.0661
  415MOL0     C54704   5.799   8.672   1.831 -0.8460  0.0508 -0.6293
  415MOL0     C54705   5.906   8.702   1.747  0.3258  0.5245  0.3105
  415MOL0     O54706   6.032   8.751   1.779 -0.0588 -0.5875  0.2117
  415MOL0     C54707   6.095   8.722   1.903  0.3652 -0.1324 -0.6170
  415MOL0     C54708   6.195   8.628   1.870  0.1843  0.7977 -0.4025
  415MOL0     C54709   6.267   8.577   2.000  0.0831  0.5276  0.4767
  415MOL0     C54710   6.373   8.480   1.953 -0.6140  0.6360  0.0321
  415MOL0     C54711   6.510   8.525   1.977 -0.0426  0.4175  0.2262
  415MOL0     C54712   6.619   8.569   2.004  0.3700  0.5004  0.6097
  415MOL0     C54713   5.874   8.674   1.609 -0.3204 -0.5607 -0.4788
  415MOL0     C54714   5.754   8.612   1.567  0.2939  0.4487  0.0197
  415MOL0     H54715   5.276   8.396   1.863  0.2254  1.6316  0.1149
  415MOL0     H54716   5.049   8.342   1.845 -0.1879 -2.0725 -0.2961
  415MOL0     H54717   4.846   8.357   1.440  2.2148  2.9751 -0.8418
  415MOL0     H54718   4.844   8.513   1.524  2.6469  0.1411  0.4125
  415MOL0     H54719   4.600   8.432   1.495 -0.5999 -1.8235 -1.8473
  415MOL0     H54720   4.627   8.395   1.657 -1.1483  0.5457 -0.0683
  415MOL0     H54721   4.693   8.152   1.568 -2.8043 -2.5127  0.4514
  415MOL0     H54722   4.649   8.207   1.412 -0.0896 -0.7645 -0.3877
  415MOL0     H54723   4.444   8.248   1.630 -1.0445 -1.5443  1.0671
  415MOL0     H54724   4.416   8.202   1.464 -3.7149  2.1138  1.9467
  415MOL0     H54725   4.428   8.011   1.692  0.7487  0.2509  1.0760
  415MOL0     H54726   4.576   7.987   1.600 -0.8707 -0.7914  2.1498
  415MOL0     H54727   4.410   7.966   1.399 -0.1489 -2.2308  0.1910
  415MOL0     H54728   4.288   7.963   1.527  1.3241  2.0848  0.0414
  415MOL0     H54729   4.490   7.751   1.472 -0.4038  1.1533  0.4973
  415MOL0     H54730   4.419   7.773   1.641  2.7905  1.3823  0.7998
  415MOL0     H54731   4.321   7.603   1.497  1.8181  0.3359  2.3540
  415MOL0     H54732   4.279   7.726   1.377  5.4190 -1.4932 -0.9164
  415MOL0     H54733   4.155   7.605   1.707  2.2687  1.9811 -0.6511
  415MOL0     H54734   3.866   7.604   1.758 -4.2401  0.1894  0.4665
  415MOL0     H54735   3.784   7.750   1.710 -0.0067 -1.3572 -0.8660
  415MOL0     H54736   3.880   7.882   1.909  0.9526  0.8538  3.9262
  415MOL0     H54737   4.002   7.768   1.935 -0.4896  2.0449  0.6301
  415MOL0     H54738   3.798   7.599   1.991 -0.9945 -0.6356  2.2497
  415MOL0     H54739   3.850   7.715   2.105 -3.7316 -3.0375  1.4541
  415MOL0     H54740   3.651   7.754   1.899  1.7926 -1.3224  0.0652
  415MOL0     H54741   3.671   7.873   2.030 -0.7786 -0.5881  1.5340
  415MOL0     H54742   3.403   7.549   2.196  3.0420  1.4914 -0.0242
  415MOL0     H54743   3.159   7.558   2.159  0.4244 -0.4288  0.2238
  415MOL0     H54744   2.805   7.817   1.830  0.6951  0.9185  0.2735
  415MOL0     H54745   2.556   7.782   1.844 -0.3785 -2.6892  2.2984
  415MOL0     H54746   2.237   7.803   1.965  1.1571 -1.8174  0.3603
  415MOL0     H54747   2.359   7.873   1.864 -0.9807  0.4304  0.2496
  415MOL0     H54748   2.163   8.038   1.896  0.5151 -0.6991 -0.3295
  415MOL0     H54749   2.320   8.109   1.949 -0.4165  1.7090  0.0421
  415MOL0     H54750   2.295   8.043   2.177  2.5041  0.6859 -0.4883
  415MOL0     H54751   2.139   7.978   2.150 -0.0702 -0.4044 -1.4733
  415MOL0     H54752   2.237   8.271   2.135  0.3917  0.0788  3.3808
  415MOL0     H54753   2.087   8.216   2.051  1.1858 -2.4391 -1.2361
  415MOL0     H54754   2.024   8.135   2.293  1.4691 -0.6775 -0.2448
  415MOL0     H54755   2.027   8.307   2.258  2.0883  1.7067  0.0472
  415MOL0     H54756   2.260   8.328   2.354 -1.8165  0.7197 -0.3977
  415MOL0     H54757   2.242   8.149   2.393  1.5252 -0.2334 -1.9648
  415MOL0     H54758   2.112   8.389   2.521  2.5395  0.6441  1.6843
  415MOL0     H54759   2.035   8.229   2.523 -0.1585  1.7565  2.8452
  415MOL0     H54760   2.297   8.315   2.648 -4.0357  4.7517  1.4896
  415MOL0     H54761   2.241   8.138   2.632 -1.7744 -0.8774 -2.3980
  415MOL0     H54762   2.555   7.957   2.243 -2.6696 -1.5673 -0.1900
  415MOL0     H54763   2.804   8.014   2.199  2.3533 -0.3482 -1.5026
  415MOL0     H54764   3.192   7.918   1.940 -0.5790 -2.2534 -2.4253
  415MOL0     H54765   3.459   7.899   1.966  0.2950 -0.6122 -1.5959
  415MOL0     H54766   5.056   8.465   1.432 -1.4983 -2.1574  0.0435
  415MOL0     H54767   5.295   8.543   1.466 -0.1255 -0.7195 -0.1910
  415MOL0     H54768   5.601   8.578   1.864 -1.2351  0.3024  0.3270
  415MOL0     H54769   5.823   8.675   1.937 -1.9351  0.4146 -0.3838
  415MOL0     H54770   6.022   8.688   1.977 -1.5844 -2.5822 -3.4267
  415MOL0     H54771   6.143   8.812   1.944 -0.3425  0.2779 -0.6606
  415MOL0     H54772   6.150   8.546   1.813  1.0970  0.2572 -0.3632
  415MOL0     H54773   6.273   8.670   1.804  1.1561 -2.4477 -1.5040
  415MOL0     H54774   6.204   8.531   2.076  3.0549 -2.4346  1.3891
  415MOL0     H54775   6.316   8.662   2.049 -0.2571 -0.2418  2.2151
  415MOL0     H54776   6.373   8.389   2.014 -1.7637 -0.2556 -1.2455
  415MOL0     H54777   6.359   8.451   1.849 -0.5409 -0.6915  0.3752
  415MOL0     H54778   6.720   8.592   2.029  0.6534  0.2820 -0.2968
  415MOL0     H54779   5.944   8.699   1.530 -1.0058  0.9746 -0.6326
  415MOL0     H54780   5.742   8.576   1.465  3.2644 -2.9678  0.7017
  416MOL0     O54781   8.943   3.277   4.107  0.7139 -0.0466 -0.0322
  416MOL0     C54782   8.917   3.182   4.178  0.8937  0.9213 -0.4593
  416MOL0     O54783   8.871   3.062   4.140 -0.1501  0.2633 -0.3314
  416MOL0     C54784   8.808   3.043   4.019  0.0220 -0.2810 -0.1244
  416MOL0     C54785   8.854   3.093   3.895  0.8458 -0.2410 -0.6070
  416MOL0     C54786   8.769   3.070   3.794  0.7112 -0.6126  0.6564
  416MOL0     C54787   8.643   2.999   3.799 -0.2194 -0.6590 -0.7549
  416MOL0     O54788   8.562   2.992   3.686  0.3243 -0.2221  0.1433
  416MOL0     C54789   8.434   3.067   3.687 -0.2879 -0.8105  0.6725
  416MOL0     C54790   8.435   3.159   3.556 -0.0347 -0.1332  0.2384
  416MOL0     C54791   8.432   3.097   3.422 -0.2384  0.7494  0.1437
  416MOL0     C54792   8.329   2.986   3.398 -0.4849 -0.2883  0.5314
  416MOL0     C54793   8.293   2.962   3.255  0.1181  0.2010 -0.0338
  416MOL0     C54794   8.416   2.945   3.174 -0.1295  0.8611 -0.0341
  416MOL0     C54795   8.373   2.865   3.041 -0.1045 -0.8249  0.3068
  416MOL0     C54796   8.279   2.950   2.954 -0.3675 -0.0161  0.2133
  416MOL0     N54797   8.225   2.855   2.856 -0.0704 -0.0363  0.5924
  416MOL0     C54798   8.257   2.863   2.714  0.7290 -0.6650  0.3944
  416MOL0     C54799   8.203   2.749   2.658 -0.7597  0.0977 -0.0479
  416MOL0     C54800   8.210   2.706   2.517 -1.2322  0.6680  0.9831
  416MOL0     C54801   8.065   2.650   2.488  0.6861  0.0152  0.3796
  416MOL0     C54802   8.050   2.627   2.335  0.1182  0.2239  0.6685
  416MOL0     C54803   8.130   2.495   2.300 -0.5638  0.1824  0.3152
  416MOL0     O54804   8.058   2.378   2.358  0.6789 -0.2784 -0.7571
  416MOL0     C54805   8.123   2.256   2.367  0.3525 -0.5702 -0.6042
  416MOL0     C54806   8.166   2.186   2.258  0.5474 -0.6291  0.6855
  416MOL0     C54807   8.227   2.064   2.267 -0.1617  0.5314  0.7795
  416MOL0     C54808   8.232   1.997   2.389  0.4847  0.5771  0.0229
  416MOL0     C54809   8.298   1.864   2.395 -0.1578  0.7985 -0.4914
  416MOL0     O54810   8.302   1.791   2.281  0.3873  0.4335  0.3248
  416MOL0     C54811   8.382   1.682   2.287 -0.1607 -0.1418 -0.7075
  416MOL0     C54812   8.522   1.684   2.331 -0.0183 -0.8285  0.5418
  416MOL0     C54813   8.601   1.574   2.323  0.2273 -0.1503 -0.6484
  416MOL0     C54814   8.538   1.455   2.283 -0.8905  0.0750 -0.2796
  416MOL0     O54815   8.611   1.340   2.287  0.1092 -0.0562  0.6713
  416MOL0     C54816   8.559   1.212   2.267 -0.0859  0.2222  0.7341
  416MOL0     C54817   8.646   1.091   2.323  0.6373 -0.0121 -0.2040
  416MOL0     C54818   8.775   1.031   2.244 -0.7053 -0.6721 -0.4754
  416MOL0     C54819   8.830   0.894   2.307 -0.3310 -0.0002 -0.0830
  416MOL0     C54820   8.939   0.848   2.211  0.1698 -0.3705  0.6065
  416MOL0     C54821   8.893   0.828   2.058 -1.1328  0.2803  0.0334
  416MOL0     C54822   8.981   0.711   1.997  0.1702 -0.4618  0.3057
  416MOL0     C54823   9.126   0.740   1.986 -0.0565 -0.3073 -0.3877
  416MOL0    Cl54824   9.203   0.598   1.906 -0.4301  0.1260 -0.2347
  416MOL0     C54825   8.409   1.449   2.240 -0.4234 -0.3815  1.1553
  416MOL0     C54826   8.335   1.563   2.241  0.6011  0.0172  0.4370
  416MOL0     O54827   8.346   1.825   2.500  0.1360 -0.1488  0.0107
  416MOL0     C54828   8.189   2.062   2.505 -0.1319  0.6543 -0.7944
  416MOL0     C54829   8.126   2.184   2.493  0.4512 -0.2064  0.0375
  416MOL0     N54830   8.142   2.676   2.759 -0.6373 -0.6514  0.5821
  416MOL0     N54831   8.146   2.744   2.869 -0.2723 -0.6487 -1.1457
  416MOL0     C54832   8.608   2.944   3.924  0.1980 -0.0178  1.0955
  416MOL0     C54833   8.687   2.969   4.034 -0.2557  0.2901 -0.1901
  416MOL0     C54834   8.948   3.194   4.324 -0.0641 -0.2831 -0.3377
  416MOL0     C54835   8.859   3.130   4.411 -0.1689 -0.2791  0.2026
  416MOL0     C54836   8.883   3.141   4.549 -1.1237 -0.2446  0.1097
  416MOL0     C54837   8.983   3.226   4.603  0.5636 -0.0126 -0.0380
  416MOL0     O54838   9.029   3.228   4.734  0.0403 -0.3658  0.1642
  416MOL0     C54839   8.968   3.163   4.840  0.0988 -2.2425 -0.5753
  416MOL0     C54840   9.025   3.214   4.980  0.4004  0.7504  0.1257
  416MOL0     C54841   9.177   3.193   4.985 -0.1241  1.7379  0.3197
  416MOL0     C54842   9.232   3.290   5.086 -0.5971 -0.1229 -0.6522
  416MOL0     C54843   9.381   3.274   5.086  0.9528 -0.1477  0.2612
  416MOL0     C54844   9.492   3.249   5.080 -0.6509 -0.2103 -0.4824
  416MOL0     C54845   9.056   3.302   4.520 -0.5075 -0.0180  0.3802
  416MOL0     C54846   9.041   3.284   4.381 -0.0855 -0.1390  0.0490
  416MOL0     H54847   8.940   3.158   3.880  1.4452 -0.9918 -0.4917
  416MOL0     H54848   8.794   3.105   3.695 -0.3959  0.8243  0.8515
  416MOL0     H54849   8.432   3.143   3.765 -1.9741  0.6364 -0.6843
  416MOL0     H54850   8.352   2.995   3.695  0.4838 -1.6502  1.2473
  416MOL0     H54851   8.523   3.224   3.558 -1.2777  1.5993  1.3698
  416MOL0     H54852   8.348   3.226   3.564 -0.3363 -0.2955 -1.3373
  416MOL0     H54853   8.526   3.042   3.413 -2.0564 -2.7217  0.5069
  416MOL0     H54854   8.423   3.179   3.350 -1.4136  0.5129 -0.0016
  416MOL0     H54855   8.366   2.892   3.440  1.7118 -0.5916 -1.8338
  416MOL0     H54856   8.232   3.008   3.444  0.0239 -0.4685  1.7405
  416MOL0     H54857   8.238   3.047   3.216  1.4075  1.4525  0.7679
  416MOL0     H54858   8.232   2.872   3.242 -1.2602  1.1185 -0.0741
  416MOL0     H54859   8.486   2.881   3.228  1.5065  1.2015 -1.6149
  416MOL0     H54860   8.461   3.042   3.149  1.3809  0.1894 -0.0023
  416MOL0     H54861   8.455   2.827   2.980  1.7194  1.9448  0.8424
  416MOL0     H54862   8.325   2.772   3.071  0.9415 -0.8746  1.9676
  416MOL0     H54863   8.322   3.041   2.910 -1.5291  1.1490  1.3897
  416MOL0     H54864   8.199   2.991   3.017  0.2366 -3.0825  3.3140
  416MOL0     H54865   8.300   2.951   2.667 -2.0035 -0.2027 -1.4812
  416MOL0     H54866   8.286   2.629   2.504 -1.5115  0.8481 -2.7542
  416MOL0     H54867   8.232   2.789   2.448 -0.2799  1.3299  2.0604
  416MOL0     H54868   7.989   2.723   2.517  0.8596  0.0535  0.7525
  416MOL0     H54869   8.041   2.556   2.540  1.6818 -2.8884 -3.8828
  416MOL0     H54870   7.945   2.616   2.304  0.6284  2.5901 -2.3841
  416MOL0     H54871   8.100   2.702   2.273 -4.0980  2.7882 -0.0566
  416MOL0     H54872   8.236   2.483   2.326 -0.2757 -1.1830 -1.3941
  416MOL0     H54873   8.132   2.484   2.192 -2.6939  3.2890 -0.1644
  416MOL0     H54874   8.156   2.222   2.156 -1.5372 -1.7248  0.4469
  416MOL0     H54875   8.255   2.021   2.171 -3.2240 -0.4542  0.2299
  416MOL0     H54876   8.554   1.781   2.368 -3.8831  1.3680 -1.2227
  416MOL0     H54877   8.705   1.580   2.354 -0.2279 -1.4785  1.3582
  416MOL0     H54878   8.535   1.202   2.160  0.5755  1.2807  0.4711
  416MOL0     H54879   8.461   1.209   2.314 -1.7184  1.5389 -2.3266
  416MOL0     H54880   8.580   1.004   2.326 -0.4371  0.8027  0.3601
  416MOL0     H54881   8.667   1.124   2.425 -2.1763 -0.4601  0.6123
  416MOL0     H54882   8.854   1.106   2.234 -1.4836  0.0227 -1.6230
  416MOL0     H54883   8.750   1.005   2.141 -0.4861  0.2674 -0.7754
  416MOL0     H54884   8.872   0.912   2.406 -1.9373 -0.6074  0.7359
  416MOL0     H54885   8.747   0.823   2.301  0.6567 -1.2075 -0.0235
  416MOL0     H54886   8.995   0.763   2.251 -0.0788 -1.3434 -1.0162
  416MOL0     H54887   9.012   0.929   2.214 -0.2202 -0.0519  2.1637
  416MOL0     H54888   8.896   0.919   1.997 -0.0303 -1.3022 -2.4048
  416MOL0     H54889   8.789   0.795   2.061 -1.4640  1.3071  0.5776
  416MOL0     H54890   8.966   0.619   2.054  0.5024 -2.5881 -2.7709
  416MOL0     H54891   8.937   0.694   1.898 -0.9550 -2.6642  1.1230
  416MOL0     H54892   9.165   0.750   2.088 -2.4081  1.4432  0.4226
  416MOL0     H54893   9.138   0.839   1.941  0.1028  0.4475  1.2243
  416MOL0     H54894   8.365   1.361   2.193 -1.2627  0.4031  0.4274
  416MOL0     H54895   8.229   1.556   2.217  0.7013 -1.2262  0.3049
  416MOL0     H54896   8.187   2.007   2.599  1.5173  2.0422  0.0914
  416MOL0     H54897   8.085   2.227   2.584 -0.2554 -0.4929 -0.1448
  416MOL0     H54898   8.515   2.889   3.936 -0.1004  0.4361  0.9178
  416MOL0     H54899   8.650   2.926   4.126 -1.8099  0.3749 -0.7429
  416MOL0     H54900   8.770   3.077   4.377  0.2259 -1.3402  0.8123
  416MOL0     H54901   8.827   3.079   4.618 -1.2168 -1.7913 -1.2987
  416MOL0     H54902   9.001   3.059   4.849  5.7061 -0.7203  0.1935
  416MOL0     H54903   8.859   3.168   4.830  0.2020  0.6709 -0.9922
  416MOL0     H54904   8.994   3.314   5.010 -3.9723 -0.7958  1.4342
  416MOL0     H54905   8.979   3.150   5.055 -0.1609 -1.2287 -1.7712
  416MOL0     H54906   9.212   3.217   4.885 -2.4694 -0.3548 -1.1419
  416MOL0     H54907   9.203   3.094   5.022 -0.4659  2.2649  2.0739
  416MOL0     H54908   9.191   3.387   5.058 -2.6838 -0.8182 -0.1519
  416MOL0     H54909   9.211   3.270   5.192 -0.1225  2.6334  0.0258
  416MOL0     H54910   9.592   3.233   5.046  0.1583 -0.7686  2.0046
  416MOL0     H54911   9.117   3.380   4.565  0.6900 -0.5183 -0.3138
  416MOL0     H54912   9.086   3.356   4.313 -1.4972  1.9222  1.2180
  417MOL0     O54913   9.069   4.147   4.300 -0.0041 -0.7649  0.3404
  417MOL0     C54914   9.142   4.239   4.274 -0.6144 -0.3061  0.2177
  417MOL0     O54915   9.108   4.371   4.254 -0.1760  0.2116  0.9656
  417MOL0     C54916   8.984   4.408   4.285  0.1354 -0.4153  0.2368
  417MOL0     C54917   8.877   4.381   4.201  0.4167  0.5779  0.0432
  417MOL0     C54918   8.747   4.414   4.241 -0.1400 -0.2496 -0.2694
  417MOL0     C54919   8.721   4.479   4.366 -0.1285  0.5735  0.1946
  417MOL0     O54920   8.590   4.505   4.392  1.0497 -0.0065  0.1049
  417MOL0     C54921   8.539   4.450   4.512 -0.0516 -0.6101 -0.1287
  417MOL0     C54922   8.422   4.364   4.490 -0.4221  0.1825 -0.2244
  417MOL0     C54923   8.294   4.435   4.432  0.0780  0.1570  0.2532
  417MOL0     C54924   8.202   4.317   4.396 -0.4291 -0.8592  0.0993
  417MOL0     C54925   8.088   4.372   4.315 -0.6308 -0.6257 -0.2293
  417MOL0     C54926   7.982   4.270   4.299 -0.9185 -0.0869 -1.0070
  417MOL0     C54927   7.878   4.312   4.211 -0.3061 -0.4675  0.4201
  417MOL0     C54928   7.890   4.266   4.065  0.1418 -0.1419  0.0706
  417MOL0     N54929   7.782   4.318   3.989 -0.7086  0.6304  0.3348
  417MOL0     C54930   7.654   4.272   3.995  0.2980 -0.1135  0.1241
  417MOL0     C54931   7.594   4.352   3.902 -0.2085 -0.4628 -0.6004
  417MOL0     C54932   7.465   4.336   3.850  0.7997 -0.0001 -0.4914
  417MOL0     C54933   7.356   4.364   3.953  0.0290  0.1947 -0.4563
  417MOL0     C54934   7.215   4.346   3.904  0.4555 -0.3871  0.8126
  417MOL0     C54935   7.106   4.389   3.996 -0.1407 -0.5393 -0.3034
  417MOL0     O54936   6.971   4.372   3.934  0.6016 -0.4291 -0.2195
  417MOL0     C54937   6.872   4.416   4.012 -0.1449 -0.2456 -0.3103
  417MOL0     C54938   6.875   4.473   4.136  0.1636 -0.3282 -0.2342
  417MOL0     C54939   6.753   4.505   4.212 -0.3230 -0.7218  0.1549
  417MOL0     C54940   6.625   4.493   4.150  0.2777 -0.1622 -0.5057
  417MOL0     C54941   6.490   4.554   4.202  0.0131 -0.8681  0.5110
  417MOL0     O54942   6.485   4.576   4.330 -0.6144  0.0496 -0.4579
  417MOL0     C54943   6.370   4.628   4.400  0.0139 -0.8704 -0.2401
  417MOL0     C54944   6.278   4.538   4.457  0.0896 -0.6501  0.7379
  417MOL0     C54945   6.152   4.587   4.496 -0.1751  0.5830 -0.5920
  417MOL0     C54946   6.117   4.723   4.477 -0.2598 -0.4037 -1.2619
  417MOL0     O54947   5.989   4.754   4.516  0.3881  0.0505 -0.2551
  417MOL0     C54948   5.946   4.889   4.550 -0.1052  0.9760 -0.0266
  417MOL0     C54949   5.851   4.949   4.449 -0.2709  0.5911  0.9449
  417MOL0     C54950   5.719   4.964   4.508 -0.0464  0.5047  0.0955
  417MOL0     C54951   5.599   5.016   4.417 -0.9348 -0.1623 -0.0935
  417MOL0     C54952   5.460   5.032   4.481  0.2716  1.2511 -0.4672
  417MOL0     C54953   5.416   4.905   4.556  0.4103 -0.3057 -0.2756
  417MOL0     C54954   5.381   4.783   4.465  1.1352 -0.4606 -0.7980
  417MOL0     C54955   5.304   4.683   4.539  0.6336  1.2468 -0.2678
  417MOL0    Cl54956   5.249   4.546   4.441 -0.2648  0.4142 -0.5969
  417MOL0     C54957   6.206   4.810   4.420  0.2540  0.0964 -0.2911
  417MOL0     C54958   6.342   4.763   4.394 -0.0424 -0.1307  0.5317
  417MOL0     O54959   6.411   4.593   4.123  0.5728 -0.3703  0.0901
  417MOL0     C54960   6.631   4.434   4.022  0.5408  0.6945  0.0778
  417MOL0     C54961   6.747   4.394   3.951  0.1686  0.3846 -0.0822
  417MOL0     N54962   7.684   4.433   3.842 -0.2720 -0.3470 -0.9696
  417MOL0     N54963   7.803   4.404   3.885 -0.1614 -0.2845 -0.6597
  417MOL0     C54964   8.831   4.509   4.443  0.0638  0.2831  0.8689
  417MOL0     C54965   8.959   4.465   4.410 -0.1387  1.0162  0.3245
  417MOL0     C54966   9.291   4.219   4.288  0.5736 -0.3517 -0.2589
  417MOL0     C54967   9.376   4.325   4.302 -0.3236  1.3576  0.1342
  417MOL0     C54968   9.510   4.288   4.348  0.7755 -0.8395 -0.3236
  417MOL0     C54969   9.562   4.168   4.377  0.5661  0.0993 -0.2536
  417MOL0     O54970   9.689   4.172   4.417 -0.0529 -0.4079  0.5957
  417MOL0     C54971   9.773   4.059   4.390  0.1997 -0.5814 -0.2869
  417MOL0     C54972   9.902   4.116   4.332 -0.9806  0.3561 -0.4925
  417MOL0     C54973  10.037   4.042   4.370 -0.1804  0.3732 -0.1541
  417MOL0     C54974  10.148   4.129   4.316  0.4965  0.6653 -0.5721
  417MOL0     C54975  10.264   4.051   4.315 -0.5945  0.2900 -0.5636
  417MOL0     C54976  10.373   3.989   4.334  0.5346  0.7184  0.2001
  417MOL0     C54977   9.473   4.064   4.363  0.2597 -0.4708 -0.6461
  417MOL0     C54978   9.338   4.084   4.309 -0.3819  0.1258  0.6229
  417MOL0     H54979   8.896   4.333   4.106  2.3597 -0.3540  0.8634
  417MOL0     H54980   8.667   4.391   4.171 -1.7708 -4.3692  2.5660
  417MOL0     H54981   8.521   4.532   4.581  0.7821 -0.9452  0.4983
  417MOL0     H54982   8.613   4.388   4.562 -0.1494 -0.0071  0.7877
  417MOL0     H54983   8.385   4.316   4.582 -1.4681  2.1359  0.4217
  417MOL0     H54984   8.447   4.279   4.426  0.9902  1.5458 -1.5474
  417MOL0     H54985   8.302   4.497   4.341  1.3217 -0.7004 -0.2493
  417MOL0     H54986   8.244   4.504   4.500  0.7482 -0.1707  1.0839
  417MOL0     H54987   8.253   4.251   4.325 -0.0973  0.1961 -0.6560
  417MOL0     H54988   8.161   4.267   4.485 -0.4756  0.9649  1.1592
  417MOL0     H54989   8.118   4.415   4.219 -4.7936  2.3544 -0.5008
  417MOL0     H54990   8.050   4.458   4.372  0.1532 -1.1617  1.1621
  417MOL0     H54991   7.948   4.249   4.401 -0.5525  0.7775 -0.6969
  417MOL0     H54992   8.020   4.175   4.261 -1.0981 -1.1310  1.2618
  417MOL0     H54993   7.781   4.283   4.254  0.1203  0.2123  1.9163
  417MOL0     H54994   7.873   4.421   4.208  0.6455 -0.4319 -2.8941
  417MOL0     H54995   7.895   4.156   4.059 -0.4839 -0.4660  3.3109
  417MOL0     H54996   7.976   4.314   4.018  2.0911 -1.3960  2.1079
  417MOL0     H54997   7.617   4.187   4.052  1.3155 -0.4792  0.2593
  417MOL0     H54998   7.459   4.227   3.839 -2.3174 -0.0433  0.6765
  417MOL0     H54999   7.443   4.391   3.758 -1.4216 -0.5031 -0.3279
  417MOL0     H55000   7.355   4.472   3.972  0.0534  0.1685 -0.3098
  417MOL0     H55001   7.382   4.317   4.048 -2.2608  2.1137  1.2538
  417MOL0     H55002   7.203   4.411   3.817 -3.4797  3.9965  4.1294
  417MOL0     H55003   7.199   4.240   3.880 -0.2446  0.1480 -1.2846
  417MOL0     H55004   7.125   4.491   4.033 -1.2382 -0.7680  0.9795
  417MOL0     H55005   7.099   4.327   4.086  0.0887  3.0947  2.4518
  417MOL0     H55006   6.972   4.492   4.181  1.0697 -0.9035 -1.8655
  417MOL0     H55007   6.765   4.556   4.307 -0.6502 -0.7462  0.2105
  417MOL0     H55008   6.308   4.433   4.454 -0.8498 -0.9125 -0.0090
  417MOL0     H55009   6.076   4.516   4.527 -1.0960  2.4952  1.8636
  417MOL0     H55010   6.032   4.955   4.567  0.8901 -0.2560 -0.0405
  417MOL0     H55011   5.905   4.885   4.651  0.9950  1.5877  0.4662
  417MOL0     H55012   5.848   4.886   4.360 -0.4148  1.8562  0.0365
  417MOL0     H55013   5.890   5.046   4.419 -2.6776  0.7756 -2.0805
  417MOL0     H55014   5.736   5.039   4.586  1.0485  0.8786 -0.4843
  417MOL0     H55015   5.700   4.863   4.546 -1.3863 -0.3800 -2.6159
  417MOL0     H55016   5.631   5.115   4.384  2.5145 -0.4432  1.8844
  417MOL0     H55017   5.589   4.949   4.332  1.3164 -0.4646 -0.1663
  417MOL0     H55018   5.386   5.056   4.404  0.1840  0.9107 -0.4915
  417MOL0     H55019   5.469   5.114   4.553 -1.1358  1.1853 -0.2012
  417MOL0     H55020   5.329   4.931   4.617  0.9574  0.2840  0.2675
  417MOL0     H55021   5.489   4.876   4.632  0.7482 -3.1934 -1.5629
  417MOL0     H55022   5.326   4.818   4.378 -0.7036  3.2524  1.6005
  417MOL0     H55023   5.470   4.732   4.426  0.9165  0.3857 -2.5020
  417MOL0     H55024   5.228   4.741   4.593  0.3923  1.6248 -1.0075
  417MOL0     H55025   5.365   4.629   4.612 -1.3652 -0.1750  0.4594
  417MOL0     H55026   6.171   4.909   4.391 -0.0468  0.7904  2.2385
  417MOL0     H55027   6.415   4.834   4.357 -1.1840  2.3308  2.6335
  417MOL0     H55028   6.541   4.422   3.963  1.2490 -0.7163 -0.7833
  417MOL0     H55029   6.732   4.343   3.857  2.2834 -0.3683 -0.0520
  417MOL0     H55030   8.810   4.573   4.528  1.1347  0.8410  0.7323
  417MOL0     H55031   9.039   4.485   4.481 -0.2041  3.8306 -0.2487
  417MOL0     H55032   9.347   4.428   4.314  0.4219  1.5564  0.2695
  417MOL0     H55033   9.582   4.368   4.366  2.0385 -1.9696 -0.2547
  417MOL0     H55034   9.724   3.992   4.319 -1.9056 -0.1574  0.6764
  417MOL0     H55035   9.785   4.002   4.482  0.2047 -2.2869 -1.2986
  417MOL0     H55036   9.896   4.121   4.223 -2.1048  2.2202 -0.3911
  417MOL0     H55037   9.917   4.213   4.380 -1.5233  0.8209 -1.2358
  417MOL0     H55038  10.038   3.942   4.327 -0.2910  1.5386 -3.0946
  417MOL0     H55039  10.042   4.037   4.480 -4.2884  1.9345  0.2947
  417MOL0     H55040  10.130   4.154   4.211  0.1854 -0.0008 -0.6829
  417MOL0     H55041  10.163   4.218   4.378  1.9450 -0.8298  1.3516
  417MOL0     H55042  10.466   3.939   4.352  1.2159  1.8350 -0.1508
  417MOL0     H55043   9.502   3.964   4.392 -0.1680  0.0423  1.7931
  417MOL0     H55044   9.263   4.005   4.309 -1.8137  1.4343  1.3193
  418MOL0     O55045  10.929   6.925   5.357  0.4244  0.2189 -0.0195
  418MOL0     C55046  10.930   6.808   5.398  0.0579  1.0302 -0.7095
  418MOL0     O55047  10.856   6.757   5.505  0.0811  0.4625  0.5706
  418MOL0     C55048  10.763   6.826   5.571  0.1292 -0.1685 -0.9573
  418MOL0     C55049  10.625   6.780   5.562  0.7570 -0.4375  1.0372
  418MOL0     C55050  10.532   6.854   5.623 -0.2431  0.3861 -0.1723
  418MOL0     C55051  10.561   6.970   5.701  0.8530 -0.1179 -0.2943
  418MOL0     O55052  10.447   7.028   5.761 -0.5388 -0.2174  0.1278
  418MOL0     C55053  10.469   7.115   5.878 -1.4538 -1.3530  0.3991
  418MOL0     C55054  10.341   7.199   5.915 -0.3539 -0.1848  0.1733
  418MOL0     C55055  10.214   7.117   5.921 -0.0279  0.7687 -0.0865
  418MOL0     C55056  10.110   7.147   5.808 -0.2319  0.4492 -0.2243
  418MOL0     C55057   9.980   7.066   5.826 -0.7557 -0.5104  0.4293
  418MOL0     C55058  10.025   6.920   5.808  0.2937  0.4961 -0.1982
  418MOL0     C55059   9.898   6.832   5.807 -0.4827 -0.0725  1.3658
  418MOL0     C55060   9.857   6.797   5.946 -1.2121  0.0055 -0.1832
  418MOL0     N55061   9.759   6.682   5.945  0.3815 -0.2845 -0.4693
  418MOL0     C55062   9.641   6.686   5.873 -0.2330 -0.8798 -0.6007
  418MOL0     C55063   9.587   6.557   5.892 -0.3585  0.0104 -0.5127
  418MOL0     C55064   9.463   6.508   5.828  0.0252 -0.3132  0.1614
  418MOL0     C55065   9.426   6.374   5.889 -0.2976  0.6047  0.7045
  418MOL0     C55066   9.304   6.324   5.808  0.5029  0.0048  0.2376
  418MOL0     C55067   9.177   6.402   5.833  0.1107 -0.1004 -0.2122
  418MOL0     O55068   9.158   6.422   5.979 -0.2633  0.2890  0.5743
  418MOL0     C55069   9.047   6.487   6.015 -0.0316  0.0307 -0.4525
  418MOL0     C55070   9.006   6.621   5.962  0.1383  0.7929 -0.5477
  418MOL0     C55071   8.886   6.679   5.985 -0.0210 -0.2161  0.5845
  418MOL0     C55072   8.792   6.608   6.063 -0.1505  0.1204 -1.1643
  418MOL0     C55073   8.657   6.658   6.086  0.0808  0.0617  0.5546
  418MOL0     O55074   8.612   6.740   5.989 -0.3252 -0.0530 -0.1712
  418MOL0     C55075   8.493   6.811   6.008  0.2354 -0.1675 -0.5418
  418MOL0     C55076   8.498   6.926   6.098  0.2348 -0.1432  0.8944
  418MOL0     C55077   8.382   7.010   6.087 -0.0392 -0.2996 -0.5904
  418MOL0     C55078   8.258   6.957   6.038  0.0534  0.0398  1.1375
  418MOL0     O55079   8.137   7.010   6.063 -1.0502  0.7228  0.2378
  418MOL0     C55080   8.129   7.147   6.109 -0.5282  0.2271  0.5782
  418MOL0     C55081   7.987   7.181   6.085 -0.2569 -0.5657  0.6666
  418MOL0     C55082   7.899   7.100   6.179 -0.7988  0.8607 -0.3354
  418MOL0     C55083   7.780   7.184   6.208 -0.0596  0.0729  0.0189
  418MOL0     C55084   7.675   7.112   6.273  0.5369  1.0858 -1.1952
  418MOL0     C55085   7.559   7.195   6.332 -0.9361 -0.9892  0.4177
  418MOL0     C55086   7.491   7.277   6.230  0.0939 -0.1022 -0.3977
  418MOL0     C55087   7.347   7.307   6.253 -0.6612 -0.9670  0.2390
  418MOL0    Cl55088   7.280   7.365   6.407  0.1203  0.4932  0.0223
  418MOL0     C55089   8.260   6.825   5.982  1.0900  0.6878 -0.2265
  418MOL0     C55090   8.376   6.757   5.967 -0.7619 -0.0298  0.5675
  418MOL0     O55091   8.600   6.642   6.194  0.5505  0.5350  0.1589
  418MOL0     C55092   8.831   6.491   6.127 -0.0843  0.5717  0.2967
  418MOL0     C55093   8.955   6.420   6.101 -0.6348  0.4207  0.2273
  418MOL0     N55094   9.670   6.477   5.971  0.3379 -0.7757  0.3431
  418MOL0     N55095   9.770   6.555   6.000 -0.3027 -0.0744  0.1782
  418MOL0     C55096  10.699   7.015   5.710  0.7821  0.2010  0.0123
  418MOL0     C55097  10.796   6.941   5.639 -0.3959 -0.0764  0.3406
  418MOL0     C55098  11.018   6.715   5.331 -1.0632  0.3002  0.5084
  418MOL0     C55099  11.108   6.759   5.229  0.4479 -0.0655  0.1428
  418MOL0     C55100  11.191   6.663   5.159  0.5817  0.0942 -0.8215
  418MOL0     C55101  11.190   6.527   5.194 -0.9727  0.2723 -0.0137
  418MOL0     O55102  11.278   6.439   5.146 -0.2162 -0.0934 -0.1019
  418MOL0     C55103  11.392   6.417   5.230 -0.4398 -0.4779  0.1138
  418MOL0     C55104  11.469   6.551   5.257  0.5179  0.4844 -0.2166
  418MOL0     C55105  11.580   6.505   5.348  0.7891 -0.3609  0.4374
  418MOL0     C55106  11.549   6.539   5.492  0.3486  0.7519  0.4482
  418MOL0     C55107  11.664   6.484   5.562 -0.1091 -0.4376  0.2042
  418MOL0     C55108  11.744   6.441   5.644  0.2104  0.4225  0.1151
  418MOL0     C55109  11.110   6.484   5.297  0.3065 -0.2854 -0.4923
  418MOL0     C55110  11.017   6.575   5.355  0.4213 -0.1652  0.6344
  418MOL0     H55111  10.605   6.686   5.512 -0.5251  0.9115 -1.1119
  418MOL0     H55112  10.431   6.815   5.629  0.4881 -1.4736  0.9474
  418MOL0     H55113  10.543   7.191   5.855 -5.5943  2.4688 -1.9346
  418MOL0     H55114  10.502   7.055   5.963  0.9536 -0.3919  0.2164
  418MOL0     H55115  10.329   7.284   5.847 -1.8706 -0.2670  0.2898
  418MOL0     H55116  10.351   7.236   6.017 -0.6911  0.0366  0.1290
  418MOL0     H55117  10.162   7.131   6.017 -2.4560  4.0183 -1.6554
  418MOL0     H55118  10.250   7.015   5.909  0.0264  0.9553 -1.7526
  418MOL0     H55119  10.084   7.253   5.818  0.2415  0.5737 -0.2921
  418MOL0     H55120  10.159   7.133   5.711  0.4080  0.4229  0.0967
  418MOL0     H55121   9.899   7.095   5.759  0.0501 -1.5614 -1.0908
  418MOL0     H55122   9.946   7.078   5.929  2.8378 -0.8251  1.8082
  418MOL0     H55123  10.095   6.894   5.888 -1.9681  1.7702  2.3420
  418MOL0     H55124  10.077   6.902   5.714  0.1983 -0.6740 -0.0475
  418MOL0     H55125   9.817   6.884   5.754 -1.2907 -2.7888 -0.2464
  418MOL0     H55126   9.922   6.742   5.749  4.1579  1.2829  0.8040
  418MOL0     H55127   9.819   6.882   6.004 -0.1133 -1.3996  2.8185
  418MOL0     H55128   9.950   6.767   5.996 -1.3277  1.1956  0.8249
  418MOL0     H55129   9.615   6.774   5.815  1.4347 -0.0638 -0.1737
  418MOL0     H55130   9.486   6.487   5.723  0.4430 -0.4218  0.2746
  418MOL0     H55131   9.384   6.584   5.823 -0.0009 -0.3442  0.1033
  418MOL0     H55132   9.398   6.384   5.994 -1.2692  2.9288  0.2933
  418MOL0     H55133   9.502   6.299   5.867  1.5135  3.1532 -2.8014
  418MOL0     H55134   9.322   6.324   5.701 -0.9988  1.9553 -0.0762
  418MOL0     H55135   9.284   6.218   5.823 -1.1572  0.4268  1.4064
  418MOL0     H55136   9.091   6.340   5.806 -1.8595  0.8743  3.1994
  418MOL0     H55137   9.169   6.496   5.779 -0.2654 -0.6066 -1.0560
  418MOL0     H55138   9.082   6.669   5.900 -1.9011  0.0992 -3.7841
  418MOL0     H55139   8.860   6.778   5.952  0.5718  0.4901  2.1473
  418MOL0     H55140   8.590   6.957   6.146  0.3938  1.0875 -0.1670
  418MOL0     H55141   8.381   7.104   6.140  1.5439  1.0508 -2.7927
  418MOL0     H55142   8.191   7.216   6.051  0.7017 -0.8448  0.5816
  418MOL0     H55143   8.156   7.156   6.215  0.6247  2.4039  0.1499
  418MOL0     H55144   7.953   7.154   5.985 -1.1311  1.3380  0.3960
  418MOL0     H55145   7.971   7.289   6.095 -0.0684 -0.7423  4.1717
  418MOL0     H55146   7.950   7.077   6.273  0.1013 -1.1196 -1.2387
  418MOL0     H55147   7.871   7.006   6.130 -2.5112  2.0220 -1.7062
  418MOL0     H55148   7.817   7.266   6.270  0.3644  1.4999 -2.0129
  418MOL0     H55149   7.732   7.241   6.128 -1.2045 -0.0906  0.5753
  418MOL0     H55150   7.714   7.051   6.355 -1.0901  2.2840  0.5797
  418MOL0     H55151   7.643   7.034   6.204 -0.4597 -0.8348  1.2723
  418MOL0     H55152   7.595   7.260   6.413 -0.7336  0.8624 -1.1108
  418MOL0     H55153   7.482   7.120   6.355 -2.4242  0.4817  0.3611
  418MOL0     H55154   7.545   7.372   6.230  1.7375 -0.9495 -2.2621
  418MOL0     H55155   7.504   7.234   6.130 -0.5549 -2.0567  0.3167
  418MOL0     H55156   7.285   7.224   6.217  0.1381 -0.7177 -1.9007
  418MOL0     H55157   7.334   7.394   6.187  3.5424 -2.3673 -2.9256
  418MOL0     H55158   8.166   6.784   5.946  0.8958  2.3567 -1.7698
  418MOL0     H55159   8.379   6.662   5.915 -0.5040  0.8443 -1.0724
  418MOL0     H55160   8.764   6.435   6.191  1.0246  0.1782  1.1492
  418MOL0     H55161   8.963   6.324   6.151 -0.4156  0.2088 -0.2047
  418MOL0     H55162  10.733   7.100   5.770 -2.7993  2.3378 -0.7098
  418MOL0     H55163  10.896   6.982   5.640  0.3314 -1.4107 -2.9520
  418MOL0     H55164  11.131   6.859   5.192 -0.0057  0.1365  0.3977
  418MOL0     H55165  11.261   6.708   5.089 -1.5193 -1.0116 -3.8442
  418MOL0     H55166  11.450   6.350   5.167 -0.3855 -3.4241  2.9993
  418MOL0     H55167  11.373   6.364   5.324 -0.0722  0.8886  1.0067
  418MOL0     H55168  11.495   6.591   5.159 -5.4433  2.8730 -1.2808
  418MOL0     H55169  11.404   6.633   5.291  0.3537  2.0435 -3.8809
  418MOL0     H55170  11.669   6.565   5.327  1.6942 -1.4015  1.1764
  418MOL0     H55171  11.621   6.405   5.334 -0.3218 -1.3826  3.5425
  418MOL0     H55172  11.530   6.645   5.513 -0.3435  0.4150  1.5938
  418MOL0     H55173  11.455   6.488   5.514  1.4698 -2.2634 -1.0895
  418MOL0     H55174  11.827   6.401   5.699  1.4138 -0.7029 -2.3537
  418MOL0     H55175  11.099   6.378   5.317 -1.5881  0.1504  1.1014
  418MOL0     H55176  10.953   6.526   5.428  0.9628 -0.9556  0.5870
  419MOL0     O55177   5.166   6.044   3.515 -0.1455  0.0284  0.0190
  419MOL0     C55178   5.198   6.133   3.434  0.5777 -0.3495  0.8120
  419MOL0     O55179   5.114   6.191   3.348  0.8519  0.4774 -0.8068
  419MOL0     C55180   4.976   6.178   3.384  0.6484  0.0694 -0.1063
  419MOL0     C55181   4.901   6.077   3.318  0.1894  0.2012 -0.5328
  419MOL0     C55182   4.769   6.069   3.329  0.0665  0.5882 -0.1159
  419MOL0     C55183   4.697   6.169   3.391 -0.5271 -1.4864 -0.7704
  419MOL0     O55184   4.564   6.177   3.387 -0.1601  0.0974  0.1677
  419MOL0     C55185   4.487   6.057   3.363  1.2853  0.0114  0.3139
  419MOL0     C55186   4.340   6.098   3.380 -0.1412 -0.5005  0.4605
  419MOL0     C55187   4.241   5.974   3.375  0.0077 -0.0472 -0.1213
  419MOL0     C55188   4.098   6.016   3.403  0.6387  1.0062  0.8179
  419MOL0     C55189   4.003   5.897   3.430  0.1379 -0.1869  1.1904
  419MOL0     C55190   3.851   5.924   3.435  1.2018 -0.0530 -0.0082
  419MOL0     C55191   3.762   5.793   3.417 -0.3715 -0.4924 -0.0181
  419MOL0     C55192   3.767   5.736   3.272 -1.1353  0.0072  1.2834
  419MOL0     N55193   3.701   5.827   3.178  0.0226  0.1876  0.1441
  419MOL0     C55194   3.567   5.822   3.141 -0.7925 -0.3727 -0.2039
  419MOL0     C55195   3.549   5.929   3.061  0.6098  0.1148  0.3853
  419MOL0     C55196   3.415   5.964   3.003  0.0546 -0.3968  0.0996
  419MOL0     C55197   3.410   5.950   2.850  0.9070 -0.1140  0.1973
  419MOL0     C55198   3.431   5.806   2.810 -0.3604 -0.6955  0.3437
  419MOL0     C55199   3.348   5.777   2.689  0.6112  0.2787 -0.2318
  419MOL0     O55200   3.355   5.883   2.590 -0.4365  1.0222  0.1386
  419MOL0     C55201   3.241   5.915   2.512 -0.2658  0.9819  0.2961
  419MOL0     C55202   3.130   5.831   2.495  0.0977 -0.0488 -0.1154
  419MOL0     C55203   3.035   5.856   2.405 -0.0646  0.0647 -0.5141
  419MOL0     C55204   3.039   5.970   2.320 -0.2847  0.2303  0.1710
  419MOL0     C55205   2.934   5.996   2.212  0.1570 -0.0356 -0.3649
  419MOL0     O55206   2.812   5.941   2.219  0.7953  0.1418 -0.8594
  419MOL0     C55207   2.720   5.956   2.121 -0.7665 -0.5823  0.2033
  419MOL0     C55208   2.740   5.934   1.985 -0.2187  0.2279  0.5902
  419MOL0     C55209   2.629   5.933   1.895  0.6628 -0.7614 -0.3663
  419MOL0     C55210   2.498   5.947   1.934 -0.6446  0.3492  0.6256
  419MOL0     O55211   2.395   5.960   1.848  0.4057  0.7937  0.2665
  419MOL0     C55212   2.398   5.850   1.759  0.3535 -0.2784  0.9856
  419MOL0     C55213   2.276   5.836   1.668  0.3123  0.2759 -0.2905
  419MOL0     C55214   2.151   5.773   1.725  0.7186 -0.6175 -0.9752
  419MOL0     C55215   2.041   5.758   1.619 -0.0238  0.5687  0.0941
  419MOL0     C55216   1.913   5.694   1.665 -0.2923 -0.3268  0.8071
  419MOL0     C55217   1.825   5.684   1.538 -1.0611 -0.6996 -0.5872
  419MOL0     C55218   1.691   5.639   1.593  0.7343  0.4866  0.1147
  419MOL0     C55219   1.618   5.588   1.472 -0.5339  1.1278 -0.2989
  419MOL0    Cl55220   1.588   5.699   1.336 -0.0359  0.2349  0.5731
  419MOL0     C55221   2.477   5.971   2.077 -0.7105  0.9410  0.8289
  419MOL0     C55222   2.586   5.968   2.165 -0.5205 -0.0206  0.9598
  419MOL0     O55223   2.970   6.076   2.125 -0.5333  0.0089  1.1126
  419MOL0     C55224   3.145   6.057   2.338 -0.9311  0.5939 -0.1512
  419MOL0     C55225   3.237   6.032   2.436  0.5644  0.5884 -0.1855
  419MOL0     N55226   3.672   5.994   3.057  0.6256  0.4808  0.4675
  419MOL0     N55227   3.760   5.937   3.124  0.1916  0.6256  0.7004
  419MOL0     C55228   4.770   6.263   3.460 -0.0273  0.4735  0.4535
  419MOL0     C55229   4.905   6.273   3.451 -0.8338  0.1711 -0.5847
  419MOL0     C55230   5.342   6.168   3.402 -0.0450 -1.2498 -0.4117
  419MOL0     C55231   5.458   6.089   3.438  1.0856 -0.1235 -0.0213
  419MOL0     C55232   5.596   6.129   3.413  0.7439  0.2925  0.2979
  419MOL0     C55233   5.622   6.248   3.350 -0.5593 -0.0218  0.1744
  419MOL0     O55234   5.754   6.301   3.333  0.3671 -0.4763 -0.6785
  419MOL0     C55235   5.786   6.429   3.268  1.0163  0.8640 -0.1839
  419MOL0     C55236   5.925   6.446   3.223  0.1983  0.3218  0.3467
  419MOL0     C55237   6.029   6.407   3.334  0.1725  0.1200  0.4935
  419MOL0     C55238   6.018   6.514   3.443  0.2420 -0.3125  1.0545
  419MOL0     C55239   6.117   6.488   3.543  0.9159 -0.2204 -0.2737
  419MOL0     C55240   6.203   6.468   3.625  1.2592 -0.6279 -0.2071
  419MOL0     C55241   5.509   6.324   3.320  0.2155  0.9048 -0.0074
  419MOL0     C55242   5.375   6.295   3.346  0.0496  0.5933 -0.3613
  419MOL0     H55243   4.958   6.000   3.267  1.9271  0.2482  1.2038
  419MOL0     H55244   4.708   6.002   3.270 -2.8363  3.7466 -1.0368
  419MOL0     H55245   4.513   5.979   3.436  1.9731  0.0461  0.1200
  419MOL0     H55246   4.502   6.034   3.257  0.4221  6.8345 -1.7509
  419MOL0     H55247   4.317   6.166   3.298  2.5332 -1.6411 -1.3385
  419MOL0     H55248   4.333   6.161   3.469  1.5518  2.6323 -1.4467
  419MOL0     H55249   4.268   5.906   3.457 -0.1396  0.0570  0.0119
  419MOL0     H55250   4.245   5.928   3.276  1.7330  1.1542 -0.6521
  419MOL0     H55251   4.102   6.071   3.498 -1.6204  0.4545  1.2998
  419MOL0     H55252   4.064   6.076   3.318  0.4754 -1.0486 -0.6386
  419MOL0     H55253   4.032   5.848   3.523  1.0641  3.0491  2.7424
  419MOL0     H55254   4.031   5.839   3.341 -0.2949  2.2024 -0.6129
  419MOL0     H55255   3.836   6.001   3.358 -0.3771  1.3189  1.5928
  419MOL0     H55256   3.826   5.967   3.532  0.8757 -0.0483 -0.0953
  419MOL0     H55257   3.787   5.716   3.491  1.4543 -0.1506 -0.2225
  419MOL0     H55258   3.656   5.813   3.436 -0.4855 -0.9066 -0.1934
  419MOL0     H55259   3.719   5.638   3.260  2.4773 -1.8203  0.5468
  419MOL0     H55260   3.870   5.730   3.238 -1.1063 -1.8141  1.5723
  419MOL0     H55261   3.490   5.755   3.176 -3.0136  1.8614 -0.5006
  419MOL0     H55262   3.407   6.071   3.024 -0.6638 -0.7591  1.7951
  419MOL0     H55263   3.322   5.920   3.041 -0.8567  1.9343  0.7436
  419MOL0     H55264   3.488   6.014   2.809  2.4281 -1.0287  1.5217
  419MOL0     H55265   3.320   5.994   2.806  2.9242  1.0899 -3.0396
  419MOL0     H55266   3.537   5.805   2.784  0.0908  1.7658  1.7633
  419MOL0     H55267   3.411   5.732   2.888 -0.5222  1.3232  2.3107
  419MOL0     H55268   3.244   5.767   2.722 -0.7795  2.2987 -3.5112
  419MOL0     H55269   3.384   5.681   2.651  0.5100  0.0301  0.2846
  419MOL0     H55270   3.111   5.741   2.553 -1.3477 -1.6642 -2.8715
  419MOL0     H55271   2.954   5.785   2.400 -0.1202  0.1436 -0.7819
  419MOL0     H55272   2.843   5.927   1.951  0.3713 -0.4782  2.4029
  419MOL0     H55273   2.643   5.923   1.787 -2.8167  0.8409 -1.1204
  419MOL0     H55274   2.404   5.764   1.826 -1.4490  1.7840  4.0529
  419MOL0     H55275   2.488   5.859   1.697 -1.0943  0.3460 -1.1623
  419MOL0     H55276   2.313   5.781   1.581 -0.0610 -2.6419  1.2795
  419MOL0     H55277   2.250   5.935   1.630  2.3280  2.6226  3.7937
  419MOL0     H55278   2.121   5.834   1.811  3.9548 -2.8355  2.0185
  419MOL0     H55279   2.168   5.672   1.764 -0.0436 -0.3475  0.0990
  419MOL0     H55280   2.024   5.860   1.584  1.0846  0.6376 -0.2892
  419MOL0     H55281   2.077   5.704   1.530  3.0598  0.6417  1.1588
  419MOL0     H55282   1.865   5.763   1.735 -0.0464  0.4907  0.1947
  419MOL0     H55283   1.932   5.598   1.714 -0.1310 -1.0289 -0.5893
  419MOL0     H55284   1.868   5.611   1.468  0.3015 -0.7765  0.2947
  419MOL0     H55285   1.817   5.781   1.487 -1.9758 -1.3273 -1.6899
  419MOL0     H55286   1.703   5.568   1.676  1.5264  1.2127  0.6346
  419MOL0     H55287   1.627   5.719   1.632 -4.4296 -1.8809 -2.4282
  419MOL0     H55288   1.521   5.549   1.502 -0.5174  1.6228  0.4247
  419MOL0     H55289   1.672   5.498   1.441 -4.1480 -1.4941  0.4710
  419MOL0     H55290   2.379   5.974   2.124 -1.3268  1.3294 -0.4458
  419MOL0     H55291   2.563   5.991   2.269 -1.2305 -1.3349  1.1090
  419MOL0     H55292   3.163   6.153   2.291  2.9163  1.3886  2.4712
  419MOL0     H55293   3.305   6.114   2.457  2.9202 -0.5562 -2.6595
  419MOL0     H55294   4.731   6.350   3.511  0.8377  2.3661 -1.9344
  419MOL0     H55295   4.965   6.359   3.480 -0.4744 -0.4386  0.5416
  419MOL0     H55296   5.434   5.999   3.495 -3.1162  0.5854 -0.3636
  419MOL0     H55297   5.679   6.070   3.451  2.2520  1.6401 -0.7744
  419MOL0     H55298   5.751   6.502   3.342 -2.3435 -0.9797  0.2699
  419MOL0     H55299   5.724   6.447   3.180  1.3944 -0.5890 -0.7798
  419MOL0     H55300   5.936   6.383   3.134 -4.9962 -0.0974 -0.3200
  419MOL0     H55301   5.935   6.549   3.189  1.1726 -0.6650 -2.7343
  419MOL0     H55302   6.131   6.420   3.299  0.7830 -2.1930  1.1925
  419MOL0     H55303   6.013   6.308   3.379 -4.2417  1.2625  2.0177
  419MOL0     H55304   6.022   6.620   3.414 -3.9811 -0.0996  0.7046
  419MOL0     H55305   5.918   6.508   3.486 -1.2762 -2.3379 -2.3543
  419MOL0     H55306   6.271   6.456   3.707  0.7819  4.2811  1.2620
  419MOL0     H55307   5.518   6.423   3.278 -0.6633  1.3941  0.9008
  419MOL0     H55308   5.297   6.369   3.328 -1.4627 -0.7344  0.4940
  420MOL0     O55309  10.111   5.748   9.452 -0.2698  0.0885 -0.4217
  420MOL0     C55310  10.160   5.794   9.556  0.3646 -0.0814  0.1487
  420MOL0     O55311  10.091   5.820   9.671 -0.7142  0.3746 -0.5152
  420MOL0     C55312   9.971   5.768   9.683  0.3740 -1.0546  0.2247
  420MOL0     C55313   9.949   5.665   9.776 -0.6625 -0.6609  0.6512
  420MOL0     C55314   9.823   5.608   9.783  0.3332  1.1553 -0.9667
  420MOL0     C55315   9.711   5.667   9.722 -1.0842 -0.7083  0.7377
  420MOL0     O55316   9.592   5.618   9.745  0.7080 -0.2850  0.3722
  420MOL0     C55317   9.560   5.593   9.885 -0.0366 -0.0478  0.1983
  420MOL0     C55318   9.409   5.585   9.904  0.8905 -0.4101  1.0461
  420MOL0     C55319   9.360   5.548  10.048 -0.1162  0.0257 -0.0382
  420MOL0     C55320   9.398   5.655  10.151 -0.5487  0.3874  0.2301
  420MOL0     C55321   9.400   5.601  10.299 -0.1035 -0.4669  1.2781
  420MOL0     C55322   9.419   5.699  10.405  0.1870  0.6785 -0.1970
  420MOL0     C55323   9.402   5.637  10.547 -1.5164 -0.7578 -0.5315
  420MOL0     C55324   9.298   5.705  10.639  0.0273  0.0455  0.0462
  420MOL0     N55325   9.163   5.659  10.617 -0.3178  0.4132  0.8918
  420MOL0     C55326   9.074   5.742  10.557  0.4144 -0.2207  0.8193
  420MOL0     C55327   8.986   5.658  10.498  0.8167 -0.9022 -0.1493
  420MOL0     C55328   8.858   5.689  10.424 -0.1098  0.3516  0.1517
  420MOL0     C55329   8.783   5.792  10.508  0.5270  0.3431  0.0775
  420MOL0     C55330   8.629   5.777  10.506 -0.1076  0.4593  0.3628
  420MOL0     C55331   8.569   5.758  10.366 -0.5205  0.7224  1.0151
  420MOL0     O55332   8.424   5.751  10.379 -0.5030 -0.7173  0.1813
  420MOL0     C55333   8.343   5.752  10.270  0.3864  0.2664 -0.3261
  420MOL0     C55334   8.393   5.705  10.150  0.9567 -0.0676  0.5344
  420MOL0     C55335   8.315   5.708  10.035  0.1497 -0.1826  0.4795
  420MOL0     C55336   8.171   5.728  10.036 -0.0709  0.2458 -0.3896
  420MOL0     C55337   8.087   5.717   9.912  0.2524  0.2191 -0.6978
  420MOL0     O55338   8.145   5.670   9.792  0.1302  0.0332 -0.5383
  420MOL0     C55339   8.073   5.669   9.675  0.1934  0.1677  0.3476
  420MOL0     C55340   7.943   5.609   9.665 -1.0236 -0.4040 -0.8269
  420MOL0     C55341   7.868   5.605   9.544  0.5198  0.5759 -0.8111
  420MOL0     C55342   7.914   5.677   9.431 -0.1897  0.7382 -0.1623
  420MOL0     O55343   7.842   5.680   9.313 -0.5560 -0.0617 -0.4500
  420MOL0     C55344   7.710   5.618   9.301  0.2514 -0.0918 -0.8081
  420MOL0     C55345   7.598   5.702   9.354 -0.2700 -1.2913 -0.1346
  420MOL0     C55346   7.470   5.632   9.315  0.3006 -0.1013  0.1639
  420MOL0     C55347   7.447   5.495   9.371  0.2128 -0.4126 -0.6469
  420MOL0     C55348   7.308   5.441   9.323  0.3543 -0.3778  0.3261
  420MOL0     C55349   7.275   5.312   9.393 -0.2979  0.1834 -1.2635
  420MOL0     C55350   7.135   5.263   9.388 -0.9081 -0.0089  0.4203
  420MOL0     C55351   7.129   5.109   9.414  0.0130 -0.6610 -0.3980
  420MOL0    Cl55352   7.190   5.024   9.276 -0.5992 -0.0758  0.5246
  420MOL0     C55353   8.040   5.724   9.440  0.4179  1.0215 -0.2512
  420MOL0     C55354   8.118   5.732   9.557  0.0040 -0.0461  0.0905
  420MOL0     O55355   7.969   5.753   9.929 -0.1487 -0.4613 -0.0041
  420MOL0     C55356   8.126   5.767  10.161 -0.0844  0.7207 -0.7108
  420MOL0     C55357   8.204   5.782  10.276 -0.3115 -0.0122 -0.1715
  420MOL0     N55358   9.023   5.527  10.523  0.0207 -0.4563  0.6545
  420MOL0     N55359   9.131   5.529  10.596 -0.1369  0.0957 -0.3649
  420MOL0     C55360   9.730   5.776   9.638  0.2323  0.9802 -0.2198
  420MOL0     C55361   9.857   5.829   9.625 -0.3414  0.7739  1.5060
  420MOL0     C55362  10.297   5.833   9.558 -0.3092 -0.7930 -0.0988
  420MOL0     C55363  10.348   5.919   9.658  0.4780 -0.2366 -0.0690
  420MOL0     C55364  10.476   5.967   9.651  0.4312 -0.5222 -0.1245
  420MOL0     C55365  10.563   5.939   9.538  0.3638  0.1295 -0.2101
  420MOL0     O55366  10.687   5.985   9.553  0.1882 -0.2399 -0.1075
  420MOL0     C55367  10.792   5.953   9.464  0.3700 -0.1899 -0.4712
  420MOL0     C55368  10.916   6.040   9.500 -0.5758  0.1042 -0.4979
  420MOL0     C55369  10.905   6.184   9.460 -0.0370 -0.1096 -0.3656
  420MOL0     C55370  10.974   6.289   9.539 -0.2020  0.4533  1.0495
  420MOL0     C55371  11.001   6.397   9.450 -0.3289 -0.7333  0.2553
  420MOL0     C55372  11.015   6.484   9.362 -0.4107  0.3452 -1.2568
  420MOL0     C55373  10.515   5.853   9.439  0.7145  0.2997  0.5536
  420MOL0     C55374  10.386   5.800   9.452  0.4933  1.1518 -0.8270
  420MOL0     H55375  10.034   5.638   9.838  1.5921 -1.0288 -2.3539
  420MOL0     H55376   9.802   5.521   9.846  0.7721  0.9579 -1.0889
  420MOL0     H55377   9.606   5.676   9.940  1.7865 -0.7893 -0.1301
  420MOL0     H55378   9.591   5.493   9.916 -0.3949 -0.4502 -0.6969
  420MOL0     H55379   9.366   5.510   9.837  1.3655  3.4402 -4.1856
  420MOL0     H55380   9.356   5.679   9.888 -0.3520 -1.3823 -0.9300
  420MOL0     H55381   9.394   5.446  10.067  0.9446  0.5212  0.9004
  420MOL0     H55382   9.251   5.553  10.051 -0.1600  2.9015 -2.3701
  420MOL0     H55383   9.499   5.691  10.130 -0.4818  1.3386  1.9768
  420MOL0     H55384   9.326   5.738  10.148 -1.0006  0.0697  1.5585
  420MOL0     H55385   9.475   5.522  10.306  0.5007 -0.5308 -3.0105
  420MOL0     H55386   9.301   5.555  10.300 -1.1774  1.3636 -2.1828
  420MOL0     H55387   9.354   5.785  10.386  2.1876  2.1894 -0.5103
  420MOL0     H55388   9.517   5.742  10.385 -0.6727  1.7030 -2.7676
  420MOL0     H55389   9.388   5.529  10.539 -0.9425 -1.1608  2.6786
  420MOL0     H55390   9.498   5.649  10.598 -0.9637  1.4141 -1.9226
  420MOL0     H55391   9.309   5.813  10.639 -0.1081  0.0644 -0.5524
  420MOL0     H55392   9.332   5.667  10.735 -3.1614  1.7098  1.9966
  420MOL0     H55393   9.074   5.850  10.555 -1.3822 -0.1789  1.4512
  420MOL0     H55394   8.808   5.593  10.413  0.4216  0.1151 -0.2522
  420MOL0     H55395   8.871   5.731  10.324  2.3814 -1.3881 -0.3372
  420MOL0     H55396   8.809   5.895  10.481 -1.1852  0.8647  0.2851
  420MOL0     H55397   8.810   5.775  10.612  2.6159  2.7027  0.0180
  420MOL0     H55398   8.596   5.693  10.568 -3.1860 -0.0721 -1.7558
  420MOL0     H55399   8.568   5.860  10.543 -2.6137 -2.2203  2.7515
  420MOL0     H55400   8.615   5.676  10.310  0.4159 -0.0674  2.8369
  420MOL0     H55401   8.577   5.850  10.308 -0.8938  0.6358  0.8180
  420MOL0     H55402   8.486   5.651  10.143  0.3322 -1.1984  0.7894
  420MOL0     H55403   8.369   5.684   9.944 -2.2391  0.8630 -1.3321
  420MOL0     H55404   7.906   5.569   9.759 -0.8111  0.1582 -0.4990
  420MOL0     H55405   7.764   5.575   9.551  0.0077  2.5229  2.6518
  420MOL0     H55406   7.714   5.522   9.355  1.3787  0.9644  1.1181
  420MOL0     H55407   7.689   5.606   9.195  1.9215 -0.7632 -1.0998
  420MOL0     H55408   7.608   5.801   9.309  0.1035 -1.7165 -0.9998
  420MOL0     H55409   7.597   5.723   9.462  1.8181 -0.4233 -0.2416
  420MOL0     H55410   7.469   5.627   9.206 -0.7495  2.9289 -0.0630
  420MOL0     H55411   7.385   5.691   9.350 -1.0740 -0.6624 -2.0458
  420MOL0     H55412   7.519   5.416   9.349 -1.8553 -2.9673  1.0790
  420MOL0     H55413   7.453   5.492   9.480 -2.2173 -1.4029 -0.4621
  420MOL0     H55414   7.306   5.448   9.214  0.9413  0.1847  0.3443
  420MOL0     H55415   7.234   5.513   9.358  0.9006 -0.4874  1.8023
  420MOL0     H55416   7.302   5.329   9.498  2.5149 -0.1074 -1.8515
  420MOL0     H55417   7.346   5.236   9.359  1.2586  0.3641  1.3516
  420MOL0     H55418   7.075   5.325   9.454 -1.7921 -2.1629  1.7592
  420MOL0     H55419   7.096   5.285   9.288  1.2719  0.3701 -0.4080
  420MOL0     H55420   7.027   5.070   9.424 -0.6197  1.0447  0.0631
  420MOL0     H55421   7.183   5.085   9.506  1.6874 -1.3755 -1.5228
  420MOL0     H55422   8.086   5.766   9.351  1.4994  0.3765 -0.0078
  420MOL0     H55423   8.218   5.774   9.553 -0.1944  0.7475  2.4061
  420MOL0     H55424   8.018   5.776  10.171 -0.3852 -0.5934 -2.4497
  420MOL0     H55425   8.163   5.803  10.374  0.0909 -1.6152  0.3716
  420MOL0     H55426   9.650   5.825   9.584 -0.4468 -2.8490 -3.1386
  420MOL0     H55427   9.872   5.928   9.583 -2.4280  0.5104 -0.0223
  420MOL0     H55428  10.289   5.958   9.740 -0.5863 -0.5345 -0.6731
  420MOL0     H55429  10.501   6.022   9.741 -1.3916  0.1624  0.0018
  420MOL0     H55430  10.778   5.964   9.356 -0.5984  1.7740 -0.1892
  420MOL0     H55431  10.829   5.851   9.475  2.2934  0.6831  2.2115
  420MOL0     H55432  10.962   6.032   9.598  2.4885 -0.3594 -1.8514
  420MOL0     H55433  10.998   6.000   9.439  2.5661  0.9652  2.8437
  420MOL0     H55434  10.801   6.213   9.441 -1.1721 -3.2047  0.5078
  420MOL0     H55435  10.951   6.177   9.361 -2.5246  2.9681 -1.9255
  420MOL0     H55436  10.906   6.325   9.616 -1.3893 -0.7586  0.6017
  420MOL0     H55437  11.069   6.247   9.573 -0.2502 -0.0208  0.6138
  420MOL0     H55438  11.057   6.558   9.297  2.5430 -0.6178 -0.5903
  420MOL0     H55439  10.569   5.838   9.346 -1.5412 -1.0955 -0.6323
  420MOL0     H55440  10.351   5.739   9.369  0.3902  0.0051  0.0257
  421MOL0     O55441   9.941  10.645   8.290 -0.6219 -0.2156  1.0243
  421MOL0     C55442   9.871  10.606   8.380  0.4667 -0.4215  0.2256
  421MOL0     O55443   9.902  10.509   8.473 -1.1685 -0.2738 -0.4798
  421MOL0     C55444  10.028  10.471   8.476  0.2289  0.1615  0.1310
  421MOL0     C55445  10.060  10.359   8.397 -0.3875  0.6768 -0.2698
  421MOL0     C55446  10.185  10.294   8.409  0.0537 -0.9831  1.1740
  421MOL0     C55447  10.291  10.353   8.490  0.1366 -0.1577 -0.2553
  421MOL0     O55448  10.414  10.288   8.488  0.0922  0.6695  0.1113
  421MOL0     C55449  10.516  10.336   8.575 -0.5355 -0.4500 -0.0198
  421MOL0     C55450  10.649  10.249   8.580  1.1027  0.1110  0.4563
  421MOL0     C55451  10.648  10.101   8.539 -0.0723 -0.1027 -0.1465
  421MOL0     C55452  10.555  10.029   8.636 -0.2884  0.3090  0.4450
  421MOL0     C55453  10.536   9.882   8.585 -1.0241 -0.2756 -0.3162
  421MOL0     C55454  10.467   9.799   8.690 -0.7993 -0.5366 -0.1383
  421MOL0     C55455  10.424   9.666   8.631 -0.3110  0.7163  0.5996
  421MOL0     C55456  10.350   9.572   8.729  0.4037 -0.0164 -0.7957
  421MOL0     N55457  10.208   9.625   8.756  1.3065  0.0732  1.2370
  421MOL0     C55458  10.156   9.683   8.864  0.4254 -0.5364 -0.8840
  421MOL0     C55459  10.032   9.717   8.842 -0.2769 -0.6459 -0.9543
  421MOL0     C55460   9.941   9.807   8.932 -0.9384  0.1330  0.9152
  421MOL0     C55461  10.025   9.877   9.041  0.2430  0.1861  0.9547
  421MOL0     C55462   9.936   9.975   9.126 -0.3479  0.1621  0.1553
  421MOL0     C55463   9.827   9.903   9.205  0.5100 -0.1018  0.8120
  421MOL0     O55464   9.724   9.997   9.258  0.3100  0.3896  0.1812
  421MOL0     C55465   9.622  10.041   9.183  0.1102  0.2579  0.3096
  421MOL0     C55466   9.518  10.118   9.236 -0.0818 -0.5269 -0.2552
  421MOL0     C55467   9.416  10.170   9.164 -0.0035  0.6088  0.2531
  421MOL0     C55468   9.403  10.144   9.024  0.6522  0.0651 -0.3855
  421MOL0     C55469   9.286  10.197   8.951 -0.3426 -0.6710  0.5724
  421MOL0     O55470   9.311  10.198   8.814 -0.2109  0.7179 -0.0471
  421MOL0     C55471   9.222  10.254   8.730 -0.0119  0.3926  1.4455
  421MOL0     C55472   9.177  10.173   8.625 -0.0224 -1.0316  1.1901
  421MOL0     C55473   9.098  10.231   8.524 -0.5748 -0.1873 -0.0492
  421MOL0     C55474   9.065  10.371   8.532  0.2275  0.7046  0.7475
  421MOL0     O55475   8.991  10.440   8.436  0.1337 -0.2209 -0.5386
  421MOL0     C55476   8.876  10.374   8.386  0.2995 -0.9110  0.0366
  421MOL0     C55477   8.762  10.466   8.352 -0.9133 -0.8521 -0.5125
  421MOL0     C55478   8.787  10.527   8.221 -0.1587  0.7987 -0.4478
  421MOL0     C55479   8.701  10.657   8.210  1.4714 -0.2517  0.1875
  421MOL0     C55480   8.729  10.715   8.075 -0.4677  0.0668  0.6188
  421MOL0     C55481   8.662  10.852   8.063 -0.7009 -0.4215  0.3606
  421MOL0     C55482   8.676  10.910   7.920  1.0005  0.8547  0.3109
  421MOL0     C55483   8.654  11.054   7.919  0.0053  0.3563 -0.6032
  421MOL0    Cl55484   8.647  11.139   7.755  0.0155 -0.0397 -0.2609
  421MOL0     C55485   9.112  10.446   8.639  0.1780  0.0197 -0.7665
  421MOL0     C55486   9.189  10.388   8.737 -0.0075 -0.2179  0.6555
  421MOL0     O55487   9.174  10.210   8.993 -0.1047 -0.6781 -0.2824
  421MOL0     C55488   9.502  10.062   8.967 -0.8860 -0.0128 -0.1042
  421MOL0     C55489   9.608  10.011   9.047  0.1381  0.1136 -0.7920
  421MOL0     N55490  10.005   9.680   8.710 -0.1045  0.3041  0.3668
  421MOL0     N55491  10.110   9.629   8.658 -0.4201 -0.0258 -1.3250
  421MOL0     C55492  10.258  10.464   8.573 -0.7952 -0.8620  0.1496
  421MOL0     C55493  10.123  10.512   8.572  0.2534  0.0632  0.4831
  421MOL0     C55494   9.737  10.662   8.380 -0.0636  0.4884  0.2109
  421MOL0     C55495   9.719  10.793   8.332  0.5893  0.5507 -0.6170
  421MOL0     C55496   9.588  10.831   8.334  0.4221  0.1030 -0.5270
  421MOL0     C55497   9.483  10.757   8.390  0.3833 -0.1482  0.5155
  421MOL0     O55498   9.346  10.777   8.414 -0.7190  0.1895  0.3328
  421MOL0     C55499   9.292  10.908   8.395  0.1928  0.5513  0.4590
  421MOL0     C55500   9.144  10.882   8.354  0.2074  0.9697  0.0842
  421MOL0     C55501   9.055  11.001   8.360 -0.1489  0.3447 -0.2307
  421MOL0     C55502   8.902  10.969   8.352  0.2525  0.2137  0.2610
  421MOL0     C55503   8.827  11.096   8.331 -0.2604 -0.3082 -0.0884
  421MOL0     C55504   8.760  11.197   8.323  0.0433  0.7039  0.2265
  421MOL0     C55505   9.511  10.636   8.431  0.1702 -0.2464  0.4550
  421MOL0     C55506   9.637  10.579   8.433 -0.0323  0.4791  0.4438
  421MOL0     H55507   9.981  10.313   8.338 -1.2074 -0.6149  1.7373
  421MOL0     H55508  10.201  10.212   8.340  1.2553  0.3627 -0.2249
  421MOL0     H55509  10.478  10.345   8.678  2.6055 -0.5062  1.2669
  421MOL0     H55510  10.547  10.435   8.540 -0.4199  0.0872  1.5086
  421MOL0     H55511  10.685  10.256   8.683  0.7841  0.2716  0.5562
  421MOL0     H55512  10.724  10.297   8.517 -0.0513  0.2862 -0.8249
  421MOL0     H55513  10.751  10.067   8.557  1.3994  3.8737  0.0412
  421MOL0     H55514  10.619  10.091   8.434  3.9693  2.3469 -1.7165
  421MOL0     H55515  10.595  10.025   8.737 -2.1610 -0.1724  1.2119
  421MOL0     H55516  10.461  10.086   8.634  0.8722  2.6884 -4.6493
  421MOL0     H55517  10.627   9.822   8.570 -0.8119  0.8241 -4.5366
  421MOL0     H55518  10.481   9.877   8.491 -0.3145 -1.6283 -0.6908
  421MOL0     H55519  10.377   9.860   8.695 -0.0702  0.7438 -1.6869
  421MOL0     H55520  10.524   9.787   8.783  1.4554 -1.4769 -1.5394
  421MOL0     H55521  10.367   9.683   8.540 -2.7110 -4.1074  0.8804
  421MOL0     H55522  10.524   9.639   8.598 -1.6118 -2.1014 -1.4709
  421MOL0     H55523  10.406   9.559   8.822 -2.4374  0.9338  1.1834
  421MOL0     H55524  10.343   9.469   8.693 -2.3695 -0.7999  1.5861
  421MOL0     H55525  10.200   9.717   8.958 -1.2711  3.8691 -1.4280
  421MOL0     H55526   9.876   9.745   8.994 -1.5198  1.0750  1.2633
  421MOL0     H55527   9.897   9.878   8.862 -1.4818 -1.5631 -0.5234
  421MOL0     H55528  10.093   9.943   8.985 -0.5674 -0.0270 -0.3221
  421MOL0     H55529  10.086   9.815   9.107  0.0215  1.5390  2.4852
  421MOL0     H55530   9.999  10.042   9.186  1.4916 -1.8465  0.5779
  421MOL0     H55531   9.905  10.040   9.043  1.6917  0.2701 -0.5696
  421MOL0     H55532   9.882   9.850   9.283  1.8904 -0.6063 -0.4597
  421MOL0     H55533   9.784   9.815   9.156 -5.3112  0.7560  3.5591
  421MOL0     H55534   9.509  10.146   9.340 -1.8594  0.8479 -0.7097
  421MOL0     H55535   9.343  10.235   9.211 -0.1149 -0.9230  2.3654
  421MOL0     H55536   9.209  10.069   8.619 -3.2249 -2.0694  0.1672
  421MOL0     H55537   9.059  10.170   8.443 -0.6163  1.3991 -1.2673
  421MOL0     H55538   8.834  10.307   8.461 -2.1953  0.7932  0.2916
  421MOL0     H55539   8.904  10.308   8.303  1.6489  0.6375 -0.7982
  421MOL0     H55540   8.759  10.546   8.426 -1.2514 -0.3866 -1.0166
  421MOL0     H55541   8.664  10.418   8.347 -1.1512 -0.3185 -1.2593
  421MOL0     H55542   8.765  10.451   8.145  2.2881 -2.1336  1.5153
  421MOL0     H55543   8.893  10.552   8.213  1.3493 -4.2270  0.2167
  421MOL0     H55544   8.597  10.626   8.221  1.7280 -1.0923  0.3308
  421MOL0     H55545   8.708  10.721   8.298 -1.7269 -1.2564  1.3027
  421MOL0     H55546   8.693  10.661   7.987 -2.4656  0.3431  1.2178
  421MOL0     H55547   8.837  10.721   8.062 -0.4671  0.4509  0.7788
  421MOL0     H55548   8.709  10.922   8.133  1.1656  0.0215 -1.2161
  421MOL0     H55549   8.554  10.863   8.076 -0.5783  0.6096  0.6067
  421MOL0     H55550   8.780  10.910   7.886 -0.0722 -2.6561 -3.9083
  421MOL0     H55551   8.600  10.861   7.858 -0.3487  2.0877  0.9417
  421MOL0     H55552   8.715  11.113   7.988 -2.6716  1.7955  0.7151
  421MOL0     H55553   8.550  11.074   7.947 -0.9787 -0.7930 -3.1801
  421MOL0     H55554   9.095  10.553   8.644  2.0398  0.3083  0.5917
  421MOL0     H55555   9.215  10.460   8.814  1.4407 -1.7655  1.6962
  421MOL0     H55556   9.510  10.038   8.862  1.6902 -0.4453  0.1078
  421MOL0     H55557   9.694   9.960   9.004  2.3742  1.1673  2.0295
  421MOL0     H55558  10.331  10.506   8.642 -0.0349  2.3720 -2.3492
  421MOL0     H55559  10.079  10.589   8.634 -2.9176 -3.3841  2.9765
  421MOL0     H55560   9.794  10.860   8.291  0.3889  0.7371 -0.6882
  421MOL0     H55561   9.579  10.933   8.297  1.2590  0.8350  1.1427
  421MOL0     H55562   9.343  10.963   8.315 -0.7671 -0.7213 -1.0946
  421MOL0     H55563   9.291  10.965   8.489 -3.4884  0.7842  0.4553
  421MOL0     H55564   9.153  10.841   8.253  1.4626 -1.1715  1.0025
  421MOL0     H55565   9.107  10.803   8.419  0.4787  0.1379 -0.7490
  421MOL0     H55566   9.082  11.076   8.285  0.7261 -0.0332 -0.3042
  421MOL0     H55567   9.086  11.047   8.454  0.0932  2.6776 -1.3824
  421MOL0     H55568   8.875  10.893   8.278 -0.4159  0.1085  0.5976
  421MOL0     H55569   8.873  10.916   8.444  0.6264 -5.2880 -2.4005
  421MOL0     H55570   8.699  11.285   8.328 -0.8554  0.2847 -2.1434
  421MOL0     H55571   9.432  10.580   8.479 -1.3813 -0.5028 -2.1791
  421MOL0     H55572   9.654  10.478   8.469 -1.5395  0.1672  0.3379
  422MOL0     O55573   5.534   1.703   7.029  0.2487 -0.5127 -0.1078
  422MOL0     C55574   5.500   1.671   7.143 -1.1487  0.9684  0.2041
  422MOL0     O55575   5.379   1.690   7.201 -0.1492 -0.0764 -0.4248
  422MOL0     C55576   5.279   1.744   7.130  0.3662  0.3540 -0.7785
  422MOL0     C55577   5.212   1.861   7.185  0.6806  0.0065  0.6390
  422MOL0     C55578   5.099   1.894   7.117  0.7820 -0.2774  0.2300
  422MOL0     C55579   5.052   1.833   7.001  0.4378 -0.9054  1.2649
  422MOL0     O55580   4.946   1.888   6.933  0.5143  0.6899  0.1402
  422MOL0     C55581   4.860   1.805   6.854  0.6259 -0.5154 -0.5182
  422MOL0     C55582   4.734   1.875   6.806  0.2878  0.2943  0.0538
  422MOL0     C55583   4.625   1.893   6.923 -0.7928  0.2371  0.5840
  422MOL0     C55584   4.490   1.932   6.861 -0.3776 -0.0947  0.0148
  422MOL0     C55585   4.410   1.989   6.984  1.2168  0.6131  0.8278
  422MOL0     C55586   4.265   2.035   6.947 -0.0275 -0.2163 -0.2654
  422MOL0     C55587   4.164   1.918   6.935 -0.2188  1.3038  0.0215
  422MOL0     C55588   4.040   1.968   6.858  0.1335 -0.2926 -1.1704
  422MOL0     N55589   3.942   1.858   6.852  0.6266 -0.7939 -0.3615
  422MOL0     C55590   3.829   1.851   6.938  0.5213  0.0925 -0.2307
  422MOL0     C55591   3.782   1.730   6.922  0.3913  0.2322 -0.3065
  422MOL0     C55592   3.694   1.657   7.005  0.8376 -0.2772  0.3681
  422MOL0     C55593   3.554   1.713   6.986  0.9855 -0.8325 -0.0515
  422MOL0     C55594   3.457   1.623   7.055  0.3080 -0.4762 -0.1341
  422MOL0     C55595   3.309   1.644   7.021 -0.1691 -0.7585 -0.2615
  422MOL0     O55596   3.238   1.537   7.088 -1.3664 -0.1480  0.1105
  422MOL0     C55597   3.108   1.515   7.060  0.3061  0.3260  0.1720
  422MOL0     C55598   3.082   1.380   7.051 -0.2749 -1.2042  0.2363
  422MOL0     C55599   2.953   1.345   7.017 -0.3607  0.8157 -0.4523
  422MOL0     C55600   2.853   1.448   6.991  0.1545 -0.8344 -1.0746
  422MOL0     C55601   2.712   1.416   6.978 -0.2661  0.2711 -0.7554
  422MOL0     O55602   2.688   1.282   6.946 -0.0559  0.0051 -0.0050
  422MOL0     C55603   2.566   1.230   6.922  0.4398  0.5529  0.3698
  422MOL0     C55604   2.568   1.088   6.921  1.2955 -0.1771 -0.0512
  422MOL0     C55605   2.449   1.007   6.889 -0.7335  0.0552  0.3436
  422MOL0     C55606   2.334   1.079   6.851  0.1790 -1.3050 -0.6729
  422MOL0     O55607   2.224   1.014   6.796  1.0778 -0.2995 -0.4359
  422MOL0     C55608   2.190   0.879   6.833  0.7453 -0.2314  0.7353
  422MOL0     C55609   2.033   0.866   6.852  0.4284  0.7712  0.4107
  422MOL0     C55610   2.013   0.745   6.947 -0.1044 -0.0877  0.1005
  422MOL0     C55611   1.865   0.705   6.971 -0.0661 -0.3082  0.6880
  422MOL0     C55612   1.862   0.564   7.029  0.2387 -0.6732  0.1789
  422MOL0     C55613   1.721   0.498   7.012 -1.6087 -0.2395 -0.3290
  422MOL0     C55614   1.716   0.363   7.089 -0.4149 -0.3882  0.0153
  422MOL0     C55615   1.590   0.292   7.039 -0.9034  0.1862 -0.1791
  422MOL0    Cl55616   1.446   0.378   7.095 -0.5980  0.1146 -0.0855
  422MOL0     C55617   2.335   1.225   6.847  0.1647  0.0360  0.3842
  422MOL0     C55618   2.448   1.295   6.890  0.3337  0.5342  0.1545
  422MOL0     O55619   2.626   1.495   6.999 -0.3560 -0.4190  0.3493
  422MOL0     C55620   2.883   1.583   7.020  0.4104  1.0267  0.5904
  422MOL0     C55621   3.014   1.619   7.034  0.4282 -0.1796  0.2395
  422MOL0     N55622   3.855   1.667   6.825  0.2972 -0.3388 -0.4879
  422MOL0     N55623   3.955   1.741   6.790 -0.2523 -0.0058 -0.4926
  422MOL0     C55624   5.113   1.717   6.957 -0.2442 -0.6854  0.0115
  422MOL0     C55625   5.223   1.670   7.029  0.3886  0.3803  0.0327
  422MOL0     C55626   5.601   1.610   7.228 -1.0365  0.1307 -0.6012
  422MOL0     C55627   5.584   1.582   7.366 -0.4782 -0.7941  0.6031
  422MOL0     C55628   5.688   1.517   7.441 -0.3588  0.4542 -0.6003
  422MOL0     C55629   5.819   1.480   7.384 -0.7737 -0.2158  0.0775
  422MOL0     O55630   5.922   1.411   7.448  0.0017 -0.0363  0.4920
  422MOL0     C55631   5.920   1.387   7.590 -0.1347 -0.0861 -0.7272
  422MOL0     C55632   6.043   1.290   7.631 -0.4241 -0.2939  0.5014
  422MOL0     C55633   6.163   1.383   7.663 -0.1768  0.3321 -0.3996
  422MOL0     C55634   6.286   1.297   7.682 -0.1025  0.0213  0.1393
  422MOL0     C55635   6.299   1.260   7.816 -0.2653  0.0900 -0.5293
  422MOL0     C55636   6.302   1.230   7.936 -0.5131  0.4029  0.1871
  422MOL0     C55637   5.829   1.495   7.247  0.2061  1.1539  0.3725
  422MOL0     C55638   5.728   1.562   7.177  0.3576  0.2859  0.4296
  422MOL0     H55639   5.262   1.901   7.273  0.0250  4.2100 -0.6886
  422MOL0     H55640   5.044   1.982   7.149  2.7148  0.5882  1.3291
  422MOL0     H55641   4.832   1.715   6.910 -1.6456 -1.5330 -3.0690
  422MOL0     H55642   4.912   1.765   6.767  2.4458  0.1492  0.2195
  422MOL0     H55643   4.695   1.817   6.722  3.0574 -0.9027 -0.5068
  422MOL0     H55644   4.759   1.972   6.763 -1.6211 -0.0182 -1.9838
  422MOL0     H55645   4.657   1.977   6.986 -2.4727  1.2714  0.0986
  422MOL0     H55646   4.617   1.801   6.981 -0.4053 -0.0621  0.1725
  422MOL0     H55647   4.519   2.018   6.800 -3.6594  0.3932 -1.0055
  422MOL0     H55648   4.444   1.857   6.797 -0.5964 -0.0951  0.1741
  422MOL0     H55649   4.473   2.067   7.028  0.3452 -0.1502  3.5978
  422MOL0     H55650   4.402   1.910   7.059 -0.0462 -0.4484 -0.3897
  422MOL0     H55651   4.269   2.088   6.851 -0.8157 -1.6885 -1.1577
  422MOL0     H55652   4.221   2.095   7.026 -1.0705 -0.5929 -0.5386
  422MOL0     H55653   4.211   1.833   6.885  0.9517  1.8886  0.0884
  422MOL0     H55654   4.142   1.877   7.034  0.0798  0.4200 -0.2724
  422MOL0     H55655   4.074   1.995   6.758  4.3056  1.4626  0.4924
  422MOL0     H55656   3.990   2.056   6.899  2.9157 -0.4137  3.0942
  422MOL0     H55657   3.795   1.915   7.019 -0.4586 -1.3140  0.5137
  422MOL0     H55658   3.711   1.663   7.113  0.3668  1.7342  0.3763
  422MOL0     H55659   3.706   1.550   6.986  1.2479 -0.1043 -0.3355
  422MOL0     H55660   3.535   1.699   6.879  1.5262 -2.4966  0.0386
  422MOL0     H55661   3.538   1.816   7.018  0.7142 -0.9235  0.1181
  422MOL0     H55662   3.496   1.522   7.046  0.2571 -0.9163  3.2817
  422MOL0     H55663   3.455   1.652   7.160 -1.6478  0.7152 -0.4339
  422MOL0     H55664   3.302   1.637   6.912 -1.3198  0.5016 -0.3039
  422MOL0     H55665   3.266   1.745   7.023 -0.2333 -0.6633 -2.6858
  422MOL0     H55666   3.161   1.307   7.061 -0.5227 -1.8131 -1.7119
  422MOL0     H55667   2.925   1.240   7.008 -0.5943  0.8220  0.1584
  422MOL0     H55668   2.666   1.044   6.937  0.4395 -4.1417 -3.7957
  422MOL0     H55669   2.456   0.899   6.880 -1.6888  0.1622 -3.0887
  422MOL0     H55670   2.246   0.831   6.915  0.4942  0.1232  1.1219
  422MOL0     H55671   2.218   0.816   6.748  0.3698 -0.6961  0.9510
  422MOL0     H55672   1.976   0.852   6.759  1.3278  2.4633 -0.4378
  422MOL0     H55673   1.992   0.955   6.901 -1.1522 -0.0543  0.6715
  422MOL0     H55674   2.067   0.756   7.041 -1.5891 -4.1510  1.6356
  422MOL0     H55675   2.053   0.662   6.887 -1.8124  0.3492 -1.7668
  422MOL0     H55676   1.808   0.778   7.029  0.3930  1.2233 -0.7033
  422MOL0     H55677   1.821   0.699   6.871  5.5407 -2.0073 -2.0880
  422MOL0     H55678   1.899   0.578   7.131  2.9613 -2.8133 -0.3734
  422MOL0     H55679   1.936   0.500   6.978 -1.2179 -0.6585 -2.0554
  422MOL0     H55680   1.706   0.468   6.908  0.0650 -0.0583 -0.6476
  422MOL0     H55681   1.641   0.564   7.046 -0.1114  1.2366  0.4650
  422MOL0     H55682   1.801   0.295   7.072 -0.8176 -0.8384 -0.2568
  422MOL0     H55683   1.716   0.381   7.196 -1.6414 -0.1341 -0.0097
  422MOL0     H55684   1.583   0.189   7.075 -2.4703 -0.4958 -2.2368
  422MOL0     H55685   1.593   0.268   6.932 -1.7243 -3.9968  0.5601
  422MOL0     H55686   2.245   1.271   6.808 -0.9839 -1.6275  0.9585
  422MOL0     H55687   2.455   1.403   6.883 -0.4798  0.7043  1.5918
  422MOL0     H55688   2.824   1.672   6.997  1.1091  0.8734 -2.0879
  422MOL0     H55689   3.053   1.719   7.043  4.5632 -1.2521 -2.8251
  422MOL0     H55690   5.061   1.659   6.882 -0.5637  1.2549 -1.3392
  422MOL0     H55691   5.267   1.572   7.015  0.1810 -0.2869  3.2657
  422MOL0     H55692   5.494   1.614   7.419 -0.4246  2.3414 -0.9674
  422MOL0     H55693   5.656   1.499   7.543  1.9576 -1.0529 -0.0721
  422MOL0     H55694   5.822   1.343   7.609 -1.0818  2.6553  1.2872
  422MOL0     H55695   5.931   1.477   7.651  3.7129 -0.3579 -0.7613
  422MOL0     H55696   6.020   1.239   7.725  2.1288 -4.3578 -0.8597
  422MOL0     H55697   6.057   1.203   7.566  0.8240 -1.0195  1.6952
  422MOL0     H55698   6.138   1.441   7.753  2.5936  2.0059 -0.6139
  422MOL0     H55699   6.179   1.452   7.579  3.1399  1.0262  0.6729
  422MOL0     H55700   6.285   1.218   7.606  0.5055 -0.6755  0.8464
  422MOL0     H55701   6.372   1.362   7.658 -0.1490 -0.4432 -1.3672
  422MOL0     H55702   6.297   1.217   8.042 -1.6422 -0.2494  0.0736
  422MOL0     H55703   5.915   1.466   7.188 -0.1441  0.4997  0.1828
  422MOL0     H55704   5.755   1.587   7.075  2.4636  1.9844  1.3261
  423MOL0     O55705   4.646   1.694  11.273 -0.3256  0.2133 -0.0183
  423MOL0     C55706   4.580   1.626  11.198  0.9103  0.2930  0.7838
  423MOL0     O55707   4.580   1.492  11.173 -0.5824 -0.2993  0.0579
  423MOL0     C55708   4.646   1.428  11.273  0.1024 -0.1501 -0.3009
  423MOL0     C55709   4.589   1.405  11.401 -0.2499  0.3548 -0.5407
  423MOL0     C55710   4.652   1.320  11.495  0.7463 -1.0984 -0.7171
  423MOL0     C55711   4.781   1.265  11.471 -0.0366 -0.1204  0.2592
  423MOL0     O55712   4.852   1.187  11.561 -0.4488  0.1301 -0.7038
  423MOL0     C55713   4.779   1.134  11.672  0.3082  0.1290 -0.1153
  423MOL0     C55714   4.860   1.022  11.740 -0.2896  0.2415 -0.2813
  423MOL0     C55715   5.006   1.059  11.775 -0.3489 -0.9151 -0.1206
  423MOL0     C55716   5.045   0.982  11.903  0.2432  0.1712 -0.0859
  423MOL0     C55717   5.201   0.993  11.920 -0.3812  0.4557  0.5908
  423MOL0     C55718   5.283   0.905  11.823 -0.5275 -0.4554  0.1018
  423MOL0     C55719   5.430   0.910  11.858 -0.8036 -0.4371  0.4923
  423MOL0     C55720   5.474   0.806  11.968  0.2275 -1.1977  0.0068
  423MOL0     N55721   5.618   0.790  11.975  0.9642 -0.1883  0.6410
  423MOL0     C55722   5.698   0.805  12.085  0.0875  1.1939 -0.6138
  423MOL0     C55723   5.823   0.764  12.041  0.3348  0.2459  0.3278
  423MOL0     C55724   5.945   0.741  12.120  0.1255  0.0395  0.6696
  423MOL0     C55725   6.072   0.782  12.045  0.3134  0.0471 -0.3011
  423MOL0     C55726   6.200   0.797  12.130 -0.6779 -0.2730 -0.3985
  423MOL0     C55727   6.324   0.838  12.058 -0.0224  0.9011  0.5700
  423MOL0     O55728   6.352   0.741  11.950 -0.5393 -0.3075  0.1988
  423MOL0     C55729   6.480   0.733  11.902  0.1661  0.6647  0.2886
  423MOL0     C55730   6.518   0.621  11.830 -0.0842 -0.0786  0.5561
  423MOL0     C55731   6.646   0.607  11.784 -0.3787 -0.2059 -0.3019
  423MOL0     C55732   6.749   0.701  11.805  0.1220  0.3511  0.2048
  423MOL0     C55733   6.882   0.683  11.746 -0.3160  0.2133  0.5270
  423MOL0     O55734   6.971   0.781  11.784  0.3393  0.1446 -0.6696
  423MOL0     C55735   7.100   0.803  11.742  0.0009  0.2114  0.0281
  423MOL0     C55736   7.150   0.765  11.615 -0.0851 -0.2156 -0.1001
  423MOL0     C55737   7.282   0.771  11.584 -0.8113  0.4784 -1.4675
  423MOL0     C55738   7.376   0.831  11.682  0.0408 -0.0696  0.9927
  423MOL0     O55739   7.507   0.854  11.658 -0.1251  0.6837  0.9893
  423MOL0     C55740   7.608   0.854  11.761 -0.0609  0.8810  0.9975
  423MOL0     C55741   7.741   0.863  11.689 -0.3585 -0.2096  0.4591
  423MOL0     C55742   7.767   0.764  11.573 -0.3863 -0.4505  0.2880
  423MOL0     C55743   7.918   0.725  11.553 -0.1027  0.6149  0.0388
  423MOL0     C55744   7.989   0.841  11.466  0.8449  0.1999  0.1952
  423MOL0     C55745   8.131   0.786  11.433 -0.5173  0.1565 -0.2352
  423MOL0     C55746   8.200   0.882  11.330  0.1875  0.9916  0.0758
  423MOL0     C55747   8.131   0.900  11.198 -0.6901 -0.1424 -0.1395
  423MOL0    Cl55748   8.261   0.982  11.097  0.4572 -0.4068  0.0879
  423MOL0     C55749   7.323   0.874  11.804  0.5134  1.0274  0.4889
  423MOL0     C55750   7.187   0.868  11.830 -0.9727 -0.1233  0.3142
  423MOL0     O55751   6.907   0.590  11.673 -0.1088  0.2093  0.3680
  423MOL0     C55752   6.709   0.821  11.868  0.4463  0.0729  0.8976
  423MOL0     C55753   6.575   0.840  11.920 -0.3576 -0.4344  0.1866
  423MOL0     N55754   5.813   0.733  11.907 -0.7551 -0.0897  0.2790
  423MOL0     N55755   5.696   0.756  11.872 -0.3115  0.3269  0.5986
  423MOL0     C55756   4.843   1.301  11.346 -0.1351  0.5092  0.2116
  423MOL0     C55757   4.780   1.377  11.251  0.9461  0.0508 -0.0060
  423MOL0     C55758   4.460   1.688  11.138  0.0351 -0.2947  1.2933
  423MOL0     C55759   4.383   1.628  11.028 -0.0562 -0.6961 -0.5962
  423MOL0     C55760   4.272   1.694  10.979  0.7111 -0.1932  0.1199
  423MOL0     C55761   4.229   1.813  11.027  0.1317  0.0575  0.8955
  423MOL0     O55762   4.116   1.869  10.968 -0.5956  0.4262 -1.2525
  423MOL0     C55763   4.128   1.988  10.902  0.3098  0.6112 -0.1759
  423MOL0     C55764   4.059   2.093  10.991 -0.1854  0.0461 -0.2755
  423MOL0     C55765   3.908   2.106  10.985 -0.1072 -0.0460 -0.8046
  423MOL0     C55766   3.860   2.222  11.073 -0.0857  0.7562  0.0217
  423MOL0     C55767   3.720   2.255  11.031  0.5354  0.8939  0.1006
  423MOL0     C55768   3.604   2.288  10.995 -1.0124  0.4772 -0.4733
  423MOL0     C55769   4.307   1.878  11.119 -0.1964  1.2386  0.9263
  423MOL0     C55770   4.419   1.820  11.176 -0.8977 -0.0449 -0.5895
  423MOL0     H55771   4.486   1.440  11.407 -0.5799 -0.1531 -2.5857
  423MOL0     H55772   4.603   1.289  11.586  2.5496 -0.3105  0.5822
  423MOL0     H55773   4.683   1.089  11.644  0.3852  1.3794 -2.7441
  423MOL0     H55774   4.763   1.218  11.741 -0.7775  0.3543 -0.6224
  423MOL0     H55775   4.864   0.925  11.690 -1.2013  0.0328  0.0412
  423MOL0     H55776   4.812   0.996  11.834 -0.9301  0.6895 -0.4740
  423MOL0     H55777   5.010   1.168  11.788  0.4648 -1.0740  1.1113
  423MOL0     H55778   5.069   1.030  11.690  0.0628 -0.2229 -0.0561
  423MOL0     H55779   5.004   1.011  12.001  4.2749 -1.7956  2.4636
  423MOL0     H55780   5.024   0.877  11.881  2.2900 -0.4051  0.5117
  423MOL0     H55781   5.229   0.953  12.018  1.2336 -0.9589 -0.4045
  423MOL0     H55782   5.231   1.096  11.898 -0.4626  0.2523 -0.5109
  423MOL0     H55783   5.277   0.930  11.717 -0.6171 -1.9559 -0.2652
  423MOL0     H55784   5.250   0.804  11.846  0.4192 -0.6663  0.5940
  423MOL0     H55785   5.484   0.901  11.764  1.3758  4.5116  0.9626
  423MOL0     H55786   5.468   1.008  11.888  2.0785 -2.2801  3.6746
  423MOL0     H55787   5.434   0.706  11.952 -0.3628 -0.8989 -0.4075
  423MOL0     H55788   5.432   0.845  12.061 -0.3558 -1.2973 -0.2136
  423MOL0     H55789   5.667   0.840  12.184 -0.3122 -0.8759  0.0393
  423MOL0     H55790   5.939   0.639  12.159  2.2393 -0.7328 -0.8275
  423MOL0     H55791   5.938   0.803  12.210 -0.9384 -2.6767  2.6132
  423MOL0     H55792   6.065   0.889  12.023  1.3211  0.5572  1.6053
  423MOL0     H55793   6.082   0.728  11.951 -3.3837  1.2102 -1.5134
  423MOL0     H55794   6.191   0.855  12.222 -3.0806  0.1053 -0.8011
  423MOL0     H55795   6.240   0.704  12.172 -1.0864  0.5333  1.9231
  423MOL0     H55796   6.404   0.854  12.132 -1.6870 -0.4096  2.7577
  423MOL0     H55797   6.310   0.938  12.015 -0.5758 -0.9373 -4.1166
  423MOL0     H55798   6.446   0.543  11.810 -0.3570 -0.2982  2.2551
  423MOL0     H55799   6.683   0.514  11.742  1.3181 -1.8409  4.2568
  423MOL0     H55800   7.090   0.702  11.550 -0.7568  0.2553  0.0543
  423MOL0     H55801   7.322   0.728  11.493  2.9222  1.4982 -0.4787
  423MOL0     H55802   7.613   0.758  11.813 -0.4677 -0.4068 -1.2581
  423MOL0     H55803   7.598   0.939  11.830  0.5735  0.7120  1.3046
  423MOL0     H55804   7.814   0.837  11.767 -1.3334 -0.2201  1.3837
  423MOL0     H55805   7.760   0.961  11.646 -1.0220 -1.7645 -3.8941
  423MOL0     H55806   7.721   0.788  11.477 -1.1576  1.6892  1.1348
  423MOL0     H55807   7.724   0.666  11.598  0.8559 -1.2634 -0.6597
  423MOL0     H55808   7.967   0.715  11.650  1.1627  0.4793 -0.5989
  423MOL0     H55809   7.918   0.633  11.494  2.0657  0.1414  0.7166
  423MOL0     H55810   7.994   0.933  11.524  3.3005 -1.0872  2.2709
  423MOL0     H55811   7.933   0.858  11.374  1.6275  2.2508  0.0403
  423MOL0     H55812   8.127   0.685  11.390  2.3845 -0.2865  0.2982
  423MOL0     H55813   8.193   0.788  11.523 -2.6028  1.7363  1.2723
  423MOL0     H55814   8.207   0.984  11.369  1.1964 -0.0526  2.9408
  423MOL0     H55815   8.299   0.844  11.306  0.0722  0.1769  0.8325
  423MOL0     H55816   8.042   0.962  11.210  1.6397  3.6903 -0.8992
  423MOL0     H55817   8.097   0.803  11.160 -1.8098  1.2747 -2.9902
  423MOL0     H55818   7.391   0.897  11.885 -1.9697  1.4227  2.5991
  423MOL0     H55819   7.152   0.886  11.931 -0.9981  0.0811  0.2689
  423MOL0     H55820   6.780   0.902  11.872  0.4410  0.0576  1.3824
  423MOL0     H55821   6.536   0.928  11.971 -2.1688 -0.7813 -0.5164
  423MOL0     H55822   4.938   1.252  11.329 -0.0296  0.7426  0.1288
  423MOL0     H55823   4.825   1.389  11.153  0.8764 -1.1725 -0.2036
  423MOL0     H55824   4.393   1.535  10.972  1.7295  0.8890 -3.0978
  423MOL0     H55825   4.222   1.650  10.893 -1.3266  0.0833  1.1005
  423MOL0     H55826   4.089   1.976  10.800 -0.9131 -2.0754  0.5236
  423MOL0     H55827   4.233   2.016  10.895  0.9421 -1.6274 -0.3876
  423MOL0     H55828   4.086   2.075  11.096 -1.0314  2.5030  0.4497
  423MOL0     H55829   4.108   2.186  10.961  1.1576  0.1719  2.0332
  423MOL0     H55830   3.861   2.014  11.022  3.4371 -1.9268 -0.5848
  423MOL0     H55831   3.875   2.131  10.884  0.1099  1.6016 -0.4877
  423MOL0     H55832   3.869   2.204  11.180  0.9015 -0.1345 -0.1883
  423MOL0     H55833   3.925   2.309  11.069  0.4828  0.3497  0.2324
  423MOL0     H55834   3.497   2.286  10.991 -1.0914 -1.3598  1.1794
  423MOL0     H55835   4.276   1.977  11.148 -2.9333  0.9646 -0.6747
  423MOL0     H55836   4.481   1.873  11.247 -1.5762  0.4419 -0.3512
  424MOL0     O55837   9.501   8.222  10.111 -0.2449 -0.2033  0.7483
  424MOL0     C55838   9.597   8.145  10.102 -0.6514 -0.2478  1.0677
  424MOL0     O55839   9.608   8.036  10.018 -0.0603  0.7443  0.0398
  424MOL0     C55840   9.489   7.988   9.971  0.0143  0.4939 -0.0725
  424MOL0     C55841   9.467   7.976   9.834  0.4200 -0.2119  0.3306
  424MOL0     C55842   9.341   7.941   9.780  0.5028  0.5957 -0.4018
  424MOL0     C55843   9.236   7.906   9.864  0.4511 -0.5536  0.4111
  424MOL0     O55844   9.133   7.840   9.796  0.8321 -0.2402  0.6479
  424MOL0     C55845   9.037   7.763   9.870 -0.2127  0.1432 -0.9117
  424MOL0     C55846   9.014   7.639   9.784 -0.1103  0.2889 -0.4606
  424MOL0     C55847   8.970   7.515   9.880 -0.5463  0.7732  0.1532
  424MOL0     C55848   8.901   7.390   9.815  0.0818 -0.4722 -0.3713
  424MOL0     C55849   8.799   7.420   9.713  0.6971 -0.1229  0.9017
  424MOL0     C55850   8.694   7.523   9.760  0.6841 -0.2306  0.7657
  424MOL0     C55851   8.581   7.464   9.856 -0.6832  0.7789  1.2710
  424MOL0     C55852   8.491   7.565   9.934 -0.1648  0.9030  0.6286
  424MOL0     N55853   8.371   7.497   9.992  0.2057 -0.3604  0.1555
  424MOL0     C55854   8.257   7.453   9.930  0.5843 -0.3707  1.0439
  424MOL0     C55855   8.185   7.391  10.024 -0.0692 -0.9350 -0.1592
  424MOL0     C55856   8.064   7.312  10.027 -0.1664 -0.5682 -1.3856
  424MOL0     C55857   7.934   7.392  10.044  0.0828 -0.4474  0.1841
  424MOL0     C55858   7.879   7.473   9.918  0.3146 -0.4978 -1.1841
  424MOL0     C55859   7.726   7.493   9.912 -0.1091 -0.2441 -1.0507
  424MOL0     O55860   7.694   7.616   9.832 -0.6595  0.0912 -0.1952
  424MOL0     C55861   7.560   7.651   9.811  1.3436  0.3297  1.3950
  424MOL0     C55862   7.448   7.574   9.838  0.4247  0.7037  0.3820
  424MOL0     C55863   7.321   7.602   9.801 -0.0230 -0.0207 -0.1336
  424MOL0     C55864   7.294   7.720   9.735 -0.6969 -0.4815 -0.7267
  424MOL0     C55865   7.150   7.768   9.711 -0.4232  0.0847  0.2037
  424MOL0     O55866   7.052   7.689   9.766  0.0538 -0.2989 -0.1706
  424MOL0     C55867   6.920   7.708   9.735 -0.0901 -0.3106  0.1688
  424MOL0     C55868   6.864   7.763   9.621  0.5124 -0.4068 -0.0583
  424MOL0     C55869   6.720   7.767   9.603 -0.2911  0.2294  0.1219
  424MOL0     C55870   6.629   7.719   9.694  1.1478  1.3986  1.0787
  424MOL0     O55871   6.491   7.732   9.698 -0.2843 -0.0597 -0.3628
  424MOL0     C55872   6.426   7.829   9.613 -0.4431  0.3668  1.2412
  424MOL0     C55873   6.289   7.836   9.653 -0.0416 -0.3885 -0.6058
  424MOL0     C55874   6.215   7.929   9.552 -0.6871 -0.3482 -0.5731
  424MOL0     C55875   6.251   8.079   9.574 -0.2796 -0.6462 -1.2263
  424MOL0     C55876   6.153   8.159   9.486  0.5649  0.0519 -0.7098
  424MOL0     C55877   6.206   8.311   9.487  1.0225  0.2885 -0.1588
  424MOL0     C55878   6.097   8.403   9.412 -0.4030 -0.1329 -0.0210
  424MOL0     C55879   6.046   8.356   9.274  0.4645 -0.4031 -0.0831
  424MOL0    Cl55880   6.190   8.327   9.175  0.0748  0.4374  0.2815
  424MOL0     C55881   6.694   7.652   9.799  0.5379  0.2699 -0.6191
  424MOL0     C55882   6.832   7.652   9.819  1.5023  0.0695 -0.2750
  424MOL0     O55883   7.133   7.872   9.644  0.6866  0.5943 -0.5677
  424MOL0     C55884   7.404   7.807   9.707  0.9646  0.2158  0.9260
  424MOL0     C55885   7.532   7.775   9.750 -0.3658 -0.9667 -0.3330
  424MOL0     N55886   8.261   7.393  10.143 -0.2099  0.2438  0.0203
  424MOL0     N55887   8.374   7.456  10.122  0.5765  0.7193 -0.6287
  424MOL0     C55888   9.260   7.913  10.005  1.1255  0.6563  0.5560
  424MOL0     C55889   9.380   7.948  10.055 -0.4514 -1.8701 -0.5723
  424MOL0     C55890   9.713   8.195  10.155 -0.8669 -1.0897 -0.2165
  424MOL0     C55891   9.711   8.253  10.274  0.6758 -0.1047 -0.5215
  424MOL0     C55892   9.822   8.312  10.328  0.1779 -0.4682 -0.2714
  424MOL0     C55893   9.947   8.318  10.261  0.7874 -0.0987  0.1158
  424MOL0     O55894  10.052   8.383  10.326 -0.4313  0.1302  0.1606
  424MOL0     C55895  10.185   8.352  10.272 -0.6468 -0.5630 -1.0349
  424MOL0     C55896  10.291   8.433  10.342 -0.3480 -0.5287  0.0316
  424MOL0     C55897  10.429   8.376  10.296 -0.4852 -0.5730 -0.2714
  424MOL0     C55898  10.546   8.419  10.377  0.4206  0.5271 -0.1830
  424MOL0     C55899  10.549   8.566  10.343 -0.2670  0.6492 -0.2278
  424MOL0     C55900  10.558   8.684  10.312  0.1382  0.8083 -0.4750
  424MOL0     C55901   9.951   8.264  10.132  0.4249 -0.5328 -0.5439
  424MOL0     C55902   9.832   8.198  10.080  0.1544 -0.6171 -0.4249
  424MOL0     H55903   9.546   8.018   9.771 -0.4891  0.8101 -0.1622
  424MOL0     H55904   9.326   7.928   9.673  1.9987 -3.7666 -0.2842
  424MOL0     H55905   8.954   7.823   9.907  1.1483  1.6110 -0.1389
  424MOL0     H55906   9.088   7.721   9.957 -0.6553  0.5153 -0.4684
  424MOL0     H55907   9.098   7.614   9.719  0.8629  0.6267  0.6278
  424MOL0     H55908   8.929   7.656   9.718  0.4186  1.8739 -0.7771
  424MOL0     H55909   8.898   7.565   9.946  1.0120  0.4177  2.2098
  424MOL0     H55910   9.052   7.480   9.943  0.1544 -1.8930 -2.0327
  424MOL0     H55911   8.977   7.323   9.772  0.8857  0.1558  0.0425
  424MOL0     H55912   8.855   7.337   9.899 -0.0058  0.9347  0.5020
  424MOL0     H55913   8.746   7.334   9.671 -3.5706  3.7074 -2.6208
  424MOL0     H55914   8.848   7.475   9.632 -0.0502 -0.7766 -0.0124
  424MOL0     H55915   8.641   7.538   9.665 -1.7844 -1.7684  1.8030
  424MOL0     H55916   8.745   7.611   9.800  1.7719 -0.5257  0.0836
  424MOL0     H55917   8.517   7.394   9.800  0.7711  0.5074 -0.1265
  424MOL0     H55918   8.617   7.410   9.943 -3.9106 -0.4866  1.9499
  424MOL0     H55919   8.463   7.649   9.870 -2.2928 -0.7276 -0.7039
  424MOL0     H55920   8.549   7.594  10.023  0.5969  0.3266  0.3300
  424MOL0     H55921   8.215   7.471   9.832 -0.8473  1.2090  1.8765
  424MOL0     H55922   8.076   7.251  10.117 -0.1934  0.4688 -0.6581
  424MOL0     H55923   8.064   7.250   9.937 -0.2851 -1.6167 -0.6828
  424MOL0     H55924   7.947   7.454  10.132 -0.8282 -2.0641  1.5196
  424MOL0     H55925   7.860   7.315  10.069  1.4683 -1.3593  1.6620
  424MOL0     H55926   7.927   7.569   9.934  3.1370 -1.8843 -0.7219
  424MOL0     H55927   7.921   7.427   9.828  1.2567  1.4267 -1.7680
  424MOL0     H55928   7.691   7.499  10.016 -1.6877  3.9491 -1.5869
  424MOL0     H55929   7.680   7.405   9.867  1.7788 -0.8628 -1.8439
  424MOL0     H55930   7.466   7.480   9.888  1.4301  0.7290  0.0941
  424MOL0     H55931   7.243   7.539   9.843  0.4582  1.1828  2.8951
  424MOL0     H55932   6.918   7.823   9.548  2.5796  0.3890  2.0211
  424MOL0     H55933   6.689   7.821   9.514  0.3876  0.9775  0.3282
  424MOL0     H55934   6.440   7.794   9.510  0.6643  2.2040  0.7166
  424MOL0     H55935   6.483   7.923   9.621  1.1363 -0.6113  1.9618
  424MOL0     H55936   6.283   7.878   9.754  3.5629  0.5559 -0.6748
  424MOL0     H55937   6.242   7.737   9.655  0.9100 -0.8348  0.3608
  424MOL0     H55938   6.107   7.917   9.559 -0.4358 -3.3270 -0.4022
  424MOL0     H55939   6.247   7.909   9.450 -1.3898  0.4298 -0.9532
  424MOL0     H55940   6.236   8.088   9.682 -0.9578 -1.7882 -1.2123
  424MOL0     H55941   6.357   8.097   9.551 -0.1355 -0.9067 -0.7837
  424MOL0     H55942   6.051   8.147   9.523  0.6907  1.6106  0.1914
  424MOL0     H55943   6.156   8.126   9.382 -2.4845  0.9663 -1.1803
  424MOL0     H55944   6.289   8.308   9.415 -0.4354 -0.0314 -1.8959
  424MOL0     H55945   6.237   8.350   9.585  0.1797  1.1244 -0.2145
  424MOL0     H55946   6.013   8.423   9.479  1.2807  3.8979  1.1579
  424MOL0     H55947   6.135   8.501   9.383 -0.8229 -0.4384 -1.7501
  424MOL0     H55948   5.994   8.442   9.231  1.0498 -0.3468 -0.6898
  424MOL0     H55949   5.980   8.272   9.297 -0.0281  0.0346  0.1145
  424MOL0     H55950   6.638   7.597   9.874 -0.7917  0.4923 -1.4219
  424MOL0     H55951   6.883   7.610   9.905  1.7958  0.2655 -0.3517
  424MOL0     H55952   7.381   7.896   9.647 -2.3912 -1.8581 -1.2105
  424MOL0     H55953   7.616   7.841   9.730 -0.2263 -0.3871  1.9004
  424MOL0     H55954   9.181   7.875  10.068 -1.1536  3.6812 -0.2288
  424MOL0     H55955   9.398   7.954  10.162  2.6263  1.1451 -1.0484
  424MOL0     H55956   9.616   8.247  10.328  1.9813  0.6950  2.0679
  424MOL0     H55957   9.805   8.364  10.422 -1.7044  0.7803 -1.2488
  424MOL0     H55958  10.198   8.381  10.167  0.7751  1.0799 -0.4602
  424MOL0     H55959  10.191   8.243  10.280  0.4700 -0.3804  2.2961
  424MOL0     H55960  10.274   8.540  10.322 -3.0688 -1.0552 -0.9068
  424MOL0     H55961  10.273   8.424  10.449 -3.7955  0.9364 -0.2798
  424MOL0     H55962  10.450   8.390  10.190  1.5948  0.4910  0.2297
  424MOL0     H55963  10.422   8.268  10.313  0.6476 -0.3009  2.6476
  424MOL0     H55964  10.527   8.401  10.483  2.2034  3.6802  0.8083
  424MOL0     H55965  10.639   8.373  10.342  0.4113 -0.5183  1.0900
  424MOL0     H55966  10.559   8.789  10.292 -0.9320  1.7563  3.4783
  424MOL0     H55967  10.047   8.275  10.082  0.7480  1.2615  0.3842
  424MOL0     H55968   9.844   8.161   9.979  2.3204  0.8696 -0.7895
  425MOL0     O55969   0.127   1.188   8.182  0.8869  0.1731  0.2822
  425MOL0     C55970   0.196   1.116   8.110  0.7091  0.5539  0.2595
  425MOL0     O55971   0.163   1.033   8.011  0.1262 -0.7046 -0.2681
  425MOL0     C55972   0.036   1.008   7.967 -0.2833  0.4094 -0.2768
  425MOL0     C55973   0.029   0.910   7.867 -0.8403  0.7798  0.3310
  425MOL0     C55974  -0.093   0.861   7.813 -0.5372  0.2658  0.0701
  425MOL0     C55975  -0.207   0.936   7.853 -0.2811 -0.0527  0.5270
  425MOL0     O55976  -0.323   0.905   7.786 -0.8468 -0.2113  0.6326
  425MOL0     C55977  -0.446   0.940   7.855 -0.6619  0.1176 -0.2129
  425MOL0     C55978  -0.551   0.883   7.760 -0.2013 -0.2789  0.1485
  425MOL0     C55979  -0.690   0.911   7.796 -0.5138  0.6577 -0.2752
  425MOL0     C55980  -0.797   0.820   7.731  0.5058 -0.4195 -0.6397
  425MOL0     C55981  -0.946   0.859   7.782 -0.0597 -0.8247 -0.1508
  425MOL0     C55982  -1.065   0.789   7.720  0.6845  0.8418  0.1493
  425MOL0     C55983  -1.195   0.823   7.795 -0.1655 -0.0151 -0.2570
  425MOL0     C55984  -1.239   0.962   7.764  0.2502  0.6973  0.4529
  425MOL0     N55985  -1.375   0.990   7.791  0.0329 -0.8257  0.2172
  425MOL0     C55986  -1.490   0.934   7.731 -0.6104 -0.2888  0.1965
  425MOL0     C55987  -1.596   1.018   7.759  0.4325  0.0336 -0.4780
  425MOL0     C55988  -1.731   0.998   7.703  0.8919  0.3380 -0.7298
  425MOL0     C55989  -1.738   1.071   7.564 -1.0652  0.3477 -0.2594
  425MOL0     C55990  -1.858   1.014   7.479 -0.7138 -0.4928 -0.7475
  425MOL0     C55991  -1.986   1.051   7.545  0.8298  0.2109  0.7002
  425MOL0     O55992  -2.019   1.182   7.505  0.1948 -0.4351  0.7577
  425MOL0     C55993  -2.156   1.196   7.487 -0.3393  0.5154  0.3305
  425MOL0     C55994  -2.249   1.178   7.592 -0.3385  0.1941  1.0647
  425MOL0     C55995  -2.389   1.201   7.570  0.0435  0.0098 -0.3396
  425MOL0     C55996  -2.430   1.256   7.450 -0.4751 -0.7637  1.0188
  425MOL0     C55997  -2.574   1.272   7.426 -0.0886  0.0707  0.1303
  425MOL0     O55998  -2.672   1.225   7.514  0.2551 -0.1061  0.1458
  425MOL0     C55999  -2.803   1.202   7.466  0.0287 -0.0089  0.4442
  425MOL0     C56000  -2.900   1.185   7.564 -1.0972 -0.3849  0.4674
  425MOL0     C56001  -3.036   1.160   7.535 -0.0571 -0.1516 -0.8394
  425MOL0     C56002  -3.075   1.148   7.402  0.1369 -0.0328  0.8912
  425MOL0     O56003  -3.197   1.119   7.348 -0.4104  0.1120 -0.0410
  425MOL0     C56004  -3.291   1.189   7.423  0.9114 -0.7552  0.3848
  425MOL0     C56005  -3.423   1.183   7.345  0.1340  1.1655  0.2541
  425MOL0     C56006  -3.434   1.229   7.203  0.1234 -0.2940  0.1788
  425MOL0     C56007  -3.576   1.278   7.153  0.1388  0.6274  0.1949
  425MOL0     C56008  -3.599   1.290   6.998 -0.1246 -0.0134  0.7395
  425MOL0     C56009  -3.597   1.148   6.944 -0.1905  0.0965 -0.0080
  425MOL0     C56010  -3.665   1.116   6.821  0.0596 -0.6463 -0.1593
  425MOL0     C56011  -3.600   1.170   6.689 -0.2069  0.3827 -0.7216
  425MOL0    Cl56012  -3.689   1.130   6.539 -0.0382 -0.4251 -0.4763
  425MOL0     C56013  -2.974   1.154   7.305 -0.1115 -0.3327  0.2374
  425MOL0     C56014  -2.843   1.190   7.336  0.0447  0.5407 -0.8420
  425MOL0     O56015  -2.603   1.328   7.320  0.1980 -0.2397 -0.1460
  425MOL0     C56016  -2.334   1.284   7.351 -0.9148 -1.0397  0.1131
  425MOL0     C56017  -2.196   1.257   7.371 -0.0182  0.0061  0.1826
  425MOL0     N56018  -1.543   1.129   7.831 -0.0185 -0.2987  0.1633
  425MOL0     N56019  -1.417   1.108   7.841 -0.4149 -0.2040 -0.0508
  425MOL0     C56020  -0.198   1.036   7.952 -0.6034  0.0191 -0.0467
  425MOL0     C56021  -0.085   1.064   8.011 -0.1861 -0.2963 -0.2804
  425MOL0     C56022   0.348   1.127   8.121 -0.2980  0.7666 -0.8083
  425MOL0     C56023   0.409   1.155   8.247 -0.1268  0.1834  0.8956
  425MOL0     C56024   0.551   1.172   8.254  0.4768  0.7160  0.3324
  425MOL0     C56025   0.634   1.173   8.137  0.0644  0.3606 -0.4067
  425MOL0     O56026   0.761   1.198   8.131 -0.3854 -0.0397 -0.2133
  425MOL0     C56027   0.852   1.140   8.222 -0.5492 -0.2667  0.6337
  425MOL0     C56028   0.996   1.150   8.149  0.1877 -0.1181 -0.0916
  425MOL0     C56029   1.100   1.067   8.228 -0.3896  0.0912 -0.0599
  425MOL0     C56030   1.228   1.152   8.237 -0.1183  0.9082 -0.0386
  425MOL0     C56031   1.344   1.072   8.283  0.2102 -0.7563  0.3203
  425MOL0     C56032   1.446   1.007   8.300  0.1404 -0.6343  0.0288
  425MOL0     C56033   0.569   1.129   8.020 -0.4725  0.3857 -0.9511
  425MOL0     C56034   0.431   1.113   8.010 -0.5005 -1.3370 -0.6456
  425MOL0     H56035   0.126   0.869   7.840  0.3067  1.9677  2.3540
  425MOL0     H56036  -0.112   0.782   7.742 -0.0283  2.0624 -2.1959
  425MOL0     H56037  -0.454   1.049   7.852  1.0137  0.4550  3.1867
  425MOL0     H56038  -0.453   0.913   7.960 -0.0759 -0.5192 -0.3350
  425MOL0     H56039  -0.528   0.776   7.753  0.6136 -0.0525 -0.7912
  425MOL0     H56040  -0.515   0.924   7.665  2.7828  1.3986  1.8538
  425MOL0     H56041  -0.693   1.019   7.782  0.5806  0.8115  0.5844
  425MOL0     H56042  -0.688   0.892   7.903 -2.8456 -0.7312 -0.3954
  425MOL0     H56043  -0.797   0.820   7.622 -0.3027 -0.2021 -0.6514
  425MOL0     H56044  -0.771   0.715   7.746 -0.5259 -0.6542 -0.3378
  425MOL0     H56045  -0.952   0.967   7.763  1.1349 -1.1749 -3.0821
  425MOL0     H56046  -0.954   0.838   7.889 -0.5853 -0.2576 -0.0727
  425MOL0     H56047  -1.052   0.681   7.725  2.7227  1.0787  0.8788
  425MOL0     H56048  -1.076   0.820   7.615 -0.6039  1.5047  0.4533
  425MOL0     H56049  -1.270   0.753   7.757 -2.4651  1.8282  0.6409
  425MOL0     H56050  -1.191   0.795   7.901 -2.5602 -1.2290 -0.4049
  425MOL0     H56051  -1.217   0.974   7.657  1.2417 -1.8067  0.3082
  425MOL0     H56052  -1.172   1.033   7.814  0.5004  0.7951 -0.0035
  425MOL0     H56053  -1.489   0.845   7.669  0.1264 -1.2897  1.5803
  425MOL0     H56054  -1.812   1.016   7.774 -0.6921 -0.9095 -2.1308
  425MOL0     H56055  -1.750   0.893   7.682  0.3289 -0.4871  3.1047
  425MOL0     H56056  -1.644   1.062   7.509 -0.8842  3.9952 -0.8027
  425MOL0     H56057  -1.740   1.180   7.575  1.2750  0.3055  1.6162
  425MOL0     H56058  -1.850   1.059   7.380 -0.8314 -1.7878 -1.3691
  425MOL0     H56059  -1.848   0.905   7.474 -1.7718 -0.5818 -1.1223
  425MOL0     H56060  -1.978   1.036   7.653 -0.2690 -4.4981  0.3254
  425MOL0     H56061  -2.060   0.981   7.507 -2.3762  2.9489  1.3792
  425MOL0     H56062  -2.210   1.143   7.687  0.2241  1.2227  1.2286
  425MOL0     H56063  -2.462   1.175   7.646  0.4248  2.3402  0.9238
  425MOL0     H56064  -2.878   1.203   7.669 -1.1715  0.1965  0.3880
  425MOL0     H56065  -3.092   1.160   7.629 -1.3349 -0.1295 -1.5791
  425MOL0     H56066  -3.265   1.295   7.435  0.1738 -0.3507 -1.3654
  425MOL0     H56067  -3.312   1.144   7.520 -0.5075 -0.6643  0.1401
  425MOL0     H56068  -3.490   1.242   7.407 -1.1274 -0.8326  0.8711
  425MOL0     H56069  -3.450   1.078   7.339  1.3035  0.6574  2.6582
  425MOL0     H56070  -3.390   1.169   7.123 -0.5752 -0.1869 -0.2897
  425MOL0     H56071  -3.372   1.319   7.201 -1.9334  1.1904 -0.6121
  425MOL0     H56072  -3.658   1.213   7.185 -1.6111  2.4982 -0.2561
  425MOL0     H56073  -3.597   1.380   7.188 -1.6950  1.0760 -1.9895
  425MOL0     H56074  -3.528   1.354   6.945  0.1019 -0.1608  0.8615
  425MOL0     H56075  -3.696   1.337   6.982  0.2439  0.6429  0.3992
  425MOL0     H56076  -3.612   1.059   7.006  2.7398 -0.0863  0.5949
  425MOL0     H56077  -3.496   1.133   6.904 -1.7174 -3.4585 -3.0103
  425MOL0     H56078  -3.660   1.007   6.811 -2.5840 -0.9275  0.6664
  425MOL0     H56079  -3.770   1.149   6.815  1.2616  3.3796 -2.5867
  425MOL0     H56080  -3.496   1.139   6.675  0.6559  3.3287 -1.6931
  425MOL0     H56081  -3.598   1.278   6.705  1.6631  0.0661  1.7228
  425MOL0     H56082  -3.007   1.150   7.202 -1.8849  0.9702  0.7081
  425MOL0     H56083  -2.784   1.205   7.246  0.3231  3.1002 -0.3210
  425MOL0     H56084  -2.366   1.320   7.254  0.5723 -2.5099 -0.9842
  425MOL0     H56085  -2.125   1.282   7.292 -0.2517  0.4667  0.1121
  425MOL0     H56086  -0.287   1.084   7.991 -1.1467 -0.9376 -0.0820
  425MOL0     H56087  -0.084   1.142   8.087 -0.8688  1.4345 -1.9847
  425MOL0     H56088   0.348   1.176   8.334 -1.5195 -1.1717  0.2804
  425MOL0     H56089   0.583   1.202   8.353 -0.9207  2.1203  0.3972
  425MOL0     H56090   0.826   1.035   8.243 -0.5543 -0.9604 -2.3962
  425MOL0     H56091   0.846   1.204   8.311 -1.5138 -1.2968  1.3501
  425MOL0     H56092   0.976   1.105   8.052 -2.0229  1.9546 -0.6844
  425MOL0     H56093   1.039   1.251   8.144  1.5616 -0.6371  0.6114
  425MOL0     H56094   1.118   0.968   8.185 -0.1205  0.5317 -0.9699
  425MOL0     H56095   1.059   1.050   8.328  2.8654  2.2938  1.8369
  425MOL0     H56096   1.244   1.190   8.136  1.7669 -2.6000 -1.2341
  425MOL0     H56097   1.216   1.247   8.288  2.6498  2.4562 -1.9568
  425MOL0     H56098   1.528   0.941   8.319  2.2007  1.7889  0.1047
  425MOL0     H56099   0.632   1.116   7.932  0.5363  0.9352 -0.3314
  425MOL0     H56100   0.379   1.093   7.917 -4.0690  1.4872  0.4782
  426MOL0     O56101   8.592   5.251   5.444 -0.3283  0.4806 -0.8001
  426MOL0     C56102   8.601   5.166   5.363 -0.6807  0.7143  1.0334
  426MOL0     O56103   8.500   5.100   5.295 -0.9451  0.5609 -0.7224
  426MOL0     C56104   8.369   5.120   5.327  0.0444 -0.1760  0.4907
  426MOL0     C56105   8.262   5.112   5.230 -0.2241 -0.3422 -0.1074
  426MOL0     C56106   8.130   5.132   5.266  0.5092 -0.2254  0.5020
  426MOL0     C56107   8.092   5.136   5.400 -0.3405  0.0858 -0.1929
  426MOL0     O56108   7.970   5.159   5.451  0.6482  0.6273 -0.1606
  426MOL0     C56109   7.878   5.078   5.379  0.4182  0.3962  0.1181
  426MOL0     C56110   7.743   5.076   5.449  0.7364  0.7421 -0.4915
  426MOL0     C56111   7.638   5.002   5.357 -1.1111 -0.6051 -0.3838
  426MOL0     C56112   7.505   4.987   5.430  0.4799 -0.4464 -1.1685
  426MOL0     C56113   7.398   4.958   5.330  0.6135 -0.0905  0.5225
  426MOL0     C56114   7.257   4.998   5.365 -0.5789  0.0037  0.2825
  426MOL0     C56115   7.149   4.963   5.256 -0.9133  0.0129 -0.1803
  426MOL0     C56116   7.008   5.012   5.299  0.3993  0.7084 -0.7214
  426MOL0     N56117   6.904   4.938   5.228 -0.7218 -0.1294  0.4966
  426MOL0     C56118   6.863   4.811   5.265  0.6879  0.4869 -0.6869
  426MOL0     C56119   6.746   4.788   5.197 -0.1350  0.5317 -0.1004
  426MOL0     C56120   6.665   4.667   5.213 -0.3875  0.1296 -0.8225
  426MOL0     C56121   6.531   4.678   5.159 -0.0565  1.6320 -0.4861
  426MOL0     C56122   6.452   4.560   5.218  0.8452  0.2074 -0.6471
  426MOL0     C56123   6.319   4.550   5.148  0.6127  0.6093 -0.1833
  426MOL0     O56124   6.244   4.667   5.169  0.0451  0.5725 -0.3336
  426MOL0     C56125   6.123   4.675   5.110 -0.5078 -0.2870 -1.1305
  426MOL0     C56126   6.032   4.772   5.160 -0.7191  0.4878 -0.2780
  426MOL0     C56127   5.901   4.787   5.111 -0.4111 -0.0453 -0.5966
  426MOL0     C56128   5.860   4.712   5.000  0.2632  0.1940  0.8224
  426MOL0     C56129   5.722   4.727   4.938 -0.2485  0.4910  0.4281
  426MOL0     O56130   5.663   4.854   4.973  0.6483  0.5568  0.2866
  426MOL0     C56131   5.533   4.884   4.938 -0.3792 -0.2644 -0.1067
  426MOL0     C56132   5.496   5.018   4.952  0.2176  0.1167  0.7307
  426MOL0     C56133   5.354   5.064   4.947 -0.0168  0.5334 -0.0407
  426MOL0     C56134   5.257   4.970   4.916 -0.7317 -0.5650 -0.0711
  426MOL0     O56135   5.132   5.008   4.896 -0.0771  0.1609 -0.0749
  426MOL0     C56136   5.015   4.928   4.916 -0.1843 -0.1472 -0.1160
  426MOL0     C56137   4.895   5.006   4.852 -0.4704 -0.7560 -0.0159
  426MOL0     C56138   4.779   4.913   4.847  0.5546  0.0383 -0.0371
  426MOL0     C56139   4.658   4.975   4.775  0.6712 -0.1980 -0.4624
  426MOL0     C56140   4.531   4.881   4.788 -0.4378 -0.2166 -0.4519
  426MOL0     C56141   4.411   4.915   4.704  0.3332 -0.6056 -0.2919
  426MOL0     C56142   4.313   4.796   4.703  0.4881  0.9460  0.3022
  426MOL0     C56143   4.180   4.811   4.631 -0.0969  0.2336  1.3548
  426MOL0    Cl56144   4.030   4.708   4.673  0.0934 -0.0813 -0.0205
  426MOL0     C56145   5.300   4.840   4.893  0.2692  0.0516  0.3401
  426MOL0     C56146   5.430   4.798   4.904 -0.8485  0.9866 -0.1019
  426MOL0     O56147   5.679   4.646   4.852  0.3246 -0.7895 -0.5623
  426MOL0     C56148   5.944   4.610   4.956  0.5772  0.6249  0.6492
  426MOL0     C56149   6.074   4.589   5.011  0.2297  0.1410 -0.2056
  426MOL0     N56150   6.717   4.898   5.121  0.0670 -1.1712  0.2513
  426MOL0     N56151   6.819   4.989   5.131  0.7725  0.5696 -0.1803
  426MOL0     C56152   8.193   5.136   5.487 -1.1060  0.7010 -0.5337
  426MOL0     C56153   8.328   5.130   5.455 -1.2291 -0.2606 -0.4375
  426MOL0     C56154   8.741   5.119   5.348 -0.1847  0.1526  0.8485
  426MOL0     C56155   8.772   5.065   5.218 -0.6644  0.4462 -0.7801
  426MOL0     C56156   8.899   5.010   5.206 -0.1953  0.1155 -0.2538
  426MOL0     C56157   8.990   5.017   5.321 -0.7553  0.4397 -0.0788
  426MOL0     O56158   9.108   4.964   5.286 -0.3460 -0.2989 -0.8737
  426MOL0     C56159   9.196   4.903   5.381  0.2370  0.3906 -0.7535
  426MOL0     C56160   9.308   5.005   5.418 -0.5730 -0.1999 -0.1357
  426MOL0     C56161   9.404   5.030   5.299  0.1525 -0.6995 -0.2460
  426MOL0     C56162   9.413   5.191   5.266 -0.7787  0.9593  0.8154
  426MOL0     C56163   9.483   5.221   5.136  0.0266 -0.0959 -0.1608
  426MOL0     C56164   9.549   5.242   5.039  0.3227 -0.4002 -0.2708
  426MOL0     C56165   8.953   5.074   5.448 -0.3537  0.1127  0.6520
  426MOL0     C56166   8.832   5.139   5.454  0.1700  0.7683  0.6633
  426MOL0     H56167   8.281   5.089   5.125  1.8702 -2.0392  0.5577
  426MOL0     H56168   8.053   5.146   5.190 -1.9765 -2.1245  2.4939
  426MOL0     H56169   7.906   4.972   5.380  1.0922  0.5623 -0.2318
  426MOL0     H56170   7.864   5.129   5.283  2.6681  1.1735  0.1390
  426MOL0     H56171   7.723   5.181   5.471 -1.7251  0.3179 -0.3360
  426MOL0     H56172   7.757   5.020   5.542 -1.7710  1.1076  0.1749
  426MOL0     H56173   7.674   4.913   5.305 -1.6137 -1.2421  0.3350
  426MOL0     H56174   7.613   5.075   5.280  0.0112  0.7935  0.5316
  426MOL0     H56175   7.499   4.906   5.503  1.1819 -0.2319 -0.8669
  426MOL0     H56176   7.478   5.068   5.499 -2.5002 -2.6297  0.4651
  426MOL0     H56177   7.400   4.849   5.323  5.3234 -0.2750  1.2244
  426MOL0     H56178   7.426   5.008   5.236 -2.1005 -1.0588 -0.9239
  426MOL0     H56179   7.258   5.106   5.383 -0.6103  0.2676 -1.1495
  426MOL0     H56180   7.246   4.946   5.461  0.4307  0.7963  0.8563
  426MOL0     H56181   7.179   5.005   5.159 -1.9311 -1.5578 -1.2224
  426MOL0     H56182   7.140   4.855   5.242  0.1682 -0.2222  0.8232
  426MOL0     H56183   6.995   5.119   5.281 -1.2800  1.0538  2.1107
  426MOL0     H56184   6.998   4.994   5.406  0.4434  0.2766 -0.7872
  426MOL0     H56185   6.910   4.750   5.341  0.2374  0.3832 -0.4886
  426MOL0     H56186   6.663   4.636   5.318  0.6040  0.1209 -0.7947
  426MOL0     H56187   6.716   4.585   5.162  0.0961 -1.3881  1.9126
  426MOL0     H56188   6.529   4.658   5.052 -2.6401 -1.9927  0.0663
  426MOL0     H56189   6.479   4.769   5.190 -2.0185 -0.0386  1.5362
  426MOL0     H56190   6.512   4.470   5.207 -0.2218 -0.3906 -1.8650
  426MOL0     H56191   6.437   4.570   5.326  0.1537 -0.2039 -0.6982
  426MOL0     H56192   6.270   4.456   5.171  1.0898 -0.3429 -2.6834
  426MOL0     H56193   6.337   4.525   5.043 -3.7172 -3.0610 -0.3437
  426MOL0     H56194   6.061   4.817   5.254 -0.3979  2.1062 -1.1074
  426MOL0     H56195   5.835   4.863   5.153  0.3677  2.3257 -3.3391
  426MOL0     H56196   5.557   5.106   4.971 -1.1153  1.6622 -1.6283
  426MOL0     H56197   5.343   5.171   4.960 -1.6347  0.7351 -2.4282
  426MOL0     H56198   4.994   4.919   5.023 -1.7440  0.5415 -0.3205
  426MOL0     H56199   5.027   4.823   4.888  1.3015 -0.8439  2.7055
  426MOL0     H56200   4.926   5.028   4.750  0.4540 -0.0346  0.4044
  426MOL0     H56201   4.878   5.097   4.911  0.1898  1.1489 -2.6099
  426MOL0     H56202   4.750   4.883   4.948  0.2581  1.2164  0.2509
  426MOL0     H56203   4.807   4.815   4.808 -3.2227 -0.9996 -0.5129
  426MOL0     H56204   4.649   5.081   4.799 -3.1792  0.0446 -2.2171
  426MOL0     H56205   4.686   4.980   4.669  3.8129  0.9427  0.3191
  426MOL0     H56206   4.494   4.883   4.891  0.8144 -0.7499  0.0371
  426MOL0     H56207   4.555   4.779   4.757 -3.3208 -0.6206 -1.6583
  426MOL0     H56208   4.434   4.956   4.605  1.9553 -1.5547 -0.3444
  426MOL0     H56209   4.359   5.001   4.747 -2.0380  0.7928 -5.1635
  426MOL0     H56210   4.357   4.699   4.678 -0.0423  0.9790 -0.8371
  426MOL0     H56211   4.289   4.775   4.808  3.1041  3.8554  1.6494
  426MOL0     H56212   4.192   4.801   4.522 -0.0572 -0.3698  1.4159
  426MOL0     H56213   4.153   4.915   4.651 -0.4229  0.3518  0.3655
  426MOL0     H56214   5.230   4.762   4.866  0.8473 -0.8398  1.3292
  426MOL0     H56215   5.449   4.692   4.893 -0.1179  1.1223 -0.2209
  426MOL0     H56216   5.912   4.549   4.871 -1.5853  0.5484  1.4400
  426MOL0     H56217   6.123   4.503   4.967  0.2066  0.7315 -1.4097
  426MOL0     H56218   8.163   5.143   5.591  2.3988 -0.9402  0.7473
  426MOL0     H56219   8.393   5.125   5.542 -4.3914 -1.6661  2.1125
  426MOL0     H56220   8.700   5.071   5.137 -1.3501 -1.1987 -0.3357
  426MOL0     H56221   8.938   4.958   5.119  0.8187  1.0635 -0.3843
  426MOL0     H56222   9.234   4.811   5.335 -0.5099  0.3058 -1.2195
  426MOL0     H56223   9.139   4.874   5.470  0.3225  0.9269 -0.5186
  426MOL0     H56224   9.257   5.095   5.451  0.3354  0.7612 -1.2837
  426MOL0     H56225   9.362   4.957   5.500 -1.3649 -0.7727  0.0739
  426MOL0     H56226   9.358   4.971   5.219 -0.1630 -3.0579  1.5957
  426MOL0     H56227   9.505   4.997   5.325  0.0341  0.7964  2.4906
  426MOL0     H56228   9.309   5.225   5.262 -0.7763  0.8931  0.0722
  426MOL0     H56229   9.469   5.242   5.345 -1.8116  2.0534  0.8758
  426MOL0     H56230   9.615   5.278   4.962  0.4228  1.0682  0.4590
  426MOL0     H56231   9.027   5.071   5.528  3.1983 -0.1160 -2.3813
  426MOL0     H56232   8.813   5.190   5.548 -0.9999  1.1732  0.2244
  427MOL0     O56233   8.179   6.239   7.009  0.6560  0.3512 -0.8100
  427MOL0     C56234   8.171   6.333   6.926  0.1223 -0.4865 -0.0165
  427MOL0     O56235   8.274   6.365   6.847 -0.1687  0.4129  0.5361
  427MOL0     C56236   8.401   6.328   6.887 -0.5974  0.6198  0.2084
  427MOL0     C56237   8.440   6.194   6.891  0.4254 -0.0339  0.2783
  427MOL0     C56238   8.576   6.154   6.882 -0.1635 -1.8983 -0.8607
  427MOL0     C56239   8.679   6.242   6.872  1.3016  0.0993  0.0269
  427MOL0     O56240   8.805   6.193   6.846 -0.4450 -0.0830  0.2870
  427MOL0     C56241   8.908   6.272   6.917  0.0913 -0.7577  0.0289
  427MOL0     C56242   9.038   6.270   6.835  0.5604 -0.4257  0.6543
  427MOL0     C56243   9.164   6.293   6.922  0.2384 -1.0993 -0.3167
  427MOL0     C56244   9.278   6.322   6.829 -0.4223  0.6788  1.0604
  427MOL0     C56245   9.405   6.320   6.915 -0.5591 -0.3572 -0.3397
  427MOL0     C56246   9.535   6.359   6.837  0.2671  0.1098 -0.8291
  427MOL0     C56247   9.652   6.407   6.930 -0.2666  0.0005  0.2298
  427MOL0     C56248   9.788   6.422   6.865  0.9884 -0.0709  0.2213
  427MOL0     N56249   9.899   6.448   6.955 -0.4529 -0.2627 -1.1341
  427MOL0     C56250  10.019   6.497   6.917  0.6533  0.0843 -0.6020
  427MOL0     C56251  10.094   6.500   7.029  0.9999 -0.2055 -0.7581
  427MOL0     C56252  10.240   6.539   7.038 -0.3574 -0.5193  0.1183
  427MOL0     C56253  10.330   6.537   6.907 -0.1551 -0.1662  0.1050
  427MOL0     C56254  10.469   6.594   6.944 -0.0953 -0.7212  1.1862
  427MOL0     C56255  10.552   6.568   6.817 -0.0169 -0.9109 -0.0177
  427MOL0     O56256  10.577   6.431   6.803  0.1322  0.2750 -0.7198
  427MOL0     C56257  10.688   6.383   6.869 -0.3769  0.5639 -0.5306
  427MOL0     C56258  10.765   6.460   6.969  0.4491  0.0784  1.2544
  427MOL0     C56259  10.885   6.400   7.026  0.9802 -0.8147  0.7646
  427MOL0     C56260  10.941   6.275   6.981  0.5378 -0.6417  0.0370
  427MOL0     C56261  11.079   6.228   7.003 -0.6038 -0.1343  0.2937
  427MOL0     O56262  11.150   6.305   7.087 -0.6149 -0.5453 -0.4953
  427MOL0     C56263  11.285   6.284   7.093  0.6379  1.3134  0.0584
  427MOL0     C56264  11.369   6.343   6.997 -0.7711 -0.1304 -0.9272
  427MOL0     C56265  11.504   6.307   6.994  0.6529  0.1424  0.0059
  427MOL0     C56266  11.554   6.214   7.088  0.8716 -0.1960  0.7316
  427MOL0     O56267  11.684   6.183   7.082 -0.4118  0.5704  0.3190
  427MOL0     C56268  11.779   6.295   7.087  0.8543  0.1837 -0.2182
  427MOL0     C56269  11.910   6.215   7.092 -1.0921 -0.2677 -0.2273
  427MOL0     C56270  12.026   6.315   7.074  0.1062 -0.3322 -0.1559
  427MOL0     C56271  12.154   6.240   7.107  0.0780  0.7881  0.3271
  427MOL0     C56272  12.284   6.307   7.058 -0.1621 -0.9396 -0.1275
  427MOL0     C56273  12.305   6.437   7.131 -0.5374 -0.4914  0.0542
  427MOL0     C56274  12.422   6.516   7.060  0.3152  0.6810  0.1439
  427MOL0     C56275  12.453   6.645   7.135  0.8686  0.1078 -0.2641
  427MOL0    Cl56276  12.545   6.587   7.280  0.2399 -0.0708  0.1631
  427MOL0     C56277  11.461   6.157   7.181 -0.0658 -1.0091 -0.2395
  427MOL0     C56278  11.329   6.195   7.189  0.1607  0.4863  0.7875
  427MOL0     O56279  11.122   6.133   6.941 -0.0694 -0.2572  0.4503
  427MOL0     C56280  10.859   6.206   6.894 -0.0638 -0.3724  0.0470
  427MOL0     C56281  10.737   6.256   6.845  0.1082  0.3913 -0.0388
  427MOL0     N56282  10.019   6.441   7.135  0.0629 -0.1200 -0.0976
  427MOL0     N56283   9.904   6.413   7.089  0.6341 -0.7324 -0.9382
  427MOL0     C56284   8.637   6.378   6.876  0.1570  0.3704  0.2015
  427MOL0     C56285   8.505   6.420   6.886 -1.1134  0.6217  0.3709
  427MOL0     C56286   8.030   6.387   6.891 -0.7519 -0.0233  0.3512
  427MOL0     C56287   7.932   6.370   6.982 -0.5910  0.2711  1.0979
  427MOL0     C56288   7.800   6.389   6.952 -0.0259  0.5828 -0.0194
  427MOL0     C56289   7.765   6.416   6.823  0.4803  0.1107 -0.0694
  427MOL0     O56290   7.632   6.413   6.798  0.7075  0.9436  0.4859
  427MOL0     C56291   7.592   6.435   6.659  0.5425 -0.1640 -0.0844
  427MOL0     C56292   7.444   6.399   6.644  1.2004  0.6843 -1.2923
  427MOL0     C56293   7.392   6.410   6.503 -0.1364  0.3212 -0.6993
  427MOL0     C56294   7.247   6.360   6.497 -0.9946  0.5039 -0.2658
  427MOL0     C56295   7.167   6.455   6.570 -0.3807 -0.3015  0.7796
  427MOL0     C56296   7.092   6.540   6.610  0.3739 -0.1358 -0.4816
  427MOL0     C56297   7.868   6.447   6.733  0.5501 -0.6342 -0.5090
  427MOL0     C56298   8.003   6.442   6.769  0.3706  0.2815  1.1482
  427MOL0     H56299   8.360   6.121   6.889 -1.1325  1.5882 -0.4336
  427MOL0     H56300   8.609   6.053   6.860  1.9357 -1.5263  0.3071
  427MOL0     H56301   8.912   6.228   7.017  1.5693  2.1914  1.3673
  427MOL0     H56302   8.890   6.379   6.924 -0.2327 -0.5686 -2.5602
  427MOL0     H56303   9.027   6.335   6.748 -0.7212 -1.7331 -0.1959
  427MOL0     H56304   9.040   6.167   6.796  1.8241 -1.1042  2.3659
  427MOL0     H56305   9.184   6.205   6.985  3.1464 -0.6046 -0.3820
  427MOL0     H56306   9.151   6.379   6.988  1.9446 -0.6181 -0.5528
  427MOL0     H56307   9.286   6.241   6.756  2.6448  2.2761 -0.5429
  427MOL0     H56308   9.266   6.416   6.775  1.5583  1.0565  1.1798
  427MOL0     H56309   9.428   6.223   6.960 -0.7682  0.7197  2.2219
  427MOL0     H56310   9.387   6.392   6.995  1.5961  1.1833 -1.1553
  427MOL0     H56311   9.513   6.445   6.774 -1.1735 -1.9493 -3.3200
  427MOL0     H56312   9.545   6.270   6.774 -3.1071  0.7133 -2.4453
  427MOL0     H56313   9.629   6.500   6.983 -0.5165  1.1299 -1.7372
  427MOL0     H56314   9.676   6.332   7.005  0.1325 -2.3063 -2.0656
  427MOL0     H56315   9.778   6.504   6.793  0.1568 -0.9147 -0.6348
  427MOL0     H56316   9.807   6.338   6.798  1.9525  0.6065 -0.3749
  427MOL0     H56317  10.041   6.532   6.817 -0.9546 -0.1518 -1.0698
  427MOL0     H56318  10.294   6.473   7.107  1.1029  1.1959  0.6756
  427MOL0     H56319  10.249   6.641   7.075  2.0578 -0.8184  0.5189
  427MOL0     H56320  10.293   6.604   6.830  2.4857  1.3473  0.0618
  427MOL0     H56321  10.338   6.433   6.872 -1.2004  0.1873 -1.2806
  427MOL0     H56322  10.461   6.702   6.959  0.7607 -0.2515 -1.2785
  427MOL0     H56323  10.513   6.554   7.036 -1.5808 -0.5160  2.0221
  427MOL0     H56324  10.642   6.630   6.806  0.5639 -1.6270  0.5856
  427MOL0     H56325  10.487   6.590   6.732  0.3189 -2.0328 -0.5873
  427MOL0     H56326  10.734   6.562   6.991 -3.1866 -0.6005 -0.1040
  427MOL0     H56327  10.943   6.460   7.096  1.5763 -0.6594  0.1480
  427MOL0     H56328  11.321   6.407   6.924 -4.3832 -2.5226 -0.9112
  427MOL0     H56329  11.569   6.356   6.921  2.3527  1.0560  2.0047
  427MOL0     H56330  11.771   6.354   7.179  0.0884 -1.5969  0.9003
  427MOL0     H56331  11.771   6.352   6.993 -0.5548  1.0295  0.3779
  427MOL0     H56332  11.920   6.152   7.003  2.2539  0.0646 -0.2131
  427MOL0     H56333  11.910   6.147   7.178  0.3584 -0.1670 -0.1134
  427MOL0     H56334  12.011   6.408   7.128  1.2751  1.2486 -2.4056
  427MOL0     H56335  12.032   6.346   6.969 -2.0983  1.6032  0.2148
  427MOL0     H56336  12.157   6.225   7.215  0.2672  1.7485  0.4727
  427MOL0     H56337  12.147   6.142   7.059 -2.0450 -0.4242  2.8265
  427MOL0     H56338  12.283   6.324   6.950 -0.8497 -1.1432 -0.1599
  427MOL0     H56339  12.360   6.231   7.076 -2.3535 -3.1271  0.5011
  427MOL0     H56340  12.338   6.415   7.233 -1.0412  0.4086  0.4261
  427MOL0     H56341  12.217   6.502   7.129  1.9727  3.1848 -0.4346
  427MOL0     H56342  12.511   6.452   7.058  0.3643  0.6913  1.2515
  427MOL0     H56343  12.405   6.541   6.955 -1.7889  2.0389  0.7485
  427MOL0     H56344  12.366   6.694   7.179 -0.0696 -3.2055  1.9121
  427MOL0     H56345  12.521   6.716   7.087  2.0667 -0.5506  0.4172
  427MOL0     H56346  11.515   6.084   7.241 -0.9856 -1.7091 -0.2500
  427MOL0     H56347  11.282   6.164   7.282 -0.7030 -3.6804 -0.8123
  427MOL0     H56348  10.889   6.103   6.877 -0.3796 -0.3837 -0.4484
  427MOL0     H56349  10.674   6.195   6.781  0.0658  1.5037 -1.0760
  427MOL0     H56350   8.699   6.467   6.870 -0.8900  1.4250  3.2805
  427MOL0     H56351   8.474   6.524   6.875 -3.9762 -0.0458  1.2474
  427MOL0     H56352   7.953   6.333   7.082  0.8830 -0.1494  0.6542
  427MOL0     H56353   7.737   6.366   7.037  2.3551 -4.2711  0.8248
  427MOL0     H56354   7.647   6.382   6.581 -2.5831 -2.6115 -0.8160
  427MOL0     H56355   7.607   6.540   6.630  1.5062 -0.8953 -2.4449
  427MOL0     H56356   7.425   6.298   6.682 -2.1096  2.0494  1.1179
  427MOL0     H56357   7.386   6.465   6.708  1.0355 -0.1492 -0.5626
  427MOL0     H56358   7.465   6.355   6.442  0.8469  1.6269 -0.7623
  427MOL0     H56359   7.392   6.513   6.465 -1.0410 -0.0196 -1.6741
  427MOL0     H56360   7.205   6.358   6.396 -5.3728 -0.6006  1.3167
  427MOL0     H56361   7.223   6.261   6.539  3.9025 -0.2067  1.4767
  427MOL0     H56362   7.019   6.605   6.654 -1.3406 -0.6756 -2.3652
  427MOL0     H56363   7.857   6.474   6.629 -0.4202 -2.0969 -0.8058
  427MOL0     H56364   8.082   6.461   6.698  0.4739 -0.2054  1.1295
  428MOL0     O56365   5.354   8.142   3.293  0.2685 -0.0204  0.3095
  428MOL0     C56366   5.423   8.189   3.209  0.5629  1.2565 -0.5880
  428MOL0     O56367   5.376   8.258   3.095 -0.2390 -0.7424  0.1336
  428MOL0     C56368   5.236   8.280   3.100 -0.8543  0.7880  0.6175
  428MOL0     C56369   5.139   8.172   3.093 -0.8340  0.6864 -0.2490
  428MOL0     C56370   5.000   8.195   3.092 -0.1717 -0.1131 -0.2413
  428MOL0     C56371   4.955   8.334   3.115 -0.4546  0.1901  0.4460
  428MOL0     O56372   4.821   8.350   3.118  0.3942  0.2722 -0.5401
  428MOL0     C56373   4.748   8.472   3.171  0.0744  0.7880  0.4386
  428MOL0     C56374   4.617   8.425   3.237  0.4690  0.2516  0.4152
  428MOL0     C56375   4.560   8.536   3.318  0.3082  0.2837 -0.0024
  428MOL0     C56376   4.411   8.518   3.352 -0.5363  0.4902  0.1435
  428MOL0     C56377   4.355   8.624   3.443 -0.2723  0.3623 -0.1898
  428MOL0     C56378   4.224   8.671   3.382  0.8225 -0.2158  0.7692
  428MOL0     C56379   4.179   8.789   3.463  0.3344 -0.8662 -0.4810
  428MOL0     C56380   4.052   8.831   3.409  0.8803 -0.0748  0.5136
  428MOL0     N56381   4.007   8.958   3.475 -0.4455  0.2551 -0.5800
  428MOL0     C56382   3.904   8.956   3.570  0.6792 -0.1999 -0.0023
  428MOL0     C56383   3.907   9.072   3.620  0.8088  0.2936 -0.5247
  428MOL0     C56384   3.822   9.118   3.738 -1.0611  0.4295 -0.5009
  428MOL0     C56385   3.680   9.111   3.699  0.6109 -0.3666  0.3051
  428MOL0     C56386   3.629   9.242   3.642 -0.5898 -0.1832  0.2792
  428MOL0     C56387   3.645   9.243   3.491  0.4243 -0.0531  0.1566
  428MOL0     O56388   3.583   9.359   3.429  0.6578 -0.2019 -0.1164
  428MOL0     C56389   3.452   9.383   3.450 -0.4266 -0.1162 -0.4971
  428MOL0     C56390   3.405   9.514   3.441  0.6673  0.2569  0.4114
  428MOL0     C56391   3.268   9.544   3.438  0.6895 -0.3776  0.5080
  428MOL0     C56392   3.178   9.434   3.430  0.3107 -0.2440  1.1630
  428MOL0     C56393   3.028   9.453   3.432 -1.0062  0.6595  0.1258
  428MOL0     O56394   2.948   9.344   3.416  0.1334 -0.6744 -0.1861
  428MOL0     C56395   2.812   9.362   3.414  0.9190 -0.0290  0.8486
  428MOL0     C56396   2.755   9.376   3.535  0.7681 -0.4271  0.1411
  428MOL0     C56397   2.615   9.405   3.544 -0.4841  0.6315  0.5860
  428MOL0     C56398   2.527   9.409   3.435  0.1926  0.6860  0.1707
  428MOL0     O56399   2.392   9.425   3.451  0.0083  0.1763  0.0876
  428MOL0     C56400   2.327   9.394   3.581  0.7352 -0.1526 -0.8864
  428MOL0     C56401   2.182   9.443   3.575 -0.7332  1.0719  1.1029
  428MOL0     C56402   2.105   9.418   3.710 -0.6760 -0.1253 -0.0982
  428MOL0     C56403   1.955   9.401   3.708  0.7172 -0.0458 -0.5244
  428MOL0     C56404   1.892   9.524   3.646 -0.0467 -0.0211  0.9567
  428MOL0     C56405   1.948   9.663   3.669  1.2927 -0.3118  0.5351
  428MOL0     C56406   1.894   9.773   3.569  0.1858  0.2712 -0.3713
  428MOL0     C56407   1.908   9.918   3.627  0.4854 -0.4388 -1.1834
  428MOL0    Cl56408   2.093   9.953   3.629 -0.0781 -0.2272  0.0959
  428MOL0     C56409   2.586   9.384   3.310  0.5136  0.4002  0.3774
  428MOL0     C56410   2.730   9.368   3.297  0.3184  0.8941 -0.4487
  428MOL0     O56411   2.996   9.574   3.442  0.3572 -0.0816  0.2085
  428MOL0     C56412   3.222   9.303   3.444  0.8503  0.0961  1.1919
  428MOL0     C56413   3.360   9.279   3.455 -0.0393  0.0535 -0.3499
  428MOL0     N56414   4.015   9.145   3.577 -0.2620 -1.2981 -0.3546
  428MOL0     N56415   4.079   9.077   3.485  0.0881  0.3222 -0.4406
  428MOL0     C56416   5.058   8.431   3.133  0.3804  0.2482  0.7572
  428MOL0     C56417   5.194   8.406   3.126 -0.1408  0.2826 -0.4315
  428MOL0     C56418   5.574   8.162   3.222 -0.1437  0.6150  0.9713
  428MOL0     C56419   5.629   8.060   3.309  0.2219  0.2560 -0.4231
  428MOL0     C56420   5.771   8.055   3.312 -0.1737 -0.1854 -0.0423
  428MOL0     C56421   5.853   8.137   3.233 -0.4811 -0.3564  0.0193
  428MOL0     O56422   5.987   8.143   3.254  0.3257  0.3067  0.0790
  428MOL0     C56423   6.039   8.022   3.311 -0.8646  0.1190  0.5669
  428MOL0     C56424   6.197   8.015   3.295  0.4572 -1.0742  0.2681
  428MOL0     C56425   6.232   8.040   3.143 -0.3376  0.0780 -1.0562
  428MOL0     C56426   6.303   8.169   3.112  0.7936  0.0685  0.9013
  428MOL0     C56427   6.412   8.212   3.200  0.3564  0.0167  0.5540
  428MOL0     C56428   6.500   8.264   3.267  0.3142 -0.3031 -0.2115
  428MOL0     C56429   5.783   8.218   3.134  0.5757  0.6057 -1.2978
  428MOL0     C56430   5.651   8.228   3.126  0.0427  0.4850 -0.3954
  428MOL0     H56431   5.182   8.072   3.090 -0.8843  0.6653 -0.2683
  428MOL0     H56432   4.931   8.112   3.079 -1.3683  0.5327  1.6380
  428MOL0     H56433   4.731   8.548   3.094 -0.1670  1.2204  0.9105
  428MOL0     H56434   4.810   8.519   3.248 -0.0915  1.6556  0.0628
  428MOL0     H56435   4.645   8.335   3.293 -0.8030 -1.7141 -1.9313
  428MOL0     H56436   4.549   8.400   3.155 -1.8741  1.4588  1.8955
  428MOL0     H56437   4.575   8.630   3.264 -1.3931  0.1406 -0.7933
  428MOL0     H56438   4.614   8.535   3.413 -1.1152  1.7241  0.8746
  428MOL0     H56439   4.355   8.518   3.258  0.6263 -0.6477 -0.5795
  428MOL0     H56440   4.401   8.415   3.388  1.5772 -0.2729 -1.2935
  428MOL0     H56441   4.418   8.713   3.440 -3.1226  2.5557  0.3231
  428MOL0     H56442   4.357   8.597   3.549 -3.6429  0.2756 -0.0317
  428MOL0     H56443   4.151   8.591   3.393 -1.4248  2.0565  4.0334
  428MOL0     H56444   4.240   8.716   3.283  5.5930 -2.1227  0.3868
  428MOL0     H56445   4.158   8.758   3.565 -0.0074  0.7529 -0.0235
  428MOL0     H56446   4.256   8.866   3.472 -0.9265  0.7182 -2.2490
  428MOL0     H56447   3.979   8.750   3.413  1.1550 -0.3431  0.1478
  428MOL0     H56448   4.057   8.856   3.303 -2.7879  1.1617  0.4836
  428MOL0     H56449   3.854   8.869   3.613  1.5134 -1.1777 -0.9400
  428MOL0     H56450   3.846   9.217   3.777 -2.2321 -0.4434  2.7708
  428MOL0     H56451   3.842   9.055   3.825 -0.5176  1.2987  0.0123
  428MOL0     H56452   3.623   9.107   3.792  0.5419  0.3698  0.2956
  428MOL0     H56453   3.651   9.023   3.641 -1.3260  0.6401 -0.3350
  428MOL0     H56454   3.527   9.261   3.677  0.7739  4.5107  2.5541
  428MOL0     H56455   3.682   9.331   3.677 -0.1705 -0.7039  0.9934
  428MOL0     H56456   3.610   9.144   3.459  1.1167  0.1965 -1.4891
  428MOL0     H56457   3.750   9.251   3.462  0.5171  0.1254  0.5355
  428MOL0     H56458   3.475   9.595   3.423  0.5924 -0.0534 -1.4872
  428MOL0     H56459   3.236   9.647   3.427 -2.5153 -1.2076  1.1109
  428MOL0     H56460   2.811   9.389   3.628 -0.1324  0.3846  0.5796
  428MOL0     H56461   2.587   9.435   3.645 -0.0632  1.0498  0.5804
  428MOL0     H56462   2.363   9.451   3.667  0.1482 -2.5392  1.0672
  428MOL0     H56463   2.336   9.286   3.595  0.6354 -0.3350 -2.0802
  428MOL0     H56464   2.139   9.395   3.487 -0.7432  2.3179  0.4057
  428MOL0     H56465   2.188   9.550   3.555 -2.8315  0.7856 -1.6898
  428MOL0     H56466   2.135   9.499   3.777  1.6642 -0.9380 -0.0648
  428MOL0     H56467   2.143   9.330   3.763 -0.7468  1.2588  2.3803
  428MOL0     H56468   1.934   9.306   3.658  0.6595 -2.1147  3.0700
  428MOL0     H56469   1.921   9.374   3.808  1.4448 -1.0955 -0.5440
  428MOL0     H56470   1.790   9.517   3.684 -0.4782 -0.7186 -0.2748
  428MOL0     H56471   1.893   9.498   3.540 -2.1963 -0.9352  1.1212
  428MOL0     H56472   2.055   9.664   3.649  0.7514  1.9702 -3.2298
  428MOL0     H56473   1.929   9.686   3.774  1.1742 -0.6146  0.5824
  428MOL0     H56474   1.940   9.764   3.470 -0.4980 -1.9185 -0.5573
  428MOL0     H56475   1.787   9.751   3.563  0.6795 -2.3652 -1.0449
  428MOL0     H56476   1.873   9.918   3.730  0.7665 -0.3514 -1.0864
  428MOL0     H56477   1.856   9.988   3.562  1.9965 -0.8371 -2.9361
  428MOL0     H56478   2.512   9.378   3.230  0.2222  1.4117  0.5670
  428MOL0     H56479   2.783   9.347   3.205 -1.4364 -1.0865 -1.0643
  428MOL0     H56480   3.150   9.223   3.454 -0.9153  1.7547  2.3259
  428MOL0     H56481   3.399   9.178   3.460  1.2162  0.5175 -0.3755
  428MOL0     H56482   5.032   8.537   3.134  0.5871  0.3081  0.1415
  428MOL0     H56483   5.267   8.486   3.129  1.0507 -0.7948  0.3635
  428MOL0     H56484   5.576   7.994   3.376 -0.8707  1.3314 -0.2010
  428MOL0     H56485   5.817   7.991   3.386  0.8707 -0.0325 -0.5416
  428MOL0     H56486   5.999   7.931   3.265 -3.3228  1.2507  0.3347
  428MOL0     H56487   6.019   8.007   3.418  4.9096  0.5214  2.0196
  428MOL0     H56488   6.252   8.084   3.360  2.7477  1.1200 -3.6154
  428MOL0     H56489   6.233   7.915   3.322  2.8431 -0.4235 -0.2150
  428MOL0     H56490   6.137   8.033   3.089 -1.1618 -1.2573  0.4906
  428MOL0     H56491   6.301   7.961   3.114  1.6612  1.1457  0.5285
  428MOL0     H56492   6.323   8.170   3.005 -2.8664 -3.0011 -0.0201
  428MOL0     H56493   6.224   8.242   3.131  1.7389  1.3252  0.1476
  428MOL0     H56494   6.587   8.305   3.314  0.1053 -0.6936  0.5244
  428MOL0     H56495   5.849   8.284   3.078  2.1038  0.1302 -0.1334
  428MOL0     H56496   5.600   8.279   3.044  2.4285  0.6787 -1.8486
  429MOL0     O56497   6.775   2.289   5.644 -1.5371  0.4241 -0.7736
  429MOL0     C56498   6.843   2.383   5.690 -0.7143 -0.7546  0.3543
  429MOL0     O56499   6.809   2.518   5.679  0.8947 -0.1593 -0.2303
  429MOL0     C56500   6.701   2.576   5.603 -0.6847 -0.8399  0.4498
  429MOL0     C56501   6.674   2.711   5.632 -0.0797 -0.8925  0.6082
  429MOL0     C56502   6.582   2.790   5.571  0.0652  0.3239  0.2468
  429MOL0     C56503   6.497   2.727   5.473 -0.3323  0.4363 -0.5212
  429MOL0     O56504   6.383   2.789   5.434 -0.2224  0.1283 -0.2775
  429MOL0     C56505   6.376   2.925   5.417  0.3500 -0.3760  1.1671
  429MOL0     C56506   6.226   2.953   5.414  0.3185  0.6959 -0.4306
  429MOL0     C56507   6.202   3.075   5.328 -0.5183  0.0017  0.0996
  429MOL0     C56508   6.054   3.079   5.279 -0.4118 -0.2958  0.4300
  429MOL0     C56509   6.032   3.175   5.163  0.0722 -0.1784  0.5999
  429MOL0     C56510   5.985   3.301   5.220  0.3843 -0.1852 -0.3738
  429MOL0     C56511   5.972   3.411   5.119  0.1973 -0.6868 -0.2980
  429MOL0     C56512   5.829   3.445   5.079  0.4507  0.9420  1.1069
  429MOL0     N56513   5.769   3.326   5.019 -0.2007  0.0154 -0.9240
  429MOL0     C56514   5.640   3.288   5.048 -0.5422 -0.5981  0.6102
  429MOL0     C56515   5.608   3.193   4.950 -0.3811  0.2412 -0.1664
  429MOL0     C56516   5.476   3.129   4.931  0.2559  0.0179  1.3468
  429MOL0     C56517   5.434   3.109   4.781 -0.4568 -0.8134 -0.5684
  429MOL0     C56518   5.416   3.235   4.694 -0.1266  1.2781 -0.2925
  429MOL0     C56519   5.318   3.336   4.762  0.1376 -0.4042  0.4253
  429MOL0     O56520   5.191   3.291   4.815 -0.2148 -0.3296 -0.2402
  429MOL0     C56521   5.106   3.229   4.729  0.1449 -0.0614 -1.0398
  429MOL0     C56522   5.087   3.258   4.597 -0.2312  0.5065  0.0302
  429MOL0     C56523   4.988   3.188   4.520 -0.1828 -1.1572  0.2910
  429MOL0     C56524   4.906   3.088   4.578  0.5220 -0.1482 -0.6080
  429MOL0     C56525   4.786   3.046   4.497 -0.5460  0.0144 -0.3749
  429MOL0     O56526   4.798   3.041   4.361 -0.0356 -0.4905 -0.1935
  429MOL0     C56527   4.683   3.012   4.297 -0.4777 -0.8477  0.0183
  429MOL0     C56528   4.638   2.878   4.272 -0.0931 -0.2749 -0.0228
  429MOL0     C56529   4.512   2.849   4.218 -0.3217 -0.1623 -0.6033
  429MOL0     C56530   4.422   2.956   4.190 -0.6311 -0.0169  0.8566
  429MOL0     O56531   4.292   2.920   4.160 -0.3963 -0.4275 -0.5349
  429MOL0     C56532   4.214   3.035   4.115  0.1843  0.3239 -0.2231
  429MOL0     C56533   4.068   2.983   4.120  0.6068 -0.7792  0.0312
  429MOL0     C56534   3.977   3.079   4.042 -0.6534 -0.0101  0.0261
  429MOL0     C56535   3.837   3.035   4.048  0.6070 -0.2826  0.6249
  429MOL0     C56536   3.751   3.133   3.961 -0.1733  0.0238  0.5330
  429MOL0     C56537   3.607   3.076   3.973 -0.3057 -0.6931  0.0648
  429MOL0     C56538   3.522   3.121   3.853 -0.1564  0.2449  0.1655
  429MOL0     C56539   3.371   3.106   3.884  0.0232 -0.1034  0.3625
  429MOL0    Cl56540   3.277   3.094   3.729  0.0883  0.2374  0.3243
  429MOL0     C56541   4.463   3.090   4.218 -0.0365  0.4058  0.0578
  429MOL0     C56542   4.595   3.108   4.263  0.8203  0.1790  0.5783
  429MOL0     O56543   4.686   3.031   4.563  0.2947 -0.0252 -0.5643
  429MOL0     C56544   4.921   3.065   4.712 -0.2010 -0.7528  0.4672
  429MOL0     C56545   5.019   3.137   4.789  0.2928 -0.3605 -0.8127
  429MOL0     N56546   5.718   3.169   4.877 -0.2865 -0.0569 -0.0075
  429MOL0     N56547   5.814   3.257   4.918 -0.1700 -0.3723  0.0959
  429MOL0     C56548   6.529   2.595   5.431  0.9655 -0.3969 -0.1549
  429MOL0     C56549   6.628   2.521   5.502  0.1694 -0.0078 -0.0445
  429MOL0     C56550   6.990   2.347   5.709 -0.0386 -0.0485  0.1765
  429MOL0     C56551   7.088   2.453   5.711 -0.0734  0.9018  0.9229
  429MOL0     C56552   7.225   2.423   5.731  0.0508  0.6487 -0.0339
  429MOL0     C56553   7.268   2.293   5.740  0.6332  0.5791 -0.8194
  429MOL0     O56554   7.407   2.287   5.743  0.6807 -0.4892 -0.5044
  429MOL0     C56555   7.469   2.160   5.724  0.1793 -1.0113 -1.0148
  429MOL0     C56556   7.618   2.176   5.736 -0.3898  0.0386 -0.0750
  429MOL0     C56557   7.649   2.217   5.882 -1.3062  0.6196  0.1875
  429MOL0     C56558   7.794   2.174   5.919  0.2360  1.0814  0.7751
  429MOL0     C56559   7.811   2.027   5.925  0.3497  0.4414  0.3190
  429MOL0     C56560   7.813   1.909   5.932 -0.0532  0.9489 -0.7474
  429MOL0     C56561   7.176   2.186   5.728 -0.7379 -0.2520 -0.6706
  429MOL0     C56562   7.037   2.215   5.719 -0.0467  0.5402  0.8089
  429MOL0     H56563   6.734   2.747   5.715 -0.4825 -0.0024  0.5262
  429MOL0     H56564   6.568   2.888   5.617 -4.4168  0.7147 -1.4526
  429MOL0     H56565   6.413   2.949   5.317  1.3370  1.5182  1.9292
  429MOL0     H56566   6.428   2.985   5.493 -1.2832  3.4251 -0.4298
  429MOL0     H56567   6.194   2.964   5.518 -1.3580  0.7526 -0.9258
  429MOL0     H56568   6.166   2.868   5.379  3.6596 -2.0173 -0.1220
  429MOL0     H56569   6.268   3.073   5.241 -0.1966  2.0096  0.2566
  429MOL0     H56570   6.227   3.162   5.388 -4.2625 -0.0667  2.0927
  429MOL0     H56571   6.036   2.978   5.241 -2.6684 -0.2662  1.2830
  429MOL0     H56572   5.992   3.104   5.366 -0.3763  2.9708 -0.3439
  429MOL0     H56573   5.960   3.126   5.097  0.2586  1.1127 -0.5932
  429MOL0     H56574   6.123   3.195   5.105  2.0365 -1.7779  2.9122
  429MOL0     H56575   6.052   3.353   5.289  1.6132 -1.9494 -0.1771
  429MOL0     H56576   5.889   3.276   5.267  2.0427 -2.4723  2.0444
  429MOL0     H56577   6.005   3.506   5.162 -0.5722  0.7410 -2.6464
  429MOL0     H56578   6.037   3.385   5.035  0.8141  0.9391 -0.3643
  429MOL0     H56579   5.823   3.522   5.002  3.1686 -1.3420 -1.6453
  429MOL0     H56580   5.775   3.471   5.170 -1.6796 -0.1497  0.2432
  429MOL0     H56581   5.570   3.337   5.115  0.8724  2.8839 -0.2140
  429MOL0     H56582   5.395   3.183   4.982 -2.3791 -2.8410  0.5257
  429MOL0     H56583   5.479   3.028   4.972  1.3965 -0.3668  0.3662
  429MOL0     H56584   5.338   3.057   4.790 -0.8210  0.0197  0.6146
  429MOL0     H56585   5.508   3.039   4.741  0.6799 -0.2754  0.5204
  429MOL0     H56586   5.512   3.288   4.689  0.9461 -0.0395  3.2210
  429MOL0     H56587   5.384   3.205   4.594  1.7725 -2.3540  0.0653
  429MOL0     H56588   5.308   3.413   4.685 -3.9080 -0.9455  0.1723
  429MOL0     H56589   5.383   3.380   4.838  1.3676  0.7591 -1.2232
  429MOL0     H56590   5.145   3.335   4.548  0.6355  0.1195  0.4260
  429MOL0     H56591   4.989   3.205   4.413  1.7052 -0.3806  0.3871
  429MOL0     H56592   4.697   2.795   4.309 -1.5315 -1.6043 -0.6142
  429MOL0     H56593   4.469   2.749   4.218  0.3549 -0.5852  3.0500
  429MOL0     H56594   4.242   3.067   4.014 -4.5836  2.1967 -1.2069
  429MOL0     H56595   4.208   3.130   4.169 -2.6893  0.9468 -1.4170
  429MOL0     H56596   4.038   2.969   4.224 -0.5452  1.2855  0.0259
  429MOL0     H56597   4.060   2.884   4.074 -0.8292  0.1394 -1.8115
  429MOL0     H56598   4.000   3.087   3.935 -0.1790  1.7370  0.2238
  429MOL0     H56599   3.988   3.181   4.078  2.1111  0.4791 -1.9352
  429MOL0     H56600   3.832   2.933   4.009  1.7573  0.1110 -0.6470
  429MOL0     H56601   3.799   3.038   4.150  1.1209  2.6250  0.8198
  429MOL0     H56602   3.786   3.135   3.857 -0.3385  0.3762  0.4810
  429MOL0     H56603   3.763   3.238   3.989  1.0392  0.1529 -0.4062
  429MOL0     H56604   3.566   3.111   4.068 -0.2940 -1.7985  0.4951
  429MOL0     H56605   3.605   2.967   3.968 -0.0541 -0.6478 -3.1021
  429MOL0     H56606   3.557   3.217   3.813 -3.1211  1.8802  1.1624
  429MOL0     H56607   3.530   3.047   3.773 -0.7107  0.1489  0.1964
  429MOL0     H56608   3.345   3.197   3.939 -1.0034  0.0564 -0.3399
  429MOL0     H56609   3.352   3.011   3.935 -3.2807 -0.2308 -0.7937
  429MOL0     H56610   4.407   3.183   4.213  0.2440  0.5612 -0.2251
  429MOL0     H56611   4.623   3.212   4.280  0.5268  0.1017  1.5969
  429MOL0     H56612   4.854   3.003   4.771  0.2956  0.5140  2.4395
  429MOL0     H56613   5.005   3.117   4.895  1.2437 -2.6775 -1.0681
  429MOL0     H56614   6.461   2.547   5.361  2.5238 -1.0852 -1.2540
  429MOL0     H56615   6.619   2.418   5.469  2.4421 -0.3298  0.1898
  429MOL0     H56616   7.058   2.557   5.703  0.7071  1.0332 -0.7668
  429MOL0     H56617   7.295   2.505   5.744  2.0705 -0.8786 -0.7636
  429MOL0     H56618   7.438   2.111   5.631 -0.9311 -1.4815 -0.4142
  429MOL0     H56619   7.423   2.097   5.801 -1.0793 -0.3708 -1.2117
  429MOL0     H56620   7.666   2.081   5.711  0.5870 -0.0309  1.9109
  429MOL0     H56621   7.667   2.235   5.658  4.2279 -1.8440  1.0919
  429MOL0     H56622   7.585   2.156   5.946 -2.7201  0.5461 -1.2422
  429MOL0     H56623   7.644   2.325   5.900  0.0466  1.0065 -1.5252
  429MOL0     H56624   7.853   2.194   5.829  0.3706 -2.2695 -0.0143
  429MOL0     H56625   7.846   2.226   6.000 -0.8556  1.3053  1.3581
  429MOL0     H56626   7.823   1.803   5.945 -2.1739  0.5496 -1.7989
  429MOL0     H56627   7.214   2.086   5.708  1.3510  0.9774 -3.6885
  429MOL0     H56628   6.959   2.140   5.713 -1.3589  1.6580  2.7382
  430MOL0     O56629   8.417   1.056   8.587  0.3887  0.5002 -0.2439
  430MOL0     C56630   8.435   1.034   8.706  0.0748 -0.0895 -0.2544
  430MOL0     O56631   8.341   1.025   8.797 -0.3682  0.1259 -0.3395
  430MOL0     C56632   8.208   1.055   8.772 -0.4958 -0.2611 -0.0797
  430MOL0     C56633   8.157   1.186   8.780 -0.1082  0.0873 -0.4247
  430MOL0     C56634   8.020   1.209   8.776 -0.0535  0.4463  0.1070
  430MOL0     C56635   7.926   1.106   8.755 -0.5972 -0.6564  1.0277
  430MOL0     O56636   7.791   1.122   8.768 -0.4136 -0.1553 -0.0294
  430MOL0     C56637   7.725   1.078   8.895 -0.2103  0.1990 -0.2825
  430MOL0     C56638   7.665   1.198   8.967  0.3941  0.2031  0.7742
  430MOL0     C56639   7.767   1.314   8.985 -0.2669 -0.4187  0.9350
  430MOL0     C56640   7.738   1.402   9.112 -0.3644  0.0688 -0.2030
  430MOL0     C56641   7.593   1.462   9.118 -0.4734 -0.0069 -1.1467
  430MOL0     C56642   7.575   1.575   9.018 -0.4108 -0.0123 -0.0888
  430MOL0     C56643   7.430   1.628   9.036  0.7037 -0.3126 -0.1300
  430MOL0     C56644   7.415   1.755   8.957 -0.9564  0.2215 -0.5511
  430MOL0     N56645   7.283   1.794   8.917 -0.0049  0.6157  0.6600
  430MOL0     C56646   7.178   1.800   8.998  0.7641 -0.0982  0.6598
  430MOL0     C56647   7.072   1.830   8.921  0.4908 -0.5530  0.0083
  430MOL0     C56648   6.939   1.861   8.976  0.3103  0.4914 -0.1149
  430MOL0     C56649   6.878   1.981   8.901 -0.4977 -0.0775  0.6838
  430MOL0     C56650   6.751   2.031   8.970 -0.7426  0.3535 -0.3190
  430MOL0     C56651   6.677   2.136   8.884  0.1532 -0.1903  0.3163
  430MOL0     O56652   6.627   2.067   8.762 -0.1869 -0.4550  0.0911
  430MOL0     C56653   6.574   2.150   8.666  0.0076 -0.7854  0.5398
  430MOL0     C56654   6.632   2.159   8.542 -0.0831  0.8228 -0.5919
  430MOL0     C56655   6.591   2.236   8.437 -0.6337 -0.1020  0.0126
  430MOL0     C56656   6.480   2.325   8.459  0.2370  0.2935  1.2631
  430MOL0     C56657   6.433   2.416   8.355  0.5568 -0.2333  0.9468
  430MOL0     O56658   6.294   2.445   8.354 -0.0742 -0.8091 -0.0838
  430MOL0     C56659   6.235   2.527   8.258 -0.1595 -0.1429 -0.6619
  430MOL0     C56660   6.283   2.562   8.131  0.2382 -1.0462 -0.0649
  430MOL0     C56661   6.201   2.641   8.050 -0.5089 -0.5748  0.1187
  430MOL0     C56662   6.073   2.679   8.087  0.7787 -0.2343 -0.4564
  430MOL0     O56663   6.017   2.754   7.992 -0.4011 -0.5001 -0.6645
  430MOL0     C56664   5.889   2.810   8.010 -0.6744  0.2550  0.0912
  430MOL0     C56665   5.849   2.899   7.892  0.2834 -0.2973  0.1135
  430MOL0     C56666   5.743   3.013   7.916 -0.0187  0.4290  0.2407
  430MOL0     C56667   5.620   2.983   7.994  0.1162 -0.5812  0.8570
  430MOL0     C56668   5.548   3.120   8.016 -0.0553  0.1465 -0.7297
  430MOL0     C56669   5.415   3.113   8.097 -0.3230 -0.5711  0.4475
  430MOL0     C56670   5.294   3.090   8.008 -0.7331 -0.2445  0.1285
  430MOL0     C56671   5.167   3.103   8.087 -0.2117 -0.4616 -0.7956
  430MOL0    Cl56672   5.036   3.082   7.974 -0.0698  0.0336  0.0527
  430MOL0     C56673   6.024   2.643   8.211 -0.0154 -0.2332 -0.4418
  430MOL0     C56674   6.101   2.563   8.294  0.8014 -0.1060  0.0195
  430MOL0     O56675   6.513   2.464   8.276 -0.4959  0.4845  0.2222
  430MOL0     C56676   6.423   2.328   8.592  0.3656  0.2346  0.8300
  430MOL0     C56677   6.469   2.233   8.693  0.1970 -0.1788  0.7950
  430MOL0     N56678   7.112   1.842   8.791 -0.1149  0.5354  0.1103
  430MOL0     N56679   7.237   1.826   8.794 -0.2989 -0.1315  0.5667
  430MOL0     C56680   7.975   0.978   8.732  0.1973  0.6212 -0.1238
  430MOL0     C56681   8.111   0.955   8.753  0.0922 -0.3627  0.1402
  430MOL0     C56682   8.577   1.017   8.747  0.2972 -0.1308  0.8758
  430MOL0     C56683   8.672   1.009   8.649  0.0662 -0.0904 -0.4268
  430MOL0     C56684   8.805   0.996   8.687  0.1586  0.1280  0.3330
  430MOL0     C56685   8.847   0.973   8.814  0.5463  0.5618  0.3869
  430MOL0     O56686   8.978   0.962   8.839 -0.1038  0.2892  0.3945
  430MOL0     C56687   9.001   0.875   8.952 -0.4651 -1.1873 -0.7024
  430MOL0     C56688   9.148   0.826   8.935  0.5730 -0.2399  0.4431
  430MOL0     C56689   9.179   0.716   9.029 -0.2519  0.3533  0.2241
  430MOL0     C56690   9.320   0.661   8.999 -0.4762  0.5850 -0.0934
  430MOL0     C56691   9.424   0.758   8.968 -0.9843  0.8778  0.3645
  430MOL0     C56692   9.523   0.816   8.937  0.6010  0.1614  0.0977
  430MOL0     C56693   8.749   0.978   8.909 -0.1157  0.4077  0.0853
  430MOL0     C56694   8.618   0.996   8.875  0.6112  0.3829  0.1010
  430MOL0     H56695   8.223   1.272   8.789 -1.3798  1.2984 -2.0696
  430MOL0     H56696   7.983   1.307   8.802 -0.8215 -0.4593  2.6568
  430MOL0     H56697   7.787   1.025   8.968  2.9507  2.9600 -0.7103
  430MOL0     H56698   7.638   1.017   8.870 -0.0307  0.7313 -2.3783
  430MOL0     H56699   7.633   1.169   9.068  0.4886  1.9671  1.3440
  430MOL0     H56700   7.575   1.237   8.919  1.7511  3.2317  0.4398
  430MOL0     H56701   7.783   1.376   8.896 -3.3355 -1.1941 -0.3033
  430MOL0     H56702   7.866   1.272   9.001  0.8544  1.3798 -0.7759
  430MOL0     H56703   7.769   1.345   9.200  1.1458  1.3319  0.1273
  430MOL0     H56704   7.809   1.485   9.107 -1.2835  0.8113 -1.9256
  430MOL0     H56705   7.578   1.498   9.220 -0.3836 -0.6965 -0.8832
  430MOL0     H56706   7.521   1.382   9.096  0.4488 -1.0167 -0.6239
  430MOL0     H56707   7.592   1.537   8.917  1.2216 -5.3959  1.8717
  430MOL0     H56708   7.647   1.654   9.043  0.0026  0.1631 -1.6788
  430MOL0     H56709   7.376   1.540   8.999  3.0280 -2.0144  0.3223
  430MOL0     H56710   7.417   1.643   9.144  0.9419  3.0862 -0.4633
  430MOL0     H56711   7.474   1.740   8.866 -0.8459  1.1072 -0.6325
  430MOL0     H56712   7.466   1.835   9.010 -2.0733  0.0030  0.9202
  430MOL0     H56713   7.164   1.792   9.105  2.2964 -1.4661  0.7920
  430MOL0     H56714   6.940   1.887   9.082  2.1925  2.4149 -0.5404
  430MOL0     H56715   6.876   1.771   8.973  2.9544 -1.4757  0.3099
  430MOL0     H56716   6.849   1.945   8.801 -0.7395  0.2053  0.6528
  430MOL0     H56717   6.947   2.065   8.897  1.3241 -1.4995  0.8340
  430MOL0     H56718   6.692   1.943   8.998  1.2479 -1.3658 -1.2236
  430MOL0     H56719   6.785   2.089   9.056 -0.9484 -1.7582  1.2898
  430MOL0     H56720   6.751   2.208   8.847  0.6551  1.1474  3.5938
  430MOL0     H56721   6.595   2.187   8.935 -0.5922 -2.8096  1.9486
  430MOL0     H56722   6.717   2.092   8.539  2.9165  4.3260 -0.3995
  430MOL0     H56723   6.641   2.219   8.343 -2.0683  1.5638 -1.1098
  430MOL0     H56724   6.384   2.536   8.101  1.1641 -1.1497  2.8338
  430MOL0     H56725   6.256   2.672   7.962  1.3699  0.4776  1.5811
  430MOL0     H56726   5.884   2.878   8.096 -0.4555 -0.9582  1.1025
  430MOL0     H56727   5.824   2.725   8.035  2.3333 -1.5316  2.5447
  430MOL0     H56728   5.819   2.828   7.815 -1.4379  2.8156 -2.3077
  430MOL0     H56729   5.935   2.947   7.845 -0.3319  0.1530 -0.5719
  430MOL0     H56730   5.719   3.058   7.819  1.1268  0.8071  0.1206
  430MOL0     H56731   5.802   3.093   7.963  0.9517  2.5021 -3.9573
  430MOL0     H56732   5.553   2.925   7.930  3.6874 -1.3974 -2.4990
  430MOL0     H56733   5.646   2.936   8.089  1.8009 -0.9726  0.2320
  430MOL0     H56734   5.530   3.165   7.917  0.9941 -1.5513 -1.7363
  430MOL0     H56735   5.621   3.184   8.066  1.5016 -0.0802 -2.5990
  430MOL0     H56736   5.415   3.212   8.143  2.0101 -0.9984  1.4957
  430MOL0     H56737   5.428   3.050   8.185  1.5165 -0.4386  0.3036
  430MOL0     H56738   5.291   3.158   7.923  1.5822 -2.1216 -1.5863
  430MOL0     H56739   5.318   2.990   7.972  0.0083 -0.6851  1.7221
  430MOL0     H56740   5.175   3.208   8.116 -0.2476 -0.4635 -0.7801
  430MOL0     H56741   5.167   3.045   8.179  1.6775 -0.7716 -0.9570
  430MOL0     H56742   5.922   2.676   8.225  0.8624  2.4787  0.2053
  430MOL0     H56743   6.058   2.539   8.391 -1.6013  1.2327 -0.6444
  430MOL0     H56744   6.331   2.384   8.607  0.3022  0.4725 -0.3951
  430MOL0     H56745   6.417   2.214   8.787 -1.0037 -0.9606 -0.0008
  430MOL0     H56746   7.891   0.917   8.702 -0.2970  0.7023  1.0263
  430MOL0     H56747   8.154   0.856   8.743  2.3812  0.7197 -1.5889
  430MOL0     H56748   8.639   1.026   8.547  1.3460  0.1853 -0.8229
  430MOL0     H56749   8.878   1.001   8.606 -0.5574 -1.9314 -0.5010
  430MOL0     H56750   8.933   0.790   8.953 -1.1233 -0.6755  0.4072
  430MOL0     H56751   8.976   0.935   9.040  2.0281 -0.8358 -0.1777
  430MOL0     H56752   9.159   0.787   8.834  0.1699  1.9873 -0.5305
  430MOL0     H56753   9.221   0.908   8.943  0.1283  0.0511  1.7408
  430MOL0     H56754   9.104   0.636   9.031  0.8750 -0.7117  1.2820
  430MOL0     H56755   9.174   0.769   9.124 -2.9367  1.7970 -0.6178
  430MOL0     H56756   9.356   0.599   9.082  1.0772 -0.3081 -1.3608
  430MOL0     H56757   9.305   0.588   8.918  0.1252 -0.4255  0.6777
  430MOL0     H56758   9.605   0.873   8.899  2.0561 -2.4310 -0.8510
  430MOL0     H56759   8.774   0.967   9.015  0.9415  2.0294  0.0363
  430MOL0     H56760   8.544   0.994   8.954  1.6975 -3.6885  1.2596
  431MOL0     O56761   8.626   3.594   8.087 -0.0064 -0.1980  0.0789
  431MOL0     C56762   8.615   3.690   8.161  0.7205  0.2436 -0.2388
  431MOL0     O56763   8.499   3.749   8.190 -0.0524  0.1760 -0.1708
  431MOL0     C56764   8.381   3.720   8.118 -0.5412 -0.7587 -0.2061
  431MOL0     C56765   8.302   3.607   8.150 -1.1486  0.2582  0.5334
  431MOL0     C56766   8.193   3.576   8.068  0.4252  0.7271 -0.5557
  431MOL0     C56767   8.167   3.648   7.958  0.2555 -0.2087 -0.0148
  431MOL0     O56768   8.068   3.620   7.868 -0.4634 -0.0840  0.3907
  431MOL0     C56769   7.975   3.514   7.896  0.9909 -0.1441  0.2858
  431MOL0     C56770   7.853   3.560   7.989  0.6318 -0.3523 -0.6597
  431MOL0     C56771   7.747   3.457   7.973 -0.3223  0.4235 -0.3776
  431MOL0     C56772   7.612   3.512   8.021  1.0915 -0.2221 -0.7512
  431MOL0     C56773   7.503   3.414   8.013  0.3445  0.0170 -0.6364
  431MOL0     C56774   7.375   3.484   8.045 -0.0577  0.4774 -0.1695
  431MOL0     C56775   7.251   3.402   8.058 -0.5883 -0.6908  0.2857
  431MOL0     C56776   7.137   3.467   8.115 -0.0560  0.4784  0.1222
  431MOL0     N56777   7.025   3.373   8.131 -0.5452  0.6611  0.2686
  431MOL0     C56778   6.987   3.313   8.244 -0.0860 -0.4351  0.4973
  431MOL0     C56779   6.904   3.216   8.206  0.9429  0.8286  0.2380
  431MOL0     C56780   6.811   3.128   8.295 -0.6404  0.1205  0.6527
  431MOL0     C56781   6.716   3.216   8.375 -0.0077 -0.9083 -0.2860
  431MOL0     C56782   6.609   3.301   8.301  0.0024 -0.1744 -0.1536
  431MOL0     C56783   6.510   3.382   8.395 -0.0656 -0.0460 -0.6937
  431MOL0     O56784   6.424   3.297   8.477  0.7897  0.5478 -0.8499
  431MOL0     C56785   6.304   3.341   8.519  0.0753  0.1703 -0.6744
  431MOL0     C56786   6.256   3.323   8.653  0.6236 -0.1058 -0.3367
  431MOL0     C56787   6.141   3.380   8.696  0.3100 -1.1154  0.3332
  431MOL0     C56788   6.053   3.444   8.608 -0.0189  0.1277 -0.3592
  431MOL0     C56789   5.904   3.488   8.647 -0.1627  0.1211 -0.8387
  431MOL0     O56790   5.871   3.471   8.780  0.2255 -0.3002 -0.2585
  431MOL0     C56791   5.736   3.487   8.815 -0.8104 -0.3675 -0.1406
  431MOL0     C56792   5.690   3.601   8.869  0.7337 -0.6735  0.8704
  431MOL0     C56793   5.553   3.615   8.899 -0.0690 -0.0866  0.1867
  431MOL0     C56794   5.463   3.515   8.873  0.2247  0.1222  0.3937
  431MOL0     O56795   5.336   3.550   8.918 -1.3236 -0.7424  0.1313
  431MOL0     C56796   5.229   3.481   8.876 -0.7214  0.5804 -0.8320
  431MOL0     C56797   5.102   3.550   8.939  0.3502 -0.0697 -0.4857
  431MOL0     C56798   5.091   3.695   8.887 -0.1035  0.1292 -0.4641
  431MOL0     C56799   4.944   3.744   8.911  0.0336  0.4964  0.7912
  431MOL0     C56800   4.862   3.691   8.793  0.1868 -0.0389 -0.7226
  431MOL0     C56801   4.711   3.722   8.808  0.0415 -0.4791 -0.4130
  431MOL0     C56802   4.691   3.869   8.838  0.4966  0.4001  0.5107
  431MOL0     C56803   4.541   3.872   8.846  0.5895 -0.5483  0.1988
  431MOL0    Cl56804   4.477   4.037   8.861 -0.2343 -0.2002 -0.3585
  431MOL0     C56805   5.504   3.403   8.807 -0.2952 -0.4353  0.5206
  431MOL0     C56806   5.635   3.391   8.769  0.3033  0.4500 -0.3657
  431MOL0     O56807   5.833   3.541   8.559 -0.9100 -0.2650 -0.1200
  431MOL0     C56808   6.095   3.446   8.475  0.6756 -1.3910 -0.3313
  431MOL0     C56809   6.214   3.393   8.431  0.1255 -0.9101 -0.8737
  431MOL0     N56810   6.890   3.216   8.066  0.4892  0.8023  0.1715
  431MOL0     N56811   6.966   3.307   8.025  0.0700 -0.0801  1.2061
  431MOL0     C56812   8.247   3.754   7.930  0.1859 -1.0047 -0.2040
  431MOL0     C56813   8.348   3.794   8.007 -0.7930  0.1433  0.0624
  431MOL0     C56814   8.735   3.739   8.218  0.5393 -0.4151  0.2136
  431MOL0     C56815   8.853   3.718   8.154 -0.4781 -0.0634 -0.1294
  431MOL0     C56816   8.975   3.743   8.218  0.1116  0.1536  1.2822
  431MOL0     C56817   8.967   3.791   8.352  0.4045  0.0265  0.1069
  431MOL0     O56818   9.089   3.809   8.412 -0.1945 -0.5831 -0.0180
  431MOL0     C56819   9.125   3.945   8.448 -0.1818 -0.2674 -0.0115
  431MOL0     C56820   9.256   3.975   8.388  0.3444 -0.4256 -0.6571
  431MOL0     C56821   9.375   3.940   8.471  0.0447  0.5539 -1.1788
  431MOL0     C56822   9.390   3.788   8.488 -0.1885  0.4392 -0.3460
  431MOL0     C56823   9.530   3.755   8.528  0.9725  0.2081 -0.0099
  431MOL0     C56824   9.641   3.741   8.558  0.1839  0.1964 -0.1855
  431MOL0     C56825   8.851   3.820   8.412  0.1205 -0.4587  0.1048
  431MOL0     C56826   8.728   3.793   8.345  0.1798 -0.2200  0.8880
  431MOL0     H56827   8.325   3.553   8.241  1.6180 -1.2846 -0.9328
  431MOL0     H56828   8.135   3.488   8.094  0.6661  1.0921  1.4093
  431MOL0     H56829   8.027   3.421   7.919  0.9222 -0.4937 -0.8926
  431MOL0     H56830   7.932   3.496   7.797 -0.6999  0.3891  0.8894
  431MOL0     H56831   7.808   3.656   7.962 -1.7415 -1.2680 -0.2007
  431MOL0     H56832   7.886   3.553   8.093  0.7575 -4.1842 -0.8128
  431MOL0     H56833   7.768   3.371   8.038  1.0834  2.3859  1.9315
  431MOL0     H56834   7.743   3.408   7.875  1.6277  1.5631 -1.0751
  431MOL0     H56835   7.620   3.549   8.123  2.4688  1.9370 -1.5777
  431MOL0     H56836   7.578   3.597   7.962  1.3256  0.7747  0.5094
  431MOL0     H56837   7.540   3.328   8.069  1.4945  0.4757 -0.6674
  431MOL0     H56838   7.504   3.383   7.908  2.3026  1.3873 -1.0654
  431MOL0     H56839   7.362   3.573   7.982 -2.1930 -0.9979 -1.9746
  431MOL0     H56840   7.384   3.527   8.145 -3.1579  2.8404 -0.7252
  431MOL0     H56841   7.209   3.374   7.961 -2.4598  1.0649  0.5208
  431MOL0     H56842   7.271   3.320   8.127  1.0774  0.1265  0.8163
  431MOL0     H56843   7.110   3.552   8.051 -2.6775  1.2803  2.1276
  431MOL0     H56844   7.175   3.500   8.212 -1.2400  0.9002  0.4663
  431MOL0     H56845   7.020   3.340   8.344  4.0347 -0.4866 -0.6707
  431MOL0     H56846   6.869   3.069   8.367 -0.2324  1.3076  1.3314
  431MOL0     H56847   6.756   3.061   8.229  3.1557 -2.2387 -0.4504
  431MOL0     H56848   6.780   3.282   8.434  1.2035 -0.4520 -2.0044
  431MOL0     H56849   6.661   3.152   8.443 -1.1471 -0.8889 -1.1546
  431MOL0     H56850   6.663   3.377   8.243  0.1824  0.0453  0.2962
  431MOL0     H56851   6.546   3.238   8.239  0.9149  1.6148 -3.1131
  431MOL0     H56852   6.442   3.445   8.338 -0.1468  1.8359  1.3561
  431MOL0     H56853   6.569   3.440   8.466  0.4463  0.5861 -1.6259
  431MOL0     H56854   6.306   3.280   8.739 -1.5953 -1.4436  0.3660
  431MOL0     H56855   6.115   3.367   8.801 -0.4939 -1.0651  0.1472
  431MOL0     H56856   5.760   3.681   8.891  0.6919 -0.6128  0.7814
  431MOL0     H56857   5.508   3.701   8.947 -1.1086 -0.6655  0.2713
  431MOL0     H56858   5.233   3.376   8.905  0.5287  1.5969  3.2732
  431MOL0     H56859   5.232   3.480   8.767 -1.5021 -1.6839 -0.8780
  431MOL0     H56860   5.094   3.535   9.047 -2.0181  2.8171 -0.1478
  431MOL0     H56861   5.020   3.489   8.901  0.5507  0.7678 -2.4075
  431MOL0     H56862   5.115   3.696   8.780 -4.3271 -0.8081 -1.5918
  431MOL0     H56863   5.158   3.763   8.940 -0.9175 -0.6970  1.7017
  431MOL0     H56864   4.905   3.698   9.002  1.3088 -0.0725  1.0706
  431MOL0     H56865   4.937   3.853   8.902  0.9602  0.3959 -3.6832
  431MOL0     H56866   4.879   3.584   8.782  1.2811  0.1321 -0.8641
  431MOL0     H56867   4.901   3.731   8.699 -0.2466  3.1566  0.3376
  431MOL0     H56868   4.665   3.656   8.882 -0.9208  1.8546  1.1873
  431MOL0     H56869   4.661   3.698   8.714 -0.0657 -2.1835  0.0436
  431MOL0     H56870   4.727   3.889   8.940  2.3489  0.4621 -0.1129
  431MOL0     H56871   4.755   3.930   8.773 -0.2213  1.0180  0.3646
  431MOL0     H56872   4.514   3.811   8.933 -0.9431 -0.0251  0.1242
  431MOL0     H56873   4.496   3.834   8.754  0.2957 -1.4644  0.7140
  431MOL0     H56874   5.432   3.323   8.792 -0.6938 -0.5604  2.7291
  431MOL0     H56875   5.673   3.315   8.701  0.0225  1.9131 -2.2323
  431MOL0     H56876   6.035   3.495   8.399  1.0269 -3.1510 -1.8038
  431MOL0     H56877   6.240   3.412   8.327 -0.5920 -0.6302 -1.0089
  431MOL0     H56878   8.227   3.812   7.841  0.3070  0.2441  0.5666
  431MOL0     H56879   8.398   3.887   7.980 -2.6871  2.4743  3.7774
  431MOL0     H56880   8.848   3.657   8.064  0.7625 -0.6766  0.2028
  431MOL0     H56881   9.069   3.728   8.167 -1.3687 -0.7044 -1.4189
  431MOL0     H56882   9.121   3.954   8.557 -1.9516 -0.5582 -0.0177
  431MOL0     H56883   9.061   4.020   8.401  0.6501  0.9609  0.7851
  431MOL0     H56884   9.259   3.923   8.291  1.8301 -0.6705 -0.4949
  431MOL0     H56885   9.267   4.081   8.364 -0.4107 -0.1692  0.1001
  431MOL0     H56886   9.374   3.982   8.572  3.0175 -1.3149 -0.2165
  431MOL0     H56887   9.467   3.972   8.420  1.4584 -3.1149 -1.2977
  431MOL0     H56888   9.325   3.755   8.568  3.1700  0.4417  2.6287
  431MOL0     H56889   9.367   3.739   8.393  0.5641  3.4376 -2.2236
  431MOL0     H56890   9.743   3.742   8.591  0.7526  1.9107 -1.7919
  431MOL0     H56891   8.859   3.853   8.515 -1.7628 -1.1488  0.5199
  431MOL0     H56892   8.631   3.813   8.391 -0.9975 -1.0976 -1.0993
  432MOL0     O56893   4.602   7.083   0.234 -0.6460  0.5084  0.4520
  432MOL0     C56894   4.706   7.130   0.187 -0.7759 -0.3343  0.7985
  432MOL0     O56895   4.714   7.199   0.069  0.1216  0.3273  0.4690
  432MOL0     C56896   4.608   7.240  -0.015  0.5868  1.1198 -0.1251
  432MOL0     C56897   4.613   7.360  -0.078 -1.1832 -0.2739  0.5683
  432MOL0     C56898   4.509   7.411  -0.154 -0.2821  0.3722  0.3393
  432MOL0     C56899   4.398   7.331  -0.172 -0.6654 -0.0876 -0.4473
  432MOL0     O56900   4.298   7.389  -0.245 -0.0707  0.0532  0.3328
  432MOL0     C56901   4.158   7.359  -0.245  0.1599 -0.5891  0.6153
  432MOL0     C56902   4.090   7.492  -0.291 -0.3853  0.3618 -0.9289
  432MOL0     C56903   3.941   7.478  -0.304  0.2216 -0.2027  0.5615
  432MOL0     C56904   3.886   7.621  -0.337 -0.7063 -0.2445 -0.4971
  432MOL0     C56905   3.735   7.626  -0.331  0.4278  0.0449 -0.7752
  432MOL0     C56906   3.680   7.775  -0.352  0.4562 -0.1809 -0.5717
  432MOL0     C56907   3.534   7.767  -0.333 -0.4578 -1.0511  0.3661
  432MOL0     C56908   3.481   7.904  -0.376 -0.6204 -0.2536 -0.0086
  432MOL0     N56909   3.339   7.916  -0.370 -0.1689  0.3045 -0.7332
  432MOL0     C56910   3.256   7.893  -0.258 -0.9749  0.1724  0.6347
  432MOL0     C56911   3.136   7.937  -0.311  0.3934 -0.2320 -0.1235
  432MOL0     C56912   3.001   7.945  -0.240 -0.0495  0.0530  1.3117
  432MOL0     C56913   3.003   8.055  -0.128 -0.1229  0.4703  0.1989
  432MOL0     C56914   3.026   8.192  -0.195 -0.2927  0.5757 -0.0064
  432MOL0     C56915   3.027   8.295  -0.090  0.3152 -0.8897 -0.0418
  432MOL0     O56916   2.897   8.349  -0.057 -0.1550 -0.1914 -0.3567
  432MOL0     C56917   2.905   8.435   0.052  0.6229 -0.0785  0.1452
  432MOL0     C56918   2.845   8.395   0.174  0.2601 -0.1976 -0.6263
  432MOL0     C56919   2.840   8.485   0.282 -0.8646  0.4851  0.1080
  432MOL0     C56920   2.898   8.611   0.275  0.2950 -0.4081  0.2996
  432MOL0     C56921   2.893   8.712   0.380 -0.3776 -0.1306 -0.1559
  432MOL0     O56922   2.944   8.835   0.359  0.2395 -0.3423  0.2154
  432MOL0     C56923   2.938   8.932   0.448  0.3234 -1.7794  0.2324
  432MOL0     C56924   3.045   8.986   0.516  0.0526 -0.1843 -0.0998
  432MOL0     C56925   3.022   9.082   0.614  0.3212  0.4678 -0.6685
  432MOL0     C56926   2.900   9.139   0.650 -0.1465 -0.1570  0.5865
  432MOL0     O56927   2.866   9.239   0.740  0.4207 -0.2151  0.6267
  432MOL0     C56928   2.974   9.291   0.822  0.1652  0.2014  0.4487
  432MOL0     C56929   2.935   9.367   0.946  0.1940 -0.3639  0.3572
  432MOL0     C56930   2.826   9.471   0.899 -0.7053 -0.0405 -0.6107
  432MOL0     C56931   2.834   9.589   0.987  0.6991 -0.2004  0.2884
  432MOL0     C56932   2.731   9.699   0.954  0.5471  0.8554 -0.1121
  432MOL0     C56933   2.586   9.673   1.001  0.4939 -0.2961  0.4873
  432MOL0     C56934   2.478   9.774   0.950 -0.0217  0.0056 -0.7058
  432MOL0     C56935   2.371   9.708   0.873 -1.2717  0.3144 -0.2998
  432MOL0    Cl56936   2.253   9.624   0.968 -0.0251  0.0749  0.4757
  432MOL0     C56937   2.785   9.083   0.584 -1.1290 -0.2557 -0.2894
  432MOL0     C56938   2.808   8.981   0.490 -0.8756 -0.2800 -0.3752
  432MOL0     O56939   2.843   8.681   0.484 -0.1178  0.1268 -0.6424
  432MOL0     C56940   2.965   8.647   0.156  0.0062 -0.1106 -0.8424
  432MOL0     C56941   2.974   8.561   0.052  0.7835  0.5166 -0.0588
  432MOL0     N56942   3.140   7.984  -0.437  0.0299  0.0792  0.3308
  432MOL0     N56943   3.265   7.958  -0.479  0.1871 -0.5270  0.7551
  432MOL0     C56944   4.384   7.214  -0.097 -0.0051 -0.1598 -0.2053
  432MOL0     C56945   4.487   7.163  -0.021  0.2029  0.2603 -0.0601
  432MOL0     C56946   4.836   7.087   0.240 -0.8988  0.0405  0.8655
  432MOL0     C56947   4.850   7.017   0.361  0.1673  0.2771  0.8081
  432MOL0     C56948   4.976   6.966   0.397 -0.5475  0.7393  0.1388
  432MOL0     C56949   5.092   6.990   0.326  0.2209 -0.6778 -0.2321
  432MOL0     O56950   5.217   6.956   0.366 -1.2552  1.1077  0.3247
  432MOL0     C56951   5.246   6.921   0.505  0.7336 -0.3109 -0.0961
  432MOL0     C56952   5.278   6.772   0.522  0.1595 -0.5343 -0.2411
  432MOL0     C56953   5.152   6.693   0.537  0.3740 -1.0141  0.6222
  432MOL0     C56954   5.177   6.542   0.525  0.7930  0.1217 -0.7318
  432MOL0     C56955   5.044   6.470   0.532  0.0433  0.1041 -0.3605
  432MOL0     C56956   4.937   6.410   0.507  0.0369 -0.9541  0.7909
  432MOL0     C56957   5.082   7.073   0.217  0.1922 -0.0867 -0.4111
  432MOL0     C56958   4.956   7.120   0.169  0.0929  0.1639 -0.3322
  432MOL0     H56959   4.702   7.423  -0.076  0.4140 -2.4655  1.7204
  432MOL0     H56960   4.518   7.512  -0.193 -0.4030  1.3996  2.8388
  432MOL0     H56961   4.130   7.335  -0.142  2.5113 -0.1954  1.3969
  432MOL0     H56962   4.119   7.276  -0.304 -0.6236 -0.2394  0.6329
  432MOL0     H56963   4.134   7.512  -0.390  1.0843 -1.8395 -0.8004
  432MOL0     H56964   4.119   7.573  -0.223  3.4565 -1.5278 -0.0211
  432MOL0     H56965   3.896   7.433  -0.216  0.6419 -1.1551  0.3085
  432MOL0     H56966   3.932   7.404  -0.385  4.0191 -0.2215 -0.0561
  432MOL0     H56967   3.928   7.689  -0.262  2.1495 -0.4799 -1.7641
  432MOL0     H56968   3.915   7.656  -0.436  0.7393  0.4094  0.1260
  432MOL0     H56969   3.706   7.585  -0.234  0.4500  1.8104  0.0169
  432MOL0     H56970   3.686   7.572  -0.413 -2.6109 -2.1780  2.2263
  432MOL0     H56971   3.715   7.826  -0.443  3.2033 -1.7582 -0.5196
  432MOL0     H56972   3.724   7.836  -0.272 -1.0660 -0.1064  0.2463
  432MOL0     H56973   3.500   7.690  -0.404  1.7263  1.6716 -4.0500
  432MOL0     H56974   3.519   7.742  -0.227 -1.4618 -3.8570 -0.3299
  432MOL0     H56975   3.516   7.921  -0.478 -2.4976 -1.3954 -0.8999
  432MOL0     H56976   3.507   7.982  -0.304 -0.7261 -0.3853  0.1748
  432MOL0     H56977   3.280   7.848  -0.162  0.2311  2.4511  1.4750
  432MOL0     H56978   2.977   7.847  -0.197  2.7445 -0.5109  1.7529
  432MOL0     H56979   2.930   7.974  -0.319  3.6512 -1.5595 -3.0330
  432MOL0     H56980   3.086   8.031  -0.061  1.1951  1.2744 -1.0617
  432MOL0     H56981   2.906   8.072  -0.081 -0.1194  0.1806  0.3134
  432MOL0     H56982   3.126   8.188  -0.239  0.1220 -0.1406  0.9556
  432MOL0     H56983   2.953   8.197  -0.275  1.1227  3.0220 -1.2706
  432MOL0     H56984   3.079   8.377  -0.142 -0.4514 -1.1430 -1.2364
  432MOL0     H56985   3.076   8.265   0.003 -2.2347  1.3560  2.2115
  432MOL0     H56986   2.792   8.302   0.189  1.4419 -0.6557  1.1018
  432MOL0     H56987   2.787   8.464   0.375 -0.5141  0.9915  0.4243
  432MOL0     H56988   3.151   8.965   0.504  0.2432 -0.8717  2.2479
  432MOL0     H56989   3.103   9.138   0.660 -1.3490  0.6466  2.3799
  432MOL0     H56990   3.039   9.339   0.748  0.6786 -1.5647 -0.3258
  432MOL0     H56991   3.033   9.205   0.855 -1.5231 -1.4683 -0.6749
  432MOL0     H56992   3.022   9.419   0.986  0.3188  0.0650 -0.4562
  432MOL0     H56993   2.883   9.312   1.025 -0.4168 -0.4379 -0.0882
  432MOL0     H56994   2.727   9.424   0.899  0.1757 -1.9641 -0.2959
  432MOL0     H56995   2.833   9.511   0.798 -0.2764 -0.7038 -0.8514
  432MOL0     H56996   2.804   9.558   1.087 -2.3416  2.7888  0.4749
  432MOL0     H56997   2.934   9.634   0.978  1.1699 -1.4015 -0.9330
  432MOL0     H56998   2.737   9.729   0.849  1.4257  3.7986  0.6859
  432MOL0     H56999   2.759   9.785   1.016 -1.6606 -0.5884  3.1678
  432MOL0     H57000   2.580   9.675   1.110  4.7255 -0.2688  0.8778
  432MOL0     H57001   2.567   9.571   0.967  1.0663  0.6094 -2.9683
  432MOL0     H57002   2.436   9.827   1.036 -0.8424  1.4318 -1.9611
  432MOL0     H57003   2.529   9.844   0.884 -0.0165  1.4945  0.8154
  432MOL0     H57004   2.417   9.644   0.798  1.3731  1.6118  0.0754
  432MOL0     H57005   2.314   9.784   0.819  0.0136  0.4591 -1.5105
  432MOL0     H57006   2.685   9.119   0.605 -0.3340  1.4635  0.8076
  432MOL0     H57007   2.717   8.939   0.449 -0.8600 -2.9361  2.0078
  432MOL0     H57008   2.999   8.747   0.132 -1.1112  0.0288 -1.9287
  432MOL0     H57009   3.020   8.609  -0.034  1.8680 -0.8743 -0.2840
  432MOL0     H57010   4.296   7.152  -0.111  1.3440 -3.4434  3.6847
  432MOL0     H57011   4.476   7.071   0.036  0.8170 -0.1427 -0.5876
  432MOL0     H57012   4.777   6.974   0.429 -3.0053  2.4086 -0.9824
  432MOL0     H57013   4.979   6.921   0.495 -0.0501  0.3197 -0.0638
  432MOL0     H57014   5.165   6.956   0.570 -0.1083  0.1835 -1.3719
  432MOL0     H57015   5.327   6.983   0.544 -2.7693  2.1568  4.2084
  432MOL0     H57016   5.329   6.738   0.432 -1.5372 -4.0451 -0.0447
  432MOL0     H57017   5.349   6.761   0.605  1.4822 -0.9346 -1.3912
  432MOL0     H57018   5.078   6.730   0.466  0.7800  0.7546  1.0737
  432MOL0     H57019   5.120   6.717   0.639  0.2134 -1.9197  0.8003
  432MOL0     H57020   5.232   6.513   0.435 -0.8154 -1.3072 -1.3104
  432MOL0     H57021   5.244   6.516   0.606  1.5552  0.1553 -1.3401
  432MOL0     H57022   4.852   6.349   0.485 -0.2154 -0.0541 -0.8590
  432MOL0     H57023   5.169   7.104   0.162 -0.7832  0.4494 -1.6927
  432MOL0     H57024   4.961   7.170   0.073  0.6830 -0.3491 -0.5732
  433MOL0     O57025  11.351   6.021   3.044 -0.1146 -0.3352 -0.2468
  433MOL0     C57026  11.469   6.016   3.038 -0.6089  0.3774 -0.4232
  433MOL0     O57027  11.545   5.909   3.000 -0.3575 -0.1692 -0.1663
  433MOL0     C57028  11.474   5.799   2.941  0.4289  0.2776 -0.5047
  433MOL0     C57029  11.450   5.690   3.025 -0.3683 -0.2307 -0.8494
  433MOL0     C57030  11.372   5.579   2.982 -0.6093 -0.9162 -0.4794
  433MOL0     C57031  11.295   5.588   2.861 -0.6402  0.4613 -0.2903
  433MOL0     O57032  11.228   5.486   2.797 -0.0199 -0.1792 -0.1607
  433MOL0     C57033  11.156   5.397   2.872  0.6513  0.5800 -0.3079
  433MOL0     C57034  11.070   5.317   2.774 -0.2386  0.8973  0.7053
  433MOL0     C57035  10.980   5.402   2.673  0.0363  0.3821  0.1834
  433MOL0     C57036  10.935   5.300   2.572  0.8117 -0.5252  0.9163
  433MOL0     C57037  10.839   5.364   2.460 -0.0100  0.7318 -0.2739
  433MOL0     C57038  10.688   5.370   2.520 -0.1339  0.6511  0.3742
  433MOL0     C57039  10.600   5.440   2.418  0.3847  0.6709  0.9193
  433MOL0     C57040  10.466   5.496   2.487 -1.0678  0.2304 -0.1592
  433MOL0     N57041  10.488   5.593   2.600  0.9222  1.1412 -0.2675
  433MOL0     C57042  10.539   5.713   2.588 -0.8464 -0.4091 -0.2289
  433MOL0     C57043  10.537   5.767   2.711  0.6623  0.7285  0.2124
  433MOL0     C57044  10.580   5.902   2.755 -1.5407 -0.4708  0.3152
  433MOL0     C57045  10.474   6.011   2.765 -0.4197 -0.4242  0.1804
  433MOL0     C57046  10.437   6.065   2.628 -0.2548  0.9296  0.0450
  433MOL0     C57047  10.304   6.142   2.641 -0.4775 -0.6027  0.6559
  433MOL0     O57048  10.321   6.244   2.731  0.2991  0.2030 -0.8520
  433MOL0     C57049  10.214   6.314   2.779  0.1731 -0.6404  0.3050
  433MOL0     C57050  10.240   6.406   2.875 -0.6594 -0.1409 -0.1499
  433MOL0     C57051  10.142   6.496   2.925  0.5936  0.1913 -0.2657
  433MOL0     C57052  10.009   6.490   2.871 -0.3316  0.6225  0.3507
  433MOL0     C57053   9.901   6.575   2.927  0.5217  0.3085 -0.8003
  433MOL0     O57054   9.770   6.536   2.928  0.1119  0.2339 -0.1684
  433MOL0     C57055   9.664   6.621   2.978 -0.2408 -0.2336  0.3033
  433MOL0     C57056   9.545   6.565   3.022 -0.5163 -0.3638  0.7534
  433MOL0     C57057   9.438   6.639   3.076  0.7783  0.8317  0.7871
  433MOL0     C57058   9.452   6.780   3.070  0.7917  0.5947 -0.1286
  433MOL0     O57059   9.351   6.867   3.111  0.4629  0.4628  0.3350
  433MOL0     C57060   9.212   6.813   3.128 -0.2652 -0.8351 -0.7830
  433MOL0     C57061   9.128   6.946   3.134  0.8277 -0.0179 -0.3681
  433MOL0     C57062   9.144   7.000   2.994 -0.1314  0.4008 -0.1275
  433MOL0     C57063   9.032   7.093   2.955 -0.5025  0.9073  0.6056
  433MOL0     C57064   9.019   7.224   3.037 -0.1075  0.2003 -0.0270
  433MOL0     C57065   9.158   7.294   3.051  0.8314 -0.3335  0.7060
  433MOL0     C57066   9.139   7.403   3.155 -0.0728 -1.5639  0.3554
  433MOL0     C57067   9.275   7.484   3.171  0.3166  0.0192  0.6867
  433MOL0    Cl57068   9.313   7.591   3.027 -0.3550  0.3344 -0.2230
  433MOL0     C57069   9.567   6.838   3.015  0.3531 -0.5990 -0.9638
  433MOL0     C57070   9.670   6.757   2.966  0.2290 -1.0086  0.0560
  433MOL0     O57071   9.949   6.666   2.996  0.0767  0.2259 -0.1408
  433MOL0     C57072   9.979   6.394   2.770  0.4028  0.0645 -0.2811
  433MOL0     C57073  10.084   6.305   2.730  0.6636 -0.5024 -0.9508
  433MOL0     N57074  10.473   5.667   2.793  0.6813 -0.3938 -0.3485
  433MOL0     N57075  10.443   5.562   2.728 -0.0847  0.8861  1.1519
  433MOL0     C57076  11.317   5.701   2.777 -0.5924 -0.6003 -0.1408
  433MOL0     C57077  11.406   5.804   2.813 -0.7348  0.8965 -0.6182
  433MOL0     C57078  11.552   6.134   3.081  0.2976 -0.5657 -0.5985
  433MOL0     C57079  11.496   6.261   3.100 -0.0933  0.5265 -0.0700
  433MOL0     C57080  11.569   6.363   3.142  0.6862  0.3805  0.3818
  433MOL0     C57081  11.703   6.350   3.190 -0.2448 -0.2058  0.0315
  433MOL0     O57082  11.766   6.455   3.248  1.1786 -0.0780 -0.7066
  433MOL0     C57083  11.884   6.425   3.327 -0.7043  0.5127  0.4204
  433MOL0     C57084  11.999   6.429   3.223 -0.7158 -0.0108 -0.1350
  433MOL0     C57085  12.130   6.456   3.303  0.1660 -0.2789 -0.4183
  433MOL0     C57086  12.218   6.518   3.195 -0.5975 -0.7397 -0.4941
  433MOL0     C57087  12.356   6.496   3.218  0.1340 -0.0413  0.7892
  433MOL0     C57088  12.476   6.472   3.237  0.4898 -0.1128  0.3493
  433MOL0     C57089  11.756   6.216   3.178 -0.4810 -0.3614 -0.9574
  433MOL0     C57090  11.684   6.120   3.111  0.3283 -0.2441 -0.6493
  433MOL0     H57091  11.515   5.683   3.111 -0.9391  1.7642 -0.2173
  433MOL0     H57092  11.378   5.499   3.055  1.4276 -0.7385 -0.3925
  433MOL0     H57093  11.090   5.450   2.942  0.5642 -1.5568  1.3147
  433MOL0     H57094  11.219   5.332   2.933  1.4180  0.9526 -0.6922
  433MOL0     H57095  11.007   5.250   2.833  0.1551  0.0985  0.2395
  433MOL0     H57096  11.143   5.253   2.723  0.1207  0.9986  1.0858
  433MOL0     H57097  11.046   5.475   2.624  2.5479 -1.4616  0.5764
  433MOL0     H57098  10.888   5.434   2.722 -1.8530 -2.6255 -1.0999
  433MOL0     H57099  11.021   5.251   2.525  1.0991 -1.3321  2.2201
  433MOL0     H57100  10.887   5.223   2.633 -0.0835 -0.5152  0.2473
  433MOL0     H57101  10.830   5.290   2.380  0.0665  0.1231  0.2796
  433MOL0     H57102  10.888   5.455   2.422  2.3684 -1.6449 -3.4982
  433MOL0     H57103  10.682   5.430   2.611  2.5839 -1.1919  1.8921
  433MOL0     H57104  10.654   5.266   2.524  1.0322  0.2430  0.2409
  433MOL0     H57105  10.655   5.518   2.365 -0.0487 -1.0666 -2.3248
  433MOL0     H57106  10.582   5.363   2.343 -1.8144  0.8636  1.1753
  433MOL0     H57107  10.411   5.405   2.513  0.3336 -0.3654  0.8261
  433MOL0     H57108  10.398   5.541   2.414  1.4850  2.9663 -1.0411
  433MOL0     H57109  10.591   5.754   2.501  1.8886 -1.7683  0.6797
  433MOL0     H57110  10.646   5.951   2.683 -1.0737  2.8147  2.7552
  433MOL0     H57111  10.637   5.909   2.848  2.0453  3.2724 -1.8317
  433MOL0     H57112  10.514   6.093   2.826  4.4464 -0.5530 -2.3124
  433MOL0     H57113  10.390   5.974   2.824 -0.1112 -0.7101  0.4452
  433MOL0     H57114  10.520   6.130   2.598  1.7604  0.8814  4.7015
  433MOL0     H57115  10.426   5.980   2.559  0.4155 -0.5053  1.6462
  433MOL0     H57116  10.221   6.074   2.661 -1.0908  0.2266  0.9902
  433MOL0     H57117  10.277   6.183   2.543 -2.2215  0.2473  1.4549
  433MOL0     H57118  10.338   6.411   2.921  1.5646  0.7769 -4.4607
  433MOL0     H57119  10.177   6.561   3.004  0.2732 -1.7184  1.5427
  433MOL0     H57120   9.550   6.457   3.013 -0.9848 -0.3688  0.5326
  433MOL0     H57121   9.356   6.587   3.123  2.3240 -2.9599 -0.3618
  433MOL0     H57122   9.223   6.763   3.224 -2.7182 -1.5933 -0.8360
  433MOL0     H57123   9.176   6.738   3.057 -1.0229 -0.8386 -0.3980
  433MOL0     H57124   9.158   7.015   3.213 -0.0354 -1.2481  1.1062
  433MOL0     H57125   9.024   6.915   3.152  0.2206  2.2130  0.2602
  433MOL0     H57126   9.141   6.923   2.916  2.5787  1.3412 -1.2699
  433MOL0     H57127   9.231   7.064   2.978 -2.5063  3.5001 -1.8282
  433MOL0     H57128   9.036   7.112   2.847 -0.9918 -1.1844  0.1711
  433MOL0     H57129   8.940   7.038   2.977 -1.3618  3.2467  3.5442
  433MOL0     H57130   8.985   7.195   3.137  0.6046 -0.7450 -0.0480
  433MOL0     H57131   8.942   7.283   2.986 -0.3854  0.9839  1.2529
  433MOL0     H57132   9.190   7.325   2.951  0.5335 -1.4826  0.2371
  433MOL0     H57133   9.234   7.226   3.090  0.4363 -0.7243  0.8120
  433MOL0     H57134   9.061   7.471   3.120  0.6346 -0.2287  1.2697
  433MOL0     H57135   9.116   7.360   3.253  2.2386 -2.5077  0.5625
  433MOL0     H57136   9.350   7.407   3.191 -0.2041 -0.9670 -0.9005
  433MOL0     H57137   9.266   7.543   3.263 -1.2182  1.7650 -0.5114
  433MOL0     H57138   9.571   6.947   3.015 -0.8894 -0.5294 -2.1875
  433MOL0     H57139   9.746   6.803   2.904  0.9638  1.6331  2.6957
  433MOL0     H57140   9.878   6.386   2.730  0.6676 -2.4320 -0.6379
  433MOL0     H57141  10.064   6.233   2.651  2.0570  1.0891 -2.8379
  433MOL0     H57142  11.270   5.709   2.679  3.6115 -1.1129 -2.4401
  433MOL0     H57143  11.416   5.893   2.751 -1.6097  0.0193 -2.0444
  433MOL0     H57144  11.391   6.280   3.081  0.1604  0.1510 -2.1586
  433MOL0     H57145  11.523   6.461   3.130 -1.4152 -0.1828  2.8657
  433MOL0     H57146  11.881   6.330   3.381  0.9238  0.7535  0.9929
  433MOL0     H57147  11.902   6.503   3.402  0.2929  0.5496  0.1603
  433MOL0     H57148  11.996   6.334   3.168 -3.6895 -0.6416  0.9657
  433MOL0     H57149  11.990   6.510   3.149  0.7512 -1.3345 -1.8552
  433MOL0     H57150  12.178   6.365   3.339  0.5302  0.7553  1.8394
  433MOL0     H57151  12.122   6.535   3.378  3.1206 -0.1137 -0.1905
  433MOL0     H57152  12.198   6.481   3.094  2.7597  0.0946 -1.6155
  433MOL0     H57153  12.207   6.626   3.198  2.6266 -0.2585  3.3612
  433MOL0     H57154  12.576   6.447   3.263 -0.1321 -1.1144  1.9009
  433MOL0     H57155  11.859   6.200   3.205 -0.9547 -0.4339  0.9530
  433MOL0     H57156  11.746   6.038   3.078  1.7118  1.8348 -3.7179
  434MOL0     O57157   6.599   9.658   3.909  0.5671  0.0864 -0.9367
  434MOL0     C57158   6.537   9.581   3.836  0.0555 -0.0766  1.3518
  434MOL0     O57159   6.591   9.502   3.733  1.1026  0.0780  0.7721
  434MOL0     C57160   6.730   9.497   3.706  0.4008 -0.4451 -1.1052
  434MOL0     C57161   6.838   9.548   3.783  0.0776 -0.7477  0.2545
  434MOL0     C57162   6.967   9.527   3.751 -0.2438  0.4696 -0.4501
  434MOL0     C57163   7.004   9.472   3.632 -0.1599 -0.4615 -1.0054
  434MOL0     O57164   7.140   9.465   3.614  0.3073 -0.0184 -0.5623
  434MOL0     C57165   7.189   9.428   3.475  0.1899  0.1459 -1.0066
  434MOL0     C57166   7.338   9.414   3.475 -0.2433 -0.2569 -0.0567
  434MOL0     C57167   7.408   9.504   3.377 -0.1736 -0.1005 -0.3658
  434MOL0     C57168   7.424   9.641   3.436  0.3633 -1.2306  0.6657
  434MOL0     C57169   7.453   9.746   3.325  0.4302  0.8766  0.4159
  434MOL0     C57170   7.486   9.891   3.381 -0.5767  0.0684  0.0024
  434MOL0     C57171   7.583   9.961   3.286 -0.3540 -0.6598  0.0150
  434MOL0     C57172   7.529   9.999   3.143  0.3253 -0.2551  0.4731
  434MOL0     N57173   7.407  10.075   3.139  0.4010  0.1156 -0.2275
  434MOL0     C57174   7.393  10.172   3.239  0.1197  0.1589 -0.0975
  434MOL0     C57175   7.287  10.243   3.202  0.5430 -0.3346 -0.1422
  434MOL0     C57176   7.232  10.366   3.271  0.0556  0.0914  0.2202
  434MOL0     C57177   7.309  10.495   3.220 -0.0577 -0.4091 -0.7987
  434MOL0     C57178   7.227  10.571   3.107  0.0006 -0.0202  0.4311
  434MOL0     C57179   7.302  10.685   3.035  0.5811 -0.3130  0.3617
  434MOL0     O57180   7.318  10.788   3.134  0.3367  0.2991 -0.2490
  434MOL0     C57181   7.421  10.882   3.105  0.1303 -0.2901  0.8218
  434MOL0     C57182   7.509  10.878   2.990  0.9946  0.3607  0.1786
  434MOL0     C57183   7.587  10.985   2.958  0.7158 -0.0080  0.8036
  434MOL0     C57184   7.611  11.089   3.054 -0.2931  0.1608  0.6322
  434MOL0     C57185   7.699  11.201   3.026 -0.0379 -0.0912  0.3007
  434MOL0     O57186   7.681  11.314   3.119  0.3631  0.1660  0.4354
  434MOL0     C57187   7.767  11.412   3.132  0.2863 -0.0010  0.4320
  434MOL0     C57188   7.729  11.536   3.190 -1.0161  0.0936 -1.1371
  434MOL0     C57189   7.829  11.642   3.208 -0.3618  0.6693  0.5698
  434MOL0     C57190   7.959  11.615   3.178 -0.5065  0.5971  0.2791
  434MOL0     O57191   8.061  11.713   3.186 -0.1067 -0.0472  0.2649
  434MOL0     C57192   8.184  11.682   3.112 -0.2464  0.1596 -0.1592
  434MOL0     C57193   8.260  11.815   3.104  0.2903  0.1723  0.9117
  434MOL0     C57194   8.345  11.813   2.972 -0.0804  0.6934 -0.5376
  434MOL0     C57195   8.465  11.702   2.990  0.5887  0.0341  0.7016
  434MOL0     C57196   8.583  11.726   2.903  0.1743 -0.2773 -0.4473
  434MOL0     C57197   8.694  11.796   2.976 -0.2363  0.7866  0.6608
  434MOL0     C57198   8.812  11.823   2.867  0.3864 -0.2596 -0.0783
  434MOL0     C57199   8.956  11.819   2.915 -0.9077 -0.1395  0.4251
  434MOL0    Cl57200   9.019  11.653   2.899  0.5413  0.1872 -0.1805
  434MOL0     C57201   7.994  11.488   3.129 -0.5805 -0.8831 -0.2656
  434MOL0     C57202   7.904  11.393   3.101  0.1238 -0.6440 -0.4808
  434MOL0     O57203   7.789  11.201   2.937 -0.0759  0.3890 -0.6577
  434MOL0     C57204   7.538  11.076   3.176  0.2774  0.7489 -0.1143
  434MOL0     C57205   7.439  10.977   3.201  0.6534 -0.1573 -0.2486
  434MOL0     N57206   7.243  10.194   3.079 -0.4567 -1.1052 -0.6729
  434MOL0     N57207   7.308  10.095   3.046  0.1126  0.1348  0.0790
  434MOL0     C57208   6.897   9.424   3.545  0.2536  0.1496  0.2202
  434MOL0     C57209   6.765   9.428   3.585  0.0308 -0.3231 -0.1568
  434MOL0     C57210   6.391   9.558   3.864  0.4253 -0.5092 -0.0180
  434MOL0     C57211   6.312   9.646   3.942  0.0822 -0.8939  0.7592
  434MOL0     C57212   6.170   9.638   3.938  0.1047 -0.3696  0.0883
  434MOL0     C57213   6.105   9.544   3.863  0.5414 -0.1128  0.3405
  434MOL0     O57214   5.967   9.549   3.859  0.9223  0.5750 -0.4309
  434MOL0     C57215   5.889   9.439   3.800 -0.0189 -0.8156 -1.8038
  434MOL0     C57216   5.743   9.493   3.804 -0.8311  0.3660 -0.2974
  434MOL0     C57217   5.689   9.466   3.946 -0.8100 -0.5598  0.5397
  434MOL0     C57218   5.542   9.489   3.957 -0.1792  0.0643 -0.4025
  434MOL0     C57219   5.511   9.624   3.916 -0.6771  0.6840  0.4944
  434MOL0     C57220   5.463   9.720   3.868 -0.5786  0.0102 -0.4613
  434MOL0     C57221   6.174   9.447   3.799 -0.1806  0.1474 -0.3316
  434MOL0     C57222   6.312   9.456   3.792  0.8378  0.3051 -0.6083
  434MOL0     H57223   6.813   9.581   3.884 -2.7506  0.8486 -0.8419
  434MOL0     H57224   7.045   9.563   3.816  0.7139 -1.0668 -0.7103
  434MOL0     H57225   7.157   9.511   3.411  0.8137 -1.4571 -3.5119
  434MOL0     H57226   7.141   9.337   3.438 -2.3095  1.1546 -0.4848
  434MOL0     H57227   7.367   9.314   3.440  1.7589  0.3457 -0.2120
  434MOL0     H57228   7.374   9.417   3.578  1.2411  1.3561 -0.5775
  434MOL0     H57229   7.352   9.506   3.283 -2.4264  0.1054  0.9121
  434MOL0     H57230   7.508   9.468   3.350 -0.8412 -1.0552 -1.6685
  434MOL0     H57231   7.329   9.655   3.487  0.9256 -1.0854  1.7015
  434MOL0     H57232   7.503   9.646   3.512  0.6939 -0.5220  0.2994
  434MOL0     H57233   7.365   9.743   3.259  1.0211 -0.0761 -0.3625
  434MOL0     H57234   7.533   9.721   3.255  1.3481 -0.6303  1.9475
  434MOL0     H57235   7.542   9.880   3.475 -0.9400 -3.4834 -0.0662
  434MOL0     H57236   7.398   9.953   3.402  0.1642  1.9056 -1.9657
  434MOL0     H57237   7.631  10.051   3.324 -2.5418  1.6909 -2.3524
  434MOL0     H57238   7.671   9.900   3.267  1.6377  1.3700  2.1036
  434MOL0     H57239   7.511   9.902   3.095  4.7421 -0.1471 -1.9475
  434MOL0     H57240   7.606  10.048   3.084 -0.6224 -2.0279 -2.4664
  434MOL0     H57241   7.462  10.204   3.317  3.9578 -0.5182 -2.9008
  434MOL0     H57242   7.242  10.358   3.380  0.3294 -0.3950  0.1635
  434MOL0     H57243   7.128  10.354   3.239  0.3076 -0.8551 -0.2921
  434MOL0     H57244   7.407  10.461   3.187 -0.1214 -1.6621  0.2305
  434MOL0     H57245   7.324  10.566   3.302  0.3287 -1.9525  0.4926
  434MOL0     H57246   7.198  10.497   3.033  1.1390  0.2320 -0.2938
  434MOL0     H57247   7.134  10.604   3.154 -0.4418 -1.1236  0.3544
  434MOL0     H57248   7.245  10.724   2.951  0.4452 -0.6664  0.2876
  434MOL0     H57249   7.389  10.635   2.992 -0.5686 -1.0533 -1.1863
  434MOL0     H57250   7.499  10.807   2.909  1.1347  0.7216 -0.1591
  434MOL0     H57251   7.646  10.985   2.867 -2.6851  0.1568 -1.6182
  434MOL0     H57252   7.623  11.552   3.209 -0.9099 -0.5166  0.1149
  434MOL0     H57253   7.796  11.731   3.261 -1.0180  1.0261 -0.4097
  434MOL0     H57254   8.152  11.645   3.014 -2.6474 -0.7492  0.8780
  434MOL0     H57255   8.238  11.606   3.170  0.9768  0.7811 -0.4426
  434MOL0     H57256   8.314  11.831   3.198  0.5937  0.7936  0.6391
  434MOL0     H57257   8.184  11.894   3.097  1.5122  1.2683 -0.4993
  434MOL0     H57258   8.394  11.910   2.955  0.2550  0.6340  0.0609
  434MOL0     H57259   8.274  11.788   2.893  0.4293 -0.4788 -0.6310
  434MOL0     H57260   8.498  11.688   3.093  1.7284  0.1463  0.3723
  434MOL0     H57261   8.424  11.603   2.968  2.4217 -0.3090 -1.6194
  434MOL0     H57262   8.559  11.789   2.816  1.4221  1.9530  0.7152
  434MOL0     H57263   8.617  11.627   2.874 -0.2600 -0.8657  1.0027
  434MOL0     H57264   8.727  11.718   3.045 -2.9761 -2.0261 -0.9001
  434MOL0     H57265   8.671  11.890   3.027  0.6218  0.3934  1.8003
  434MOL0     H57266   8.781  11.759   2.785 -0.6092 -0.6022  0.5468
  434MOL0     H57267   8.805  11.927   2.833  1.6828 -0.4283 -0.9483
  434MOL0     H57268   8.968  11.862   3.015 -0.2767 -0.5554  0.5373
  434MOL0     H57269   9.018  11.873   2.843  0.6203 -3.3494 -0.8768
  434MOL0     H57270   8.095  11.451   3.115  0.3587  0.6912  1.7316
  434MOL0     H57271   7.935  11.294   3.071 -2.5694 -1.5291 -0.5269
  434MOL0     H57272   7.538  11.163   3.241 -1.8846  2.2148 -1.9233
  434MOL0     H57273   7.364  11.001   3.276 -0.6514  1.8973 -2.0650
  434MOL0     H57274   6.920   9.388   3.446 -1.7866 -0.0379 -0.2280
  434MOL0     H57275   6.687   9.390   3.520 -0.1240 -0.1478 -0.0730
  434MOL0     H57276   6.350   9.734   3.995 -2.7270 -0.2219  1.8144
  434MOL0     H57277   6.111   9.710   3.992  0.9677  2.3440 -2.3378
  434MOL0     H57278   5.903   9.348   3.859  0.1903 -0.7083 -1.6871
  434MOL0     H57279   5.925   9.426   3.697  0.5582  0.2625 -1.7517
  434MOL0     H57280   5.739   9.601   3.785  1.1704  0.4117 -0.6283
  434MOL0     H57281   5.689   9.436   3.727  0.5873  1.9544 -2.5967
  434MOL0     H57282   5.741   9.528   4.019  0.1376  0.1141 -0.6619
  434MOL0     H57283   5.698   9.359   3.968 -0.1880 -0.9498 -1.4105
  434MOL0     H57284   5.491   9.419   3.890 -0.0155 -3.0095  2.4152
  434MOL0     H57285   5.499   9.471   4.057  1.4877  2.9170  0.9612
  434MOL0     H57286   5.401   9.802   3.836 -0.5930  0.5499  0.9063
  434MOL0     H57287   6.136   9.366   3.739  1.5541 -0.0447 -1.2296
  434MOL0     H57288   6.369   9.381   3.738 -1.6135 -1.5664 -0.7633
  435MOL0     O57289   9.314   5.399   1.152  0.0889  0.3601 -0.6423
  435MOL0     C57290   9.349   5.389   1.274  0.0714  0.8715 -0.0018
  435MOL0     O57291   9.268   5.332   1.375 -0.1567  0.0561 -0.6285
  435MOL0     C57292   9.155   5.259   1.333 -1.1075  0.5025  0.6129
  435MOL0     C57293   9.158   5.150   1.243 -0.0825  1.3215 -0.5975
  435MOL0     C57294   9.041   5.060   1.235  0.4934  0.1781  0.2429
  435MOL0     C57295   8.926   5.101   1.292  1.0625 -0.6824 -0.0606
  435MOL0     O57296   8.809   5.030   1.279  0.5021  0.3345 -0.5322
  435MOL0     C57297   8.797   4.943   1.166  0.2220 -1.1772  0.7195
  435MOL0     C57298   8.651   4.885   1.161 -0.4111  0.2260 -0.4792
  435MOL0     C57299   8.661   4.775   1.049  0.5387 -0.4719  0.5324
  435MOL0     C57300   8.531   4.691   1.038 -0.2740  0.2631 -0.1036
  435MOL0     C57301   8.536   4.575   0.933 -0.1702  0.2636  0.2878
  435MOL0     C57302   8.417   4.472   0.952 -0.0908 -0.3753 -0.4782
  435MOL0     C57303   8.292   4.515   1.027  0.2335 -0.6060  0.5312
  435MOL0     C57304   8.185   4.404   1.031 -0.5782  0.2966 -0.3495
  435MOL0     N57305   8.134   4.373   0.893 -0.6124 -0.1023 -0.2891
  435MOL0     C57306   8.011   4.407   0.838 -0.1399 -0.8152 -0.3191
  435MOL0     C57307   7.998   4.324   0.747 -0.2786  0.0985  0.4583
  435MOL0     C57308   7.882   4.309   0.651  0.0905 -0.8281 -0.1423
  435MOL0     C57309   7.751   4.368   0.716 -0.9627  0.2891  0.2167
  435MOL0     C57310   7.648   4.390   0.610  0.8475  0.4594  0.3181
  435MOL0     C57311   7.523   4.439   0.677  1.1796 -0.5182  0.2364
  435MOL0     O57312   7.472   4.548   0.596 -0.3884 -0.2502  0.3673
  435MOL0     C57313   7.354   4.607   0.617 -0.3281 -0.0252  0.3350
  435MOL0     C57314   7.262   4.562   0.714  0.1165  0.7694 -0.3924
  435MOL0     C57315   7.160   4.645   0.757 -0.2400  0.0785 -0.2687
  435MOL0     C57316   7.131   4.760   0.676  0.5134  0.1193 -0.6385
  435MOL0     C57317   7.019   4.851   0.717  0.2226 -0.1937 -0.4933
  435MOL0     O57318   6.979   4.950   0.635  0.0256  0.5202 -0.2457
  435MOL0     C57319   6.853   5.009   0.644  0.6803  0.3894  1.1421
  435MOL0     C57320   6.745   4.924   0.615 -0.1885 -0.7191  0.6528
  435MOL0     C57321   6.622   4.978   0.595  0.4759  0.4089 -0.4014
  435MOL0     C57322   6.595   5.114   0.613  0.3209  0.2643 -0.3049
  435MOL0     O57323   6.464   5.143   0.628  0.2833  0.2339  0.1220
  435MOL0     C57324   6.443   5.267   0.686  0.3344  0.2410 -0.4457
  435MOL0     C57325   6.297   5.275   0.739 -0.0009 -0.6488  0.0368
  435MOL0     C57326   6.201   5.312   0.619 -0.2775  0.7351 -0.5243
  435MOL0     C57327   6.045   5.296   0.660  1.0568 -0.7151 -0.1002
  435MOL0     C57328   5.958   5.364   0.560  0.2235 -0.9733 -0.0431
  435MOL0     C57329   5.810   5.378   0.615 -0.3311  0.5724 -0.4309
  435MOL0     C57330   5.803   5.503   0.694 -0.0006 -0.8035  0.0226
  435MOL0     C57331   5.675   5.517   0.779  0.6236 -0.4951 -0.0023
  435MOL0    Cl57332   5.677   5.411   0.919  0.1276 -0.5477 -0.0995
  435MOL0     C57333   6.699   5.199   0.657  0.0475  0.7008  0.1097
  435MOL0     C57334   6.832   5.148   0.660  0.3315  0.9845  0.8677
  435MOL0     O57335   6.953   4.811   0.812  0.0727  0.5245 -0.3249
  435MOL0     C57336   7.212   4.792   0.566 -0.0603  0.2654  0.6899
  435MOL0     C57337   7.328   4.715   0.538  0.8309 -0.2714 -0.4252
  435MOL0     N57338   8.097   4.227   0.745 -0.3905 -0.6757 -0.4939
  435MOL0     N57339   8.181   4.255   0.824 -0.2474 -0.4765 -0.5472
  435MOL0     C57340   8.919   5.219   1.370 -0.9227 -0.6247  0.5915
  435MOL0     C57341   9.035   5.298   1.393  0.1378  0.3716  0.0049
  435MOL0     C57342   9.489   5.426   1.314  0.2552  0.1598  0.7208
  435MOL0     C57343   9.560   5.511   1.227 -0.0845 -0.9713  0.6601
  435MOL0     C57344   9.680   5.570   1.272 -0.8453  0.0554 -0.3715
  435MOL0     C57345   9.744   5.523   1.392  0.7577  0.1602 -0.5805
  435MOL0     O57346   9.861   5.560   1.436  0.6229  0.1188 -0.5279
  435MOL0     C57347   9.962   5.587   1.343 -1.1310 -1.0891  0.2149
  435MOL0     C57348  10.092   5.594   1.419 -0.0613  0.3786 -0.5696
  435MOL0     C57349  10.142   5.734   1.468  1.2115  0.3260  0.0767
  435MOL0     C57350  10.257   5.715   1.567  0.4050 -0.0674  0.5715
  435MOL0     C57351  10.374   5.797   1.527  0.5047  0.6275  0.6702
  435MOL0     C57352  10.470   5.860   1.503  0.0184  0.5278  0.2673
  435MOL0     C57353   9.679   5.436   1.466  0.6800 -0.1412 -0.6178
  435MOL0     C57354   9.549   5.388   1.431  0.1119 -0.5511 -0.1909
  435MOL0     H57355   9.250   5.132   1.188  0.7653  0.3544  1.0340
  435MOL0     H57356   9.058   4.972   1.174  2.7554 -0.2315  1.3487
  435MOL0     H57357   8.862   4.859   1.189 -1.0364 -2.3537  0.1408
  435MOL0     H57358   8.820   4.979   1.065 -0.9144 -0.8462  0.5634
  435MOL0     H57359   8.583   4.969   1.149  1.0301  1.7139  1.1887
  435MOL0     H57360   8.615   4.847   1.257 -0.4757  0.2163 -0.5067
  435MOL0     H57361   8.744   4.707   1.072  1.6265  0.0900 -1.4323
  435MOL0     H57362   8.681   4.813   0.948  1.6496 -0.9854  0.5389
  435MOL0     H57363   8.520   4.647   1.138 -2.6950 -0.7885 -0.7546
  435MOL0     H57364   8.443   4.754   1.029 -0.8664 -0.5804 -0.3626
  435MOL0     H57365   8.627   4.514   0.941 -1.0793 -1.2207 -0.2270
  435MOL0     H57366   8.535   4.634   0.840 -3.5348  1.8954  1.2092
  435MOL0     H57367   8.460   4.384   1.001 -0.8124  0.0364  0.9395
  435MOL0     H57368   8.392   4.439   0.851  4.9408 -2.4091 -1.3384
  435MOL0     H57369   8.323   4.547   1.127  2.0129 -2.7964  0.7633
  435MOL0     H57370   8.238   4.596   0.977  2.7950 -0.9819 -3.2959
  435MOL0     H57371   8.106   4.426   1.103 -1.2376  0.2928 -1.0554
  435MOL0     H57372   8.230   4.311   1.069  1.6043  2.2664  2.2969
  435MOL0     H57373   7.954   4.496   0.866  3.4873  1.8044 -0.5993
  435MOL0     H57374   7.859   4.203   0.637  0.1106 -0.9293  0.5686
  435MOL0     H57375   7.905   4.353   0.553  0.7752 -0.8955 -0.0205
  435MOL0     H57376   7.778   4.459   0.769  0.8525  0.3531 -0.7283
  435MOL0     H57377   7.728   4.294   0.794  0.1007  0.6441  0.8880
  435MOL0     H57378   7.677   4.455   0.527 -0.9580  0.9960  0.0828
  435MOL0     H57379   7.622   4.290   0.574 -0.9047 -0.2436  3.2856
  435MOL0     H57380   7.547   4.473   0.779  1.5925  0.7556 -0.2704
  435MOL0     H57381   7.463   4.349   0.695  3.9600 -2.1682  2.0760
  435MOL0     H57382   7.265   4.471   0.773  0.4326  0.4538 -0.8936
  435MOL0     H57383   7.095   4.630   0.843 -1.1999  0.7881 -0.8529
  435MOL0     H57384   6.767   4.818   0.603  2.2483 -0.3725  1.5729
  435MOL0     H57385   6.540   4.913   0.567  2.4724 -3.4828  1.9896
  435MOL0     H57386   6.467   5.341   0.609  1.4700  1.6199  1.1488
  435MOL0     H57387   6.508   5.287   0.772  2.0053  0.8667 -1.7900
  435MOL0     H57388   6.292   5.354   0.814 -1.4947 -1.4077  0.7651
  435MOL0     H57389   6.264   5.181   0.782  1.1946 -1.9692 -1.7529
  435MOL0     H57390   6.226   5.263   0.524 -1.5977  1.0959 -1.0877
  435MOL0     H57391   6.211   5.418   0.595 -0.3005  0.5715 -1.2919
  435MOL0     H57392   6.015   5.193   0.683  1.6541 -0.2424  3.4714
  435MOL0     H57393   6.041   5.358   0.750 -1.8016 -0.0376 -0.6223
  435MOL0     H57394   5.947   5.300   0.471 -2.3001 -3.1722  1.7022
  435MOL0     H57395   6.006   5.452   0.517  0.9107 -2.5831 -2.8844
  435MOL0     H57396   5.805   5.295   0.686  1.1775 -0.4441 -1.4425
  435MOL0     H57397   5.733   5.369   0.538 -1.5550 -1.2330  0.9269
  435MOL0     H57398   5.893   5.514   0.756  0.0177 -0.3855 -0.0811
  435MOL0     H57399   5.808   5.586   0.623 -0.6333 -2.0400 -1.5418
  435MOL0     H57400   5.595   5.486   0.711  0.1325  2.2241 -0.7478
  435MOL0     H57401   5.666   5.621   0.809  1.4435 -0.6118  0.6843
  435MOL0     H57402   6.690   5.306   0.671 -1.6001  1.0812 -2.9691
  435MOL0     H57403   6.921   5.208   0.675  0.8949  0.3045  0.3364
  435MOL0     H57404   7.176   4.872   0.503  2.5810  1.1206  0.1379
  435MOL0     H57405   7.403   4.727   0.461 -0.2920 -0.4090 -1.5836
  435MOL0     H57406   8.835   5.259   1.426  0.9221  0.6507  2.5501
  435MOL0     H57407   9.043   5.381   1.462  2.7341  0.9836 -0.9203
  435MOL0     H57408   9.524   5.534   1.127  1.4691  0.6689  0.4065
  435MOL0     H57409   9.735   5.630   1.200  1.0725 -0.1324  0.8820
  435MOL0     H57410   9.965   5.678   1.282  0.3602  1.0408  3.2257
  435MOL0     H57411   9.972   5.509   1.267 -1.4148 -0.1844 -0.7894
  435MOL0     H57412  10.078   5.521   1.499 -0.3069  1.5619  0.5186
  435MOL0     H57413  10.173   5.551   1.360  0.6826  1.6438 -0.5247
  435MOL0     H57414  10.054   5.784   1.509 -0.0867 -1.2173 -0.7225
  435MOL0     H57415  10.177   5.773   1.372 -1.1873 -1.8217 -1.8089
  435MOL0     H57416  10.224   5.735   1.670 -1.5782  0.2802 -0.0962
  435MOL0     H57417  10.297   5.614   1.553 -0.4944 -0.0092 -3.8169
  435MOL0     H57418  10.535   5.931   1.456 -2.7355  2.0190 -1.5468
  435MOL0     H57419   9.724   5.407   1.560  1.9058 -0.7336 -1.3539
  435MOL0     H57420   9.507   5.330   1.513 -0.5794  2.8322  2.0611
  436MOL0     O57421   7.732   2.213  11.161 -0.1044 -0.1227 -0.2621
  436MOL0     C57422   7.803   2.147  11.240  0.5496 -0.6738  0.1881
  436MOL0     O57423   7.778   2.115  11.370  0.7308  0.7774 -1.0907
  436MOL0     C57424   7.653   2.146  11.422 -0.1343 -0.3547 -0.3116
  436MOL0     C57425   7.615   2.279  11.456  0.2891 -0.1106  0.3140
  436MOL0     C57426   7.486   2.304  11.520 -0.0303 -0.0821  0.5470
  436MOL0     C57427   7.397   2.196  11.552  0.1288  0.6692  0.1041
  436MOL0     O57428   7.286   2.243  11.609 -0.1998 -0.3608  0.0486
  436MOL0     C57429   7.172   2.161  11.577  0.8627  0.1026  0.1263
  436MOL0     C57430   7.041   2.224  11.615 -0.3272 -0.1966  0.0903
  436MOL0     C57431   6.991   2.329  11.504  1.0942  0.5824 -1.1418
  436MOL0     C57432   6.842   2.338  11.528  0.5298  0.9153 -0.1498
  436MOL0     C57433   6.768   2.440  11.431 -0.4089  0.9111 -0.8246
  436MOL0     C57434   6.631   2.479  11.505  0.5785  0.1971 -0.0293
  436MOL0     C57435   6.544   2.582  11.433 -0.0236 -0.3433 -0.0326
  436MOL0     C57436   6.406   2.617  11.495  0.4468  0.2508 -0.6360
  436MOL0     N57437   6.314   2.519  11.444 -0.3235 -0.3237 -0.2609
  436MOL0     C57438   6.234   2.519  11.331  0.2367  0.3781 -0.4463
  436MOL0     C57439   6.169   2.399  11.333 -0.8687 -0.0085  0.1574
  436MOL0     C57440   6.064   2.347  11.235  0.5765 -0.8001 -0.5371
  436MOL0     C57441   5.931   2.398  11.291  0.2240  0.4247 -0.0473
  436MOL0     C57442   5.919   2.544  11.302  0.3290  0.0890 -0.6716
  436MOL0     C57443   5.778   2.589  11.326 -0.2767 -0.0456 -0.0009
  436MOL0     O57444   5.703   2.625  11.204 -0.0202 -0.5480 -0.3364
  436MOL0     C57445   5.574   2.672  11.232  0.7223 -0.4780 -0.4287
  436MOL0     C57446   5.493   2.639  11.348  0.0947 -0.1502 -0.0920
  436MOL0     C57447   5.361   2.679  11.351 -0.3435  0.9369 -0.4125
  436MOL0     C57448   5.295   2.741  11.240  0.8264 -0.1527 -0.6586
  436MOL0     C57449   5.160   2.797  11.258 -0.1652 -0.2624 -0.0876
  436MOL0     O57450   5.114   2.869  11.145  0.2596 -0.1791 -0.6375
  436MOL0     C57451   4.989   2.928  11.143  0.4101 -0.0423  0.0240
  436MOL0     C57452   4.871   2.873  11.205  0.1451  0.4401  0.1831
  436MOL0     C57453   4.743   2.935  11.185 -0.5401  0.3093 -0.6066
  436MOL0     C57454   4.737   3.051  11.102 -0.0979  0.7135 -0.1986
  436MOL0     O57455   4.623   3.110  11.074  0.8124 -0.2600 -0.2547
  436MOL0     C57456   4.612   3.247  11.031 -1.1697  1.1694  0.7651
  436MOL0     C57457   4.466   3.278  10.999 -0.6728 -0.8421  0.0680
  436MOL0     C57458   4.455   3.430  10.995  0.1582  0.5493 -0.2553
  436MOL0     C57459   4.315   3.495  10.997 -0.3908 -0.1342  0.2873
  436MOL0     C57460   4.308   3.654  10.993 -0.2247 -0.6375 -0.4274
  436MOL0     C57461   4.157   3.685  10.982  0.7078 -0.2167  0.3945
  436MOL0     C57462   4.128   3.836  10.975 -1.4711  0.1708  0.8992
  436MOL0     C57463   3.977   3.860  10.968 -0.1129  0.5770  0.0994
  436MOL0    Cl57464   3.940   3.844  10.786 -0.1890 -0.1318 -0.0934
  436MOL0     C57465   4.855   3.095  11.048 -0.7634  0.3194  0.5077
  436MOL0     C57466   4.979   3.039  11.064 -0.0643  0.2616 -0.7273
  436MOL0     O57467   5.109   2.780  11.361 -0.2928  0.0146  0.1208
  436MOL0     C57468   5.377   2.783  11.133  0.0919  0.0416 -0.3556
  436MOL0     C57469   5.510   2.735  11.129 -0.1232 -0.3349  0.9660
  436MOL0     N57470   6.202   2.324  11.444  0.8408 -0.0713 -0.4924
  436MOL0     N57471   6.281   2.408  11.516 -1.0955  0.4295 -0.0756
  436MOL0     C57472   7.437   2.066  11.519 -0.2316  0.5361 -0.1141
  436MOL0     C57473   7.565   2.044  11.455 -0.2830 -0.3784 -0.1564
  436MOL0     C57474   7.915   2.104  11.165 -0.8572  0.6239  0.2677
  436MOL0     C57475   7.963   2.176  11.052  0.8242  0.3208 -0.2120
  436MOL0     C57476   8.090   2.143  11.003 -0.4650  0.0516  0.2730
  436MOL0     C57477   8.154   2.028  11.040 -0.9141 -0.8512  0.3356
  436MOL0     O57478   8.270   1.991  10.975 -0.3859 -0.2351 -0.2699
  436MOL0     C57479   8.263   1.895  10.871 -0.6925  0.5187  0.0790
  436MOL0     C57480   8.412   1.873  10.839 -0.6623  0.2035  0.6289
  436MOL0     C57481   8.477   1.773  10.935 -0.2316 -0.3358  0.8414
  436MOL0     C57482   8.583   1.681  10.873 -0.0417 -0.1453 -0.6400
  436MOL0     C57483   8.647   1.589  10.968 -0.0432  0.5855  0.4115
  436MOL0     C57484   8.703   1.510  11.048  0.0503  0.5668 -0.9596
  436MOL0     C57485   8.108   1.954  11.146  0.4562  0.0718 -0.4417
  436MOL0     C57486   7.998   2.002  11.214  0.0223 -0.0640 -0.3358
  436MOL0     H57487   7.682   2.363  11.440 -0.9142  0.7671 -0.2736
  436MOL0     H57488   7.467   2.409  11.543  1.3898  0.4498 -0.5150
  436MOL0     H57489   7.188   2.068  11.632 -0.7756 -0.6627 -0.6234
  436MOL0     H57490   7.172   2.132  11.471 -0.0963 -1.2576  0.4739
  436MOL0     H57491   7.043   2.276  11.711 -1.3810  2.8823 -1.4045
  436MOL0     H57492   6.975   2.137  11.609  2.0955 -2.0630 -1.3628
  436MOL0     H57493   7.010   2.291  11.403 -0.9121  1.0832 -1.7450
  436MOL0     H57494   7.042   2.424  11.516  1.6416  0.3621 -1.6459
  436MOL0     H57495   6.800   2.237  11.521  2.7512 -0.4817  3.7241
  436MOL0     H57496   6.820   2.362  11.632 -0.1956 -2.3240  0.5782
  436MOL0     H57497   6.748   2.394  11.334 -0.8602  1.6193 -1.0743
  436MOL0     H57498   6.842   2.520  11.419 -0.4980  0.7701 -2.4188
  436MOL0     H57499   6.650   2.525  11.602  0.3324 -1.5135  0.8704
  436MOL0     H57500   6.569   2.392  11.526  1.0149 -0.4883 -1.4641
  436MOL0     H57501   6.607   2.670  11.446 -2.2624  1.1893  0.9876
  436MOL0     H57502   6.525   2.556  11.328 -4.2738 -1.0602  0.7209
  436MOL0     H57503   6.372   2.719  11.477  3.2086  1.3828 -0.0813
  436MOL0     H57504   6.417   2.600  11.603 -3.8117 -1.9760 -0.3541
  436MOL0     H57505   6.224   2.589  11.248 -1.0359  2.1441  1.0884
  436MOL0     H57506   6.059   2.238  11.231 -1.4954 -0.7335 -0.7139
  436MOL0     H57507   6.083   2.391  11.137  1.4052  0.5550  0.2039
  436MOL0     H57508   5.893   2.355  11.384  1.0675  2.4266  1.2894
  436MOL0     H57509   5.863   2.363  11.212 -0.5918 -0.2803  0.9371
  436MOL0     H57510   5.965   2.564  11.400  0.1068  0.3991 -0.6272
  436MOL0     H57511   5.973   2.599  11.225  1.1031  0.0607 -0.1540
  436MOL0     H57512   5.767   2.672  11.397  1.2467 -2.2828  3.0924
  436MOL0     H57513   5.719   2.509  11.371 -5.3858  2.2674 -1.7882
  436MOL0     H57514   5.532   2.587  11.434  0.2258 -0.8354 -0.5584
  436MOL0     H57515   5.310   2.665  11.446  0.4136  3.7326  0.4817
  436MOL0     H57516   4.886   2.784  11.266  2.2847  0.8695  0.3624
  436MOL0     H57517   4.654   2.889  11.226 -1.0492  1.7845  0.0373
  436MOL0     H57518   4.671   3.267  10.942 -1.1354 -3.6710 -0.6112
  436MOL0     H57519   4.656   3.302  11.115  0.9946 -3.1836  2.8715
  436MOL0     H57520   4.408   3.255  11.089 -2.3914  0.7294 -0.5941
  436MOL0     H57521   4.432   3.223  10.911  0.1579 -0.1993 -0.6764
  436MOL0     H57522   4.509   3.458  10.904 -1.0327  0.4700 -1.0015
  436MOL0     H57523   4.509   3.465  11.084  2.0777 -1.8515 -0.3706
  436MOL0     H57524   4.264   3.460  10.907 -1.1591  2.3159 -0.3207
  436MOL0     H57525   4.260   3.451  11.080  0.1117 -0.1759  0.5977
  436MOL0     H57526   4.375   3.701  10.920 -1.9365  2.1646 -0.3350
  436MOL0     H57527   4.351   3.697  11.084 -2.0310  0.8953 -0.2354
  436MOL0     H57528   4.108   3.638  11.068 -0.7638 -0.9643 -0.7914
  436MOL0     H57529   4.118   3.645  10.888 -1.7874 -1.0373  1.6843
  436MOL0     H57530   4.161   3.883  11.068  1.6838 -0.3161  0.1403
  436MOL0     H57531   4.194   3.883  10.901 -1.0714 -0.1602  1.0401
  436MOL0     H57532   3.954   3.959  11.009  1.7927  1.1152 -0.0362
  436MOL0     H57533   3.921   3.775  11.008 -0.6005 -1.1614 -3.8356
  436MOL0     H57534   4.853   3.167  10.966 -0.0719 -0.7618 -0.4800
  436MOL0     H57535   5.070   3.087  11.027 -0.4904  0.8981 -0.9855
  436MOL0     H57536   5.332   2.835  11.049 -2.0227  0.2618  0.8555
  436MOL0     H57537   5.574   2.758  11.044 -0.9943 -1.8625 -0.1698
  436MOL0     H57538   7.380   1.974  11.533  0.6888  0.1281  1.1441
  436MOL0     H57539   7.590   1.943  11.425 -0.0379  0.1513 -1.8661
  436MOL0     H57540   7.903   2.255  11.007 -1.8950 -1.0044  0.8445
  436MOL0     H57541   8.134   2.204  10.925  2.5372 -2.6896 -0.4122
  436MOL0     H57542   8.214   1.933  10.782 -1.0528 -1.7479 -0.7730
  436MOL0     H57543   8.210   1.800  10.889 -0.2037 -0.4896 -3.1709
  436MOL0     H57544   8.413   1.837  10.736  0.2139  0.1677  0.6485
  436MOL0     H57545   8.470   1.965  10.829 -1.3444  0.4594 -1.5099
  436MOL0     H57546   8.402   1.715  10.990  0.4594 -0.6726  1.4328
  436MOL0     H57547   8.526   1.839  11.008  1.9782  0.7401 -1.4454
  436MOL0     H57548   8.526   1.619  10.802  1.3938 -4.0498  1.3250
  436MOL0     H57549   8.670   1.732  10.830  2.4338  1.0502  4.8551
  436MOL0     H57550   8.749   1.440  11.114  1.7842  0.6126 -2.0559
  436MOL0     H57551   8.170   1.870  11.174 -0.5746 -1.0529 -1.4570
  436MOL0     H57552   7.970   1.949  11.304 -0.9677 -0.1455 -0.6781
  437MOL0     O57553   7.995  11.046   8.090  0.6244  0.3040  1.2254
  437MOL0     C57554   7.982  11.150   8.148  0.3573  0.4653 -0.6027
  437MOL0     O57555   7.866  11.198   8.211 -0.5702 -0.2076  0.1909
  437MOL0     C57556   7.742  11.143   8.176 -0.6601  1.0073 -0.2722
  437MOL0     C57557   7.659  11.223   8.091  0.4238  0.2170  1.1598
  437MOL0     C57558   7.530  11.166   8.058 -0.1440  0.8191  0.5540
  437MOL0     C57559   7.490  11.043   8.117 -0.3556  0.6599  0.0609
  437MOL0     O57560   7.356  11.004   8.086 -0.1296 -0.3915  0.1483
  437MOL0     C57561   7.258  11.065   8.168  0.3652 -0.2730  1.6026
  437MOL0     C57562   7.116  11.023   8.122  0.1417  0.7061 -0.2977
  437MOL0     C57563   7.018  11.117   8.191 -0.1266  1.0508 -0.1955
  437MOL0     C57564   6.890  11.075   8.130  0.4497 -0.3999 -0.2340
  437MOL0     C57565   6.774  11.172   8.158  0.4745  0.0045  0.4987
  437MOL0     C57566   6.724  11.166   8.302  0.1348 -0.2251 -0.0977
  437MOL0     C57567   6.589  11.247   8.325 -1.2308 -0.8411  1.4322
  437MOL0     C57568   6.544  11.237   8.467  1.8268 -0.3859  0.6525
  437MOL0     N57569   6.444  11.340   8.503 -0.6165  0.2656  0.4377
  437MOL0     C57570   6.451  11.477   8.477 -0.2277  0.4001 -0.1038
  437MOL0     C57571   6.337  11.518   8.533 -0.0557 -0.6415 -0.0517
  437MOL0     C57572   6.290  11.666   8.536  0.7203  0.4743 -0.5996
  437MOL0     C57573   6.194  11.708   8.424  0.1578  0.0282  0.0880
  437MOL0     C57574   6.112  11.823   8.470  0.7998  0.4696 -0.2571
  437MOL0     C57575   5.995  11.837   8.373 -0.4686 -0.5178  0.4077
  437MOL0     O57576   5.906  11.939   8.413  0.1133 -0.2758  0.4638
  437MOL0     C57577   5.813  11.964   8.318  0.7870  0.4141 -0.7582
  437MOL0     C57578   5.743  11.874   8.244  0.7538  0.5878  0.2741
  437MOL0     C57579   5.635  11.927   8.169  0.9714  0.1966  0.5341
  437MOL0     C57580   5.603  12.065   8.161 -0.9854  0.1685 -0.2863
  437MOL0     C57581   5.496  12.116   8.066 -0.0437 -0.0999 -1.0216
  437MOL0     O57582   5.471  12.244   8.056  1.3479 -0.0772 -0.3842
  437MOL0     C57583   5.387  12.276   7.950 -1.1371  0.7537  0.3092
  437MOL0     C57584   5.255  12.281   7.970 -0.1463  0.0685 -0.4211
  437MOL0     C57585   5.174  12.320   7.871 -0.4504  0.4272  0.9129
  437MOL0     C57586   5.231  12.360   7.748  0.0091  0.3070  0.1244
  437MOL0     O57587   5.131  12.393   7.651  0.1845 -0.0689 -0.0999
  437MOL0     C57588   5.163  12.415   7.510  0.1351  0.4335 -0.0566
  437MOL0     C57589   5.030  12.453   7.437 -0.9031  0.0475 -0.2989
  437MOL0     C57590   4.917  12.361   7.430  0.4783  0.4776  0.2832
  437MOL0     C57591   4.798  12.429   7.367 -0.6460  0.3984 -1.0713
  437MOL0     C57592   4.674  12.339   7.384  0.4278 -0.7709 -0.0646
  437MOL0     C57593   4.551  12.402   7.317  0.4124  0.3304 -0.5082
  437MOL0     C57594   4.443  12.302   7.306  0.5380  0.4247 -0.1818
  437MOL0     C57595   4.337  12.337   7.194 -0.0790 -0.6017  0.3262
  437MOL0    Cl57596   4.220  12.208   7.188  0.2691  0.0339 -0.3710
  437MOL0     C57597   5.367  12.355   7.725 -0.3593 -0.1242  0.1005
  437MOL0     C57598   5.452  12.315   7.833  0.7377  0.0883 -0.9713
  437MOL0     O57599   5.417  12.031   8.016  0.1203 -1.3028  0.0500
  437MOL0     C57600   5.687  12.153   8.237  0.2944  0.0488 -0.2002
  437MOL0     C57601   5.791  12.105   8.317  0.5998 -0.2706  0.2077
  437MOL0     N57602   6.275  11.409   8.597 -0.5833 -0.0065  0.6331
  437MOL0     N57603   6.326  11.301   8.559 -0.4269  1.1193  0.2534
  437MOL0     C57604   7.576  10.972   8.201  0.1474  0.4903  1.4031
  437MOL0     C57605   7.703  11.023   8.230  0.5603  0.2838  0.6784
  437MOL0     C57606   8.099  11.238   8.157 -1.0748 -0.3226  0.7291
  437MOL0     C57607   8.114  11.329   8.265 -0.4744 -1.1175 -0.0738
  437MOL0     C57608   8.226  11.408   8.258  0.0445 -0.2746 -0.5838
  437MOL0     C57609   8.336  11.383   8.172 -0.0653 -0.8252  0.1983
  437MOL0     O57610   8.451  11.448   8.185 -0.7815 -0.9062  0.4576
  437MOL0     C57611   8.470  11.537   8.077 -0.5152  0.5132  0.7744
  437MOL0     C57612   8.583  11.487   7.986 -0.1008  0.9165  0.0989
  437MOL0     C57613   8.652  11.603   7.903 -0.4342  0.6892  0.8709
  437MOL0     C57614   8.559  11.672   7.812  0.0285 -0.5365  0.6448
  437MOL0     C57615   8.575  11.630   7.672 -0.6883  0.1218 -0.4230
  437MOL0     C57616   8.580  11.609   7.549  0.0089  0.5954 -0.4016
  437MOL0     C57617   8.329  11.272   8.088  0.2339 -0.3450  0.1538
  437MOL0     C57618   8.208  11.206   8.076  1.0833 -0.4471 -0.2243
  437MOL0     H57619   7.695  11.320   8.056  1.5510 -1.2411 -2.1128
  437MOL0     H57620   7.464  11.225   7.996 -0.5672  1.2889  1.4406
  437MOL0     H57621   7.252  11.174   8.157 -1.1654 -0.6039 -2.8808
  437MOL0     H57622   7.271  11.030   8.270  0.8627  0.1575  1.6898
  437MOL0     H57623   7.098  10.919   8.151  4.1045  0.2954  1.3821
  437MOL0     H57624   7.117  11.030   8.013  4.3221  2.4044 -0.3264
  437MOL0     H57625   7.042  11.221   8.165 -1.2088  1.3845  0.0786
  437MOL0     H57626   7.030  11.108   8.299  0.3550  3.4832  0.0280
  437MOL0     H57627   6.896  11.060   8.021 -1.4414 -0.3689 -0.3767
  437MOL0     H57628   6.861  10.977   8.169  0.8124 -1.0374 -1.4913
  437MOL0     H57629   6.691  11.152   8.090  1.8562  0.5594 -1.4090
  437MOL0     H57630   6.811  11.271   8.130 -0.5778 -0.3651 -2.5424
  437MOL0     H57631   6.797  11.214   8.368 -0.5347  1.1309 -0.3057
  437MOL0     H57632   6.713  11.059   8.323 -1.7267 -0.3277 -1.3449
  437MOL0     H57633   6.601  11.351   8.295  0.9572 -2.1293 -3.0842
  437MOL0     H57634   6.512  11.202   8.261 -2.7095 -0.4054  2.8209
  437MOL0     H57635   6.623  11.270   8.535  1.6887  2.0597 -0.2719
  437MOL0     H57636   6.508  11.138   8.496  2.2598 -0.1960  1.8991
  437MOL0     H57637   6.514  11.538   8.414 -0.0367  2.0088  1.5557
  437MOL0     H57638   6.383  11.720   8.553  1.9739 -2.2045  1.9158
  437MOL0     H57639   6.237  11.685   8.630 -0.7465 -2.6289 -0.6851
  437MOL0     H57640   6.131  11.631   8.379 -0.0359  1.7555 -2.8148
  437MOL0     H57641   6.251  11.746   8.339 -4.0601  3.2106 -1.6263
  437MOL0     H57642   6.063  11.791   8.563 -0.3401 -1.1571 -1.3626
  437MOL0     H57643   6.157  11.922   8.483  0.0994  0.6973  0.5304
  437MOL0     H57644   5.939  11.743   8.376 -0.1063 -0.7810 -0.8131
  437MOL0     H57645   6.036  11.857   8.274 -1.6350  2.0465  0.3711
  437MOL0     H57646   5.764  11.768   8.234 -1.1494  0.2983 -1.0291
  437MOL0     H57647   5.588  11.857   8.101  2.4178  0.2386 -0.5813
  437MOL0     H57648   5.211  12.266   8.068 -1.3429  0.0773 -0.9406
  437MOL0     H57649   5.067  12.331   7.878 -0.7897  0.2244 -2.4222
  437MOL0     H57650   5.194  12.321   7.465 -1.3972  0.4531 -1.2501
  437MOL0     H57651   5.237  12.495   7.502  1.0805 -0.4505 -0.2532
  437MOL0     H57652   5.060  12.469   7.333 -0.4926 -0.5366 -0.2710
  437MOL0     H57653   4.991  12.547   7.478 -0.1377  0.2923 -0.1173
  437MOL0     H57654   4.900  12.332   7.534  0.9087  5.3372  1.9582
  437MOL0     H57655   4.955  12.267   7.388 -1.0077 -0.6376  1.3497
  437MOL0     H57656   4.782  12.519   7.427 -2.2687  0.4492 -1.5504
  437MOL0     H57657   4.819  12.449   7.261  2.2661  1.5872 -0.3833
  437MOL0     H57658   4.651  12.326   7.490 -3.4842  2.0694 -0.3804
  437MOL0     H57659   4.705  12.243   7.341  0.9453 -1.0955  0.9839
  437MOL0     H57660   4.579  12.442   7.219 -0.2976 -2.8773 -2.1501
  437MOL0     H57661   4.514  12.481   7.384  1.0296 -0.1376  0.4127
  437MOL0     H57662   4.478  12.200   7.285 -2.9188 -0.7594 -0.8577
  437MOL0     H57663   4.391  12.294   7.403 -0.5426 -0.8627 -0.8304
  437MOL0     H57664   4.382  12.361   7.098 -2.9621  0.1425 -0.9446
  437MOL0     H57665   4.287  12.429   7.226  0.1664  0.6715 -2.6439
  437MOL0     H57666   5.400  12.377   7.624 -0.4199  0.3198  0.1756
  437MOL0     H57667   5.559  12.329   7.838  0.7606 -0.3284  2.6547
  437MOL0     H57668   5.669  12.260   8.236 -0.6795  0.0406  3.3144
  437MOL0     H57669   5.855  12.164   8.380  0.4854  2.2827 -1.9147
  437MOL0     H57670   7.551  10.877   8.248 -0.3311  1.4047  3.0598
  437MOL0     H57671   7.768  10.979   8.304 -0.2007  0.5953  1.5590
  437MOL0     H57672   8.046  11.354   8.347 -0.2500  0.8229 -0.4214
  437MOL0     H57673   8.236  11.489   8.329 -1.0763  1.2432 -2.0557
  437MOL0     H57674   8.486  11.635   8.122  1.1059  0.1096  1.1749
  437MOL0     H57675   8.383  11.546   8.012  1.0020  0.4112 -1.3741
  437MOL0     H57676   8.651  11.441   8.059 -0.7879 -0.7692 -0.2718
  437MOL0     H57677   8.558  11.404   7.920  1.6224  0.5689 -0.1463
  437MOL0     H57678   8.732  11.551   7.850 -0.6855  0.5504  0.6255
  437MOL0     H57679   8.700  11.670   7.976 -0.4413 -0.2780  1.7861
  437MOL0     H57680   8.457  11.642   7.837 -0.2996  0.8889  1.1129
  437MOL0     H57681   8.567  11.781   7.813 -1.3066 -0.3744 -0.9713
  437MOL0     H57682   8.584  11.595   7.443  0.9582 -4.6867  0.0617
  437MOL0     H57683   8.411  11.245   8.022 -1.8248 -1.8813 -1.9384
  437MOL0     H57684   8.222  11.111   8.026  2.0330 -1.1221  1.2770
  438MOL0     O57685   0.907   1.778   2.773  0.4366  0.2987  1.0379
  438MOL0     C57686   0.906   1.665   2.818  0.4599  0.0216 -0.0991
  438MOL0     O57687   0.812   1.565   2.794  1.0441  0.6559 -0.5588
  438MOL0     C57688   0.699   1.596   2.723 -0.4872 -0.5263  0.3554
  438MOL0     C57689   0.689   1.565   2.590  0.3119 -0.5321 -0.2268
  438MOL0     C57690   0.578   1.594   2.518 -0.1508 -0.4725 -1.8017
  438MOL0     C57691   0.470   1.657   2.581 -0.4969 -0.2809  0.4762
  438MOL0     O57692   0.371   1.708   2.500 -0.0757  0.0359 -0.5471
  438MOL0     C57693   0.387   1.852   2.477  0.0014  0.0865 -0.6684
  438MOL0     C57694   0.294   1.895   2.371  0.2052 -0.3207 -0.4550
  438MOL0     C57695   0.146   1.859   2.399  0.0330  0.7261  0.0470
  438MOL0     C57696   0.102   1.746   2.298 -1.1071 -0.6422 -0.1675
  438MOL0     C57697  -0.053   1.719   2.277  0.5073 -0.0000  0.5009
  438MOL0     C57698  -0.127   1.836   2.198 -0.3578  0.7845  0.6307
  438MOL0     C57699  -0.281   1.822   2.203 -0.5786 -0.3555  0.2529
  438MOL0     C57700  -0.354   1.932   2.120 -0.1183 -0.4496 -0.4056
  438MOL0     N57701  -0.492   1.922   2.143 -0.4584  0.0203 -0.4861
  438MOL0     C57702  -0.562   1.812   2.126  0.0507 -0.0184 -0.6324
  438MOL0     C57703  -0.693   1.856   2.106 -0.1706 -0.1453 -0.1879
  438MOL0     C57704  -0.814   1.780   2.052  0.1307 -0.3161 -0.4302
  438MOL0     C57705  -0.841   1.666   2.157 -1.5268  0.5571  0.8781
  438MOL0     C57706  -0.976   1.612   2.122 -0.2283 -0.0020  0.0687
  438MOL0     C57707  -1.010   1.514   2.239  0.8731 -0.1886 -0.0890
  438MOL0     O57708  -1.145   1.463   2.207  0.6312 -0.4829  0.5057
  438MOL0     C57709  -1.214   1.396   2.310 -0.1253  0.5857 -0.6900
  438MOL0     C57710  -1.152   1.320   2.417 -0.2267  0.4842 -0.1154
  438MOL0     C57711  -1.234   1.274   2.524  0.4607  0.0745 -0.2034
  438MOL0     C57712  -1.379   1.289   2.514 -0.7962 -0.1979 -0.0685
  438MOL0     C57713  -1.468   1.239   2.622 -0.4501 -1.1470  0.9554
  438MOL0     O57714  -1.600   1.270   2.605 -0.7950  0.7890 -0.7309
  438MOL0     C57715  -1.685   1.252   2.714 -0.7336  0.1240 -0.7641
  438MOL0     C57716  -1.791   1.166   2.697  0.6580 -0.4518  0.8631
  438MOL0     C57717  -1.885   1.146   2.801  0.8055  0.1042 -0.4398
  438MOL0     C57718  -1.861   1.204   2.925  0.0494 -0.4491 -0.1595
  438MOL0     O57719  -1.943   1.198   3.033 -0.2380  0.9377 -0.5078
  438MOL0     C57720  -2.074   1.139   3.023  0.5928  0.2623  0.5607
  438MOL0     C57721  -2.132   1.141   3.164  0.0532 -0.4467  0.1880
  438MOL0     C57722  -2.281   1.103   3.162  0.3223 -0.7927 -0.0650
  438MOL0     C57723  -2.340   1.143   3.297  0.8460 -0.8169  0.7100
  438MOL0     C57724  -2.481   1.101   3.318 -0.7482  0.1903  0.8730
  438MOL0     C57725  -2.497   0.951   3.344 -0.1927 -0.6741 -0.0634
  438MOL0     C57726  -2.645   0.904   3.316  0.4883  0.7847 -0.1385
  438MOL0     C57727  -2.743   0.984   3.405  0.8899 -0.3773  0.6272
  438MOL0    Cl57728  -2.847   0.887   3.513  0.0464  0.0487  0.0855
  438MOL0     C57729  -1.757   1.299   2.947 -0.1521  0.7998  0.3368
  438MOL0     C57730  -1.665   1.320   2.838 -1.2211 -0.5690  0.7608
  438MOL0     O57731  -1.426   1.177   2.722  0.0041  0.3450  0.8023
  438MOL0     C57732  -1.427   1.358   2.408 -0.3992 -0.0077  0.0454
  438MOL0     C57733  -1.349   1.400   2.301 -0.5994  0.1140  0.8417
  438MOL0     N57734  -0.692   1.989   2.139  0.1370  0.0394  0.7373
  438MOL0     N57735  -0.570   2.030   2.160  0.4885  0.3017  0.3826
  438MOL0     C57736   0.476   1.685   2.721  0.8395  1.3618  0.4867
  438MOL0     C57737   0.593   1.668   2.787 -0.3147 -0.1787  0.4074
  438MOL0     C57738   1.024   1.630   2.893  0.3443 -0.0523  0.2088
  438MOL0     C57739   1.139   1.716   2.902 -0.3594 -0.2759 -0.5325
  438MOL0     C57740   1.251   1.667   2.972  0.4695 -0.4869  0.5109
  438MOL0     C57741   1.249   1.551   3.046 -0.2485 -0.9557 -0.6608
  438MOL0     O57742   1.359   1.506   3.109  0.0744 -0.1471  0.1352
  438MOL0     C57743   1.471   1.461   3.025  0.4880  0.1855 -0.1660
  438MOL0     C57744   1.441   1.336   2.944  0.1823 -0.0974 -0.5643
  438MOL0     C57745   1.413   1.214   3.037  0.1563 -0.3088  0.5360
  438MOL0     C57746   1.371   1.087   2.969  0.1279 -0.5518 -0.4130
  438MOL0     C57747   1.285   0.997   3.048  0.2410  0.4342 -0.2436
  438MOL0     C57748   1.219   0.942   3.137 -1.0362  0.7878 -0.1533
  438MOL0     C57749   1.130   1.474   3.053  0.0745  0.4493 -0.0793
  438MOL0     C57750   1.027   1.510   2.968 -0.9572  0.0267 -1.0142
  438MOL0     H57751   0.765   1.522   2.526  1.2625  1.0373 -0.2314
  438MOL0     H57752   0.584   1.564   2.413  2.5514 -2.0265 -1.3098
  438MOL0     H57753   0.491   1.866   2.446  0.8705  0.5927  2.1518
  438MOL0     H57754   0.367   1.902   2.572  2.8257  0.0267  0.0539
  438MOL0     H57755   0.328   1.848   2.278 -1.5869 -3.2717  0.2621
  438MOL0     H57756   0.304   2.003   2.361  4.1738 -0.3965  0.9789
  438MOL0     H57757   0.083   1.947   2.384  0.4173  1.0592  0.3923
  438MOL0     H57758   0.134   1.810   2.497  3.2094 -2.5582 -0.9802
  438MOL0     H57759   0.134   1.780   2.199 -3.4476  3.0071  0.1189
  438MOL0     H57760   0.159   1.660   2.331  0.3144 -0.5472 -2.1817
  438MOL0     H57761  -0.103   1.702   2.372 -0.4251  2.2830  0.5025
  438MOL0     H57762  -0.069   1.638   2.205  1.7584  0.4662 -0.3234
  438MOL0     H57763  -0.102   1.836   2.091  0.6575 -3.7873  0.6431
  438MOL0     H57764  -0.100   1.927   2.251  0.1200  0.9690  0.0753
  438MOL0     H57765  -0.304   1.720   2.172 -3.4303 -0.2356  1.6905
  438MOL0     H57766  -0.304   1.834   2.309 -0.5598  3.0709 -0.0353
  438MOL0     H57767  -0.328   1.914   2.015 -0.5156 -1.6790 -0.3052
  438MOL0     H57768  -0.321   2.029   2.160  2.9889 -1.9708  1.1092
  438MOL0     H57769  -0.530   1.709   2.120  1.9095  0.4378  0.6419
  438MOL0     H57770  -0.789   1.740   1.953  1.5186  0.6887 -0.5074
  438MOL0     H57771  -0.902   1.844   2.058 -1.2009 -2.1855  1.4744
  438MOL0     H57772  -0.831   1.699   2.261  0.1415  2.2642  0.2448
  438MOL0     H57773  -0.764   1.593   2.133 -1.0871  0.3308  2.8158
  438MOL0     H57774  -1.053   1.688   2.109  0.0835  0.0266 -1.9323
  438MOL0     H57775  -0.986   1.562   2.025 -0.0259  2.5212 -1.3191
  438MOL0     H57776  -1.011   1.561   2.338  1.0500  0.1049 -0.2248
  438MOL0     H57777  -0.936   1.434   2.232  0.3901 -0.8313  1.5666
  438MOL0     H57778  -1.044   1.310   2.414 -0.3507 -0.7387 -1.1599
  438MOL0     H57779  -1.184   1.234   2.612  0.5769 -0.2031 -0.3941
  438MOL0     H57780  -1.792   1.110   2.604 -0.0470 -4.0110  2.8060
  438MOL0     H57781  -1.968   1.077   2.793  0.7989 -0.1195  1.1422
  438MOL0     H57782  -2.056   1.037   2.987  0.0276  1.9843 -5.7334
  438MOL0     H57783  -2.143   1.192   2.956  1.0136 -0.2033 -0.2557
  438MOL0     H57784  -2.131   1.246   3.195 -0.7208 -0.2294 -0.4788
  438MOL0     H57785  -2.075   1.078   3.232  2.6549 -0.9865 -2.3179
  438MOL0     H57786  -2.293   0.995   3.149  0.0839 -0.8716  0.7657
  438MOL0     H57787  -2.332   1.158   3.083  1.5499  0.9011  0.2707
  438MOL0     H57788  -2.274   1.108   3.377  1.3548 -7.4649 -1.9988
  438MOL0     H57789  -2.351   1.252   3.292 -3.0047 -1.1036  0.0758
  438MOL0     H57790  -2.532   1.139   3.229  1.5152  0.0387 -0.6001
  438MOL0     H57791  -2.532   1.160   3.395  0.4393  0.7956  1.2231
  438MOL0     H57792  -2.472   0.934   3.449  0.3661 -1.3603 -0.2987
  438MOL0     H57793  -2.438   0.892   3.273 -0.5857  1.1382 -1.9739
  438MOL0     H57794  -2.670   0.922   3.211 -2.8655 -0.8872  0.2505
  438MOL0     H57795  -2.661   0.796   3.330  2.0629  0.4321 -0.8583
  438MOL0     H57796  -2.806   1.046   3.340  1.2001 -0.6508  0.0547
  438MOL0     H57797  -2.693   1.055   3.472  0.5532 -0.4821  0.9950
  438MOL0     H57798  -1.741   1.331   3.050  0.1701 -1.4762  1.0491
  438MOL0     H57799  -1.570   1.370   2.850 -1.7366  0.5033  0.5224
  438MOL0     H57800  -1.524   1.398   2.381 -0.0320  0.1860 -1.0383
  438MOL0     H57801  -1.389   1.437   2.207  0.7285  0.7647  0.5063
  438MOL0     H57802   0.384   1.723   2.765 -2.0822 -2.5870 -1.5275
  438MOL0     H57803   0.601   1.695   2.892 -0.2739  0.9611  0.1198
  438MOL0     H57804   1.147   1.812   2.852 -2.1083  0.5185  0.6140
  438MOL0     H57805   1.343   1.724   2.967 -0.1546  0.4663 -2.6390
  438MOL0     H57806   1.548   1.431   3.096 -1.9317 -0.9462  2.1412
  438MOL0     H57807   1.505   1.544   2.962  5.7520 -1.3244  0.1927
  438MOL0     H57808   1.355   1.359   2.880  0.0441 -1.2083 -0.8073
  438MOL0     H57809   1.519   1.318   2.869  0.6415  0.0477 -0.1246
  438MOL0     H57810   1.333   1.244   3.105  0.4711 -0.2726  0.8895
  438MOL0     H57811   1.497   1.192   3.103  1.8182  0.6730 -1.1483
  438MOL0     H57812   1.337   1.106   2.867  2.6229  2.5611 -0.8254
  438MOL0     H57813   1.459   1.023   2.954 -0.6149 -1.1903 -2.2440
  438MOL0     H57814   1.155   0.904   3.214 -2.8746  0.7390 -1.6612
  438MOL0     H57815   1.130   1.386   3.116 -2.6308  0.6439  0.3175
  438MOL0     H57816   0.940   1.445   2.972 -0.4784 -0.5600  0.5496
  439MOL0     O57817   3.833   7.597   4.283 -0.5738  0.2183 -0.4121
  439MOL0     C57818   3.833   7.622   4.156  0.2756 -0.2930 -0.3773
  439MOL0     O57819   3.940   7.623   4.078  0.5377 -0.1471 -0.2474
  439MOL0     C57820   4.066   7.620   4.127  0.3588  0.3640 -0.7209
  439MOL0     C57821   4.167   7.567   4.042  0.2454 -0.2328 -1.1323
  439MOL0     C57822   4.306   7.566   4.088  1.0923 -0.8252 -0.5816
  439MOL0     C57823   4.341   7.644   4.198  0.9605  1.4162  0.4510
  439MOL0     O57824   4.472   7.642   4.223  0.1592 -0.8408 -0.4262
  439MOL0     C57825   4.522   7.715   4.335  0.1433 -0.8699 -0.5353
  439MOL0     C57826   4.668   7.742   4.329  0.2774 -0.3548  0.0021
  439MOL0     C57827   4.757   7.636   4.385  0.7243 -0.0083 -0.1306
  439MOL0     C57828   4.893   7.693   4.379 -0.3626 -0.4129  1.0010
  439MOL0     C57829   4.999   7.590   4.416 -0.4874 -0.2473 -0.6000
  439MOL0     C57830   5.041   7.490   4.301  0.3004 -0.8977 -0.2514
  439MOL0     C57831   5.183   7.452   4.317  0.1826 -0.2690  0.2148
  439MOL0     C57832   5.225   7.352   4.213  0.9573  0.4660 -0.3531
  439MOL0     N57833   5.271   7.427   4.095 -0.4826 -0.0245  1.1894
  439MOL0     C57834   5.405   7.464   4.085  0.5405  0.2181 -0.3914
  439MOL0     C57835   5.411   7.539   3.973 -0.3062  0.2061  0.5223
  439MOL0     C57836   5.527   7.613   3.917  0.0178  0.6753 -0.2372
  439MOL0     C57837   5.583   7.726   4.011 -0.3350  0.5905  0.2156
  439MOL0     C57838   5.480   7.833   4.052  0.6083  1.3740  0.6220
  439MOL0     C57839   5.411   7.798   4.187 -1.0328  0.2903  0.1754
  439MOL0     O57840   5.327   7.898   4.240 -0.0268 -0.0310 -0.3996
  439MOL0     C57841   5.196   7.907   4.199 -0.8235  0.5212  0.5027
  439MOL0     C57842   5.144   7.820   4.098  0.6230  0.5650  0.4332
  439MOL0     C57843   5.015   7.839   4.048 -0.6910  0.5876  0.0852
  439MOL0     C57844   4.932   7.941   4.102  0.6595 -0.5191 -0.2205
  439MOL0     C57845   4.790   7.964   4.061 -0.9909  0.6138 -0.3263
  439MOL0     O57846   4.714   8.033   4.152  0.0131  0.2768 -0.4003
  439MOL0     C57847   4.569   8.037   4.143  0.2767  0.6088 -0.4626
  439MOL0     C57848   4.513   8.148   4.203  0.5073 -0.2976 -0.1535
  439MOL0     C57849   4.380   8.180   4.184 -0.4539 -0.1972  0.3070
  439MOL0     C57850   4.293   8.098   4.121  0.5026 -0.5452  0.0596
  439MOL0     O57851   4.157   8.136   4.107  0.1330 -0.6000 -0.3613
  439MOL0     C57852   4.062   8.026   4.111  0.2864  0.8034 -0.2298
  439MOL0     C57853   3.920   8.093   4.133 -0.6325 -0.5736  0.4649
  439MOL0     C57854   3.807   8.002   4.083  0.2110 -0.4493 -0.2284
  439MOL0     C57855   3.677   8.081   4.073 -0.1754 -0.3602  0.1667
  439MOL0     C57856   3.559   7.986   4.063  0.2131 -0.3854  0.3259
  439MOL0     C57857   3.441   8.074   4.074  0.1946  0.3465 -0.5005
  439MOL0     C57858   3.311   7.990   4.065  0.4473 -0.0196  0.2823
  439MOL0     C57859   3.193   8.060   4.121 -1.0260 -0.0652 -0.7591
  439MOL0    Cl57860   3.127   8.176   4.003  0.2380 -0.0043 -0.5668
  439MOL0     C57861   4.342   7.972   4.076  0.6430 -0.3370 -0.4697
  439MOL0     C57862   4.477   7.940   4.082 -0.5414  0.0586  0.0333
  439MOL0     O57863   4.750   7.906   3.958 -0.4443  0.9152 -1.1354
  439MOL0     C57864   4.983   8.027   4.198 -0.2625  0.5007 -0.8326
  439MOL0     C57865   5.118   8.012   4.237  0.4668 -0.0899 -0.0053
  439MOL0     N57866   5.287   7.544   3.919  0.0999  0.3709  0.4454
  439MOL0     N57867   5.196   7.478   3.989 -0.1147  0.2252  0.6700
  439MOL0     C57868   4.250   7.701   4.276 -0.3770  0.3214 -1.8300
  439MOL0     C57869   4.109   7.680   4.250  0.2403  0.4415 -0.6067
  439MOL0     C57870   3.706   7.654   4.078  0.1540  0.5674 -0.0368
  439MOL0     C57871   3.583   7.660   4.138  0.3158  0.2545  0.2091
  439MOL0     C57872   3.468   7.676   4.062  0.6781  0.3743 -0.2869
  439MOL0     C57873   3.468   7.677   3.918  0.8638  0.1277 -0.6728
  439MOL0     O57874   3.351   7.689   3.835  0.7504 -0.3550  0.1155
  439MOL0     C57875   3.221   7.637   3.886 -0.5004 -0.1298 -0.2664
  439MOL0     C57876   3.110   7.634   3.773  0.4819 -0.1441  0.1429
  439MOL0     C57877   2.973   7.642   3.833  0.3887 -0.1574  0.8952
  439MOL0     C57878   2.871   7.663   3.722  0.4683  0.2986 -0.5431
  439MOL0     C57879   2.732   7.662   3.773  0.4249 -0.5014  0.5414
  439MOL0     C57880   2.620   7.675   3.818  0.9764 -0.6815 -0.0736
  439MOL0     C57881   3.592   7.678   3.856 -1.0896  0.0572  0.0727
  439MOL0     C57882   3.713   7.666   3.931  0.4747 -0.2883 -1.2330
  439MOL0     H57883   4.152   7.512   3.950  0.1192 -0.2647 -1.0927
  439MOL0     H57884   4.381   7.522   4.022  1.5753 -3.4475  1.5226
  439MOL0     H57885   4.499   7.657   4.425  2.2348 -0.3969  0.3585
  439MOL0     H57886   4.473   7.813   4.333 -1.3084 -1.5835 -1.8501
  439MOL0     H57887   4.677   7.834   4.386 -3.7310  0.5513 -0.5194
  439MOL0     H57888   4.692   7.761   4.224  1.5894  1.1446  0.5504
  439MOL0     H57889   4.747   7.531   4.354  2.3226 -0.6749  1.4493
  439MOL0     H57890   4.732   7.620   4.490  1.5379  0.8673  0.2105
  439MOL0     H57891   4.912   7.740   4.282  2.6395  0.2349  1.8070
  439MOL0     H57892   4.904   7.772   4.454  0.5238 -0.6285  1.1106
  439MOL0     H57893   4.965   7.539   4.506 -0.2365 -0.5522 -0.6750
  439MOL0     H57894   5.089   7.644   4.448 -0.7237  0.1882 -0.6718
  439MOL0     H57895   5.016   7.543   4.209 -4.5067  1.8247  2.1859
  439MOL0     H57896   4.973   7.405   4.310 -1.9003  0.3671 -3.1570
  439MOL0     H57897   5.247   7.541   4.323 -0.6699  0.3333  0.4871
  439MOL0     H57898   5.196   7.396   4.410  3.5729 -0.7897 -0.4317
  439MOL0     H57899   5.140   7.288   4.190  0.7192  1.2674 -1.7802
  439MOL0     H57900   5.304   7.288   4.255 -0.7249 -0.0863  2.2102
  439MOL0     H57901   5.482   7.435   4.155 -0.9193  1.7742  1.9663
  439MOL0     H57902   5.503   7.643   3.814 -0.1538 -2.6833 -1.3026
  439MOL0     H57903   5.600   7.534   3.902 -0.4657 -0.0774  1.2256
  439MOL0     H57904   5.667   7.775   3.960  2.2320 -3.6170 -0.0870
  439MOL0     H57905   5.625   7.679   4.100  1.7777 -0.4278 -1.2193
  439MOL0     H57906   5.531   7.929   4.046  1.4611  0.9301  0.6454
  439MOL0     H57907   5.402   7.854   3.978 -0.9092  3.2651  2.6376
  439MOL0     H57908   5.491   7.785   4.262  0.0412 -3.1603 -1.3595
  439MOL0     H57909   5.348   7.710   4.172 -0.2390  0.0381 -2.0898
  439MOL0     H57910   5.199   7.735   4.059 -1.5281 -0.6716 -0.0718
  439MOL0     H57911   4.976   7.780   3.966 -0.5072  2.1197 -1.1444
  439MOL0     H57912   4.584   8.217   4.246  3.5060 -1.2678 -3.1030
  439MOL0     H57913   4.346   8.274   4.226 -0.2000  0.4651 -0.9110
  439MOL0     H57914   4.087   7.945   4.180 -1.2574  0.1645 -0.3598
  439MOL0     H57915   4.065   7.977   4.013 -2.2096  1.9782 -0.9877
  439MOL0     H57916   3.920   8.181   4.067  0.5647 -3.2652 -3.5449
  439MOL0     H57917   3.914   8.120   4.238  1.0684 -0.2259  0.5106
  439MOL0     H57918   3.799   7.921   4.156  1.1099 -0.1029  0.2714
  439MOL0     H57919   3.836   7.965   3.984  0.0902  0.1794 -0.5026
  439MOL0     H57920   3.662   8.138   4.165 -0.3522 -1.4668  0.8451
  439MOL0     H57921   3.666   8.150   3.989 -0.2643 -1.6832 -0.9577
  439MOL0     H57922   3.567   7.913   4.144 -0.7603 -1.3887 -0.4526
  439MOL0     H57923   3.553   7.933   3.967  0.2133 -0.0929  0.1646
  439MOL0     H57924   3.435   8.156   4.002 -0.7114  0.2812 -0.5143
  439MOL0     H57925   3.447   8.106   4.178  0.5694  0.2803 -0.5003
  439MOL0     H57926   3.294   7.954   3.963 -2.0112  1.4026  0.1256
  439MOL0     H57927   3.335   7.901   4.124 -0.9930 -0.3799  0.3605
  439MOL0     H57928   3.228   8.116   4.209 -3.3247  0.8804 -0.3807
  439MOL0     H57929   3.110   7.994   4.148 -0.4280 -0.8101 -0.7095
  439MOL0     H57930   4.291   7.901   4.012  4.7605 -2.9018 -1.1984
  439MOL0     H57931   4.527   7.856   4.035  2.1010  2.1232 -1.1042
  439MOL0     H57932   4.928   8.108   4.245  1.8597  2.7925 -2.0356
  439MOL0     H57933   5.157   8.069   4.321 -2.1805 -0.3811  1.5706
  439MOL0     H57934   4.266   7.754   4.369 -1.9652 -0.6048 -0.9890
  439MOL0     H57935   4.035   7.713   4.322 -0.2207 -0.3532 -0.6955
  439MOL0     H57936   3.567   7.658   4.246  2.0898  4.0245  0.6988
  439MOL0     H57937   3.373   7.700   4.110 -0.5612  2.3028 -3.3680
  439MOL0     H57938   3.196   7.704   3.969 -1.9138  0.6749 -1.2880
  439MOL0     H57939   3.239   7.537   3.926  1.1921  0.6827  1.1468
  439MOL0     H57940   3.119   7.730   3.721 -1.8903 -1.3917 -2.8217
  439MOL0     H57941   3.124   7.551   3.704 -1.7607 -0.4703  0.0150
  439MOL0     H57942   2.951   7.730   3.895  2.8998  1.0482  0.2090
  439MOL0     H57943   2.956   7.557   3.900 -0.2132  0.4099  1.4808
  439MOL0     H57944   2.889   7.752   3.662 -1.5122  0.5226 -0.8636
  439MOL0     H57945   2.887   7.577   3.656  1.0394  0.0050 -0.0333
  439MOL0     H57946   2.526   7.704   3.861 -0.2731 -2.1430 -1.7044
  439MOL0     H57947   3.600   7.689   3.748 -1.1570  0.3910  0.1018
  439MOL0     H57948   3.802   7.671   3.869  1.4490  0.8683  0.1748
  440MOL0     O57949   2.218   4.500   1.815  0.0983 -0.4579 -0.0824
  440MOL0     C57950   2.153   4.573   1.738  1.2007  0.0461 -0.3130
  440MOL0     O57951   2.198   4.669   1.656  0.3011 -0.4313 -1.3703
  440MOL0     C57952   2.328   4.706   1.660  0.5262  0.3328 -0.5053
  440MOL0     C57953   2.431   4.614   1.637 -0.4029 -0.4507  0.0045
  440MOL0     C57954   2.561   4.648   1.666 -0.0136  0.3687 -0.3405
  440MOL0     C57955   2.597   4.772   1.715 -1.3612 -0.4775  0.1491
  440MOL0     O57956   2.725   4.802   1.747  0.3712 -0.2901  0.3954
  440MOL0     C57957   2.761   4.926   1.809  1.0357  0.8014 -0.1732
  440MOL0     C57958   2.916   4.927   1.831  0.5034 -0.1337  0.4797
  440MOL0     C57959   2.930   4.991   1.982  0.7860  0.3045 -1.0802
  440MOL0     C57960   3.078   5.017   2.021  0.5316  0.8730 -0.3804
  440MOL0     C57961   3.122   4.943   2.159 -0.2153 -0.2793  0.3672
  440MOL0     C57962   3.252   4.986   2.234 -0.7936  0.3348  0.4196
  440MOL0     C57963   3.378   4.958   2.143 -0.7166  0.3048 -0.1914
  440MOL0     C57964   3.504   4.947   2.229 -0.4199 -0.5053  0.3613
  440MOL0     N57965   3.529   5.068   2.314 -0.1152 -0.6338  0.8671
  440MOL0     C57966   3.537   5.195   2.260  0.4755 -0.1892  0.2288
  440MOL0     C57967   3.515   5.274   2.365 -0.9484 -0.4205 -0.0981
  440MOL0     C57968   3.525   5.423   2.358 -0.3207 -0.1461  0.3452
  440MOL0     C57969   3.405   5.493   2.299  1.0894 -0.1887  0.2051
  440MOL0     C57970   3.344   5.443   2.164 -0.0689  0.1414  0.0212
  440MOL0     C57971   3.435   5.480   2.047 -0.5187 -0.4867  0.6688
  440MOL0     O57972   3.387   5.424   1.929  0.2426 -0.6834  0.2194
  440MOL0     C57973   3.254   5.448   1.904 -1.2469 -0.8905  0.7269
  440MOL0     C57974   3.206   5.574   1.893  0.2716 -0.3774 -0.7052
  440MOL0     C57975   3.072   5.592   1.864  0.2856  0.1578  0.0425
  440MOL0     C57976   2.988   5.484   1.832 -0.5676 -0.1106  0.2204
  440MOL0     C57977   2.845   5.496   1.801  0.1536 -0.4010 -0.2512
  440MOL0     O57978   2.772   5.388   1.795 -0.9490 -0.6316  0.5961
  440MOL0     C57979   2.653   5.394   1.733 -0.1526  0.0438 -0.1767
  440MOL0     C57980   2.657   5.398   1.591 -0.6935 -0.7199 -0.3335
  440MOL0     C57981   2.533   5.413   1.537 -0.1742  0.7492  0.9498
  440MOL0     C57982   2.407   5.402   1.607 -1.3119  0.1994  0.2970
  440MOL0     O57983   2.282   5.394   1.556 -0.0209  0.2260 -0.0356
  440MOL0     C57984   2.258   5.361   1.421 -0.6990  0.6462  0.1835
  440MOL0     C57985   2.213   5.491   1.355 -0.1604 -0.5215  1.0347
  440MOL0     C57986   2.154   5.481   1.211  0.3902 -0.1996 -0.1120
  440MOL0     C57987   2.149   5.625   1.161  0.1251  0.5143  0.3775
  440MOL0     C57988   2.072   5.637   1.023  0.2739 -0.3689 -0.4683
  440MOL0     C57989   2.121   5.540   0.909  0.2816 -0.9544  0.2236
  440MOL0     C57990   2.007   5.529   0.807  0.1966  0.6857  0.0176
  440MOL0     C57991   2.032   5.618   0.683  0.4771  0.1116 -0.0298
  440MOL0    Cl57992   2.034   5.784   0.742  0.2376 -0.2790 -0.1498
  440MOL0     C57993   2.414   5.393   1.746 -0.8214  0.2221 -0.1382
  440MOL0     C57994   2.539   5.391   1.814 -1.4208 -0.3697  0.2615
  440MOL0     O57995   2.805   5.611   1.773  0.4704 -0.1171 -0.1802
  440MOL0     C57996   3.049   5.359   1.837  0.4427  0.8212 -0.3070
  440MOL0     C57997   3.184   5.340   1.872  0.3451 -0.4702 -0.5934
  440MOL0     N57998   3.502   5.197   2.482 -0.0283  0.1140  0.1748
  440MOL0     N57999   3.513   5.072   2.445  1.0048 -0.0264 -0.6818
  440MOL0     C58000   2.496   4.874   1.720  0.5569 -0.5884  0.6135
  440MOL0     C58001   2.360   4.834   1.703  0.3787  0.4191 -1.1688
  440MOL0     C58002   2.011   4.545   1.733 -0.0350 -0.2305 -0.6810
  440MOL0     C58003   1.958   4.423   1.777 -0.5818 -0.4314  0.6071
  440MOL0     C58004   1.819   4.403   1.752 -0.0724 -0.3097  0.4764
  440MOL0     C58005   1.740   4.507   1.702 -0.9788 -0.0500  0.9900
  440MOL0     O58006   1.598   4.497   1.692  0.8261  0.5872  0.6331
  440MOL0     C58007   1.520   4.512   1.811  0.6678 -0.1464  0.4854
  440MOL0     C58008   1.366   4.494   1.801  0.3964 -0.3159  0.3879
  440MOL0     C58009   1.310   4.543   1.674  0.0746 -0.2586 -0.4095
  440MOL0     C58010   1.298   4.692   1.678  0.2711  0.8513 -0.0950
  440MOL0     C58011   1.247   4.729   1.545  0.4319  0.4382 -0.3926
  440MOL0     C58012   1.218   4.759   1.434 -0.3991 -0.8043  0.2116
  440MOL0     C58013   1.798   4.625   1.656 -0.3086 -0.3073 -0.2883
  440MOL0     C58014   1.939   4.649   1.677  0.2255  0.6761  0.3347
  440MOL0     H58015   2.395   4.519   1.600 -1.0732 -0.7589  1.3758
  440MOL0     H58016   2.641   4.574   1.666 -2.4023 -2.3729 -0.3975
  440MOL0     H58017   2.695   4.930   1.896  0.7604  3.0256 -0.4485
  440MOL0     H58018   2.748   5.007   1.737  5.9850  2.7734  0.8134
  440MOL0     H58019   2.972   4.978   1.751  0.6999  0.8423  1.2139
  440MOL0     H58020   2.953   4.826   1.847  0.2801 -0.4221 -0.7497
  440MOL0     H58021   2.875   4.927   2.052  1.2103  0.1381 -0.8872
  440MOL0     H58022   2.887   5.091   1.996 -1.9384 -1.0222  1.0558
  440MOL0     H58023   3.135   4.981   1.934 -3.4564  0.5732 -3.1199
  440MOL0     H58024   3.082   5.126   2.019 -2.0995  1.0315 -2.4591
  440MOL0     H58025   3.131   4.839   2.126  2.2978  0.4156 -1.4242
  440MOL0     H58026   3.046   4.946   2.237  1.8133 -3.1459  2.6747
  440MOL0     H58027   3.257   4.906   2.308  0.2209 -1.8858 -1.8724
  440MOL0     H58028   3.261   5.089   2.268  1.8489 -0.0753  1.1820
  440MOL0     H58029   3.373   4.862   2.090  3.2241  1.9491 -4.1883
  440MOL0     H58030   3.394   5.039   2.072 -0.9117  0.6352  0.1355
  440MOL0     H58031   3.594   4.922   2.173 -2.1465  1.5969 -3.8234
  440MOL0     H58032   3.496   4.857   2.289 -0.0056 -1.5340 -1.0771
  440MOL0     H58033   3.542   5.211   2.152  1.3724 -3.2146 -0.2797
  440MOL0     H58034   3.616   5.443   2.301 -0.4815 -0.6568 -0.1030
  440MOL0     H58035   3.534   5.452   2.463  4.0021 -2.9817  1.0263
  440MOL0     H58036   3.423   5.601   2.294 -2.8730  0.5870 -0.1356
  440MOL0     H58037   3.312   5.481   2.354  0.3926  1.1600 -0.6507
  440MOL0     H58038   3.346   5.333   2.169  1.9385  0.1480 -0.0152
  440MOL0     H58039   3.238   5.471   2.158  0.0522  0.7387  0.5102
  440MOL0     H58040   3.529   5.426   2.061 -1.4968 -1.8655  2.2768
  440MOL0     H58041   3.456   5.588   2.043 -0.1359 -0.5281  1.4326
  440MOL0     H58042   3.272   5.659   1.905  0.0331 -0.1209 -1.1794
  440MOL0     H58043   3.035   5.694   1.877 -0.0999 -0.2548  2.5905
  440MOL0     H58044   2.756   5.387   1.548 -0.0282  0.9196  0.6852
  440MOL0     H58045   2.531   5.408   1.428  0.2462  0.9724  0.9317
  440MOL0     H58046   2.186   5.279   1.413  1.6046 -1.8576  2.7125
  440MOL0     H58047   2.352   5.340   1.369 -0.7688 -2.2364  1.0298
  440MOL0     H58048   2.308   5.546   1.361  0.1988 -0.7330 -1.4624
  440MOL0     H58049   2.142   5.551   1.411  1.8622  2.6603  0.4671
  440MOL0     H58050   2.054   5.438   1.225  1.1176 -2.1131 -0.3803
  440MOL0     H58051   2.216   5.411   1.154  0.3892 -1.5373  1.4596
  440MOL0     H58052   2.107   5.694   1.235  2.2250  0.8310  1.3735
  440MOL0     H58053   2.252   5.659   1.144  0.3865 -0.2772  0.3378
  440MOL0     H58054   2.068   5.740   0.989 -1.1396 -0.0800  0.4591
  440MOL0     H58055   1.969   5.610   1.051  1.6185 -2.6480  2.8900
  440MOL0     H58056   2.134   5.438   0.947  1.2221 -0.6798  0.6757
  440MOL0     H58057   2.213   5.577   0.863 -0.5854  0.8023 -0.1844
  440MOL0     H58058   1.983   5.429   0.769  1.0480  0.0554  1.0742
  440MOL0     H58059   1.907   5.551   0.845  0.2779  0.8067  0.1618
  440MOL0     H58060   1.955   5.599   0.607 -0.0120  1.1667  0.1805
  440MOL0     H58061   2.123   5.589   0.630 -1.1152 -1.2719 -2.2041
  440MOL0     H58062   2.324   5.394   1.806  0.6995  0.7686  2.2852
  440MOL0     H58063   2.553   5.379   1.921 -1.1525 -2.4463  0.0263
  440MOL0     H58064   2.993   5.270   1.808  3.0487 -1.2143  0.4407
  440MOL0     H58065   3.234   5.243   1.869  3.2024  0.9290 -1.7901
  440MOL0     H58066   2.507   4.979   1.746  0.7568 -0.9876  2.2456
  440MOL0     H58067   2.302   4.924   1.716  2.6978  1.8287  0.2942
  440MOL0     H58068   2.027   4.348   1.816  0.8393  0.5744  0.1111
  440MOL0     H58069   1.769   4.313   1.786  0.1293 -0.6394 -0.0873
  440MOL0     H58070   1.537   4.610   1.857 -0.2038  1.3142 -2.0820
  440MOL0     H58071   1.559   4.438   1.881  0.8045 -0.0762  0.4837
  440MOL0     H58072   1.343   4.387   1.807  0.1031 -0.2626  0.2593
  440MOL0     H58073   1.306   4.547   1.876 -0.3368 -0.8672  0.1966
  440MOL0     H58074   1.210   4.502   1.656 -0.8309  2.4180 -2.0291
  440MOL0     H58075   1.373   4.517   1.589  1.0296  0.7722 -0.0307
  440MOL0     H58076   1.240   4.729   1.763 -2.0219  0.7766 -1.5116
  440MOL0     H58077   1.400   4.726   1.695  0.6508 -1.1061  1.9646
  440MOL0     H58078   1.192   4.772   1.331 -2.0854 -0.2112  0.6823
  440MOL0     H58079   1.746   4.699   1.595 -4.0641 -2.1149  0.3993
  440MOL0     H58080   1.988   4.741   1.646  0.6614  1.1046  2.1760
  441MOL0     O58081   2.526   6.420   5.239 -0.1226  0.1232 -0.1823
  441MOL0     C58082   2.487   6.431   5.359  0.0134 -0.6242  0.9741
  441MOL0     O58083   2.563   6.418   5.472 -0.8429 -0.3496  0.7986
  441MOL0     C58084   2.699   6.386   5.456  0.5540 -0.2544 -1.3475
  441MOL0     C58085   2.759   6.304   5.558  1.0770 -0.1624  0.4073
  441MOL0     C58086   2.900   6.279   5.559  0.9789  0.8690  0.4365
  441MOL0     C58087   2.982   6.317   5.454  0.0459  0.7497 -0.6107
  441MOL0     O58088   3.110   6.269   5.448 -0.8964  0.8995 -0.0899
  441MOL0     C58089   3.194   6.295   5.335 -0.0143  0.4553 -0.0987
  441MOL0     C58090   3.320   6.215   5.340 -0.5946  1.0537 -0.2244
  441MOL0     C58091   3.446   6.278   5.283  0.2761  0.3804 -0.0190
  441MOL0     C58092   3.443   6.284   5.130  0.9680  0.8657 -0.1992
  441MOL0     C58093   3.579   6.338   5.081 -0.3559 -0.9139 -0.8409
  441MOL0     C58094   3.608   6.326   4.931 -0.3620 -0.1949  0.1968
  441MOL0     C58095   3.746   6.390   4.903 -0.4933 -0.2926 -0.0405
  441MOL0     C58096   3.796   6.375   4.751  0.2038 -0.7238  0.1116
  441MOL0     N58097   3.913   6.457   4.735  0.5136 -0.3915  0.5356
  441MOL0     C58098   4.044   6.425   4.759 -0.1533  0.2157 -0.9689
  441MOL0     C58099   4.126   6.517   4.705  1.1077 -1.0795  0.1002
  441MOL0     C58100   4.272   6.552   4.725 -0.7110  0.0616 -0.0863
  441MOL0     C58101   4.326   6.639   4.611  0.5366  0.4980  0.2491
  441MOL0     C58102   4.476   6.623   4.575 -0.2025  0.8789 -0.4122
  441MOL0     C58103   4.521   6.716   4.469 -0.6287 -0.2274  0.0862
  441MOL0     O58104   4.666   6.711   4.452  0.4039 -0.3204 -0.5458
  441MOL0     C58105   4.733   6.743   4.340 -0.6457 -0.0531  0.5891
  441MOL0     C58106   4.867   6.702   4.310  0.4946  0.4606  0.1478
  441MOL0     C58107   4.942   6.760   4.209  1.2876 -0.2514  0.0638
  441MOL0     C58108   4.890   6.863   4.125  0.9978  0.9691 -0.4262
  441MOL0     C58109   4.964   6.931   4.018  0.5912 -0.5426 -0.5037
  441MOL0     O58110   5.090   6.896   4.005 -0.3297 -0.1458  0.2463
  441MOL0     C58111   5.183   6.956   3.925  0.1230 -0.5883  0.2179
  441MOL0     C58112   5.248   6.872   3.841  0.1574 -0.5679 -0.0559
  441MOL0     C58113   5.338   6.927   3.747  0.7189  0.0518 -0.7444
  441MOL0     C58114   5.360   7.061   3.739 -0.2074 -0.4304 -1.0168
  441MOL0     O58115   5.467   7.117   3.676 -0.1235 -0.3016 -1.1951
  441MOL0     C58116   5.547   7.050   3.585 -0.0144 -0.7657  0.1392
  441MOL0     C58117   5.665   7.127   3.525 -0.5799  0.5003 -0.2801
  441MOL0     C58118   5.619   7.264   3.484 -0.1946  0.7811 -0.1825
  441MOL0     C58119   5.695   7.378   3.564 -0.4135  0.9561  0.5296
  441MOL0     C58120   5.618   7.512   3.540 -0.0889  0.5991  0.7362
  441MOL0     C58121   5.620   7.552   3.394  0.0394  0.2964 -0.3387
  441MOL0     C58122   5.549   7.690   3.361 -0.1836  0.3356 -0.2300
  441MOL0     C58123   5.564   7.708   3.208 -0.2927  0.4870  0.2410
  441MOL0    Cl58124   5.741   7.728   3.164 -0.3841 -0.5875 -0.6668
  441MOL0     C58125   5.288   7.155   3.819  0.2414  0.5361 -0.1102
  441MOL0     C58126   5.203   7.096   3.912  0.3590  0.7505 -0.1373
  441MOL0     O58127   4.897   7.006   3.948 -0.0949 -0.2098 -0.2709
  441MOL0     C58128   4.744   6.884   4.140 -0.3756 -0.7363  0.4561
  441MOL0     C58129   4.676   6.833   4.249 -0.5368 -0.1376 -0.4377
  441MOL0     N58130   4.040   6.602   4.640 -1.2440 -0.0820  0.0468
  441MOL0     N58131   3.916   6.570   4.663 -0.0597  0.0125 -0.1212
  441MOL0     C58132   2.929   6.407   5.363  0.4792 -0.0726 -0.1560
  441MOL0     C58133   2.792   6.437   5.367  0.2423  0.8136 -0.3262
  441MOL0     C58134   2.359   6.484   5.383  0.2714  0.9855  0.8129
  441MOL0     C58135   2.315   6.534   5.514  0.0454  0.6029  0.8962
  441MOL0     C58136   2.191   6.593   5.536 -0.1924 -0.0400  0.0599
  441MOL0     C58137   2.100   6.591   5.427  0.1037  0.4703  0.0395
  441MOL0     O58138   1.972   6.646   5.431  0.1137  0.4435  0.6980
  441MOL0     C58139   1.962   6.764   5.357  0.1379 -0.6623 -0.6889
  441MOL0     C58140   1.814   6.795   5.344  0.3798 -0.7681  0.6424
  441MOL0     C58141   1.779   6.937   5.289  0.0615 -0.0851  0.2214
  441MOL0     C58142   1.641   6.955   5.241 -0.1826 -0.2334  0.2347
  441MOL0     C58143   1.620   6.882   5.115  0.6370 -0.1257  0.3155
  441MOL0     C58144   1.616   6.837   5.005 -0.6251  0.1858 -0.0282
  441MOL0     C58145   2.136   6.533   5.299  0.3559  0.1216  0.7023
  441MOL0     C58146   2.265   6.480   5.277 -0.4643 -0.3893 -0.9575
  441MOL0     H58147   2.698   6.269   5.640 -1.5876  2.7332 -0.1363
  441MOL0     H58148   2.929   6.216   5.643 -1.6340 -0.7741  0.2236
  441MOL0     H58149   3.219   6.401   5.321  0.1074  0.2893 -1.2344
  441MOL0     H58150   3.136   6.265   5.248 -0.8303 -1.5532  1.0749
  441MOL0     H58151   3.301   6.116   5.298  4.2804  0.2086 -1.0371
  441MOL0     H58152   3.333   6.192   5.446 -0.8791  0.1624 -0.3742
  441MOL0     H58153   3.543   6.236   5.310 -0.1751 -0.5302  0.2383
  441MOL0     H58154   3.446   6.379   5.324  2.8281  0.6809 -0.5698
  441MOL0     H58155   3.436   6.178   5.101 -0.0726  0.8596  0.0168
  441MOL0     H58156   3.365   6.352   5.095  1.1098  0.7791 -0.6932
  441MOL0     H58157   3.655   6.272   5.124 -1.2187 -0.2417  1.9619
  441MOL0     H58158   3.602   6.433   5.129 -1.0977 -2.0244  1.9549
  441MOL0     H58159   3.527   6.373   4.875 -1.8566 -1.4296  1.2344
  441MOL0     H58160   3.611   6.220   4.905 -1.0171  0.5464 -3.4043
  441MOL0     H58161   3.722   6.496   4.917 -0.3469 -0.5517  2.5976
  441MOL0     H58162   3.819   6.358   4.977 -2.2378 -0.8323  1.5097
  441MOL0     H58163   3.716   6.405   4.683 -1.7405  1.8495  3.2153
  441MOL0     H58164   3.830   6.271   4.744 -0.5273 -0.9966  0.4620
  441MOL0     H58165   4.086   6.348   4.823  1.0954  1.0753 -0.7126
  441MOL0     H58166   4.337   6.465   4.734 -2.6767 -1.4449  0.2962
  441MOL0     H58167   4.275   6.597   4.825 -0.8922  0.2003 -0.1419
  441MOL0     H58168   4.306   6.745   4.626  2.5997  0.8313  0.8622
  441MOL0     H58169   4.274   6.605   4.521 -0.8432 -1.4120  1.6928
  441MOL0     H58170   4.537   6.634   4.665 -0.7492  0.6919 -0.0185
  441MOL0     H58171   4.495   6.521   4.539  0.4025  1.0463 -0.5737
  441MOL0     H58172   4.509   6.815   4.515 -2.1796 -0.5781  0.5189
  441MOL0     H58173   4.464   6.705   4.376 -0.1589  1.6529 -0.4588
  441MOL0     H58174   4.916   6.633   4.377 -0.3845  1.0924  1.4947
  441MOL0     H58175   5.048   6.742   4.200  1.6240  2.3400 -3.4788
  441MOL0     H58176   5.240   6.764   3.840  0.8208 -0.6390 -2.0869
  441MOL0     H58177   5.398   6.867   3.679 -0.0674 -1.5018 -0.1228
  441MOL0     H58178   5.495   7.028   3.492 -1.6693 -0.3384  0.9216
  441MOL0     H58179   5.587   6.969   3.646  2.2351 -0.4466 -0.8306
  441MOL0     H58180   5.700   7.096   3.426  0.9008  2.6596 -0.4997
  441MOL0     H58181   5.738   7.129   3.606 -0.8227 -0.1294 -0.0437
  441MOL0     H58182   5.510   7.272   3.488 -0.2300  0.3033 -0.1280
  441MOL0     H58183   5.651   7.275   3.379  0.2583 -0.3143 -0.1743
  441MOL0     H58184   5.695   7.361   3.672 -0.3536 -1.4243  0.1980
  441MOL0     H58185   5.798   7.391   3.529 -1.4567  1.0061 -2.8657
  441MOL0     H58186   5.665   7.587   3.605  0.0505  1.5852 -0.4697
  441MOL0     H58187   5.517   7.508   3.581 -0.0251 -1.4418  0.7963
  441MOL0     H58188   5.583   7.465   3.338 -0.2163 -1.1519  1.9378
  441MOL0     H58189   5.726   7.565   3.374  0.1111 -0.1018 -0.2318
  441MOL0     H58190   5.442   7.683   3.384 -1.0665  1.3918 -3.4545
  441MOL0     H58191   5.603   7.770   3.413 -1.0504  1.6987 -1.3412
  441MOL0     H58192   5.499   7.787   3.170  2.3426  1.8443 -1.8139
  441MOL0     H58193   5.533   7.613   3.166 -2.0754  0.0086  2.4142
  441MOL0     H58194   5.300   7.261   3.801 -0.6018  0.5679 -0.5364
  441MOL0     H58195   5.148   7.156   3.985 -1.2644 -2.7007  1.7296
  441MOL0     H58196   4.694   6.952   4.071  3.6418  1.6413 -0.4166
  441MOL0     H58197   4.571   6.858   4.258 -0.1000  1.5590  0.1586
  441MOL0     H58198   3.000   6.438   5.287 -1.6301  3.3419 -0.9821
  441MOL0     H58199   2.764   6.508   5.290  1.1444 -0.2281 -1.6722
  441MOL0     H58200   2.382   6.540   5.599  4.7685  1.9450 -2.4808
  441MOL0     H58201   2.163   6.650   5.624  0.2846  0.7148 -0.2685
  441MOL0     H58202   2.012   6.754   5.260 -0.3073  2.2794 -1.3255
  441MOL0     H58203   2.027   6.838   5.405  0.7625 -1.3241 -0.5038
  441MOL0     H58204   1.761   6.727   5.277 -0.8962 -0.3549  1.2063
  441MOL0     H58205   1.760   6.790   5.439  1.8825 -2.8262  1.4442
  441MOL0     H58206   1.847   6.967   5.208  0.4723 -2.9780 -0.6203
  441MOL0     H58207   1.788   7.008   5.372 -0.7102 -0.6096  0.7689
  441MOL0     H58208   1.583   6.917   5.325  1.3996 -0.3487  1.3059
  441MOL0     H58209   1.604   7.057   5.223 -1.5859 -0.9865 -1.5740
  441MOL0     H58210   1.586   6.807   4.907 -2.5465  1.2057  0.1819
  441MOL0     H58211   2.072   6.538   5.211 -0.3138  1.5981  1.2370
  441MOL0     H58212   2.298   6.455   5.177  1.9785 -1.5126  0.0463
  442MOL0     O58213   4.979   0.780   8.627 -0.5621  0.1568 -0.3693
  442MOL0     C58214   4.934   0.748   8.517  0.1994 -0.5448 -0.4021
  442MOL0     O58215   4.991   0.658   8.435  0.4031 -0.0806  0.2112
  442MOL0     C58216   5.115   0.606   8.458  0.3185 -0.3716 -1.5207
  442MOL0     C58217   5.146   0.506   8.554  0.9545  0.8867 -0.3334
  442MOL0     C58218   5.281   0.471   8.571  0.1874  0.4615  0.1821
  442MOL0     C58219   5.386   0.529   8.503 -0.5249 -0.4107 -0.6335
  442MOL0     O58220   5.521   0.500   8.523 -0.0123  0.2001  0.2192
  442MOL0     C58221   5.563   0.409   8.627  0.3986  0.4437  0.0213
  442MOL0     C58222   5.713   0.376   8.637 -0.1801 -0.1738  0.1110
  442MOL0     C58223   5.738   0.292   8.765 -0.2983  0.8477  0.4267
  442MOL0     C58224   5.886   0.245   8.779 -0.3247  0.2095 -0.1372
  442MOL0     C58225   5.896   0.123   8.876  0.8336  0.2166  0.1701
  442MOL0     C58226   6.045   0.065   8.878  0.0898 -0.6228 -0.1612
  442MOL0     C58227   6.126   0.164   8.973  0.3626 -0.0392  0.5486
  442MOL0     C58228   6.279   0.160   8.951  0.8501  0.0558  0.1771
  442MOL0     N58229   6.340   0.035   9.001  0.0522 -0.0287 -0.5028
  442MOL0     C58230   6.335  -0.080   8.931  0.7939 -0.7624 -0.1550
  442MOL0     C58231   6.400  -0.169   9.003 -0.4746 -0.3134 -0.1704
  442MOL0     C58232   6.402  -0.319   8.959 -0.8117 -0.1560  0.1549
  442MOL0     C58233   6.549  -0.387   8.998 -1.2224  0.5789  0.1199
  442MOL0     C58234   6.640  -0.414   8.878 -0.2907  0.2082  0.3913
  442MOL0     C58235   6.703  -0.288   8.830 -0.3194 -0.5173 -0.5808
  442MOL0     O58236   6.770  -0.307   8.705  0.0680 -0.3074  0.2517
  442MOL0     C58237   6.898  -0.345   8.693  0.0890 -1.1781 -0.2521
  442MOL0     C58238   6.977  -0.391   8.810  1.0380 -0.8931 -0.0362
  442MOL0     C58239   7.109  -0.443   8.803 -0.6497 -0.2272 -0.0649
  442MOL0     C58240   7.172  -0.424   8.673 -0.0279 -0.2849 -0.1224
  442MOL0     C58241   7.306  -0.468   8.624  0.0406 -0.3352 -0.8519
  442MOL0     O58242   7.398  -0.505   8.728  0.2110  0.5557  0.1982
  442MOL0     C58243   7.517  -0.554   8.676  0.2552 -0.7418  0.1682
  442MOL0     C58244   7.535  -0.670   8.606 -0.0932 -0.0025  0.8772
  442MOL0     C58245   7.666  -0.706   8.560 -0.2450 -0.4441  0.5726
  442MOL0     C58246   7.777  -0.633   8.598  0.4463  0.1816 -0.1467
  442MOL0     O58247   7.908  -0.655   8.562 -0.5757  0.6519 -0.4523
  442MOL0     C58248   7.938  -0.707   8.428  0.1429 -0.2429 -0.3206
  442MOL0     C58249   8.081  -0.741   8.398  0.1287 -0.0654 -0.0403
  442MOL0     C58250   8.175  -0.626   8.371 -0.3768 -0.1121 -0.6424
  442MOL0     C58251   8.166  -0.516   8.478 -0.1802 -0.4216 -0.7207
  442MOL0     C58252   8.280  -0.416   8.481  0.5801 -0.1693  0.5109
  442MOL0     C58253   8.410  -0.468   8.531  0.0650  0.2268 -0.7117
  442MOL0     C58254   8.507  -0.362   8.598 -0.6987  0.5072  0.8615
  442MOL0     C58255   8.468  -0.366   8.756  0.3197 -0.4595 -0.3737
  442MOL0    Cl58256   8.542  -0.247   8.869 -0.3701  0.0965 -0.1950
  442MOL0     C58257   7.762  -0.522   8.687 -0.6257  0.4994  0.4559
  442MOL0     C58258   7.632  -0.479   8.716  0.1673 -0.5319 -1.0136
  442MOL0     O58259   7.329  -0.472   8.502  0.1192 -0.3474  0.3385
  442MOL0     C58260   7.089  -0.360   8.573  0.4952 -0.0430 -0.7311
  442MOL0     C58261   6.959  -0.325   8.579  0.0551 -0.6660 -0.0650
  442MOL0     N58262   6.428  -0.102   9.130 -0.8670  0.3777  0.2142
  442MOL0     N58263   6.389   0.017   9.124  0.0479  0.2835  0.0566
  442MOL0     C58264   5.349   0.631   8.410 -0.0268  0.1975  0.2166
  442MOL0     C58265   5.212   0.661   8.381 -0.0447  0.7186 -0.4308
  442MOL0     C58266   4.806   0.800   8.477 -0.0266 -0.0427 -0.0141
  442MOL0     C58267   4.716   0.741   8.385  0.3525  1.3119  0.6599
  442MOL0     C58268   4.596   0.797   8.337  0.5209  0.1467 -0.4163
  442MOL0     C58269   4.556   0.912   8.392 -0.5912 -0.5253  0.1706
  442MOL0     O58270   4.428   0.950   8.357  0.1318 -1.1785 -0.3783
  442MOL0     C58271   4.382   1.069   8.436  0.4028  0.0661  0.8099
  442MOL0     C58272   4.233   1.071   8.437 -0.7340  0.0160  0.2950
  442MOL0     C58273   4.178   1.133   8.310  0.4588 -0.3626 -0.2839
  442MOL0     C58274   4.020   1.140   8.317 -1.4531 -0.3269 -0.2196
  442MOL0     C58275   3.954   1.010   8.326 -0.1774 -0.3610 -0.2268
  442MOL0     C58276   3.925   0.891   8.317  0.4186 -0.5582 -0.2527
  442MOL0     C58277   4.638   0.980   8.483 -0.1577  0.1723  0.2363
  442MOL0     C58278   4.762   0.923   8.526  0.2384 -0.0599 -0.1901
  442MOL0     H58279   5.064   0.468   8.615  0.3866 -0.7743 -2.0462
  442MOL0     H58280   5.301   0.399   8.649 -0.8760 -2.3903 -1.9835
  442MOL0     H58281   5.507   0.315   8.630  1.4599 -0.1864  0.9805
  442MOL0     H58282   5.535   0.455   8.722 -1.4815 -0.1458 -0.1936
  442MOL0     H58283   5.760   0.473   8.652 -2.2143  0.9321 -0.2910
  442MOL0     H58284   5.755   0.334   8.546  1.2679 -0.1942  0.7736
  442MOL0     H58285   5.675   0.203   8.769  1.7503 -1.0886 -3.9477
  442MOL0     H58286   5.720   0.365   8.846  3.1233  3.3374 -0.8015
  442MOL0     H58287   5.916   0.208   8.681 -3.1377 -1.4954 -0.4674
  442MOL0     H58288   5.956   0.325   8.802  1.1760 -0.7002 -1.3356
  442MOL0     H58289   5.819   0.049   8.854  0.6310  0.2427  0.7669
  442MOL0     H58290   5.875   0.150   8.979 -0.3892  0.0312 -0.0193
  442MOL0     H58291   6.097   0.058   8.782  3.1854 -0.8521  1.4003
  442MOL0     H58292   6.051  -0.033   8.926  0.4326  0.0185  1.1710
  442MOL0     H58293   6.085   0.264   8.955  1.7666  0.0078 -3.5598
  442MOL0     H58294   6.110   0.140   9.078 -1.2849 -0.9511  0.1203
  442MOL0     H58295   6.324   0.243   9.006  0.1636 -0.0599  0.9316
  442MOL0     H58296   6.306   0.169   8.845 -2.0360 -1.9955 -0.8697
  442MOL0     H58297   6.275  -0.085   8.841 -1.8288 -0.2929  1.4575
  442MOL0     H58298   6.391  -0.304   8.852  1.9950  3.2067  0.1666
  442MOL0     H58299   6.318  -0.370   9.008 -0.4542 -1.8183 -0.9052
  442MOL0     H58300   6.531  -0.479   9.055 -0.6057 -0.4766 -1.3306
  442MOL0     H58301   6.596  -0.317   9.068 -2.3420 -1.5333  3.1895
  442MOL0     H58302   6.714  -0.488   8.910 -3.3841 -2.2003  2.5519
  442MOL0     H58303   6.587  -0.467   8.798 -0.5754  2.6951 -1.1563
  442MOL0     H58304   6.765  -0.238   8.905  1.2311 -3.8762  0.5655
  442MOL0     H58305   6.622  -0.224   8.795  0.4078  0.2927 -0.8197
  442MOL0     H58306   6.920  -0.414   8.899  0.3479  0.7098 -0.0234
  442MOL0     H58307   7.168  -0.485   8.884 -0.2298 -2.7928 -1.5886
  442MOL0     H58308   7.460  -0.732   8.558  2.2329 -1.3648 -1.2434
  442MOL0     H58309   7.667  -0.801   8.509 -1.3347 -1.3012  2.0851
  442MOL0     H58310   7.915  -0.625   8.358 -0.2694  0.5384  0.7049
  442MOL0     H58311   7.883  -0.799   8.405 -1.5992  0.3206  1.3082
  442MOL0     H58312   8.079  -0.798   8.305 -0.8596  3.4215 -2.3813
  442MOL0     H58313   8.119  -0.801   8.481 -1.0430 -1.1120 -0.2246
  442MOL0     H58314   8.134  -0.589   8.276 -0.4215 -0.8639 -0.9236
  442MOL0     H58315   8.280  -0.653   8.358  0.2998  2.1224 -0.2548
  442MOL0     H58316   8.080  -0.449   8.477  1.5061  2.0134  1.5198
  442MOL0     H58317   8.165  -0.560   8.578  0.0792  0.0700 -0.4997
  442MOL0     H58318   8.255  -0.330   8.543  2.4448  0.0836  0.9668
  442MOL0     H58319   8.301  -0.377   8.381  1.3477 -0.2667  0.6298
  442MOL0     H58320   8.470  -0.505   8.447  3.1865  1.6559  0.6772
  442MOL0     H58321   8.401  -0.551   8.601  2.9536  1.5974  1.5094
  442MOL0     H58322   8.613  -0.378   8.577 -0.9960  1.6378 -1.9317
  442MOL0     H58323   8.498  -0.262   8.554 -0.7734  0.8716  1.7041
  442MOL0     H58324   8.487  -0.466   8.795  1.6403 -0.0187  0.1355
  442MOL0     H58325   8.360  -0.357   8.774  0.3978 -2.9292  1.9643
  442MOL0     H58326   7.852  -0.475   8.724 -1.2053  1.4563  0.6985
  442MOL0     H58327   7.611  -0.393   8.779 -1.7232  0.0732 -2.3808
  442MOL0     H58328   7.139  -0.335   8.480  1.1240  0.0056 -0.3858
  442MOL0     H58329   6.922  -0.287   8.484  2.0424 -2.3582 -1.6354
  442MOL0     H58330   5.426   0.693   8.365  1.7232  0.6293  3.5459
  442MOL0     H58331   5.181   0.720   8.295 -4.3469 -2.1871 -1.2298
  442MOL0     H58332   4.743   0.646   8.341 -1.4330  0.1041  1.9952
  442MOL0     H58333   4.532   0.750   8.263 -3.0036 -0.0357  2.4451
  442MOL0     H58334   4.420   1.159   8.387  1.2741 -1.2903 -1.1075
  442MOL0     H58335   4.418   1.068   8.539  1.2333  0.4456  0.5271
  442MOL0     H58336   4.196   0.968   8.439  0.7259 -0.5350  0.2028
  442MOL0     H58337   4.192   1.122   8.525 -0.8263  0.0700  0.2204
  442MOL0     H58338   4.203   1.070   8.224  1.7000  1.5206 -1.3533
  442MOL0     H58339   4.225   1.227   8.280 -2.0653  0.9899 -0.2590
  442MOL0     H58340   3.999   1.191   8.411  0.3823 -2.0005  1.1775
  442MOL0     H58341   3.982   1.202   8.236  0.7134  0.5384 -0.6151
  442MOL0     H58342   3.905   0.791   8.285  0.7971  0.0000 -2.3796
  442MOL0     H58343   4.607   1.067   8.540  1.8066 -0.9461  3.2254
  442MOL0     H58344   4.823   0.986   8.590  1.9613 -2.2121  0.4101
  443MOL0     O58345   6.047   5.543   6.908 -0.0175 -0.8217  0.0067
  443MOL0     C58346   6.125   5.513   7.006  0.7983  0.8942 -0.0095
  443MOL0     O58347   6.107   5.399   7.086  0.4700 -0.4170 -0.1275
  443MOL0     C58348   5.975   5.358   7.091 -0.7738  1.5396  0.2892
  443MOL0     C58349   5.942   5.260   7.006 -0.8316 -0.2914 -0.0594
  443MOL0     C58350   5.817   5.206   6.987 -0.1058 -0.6287 -0.9066
  443MOL0     C58351   5.718   5.254   7.066 -0.2655 -0.1462 -0.3654
  443MOL0     O58352   5.591   5.215   7.075 -0.4269 -0.3932 -1.1383
  443MOL0     C58353   5.550   5.098   7.001 -0.4128  1.3741  0.0499
  443MOL0     C58354   5.412   5.056   7.057  0.5697  0.2529  0.4703
  443MOL0     C58355   5.350   4.927   6.998  0.3374 -0.0238 -0.0242
  443MOL0     C58356   5.212   4.894   7.057  0.0544  0.0139 -0.1035
  443MOL0     C58357   5.135   4.780   6.995 -0.1653 -0.4192 -0.1026
  443MOL0     C58358   5.003   4.747   7.058 -0.0116 -0.3037 -0.4438
  443MOL0     C58359   4.923   4.655   6.965  1.0008  0.2877  0.0485
  443MOL0     C58360   4.809   4.589   7.033  0.4570 -0.8677 -0.1965
  443MOL0     N58361   4.700   4.675   7.063  0.0022 -0.3277 -0.1892
  443MOL0     C58362   4.646   4.782   6.985 -0.1548  0.6834  0.2697
  443MOL0     C58363   4.552   4.841   7.069  0.2241  0.1492  0.4498
  443MOL0     C58364   4.465   4.960   7.030  0.0390  0.1205  0.3133
  443MOL0     C58365   4.318   4.918   7.025 -0.9331  0.0798 -0.3316
  443MOL0     C58366   4.222   5.026   6.963 -0.9006  0.9596  0.2133
  443MOL0     C58367   4.070   5.032   7.016 -0.1714 -0.3979 -0.0515
  443MOL0     O58368   3.997   5.145   6.954  0.4713  0.2764  0.6975
  443MOL0     C58369   3.858   5.154   6.975  0.1341 -0.1705 -0.3300
  443MOL0     C58370   3.787   5.081   7.074 -1.3010 -1.0661  0.4483
  443MOL0     C58371   3.658   5.102   7.107 -0.4470  0.1992  0.9671
  443MOL0     C58372   3.594   5.202   7.033 -0.3410  0.0324  0.2257
  443MOL0     C58373   3.448   5.219   7.050  0.3991  1.0945  0.8121
  443MOL0     O58374   3.390   5.182   7.167  0.3623  0.3198 -0.1198
  443MOL0     C58375   3.255   5.199   7.186  0.1788  0.3110 -0.9926
  443MOL0     C58376   3.209   5.327   7.195 -0.4907 -0.4498 -0.4360
  443MOL0     C58377   3.070   5.345   7.218  0.5553 -0.6376 -1.0041
  443MOL0     C58378   2.983   5.239   7.230  0.7075  0.7414 -0.1668
  443MOL0     O58379   2.852   5.256   7.264  0.2848 -0.5826 -0.3056
  443MOL0     C58380   2.825   5.345   7.379  0.1018  0.7142  0.1924
  443MOL0     C58381   2.687   5.305   7.429  1.4603  0.1361  0.2803
  443MOL0     C58382   2.577   5.358   7.344  0.2417  0.3217  0.2233
  443MOL0     C58383   2.438   5.328   7.395 -0.2581 -0.1419 -0.1363
  443MOL0     C58384   2.330   5.345   7.281 -0.7785  0.3275 -0.1081
  443MOL0     C58385   2.187   5.318   7.323 -0.3318 -0.2772 -0.5465
  443MOL0     C58386   2.075   5.339   7.220  0.5464  0.4915 -0.1406
  443MOL0     C58387   1.940   5.303   7.282 -1.1690 -0.9754 -0.1219
  443MOL0    Cl58388   1.825   5.240   7.165 -0.1554  0.0269  0.2234
  443MOL0     C58389   3.036   5.113   7.246  0.7216 -0.0253 -0.2108
  443MOL0     C58390   3.173   5.093   7.228  0.8737 -0.1053  0.5603
  443MOL0     O58391   3.392   5.272   6.956 -0.5158 -0.2300  0.3808
  443MOL0     C58392   3.659   5.285   6.943 -0.0528 -0.4579  0.3805
  443MOL0     C58393   3.787   5.256   6.909 -0.4196 -0.0665 -0.0149
  443MOL0     N58394   4.559   4.776   7.188  0.2824  0.6290 -0.0451
  443MOL0     N58395   4.641   4.680   7.184 -0.5252  0.0112 -0.0433
  443MOL0     C58396   5.745   5.354   7.164 -0.0151  0.1727 -0.8013
  443MOL0     C58397   5.876   5.404   7.176  0.1514 -0.0855 -0.2872
  443MOL0     C58398   6.236   5.598   7.048 -0.4109 -0.1710  0.1048
  443MOL0     C58399   6.271   5.714   6.976  0.2921 -0.7770 -0.1279
  443MOL0     C58400   6.391   5.787   7.011 -0.0508  0.6437 -0.1771
  443MOL0     C58401   6.460   5.759   7.128  0.7867  0.2558 -0.2917
  443MOL0     O58402   6.562   5.837   7.174 -0.1547 -0.3380 -0.8737
  443MOL0     C58403   6.641   5.911   7.091  0.3470 -0.0382  0.4489
  443MOL0     C58404   6.787   5.927   7.134 -0.1791 -0.5882 -0.3054
  443MOL0     C58405   6.860   6.035   7.042  0.6183  0.2230 -0.4410
  443MOL0     C58406   6.969   6.108   7.110  0.3243 -0.3753  0.1289
  443MOL0     C58407   7.063   6.010   7.156  0.4382 -0.3386 -0.4282
  443MOL0     C58408   7.140   5.938   7.202 -0.4407 -0.5230  1.2126
  443MOL0     C58409   6.414   5.646   7.203 -0.7832  0.8088  0.0313
  443MOL0     C58410   6.315   5.567   7.166 -0.1973  0.7239 -0.3362
  443MOL0     H58411   6.020   5.224   6.939 -0.0115 -0.9533  1.1935
  443MOL0     H58412   5.793   5.124   6.919  0.2192  0.5077 -2.4373
  443MOL0     H58413   5.609   5.010   7.029 -2.2753  0.4803  1.3526
  443MOL0     H58414   5.550   5.099   6.892  1.3621 -1.1253 -0.0604
  443MOL0     H58415   5.342   5.130   7.016  2.0092 -0.7305 -4.4017
  443MOL0     H58416   5.403   5.049   7.166 -2.5416  1.2011  0.3766
  443MOL0     H58417   5.416   4.847   7.033  1.1869 -0.1029 -1.7465
  443MOL0     H58418   5.342   4.930   6.889 -1.2494  0.1234  0.0676
  443MOL0     H58419   5.216   4.862   7.161 -1.6046 -0.2681 -0.0932
  443MOL0     H58420   5.161   4.991   7.057  1.9918  1.0918 -0.5870
  443MOL0     H58421   5.184   4.683   7.010 -1.1694 -1.3752 -2.4380
  443MOL0     H58422   5.129   4.792   6.887  3.1038  0.3924 -0.2807
  443MOL0     H58423   4.940   4.836   7.065 -0.0318 -0.2107 -1.6481
  443MOL0     H58424   5.015   4.699   7.155  2.8230  0.0152 -0.5526
  443MOL0     H58425   4.888   4.703   6.873 -0.4792 -2.5882 -1.0159
  443MOL0     H58426   4.988   4.573   6.933  0.7718 -0.8215  2.1929
  443MOL0     H58427   4.837   4.547   7.130 -0.2751  0.6186  0.6886
  443MOL0     H58428   4.772   4.499   6.982  2.4080 -1.4928 -0.5967
  443MOL0     H58429   4.681   4.808   6.886  1.6802 -0.7418  0.4912
  443MOL0     H58430   4.492   5.027   6.948  2.0634 -2.1314 -0.9801
  443MOL0     H58431   4.464   5.025   7.119 -2.7807 -1.2045  1.3923
  443MOL0     H58432   4.272   4.892   7.121 -1.7810 -0.8644 -0.9740
  443MOL0     H58433   4.307   4.825   6.970 -0.7969  1.0454 -2.0470
  443MOL0     H58434   4.262   5.122   6.997 -0.0520 -0.1814  2.6867
  443MOL0     H58435   4.233   5.014   6.855  3.5887  2.6834  0.2889
  443MOL0     H58436   4.083   5.041   7.124  0.7336 -0.1580 -0.1685
  443MOL0     H58437   4.009   4.943   7.001 -3.8067  1.3177  2.9252
  443MOL0     H58438   3.838   5.018   7.148  1.5325 -1.0458 -1.3219
  443MOL0     H58439   3.610   5.045   7.186  1.8834  0.1211  2.4040
  443MOL0     H58440   3.274   5.414   7.192 -1.5721  0.7843  4.2512
  443MOL0     H58441   3.023   5.442   7.229  1.3417 -0.2841 -0.7155
  443MOL0     H58442   2.834   5.449   7.346  0.7302  0.7064  0.3240
  443MOL0     H58443   2.896   5.317   7.457  0.4073  1.9717  0.3839
  443MOL0     H58444   2.680   5.342   7.532 -0.3027 -1.9735  0.9902
  443MOL0     H58445   2.680   5.196   7.439 -0.1392  0.1756 -0.1177
  443MOL0     H58446   2.573   5.298   7.253  0.8664 -0.4836  0.7183
  443MOL0     H58447   2.592   5.463   7.320  3.0306 -0.1966 -0.5810
  443MOL0     H58448   2.442   5.232   7.448  2.3840 -0.4502 -0.7270
  443MOL0     H58449   2.411   5.407   7.466 -2.9571  0.3312 -1.5321
  443MOL0     H58450   2.366   5.292   7.192  3.7752  0.7458  1.2099
  443MOL0     H58451   2.331   5.450   7.251 -0.1024  0.5081  0.5312
  443MOL0     H58452   2.168   5.380   7.411  1.7053  0.0838 -0.3171
  443MOL0     H58453   2.174   5.221   7.372 -0.5273  0.7233  1.4987
  443MOL0     H58454   2.077   5.439   7.176  0.5918  0.8500  0.6490
  443MOL0     H58455   2.103   5.264   7.146  1.0834 -0.6934  1.2109
  443MOL0     H58456   1.903   5.385   7.345  1.1974  0.8586 -0.9820
  443MOL0     H58457   1.952   5.217   7.349  0.2784 -0.7076 -0.0001
  443MOL0     H58458   2.961   5.034   7.258 -0.8104  1.2440 -1.0682
  443MOL0     H58459   3.211   4.992   7.238  0.6004 -0.1321  1.4118
  443MOL0     H58460   3.614   5.360   6.879 -0.6633 -0.8089  0.3857
  443MOL0     H58461   3.855   5.318   6.850  1.7251 -2.3574 -0.1031
  443MOL0     H58462   5.667   5.373   7.237 -0.7013 -3.5088 -0.3571
  443MOL0     H58463   5.904   5.485   7.243 -0.5143  1.2813 -1.5860
  443MOL0     H58464   6.220   5.744   6.885 -2.3224 -0.5312  1.3143
  443MOL0     H58465   6.413   5.876   6.953 -0.6380  1.3535  0.6668
  443MOL0     H58466   6.601   6.011   7.067  0.1812 -0.5156 -1.4150
  443MOL0     H58467   6.657   5.860   6.996  0.8969  0.3160  0.3450
  443MOL0     H58468   6.790   5.957   7.240 -4.2531 -0.3466 -0.0971
  443MOL0     H58469   6.845   5.835   7.134  0.3640 -0.2873 -2.5413
  443MOL0     H58470   6.787   6.106   7.000  0.9485  1.5188  1.0749
  443MOL0     H58471   6.899   5.981   6.956  1.4969 -0.1610  0.1808
  443MOL0     H58472   7.009   6.196   7.059  0.3416 -0.5618 -0.1891
  443MOL0     H58473   6.918   6.157   7.193 -2.2451  2.1669 -2.6912
  443MOL0     H58474   7.221   5.875   7.233 -0.6315 -1.4323 -0.0740
  443MOL0     H58475   6.463   5.626   7.298 -0.9925 -0.0628 -0.0405
  443MOL0     H58476   6.293   5.477   7.223 -3.1648  0.8456 -1.1002
  444MOL0     O58477   8.059   8.489   4.231 -0.5485  0.1225  0.5117
  444MOL0     C58478   8.130   8.537   4.319  0.1379 -0.3160  0.1796
  444MOL0     O58479   8.102   8.541   4.452  0.1591 -1.0314  0.0701
  444MOL0     C58480   7.979   8.491   4.491  0.0501 -1.0587  0.3048
  444MOL0     C58481   7.976   8.416   4.607 -0.0501 -0.0162  0.1754
  444MOL0     C58482   7.860   8.366   4.660 -0.0519  0.3767 -0.6340
  444MOL0     C58483   7.735   8.373   4.601  0.3200 -0.8378 -0.7904
  444MOL0     O58484   7.635   8.297   4.651 -0.4277  0.1393 -0.9569
  444MOL0     C58485   7.517   8.367   4.672  0.5109 -0.2193 -0.6402
  444MOL0     C58486   7.428   8.287   4.761  0.2418  0.8329 -1.1869
  444MOL0     C58487   7.284   8.337   4.763 -0.2876  0.2336 -0.9197
  444MOL0     C58488   7.183   8.232   4.805  0.4084  0.3639  0.7637
  444MOL0     C58489   7.034   8.273   4.797 -0.5914 -0.2922 -0.4344
  444MOL0     C58490   7.006   8.398   4.889  0.3392  1.1023  0.0135
  444MOL0     C58491   6.857   8.454   4.893  0.1119  0.9747  0.8812
  444MOL0     C58492   6.762   8.347   4.924  0.0073  0.5346 -0.4366
  444MOL0     N58493   6.617   8.398   4.927  0.0591  0.2241  0.3935
  444MOL0     C58494   6.566   8.486   5.021  0.4470  0.7824 -0.5459
  444MOL0     C58495   6.444   8.530   4.972  0.2852  0.3109  0.6555
  444MOL0     C58496   6.343   8.612   5.048  0.8786 -0.1736  0.1808
  444MOL0     C58497   6.284   8.726   4.954 -0.1471 -0.6200 -0.0212
  444MOL0     C58498   6.174   8.817   5.021  0.0359 -0.3901  0.1422
  444MOL0     C58499   6.051   8.746   5.063  0.7290 -0.4925 -0.4363
  444MOL0     O58500   5.943   8.826   5.131 -0.1307  0.1231  0.4933
  444MOL0     C58501   5.815   8.773   5.151 -0.4134  0.5796  0.4894
  444MOL0     C58502   5.792   8.633   5.162  0.3195  0.1810 -0.7563
  444MOL0     C58503   5.661   8.591   5.189  0.2427 -1.0019 -0.3256
  444MOL0     C58504   5.555   8.689   5.207 -0.6423  0.1812  0.9530
  444MOL0     C58505   5.422   8.653   5.261 -0.5132  0.4928 -0.5099
  444MOL0     O58506   5.416   8.515   5.285 -0.3690 -0.2682 -0.7807
  444MOL0     C58507   5.297   8.467   5.324  0.0272 -0.0802  0.6350
  444MOL0     C58508   5.187   8.477   5.237  0.0610  0.3313 -0.7766
  444MOL0     C58509   5.061   8.419   5.283 -1.1481 -0.4329  0.2444
  444MOL0     C58510   5.052   8.368   5.416  1.3699 -0.0731  0.0495
  444MOL0     O58511   4.935   8.311   5.465  0.0706 -0.9537 -0.2724
  444MOL0     C58512   4.807   8.336   5.405 -0.0440 -0.2519 -0.6679
  444MOL0     C58513   4.708   8.239   5.458  0.9187  0.0028 -1.3378
  444MOL0     C58514   4.579   8.271   5.395 -0.1010  0.0581  0.1193
  444MOL0     C58515   4.478   8.163   5.434  0.9202 -0.1451  0.0711
  444MOL0     C58516   4.432   8.197   5.581 -0.0229 -0.4179 -0.2319
  444MOL0     C58517   4.286   8.250   5.590 -0.3539  0.3388 -1.1322
  444MOL0     C58518   4.191   8.134   5.589 -0.7688  0.1701  1.0112
  444MOL0     C58519   4.042   8.183   5.586 -1.0115  0.3207 -0.2029
  444MOL0    Cl58520   4.000   8.252   5.424 -0.3704  0.6295  0.4512
  444MOL0     C58521   5.163   8.373   5.500  0.4428  0.6023  0.5981
  444MOL0     C58522   5.282   8.411   5.450 -0.0637 -0.3284  0.6384
  444MOL0     O58523   5.328   8.734   5.252  0.0943 -0.0724 -0.3119
  444MOL0     C58524   5.581   8.828   5.189 -0.8188  0.5076 -0.1896
  444MOL0     C58525   5.710   8.863   5.168 -0.1557  0.6313 -0.1911
  444MOL0     N58526   6.416   8.472   4.851 -0.3678  0.4413  0.1763
  444MOL0     N58527   6.524   8.400   4.824 -0.3187 -0.8489  0.1214
  444MOL0     C58528   7.730   8.446   4.481  0.5406  0.5494  1.4575
  444MOL0     C58529   7.853   8.505   4.425  0.2336 -0.7992  0.3203
  444MOL0     C58530   8.262   8.586   4.272  0.1416 -0.1460  0.1893
  444MOL0     C58531   8.289   8.616   4.139  1.0958  0.2706 -0.0358
  444MOL0     C58532   8.412   8.675   4.107  0.0044 -0.0680 -1.0527
  444MOL0     C58533   8.520   8.692   4.199  0.3010 -0.0918 -0.4602
  444MOL0     O58534   8.645   8.734   4.172 -0.4509  0.1655 -0.4900
  444MOL0     C58535   8.683   8.763   4.036 -0.4336  0.6185  0.2200
  444MOL0     C58536   8.811   8.841   4.051  0.1986 -0.0895  0.2367
  444MOL0     C58537   8.778   8.980   4.125 -0.0810 -0.0569  0.0585
  444MOL0     C58538   8.913   9.041   4.178 -0.3182  0.1618 -0.5425
  444MOL0     C58539   8.924   9.186   4.194  0.5865  1.4873  0.8154
  444MOL0     C58540   8.921   9.303   4.211 -0.7479 -0.1676 -0.9733
  444MOL0     C58541   8.489   8.652   4.334  0.9527 -0.1433  0.8137
  444MOL0     C58542   8.359   8.595   4.366  0.2268 -0.8072  1.1174
  444MOL0     H58543   8.072   8.414   4.657  2.4689  0.2580 -4.1015
  444MOL0     H58544   7.864   8.309   4.753 -2.1348 -1.2756 -1.4783
  444MOL0     H58545   7.470   8.386   4.575 -1.2524 -3.6898 -0.6553
  444MOL0     H58546   7.528   8.460   4.727 -0.4297 -1.5236  1.9116
  444MOL0     H58547   7.474   8.301   4.860 -0.3036 -0.7811 -0.6715
  444MOL0     H58548   7.425   8.181   4.736  1.2773  0.8603 -1.4589
  444MOL0     H58549   7.254   8.349   4.658 -3.9693  1.3918  0.1121
  444MOL0     H58550   7.283   8.432   4.816  1.5868  0.5430 -1.3729
  444MOL0     H58551   7.191   8.146   4.738 -0.0044 -1.7841  3.3428
  444MOL0     H58552   7.197   8.197   4.907  1.1048  1.3041  1.0118
  444MOL0     H58553   6.977   8.184   4.824  1.7347 -1.2857  1.5861
  444MOL0     H58554   6.995   8.298   4.698  1.1658 -0.1314 -1.1260
  444MOL0     H58555   7.082   8.475   4.877  1.4117  0.0168 -0.3098
  444MOL0     H58556   7.021   8.359   4.990 -1.9391  2.8436  1.1144
  444MOL0     H58557   6.837   8.540   4.957  0.4298  1.7659 -0.0581
  444MOL0     H58558   6.834   8.483   4.790  0.3050  1.5456  0.9953
  444MOL0     H58559   6.780   8.306   5.024 -2.1211  0.5372 -0.0195
  444MOL0     H58560   6.777   8.257   4.863  2.4945 -1.3130  2.5953
  444MOL0     H58561   6.594   8.503   5.124 -3.1465 -2.8100  1.2979
  444MOL0     H58562   6.383   8.661   5.137 -4.1156  2.4489  1.3562
  444MOL0     H58563   6.270   8.545   5.094  0.5889  2.2058  3.5967
  444MOL0     H58564   6.248   8.671   4.867  1.0512 -0.2893 -0.7439
  444MOL0     H58565   6.365   8.791   4.919  0.1693 -1.6253 -1.2539
  444MOL0     H58566   6.209   8.867   5.113  0.5238  0.9522 -0.7433
  444MOL0     H58567   6.149   8.903   4.958 -1.0989  1.3203  2.7536
  444MOL0     H58568   6.075   8.652   5.114 -1.7484 -0.2536  1.3406
  444MOL0     H58569   6.015   8.708   4.967  2.6625 -0.3831 -1.2468
  444MOL0     H58570   5.868   8.556   5.148  2.5466  2.0839  0.1682
  444MOL0     H58571   5.650   8.485   5.210 -1.5501 -0.8783 -0.4993
  444MOL0     H58572   5.189   8.526   5.140  0.3126  3.1298  0.5657
  444MOL0     H58573   4.986   8.430   5.206 -3.0061 -0.3398  1.9799
  444MOL0     H58574   4.815   8.340   5.296  1.0529  0.3333 -0.5800
  444MOL0     H58575   4.779   8.439   5.429  1.5591  0.1716 -0.4437
  444MOL0     H58576   4.700   8.256   5.566 -0.4324 -0.8567 -1.2887
  444MOL0     H58577   4.742   8.136   5.443  1.3236 -0.2507  0.8786
  444MOL0     H58578   4.589   8.262   5.287 -1.7985  1.9752 -0.2432
  444MOL0     H58579   4.554   8.375   5.418 -0.8008  0.0022 -0.3651
  444MOL0     H58580   4.394   8.169   5.363 -1.7931 -1.1858  2.9924
  444MOL0     H58581   4.521   8.064   5.420  0.0198 -0.4174 -0.8693
  444MOL0     H58582   4.494   8.284   5.606 -0.6399  1.0759 -3.3561
  444MOL0     H58583   4.453   8.114   5.649  2.9643  0.9284  0.6640
  444MOL0     H58584   4.271   8.320   5.508 -1.1241  0.4106 -0.9338
  444MOL0     H58585   4.277   8.309   5.681  0.8243 -0.0388 -0.7483
  444MOL0     H58586   4.196   8.077   5.495 -0.7600  2.2661 -0.3256
  444MOL0     H58587   4.205   8.064   5.672  0.4241 -2.1880 -1.0079
  444MOL0     H58588   4.029   8.262   5.661 -0.1370 -0.2443  0.5699
  444MOL0     H58589   3.975   8.099   5.605  0.6196 -0.5960  1.9650
  444MOL0     H58590   5.152   8.349   5.605 -2.5434 -0.5715  0.1429
  444MOL0     H58591   5.367   8.403   5.517 -0.4584 -3.2715  0.9496
  444MOL0     H58592   5.507   8.907   5.198 -1.3839 -0.2229  2.3461
  444MOL0     H58593   5.729   8.969   5.158 -0.7039  0.6890 -0.6973
  444MOL0     H58594   7.639   8.449   4.421  2.3955  0.1719 -1.5866
  444MOL0     H58595   7.828   8.561   4.335 -0.1536  0.0231  0.9305
  444MOL0     H58596   8.206   8.610   4.070  0.9760 -1.0152  0.2035
  444MOL0     H58597   8.438   8.697   4.004 -0.2221 -2.6448 -1.7366
  444MOL0     H58598   8.615   8.830   3.983 -0.1293  0.2751 -0.6194
  444MOL0     H58599   8.687   8.673   3.974  0.5740  1.7465 -1.4169
  444MOL0     H58600   8.895   8.783   4.090  1.3426 -1.3525 -3.5951
  444MOL0     H58601   8.843   8.866   3.949 -1.2421 -0.5702 -0.3686
  444MOL0     H58602   8.715   8.964   4.213  0.8796  3.8707  1.6645
  444MOL0     H58603   8.740   9.041   4.042  2.2218 -1.9197 -2.5688
  444MOL0     H58604   8.939   8.989   4.271  1.5085  2.0022  0.0627
  444MOL0     H58605   8.994   9.012   4.109 -0.4891 -0.9672 -0.2900
  444MOL0     H58606   8.936   9.409   4.219  0.1282 -0.4395  3.6869
  444MOL0     H58607   8.557   8.669   4.418  1.5940  2.8405 -0.1836
  444MOL0     H58608   8.333   8.558   4.465 -0.8876 -0.0573  1.1254
  445MOL0     O58609   0.569  10.320   6.691  0.2681 -1.4806 -0.2894
  445MOL0     C58610   0.570  10.306   6.817 -0.6663  0.7469 -0.6629
  445MOL0     O58611   0.459  10.334   6.899  0.0205 -0.2230 -1.2593
  445MOL0     C58612   0.340  10.394   6.851 -0.1294 -0.3999  0.2327
  445MOL0     C58613   0.286  10.386   6.718  0.2986  0.1812  0.3791
  445MOL0     C58614   0.166  10.448   6.690 -0.7668  0.4826  0.3144
  445MOL0     C58615   0.102  10.531   6.789 -0.3115 -0.5726  1.0040
  445MOL0     O58616  -0.009  10.603   6.766 -0.2930  0.1125  0.4264
  445MOL0     C58617  -0.064  10.628   6.633  0.0464 -0.3276  0.4940
  445MOL0     C58618  -0.200  10.703   6.656 -0.3245  0.5139  0.6296
  445MOL0     C58619  -0.300  10.722   6.540  0.1108  0.7262 -0.0625
  445MOL0     C58620  -0.433  10.793   6.563 -0.9276  0.0848  0.2468
  445MOL0     C58621  -0.418  10.947   6.593  0.9291  0.5002  0.1792
  445MOL0     C58622  -0.545  11.030   6.567 -0.0618  0.0565  0.2955
  445MOL0     C58623  -0.566  11.055   6.420 -0.3020 -0.5017 -0.3099
  445MOL0     C58624  -0.658  11.174   6.374 -0.2148 -0.1955 -1.0104
  445MOL0     N58625  -0.789  11.146   6.434  0.0106 -0.0680  0.5430
  445MOL0     C58626  -0.839  11.194   6.550  0.7546  0.6125  0.2346
  445MOL0     C58627  -0.959  11.128   6.570 -0.7136  0.6179 -0.7872
  445MOL0     C58628  -1.035  11.143   6.707 -0.4481 -0.2798  0.0064
  445MOL0     C58629  -1.120  11.270   6.708 -0.5575 -0.2263 -0.4494
  445MOL0     C58630  -1.200  11.293   6.834 -0.5280  0.6133 -0.4191
  445MOL0     C58631  -1.324  11.377   6.801 -0.7117  0.9644  0.7726
  445MOL0     O58632  -1.399  11.402   6.917 -0.3300 -0.1293 -0.7785
  445MOL0     C58633  -1.532  11.366   6.906 -0.6584 -0.7213  0.8634
  445MOL0     C58634  -1.621  11.386   6.793 -0.2367 -0.6204 -0.2697
  445MOL0     C58635  -1.754  11.344   6.805  0.3978  0.0842  0.3806
  445MOL0     C58636  -1.798  11.294   6.925  0.6100  0.4608  0.2776
  445MOL0     C58637  -1.945  11.285   6.951 -0.3467  0.5999  0.5738
  445MOL0     O58638  -1.987  11.211   7.057 -0.4840  0.5475 -0.7074
  445MOL0     C58639  -2.123  11.190   7.071  0.6712 -0.8010 -0.4611
  445MOL0     C58640  -2.179  11.252   7.192 -0.3357  0.6246 -0.6656
  445MOL0     C58641  -2.313  11.223   7.225 -0.5730  0.3206  0.4952
  445MOL0     C58642  -2.397  11.155   7.135 -0.3197 -0.1039 -0.5485
  445MOL0     O58643  -2.531  11.137   7.164  1.0389 -0.1701 -0.0887
  445MOL0     C58644  -2.588  11.125   7.300 -0.7617 -0.1974  0.7334
  445MOL0     C58645  -2.738  11.158   7.301  0.9930  0.0792 -0.2055
  445MOL0     C58646  -2.775  11.293   7.251  0.4225 -0.2571 -0.2747
  445MOL0     C58647  -2.916  11.341   7.306 -0.3952 -0.6131  0.1722
  445MOL0     C58648  -2.970  11.462   7.236 -0.0182 -0.3710  0.3354
  445MOL0     C58649  -3.122  11.471   7.265  0.3832 -0.3174 -0.6567
  445MOL0     C58650  -3.196  11.587   7.193  0.0803 -0.2282  1.3692
  445MOL0     C58651  -3.338  11.596   7.245  0.7130 -0.0492  0.4620
  445MOL0    Cl58652  -3.327  11.694   7.390  0.3718  0.4054  0.2185
  445MOL0     C58653  -2.350  11.122   7.016 -0.4705  0.2651  0.2579
  445MOL0     C58654  -2.209  11.128   6.987  0.3047  0.0911  0.4208
  445MOL0     O58655  -2.015  11.341   6.865 -0.0787 -0.1630 -0.2731
  445MOL0     C58656  -1.714  11.261   7.025 -0.2728 -0.0343 -0.6763
  445MOL0     C58657  -1.582  11.306   7.015 -0.3040 -0.7721 -1.0353
  445MOL0     N58658  -0.986  11.051   6.457  0.5761 -0.0313 -0.0461
  445MOL0     N58659  -0.879  11.060   6.374 -0.5945  0.2594 -0.0005
  445MOL0     C58660   0.143  10.531   6.918  0.4420  0.6905 -0.6529
  445MOL0     C58661   0.263  10.467   6.952 -0.6707  0.1045 -0.5002
  445MOL0     C58662   0.699  10.255   6.880 -0.7268  0.1713  0.3609
  445MOL0     C58663   0.699  10.228   7.015  0.4546  0.0104 -0.7180
  445MOL0     C58664   0.816  10.180   7.078 -1.4857 -0.6232 -0.7925
  445MOL0     C58665   0.927  10.158   7.004 -0.8346 -0.0181 -0.0049
  445MOL0     O58666   1.040  10.121   7.074  0.0846 -0.5653  0.0964
  445MOL0     C58667   1.153  10.055   7.011  0.2235 -0.5348 -0.2051
  445MOL0     C58668   1.114   9.919   6.953 -0.4353 -0.1697 -0.1946
  445MOL0     C58669   1.158   9.901   6.807  0.3951 -0.3367 -1.1398
  445MOL0     C58670   1.105   9.770   6.734 -0.0606  0.1906 -0.9341
  445MOL0     C58671   1.147   9.754   6.600  0.8868  0.2861  0.8757
  445MOL0     C58672   1.198   9.752   6.415  0.6630  0.2124 -0.5878
  445MOL0     C58673   0.930  10.193   6.875 -0.3741 -0.2382  0.1227
  445MOL0     C58674   0.821  10.249   6.812  1.0554 -0.2457 -0.1487
  445MOL0     H58675   0.331  10.331   6.636  1.7469  1.6761  0.1113
  445MOL0     H58676   0.129  10.432   6.589  0.4981 -1.0249  0.0576
  445MOL0     H58677  -0.072  10.535   6.575  3.1405 -0.6072  0.3165
  445MOL0     H58678  -0.009  10.700   6.572 -2.2696  2.5772  1.5937
  445MOL0     H58679  -0.177  10.803   6.694 -2.1142  1.8144 -1.4637
  445MOL0     H58680  -0.260  10.653   6.733  0.6869 -0.6936  0.6731
  445MOL0     H58681  -0.312  10.622   6.497 -0.1442  0.9753 -0.5753
  445MOL0     H58682  -0.243  10.764   6.456  1.4971  0.0012  0.4829
  445MOL0     H58683  -0.491  10.778   6.472 -3.8037  0.2017  1.9309
  445MOL0     H58684  -0.487  10.751   6.648 -1.3369  1.9298  0.9503
  445MOL0     H58685  -0.346  10.983   6.518 -0.2732  2.3116 -0.1720
  445MOL0     H58686  -0.374  10.955   6.693  0.0548 -0.2736  0.6368
  445MOL0     H58687  -0.527  11.131   6.605  2.3844  0.8663 -2.6694
  445MOL0     H58688  -0.639  10.990   6.607  0.0353  0.4772  0.9689
  445MOL0     H58689  -0.466  11.080   6.384  0.0502  1.3785  1.7003
  445MOL0     H58690  -0.603  10.963   6.375 -0.9348 -0.3864 -0.0343
  445MOL0     H58691  -0.666  11.173   6.265  2.5055  1.3711 -1.3189
  445MOL0     H58692  -0.621  11.272   6.404  2.2142 -0.6469 -2.2859
  445MOL0     H58693  -0.794  11.271   6.612  1.1688  1.2971 -0.9046
  445MOL0     H58694  -0.955  11.151   6.782 -0.5090 -0.3583  0.0795
  445MOL0     H58695  -1.096  11.052   6.717  0.8945 -1.3400 -1.0286
  445MOL0     H58696  -1.189  11.256   6.624 -1.2837 -1.6065  0.3387
  445MOL0     H58697  -1.056  11.352   6.676  0.4514 -1.6112 -2.1819
  445MOL0     H58698  -1.241  11.196   6.866  3.0133 -1.6267 -2.0453
  445MOL0     H58699  -1.142  11.341   6.913 -2.1549  1.2356  0.4632
  445MOL0     H58700  -1.381  11.331   6.719 -1.0175  2.0151  0.3618
  445MOL0     H58701  -1.295  11.476   6.764  1.3570  0.2278  0.3080
  445MOL0     H58702  -1.589  11.417   6.694 -0.3764  1.4292  0.2894
  445MOL0     H58703  -1.811  11.360   6.714  0.5744  3.2489  0.7142
  445MOL0     H58704  -2.123  11.327   7.246  1.2690 -2.5307  2.4010
  445MOL0     H58705  -2.344  11.238   7.328 -0.5243 -1.6369  0.8341
  445MOL0     H58706  -2.533  11.175   7.379  0.9946  0.0797 -0.6006
  445MOL0     H58707  -2.573  11.019   7.324  0.8935 -0.2169 -0.2432
  445MOL0     H58708  -2.764  11.157   7.407 -1.8899 -1.2673 -0.8192
  445MOL0     H58709  -2.798  11.083   7.249 -1.8595  1.0177  1.5062
  445MOL0     H58710  -2.788  11.300   7.143 -0.6265 -1.5609 -0.2563
  445MOL0     H58711  -2.694  11.352   7.297  1.2669 -3.4057  2.7289
  445MOL0     H58712  -2.985  11.257   7.289  0.8191 -2.4384  3.3028
  445MOL0     H58713  -2.903  11.356   7.414  1.4016  0.8439 -0.2070
  445MOL0     H58714  -2.943  11.449   7.131  2.7749  1.4979  0.7112
  445MOL0     H58715  -2.913  11.550   7.268 -0.2774 -0.0028 -0.2071
  445MOL0     H58716  -3.135  11.471   7.374 -1.3313  0.2583 -0.8232
  445MOL0     H58717  -3.162  11.375   7.231  1.5363 -0.9451 -0.2984
  445MOL0     H58718  -3.165  11.689   7.216 -0.5453  0.2456  0.1782
  445MOL0     H58719  -3.189  11.567   7.085 -3.4547  0.1212  0.9703
  445MOL0     H58720  -3.397  11.507   7.268 -1.4772  0.7353 -1.6843
  445MOL0     H58721  -3.405  11.652   7.180 -1.5584 -1.5163  1.4121
  445MOL0     H58722  -2.426  11.094   6.943 -1.5969  3.4415  0.0327
  445MOL0     H58723  -2.182  11.075   6.896  0.0669  1.8380 -0.7094
  445MOL0     H58724  -1.743  11.218   7.120 -0.4136  3.2811  0.9206
  445MOL0     H58725  -1.512  11.264   7.088  0.7185 -1.4470 -2.3694
  445MOL0     H58726   0.081  10.570   6.998  0.2895 -1.9240  0.6269
  445MOL0     H58727   0.306  10.458   7.051 -0.2065 -0.7734 -0.7715
  445MOL0     H58728   0.608  10.247   7.070 -0.1534  2.0768 -2.3274
  445MOL0     H58729   0.811  10.168   7.186  2.9049  1.7480 -0.1268
  445MOL0     H58730   1.243  10.054   7.073  2.8867  2.8438 -3.5844
  445MOL0     H58731   1.198  10.118   6.935  5.9518  1.2254  3.9229
  445MOL0     H58732   1.162   9.847   7.020  4.0259  2.9348  0.3420
  445MOL0     H58733   1.005   9.908   6.952 -0.3597 -0.9314 -0.5676
  445MOL0     H58734   1.267   9.907   6.794  0.2163 -1.9430 -4.1026
  445MOL0     H58735   1.123   9.988   6.750 -1.7335 -0.7453 -0.5288
  445MOL0     H58736   1.136   9.678   6.784  1.1849  1.2507  0.3225
  445MOL0     H58737   0.996   9.767   6.729 -0.0877  1.2040 -1.1251
  445MOL0     H58738   1.226   9.747   6.312  0.5928  1.2179 -0.6650
  445MOL0     H58739   1.017  10.191   6.811 -3.2824  0.8728 -4.3362
  445MOL0     H58740   0.839  10.283   6.710  2.3159 -1.9676 -0.5455
  446MOL0     O58741   6.449   5.854   2.871  0.3904 -0.0984 -0.2790
  446MOL0     C58742   6.507   5.959   2.855 -0.1649 -0.0677  0.0527
  446MOL0     O58743   6.440   6.081   2.847 -0.5919  1.2204 -0.0964
  446MOL0     C58744   6.308   6.093   2.852  0.2934 -0.5285  0.4615
  446MOL0     C58745   6.215   6.022   2.764 -0.6785 -0.4313 -0.8266
  446MOL0     C58746   6.083   6.033   2.794 -0.9054 -0.7728 -0.5219
  446MOL0     C58747   6.035   6.135   2.880  0.5553  0.1887 -0.8182
  446MOL0     O58748   5.900   6.152   2.912  0.1039 -0.1645  0.1840
  446MOL0     C58749   5.820   6.237   2.828 -0.2700 -0.4219 -0.1936
  446MOL0     C58750   5.681   6.248   2.906  0.2691 -0.0834 -0.1228
  446MOL0     C58751   5.581   6.359   2.860  0.9034 -0.1438  0.2970
  446MOL0     C58752   5.443   6.340   2.925  0.9495 -0.3561  0.6195
  446MOL0     C58753   5.354   6.458   2.901  0.6300 -1.3909 -0.2919
  446MOL0     C58754   5.234   6.454   3.002  0.2682 -0.0083 -0.4638
  446MOL0     C58755   5.133   6.570   2.981 -0.0678  0.4324 -0.6080
  446MOL0     C58756   5.016   6.572   3.090 -0.3085  0.1844 -0.3879
  446MOL0     N58757   5.064   6.611   3.217  0.1887 -0.6692  0.6292
  446MOL0     C58758   5.095   6.745   3.232 -0.1013 -0.4727  1.0909
  446MOL0     C58759   5.120   6.770   3.359 -0.1015 -0.2030  0.5945
  446MOL0     C58760   5.153   6.901   3.425  1.1678 -0.5787 -0.4463
  446MOL0     C58761   5.058   6.951   3.541  0.6117 -0.2821  0.0755
  446MOL0     C58762   4.922   6.999   3.488  0.6096 -0.6189  0.2532
  446MOL0     C58763   4.833   7.033   3.614  0.0906 -0.3774  0.1044
  446MOL0     O58764   4.712   7.069   3.553  0.1560 -0.2383  0.3766
  446MOL0     C58765   4.594   7.105   3.615 -0.5037 -0.1827  0.3831
  446MOL0     C58766   4.559   7.050   3.736  0.1877  0.0987  0.3372
  446MOL0     C58767   4.436   7.076   3.803  0.4506  0.7799  0.5398
  446MOL0     C58768   4.345   7.166   3.749 -0.9821  0.3640  1.0420
  446MOL0     C58769   4.218   7.195   3.819  0.3921  0.7623  0.4347
  446MOL0     O58770   4.198   7.126   3.931  0.9929  0.3316 -0.6484
  446MOL0     C58771   4.074   7.138   3.980 -0.5251 -0.0219 -0.4813
  446MOL0     C58772   3.957   7.089   3.908 -0.3026  0.6828  0.3903
  446MOL0     C58773   3.831   7.117   3.960  0.2411 -0.3216 -0.3549
  446MOL0     C58774   3.814   7.204   4.079  0.3064 -0.8805  0.1163
  446MOL0     O58775   3.692   7.256   4.121 -0.0157  0.1412 -0.2126
  446MOL0     C58776   3.592   7.281   4.019  0.5318 -0.6657  0.2734
  446MOL0     C58777   3.469   7.187   4.042 -0.6574 -0.0302  0.6600
  446MOL0     C58778   3.349   7.272   4.093 -0.7006  0.1208  0.5936
  446MOL0     C58779   3.231   7.187   4.106 -0.1677  0.1842  0.0016
  446MOL0     C58780   3.120   7.283   4.153  0.4109  0.2022  0.7881
  446MOL0     C58781   2.986   7.259   4.077  0.5623 -0.0574 -0.4488
  446MOL0     C58782   2.911   7.126   4.112  0.2259 -0.2606 -0.6977
  446MOL0     C58783   2.842   7.112   4.253  0.3965 -1.1457  0.4121
  446MOL0    Cl58784   2.701   7.234   4.249  0.1797  0.0456  0.2350
  446MOL0     C58785   3.932   7.235   4.147  0.6289  1.3143  0.2902
  446MOL0     C58786   4.053   7.203   4.100  0.7577 -0.2003 -0.5077
  446MOL0     O58787   4.139   7.279   3.770  1.2845 -0.2672  0.5638
  446MOL0     C58788   4.392   7.234   3.633 -0.4805 -0.0381  0.7335
  446MOL0     C58789   4.511   7.205   3.569 -0.4905 -0.0661  1.2349
  446MOL0     N58790   5.106   6.643   3.426 -0.4238 -0.7325 -0.4108
  446MOL0     N58791   5.071   6.553   3.341  0.1880 -1.4687 -0.5470
  446MOL0     C58792   6.122   6.214   2.956 -0.8646  0.3234 -0.4143
  446MOL0     C58793   6.260   6.187   2.939 -0.5167  0.0425  0.1904
  446MOL0     C58794   6.649   5.949   2.844 -0.6296  0.6346 -0.4645
  446MOL0     C58795   6.733   6.061   2.870  0.2314  1.2522 -0.6864
  446MOL0     C58796   6.871   6.055   2.864  0.0712  0.4299 -0.2208
  446MOL0     C58797   6.928   5.929   2.829  0.8027  0.1985 -0.3600
  446MOL0     O58798   7.066   5.928   2.826 -0.3238 -0.4589  0.3860
  446MOL0     C58799   7.132   5.806   2.809 -0.7436 -0.7212 -0.1063
  446MOL0     C58800   7.287   5.823   2.803  0.3222 -0.3301  0.4937
  446MOL0     C58801   7.338   5.929   2.691 -0.5047  0.0732 -0.2937
  446MOL0     C58802   7.477   5.902   2.681 -0.0922 -0.2689  1.6695
  446MOL0     C58803   7.543   5.966   2.561  0.7880 -0.7142  1.4619
  446MOL0     C58804   7.602   6.011   2.462  0.2276 -0.6713 -0.4519
  446MOL0     C58805   6.848   5.813   2.807 -0.7285 -0.4569 -0.2555
  446MOL0     C58806   6.714   5.827   2.816  0.4608 -1.1873 -0.9112
  446MOL0     H58807   6.233   5.933   2.705 -0.4045 -0.0841 -1.2748
  446MOL0     H58808   6.011   5.971   2.741 -2.2927 -0.0384  0.4254
  446MOL0     H58809   5.809   6.224   2.720  0.8226  1.7890 -0.6151
  446MOL0     H58810   5.857   6.340   2.831  0.2350 -0.5032 -2.3630
  446MOL0     H58811   5.708   6.270   3.010  4.1012 -1.4655 -0.6701
  446MOL0     H58812   5.635   6.149   2.907  0.0954 -0.0160 -0.7888
  446MOL0     H58813   5.576   6.346   2.751  3.2898  2.1424 -0.1817
  446MOL0     H58814   5.615   6.462   2.876  0.5440 -0.3828  3.0942
  446MOL0     H58815   5.390   6.251   2.891 -1.7668  0.3835  2.6363
  446MOL0     H58816   5.458   6.324   3.032 -0.9062 -0.2349  0.9235
  446MOL0     H58817   5.318   6.464   2.798 -2.2441 -2.8600  0.4969
  446MOL0     H58818   5.413   6.548   2.918 -0.1659 -0.7196 -1.0065
  446MOL0     H58819   5.264   6.441   3.106  3.0783  1.0089 -1.0359
  446MOL0     H58820   5.172   6.369   2.973  1.8254 -1.8220  1.2156
  446MOL0     H58821   5.180   6.668   2.991  0.7800 -0.0003 -0.3180
  446MOL0     H58822   5.077   6.568   2.887 -3.6258  0.1500  1.3167
  446MOL0     H58823   4.966   6.478   3.115  0.4955  0.2815  1.8299
  446MOL0     H58824   4.943   6.648   3.059  0.2264  0.7572 -0.2743
  446MOL0     H58825   5.101   6.818   3.152  1.4133  0.1269  1.7128
  446MOL0     H58826   5.154   6.979   3.348  0.1555 -1.4036 -1.3250
  446MOL0     H58827   5.253   6.896   3.468  1.8444 -0.3070 -1.9267
  446MOL0     H58828   5.103   7.039   3.589 -4.4468  1.9238  1.3482
  446MOL0     H58829   5.046   6.866   3.608 -1.5090 -0.7477 -0.8257
  446MOL0     H58830   4.926   7.092   3.431 -1.1590  0.0442  1.1579
  446MOL0     H58831   4.884   6.920   3.422  2.9679 -1.4710 -0.1791
  446MOL0     H58832   4.882   7.116   3.666  2.8451 -0.0342 -2.6933
  446MOL0     H58833   4.813   6.948   3.679  1.3047 -1.2617 -0.6373
  446MOL0     H58834   4.612   6.960   3.769  0.6212  0.6475  1.1714
  446MOL0     H58835   4.404   7.022   3.892 -0.2040 -0.2405 -0.2816
  446MOL0     H58836   3.946   7.036   3.814  0.4799  1.7757 -0.3315
  446MOL0     H58837   3.747   7.095   3.895  1.7106 -0.3181 -2.3770
  446MOL0     H58838   3.628   7.286   3.916 -1.0034 -1.6378 -0.3299
  446MOL0     H58839   3.562   7.380   4.056  0.7718 -1.4266  2.6898
  446MOL0     H58840   3.486   7.100   4.108  0.3088 -0.1063  0.3215
  446MOL0     H58841   3.446   7.145   3.944  0.8608  0.0188  0.2636
  446MOL0     H58842   3.343   7.344   4.011  0.5242 -0.1768  0.2124
  446MOL0     H58843   3.383   7.318   4.186  1.2865  1.6633 -0.7871
  446MOL0     H58844   3.211   7.142   4.008  1.3533 -2.7986  0.9356
  446MOL0     H58845   3.253   7.104   4.173 -2.0054 -1.9800 -1.9339
  446MOL0     H58846   3.155   7.384   4.131  1.1998 -0.0980  0.6073
  446MOL0     H58847   3.088   7.277   4.257  0.5108  1.2523  0.8897
  446MOL0     H58848   2.987   7.260   3.967 -0.8394 -2.0059 -0.5153
  446MOL0     H58849   2.911   7.335   4.103  1.8841  2.4040 -3.2195
  446MOL0     H58850   2.839   7.100   4.034  0.8292 -0.5410 -1.1725
  446MOL0     H58851   2.986   7.049   4.089  0.9308 -0.1133  0.9883
  446MOL0     H58852   2.917   7.128   4.331  2.2168  0.2012 -1.4578
  446MOL0     H58853   2.799   7.012   4.264  1.0867 -1.8181 -2.0950
  446MOL0     H58854   3.911   7.292   4.237 -0.3787  0.2274  0.7592
  446MOL0     H58855   4.144   7.244   4.144  0.4277  1.1809 -1.0632
  446MOL0     H58856   4.323   7.302   3.584 -1.0430  0.4404  2.1559
  446MOL0     H58857   4.531   7.258   3.477  3.4014  2.2785  3.1780
  446MOL0     H58858   6.088   6.291   3.023  1.3750  1.2385 -0.2595
  446MOL0     H58859   6.337   6.246   2.990  0.3580 -0.1947 -0.8287
  446MOL0     H58860   6.684   6.157   2.884 -2.0212 -0.0486  1.0992
  446MOL0     H58861   6.932   6.142   2.887  1.9690 -1.1385  0.9389
  446MOL0     H58862   7.104   5.781   2.706 -0.9353 -0.7800 -0.0391
  446MOL0     H58863   7.106   5.724   2.876 -0.9207 -1.3876 -0.9659
  446MOL0     H58864   7.316   5.859   2.902  0.0963  3.0480 -0.5154
  446MOL0     H58865   7.323   5.721   2.787 -0.1098 -0.2960 -0.8361
  446MOL0     H58866   7.317   6.028   2.733  0.3426 -1.2505  3.6919
  446MOL0     H58867   7.292   5.911   2.593  1.3777  0.3452 -1.2707
  446MOL0     H58868   7.530   5.933   2.771  0.7572 -0.0573  1.1090
  446MOL0     H58869   7.503   5.796   2.676  0.8743  0.0049  0.0504
  446MOL0     H58870   7.666   6.037   2.380 -0.3495 -2.7707 -1.6509
  446MOL0     H58871   6.890   5.719   2.772  0.6940  0.2596 -0.5647
  446MOL0     H58872   6.659   5.738   2.788 -1.4278  0.2202 -1.9536
  447MOL0     O58873   5.899   1.945   9.078  0.3134  0.6015 -0.2765
  447MOL0     C58874   5.994   1.899   9.013  0.6308  0.6085  0.0432
  447MOL0     O58875   5.981   1.861   8.885  0.0758  0.6431 -0.5153
  447MOL0     C58876   5.872   1.896   8.818 -0.8397 -0.0338  0.5408
  447MOL0     C58877   5.766   1.816   8.829 -0.1771 -0.1016 -0.0025
  447MOL0     C58878   5.658   1.843   8.737 -0.7456 -0.0359 -0.5052
  447MOL0     C58879   5.654   1.955   8.652  0.3805 -0.1019 -0.8235
  447MOL0     O58880   5.541   1.987   8.581 -0.0746  0.6251  0.8709
  447MOL0     C58881   5.418   1.914   8.607 -0.0272  0.5566 -0.7718
  447MOL0     C58882   5.309   1.978   8.524 -0.0712 -0.4674  0.4334
  447MOL0     C58883   5.173   1.917   8.541 -0.0791 -0.2068 -0.0379
  447MOL0     C58884   5.073   1.959   8.423  1.1554 -0.1816 -0.5485
  447MOL0     C58885   4.927   1.924   8.471 -0.3258 -0.1967 -0.4779
  447MOL0     C58886   4.813   1.945   8.366  0.0212 -0.2030  0.7636
  447MOL0     C58887   4.673   1.939   8.422  0.3818  0.1313 -0.6406
  447MOL0     C58888   4.576   1.997   8.321  0.8994 -0.1251  0.2911
  447MOL0     N58889   4.434   1.997   8.356  0.5463 -0.1673  0.3345
  447MOL0     C58890   4.362   2.102   8.395 -0.1610 -0.6901  0.6384
  447MOL0     C58891   4.231   2.067   8.390 -0.6682 -0.6585 -0.0954
  447MOL0     C58892   4.105   2.142   8.438  0.0381  0.6401  0.2909
  447MOL0     C58893   3.998   2.144   8.335  0.3760 -0.0997  0.2464
  447MOL0     C58894   3.907   2.260   8.353 -0.2376 -0.2581 -0.2475
  447MOL0     C58895   3.783   2.251   8.256 -0.0036 -0.5328 -1.2270
  447MOL0     O58896   3.688   2.359   8.283  0.3015 -0.5647 -0.7122
  447MOL0     C58897   3.568   2.353   8.213 -0.0486  0.3889  0.4437
  447MOL0     C58898   3.526   2.242   8.127 -0.4414  0.4052 -1.3347
  447MOL0     C58899   3.403   2.254   8.063  0.5592 -0.3387 -0.4154
  447MOL0     C58900   3.323   2.376   8.071 -0.1984 -0.0725  0.6461
  447MOL0     C58901   3.185   2.380   8.023 -0.1909  0.0703 -0.6409
  447MOL0     O58902   3.114   2.491   8.026 -0.2534 -0.0128  0.1401
  447MOL0     C58903   3.021   2.499   7.923 -0.5415  0.8236  0.2988
  447MOL0     C58904   2.889   2.461   7.941 -0.1736 -0.7948 -0.2091
  447MOL0     C58905   2.799   2.464   7.832 -0.1127  0.0918 -0.6793
  447MOL0     C58906   2.834   2.508   7.705  0.3950 -0.7548 -0.7144
  447MOL0     O58907   2.750   2.494   7.595  0.3756  0.1010 -0.4006
  447MOL0     C58908   2.612   2.535   7.627 -0.5250  0.1953  0.6855
  447MOL0     C58909   2.540   2.600   7.506  0.9286  0.5118 -0.0798
  447MOL0     C58910   2.391   2.588   7.513 -0.7481  0.1502  0.6945
  447MOL0     C58911   2.334   2.654   7.644  0.0474  0.5097 -0.1756
  447MOL0     C58912   2.183   2.683   7.645  0.4496  0.4197 -0.2283
  447MOL0     C58913   2.086   2.555   7.661  0.7499 -0.0393  0.3764
  447MOL0     C58914   1.939   2.574   7.705 -0.0568 -0.1284  0.2138
  447MOL0     C58915   1.881   2.707   7.648 -0.5409  1.1954  0.1302
  447MOL0    Cl58916   1.885   2.710   7.464  0.4535 -0.0555  0.0310
  447MOL0     C58917   2.959   2.551   7.695 -0.3672 -0.5819  0.4668
  447MOL0     C58918   3.057   2.542   7.801 -0.9153 -0.7082  0.8448
  447MOL0     O58919   3.138   2.274   7.965 -0.3630 -0.2696  1.0806
  447MOL0     C58920   3.374   2.481   8.147  0.4904  0.1113  0.2078
  447MOL0     C58921   3.497   2.470   8.208  0.2604 -0.1387 -0.2949
  447MOL0     N58922   4.226   1.933   8.358 -0.8210  0.6802  0.0515
  447MOL0     N58923   4.349   1.892   8.330  0.5238  0.5773 -0.3569
  447MOL0     C58924   5.766   2.046   8.653  0.4108 -0.1221  0.0024
  447MOL0     C58925   5.875   2.014   8.732  0.2228  0.6470  0.1712
  447MOL0     C58926   6.128   1.902   9.074  0.2245  0.2001  0.4780
  447MOL0     C58927   6.235   1.857   9.002 -0.0108  1.3784  0.2737
  447MOL0     C58928   6.361   1.853   9.067 -0.5007 -0.0658 -0.5444
  447MOL0     C58929   6.378   1.889   9.195  0.0352 -0.0321  0.0943
  447MOL0     O58930   6.507   1.903   9.244  0.1249  0.5303 -0.8566
  447MOL0     C58931   6.528   1.954   9.370 -0.3464  0.2381  0.3600
  447MOL0     C58932   6.679   1.982   9.409  0.8500 -0.0095 -0.2229
  447MOL0     C58933   6.753   1.856   9.450 -0.1391 -0.5132  0.2694
  447MOL0     C58934   6.763   1.750   9.342 -0.3200 -0.8494  0.0604
  447MOL0     C58935   6.880   1.656   9.354  0.3396 -0.7828  1.1470
  447MOL0     C58936   6.961   1.569   9.348 -0.6969 -0.3211  0.2573
  447MOL0     C58937   6.267   1.925   9.271 -0.1241  0.4608  0.5314
  447MOL0     C58938   6.137   1.926   9.215 -0.0094  0.1957 -0.2428
  447MOL0     H58939   5.765   1.724   8.886  0.2232  0.5946  1.1705
  447MOL0     H58940   5.574   1.775   8.749 -3.4908  3.5654  4.0689
  447MOL0     H58941   5.390   1.903   8.712 -1.4673 -0.4892 -1.2364
  447MOL0     H58942   5.430   1.811   8.572  3.5922  0.7218 -0.4218
  447MOL0     H58943   5.323   1.976   8.415 -1.7660 -0.0986  0.1866
  447MOL0     H58944   5.311   2.083   8.555 -0.6013 -1.1737  3.1480
  447MOL0     H58945   5.130   1.939   8.639  2.2326 -0.5649  1.1357
  447MOL0     H58946   5.179   1.807   8.543 -1.0429 -0.2591  1.9881
  447MOL0     H58947   5.079   2.067   8.408  1.5413 -0.1916 -0.4562
  447MOL0     H58948   5.086   1.907   8.327 -4.0477 -2.0331 -0.6245
  447MOL0     H58949   4.917   1.977   8.566  4.4686 -0.4793  0.4255
  447MOL0     H58950   4.935   1.817   8.491 -2.6140 -0.1607  0.9298
  447MOL0     H58951   4.808   1.873   8.284 -1.6593 -2.0807  2.3944
  447MOL0     H58952   4.830   2.041   8.316  2.7288 -1.8242 -1.7534
  447MOL0     H58953   4.650   1.833   8.437  0.8079 -0.0299 -1.0896
  447MOL0     H58954   4.670   1.982   8.523 -0.5967 -2.1291  0.3418
  447MOL0     H58955   4.589   1.950   8.223 -1.0800  1.8749 -1.0590
  447MOL0     H58956   4.606   2.102   8.312 -0.2678  0.1755 -0.3284
  447MOL0     H58957   4.408   2.200   8.408  0.1051 -0.8187  0.6589
  447MOL0     H58958   4.123   2.249   8.456 -6.7976  2.1138  0.9766
  447MOL0     H58959   4.076   2.099   8.533  0.0464  1.8964  0.8824
  447MOL0     H58960   3.936   2.055   8.333 -0.9962  0.8198 -2.2044
  447MOL0     H58961   4.041   2.140   8.235  3.8213 -0.3159  1.5911
  447MOL0     H58962   3.884   2.263   8.460  1.0059 -2.0013  0.1000
  447MOL0     H58963   3.956   2.358   8.341 -0.0590  0.0495  2.3811
  447MOL0     H58964   3.750   2.150   8.282  1.6612 -1.3604 -2.2199
  447MOL0     H58965   3.799   2.252   8.148  1.2086  0.9876 -1.0598
  447MOL0     H58966   3.580   2.148   8.127 -3.3499 -1.4228 -0.0861
  447MOL0     H58967   3.372   2.164   8.011  0.9836 -1.1673  0.7299
  447MOL0     H58968   2.844   2.428   8.034 -1.6967  2.1833  0.2293
  447MOL0     H58969   2.711   2.402   7.838  1.4602 -2.2203 -0.3604
  447MOL0     H58970   2.601   2.612   7.704 -2.6727  0.6230  0.0083
  447MOL0     H58971   2.555   2.448   7.661  1.3628 -1.2349  0.3585
  447MOL0     H58972   2.572   2.550   7.414  4.1384  2.6648 -0.2850
  447MOL0     H58973   2.558   2.708   7.510 -1.6590  0.9847  0.6088
  447MOL0     H58974   2.366   2.481   7.512  0.0652 -0.1705  3.6937
  447MOL0     H58975   2.345   2.623   7.421  0.7879 -4.1857 -2.0366
  447MOL0     H58976   2.358   2.582   7.722 -1.7213 -0.0388 -0.1033
  447MOL0     H58977   2.391   2.745   7.661 -1.0920  1.0911  0.6362
  447MOL0     H58978   2.154   2.751   7.564  0.8641  1.3129  0.3536
  447MOL0     H58979   2.175   2.748   7.734  0.0481  1.4812 -1.0166
  447MOL0     H58980   2.141   2.486   7.727  1.6218 -1.1603 -1.4376
  447MOL0     H58981   2.091   2.497   7.568 -0.5985 -1.1106  0.9413
  447MOL0     H58982   1.883   2.484   7.677  0.2247 -0.0001 -0.8052
  447MOL0     H58983   1.932   2.592   7.813  2.6520  1.8240  0.1534
  447MOL0     H58984   1.951   2.778   7.692  1.4686  0.5084 -1.7694
  447MOL0     H58985   1.775   2.716   7.674 -1.8034 -1.1633 -3.4090
  447MOL0     H58986   2.979   2.575   7.591 -0.7087 -0.6600  0.3803
  447MOL0     H58987   3.160   2.577   7.796 -1.3904  0.6849  0.2668
  447MOL0     H58988   3.321   2.576   8.143 -2.2238 -1.3275 -0.0200
  447MOL0     H58989   3.534   2.549   8.272 -1.4164 -0.4797  1.1738
  447MOL0     H58990   5.770   2.123   8.576 -0.9895 -3.2096 -3.4913
  447MOL0     H58991   5.957   2.084   8.719  0.3065  0.5360  0.0979
  447MOL0     H58992   6.218   1.805   8.908 -2.3808 -0.0421  1.3965
  447MOL0     H58993   6.440   1.826   8.998  1.2877  1.1022  0.9824
  447MOL0     H58994   6.478   1.893   9.445  2.2480  0.2882  2.2475
  447MOL0     H58995   6.489   2.056   9.379 -1.0704  0.1012 -0.9284
  447MOL0     H58996   6.736   2.036   9.334  0.3703  0.7955 -0.0232
  447MOL0     H58997   6.673   2.062   9.484 -1.2525 -0.5288  0.2466
  447MOL0     H58998   6.699   1.818   9.538 -0.0010 -0.8986  0.1914
  447MOL0     H58999   6.854   1.891   9.473  0.4407 -1.7652 -0.2657
  447MOL0     H59000   6.671   1.693   9.332 -2.7299  2.9820 -2.6055
  447MOL0     H59001   6.778   1.803   9.247  3.7529 -0.6859  0.5989
  447MOL0     H59002   7.045   1.502   9.350  0.0130  0.5553  0.5522
  447MOL0     H59003   6.281   1.935   9.378 -0.3703  3.2246  0.3605
  447MOL0     H59004   6.061   1.954   9.287  3.9162  2.6011  3.5097
  448MOL0     O59005   9.052   9.576   6.126 -0.3259  0.0849 -0.0480
  448MOL0     C59006   9.048   9.667   6.043  0.4857  0.6923 -0.1516
  448MOL0     O59007   9.157   9.719   5.980 -0.1845  1.1642 -0.4396
  448MOL0     C59008   9.288   9.682   5.998 -0.2088 -0.1806 -1.2252
  448MOL0     C59009   9.375   9.691   5.894 -1.1198  0.1683 -0.4198
  448MOL0     C59010   9.516   9.657   5.914  0.1099  0.0750  0.0166
  448MOL0     C59011   9.570   9.622   6.032 -0.0036  0.1208  0.9707
  448MOL0     O59012   9.710   9.591   6.040 -0.0642  0.0527 -0.0023
  448MOL0     C59013   9.779   9.656   6.156  0.6717  0.2319  0.4387
  448MOL0     C59014   9.884   9.580   6.229  0.2126 -0.1542  0.9980
  448MOL0     C59015   9.875   9.588   6.384  0.8192  0.0183  0.2677
  448MOL0     C59016   9.819   9.458   6.441 -1.0075  0.1907  0.8652
  448MOL0     C59017   9.675   9.422   6.446  0.3866  0.2156  0.6114
  448MOL0     C59018   9.586   9.532   6.500 -1.2770  0.1250  0.1792
  448MOL0     C59019   9.442   9.490   6.516  0.0295 -0.8458 -0.9895
  448MOL0     C59020   9.360   9.616   6.569  0.3800 -0.1344  0.4266
  448MOL0     N59021   9.223   9.575   6.601 -0.6644  0.0008  0.3476
  448MOL0     C59022   9.127   9.534   6.498 -0.9436 -0.8443 -0.0660
  448MOL0     C59023   9.024   9.478   6.571 -0.1820 -0.6085  0.0879
  448MOL0     C59024   8.915   9.397   6.494  0.1848 -0.0032 -0.1250
  448MOL0     C59025   8.781   9.424   6.568  1.1590  0.1164 -0.7338
  448MOL0     C59026   8.653   9.390   6.496 -0.9663  0.5260 -0.6407
  448MOL0     C59027   8.520   9.440   6.551  0.1007  0.2314  0.4404
  448MOL0     O59028   8.445   9.329   6.599 -1.0520  0.5152  1.3675
  448MOL0     C59029   8.319   9.352   6.645 -0.1601 -0.0018  0.0366
  448MOL0     C59030   8.249   9.473   6.633 -1.1856  0.9748 -0.1294
  448MOL0     C59031   8.132   9.497   6.697 -0.2296 -0.9799  0.1287
  448MOL0     C59032   8.065   9.385   6.764 -0.6766  0.1684  1.1304
  448MOL0     C59033   7.925   9.401   6.817 -0.2346 -0.1833 -0.4026
  448MOL0     O59034   7.865   9.305   6.907 -0.2747 -0.6128  0.3610
  448MOL0     C59035   7.740   9.327   6.957  0.0976  0.0472 -0.5760
  448MOL0     C59036   7.620   9.328   6.886  1.0202 -0.7377  0.2556
  448MOL0     C59037   7.493   9.336   6.950  0.8608 -0.6774 -0.2531
  448MOL0     C59038   7.486   9.342   7.089  0.7021 -0.4468 -0.1112
  448MOL0     O59039   7.368   9.324   7.158  0.5171 -0.6680 -0.4663
  448MOL0     C59040   7.342   9.416   7.263  0.2768  0.4198  0.7182
  448MOL0     C59041   7.183   9.427   7.293  0.1881  0.1742 -0.4989
  448MOL0     C59042   7.112   9.482   7.161 -1.0783 -0.7713  0.4909
  448MOL0     C59043   6.972   9.503   7.173  0.7123  0.1038 -0.3102
  448MOL0     C59044   6.934   9.530   7.021 -0.0430 -0.4496 -0.0156
  448MOL0     C59045   6.782   9.526   6.997  0.2980  0.1845  0.2232
  448MOL0     C59046   6.735   9.389   6.967 -0.1335  0.3184 -0.0208
  448MOL0     C59047   6.577   9.396   6.980 -1.0004  0.7501  0.1200
  448MOL0    Cl59048   6.519   9.464   6.826  0.5802 -0.0532  0.1499
  448MOL0     C59049   7.601   9.349   7.164 -0.3233  0.3078 -0.0329
  448MOL0     C59050   7.729   9.343   7.098  0.9126  0.0205  0.4493
  448MOL0     O59051   7.866   9.494   6.767 -0.1973  0.6390  0.4907
  448MOL0     C59052   8.135   9.266   6.779 -0.0295  0.0396  0.5746
  448MOL0     C59053   8.255   9.244   6.716 -0.6436  0.2007  0.7311
  448MOL0     N59054   9.057   9.482   6.710  0.0903  0.4830  0.4270
  448MOL0     N59055   9.176   9.535   6.720  0.4142 -0.2760 -0.2079
  448MOL0     C59056   9.488   9.616   6.136  0.5405  0.5467 -0.3116
  448MOL0     C59057   9.349   9.646   6.129 -0.5660 -0.4796  0.4357
  448MOL0     C59058   8.910   9.721   6.007  1.7537  0.3797 -0.6013
  448MOL0     C59059   8.882   9.833   5.931 -0.0707 -0.6330  0.7021
  448MOL0     C59060   8.746   9.877   5.918 -0.3920  0.1042  0.3492
  448MOL0     C59061   8.641   9.813   5.985  0.0654 -0.4628  0.4099
  448MOL0     O59062   8.509   9.865   5.963 -0.3064  0.9002  0.1994
  448MOL0     C59063   8.419   9.846   6.068 -0.8178 -1.1006  0.1777
  448MOL0     C59064   8.303   9.946   6.073 -1.0058  0.4111 -0.4722
  448MOL0     C59065   8.335  10.073   6.153  0.2243 -0.1336  0.0476
  448MOL0     C59066   8.209  10.172   6.162  0.2793 -0.1976 -0.3504
  448MOL0     C59067   8.076  10.125   6.198  0.0632 -0.7244 -0.7859
  448MOL0     C59068   7.965  10.087   6.214  0.0200 -0.2818 -0.3785
  448MOL0     C59069   8.668   9.697   6.054 -1.1235 -0.2658 -0.4659
  448MOL0     C59070   8.799   9.649   6.064  0.4611  0.5612  0.1098
  448MOL0     H59071   9.345   9.731   5.797 -0.8051  0.2919 -0.4671
  448MOL0     H59072   9.595   9.679   5.842  0.7226  1.5358  1.0814
  448MOL0     H59073   9.704   9.692   6.226 -0.6640 -0.7543 -0.4351
  448MOL0     H59074   9.822   9.749   6.117  2.1172  0.0444  1.4947
  448MOL0     H59075   9.984   9.612   6.201  0.3987 -2.5315 -1.4039
  448MOL0     H59076   9.889   9.477   6.192 -0.2005  0.3520 -0.5357
  448MOL0     H59077   9.814   9.669   6.425 -0.9205 -2.1431  2.3454
  448MOL0     H59078   9.975   9.602   6.425  1.3722  0.5822 -1.2353
  448MOL0     H59079   9.856   9.372   6.385 -1.1197 -0.8503  2.3472
  448MOL0     H59080   9.866   9.455   6.539  2.3876  0.2152 -0.6187
  448MOL0     H59081   9.668   9.324   6.495  4.3926  0.0360  1.1602
  448MOL0     H59082   9.642   9.402   6.344 -2.5436 -1.4324  1.7564
  448MOL0     H59083   9.582   9.611   6.425  1.3561 -2.2969 -2.7488
  448MOL0     H59084   9.626   9.555   6.600  0.5496 -2.9241  0.2784
  448MOL0     H59085   9.393   9.477   6.419 -0.6523  2.0568 -1.1412
  448MOL0     H59086   9.439   9.403   6.582  1.9872 -1.4039 -1.6036
  448MOL0     H59087   9.353   9.692   6.490  0.8422  0.2370  0.7442
  448MOL0     H59088   9.414   9.664   6.650  1.0469  0.5549 -0.4100
  448MOL0     H59089   9.138   9.529   6.391  0.2591  0.1443  0.0020
  448MOL0     H59090   8.935   9.290   6.486  5.7287  0.6586  0.3819
  448MOL0     H59091   8.912   9.438   6.392  0.8819  1.3744  0.3716
  448MOL0     H59092   8.763   9.532   6.570 -0.0210 -0.0598  1.1921
  448MOL0     H59093   8.782   9.376   6.666 -1.5269  1.4850  0.0710
  448MOL0     H59094   8.675   9.424   6.394 -1.0413 -0.1053 -0.8761
  448MOL0     H59095   8.650   9.281   6.480  2.7453  0.3525 -1.1065
  448MOL0     H59096   8.464   9.491   6.471 -0.1281 -0.3432  0.2253
  448MOL0     H59097   8.544   9.507   6.634  0.6042  1.4476 -0.6626
  448MOL0     H59098   8.282   9.565   6.587 -2.9901  2.2859  1.0712
  448MOL0     H59099   8.093   9.598   6.703  0.5332 -0.7409  1.5209
  448MOL0     H59100   7.628   9.318   6.778 -1.3478 -0.4525  0.0016
  448MOL0     H59101   7.398   9.329   6.899 -0.2575  0.2209  1.6456
  448MOL0     H59102   7.368   9.512   7.220 -1.1431  0.2623 -0.5659
  448MOL0     H59103   7.391   9.385   7.356 -1.8152  1.1318  2.1233
  448MOL0     H59104   7.161   9.499   7.373 -0.7945 -1.3725  0.6809
  448MOL0     H59105   7.133   9.334   7.322  0.3834 -0.8768 -3.2357
  448MOL0     H59106   7.127   9.400   7.090  1.1434 -0.0997  0.1082
  448MOL0     H59107   7.171   9.567   7.126  2.3350 -2.9263  0.5886
  448MOL0     H59108   6.914   9.421   7.214  3.3261 -1.6893 -0.0082
  448MOL0     H59109   6.941   9.590   7.233 -1.4544 -1.2247  0.6259
  448MOL0     H59110   6.984   9.464   6.950  0.3498  1.4778 -1.6275
  448MOL0     H59111   6.961   9.634   6.998 -2.8524  0.1457 -0.9892
  448MOL0     H59112   6.760   9.587   6.909  0.5167  0.3834  0.3060
  448MOL0     H59113   6.728   9.574   7.079 -0.5885 -1.4228  0.6338
  448MOL0     H59114   6.771   9.365   6.867 -0.6999  0.4363 -0.2593
  448MOL0     H59115   6.771   9.320   7.043  0.9067  0.8198 -0.0428
  448MOL0     H59116   6.550   9.464   7.061  1.3857  1.8151  0.1099
  448MOL0     H59117   6.543   9.293   6.996  1.6539  0.0693  2.2163
  448MOL0     H59118   7.595   9.332   7.271 -0.3235 -0.6328 -0.1826
  448MOL0     H59119   7.824   9.350   7.150  0.4496 -2.5551  1.8061
  448MOL0     H59120   8.098   9.180   6.833 -1.4736 -0.3990 -1.0419
  448MOL0     H59121   8.302   9.147   6.726  0.5334  0.7322  0.4170
  448MOL0     H59122   9.523   9.585   6.234 -2.5280 -1.4373  0.2959
  448MOL0     H59123   9.302   9.671   6.224 -2.1297  2.8075 -1.0422
  448MOL0     H59124   8.960   9.893   5.884  0.7034  0.6533  3.4473
  448MOL0     H59125   8.725   9.963   5.856  2.5962 -0.4323 -1.6609
  448MOL0     H59126   8.477   9.871   6.157  1.9388 -3.0121 -0.9444
  448MOL0     H59127   8.393   9.740   6.071  1.1425 -1.8493 -3.5597
  448MOL0     H59128   8.260   9.965   5.974 -2.2229 -2.0829 -0.5141
  448MOL0     H59129   8.229   9.898   6.137 -0.0280 -0.6086 -0.0747
  448MOL0     H59130   8.418  10.125   6.105  1.1633 -1.3758  0.2977
  448MOL0     H59131   8.365  10.047   6.255  1.4843 -2.9961 -0.9528
  448MOL0     H59132   8.240  10.249   6.234  0.7790 -1.0191  0.3334
  448MOL0     H59133   8.192  10.198   6.057 -1.0977 -1.1712 -0.3872
  448MOL0     H59134   7.860  10.063   6.207 -0.0939  0.6488 -2.8031
  448MOL0     H59135   8.599   9.634   6.109 -1.5624 -0.6135 -1.3949
  448MOL0     H59136   8.825   9.555   6.111  2.9358  0.3819 -1.4619
  449MOL0     O59137   4.358   0.241  10.122  0.9104  0.9432 -0.0731
  449MOL0     C59138   4.434   0.317  10.182  0.5305 -0.4401 -0.0178
  449MOL0     O59139   4.404   0.450  10.213 -0.2920 -0.0355 -0.6604
  449MOL0     C59140   4.274   0.482  10.214  0.1295  0.0438  0.0286
  449MOL0     C59141   4.209   0.542  10.103  0.3830  1.3756  0.6745
  449MOL0     C59142   4.074   0.572  10.103 -0.1149  0.1057 -0.4546
  449MOL0     C59143   3.996   0.547  10.221 -0.0609  0.1932 -0.4832
  449MOL0     O59144   3.865   0.583  10.224  0.2415  1.1173  0.0840
  449MOL0     C59145   3.770   0.467  10.231 -0.4103 -0.4383  0.4210
  449MOL0     C59146   3.626   0.520  10.202  0.6041  0.4879 -1.2129
  449MOL0     C59147   3.510   0.412  10.180 -0.5250 -0.7914 -0.1271
  449MOL0     C59148   3.387   0.481  10.130  0.4758 -0.0891 -0.4172
  449MOL0     C59149   3.266   0.403  10.075 -0.4749 -0.4661 -0.6266
  449MOL0     C59150   3.138   0.476  10.120 -0.4762  0.2160 -0.1905
  449MOL0     C59151   3.012   0.389  10.092  0.4559  0.0907 -0.4024
  449MOL0     C59152   2.886   0.475  10.075  0.1758  0.0845  0.2068
  449MOL0     N59153   2.859   0.496   9.934 -0.5097  0.1842 -1.0798
  449MOL0     C59154   2.729   0.456   9.886  0.0631  0.9229 -1.0109
  449MOL0     C59155   2.710   0.513   9.774  0.0415 -0.5704 -0.2315
  449MOL0     C59156   2.586   0.506   9.686 -0.4967 -0.5661  0.6882
  449MOL0     C59157   2.610   0.395   9.579 -0.1728  0.0456 -0.0213
  449MOL0     C59158   2.554   0.431   9.442  0.0826 -0.1084  0.0594
  449MOL0     C59159   2.403   0.478   9.433  0.1154  0.0681 -0.2855
  449MOL0     O59160   2.332   0.409   9.536  0.0157 -1.0719  0.2363
  449MOL0     C59161   2.193   0.416   9.537  0.2387  0.0028  0.3184
  449MOL0     C59162   2.121   0.490   9.439  0.0792  0.9088  0.5738
  449MOL0     C59163   1.981   0.505   9.451  0.3771 -0.2460  0.3833
  449MOL0     C59164   1.917   0.442   9.560  0.0279  1.2750  0.0066
  449MOL0     C59165   1.764   0.433   9.556 -0.1883  0.3883 -0.3029
  449MOL0     O59166   1.685   0.504   9.460 -0.0683 -0.1721  0.5726
  449MOL0     C59167   1.549   0.528   9.471 -0.4874 -0.2275  0.5355
  449MOL0     C59168   1.442   0.458   9.411 -0.2586  0.4439  0.6827
  449MOL0     C59169   1.315   0.496   9.433  0.1769 -0.0558 -0.1474
  449MOL0     C59170   1.277   0.610   9.502  0.5107  0.3419 -0.0826
  449MOL0     O59171   1.142   0.612   9.537 -0.5654  1.0416  0.4720
  449MOL0     C59172   1.099   0.745   9.536  0.3766 -0.1505  0.1049
  449MOL0     C59173   0.956   0.748   9.585  0.3298  0.2313 -0.7669
  449MOL0     C59174   0.931   0.848   9.712  0.3055 -0.8603  0.5616
  449MOL0     C59175   0.784   0.837   9.770 -0.6107  0.3243  0.4215
  449MOL0     C59176   0.761   0.953   9.863  0.8278  0.0560 -0.2199
  449MOL0     C59177   0.639   0.927   9.947  0.1135  0.0446  0.5161
  449MOL0     C59178   0.634   1.044  10.044 -0.2499  0.2963 -0.6998
  449MOL0     C59179   0.584   1.178   9.977 -0.6919  0.2609 -0.3246
  449MOL0    Cl59180   0.414   1.171   9.938 -0.1434  0.0374  0.1270
  449MOL0     C59181   1.383   0.693   9.545 -0.3287  0.1725  0.0360
  449MOL0     C59182   1.516   0.651   9.537  0.3066 -0.3751  0.8904
  449MOL0     O59183   1.715   0.381   9.655  0.7073 -0.6994 -0.2997
  449MOL0     C59184   1.994   0.375   9.661  0.0380  0.1551 -0.8673
  449MOL0     C59185   2.130   0.368   9.650  0.5819 -0.3433  0.4204
  449MOL0     N59186   2.802   0.612   9.756 -0.3652  0.8271  0.6595
  449MOL0     N59187   2.893   0.595   9.852 -1.6057 -0.2811  0.2733
  449MOL0     C59188   4.058   0.493  10.332  0.5251  0.7226  0.3437
  449MOL0     C59189   4.195   0.472  10.326  0.5855 -0.2244 -0.2817
  449MOL0     C59190   4.563   0.257  10.204  0.0915 -0.2171  0.7365
  449MOL0     C59191   4.683   0.337  10.208  0.5643  0.0342  1.1208
  449MOL0     C59192   4.808   0.284  10.232 -0.1917  0.2089 -0.8948
  449MOL0     C59193   4.823   0.143  10.243 -0.1260 -0.6834 -0.4104
  449MOL0     O59194   4.935   0.079  10.268  0.5886  0.8680  0.0451
  449MOL0     C59195   5.064   0.140  10.257  0.3357 -0.5271 -0.8506
  449MOL0     C59196   5.139   0.093  10.387  0.0838 -0.0856 -0.0312
  449MOL0     C59197   5.273   0.153  10.405 -0.0043 -1.1249  0.3001
  449MOL0     C59198   5.363   0.117  10.289 -0.7610  0.0278 -0.2946
  449MOL0     C59199   5.498   0.148  10.339  0.4078  0.3061  0.4845
  449MOL0     C59200   5.613   0.172  10.375  0.9035  0.3023 -0.4724
  449MOL0     C59201   4.713   0.063  10.235  0.4703 -0.4029  0.1634
  449MOL0     C59202   4.583   0.115  10.212  0.6862 -0.5530  1.3821
  449MOL0     H59203   4.275   0.553  10.017  2.4895  0.5884  2.1152
  449MOL0     H59204   4.039   0.624  10.015  0.8888  0.2221 -0.7992
  449MOL0     H59205   3.766   0.421  10.330 -2.1841  1.2833  1.2187
  449MOL0     H59206   3.801   0.393  10.157 -1.6519 -1.5895  0.9925
  449MOL0     H59207   3.627   0.581  10.111 -4.0614  4.0881  0.7405
  449MOL0     H59208   3.594   0.591  10.279 -1.4364  0.4659 -1.9832
  449MOL0     H59209   3.498   0.364  10.277 -2.0371 -1.7466 -0.7512
  449MOL0     H59210   3.540   0.336  10.107  0.0091  0.4401 -1.2427
  449MOL0     H59211   3.364   0.546  10.215  2.1188  1.7933 -1.3334
  449MOL0     H59212   3.416   0.544  10.046 -0.3740  1.0310  0.1005
  449MOL0     H59213   3.260   0.295  10.089  1.4295 -0.8974 -2.5573
  449MOL0     H59214   3.268   0.424   9.968 -0.6677  2.5489 -0.1314
  449MOL0     H59215   3.130   0.571  10.066 -2.9505 -0.2745 -0.8312
  449MOL0     H59216   3.135   0.504  10.225 -4.0234 -0.6769  0.0793
  449MOL0     H59217   3.031   0.335   9.999  0.7517 -0.0275 -0.2757
  449MOL0     H59218   3.002   0.318  10.174 -1.2097 -0.0649 -0.7097
  449MOL0     H59219   2.873   0.571  10.125 -2.8880 -1.3742  2.6039
  449MOL0     H59220   2.804   0.425  10.128 -0.6301  0.0873 -0.9877
  449MOL0     H59221   2.661   0.384   9.931  0.7453  1.7639  1.5588
  449MOL0     H59222   2.564   0.599   9.633  0.7257  0.2035  1.4897
  449MOL0     H59223   2.495   0.490   9.746 -1.8971 -0.2037 -1.2534
  449MOL0     H59224   2.559   0.313   9.631  1.4019 -1.8076 -1.2789
  449MOL0     H59225   2.714   0.363   9.572 -0.0079  0.9745 -3.7325
  449MOL0     H59226   2.619   0.509   9.402  1.0502 -0.8694  0.1091
  449MOL0     H59227   2.565   0.343   9.376 -0.3836  0.1694 -0.3996
  449MOL0     H59228   2.365   0.451   9.334 -2.8522  3.7618 -0.3683
  449MOL0     H59229   2.388   0.586   9.448  1.3961  0.9995 -4.2691
  449MOL0     H59230   2.168   0.536   9.353  1.5796  2.9405  2.3593
  449MOL0     H59231   1.923   0.563   9.380  3.1230 -1.5482 -3.1896
  449MOL0     H59232   1.469   0.369   9.354  0.0193 -0.3271  1.9875
  449MOL0     H59233   1.228   0.443   9.397 -3.3411  1.4310  4.9825
  449MOL0     H59234   1.103   0.808   9.447 -2.0901  0.8458  0.5958
  449MOL0     H59235   1.162   0.791   9.613  2.3276 -2.6506  0.1128
  449MOL0     H59236   0.927   0.650   9.624 -2.3021  0.7519 -1.2235
  449MOL0     H59237   0.883   0.772   9.506  0.3176  0.4610 -0.6892
  449MOL0     H59238   0.959   0.950   9.687  1.1563 -1.9529 -3.8713
  449MOL0     H59239   0.997   0.825   9.796 -1.0725  3.8197  3.2895
  449MOL0     H59240   0.713   0.841   9.688  2.4016 -2.5792 -2.6716
  449MOL0     H59241   0.775   0.741   9.823  0.9023  0.3139  0.7058
  449MOL0     H59242   0.746   1.035   9.792  4.0605 -0.9382 -2.2461
  449MOL0     H59243   0.849   0.972   9.925  0.6277  1.3531 -0.3087
  449MOL0     H59244   0.654   0.833  10.002 -0.0015 -0.6179 -0.5499
  449MOL0     H59245   0.546   0.918   9.890  0.8377  2.9833 -1.3506
  449MOL0     H59246   0.558   1.019  10.118 -2.1326  1.6603 -2.0557
  449MOL0     H59247   0.727   1.068  10.096 -0.9883  0.4706  0.5727
  449MOL0     H59248   0.647   1.204   9.892 -1.4252  1.8165 -0.4314
  449MOL0     H59249   0.598   1.251  10.057  0.8805  1.7585 -1.8916
  449MOL0     H59250   1.369   0.791   9.591 -0.5617 -0.1232  0.6041
  449MOL0     H59251   1.579   0.731   9.574 -0.1380  0.9286 -1.0040
  449MOL0     H59252   1.958   0.349   9.760  2.4708  3.0386  0.9657
  449MOL0     H59253   2.189   0.322   9.728 -0.9354 -0.0837  1.7703
  449MOL0     H59254   3.989   0.480  10.415 -0.6771  4.1266  0.0632
  449MOL0     H59255   4.247   0.454  10.420 -0.0167  1.8582  0.5010
  449MOL0     H59256   4.681   0.442  10.182  2.1585  0.1640  1.4439
  449MOL0     H59257   4.887   0.358  10.233  1.9073 -1.8841  0.1785
  449MOL0     H59258   5.065   0.250  10.254 -0.8682 -0.4413  0.7107
  449MOL0     H59259   5.113   0.099  10.168 -2.0570 -0.4372 -2.3033
  449MOL0     H59260   5.076   0.120  10.472 -1.8206 -3.0810 -0.3295
  449MOL0     H59261   5.146  -0.016  10.380 -1.5150 -0.2033 -0.1321
  449MOL0     H59262   5.309   0.121  10.503 -1.3657 -0.4748  1.0394
  449MOL0     H59263   5.257   0.261  10.415 -3.0395 -1.4687  0.0690
  449MOL0     H59264   5.356   0.011  10.263  0.7134  0.1146 -1.1462
  449MOL0     H59265   5.359   0.187  10.205  1.5760  2.6147  1.5604
  449MOL0     H59266   5.714   0.174  10.409  1.3208 -4.5768 -0.7203
  449MOL0     H59267   4.723  -0.045  10.241  1.7816 -0.3999 -1.2717
  449MOL0     H59268   4.498   0.047  10.209 -0.3723  0.7199  1.3154
  450MOL0     O59269   8.342  10.216   9.973  0.0449  0.0437  0.6189
  450MOL0     C59270   8.398  10.257   9.867  0.4667  0.0940  0.8420
  450MOL0     O59271   8.341  10.332   9.763  0.4741 -0.4890 -0.8238
  450MOL0     C59272   8.214  10.360   9.793 -0.2187  0.9457  0.2205
  450MOL0     C59273   8.114  10.277   9.751  0.0203  0.3656 -0.2109
  450MOL0     C59274   7.982  10.316   9.781 -0.3269 -1.2480  0.2804
  450MOL0     C59275   7.953  10.438   9.850 -1.0602  0.3309 -0.8288
  450MOL0     O59276   7.823  10.465   9.875  0.6224 -0.6957 -0.1479
  450MOL0     C59277   7.786  10.590   9.947 -0.3912  0.1441  0.1678
  450MOL0     C59278   7.640  10.599   9.975  0.7590  0.2875  0.1805
  450MOL0     C59279   7.619  10.740  10.017 -0.3123  0.2842 -0.7311
  450MOL0     C59280   7.484  10.758  10.085 -0.2012  1.3049 -1.0451
  450MOL0     C59281   7.424  10.895  10.053  0.5955 -0.1313  0.5245
  450MOL0     C59282   7.294  10.937  10.125  0.9936  0.4129  1.0625
  450MOL0     C59283   7.274  11.083  10.119 -0.3024 -1.1174 -0.0704
  450MOL0     C59284   7.191  11.127   9.998  0.5655  0.3835  0.5702
  450MOL0     N59285   7.051  11.153  10.037 -0.6010  0.4065  0.2366
  450MOL0     C59286   6.957  11.229   9.970 -0.1371 -0.1426 -0.2117
  450MOL0     C59287   6.835  11.192  10.020 -0.9438  0.0855  0.2945
  450MOL0     C59288   6.703  11.248   9.991 -0.1217 -0.3938  0.8228
  450MOL0     C59289   6.611  11.136   9.922 -0.2416 -0.0326 -0.3215
  450MOL0     C59290   6.599  11.163   9.777 -0.5732  0.9543  0.4749
  450MOL0     C59291   6.494  11.258   9.742 -0.1989 -0.3157 -0.9504
  450MOL0     O59292   6.455  11.359   9.845  0.2721  0.2619 -0.1810
  450MOL0     C59293   6.346  11.432   9.800  0.2925  0.0049  0.4278
  450MOL0     C59294   6.229  11.372   9.755 -1.0017  0.8869 -0.4640
  450MOL0     C59295   6.120  11.445   9.717  0.7281  0.7856  0.3720
  450MOL0     C59296   6.125  11.585   9.707 -0.2982 -0.0155 -0.4132
  450MOL0     C59297   5.991  11.663   9.673  0.7354  0.1535  0.0307
  450MOL0     O59298   5.880  11.594   9.642  0.1143 -0.5687  0.3950
  450MOL0     C59299   5.767  11.656   9.586 -0.5224 -0.5181  0.1916
  450MOL0     C59300   5.696  11.577   9.492  0.5807  0.0637  0.0573
  450MOL0     C59301   5.577  11.617   9.455 -0.2115 -0.2833  1.2753
  450MOL0     C59302   5.532  11.753   9.469  0.4094  0.5466 -0.2549
  450MOL0     O59303   5.415  11.810   9.422 -1.1539 -0.1594  0.3400
  450MOL0     C59304   5.348  11.739   9.318 -0.4834  0.5726  0.6313
  450MOL0     C59305   5.236  11.828   9.268 -0.0931 -0.7226 -0.9116
  450MOL0     C59306   5.147  11.764   9.164  0.4423  1.0908 -0.7382
  450MOL0     C59307   5.044  11.859   9.119  1.1661  0.7276  1.4384
  450MOL0     C59308   4.964  11.799   9.000 -0.3727  0.7823  0.8870
  450MOL0     C59309   4.838  11.884   8.976 -0.4057 -0.3101 -0.2632
  450MOL0     C59310   4.772  11.852   8.840  0.0047  0.1269  0.7163
  450MOL0     C59311   4.671  11.955   8.801 -0.2594 -0.4089 -0.4258
  450MOL0    Cl59312   4.567  11.904   8.680  0.0743  0.2517 -0.4345
  450MOL0     C59313   5.620  11.835   9.555  0.6192 -0.7910  1.4135
  450MOL0     C59314   5.729  11.784   9.629  0.0902  0.9910  1.5218
  450MOL0     O59315   6.003  11.780   9.652 -0.1581 -0.6299 -0.3151
  450MOL0     C59316   6.240  11.652   9.750  0.3891 -0.4863 -0.3114
  450MOL0     C59317   6.351  11.572   9.802  0.2234  0.4722  0.7380
  450MOL0     N59318   6.855  11.087  10.108  0.5865  0.1967 -0.0674
  450MOL0     N59319   6.985  11.080  10.133 -0.0767 -0.5583  0.0950
  450MOL0     C59320   8.067  10.506   9.905 -0.4232 -1.6569  0.4732
  450MOL0     C59321   8.188  10.469   9.877 -0.0451  0.2346 -0.7295
  450MOL0     C59322   8.543  10.231   9.862  0.1635 -0.3027 -0.7483
  450MOL0     C59323   8.598  10.228   9.736  0.2281 -0.0902  0.4589
  450MOL0     C59324   8.734  10.195   9.721  0.2773  0.6670 -0.0321
  450MOL0     C59325   8.808  10.157   9.829 -0.3753 -0.2005 -0.9255
  450MOL0     O59326   8.946  10.133   9.824  0.3258  0.7660  0.3121
  450MOL0     C59327   8.997  10.110   9.691 -0.1598 -0.5200  0.5035
  450MOL0     C59328   9.127  10.031   9.697  0.6325 -0.6879 -0.4393
  450MOL0     C59329   9.115   9.891   9.775  0.7822 -1.1691  0.2721
  450MOL0     C59330   9.245   9.811   9.795 -0.1815 -0.0328 -0.1887
  450MOL0     C59331   9.306   9.841   9.927  0.0845  0.4669 -1.0666
  450MOL0     C59332   9.375   9.859  10.030  0.0031  0.1424  0.6877
  450MOL0     C59333   8.750  10.146   9.956  0.1515 -0.4535 -0.1157
  450MOL0     C59334   8.620  10.184   9.974  0.5530 -0.0666 -0.3261
  450MOL0     H59335   8.133  10.189   9.691  0.4889  0.9547 -0.9457
  450MOL0     H59336   7.902  10.256   9.737 -1.9941  0.3912  0.9396
  450MOL0     H59337   7.822  10.680   9.896  2.3616  0.3500  2.2483
  450MOL0     H59338   7.831  10.587  10.046  1.3133 -0.9547 -0.5895
  450MOL0     H59339   7.613  10.520  10.046 -1.9024 -0.3845 -1.4342
  450MOL0     H59340   7.579  10.579   9.887  0.0963 -1.3360  0.9597
  450MOL0     H59341   7.614  10.799   9.925 -1.5714 -1.7946 -2.0722
  450MOL0     H59342   7.706  10.780  10.069 -1.2318  3.9814 -1.7825
  450MOL0     H59343   7.413  10.686  10.044  0.5859  1.2658 -2.4199
  450MOL0     H59344   7.491  10.750  10.194  0.2634  1.1334 -1.0850
  450MOL0     H59345   7.424  10.906   9.944  2.6261 -3.1003  0.0982
  450MOL0     H59346   7.502  10.960  10.095 -2.0028  0.9550  4.2193
  450MOL0     H59347   7.292  10.905  10.230 -1.7315  0.9185  1.2442
  450MOL0     H59348   7.208  10.877  10.093  1.0958  0.1952  1.1879
  450MOL0     H59349   7.221  11.120  10.207 -0.5074  2.2068 -1.4470
  450MOL0     H59350   7.375  11.124  10.119 -0.9634  0.6166  0.8317
  450MOL0     H59351   7.191  11.049   9.921  1.2568 -1.2526  2.1593
  450MOL0     H59352   7.234  11.208   9.938  2.6575 -2.4809 -2.1676
  450MOL0     H59353   6.976  11.313   9.903  1.0175  0.7240  1.1524
  450MOL0     H59354   6.718  11.337   9.930  1.9099 -1.3343 -0.1220
  450MOL0     H59355   6.654  11.273  10.086 -0.9092 -3.9167  1.4864
  450MOL0     H59356   6.514  11.121   9.970 -0.7008  0.3702 -1.1080
  450MOL0     H59357   6.673  11.047   9.933 -0.1008  0.0756 -0.2368
  450MOL0     H59358   6.699  11.182   9.739 -0.2834 -2.1204 -0.5730
  450MOL0     H59359   6.566  11.071   9.727 -1.1549  2.0073 -1.1661
  450MOL0     H59360   6.408  11.203   9.702 -3.1877  3.5645 -0.4179
  450MOL0     H59361   6.537  11.319   9.662  0.1318  0.7104 -0.0205
  450MOL0     H59362   6.226  11.263   9.758  0.0110  0.5914 -4.5430
  450MOL0     H59363   6.024  11.402   9.692  0.2164  2.8588 -1.5037
  450MOL0     H59364   5.731  11.477   9.470 -2.3874 -0.8027 -1.2584
  450MOL0     H59365   5.516  11.546   9.400  1.8184 -1.2351  0.1220
  450MOL0     H59366   5.314  11.642   9.357  1.2469 -0.8647 -1.1739
  450MOL0     H59367   5.416  11.715   9.236 -2.9646  0.5687 -1.5450
  450MOL0     H59368   5.278  11.920   9.227 -0.0258  0.7244  2.0768
  450MOL0     H59369   5.172  11.850   9.354  1.4565 -1.2454  0.4247
  450MOL0     H59370   5.107  11.668   9.198  4.3576 -1.4433 -2.5377
  450MOL0     H59371   5.207  11.749   9.074 -1.0823 -0.9421 -1.5053
  450MOL0     H59372   4.972  11.891   9.195  0.2972  2.1264  0.0945
  450MOL0     H59373   5.081  11.955   9.080 -3.4165  0.6876 -4.3693
  450MOL0     H59374   4.937  11.694   9.019 -0.4796  0.5390 -0.5249
  450MOL0     H59375   5.029  11.796   8.912 -0.0034 -0.6827  1.1659
  450MOL0     H59376   4.870  11.989   8.973  2.6592 -1.1462 -0.4244
  450MOL0     H59377   4.766  11.874   9.057 -0.3854  2.0648  0.1182
  450MOL0     H59378   4.852  11.846   8.766  0.5513  2.6079  1.0272
  450MOL0     H59379   4.728  11.752   8.845  1.0056 -0.3282  0.5598
  450MOL0     H59380   4.719  12.041   8.754 -2.5190  1.7508  1.0087
  450MOL0     H59381   4.614  11.987   8.888  0.9177 -2.5441  1.2284
  450MOL0     H59382   5.587  11.937   9.573  0.1858 -0.6394 -0.0915
  450MOL0     H59383   5.777  11.851   9.700  2.4471 -0.9782  1.8781
  450MOL0     H59384   6.242  11.759   9.765  1.4087 -0.6837  1.0857
  450MOL0     H59385   6.420  11.644   9.845 -0.4433  1.3835  0.3186
  450MOL0     H59386   8.050  10.594   9.967 -2.5774 -2.5845  1.3051
  450MOL0     H59387   8.273  10.516   9.925  1.2551 -2.4118 -0.2465
  450MOL0     H59388   8.537  10.249   9.649  1.0780  0.1261 -0.1089
  450MOL0     H59389   8.775  10.183   9.622 -1.8746  0.6951 -0.9853
  450MOL0     H59390   9.013  10.205   9.639 -3.6396 -0.7873 -1.3176
  450MOL0     H59391   8.926  10.049   9.634 -0.1472 -1.7897  1.7892
  450MOL0     H59392   9.179  10.006   9.603  2.0182  1.4199 -0.2857
  450MOL0     H59393   9.192  10.090   9.762  0.7527 -0.4904 -0.7344
  450MOL0     H59394   9.051   9.826   9.715 -0.7287  1.5639 -1.3030
  450MOL0     H59395   9.068   9.897   9.874 -2.2617 -3.1537 -0.9042
  450MOL0     H59396   9.222   9.704   9.798  0.0675 -0.0777  2.1428
  450MOL0     H59397   9.323   9.831   9.721 -0.5637 -0.2314 -0.6475
  450MOL0     H59398   9.433   9.884  10.116  1.9613 -3.2781  0.5315
  450MOL0     H59399   8.814  10.109  10.036 -1.3173  0.6587  1.6391
  450MOL0     H59400   8.568  10.186  10.069 -1.3032  3.4466 -1.2615
  451MOL0     O59401   9.026  10.197   2.324 -0.8751  0.0566  0.1614
  451MOL0     C59402   8.918  10.236   2.371  0.7280  0.0535  0.7672
  451MOL0     O59403   8.905  10.323   2.478 -0.0074  0.2726 -0.0771
  451MOL0     C59404   9.025  10.357   2.545  1.3277 -0.3079  0.4523
  451MOL0     C59405   9.113  10.440   2.471  0.3319  0.0417  0.0371
  451MOL0     C59406   9.233  10.475   2.526 -0.7477 -0.9668 -0.2390
  451MOL0     C59407   9.275  10.418   2.646 -0.3913 -0.1771  0.5905
  451MOL0     O59408   9.397  10.433   2.693 -0.5404 -0.3086  0.4124
  451MOL0     C59409   9.449  10.570   2.716 -0.2421 -0.0478  0.2974
  451MOL0     C59410   9.536  10.575   2.838 -0.6830 -0.2560 -0.5920
  451MOL0     C59411   9.547  10.721   2.894  0.6371 -0.1299  0.3038
  451MOL0     C59412   9.621  10.729   3.025  0.2458 -0.6345 -0.1332
  451MOL0     C59413   9.682  10.868   3.060 -0.5056  1.2014 -0.2994
  451MOL0     C59414   9.812  10.899   2.974  0.6638  0.3738  0.2333
  451MOL0     C59415   9.897  11.008   3.028 -1.4255 -0.3911 -0.1574
  451MOL0     C59416   9.819  11.142   3.037 -0.3407 -0.0652  0.0176
  451MOL0     N59417   9.916  11.250   3.071  0.1909  0.3438  0.6478
  451MOL0     C59418   9.987  11.275   3.187  0.8204  0.4900 -0.8434
  451MOL0     C59419  10.042  11.398   3.180 -0.9264  0.2710  0.3663
  451MOL0     C59420  10.112  11.473   3.291 -0.4182 -0.1485 -1.0466
  451MOL0     C59421  10.254  11.431   3.312 -0.1545 -0.1562  0.8402
  451MOL0     C59422  10.273  11.294   3.352  0.5224  0.8002 -1.0974
  451MOL0     C59423  10.420  11.259   3.383  0.0115 -1.0518 -0.2009
  451MOL0     O59424  10.515  11.263   3.277  0.8047  0.5218  0.1175
  451MOL0     C59425  10.645  11.222   3.303 -0.7951  0.0512  0.9006
  451MOL0     C59426  10.745  11.228   3.197  0.7250  0.5454  0.3657
  451MOL0     C59427  10.877  11.186   3.212 -0.5950  0.6393 -0.0750
  451MOL0     C59428  10.923  11.148   3.344  0.4616 -0.8792 -0.7169
  451MOL0     C59429  11.067  11.118   3.366  1.2669 -0.0254 -0.4727
  451MOL0     O59430  11.093  11.077   3.497 -0.4460  0.1342  0.5126
  451MOL0     C59431  11.216  11.037   3.535  0.6206  0.2800 -0.2822
  451MOL0     C59432  11.312  11.116   3.602 -0.2776 -0.8570  0.0109
  451MOL0     C59433  11.440  11.059   3.629 -0.4630  0.2452  0.2056
  451MOL0     C59434  11.475  10.926   3.605  0.5603 -0.3650 -0.4229
  451MOL0     O59435  11.596  10.879   3.652  0.5382 -0.1664  0.8685
  451MOL0     C59436  11.654  10.765   3.587 -0.8196 -0.8273 -0.8734
  451MOL0     C59437  11.717  10.668   3.682 -0.2009  0.1527  0.3226
  451MOL0     C59438  11.787  10.571   3.598  0.0547 -0.0668  0.0270
  451MOL0     C59439  11.859  10.463   3.684  1.4682 -0.5707  0.8750
  451MOL0     C59440  11.975  10.400   3.611  0.4902 -0.7805 -0.8744
  451MOL0     C59441  12.060  10.302   3.688 -0.7322  1.1361  0.1855
  451MOL0     C59442  12.001  10.158   3.706  0.9580 -0.3681 -0.5598
  451MOL0     C59443  12.045  10.073   3.821 -0.3872 -0.2327  0.6021
  451MOL0    Cl59444  12.211  10.021   3.777  0.5416 -0.6980  0.3981
  451MOL0     C59445  11.374  10.854   3.535  0.2188  0.2488  1.4544
  451MOL0     C59446  11.248  10.911   3.495 -0.8269  0.0885 -0.6492
  451MOL0     O59447  11.138  11.130   3.268 -0.3439 -0.7569 -0.2228
  451MOL0     C59448  10.832  11.148   3.451  0.1206 -0.3420  0.8858
  451MOL0     C59449  10.697  11.187   3.423  0.5171  0.3117 -0.4799
  451MOL0     N59450  10.024  11.436   3.047  0.1376  0.2046  0.1354
  451MOL0     N59451   9.952  11.350   2.984 -0.4895 -0.4062  0.0143
  451MOL0     C59452   9.194  10.327   2.713  0.4589  0.1637  0.2401
  451MOL0     C59453   9.065  10.287   2.660  0.5561 -0.0761  0.4469
  451MOL0     C59454   8.796  10.199   2.288 -0.0105 -0.0660 -0.6871
  451MOL0     C59455   8.796  10.162   2.147 -0.6227 -0.3207 -0.3956
  451MOL0     C59456   8.687  10.105   2.084  0.3077  0.5657  0.8559
  451MOL0     C59457   8.557  10.115   2.140  0.2811 -0.0733 -0.7933
  451MOL0     O59458   8.445  10.069   2.057 -0.2363 -0.8336 -0.5744
  451MOL0     C59459   8.327  10.029   2.126 -1.1931  0.2102  0.4185
  451MOL0     C59460   8.247   9.943   2.034 -0.0030  0.3537 -0.3152
  451MOL0     C59461   8.127  10.020   1.980 -0.2444  0.1294 -0.1445
  451MOL0     C59462   8.058   9.931   1.884 -0.2837  0.1190  0.3762
  451MOL0     C59463   7.939   9.994   1.815  0.4712  0.1246 -0.6451
  451MOL0     C59464   7.846  10.041   1.755  0.3589 -0.4522 -0.5770
  451MOL0     C59465   8.552  10.157   2.278 -0.0833  0.9402  0.8415
  451MOL0     C59466   8.669  10.201   2.342  0.2657  0.8235 -0.4127
  451MOL0     H59467   9.087  10.484   2.375  0.0279  2.4280  1.1537
  451MOL0     H59468   9.291  10.543   2.465  0.0914 -1.6290 -0.1946
  451MOL0     H59469   9.365  10.636   2.739  0.5746 -0.0319  3.7385
  451MOL0     H59470   9.516  10.612   2.640 -0.8342 -1.0501 -0.8027
  451MOL0     H59471   9.634  10.542   2.800 -0.1319  1.8846 -1.1501
  451MOL0     H59472   9.503  10.502   2.913  1.4311 -0.1336  0.5461
  451MOL0     H59473   9.452  10.776   2.898  0.7652  0.0459  1.8738
  451MOL0     H59474   9.617  10.765   2.823  1.8874  0.0975  1.6228
  451MOL0     H59475   9.554  10.704   3.109 -1.0892  3.7441  0.3362
  451MOL0     H59476   9.698  10.651   3.020  1.3397  0.4893 -4.4388
  451MOL0     H59477   9.710  10.878   3.165 -2.3197 -0.3699  0.3814
  451MOL0     H59478   9.606  10.941   3.031  1.2601  2.9137 -0.8775
  451MOL0     H59479   9.775  10.930   2.875  1.8271 -2.4852 -1.2069
  451MOL0     H59480   9.866  10.806   2.958 -1.4237 -0.9015  0.2215
  451MOL0     H59481   9.928  10.979   3.129  0.5950 -0.6719 -0.8304
  451MOL0     H59482   9.992  11.024   2.978 -0.4788  2.6076  2.3066
  451MOL0     H59483   9.741  11.142   3.113  2.5097 -0.2236  3.1953
  451MOL0     H59484   9.781  11.153   2.935 -1.3756  1.3857  0.5356
  451MOL0     H59485   9.992  11.208   3.273 -0.7670 -0.3864 -1.3965
  451MOL0     H59486  10.048  11.453   3.377 -0.2601 -1.6358 -1.2485
  451MOL0     H59487  10.112  11.580   3.270  0.7545 -0.2353 -1.5788
  451MOL0     H59488  10.306  11.496   3.382 -0.8743  1.2994  0.0798
  451MOL0     H59489  10.295  11.448   3.212  0.6503  3.4083  1.6452
  451MOL0     H59490  10.218  11.268   3.443  1.8460  1.1292 -0.1765
  451MOL0     H59491  10.246  11.233   3.265 -1.3147  1.5353 -1.0909
  451MOL0     H59492  10.407  11.155   3.417 -2.7868 -0.9189 -0.5745
  451MOL0     H59493  10.450  11.318   3.469  0.3502 -1.0851 -0.2937
  451MOL0     H59494  10.722  11.271   3.100  3.0033  1.1290  0.0323
  451MOL0     H59495  10.949  11.202   3.132  1.0077  0.4196  1.2658
  451MOL0     H59496  11.304  11.222   3.625 -0.8005  0.2396 -4.2346
  451MOL0     H59497  11.513  11.116   3.686 -0.7213 -0.3486  1.1545
  451MOL0     H59498  11.727  10.794   3.511  0.2753  1.4326  0.9259
  451MOL0     H59499  11.574  10.708   3.538 -2.3934  0.1873  0.4235
  451MOL0     H59500  11.643  10.616   3.745  0.4844 -0.0559  0.9704
  451MOL0     H59501  11.781  10.709   3.760  1.3480 -2.1825  0.3626
  451MOL0     H59502  11.861  10.629   3.542  0.5202 -1.9230 -1.3890
  451MOL0     H59503  11.731  10.515   3.523  0.4509 -0.8664  0.3143
  451MOL0     H59504  11.893  10.516   3.774  0.5317 -0.6612  1.2939
  451MOL0     H59505  11.782  10.390   3.710  0.8013  0.2030  1.1551
  451MOL0     H59506  12.042  10.479   3.576  1.0476 -0.9360 -0.1839
  451MOL0     H59507  11.931  10.362   3.519  2.0017  1.1118 -2.4673
  451MOL0     H59508  12.066  10.350   3.787 -4.2310 -0.4124  1.3298
  451MOL0     H59509  12.155  10.289   3.636 -1.7422 -0.5551 -1.3501
  451MOL0     H59510  11.897  10.186   3.721  1.2586 -0.8053  3.1870
  451MOL0     H59511  12.010  10.104   3.610 -1.4674  2.9501 -2.8822
  451MOL0     H59512  11.986   9.982   3.826  1.6866 -1.5990  1.9506
  451MOL0     H59513  12.048  10.111   3.924  1.6979 -3.7341  2.0257
  451MOL0     H59514  11.387  10.747   3.534  0.3050  0.1328 -2.4390
  451MOL0     H59515  11.170  10.857   3.442 -1.3800  3.9249 -4.2289
  451MOL0     H59516  10.859  11.115   3.551  0.8769 -3.5582 -0.2247
  451MOL0     H59517  10.622  11.183   3.502 -1.5756 -0.5430 -2.3926
  451MOL0     H59518   9.236  10.287   2.806  0.3566  4.6685  2.5008
  451MOL0     H59519   8.995  10.230   2.720 -1.2073 -0.3528 -1.7361
  451MOL0     H59520   8.896  10.168   2.104  0.2643 -0.8772  1.4617
  451MOL0     H59521   8.688  10.079   1.979 -1.8790  3.2259  0.0392
  451MOL0     H59522   8.263  10.116   2.142 -0.2882  1.0304 -0.2553
  451MOL0     H59523   8.352   9.989   2.224 -0.2316 -1.2336 -0.3729
  451MOL0     H59524   8.304   9.885   1.961 -1.4605 -1.9861  0.2854
  451MOL0     H59525   8.212   9.858   2.094  3.1718 -3.4129 -3.1991
  451MOL0     H59526   8.158  10.113   1.931  5.6192 -0.8630  0.9182
  451MOL0     H59527   8.067  10.058   2.063  0.0893 -0.1806  0.2425
  451MOL0     H59528   8.124   9.909   1.800 -0.4416  0.5515  0.1342
  451MOL0     H59529   8.025   9.841   1.936 -0.9507 -0.7607 -1.4837
  451MOL0     H59530   7.764  10.094   1.710 -0.1740 -1.3645 -0.6871
  451MOL0     H59531   8.454  10.168   2.323  0.2331 -1.3221  2.2517
  451MOL0     H59532   8.656  10.249   2.438  3.5675  2.1083 -0.4475
  452MOL0     O59533   9.914   0.895   7.385 -0.0060 -0.4910 -1.0861
  452MOL0     C59534   9.954   0.801   7.322 -0.8438  0.8521 -0.0929
  452MOL0     O59535   9.878   0.717   7.248  0.9959  0.3893 -0.0884
  452MOL0     C59536   9.741   0.751   7.228 -0.6424 -0.2626  0.3143
  452MOL0     C59537   9.634   0.669   7.267 -0.4394  0.3251 -0.0276
  452MOL0     C59538   9.499   0.700   7.225 -0.6150 -0.3532 -0.0197
  452MOL0     C59539   9.470   0.826   7.164 -0.7015  0.4131 -0.5749
  452MOL0     O59540   9.347   0.861   7.119 -0.6519  0.7065  0.1416
  452MOL0     C59541   9.240   0.810   7.195  0.2842  0.4086 -0.6924
  452MOL0     C59542   9.110   0.874   7.164  0.2893 -0.2343 -0.9408
  452MOL0     C59543   8.986   0.795   7.193  0.6735  0.2546  0.1857
  452MOL0     C59544   8.854   0.875   7.211  0.6185  1.3417  0.4180
  452MOL0     C59545   8.790   0.896   7.072 -0.3345 -0.6495 -0.0362
  452MOL0     C59546   8.730   1.036   7.057  0.1816 -0.2673 -0.0897
  452MOL0     C59547   8.680   1.054   6.908 -0.5198  0.2327 -0.1530
  452MOL0     C59548   8.522   1.067   6.894 -0.1248 -0.4459  0.3318
  452MOL0     N59549   8.458   0.936   6.890  0.0296 -0.5763  0.2409
  452MOL0     C59550   8.490   0.827   6.818 -0.4559 -0.3632  0.5443
  452MOL0     C59551   8.402   0.721   6.857  0.1688 -0.9190 -0.7072
  452MOL0     C59552   8.390   0.584   6.795 -0.1666 -0.6802 -0.4351
  452MOL0     C59553   8.326   0.477   6.888  0.6290 -0.4362 -0.1100
  452MOL0     C59554   8.402   0.346   6.899  0.0557 -0.5767 -0.0161
  452MOL0     C59555   8.516   0.376   6.994  0.3658  0.2076  0.5123
  452MOL0     O59556   8.607   0.270   7.017 -0.0957 -0.1096 -1.2631
  452MOL0     C59557   8.710   0.292   7.110  0.4202 -0.0664  0.4074
  452MOL0     C59558   8.804   0.195   7.101 -0.9009 -0.2276 -0.5864
  452MOL0     C59559   8.915   0.191   7.175  0.4500  0.0065  0.6936
  452MOL0     C59560   8.949   0.304   7.260  0.2915  0.5282 -0.7765
  452MOL0     C59561   9.071   0.323   7.326  0.2639 -1.0791 -0.2451
  452MOL0     O59562   9.146   0.215   7.317  0.0385 -0.3945 -0.1977
  452MOL0     C59563   9.282   0.236   7.331 -0.6393  0.0963  0.7295
  452MOL0     C59564   9.361   0.189   7.445  0.3690  0.6774 -0.0219
  452MOL0     C59565   9.499   0.197   7.427 -0.9114  0.0439 -0.4792
  452MOL0     C59566   9.565   0.237   7.311  0.6606  0.0147 -0.0555
  452MOL0     O59567   9.705   0.212   7.292  0.6825  0.0882 -0.0777
  452MOL0     C59568   9.765   0.283   7.185  0.2559 -0.4357 -0.0252
  452MOL0     C59569   9.914   0.248   7.174 -0.4287  0.0891  1.1479
  452MOL0     C59570   9.978   0.322   7.051 -0.2557 -0.4733 -0.7111
  452MOL0     C59571  10.134   0.292   7.031  0.2567  0.1474 -0.1324
  452MOL0     C59572  10.178   0.366   6.916  0.1466  0.2275 -0.3518
  452MOL0     C59573  10.324   0.380   6.902 -0.0009 -0.2359 -0.9020
  452MOL0     C59574  10.387   0.245   6.874  0.2760  0.1321 -0.3962
  452MOL0     C59575  10.516   0.263   6.789  0.2244  0.6936  0.4340
  452MOL0    Cl59576  10.651   0.324   6.878  0.3819  0.0898  0.4754
  452MOL0     C59577   9.485   0.285   7.204  1.3417  0.4770 -0.7164
  452MOL0     C59578   9.341   0.277   7.220 -0.7367 -0.4832 -0.0806
  452MOL0     O59579   9.109   0.435   7.359 -0.4581  0.2503  0.2528
  452MOL0     C59580   8.860   0.416   7.260 -0.2253 -0.1014 -0.3686
  452MOL0     C59581   8.739   0.405   7.189  0.2358  0.3774  1.5345
  452MOL0     N59582   8.322   0.780   6.951  0.2784 -0.2530  0.0621
  452MOL0     N59583   8.350   0.902   6.968 -0.6393 -0.9459 -0.3896
  452MOL0     C59584   9.584   0.911   7.158 -0.1556 -0.9248  0.2538
  452MOL0     C59585   9.717   0.872   7.176  1.1925  0.3199 -0.1663
  452MOL0     C59586  10.104   0.784   7.305 -0.7519  0.3414  0.2562
  452MOL0     C59587  10.166   0.679   7.226 -0.3248 -0.1154  0.1539
  452MOL0     C59588  10.303   0.669   7.203 -0.1172 -0.1990 -0.2758
  452MOL0     C59589  10.376   0.778   7.247 -0.7432  0.0063  1.1429
  452MOL0     O59590  10.516   0.782   7.232  0.8247  0.0690  0.7231
  452MOL0     C59591  10.589   0.666   7.255 -0.1826 -1.0266 -1.1415
  452MOL0     C59592  10.744   0.693   7.276 -0.3303  0.2783  0.4102
  452MOL0     C59593  10.812   0.777   7.165 -0.2040 -0.2732 -0.1810
  452MOL0     C59594  10.865   0.918   7.204 -0.1014 -0.0820  0.0362
  452MOL0     C59595  10.932   0.978   7.091 -0.3180  0.2608  0.7853
  452MOL0     C59596  10.996   1.011   6.991  0.1201 -0.4552 -1.1086
  452MOL0     C59597  10.319   0.888   7.310 -0.3753 -0.0186  0.8404
  452MOL0     C59598  10.186   0.882   7.345  0.1809 -0.6744  0.9071
  452MOL0     H59599   9.648   0.577   7.323  0.7143  0.3613 -0.2266
  452MOL0     H59600   9.431   0.616   7.234  0.9199 -1.7010 -0.3508
  452MOL0     H59601   9.276   0.828   7.297  1.5278  1.4341 -1.2829
  452MOL0     H59602   9.215   0.705   7.178 -4.3735  0.8903  1.4920
  452MOL0     H59603   9.105   0.908   7.060 -1.2290  1.1399 -0.4561
  452MOL0     H59604   9.113   0.960   7.231  3.3736  0.4361 -1.7788
  452MOL0     H59605   9.001   0.753   7.293  0.1377 -2.1369 -0.6934
  452MOL0     H59606   8.962   0.713   7.125 -5.2461  0.1894  1.7655
  452MOL0     H59607   8.785   0.818   7.273 -0.4608 -0.2029 -2.0368
  452MOL0     H59608   8.891   0.965   7.261  3.1276 -1.8241  4.9131
  452MOL0     H59609   8.710   0.823   7.052  0.2376 -1.6823  1.2552
  452MOL0     H59610   8.864   0.887   6.993 -0.3535  5.4589 -1.2307
  452MOL0     H59611   8.805   1.116   7.067 -1.7363  1.3049  3.3769
  452MOL0     H59612   8.646   1.055   7.123  1.5284 -0.7558  1.8545
  452MOL0     H59613   8.723   1.147   6.870 -1.7794  0.0946 -2.0476
  452MOL0     H59614   8.712   0.975   6.839 -2.7999 -0.6647 -0.2638
  452MOL0     H59615   8.500   1.130   6.808 -2.4588  1.1446  1.9640
  452MOL0     H59616   8.484   1.122   6.981  0.8365  0.7917 -0.0181
  452MOL0     H59617   8.571   0.824   6.746 -1.2529  4.3946 -0.8877
  452MOL0     H59618   8.489   0.563   6.754  1.5409  0.8005  2.5509
  452MOL0     H59619   8.327   0.601   6.707  0.7970  1.5529 -0.7744
  452MOL0     H59620   8.227   0.449   6.851 -0.1624  3.4533 -1.4475
  452MOL0     H59621   8.309   0.510   6.991 -1.6936 -1.9571  0.0720
  452MOL0     H59622   8.335   0.271   6.943 -0.6932 -0.3569 -0.7565
  452MOL0     H59623   8.443   0.320   6.801 -1.4082 -0.5773 -0.6568
  452MOL0     H59624   8.468   0.399   7.089  0.0847 -2.8039  1.2038
  452MOL0     H59625   8.577   0.460   6.959  2.3876  0.0535  3.3255
  452MOL0     H59626   8.791   0.113   7.030  1.3636 -0.1052 -1.2340
  452MOL0     H59627   8.980   0.107   7.154 -0.7191 -1.2432  1.9138
  452MOL0     H59628   9.304   0.166   7.535  0.5274 -0.7312 -0.2509
  452MOL0     H59629   9.565   0.165   7.507  0.0244 -1.3454 -1.7561
  452MOL0     H59630   9.749   0.389   7.208 -1.3730 -0.3836 -1.2136
  452MOL0     H59631   9.725   0.270   7.084  0.5952  0.9483 -0.3523
  452MOL0     H59632   9.925   0.140   7.166 -1.5263  0.0596 -0.6700
  452MOL0     H59633   9.975   0.271   7.262  2.1824 -1.9579 -0.0020
  452MOL0     H59634   9.964   0.427   7.074 -1.9457 -0.4209 -1.7685
  452MOL0     H59635   9.928   0.305   6.955 -0.1529 -0.1900 -0.8137
  452MOL0     H59636  10.188   0.328   7.119  0.1084  2.6887 -0.9879
  452MOL0     H59637  10.156   0.185   7.031  2.8910  0.5959  1.7404
  452MOL0     H59638  10.129   0.463   6.931 -0.8861 -0.1354 -1.3178
  452MOL0     H59639  10.140   0.323   6.823  2.1313 -0.4989 -0.8877
  452MOL0     H59640  10.364   0.405   7.001  0.2793 -1.1886 -0.7675
  452MOL0     H59641  10.357   0.452   6.827  1.2358 -2.4773 -2.6404
  452MOL0     H59642  10.403   0.193   6.969  2.3085  0.5867 -0.4529
  452MOL0     H59643  10.322   0.189   6.806  0.1601  2.5716 -2.4316
  452MOL0     H59644  10.496   0.323   6.700  0.8593  1.6696  0.9414
  452MOL0     H59645  10.550   0.165   6.753 -0.1403  0.4714  0.6838
  452MOL0     H59646   9.524   0.312   7.106 -0.7926  1.7438 -1.2917
  452MOL0     H59647   9.274   0.313   7.143 -0.2924  1.9768  0.5985
  452MOL0     H59648   8.884   0.503   7.320  0.7374 -0.2450 -0.5285
  452MOL0     H59649   8.671   0.490   7.187 -2.1919 -1.3996 -1.9907
  452MOL0     H59650   9.568   1.013   7.123  2.7459 -0.8334 -1.1792
  452MOL0     H59651   9.791   0.949   7.155  2.7118 -0.8361  0.6739
  452MOL0     H59652  10.094   0.605   7.191  0.6163 -2.8958  3.5022
  452MOL0     H59653  10.352   0.588   7.150 -2.2157 -0.0254 -2.6887
  452MOL0     H59654  10.568   0.607   7.164 -0.4734 -0.6054 -1.3529
  452MOL0     H59655  10.566   0.612   7.348  1.8891 -2.0581 -1.1807
  452MOL0     H59656  10.753   0.752   7.368 -1.8737  0.5411  0.4041
  452MOL0     H59657  10.795   0.596   7.280 -1.7990 -0.6055 -0.9875
  452MOL0     H59658  10.734   0.791   7.090 -2.3955 -1.1547  1.8133
  452MOL0     H59659  10.887   0.704   7.133 -0.6906 -0.8923  0.0664
  452MOL0     H59660  10.779   0.979   7.231 -1.3437 -1.7722  0.0834
  452MOL0     H59661  10.928   0.921   7.293 -2.3711 -0.0695  1.7382
  452MOL0     H59662  11.053   1.035   6.903  0.0132 -1.0857 -1.3569
  452MOL0     H59663  10.383   0.969   7.344 -2.0516  1.9474 -0.4136
  452MOL0     H59664  10.158   0.959   7.415  2.7065  0.1171  1.1495
  453MOL0     O59665  10.211   7.142   9.979 -1.0239 -1.0149 -0.0544
  453MOL0     C59666  10.306   7.129   9.902  0.0281  0.4886  0.1897
  453MOL0     O59667  10.364   7.013   9.874 -0.4700 -0.1453  0.6537
  453MOL0     C59668  10.322   6.903   9.947  0.3955 -0.3491 -0.0582
  453MOL0     C59669  10.402   6.850  10.046  0.5057  0.0442 -0.1954
  453MOL0     C59670  10.363   6.726  10.101  0.0137  0.1896  0.1851
  453MOL0     C59671  10.238   6.672  10.068 -0.2689 -0.1253 -0.7872
  453MOL0     O59672  10.190   6.562  10.130  0.1284  0.2825  0.0020
  453MOL0     C59673  10.189   6.564  10.278 -0.3376  0.5071  0.5594
  453MOL0     C59674  10.120   6.443  10.338 -0.3069 -0.2379  0.1609
  453MOL0     C59675   9.970   6.439  10.314  0.4726 -0.2495  0.1155
  453MOL0     C59676   9.901   6.314  10.361  0.8536 -0.7460  0.3357
  453MOL0     C59677   9.751   6.312  10.316  0.6952  0.3985  0.0851
  453MOL0     C59678   9.663   6.197  10.364  0.1747 -0.1602  0.1115
  453MOL0     C59679   9.532   6.201  10.275  0.5324 -0.4025 -0.4835
  453MOL0     C59680   9.435   6.093  10.322  0.8381 -0.5428 -0.6270
  453MOL0     N59681   9.369   6.103  10.453 -0.1842 -0.2407  0.0312
  453MOL0     C59682   9.236   6.142  10.457  0.1150 -0.1398 -0.0982
  453MOL0     C59683   9.194   6.116  10.579 -0.5816  0.9383  0.2236
  453MOL0     C59684   9.054   6.130  10.638 -0.6387 -0.7783  0.4102
  453MOL0     C59685   9.048   6.213  10.764  0.0154  0.5864  0.2546
  453MOL0     C59686   9.072   6.361  10.737  0.3892  0.3708 -0.3652
  453MOL0     C59687   9.220   6.393  10.728 -0.4920 -0.4010  0.7906
  453MOL0     O59688   9.231   6.530  10.750  0.5148 -0.7082 -0.6633
  453MOL0     C59689   9.339   6.605  10.701  0.7709 -0.0146 -0.6115
  453MOL0     C59690   9.333   6.745  10.723  0.1272 -0.3097  0.0890
  453MOL0     C59691   9.449   6.818  10.686  0.0710  0.4805  0.2767
  453MOL0     C59692   9.556   6.758  10.609  0.3699 -0.1020 -0.2776
  453MOL0     C59693   9.666   6.851  10.574 -0.7570  1.0202  0.1019
  453MOL0     O59694   9.759   6.798  10.487  0.3196  0.3579  0.4217
  453MOL0     C59695   9.881   6.856  10.467  0.2780 -0.3488 -0.9514
  453MOL0     C59696   9.975   6.863  10.575 -0.2329  0.1316 -0.5970
  453MOL0     C59697  10.108   6.924  10.559  0.9675  0.3118  0.6121
  453MOL0     C59698  10.149   6.949  10.423  0.6717  1.1829  0.7555
  453MOL0     O59699  10.275   6.987  10.403  0.5464  0.1921 -0.5817
  453MOL0     C59700  10.269   7.108  10.334 -0.0464 -0.0472 -0.0046
  453MOL0     C59701  10.397   7.189  10.395  0.4802  0.1953 -0.1856
  453MOL0     C59702  10.418   7.314  10.312 -0.5687 -0.4796 -1.0068
  453MOL0     C59703  10.494   7.277  10.187 -0.3797 -0.1691  0.1339
  453MOL0     C59704  10.531   7.403  10.101  0.2775  0.6379 -0.5623
  453MOL0     C59705  10.651   7.487  10.157 -0.2814 -0.6985 -0.0336
  453MOL0     C59706  10.711   7.595  10.070 -0.1956  0.2582 -0.9563
  453MOL0     C59707  10.758   7.703  10.159  0.6939  0.1525  0.1917
  453MOL0    Cl59708  10.876   7.797  10.076 -0.1490  0.0858  0.2624
  453MOL0     C59709  10.060   6.946  10.314 -0.0707  0.4154 -0.3827
  453MOL0     C59710   9.926   6.897  10.338  0.0226 -0.0545  0.5145
  453MOL0     O59711   9.670   6.969  10.618  0.0255  0.6840 -0.0085
  453MOL0     C59712   9.549   6.621  10.570  0.7933 -0.1231 -0.3678
  453MOL0     C59713   9.442   6.548  10.631 -0.3954 -0.3183  0.2118
  453MOL0     N59714   9.298   6.054  10.646  0.4184 -0.6981 -0.0738
  453MOL0     N59715   9.403   6.056  10.570 -0.4509  0.7203 -0.2047
  453MOL0     C59716  10.164   6.722   9.965 -0.8623 -0.0661 -0.7740
  453MOL0     C59717  10.201   6.845   9.909  0.5009 -0.2768 -0.5466
  453MOL0     C59718  10.371   7.250   9.838  0.4988  0.1961 -0.6749
  453MOL0     C59719  10.333   7.382   9.869  0.5338  0.2728  0.1708
  453MOL0     C59720  10.392   7.491   9.799 -0.5757 -0.5025  0.1447
  453MOL0     C59721  10.483   7.471   9.689 -0.4812 -0.2807  0.1806
  453MOL0     O59722  10.540   7.572   9.617 -0.2668 -0.5855  0.4022
  453MOL0     C59723  10.526   7.699   9.672 -0.3892 -0.5271 -0.2230
  453MOL0     C59724  10.624   7.806   9.599 -1.0672  0.0212  0.0417
  453MOL0     C59725  10.770   7.772   9.612  0.2826  0.0139  0.5950
  453MOL0     C59726  10.809   7.662   9.505 -0.5686  0.1020 -0.2441
  453MOL0     C59727  10.951   7.626   9.474 -0.0633 -0.0640 -0.1213
  453MOL0     C59728  11.062   7.581   9.462  0.1902 -0.4782 -0.3566
  453MOL0     C59729  10.509   7.335   9.651  0.6979 -0.1688  0.2669
  453MOL0     C59730  10.448   7.234   9.725 -0.4654  0.2766  0.2590
  453MOL0     H59731  10.497   6.892  10.076  0.5783 -1.5415  1.9832
  453MOL0     H59732  10.425   6.684  10.180  1.8612 -2.7681 -2.5822
  453MOL0     H59733  10.141   6.653  10.320  0.0043  1.1293 -0.3490
  453MOL0     H59734  10.290   6.567  10.320  0.8248 -1.2034 -1.8991
  453MOL0     H59735  10.139   6.421  10.443  0.1706 -0.2913  0.0638
  453MOL0     H59736  10.160   6.357  10.284 -0.5570 -0.8965  0.9988
  453MOL0     H59737   9.942   6.442  10.209 -1.7370 -2.0692  0.5701
  453MOL0     H59738   9.919   6.522  10.364  2.4672  0.1840  1.5694
  453MOL0     H59739   9.962   6.238  10.312  0.3996  0.0971 -1.6566
  453MOL0     H59740   9.918   6.301  10.468  2.8961 -2.4751 -0.1377
  453MOL0     H59741   9.745   6.306  10.206 -0.1767 -1.5594  0.2026
  453MOL0     H59742   9.691   6.397  10.348 -1.4845 -0.1036 -2.3623
  453MOL0     H59743   9.655   6.205  10.473  5.6521  1.3139  0.7408
  453MOL0     H59744   9.706   6.100  10.337 -0.1888 -0.0486 -0.9168
  453MOL0     H59745   9.487   6.300  10.272  0.2344 -0.5319 -3.6396
  453MOL0     H59746   9.558   6.177  10.172  1.3450 -2.3746  0.1340
  453MOL0     H59747   9.485   5.997  10.316  0.2034 -0.8703 -0.7941
  453MOL0     H59748   9.358   6.082  10.246 -0.7116 -1.8294  1.0307
  453MOL0     H59749   9.182   6.169  10.368 -1.9021  3.0073  1.9137
  453MOL0     H59750   9.007   6.034  10.658 -0.9187 -1.1840 -1.9252
  453MOL0     H59751   8.987   6.179  10.567  1.6207 -0.9894 -2.0385
  453MOL0     H59752   9.128   6.192  10.836 -0.0575 -1.8057 -0.3123
  453MOL0     H59753   8.948   6.213  10.809  0.3583  3.6393  1.3156
  453MOL0     H59754   9.033   6.395  10.640  0.7280  0.0022 -0.6354
  453MOL0     H59755   9.019   6.415  10.815  2.1489 -0.4797  1.4949
  453MOL0     H59756   9.249   6.374  10.624 -0.1698  3.0807  0.1458
  453MOL0     H59757   9.289   6.333  10.789  0.0503 -3.5524 -2.4954
  453MOL0     H59758   9.261   6.787  10.791 -0.7684 -0.2740 -0.8565
  453MOL0     H59759   9.450   6.926  10.697 -0.6561  0.4245  1.0233
  453MOL0     H59760   9.936   6.815  10.664 -2.4901  1.7654 -0.6016
  453MOL0     H59761  10.170   6.928  10.648  0.7165  1.6904  0.7524
  453MOL0     H59762  10.180   7.171  10.338  0.0017  0.1142 -1.1322
  453MOL0     H59763  10.284   7.081  10.229 -1.9244 -0.0865 -0.2883
  453MOL0     H59764  10.491   7.133  10.398  0.0603 -0.4848  2.8353
  453MOL0     H59765  10.377   7.217  10.499 -1.3487  2.3214 -1.0119
  453MOL0     H59766  10.482   7.383  10.368 -3.2955  0.6177  1.0226
  453MOL0     H59767  10.329   7.370  10.281 -1.5247 -1.3715  0.0403
  453MOL0     H59768  10.591   7.229  10.201  1.0114  2.5370  0.5785
  453MOL0     H59769  10.431   7.212  10.126 -0.2646 -1.1511  1.0450
  453MOL0     H59770  10.437   7.458  10.095 -0.7083 -0.1123  3.9533
  453MOL0     H59771  10.553   7.372   9.999 -1.3381  1.1805 -1.0972
  453MOL0     H59772  10.731   7.421  10.192 -0.8107 -1.7194 -0.6651
  453MOL0     H59773  10.606   7.531  10.246 -1.6203 -0.5418 -0.7492
  453MOL0     H59774  10.789   7.549  10.008  1.1412 -0.0800  0.8808
  453MOL0     H59775  10.636   7.641  10.005 -1.5752 -1.0673 -0.3635
  453MOL0     H59776  10.797   7.665  10.254 -0.5272 -1.2927  0.1466
  453MOL0     H59777  10.675   7.767  10.191 -2.6528 -3.9872  0.6502
  453MOL0     H59778  10.086   6.966  10.210 -0.5052 -1.4406 -0.8908
  453MOL0     H59779   9.858   6.891  10.253  1.3586  1.9382 -0.7757
  453MOL0     H59780   9.629   6.574  10.516  0.9226  1.0597 -1.2491
  453MOL0     H59781   9.442   6.443  10.603  2.8203 -0.1484 -0.8077
  453MOL0     H59782  10.069   6.670   9.952 -1.8216  1.7084 -1.1687
  453MOL0     H59783  10.136   6.872   9.826  1.2242 -1.6612 -1.6148
  453MOL0     H59784  10.252   7.412   9.935  1.9829 -0.7573  2.5408
  453MOL0     H59785  10.355   7.589   9.827  0.6378  0.3003 -0.9830
  453MOL0     H59786  10.558   7.696   9.776 -1.0553  1.3987  0.0739
  453MOL0     H59787  10.428   7.745   9.656  0.1415  0.1811 -1.6914
  453MOL0     H59788  10.592   7.832   9.497 -2.6912  1.2489  0.8130
  453MOL0     H59789  10.618   7.897   9.658 -2.5470 -0.8702  1.3468
  453MOL0     H59790  10.800   7.751   9.715  0.6504  3.2065  1.2331
  453MOL0     H59791  10.833   7.856   9.581 -0.7215  0.7579  0.5303
  453MOL0     H59792  10.757   7.570   9.533 -3.1978  1.6732  0.3933
  453MOL0     H59793  10.766   7.700   9.412 -1.7158  2.3514  1.1015
  453MOL0     H59794  11.165   7.552   9.468  0.1077 -0.8190 -0.5217
  453MOL0     H59795  10.565   7.313   9.561  1.1331  1.7356  0.0371
  453MOL0     H59796  10.469   7.135   9.685 -1.3461  1.1804 -2.7463
  454MOL0     O59797   3.504   4.612   4.330 -0.2234 -0.3735  0.1973
  454MOL0     C59798   3.604   4.625   4.399 -0.4447  0.7655 -0.6414
  454MOL0     O59799   3.607   4.640   4.535 -0.5788  0.2834  0.3626
  454MOL0     C59800   3.494   4.636   4.615  0.5768  0.3820  0.0765
  454MOL0     C59801   3.364   4.687   4.587  0.4430  0.8444 -0.2600
  454MOL0     C59802   3.258   4.678   4.679  0.2980  0.6036  0.3158
  454MOL0     C59803   3.279   4.619   4.804 -1.1720  0.1027 -0.7264
  454MOL0     O59804   3.189   4.609   4.907 -0.0426  0.5664  0.4569
  454MOL0     C59805   3.050   4.656   4.892 -0.2449  0.6546 -1.0447
  454MOL0     C59806   2.961   4.595   5.005 -1.0276 -0.7654  0.5911
  454MOL0     C59807   2.983   4.682   5.135 -0.4564  0.1244  0.3241
  454MOL0     C59808   2.879   4.631   5.237  0.5460 -0.2445 -0.2808
  454MOL0     C59809   2.868   4.723   5.354 -0.1751 -0.1012 -0.3049
  454MOL0     C59810   2.796   4.661   5.478 -0.1072 -0.5529 -0.0535
  454MOL0     C59811   2.662   4.604   5.436  0.0907 -0.3046 -0.6364
  454MOL0     C59812   2.552   4.705   5.405 -0.3690 -0.2425 -0.0484
  454MOL0     N59813   2.411   4.653   5.395 -0.1290  0.1476  0.2607
  454MOL0     C59814   2.303   4.736   5.392 -0.3535  0.2545 -0.4645
  454MOL0     C59815   2.212   4.666   5.325 -0.1271 -0.5619  0.5274
  454MOL0     C59816   2.076   4.703   5.277  0.3440 -0.6027  0.6797
  454MOL0     C59817   1.977   4.697   5.399  0.1579  0.2719  0.6652
  454MOL0     C59818   1.829   4.703   5.343  0.0646 -0.1114 -0.3411
  454MOL0     C59819   1.730   4.720   5.462 -0.7821  0.5625  0.1414
  454MOL0     O59820   1.627   4.790   5.394  0.6410 -0.3202  0.1969
  454MOL0     C59821   1.504   4.731   5.405  0.7745 -0.4135 -1.1219
  454MOL0     C59822   1.418   4.799   5.494  1.1099 -0.2549  0.6231
  454MOL0     C59823   1.284   4.777   5.499 -0.2925 -0.7841  0.5094
  454MOL0     C59824   1.229   4.674   5.411  1.0478 -0.2744 -0.6239
  454MOL0     C59825   1.082   4.650   5.418  0.2231  0.4381 -0.2464
  454MOL0     O59826   1.005   4.727   5.500  1.0902 -0.6779  0.1389
  454MOL0     C59827   0.864   4.721   5.507 -1.5176 -0.7699 -0.1736
  454MOL0     C59828   0.805   4.743   5.632  0.1626  0.2292 -0.4549
  454MOL0     C59829   0.666   4.734   5.651  0.4467  0.0603 -0.7460
  454MOL0     C59830   0.581   4.705   5.544 -0.5856 -0.4980  0.5700
  454MOL0     O59831   0.452   4.690   5.567 -0.1191 -0.1553 -0.1769
  454MOL0     C59832   0.346   4.719   5.473  0.1869 -0.2929  0.1543
  454MOL0     C59833   0.271   4.856   5.514 -0.6161  0.4940  0.3362
  454MOL0     C59834   0.198   4.821   5.639  0.6914  0.8683 -1.0856
  454MOL0     C59835   0.121   4.939   5.710  0.2250 -0.6019 -0.5386
  454MOL0     C59836   0.208   5.056   5.750  0.7238 -0.3854  0.4216
  454MOL0     C59837   0.126   5.166   5.819 -0.2554 -0.4346 -0.1111
  454MOL0     C59838   0.208   5.283   5.859  0.4543  0.1267  0.0494
  454MOL0     C59839   0.119   5.403   5.896  0.5350 -0.3113  0.5050
  454MOL0    Cl59840  -0.013   5.430   5.766  0.2783  0.0797 -0.0283
  454MOL0     C59841   0.636   4.700   5.414 -0.0310  0.0043  0.3699
  454MOL0     C59842   0.779   4.698   5.398 -0.6565  0.5301  0.4598
  454MOL0     O59843   1.041   4.574   5.335 -0.3972  0.3429  0.0428
  454MOL0     C59844   1.321   4.611   5.321 -0.5273 -0.0634 -1.0047
  454MOL0     C59845   1.461   4.643   5.311  0.4248  0.2412  0.9125
  454MOL0     N59846   2.264   4.542   5.284  0.1765 -0.0738 -0.1120
  454MOL0     N59847   2.386   4.533   5.329  0.6437  0.5736 -0.0741
  454MOL0     C59848   3.404   4.557   4.823  1.0057  0.3057  0.9208
  454MOL0     C59849   3.506   4.568   4.732 -1.0621  0.0019  0.0889
  454MOL0     C59850   3.728   4.632   4.324  0.1339  0.1978  0.3240
  454MOL0     C59851   3.733   4.609   4.177 -0.4719  0.4382 -0.1632
  454MOL0     C59852   3.855   4.613   4.108  0.3854 -0.7161  0.5211
  454MOL0     C59853   3.963   4.658   4.177  0.1623 -0.8772 -0.1014
  454MOL0     O59854   4.096   4.686   4.125  0.4062  0.5325  0.8098
  454MOL0     C59855   4.114   4.677   3.984 -0.2651 -0.0126  0.2994
  454MOL0     C59856   4.243   4.748   3.950  0.5748  0.7166 -0.7454
  454MOL0     C59857   4.369   4.677   4.019 -0.2118  0.1379 -0.0474
  454MOL0     C59858   4.502   4.742   4.004 -0.4625 -0.1088 -1.2902
  454MOL0     C59859   4.494   4.885   4.013 -0.5600 -0.7037  1.0466
  454MOL0     C59860   4.503   5.005   4.024 -0.0919  0.0175 -0.8977
  454MOL0     C59861   3.961   4.672   4.314 -0.8704 -0.1877 -0.3420
  454MOL0     C59862   3.844   4.660   4.383  0.8064  0.0889 -1.0168
  454MOL0     H59863   3.349   4.756   4.503  2.2785 -0.5612 -1.8159
  454MOL0     H59864   3.162   4.718   4.649 -0.9336 -2.6972 -0.6582
  454MOL0     H59865   3.004   4.619   4.799  1.6961 -1.3367 -1.3017
  454MOL0     H59866   3.056   4.764   4.904  0.6894  0.4194  0.8783
  454MOL0     H59867   3.000   4.494   5.021 -0.7843 -0.9786 -1.0892
  454MOL0     H59868   2.857   4.605   4.974 -0.3032  5.9522 -1.3688
  454MOL0     H59869   2.960   4.787   5.113  0.9433  0.4373  0.2964
  454MOL0     H59870   3.085   4.672   5.172 -0.2197  1.6204  0.1259
  454MOL0     H59871   2.782   4.636   5.187  1.5341  1.6998 -2.1731
  454MOL0     H59872   2.916   4.532   5.265 -0.9399 -1.5445 -2.5567
  454MOL0     H59873   2.829   4.824   5.334 -3.4083 -0.7836  1.7533
  454MOL0     H59874   2.969   4.736   5.393 -0.4682 -0.2576  0.5251
  454MOL0     H59875   2.786   4.742   5.552 -1.6902 -0.3873 -0.4200
  454MOL0     H59876   2.854   4.574   5.508  3.5870 -0.1011 -4.6576
  454MOL0     H59877   2.668   4.533   5.353 -2.0545  2.4049 -3.3379
  454MOL0     H59878   2.628   4.542   5.520 -1.8824 -0.3934 -1.4657
  454MOL0     H59879   2.580   4.756   5.312  1.3011  0.3579  0.7430
  454MOL0     H59880   2.557   4.786   5.479  2.2115 -2.1830  2.1052
  454MOL0     H59881   2.304   4.840   5.426  1.1942 -0.2156  1.0780
  454MOL0     H59882   2.041   4.633   5.200 -1.1673  0.6311  0.1961
  454MOL0     H59883   2.084   4.803   5.233  3.9495 -2.3311 -3.3588
  454MOL0     H59884   1.997   4.790   5.452 -0.1579 -1.2130  3.5558
  454MOL0     H59885   2.003   4.611   5.462 -1.0669  0.4533  1.4262
  454MOL0     H59886   1.828   4.793   5.281 -0.2071  0.2627  0.2008
  454MOL0     H59887   1.815   4.611   5.286  0.0685 -0.3358  0.0142
  454MOL0     H59888   1.776   4.779   5.542 -3.3429  0.7206  1.5988
  454MOL0     H59889   1.710   4.621   5.504  2.5283 -0.0662  0.5693
  454MOL0     H59890   1.456   4.880   5.555  1.6859 -1.1144  1.4207
  454MOL0     H59891   1.216   4.849   5.544 -0.2569 -0.3019 -0.2066
  454MOL0     H59892   0.863   4.763   5.722 -1.2897 -1.6845  1.0048
  454MOL0     H59893   0.626   4.752   5.750 -0.1935  0.9747 -1.1595
  454MOL0     H59894   0.268   4.643   5.489 -0.6117 -0.1670 -2.6565
  454MOL0     H59895   0.370   4.719   5.367 -3.3927 -0.0666 -0.7913
  454MOL0     H59896   0.204   4.884   5.432  2.9085  0.4516 -2.8936
  454MOL0     H59897   0.343   4.939   5.518 -1.3639  1.2143 -0.6239
  454MOL0     H59898   0.263   4.781   5.717 -0.1913 -0.8243 -1.1735
  454MOL0     H59899   0.123   4.744   5.615  0.5042  1.0165 -0.9851
  454MOL0     H59900   0.056   4.975   5.630  0.3841  4.2684  1.2025
  454MOL0     H59901   0.072   4.897   5.799  1.0586  0.0992  0.2738
  454MOL0     H59902   0.264   5.102   5.669 -0.7512 -1.5397 -1.3448
  454MOL0     H59903   0.284   5.008   5.814  0.2800 -3.0932 -0.9375
  454MOL0     H59904   0.070   5.134   5.907  2.5058 -4.1135  0.5597
  454MOL0     H59905   0.052   5.197   5.745 -1.1925  1.9541  1.6893
  454MOL0     H59906   0.264   5.256   5.949  1.0497 -0.1882 -0.4108
  454MOL0     H59907   0.285   5.309   5.786  0.8061  2.5266  1.1757
  454MOL0     H59908   0.173   5.498   5.894 -2.9574  1.9212  1.3280
  454MOL0     H59909   0.068   5.390   5.992  3.7396 -2.3322  2.1084
  454MOL0     H59910   0.567   4.691   5.332 -3.3428  0.8924  2.8350
  454MOL0     H59911   0.829   4.694   5.302  4.2927  1.7635  2.7218
  454MOL0     H59912   1.286   4.538   5.249  2.5774 -0.3308 -2.3799
  454MOL0     H59913   1.534   4.622   5.233  0.7007 -0.7741  1.4224
  454MOL0     H59914   3.424   4.502   4.915 -0.4866 -1.4600  0.2450
  454MOL0     H59915   3.602   4.533   4.770 -1.7115 -1.7840  0.1664
  454MOL0     H59916   3.646   4.595   4.113 -0.0617  0.9480 -0.8551
  454MOL0     H59917   3.852   4.576   4.006  0.4417  2.6308 -0.8032
  454MOL0     H59918   4.038   4.725   3.923  1.1904 -1.4764 -2.8815
  454MOL0     H59919   4.121   4.569   3.964  2.2889 -0.1014  1.2913
  454MOL0     H59920   4.264   4.762   3.843 -1.1766  2.5200 -0.9213
  454MOL0     H59921   4.231   4.851   3.984  0.5158  0.4238  0.1368
  454MOL0     H59922   4.376   4.573   3.986  2.1938  0.2195  0.0231
  454MOL0     H59923   4.347   4.681   4.126  0.5721 -1.0394  0.1712
  454MOL0     H59924   4.575   4.715   4.080 -1.0642 -0.9022 -0.9753
  454MOL0     H59925   4.524   4.700   3.905 -0.3525 -1.7350 -0.6063
  454MOL0     H59926   4.505   5.111   4.039  2.7596  0.0059 -0.7971
  454MOL0     H59927   4.046   4.704   4.373 -3.3204 -0.8919  4.0887
  454MOL0     H59928   3.847   4.666   4.491 -0.2545  2.7032 -1.0515
  455MOL0     O59929   2.968   4.657   7.305 -0.1446  0.0481  0.0656
  455MOL0     C59930   2.986   4.600   7.409 -1.0028  0.5770 -0.1207
  455MOL0     O59931   2.895   4.567   7.501 -0.3826 -0.2631 -0.4059
  455MOL0     C59932   2.766   4.597   7.486  0.0291  0.0683 -0.4195
  455MOL0     C59933   2.700   4.682   7.391 -0.2708  0.3541 -0.7683
  455MOL0     C59934   2.567   4.699   7.399  0.4211  0.5686  0.6319
  455MOL0     C59935   2.485   4.641   7.491 -0.0327 -0.1587 -0.0731
  455MOL0     O59936   2.348   4.656   7.495 -0.5570  0.0790 -0.3523
  455MOL0     C59937   2.272   4.713   7.388  0.0520 -0.6709 -0.1404
  455MOL0     C59938   2.122   4.730   7.431  0.0838  1.3557  0.7653
  455MOL0     C59939   2.037   4.591   7.403 -0.8976  0.0027  0.1898
  455MOL0     C59940   1.889   4.621   7.426  0.2399  0.2230 -0.7022
  455MOL0     C59941   1.820   4.491   7.385  0.5717  0.3572 -0.7669
  455MOL0     C59942   1.665   4.486   7.405 -1.1792 -1.4348  0.4170
  455MOL0     C59943   1.595   4.366   7.378  0.4245 -0.5733 -1.0177
  455MOL0     C59944   1.647   4.252   7.468 -0.0465  0.0686 -0.2054
  455MOL0     N59945   1.523   4.173   7.507  0.1143 -0.1326  0.0339
  455MOL0     C59946   1.432   4.125   7.423 -0.4143 -0.6765 -0.3451
  455MOL0     C59947   1.328   4.083   7.499 -0.7017  0.0878 -0.2892
  455MOL0     C59948   1.203   4.026   7.438  0.2027 -0.0583  0.7444
  455MOL0     C59949   1.108   3.957   7.533 -0.2690 -0.4705 -0.6014
  455MOL0     C59950   0.969   3.985   7.496 -0.7362 -0.1456  0.4866
  455MOL0     C59951   0.897   4.102   7.575  0.0796  0.6743 -0.3185
  455MOL0     O59952   0.763   4.108   7.538  0.4887  0.4012 -0.0171
  455MOL0     C59953   0.664   4.022   7.590 -0.4115 -0.5419  0.4574
  455MOL0     C59954   0.531   4.024   7.535 -0.1325  0.7960  0.7929
  455MOL0     C59955   0.427   3.952   7.601  0.6798 -0.0524 -0.1855
  455MOL0     C59956   0.451   3.847   7.693 -0.2985  0.4095 -0.3406
  455MOL0     C59957   0.354   3.760   7.764 -0.0890 -0.6369 -0.5215
  455MOL0     O59958   0.223   3.777   7.719 -0.1096 -0.2566  0.4088
  455MOL0     C59959   0.122   3.716   7.792  1.0544 -0.1566  1.2987
  455MOL0     C59960   0.048   3.614   7.738 -0.2784 -0.4947 -0.0346
  455MOL0     C59961  -0.050   3.556   7.814 -0.8328  0.3088  0.4571
  455MOL0     C59962  -0.082   3.602   7.949 -0.2495 -0.7989 -0.6892
  455MOL0     O59963  -0.182   3.544   8.016  1.4513  0.6218 -0.3871
  455MOL0     C59964  -0.147   3.460   8.129 -0.7340 -0.8144  0.2324
  455MOL0     C59965  -0.285   3.404   8.167 -0.0256  1.1532 -0.2031
  455MOL0     C59966  -0.270   3.311   8.289  0.0840 -1.0835 -0.3039
  455MOL0     C59967  -0.196   3.173   8.278 -0.9483  0.4458  0.0262
  455MOL0     C59968  -0.276   3.062   8.339 -0.5298 -0.8413  0.4086
  455MOL0     C59969  -0.374   3.004   8.249  0.9739 -0.8910  0.1050
  455MOL0     C59970  -0.453   2.890   8.301  0.3725 -0.3946  0.3068
  455MOL0     C59971  -0.563   2.859   8.196 -0.1227 -0.4524 -0.0357
  455MOL0    Cl59972  -0.487   2.816   8.038 -0.2571 -0.2724 -0.6480
  455MOL0     C59973  -0.005   3.705   8.000  0.0479  0.2006 -0.6214
  455MOL0     C59974   0.095   3.762   7.920 -1.1840  0.5161  0.4568
  455MOL0     O59975   0.387   3.674   7.853  0.0820 -0.4001 -0.4976
  455MOL0     C59976   0.586   3.856   7.748  0.3396  0.3540  0.2088
  455MOL0     C59977   0.691   3.946   7.706 -0.0457 -0.4228 -0.0620
  455MOL0     N59978   1.357   4.096   7.635  0.6474  0.5839  0.2052
  455MOL0     N59979   1.479   4.158   7.638  1.2827  0.2713  0.2316
  455MOL0     C59980   2.538   4.547   7.578 -0.3418 -0.2294  0.5727
  455MOL0     C59981   2.681   4.531   7.574 -0.6759 -0.5341  0.3451
  455MOL0     C59982   3.126   4.562   7.442  0.0741 -0.3664  0.3203
  455MOL0     C59983   3.232   4.615   7.377 -0.3928 -0.8987  0.1240
  455MOL0     C59984   3.366   4.586   7.410 -0.8602  0.8464 -0.4761
  455MOL0     C59985   3.392   4.491   7.512 -0.0258  0.2385  0.6328
  455MOL0     O59986   3.519   4.464   7.536  0.8915  0.6366 -0.3096
  455MOL0     C59987   3.540   4.386   7.660 -0.4817 -0.1739  0.9295
  455MOL0     C59988   3.690   4.368   7.699  0.6124  0.7626 -0.0397
  455MOL0     C59989   3.783   4.495   7.682  1.0534  0.3197 -1.4217
  455MOL0     C59990   3.731   4.599   7.769  0.0607  0.2137 -0.0009
  455MOL0     C59991   3.833   4.695   7.805 -0.1726 -0.0936 -0.1127
  455MOL0     C59992   3.920   4.760   7.851 -0.4517 -0.3347  1.2304
  455MOL0     C59993   3.279   4.443   7.583 -0.3747  0.0897 -0.4376
  455MOL0     C59994   3.151   4.473   7.548  0.5606 -0.1296 -0.2882
  455MOL0     H59995   2.747   4.735   7.310 -1.3415 -0.3131 -1.8609
  455MOL0     H59996   2.522   4.757   7.318 -0.8653 -1.0789  0.1183
  455MOL0     H59997   2.267   4.656   7.294  2.4003 -0.7922 -0.2640
  455MOL0     H59998   2.314   4.811   7.363  1.5164 -1.5575 -1.3634
  455MOL0     H59999   2.076   4.820   7.388 -1.4246 -0.3448 -1.4277
  455MOL0     H60000   2.114   4.738   7.539 -0.3355 -1.7097  1.0535
  455MOL0     H60001   2.063   4.511   7.473  0.6448 -0.4112 -0.8063
  455MOL0     H60002   2.046   4.558   7.299 -2.2776  3.4713 -1.1625
  455MOL0     H60003   1.868   4.664   7.524 -2.5099  2.1101 -1.9929
  455MOL0     H60004   1.861   4.704   7.360 -2.0409  0.7887  0.8396
  455MOL0     H60005   1.863   4.409   7.443  0.1301  1.1163  0.6871
  455MOL0     H60006   1.847   4.478   7.280 -1.4661  2.1650 -1.6055
  455MOL0     H60007   1.626   4.568   7.343  1.1126  0.2931  1.1572
  455MOL0     H60008   1.643   4.510   7.509 -0.6061  0.1906  0.1858
  455MOL0     H60009   1.488   4.373   7.401  0.3876 -1.8009 -0.7797
  455MOL0     H60010   1.604   4.331   7.275  1.3591 -2.9948 -0.1732
  455MOL0     H60011   1.693   4.284   7.562 -3.6363 -0.0925  1.7571
  455MOL0     H60012   1.718   4.193   7.408 -1.0394  0.4800 -1.8491
  455MOL0     H60013   1.442   4.122   7.315  0.2976 -1.1281 -0.2729
  455MOL0     H60014   1.251   3.959   7.367  1.6902  0.9354  0.7755
  455MOL0     H60015   1.155   4.099   7.371  1.4798  0.3864  0.2883
  455MOL0     H60016   1.136   3.987   7.634 -2.0140  1.1005 -0.5229
  455MOL0     H60017   1.124   3.849   7.530 -1.6062 -1.0862  4.8560
  455MOL0     H60018   0.965   3.998   7.387  0.6925 -2.1032  0.1333
  455MOL0     H60019   0.909   3.896   7.516 -0.0527 -0.8590 -0.5035
  455MOL0     H60020   0.948   4.188   7.530  0.4382  1.1902  1.0287
  455MOL0     H60021   0.903   4.095   7.684  0.4943 -0.2630 -0.3959
  455MOL0     H60022   0.501   4.085   7.451 -1.4384  0.2493  0.8438
  455MOL0     H60023   0.332   3.960   7.549  0.7844 -2.3343 -0.8360
  455MOL0     H60024   0.082   3.578   7.641  1.6107 -2.3617  1.2333
  455MOL0     H60025  -0.121   3.482   7.779  0.7982 -1.2299  0.2356
  455MOL0     H60026  -0.113   3.525   8.210 -1.7134 -0.9836  0.7936
  455MOL0     H60027  -0.070   3.388   8.099  0.0973 -0.5044  1.5356
  455MOL0     H60028  -0.317   3.349   8.078  1.3111 -0.4384  0.2523
  455MOL0     H60029  -0.357   3.484   8.185 -1.4599 -0.1489  0.1384
  455MOL0     H60030  -0.373   3.304   8.325  0.4128  4.0315  2.5752
  455MOL0     H60031  -0.229   3.364   8.375  2.2740 -1.1995 -1.2072
  455MOL0     H60032  -0.169   3.146   8.175 -5.0306 -1.3528 -0.7717
  455MOL0     H60033  -0.097   3.186   8.324 -0.4071 -0.7753 -0.7407
  455MOL0     H60034  -0.337   3.092   8.424 -0.6931  1.5959 -0.4929
  455MOL0     H60035  -0.221   2.975   8.377 -2.3826 -3.8170 -3.0852
  455MOL0     H60036  -0.335   2.981   8.149 -1.7802  2.6682 -2.0398
  455MOL0     H60037  -0.449   3.083   8.237  1.3827 -0.1153  2.1865
  455MOL0     H60038  -0.396   2.797   8.314  2.6638  0.6721 -1.5452
  455MOL0     H60039  -0.498   2.911   8.399 -2.4971  0.3938 -1.0598
  455MOL0     H60040  -0.638   2.938   8.183 -0.4316 -0.7681 -0.2240
  455MOL0     H60041  -0.624   2.772   8.223 -0.2154 -0.4120 -0.1142
  455MOL0     H60042  -0.025   3.736   8.102  0.0598 -2.7894  0.3981
  455MOL0     H60043   0.159   3.830   7.975 -0.6682 -1.5938  2.6238
  455MOL0     H60044   0.606   3.787   7.829  4.8407 -1.1141 -1.7855
  455MOL0     H60045   0.774   3.962   7.773  1.3447  2.3932 -2.2444
  455MOL0     H60046   2.468   4.494   7.643  0.9525 -2.9813 -0.1282
  455MOL0     H60047   2.722   4.474   7.657 -2.2171 -1.3059  0.6064
  455MOL0     H60048   3.217   4.684   7.295  1.8630 -2.6552 -1.9106
  455MOL0     H60049   3.460   4.628   7.377  1.2319 -0.2647  3.4013
  455MOL0     H60050   3.491   4.289   7.646  0.2254 -0.3450 -0.5795
  455MOL0     H60051   3.488   4.438   7.741 -0.2820 -2.4956  2.6467
  455MOL0     H60052   3.695   4.336   7.804 -0.3690  0.0448 -0.2031
  455MOL0     H60053   3.734   4.290   7.637 -1.4477 -2.6780  2.5051
  455MOL0     H60054   3.781   4.533   7.579 -0.1980 -0.9913 -1.9188
  455MOL0     H60055   3.884   4.467   7.713  1.7339  4.3021  0.5693
  455MOL0     H60056   3.649   4.656   7.725  0.1784  0.4721  0.1100
  455MOL0     H60057   3.701   4.562   7.868 -1.2202 -1.2649 -0.8876
  455MOL0     H60058   4.002   4.803   7.906  2.9013 -3.5544 -0.7939
  455MOL0     H60059   3.284   4.370   7.663 -0.8866 -0.6420 -1.0552
  455MOL0     H60060   3.073   4.433   7.613  1.2904  3.2991  3.0506
  456MOL0     O60061   7.218   8.133  11.332  0.5069 -0.0739  0.2557
  456MOL0     C60062   7.138   8.039  11.338  0.0201 -0.4665 -0.0102
  456MOL0     O60063   7.175   7.907  11.341  0.2466  0.5371 -0.4617
  456MOL0     C60064   7.308   7.869  11.336  0.0944  0.1758 -0.5526
  456MOL0     C60065   7.355   7.774  11.427  0.4600 -0.1141 -0.2119
  456MOL0     C60066   7.487   7.734  11.421 -0.4841 -0.3030 -0.4920
  456MOL0     C60067   7.572   7.763  11.314 -0.2147  0.2730 -0.7144
  456MOL0     O60068   7.698   7.715  11.282 -0.9281  0.4145  0.3195
  456MOL0     C60069   7.774   7.674  11.400 -0.0525  0.9692  0.2323
  456MOL0     C60070   7.919   7.672  11.361 -0.4268 -0.4877 -0.7794
  456MOL0     C60071   7.949   7.558  11.269 -0.1184  0.2374 -0.5012
  456MOL0     C60072   7.905   7.580  11.121 -0.1275 -0.7870  0.3041
  456MOL0     C60073   7.948   7.471  11.019 -0.0335  0.2852  0.4861
  456MOL0     C60074   7.908   7.330  11.069  0.0278 -0.0214 -0.0780
  456MOL0     C60075   7.949   7.217  10.970 -0.4180  0.9439 -0.4276
  456MOL0     C60076   7.912   7.081  11.012  0.4507  0.2747 -0.1680
  456MOL0     N60077   7.975   6.968  10.947 -0.1837  0.6207 -0.0196
  456MOL0     C60078   7.913   6.845  10.944  0.3737  0.8820  0.4490
  456MOL0     C60079   8.005   6.766  10.887 -0.3457 -0.1588 -0.4242
  456MOL0     C60080   7.986   6.616  10.842 -0.0098  0.2974  1.8425
  456MOL0     C60081   7.907   6.610  10.708  0.5068  0.1831 -0.1158
  456MOL0     C60082   7.755   6.615  10.720 -0.0404 -0.4784 -0.4093
  456MOL0     C60083   7.689   6.596  10.589 -0.6631  0.5819 -0.3119
  456MOL0     O60084   7.550   6.615  10.608 -0.4605  0.2149 -0.3854
  456MOL0     C60085   7.474   6.593  10.496  0.7442 -0.3140 -0.1449
  456MOL0     C60086   7.343   6.647  10.499 -1.1273  0.3712 -0.6509
  456MOL0     C60087   7.264   6.653  10.386 -0.3274  0.1924 -0.1265
  456MOL0     C60088   7.303   6.595  10.260  0.4275 -0.6375  0.2995
  456MOL0     C60089   7.221   6.608  10.142  0.4431 -0.1157 -0.5028
  456MOL0     O60090   7.089   6.601  10.170  0.4522  0.1968  0.2239
  456MOL0     C60091   6.999   6.586  10.067  0.3192  0.4195  1.2156
  456MOL0     C60092   7.026   6.509   9.954  0.0860 -0.1685 -0.3704
  456MOL0     C60093   6.932   6.486   9.848 -0.0657 -0.1562  0.2474
  456MOL0     C60094   6.800   6.547   9.859 -0.2436  0.7586  0.0758
  456MOL0     O60095   6.711   6.522   9.755  0.3828 -0.5906  0.1993
  456MOL0     C60096   6.627   6.629   9.710  0.3359  0.2575 -0.2488
  456MOL0     C60097   6.540   6.587   9.593  0.4207 -0.3333 -0.2363
  456MOL0     C60098   6.434   6.692   9.566  0.0128 -0.4484 -0.4296
  456MOL0     C60099   6.380   6.685   9.420 -0.3157  0.2478  0.5093
  456MOL0     C60100   6.244   6.764   9.409 -0.6417 -0.6128 -0.6948
  456MOL0     C60101   6.136   6.700   9.488 -0.4902 -0.4199 -0.6280
  456MOL0     C60102   6.027   6.815   9.507 -0.0002 -0.2011  0.0074
  456MOL0     C60103   5.890   6.773   9.559 -0.3001  0.1357  1.5729
  456MOL0    Cl60104   5.831   6.629   9.451  0.2718 -0.0383 -0.0073
  456MOL0     C60105   6.779   6.632   9.962  1.1109  0.6905 -1.0518
  456MOL0     C60106   6.879   6.659  10.065 -0.2357 -0.1711  0.2381
  456MOL0     O60107   7.270   6.624  10.036  0.3732  0.0945  0.0011
  456MOL0     C60108   7.426   6.528  10.264  0.5615 -0.3459  0.5374
  456MOL0     C60109   7.504   6.522  10.378 -1.0845  0.5372 -0.6062
  456MOL0     N60110   8.128   6.837  10.870 -0.4861  0.1291 -0.1563
  456MOL0     N60111   8.112   6.960  10.910  0.2020  0.9096 -0.0199
  456MOL0     C60112   7.517   7.854  11.223  0.3671  0.6715 -0.1101
  456MOL0     C60113   7.395   7.914  11.234  0.6487 -0.0920  0.8893
  456MOL0     C60114   6.992   8.075  11.352 -0.6176 -0.4694  0.4091
  456MOL0     C60115   6.905   7.976  11.391  1.0056 -0.5829  0.0469
  456MOL0     C60116   6.771   8.001  11.406  0.5208 -0.9043  0.2744
  456MOL0     C60117   6.724   8.129  11.377 -0.0554 -0.4648 -0.5705
  456MOL0     O60118   6.602   8.160  11.421 -0.2682  0.8959  0.2831
  456MOL0     C60119   6.503   8.154  11.322  0.1903 -0.1201 -0.2205
  456MOL0     C60120   6.362   8.144  11.376 -0.0892  0.1187  0.1437
  456MOL0     C60121   6.321   8.007  11.409  1.1250  0.4125  0.3420
  456MOL0     C60122   6.189   8.000  11.498 -0.0017 -0.3968 -0.8990
  456MOL0     C60123   6.074   8.048  11.428  0.4679 -0.0793 -0.9516
  456MOL0     C60124   5.983   8.099  11.365  0.2673 -0.0779 -0.1273
  456MOL0     C60125   6.809   8.231  11.325  0.0093 -0.8805 -0.1967
  456MOL0     C60126   6.948   8.201  11.321  0.4739  0.8497  0.5250
  456MOL0     H60127   7.278   7.731  11.491 -1.4694 -1.2548 -3.1016
  456MOL0     H60128   7.507   7.671  11.507  0.6819  0.5120 -0.1472
  456MOL0     H60129   7.732   7.580  11.439 -4.3607  2.1088 -1.2187
  456MOL0     H60130   7.757   7.759  11.467  4.5861  2.3493  0.0181
  456MOL0     H60131   7.979   7.646  11.450  0.6162 -0.2581 -1.3963
  456MOL0     H60132   7.951   7.771  11.329 -0.1541 -0.3113  0.0043
  456MOL0     H60133   7.894   7.471  11.307  0.8040 -0.1606 -0.0330
  456MOL0     H60134   8.056   7.536  11.278 -0.1672  0.5402  1.1966
  456MOL0     H60135   7.798   7.575  11.101 -0.0026  1.5716 -1.4222
  456MOL0     H60136   7.953   7.671  11.082  0.0096 -0.7209  0.6186
  456MOL0     H60137   8.056   7.472  11.002 -0.5171 -0.4635 -4.0031
  456MOL0     H60138   7.899   7.502  10.926 -0.9134 -3.6815 -0.5737
  456MOL0     H60139   7.804   7.329  11.104 -0.9839  3.7631 -2.4838
  456MOL0     H60140   7.965   7.301  11.159 -0.8051  0.2925  0.5634
  456MOL0     H60141   7.889   7.235  10.881 -1.0083  1.5553  0.0862
  456MOL0     H60142   8.053   7.230  10.940  0.0739 -0.1695  0.6830
  456MOL0     H60143   7.804   7.078  10.995  0.5786  0.5393 -1.0701
  456MOL0     H60144   7.922   7.074  11.120 -1.1194  0.0945 -0.0115
  456MOL0     H60145   7.809   6.822  10.963 -0.2048  3.0050  0.1171
  456MOL0     H60146   7.951   6.543  10.915  1.3461 -2.5599 -0.1911
  456MOL0     H60147   8.084   6.575  10.817 -0.4672  0.7003 -0.9739
  456MOL0     H60148   7.942   6.516  10.665 -0.4303 -0.6114  0.8118
  456MOL0     H60149   7.936   6.684  10.633  3.4404 -0.1055  0.5997
  456MOL0     H60150   7.716   6.537  10.787  1.8715 -1.4823 -0.3983
  456MOL0     H60151   7.719   6.711  10.757 -1.3756 -0.4388 -1.6925
  456MOL0     H60152   7.728   6.504  10.545 -2.1301  0.8392 -2.3065
  456MOL0     H60153   7.732   6.669  10.520 -0.1943 -0.5570 -1.2522
  456MOL0     H60154   7.308   6.699  10.588 -5.2732 -0.3168 -1.6383
  456MOL0     H60155   7.164   6.695  10.384 -0.4559 -0.1327 -0.8445
  456MOL0     H60156   7.115   6.447   9.948  0.6369  0.4572  0.9915
  456MOL0     H60157   6.954   6.420   9.765  1.0677  0.2172  0.2413
  456MOL0     H60158   6.691   6.716   9.692 -0.1629  0.1995 -2.6225
  456MOL0     H60159   6.560   6.654   9.793 -0.3433 -0.3712 -0.6008
  456MOL0     H60160   6.481   6.502   9.628  0.4631  0.1286  1.0053
  456MOL0     H60161   6.598   6.557   9.506  2.0534 -0.8841  0.9865
  456MOL0     H60162   6.492   6.785   9.558  1.8177 -1.6130 -1.3509
  456MOL0     H60163   6.356   6.710   9.641  0.8527 -0.3345  0.4382
  456MOL0     H60164   6.445   6.728   9.343 -0.7125 -1.2110 -0.6721
  456MOL0     H60165   6.358   6.583   9.390 -1.3378  0.4936  0.3905
  456MOL0     H60166   6.221   6.771   9.302  2.8046  0.3375 -1.5163
  456MOL0     H60167   6.264   6.863   9.451  0.7489 -1.8937  1.8658
  456MOL0     H60168   6.157   6.659   9.587  1.1029 -2.6431 -1.7903
  456MOL0     H60169   6.108   6.614   9.426  1.4487 -0.0641 -2.0972
  456MOL0     H60170   6.067   6.887   9.580  1.0261 -1.1719  0.4352
  456MOL0     H60171   6.011   6.872   9.415  1.9790  0.6597  0.1347
  456MOL0     H60172   5.822   6.860   9.561  2.9174  2.9819 -1.3185
  456MOL0     H60173   5.886   6.737   9.662  1.7101  1.4170  2.1676
  456MOL0     H60174   6.687   6.688   9.978  0.7247 -0.1672 -0.1277
  456MOL0     H60175   6.850   6.712  10.155  3.0119 -2.2570  2.7434
  456MOL0     H60176   7.461   6.481  10.172 -2.2113  1.6494 -1.7433
  456MOL0     H60177   7.593   6.460  10.389 -2.2300 -0.7125  2.6189
  456MOL0     H60178   7.581   7.900  11.148  1.0634 -1.3599 -0.8065
  456MOL0     H60179   7.363   7.972  11.148  1.1596  1.2974  1.6166
  456MOL0     H60180   6.947   7.880  11.421  1.8071 -0.2134  0.1282
  456MOL0     H60181   6.712   7.921  11.447 -0.5771 -2.0627 -3.1977
  456MOL0     H60182   6.525   8.068  11.258 -0.8470  1.3297 -2.6469
  456MOL0     H60183   6.505   8.235  11.249  0.3826  0.7687  0.7467
  456MOL0     H60184   6.363   8.214  11.460 -0.4334  1.8052 -1.2059
  456MOL0     H60185   6.289   8.186  11.307 -3.8036 -3.4738  1.4603
  456MOL0     H60186   6.401   7.947  11.454 -1.6748 -4.3850 -0.4042
  456MOL0     H60187   6.295   7.949  11.320 -1.1513 -1.4759  2.0960
  456MOL0     H60188   6.178   7.895  11.526  0.2946 -0.3031 -0.4048
  456MOL0     H60189   6.205   8.060  11.588  2.2339 -2.1917  0.0072
  456MOL0     H60190   5.906   8.137  11.302  0.4780  1.3935  0.4627
  456MOL0     H60191   6.772   8.330  11.299  0.0312 -0.9556 -0.5193
  456MOL0     H60192   7.022   8.264  11.272  1.6005 -1.8449 -1.4823
  457MOL0     O60193   1.020   4.257   8.933 -0.0278  0.3053  0.0119
  457MOL0     C60194   1.098   4.212   9.015  0.7768  0.1125 -0.0591
  457MOL0     O60195   1.072   4.113   9.108 -0.5441 -0.3737  0.0691
  457MOL0     C60196   0.940   4.091   9.143  0.0351 -0.5056 -1.3892
  457MOL0     C60197   0.889   4.164   9.252  0.6591  1.0764 -0.1422
  457MOL0     C60198   0.762   4.131   9.302  0.0628 -0.5218  0.3460
  457MOL0     C60199   0.687   4.035   9.242  0.3695  1.1258  0.4778
  457MOL0     O60200   0.562   3.998   9.290  0.6598  0.4995 -0.2471
  457MOL0     C60201   0.453   4.001   9.203 -0.1344 -0.6116 -0.2779
  457MOL0     C60202   0.346   3.906   9.253  0.6477 -0.3163  0.4178
  457MOL0     C60203   0.285   3.973   9.374 -0.5813  0.0749  1.0615
  457MOL0     C60204   0.201   3.875   9.448  0.3928  1.0244 -0.1631
  457MOL0     C60205   0.114   3.939   9.555  0.2466 -0.0854  0.5335
  457MOL0     C60206   0.024   3.840   9.623 -0.6495  0.2207  0.6176
  457MOL0     C60207  -0.095   3.902   9.690  0.1927  0.6013  0.8173
  457MOL0     C60208  -0.207   3.940   9.584  0.0873  1.1003 -0.3004
  457MOL0     N60209  -0.339   3.936   9.648  0.3594 -0.5207  0.3909
  457MOL0     C60210  -0.380   4.015   9.755  0.3914  0.1145  0.1513
  457MOL0     C60211  -0.504   3.978   9.793 -0.8784  1.1217  0.3920
  457MOL0     C60212  -0.612   4.034   9.884  0.3499 -0.3105  0.7876
  457MOL0     C60213  -0.598   3.967  10.014 -0.5889  0.1951 -0.0927
  457MOL0     C60214  -0.713   4.001  10.123 -0.1820 -0.1077  0.6021
  457MOL0     C60215  -0.858   3.980  10.077 -1.0881 -0.3596  0.4306
  457MOL0     O60216  -0.951   3.976  10.184 -0.1090  0.3983 -0.6207
  457MOL0     C60217  -1.071   3.916  10.163 -0.2155  0.0324 -0.3655
  457MOL0     C60218  -1.139   3.880  10.274  0.1920  0.5401  0.0834
  457MOL0     C60219  -1.270   3.830  10.266  1.0137 -0.6843 -0.8437
  457MOL0     C60220  -1.339   3.817  10.141  0.7686 -0.1313 -0.1667
  457MOL0     C60221  -1.482   3.777  10.133  0.0771  0.0611  0.0048
  457MOL0     O60222  -1.556   3.753  10.254 -0.4242 -0.3378  0.4980
  457MOL0     C60223  -1.673   3.683  10.234 -0.1783 -0.1096 -0.0912
  457MOL0     C60224  -1.796   3.739  10.253 -0.3757  1.0580  0.2019
  457MOL0     C60225  -1.906   3.655  10.271  0.8964  0.9172  0.0996
  457MOL0     C60226  -1.894   3.518  10.238  0.2155 -0.4780 -0.2816
  457MOL0     O60227  -1.993   3.435  10.229 -0.3242 -0.3102 -0.7310
  457MOL0     C60228  -2.126   3.476  10.184 -0.1079 -0.0399 -0.6111
  457MOL0     C60229  -2.230   3.368  10.206  0.4963 -0.8385 -0.4276
  457MOL0     C60230  -2.363   3.414  10.137  0.1561 -0.1988  0.3757
  457MOL0     C60231  -2.467   3.296  10.133 -0.5441 -1.1802 -0.0286
  457MOL0     C60232  -2.587   3.329  10.051  0.2940  0.2155  0.8243
  457MOL0     C60233  -2.697   3.229  10.072 -0.6110  0.4152 -0.6224
  457MOL0     C60234  -2.816   3.292  10.006  0.0824 -0.3307  0.2429
  457MOL0     C60235  -2.942   3.210  10.002 -0.3915  0.2886 -0.4439
  457MOL0    Cl60236  -3.025   3.201  10.156 -0.2378 -0.2553 -0.0686
  457MOL0     C60237  -1.772   3.467  10.217 -0.5410  0.3929 -0.4994
  457MOL0     C60238  -1.659   3.547  10.227 -0.3061  0.2176 -0.2057
  457MOL0     O60239  -1.529   3.768  10.022 -0.8791  0.3506 -0.3279
  457MOL0     C60240  -1.259   3.844  10.034  0.4576 -0.0014  0.9156
  457MOL0     C60241  -1.130   3.903  10.038 -0.1790  0.1513  0.2797
  457MOL0     N60242  -0.545   3.883   9.695 -0.1762 -0.2622  0.6429
  457MOL0     N60243  -0.448   3.856   9.615  0.1280  0.4490 -0.7182
  457MOL0     C60244   0.734   3.952   9.142 -0.1044 -0.3211 -0.0714
  457MOL0     C60245   0.866   3.984   9.094 -0.1102 -0.0294  0.6199
  457MOL0     C60246   1.245   4.246   9.001 -0.0148 -0.3832 -0.2513
  457MOL0     C60247   1.295   4.279   8.876 -0.1070  0.3857 -0.3141
  457MOL0     C60248   1.433   4.318   8.865 -0.4917 -0.6120 -0.2244
  457MOL0     C60249   1.508   4.338   8.981 -0.1167  0.6868 -0.5478
  457MOL0     O60250   1.634   4.386   8.985  0.3166 -0.4060  0.5033
  457MOL0     C60251   1.714   4.375   8.866  0.4570  0.4621  0.0628
  457MOL0     C60252   1.869   4.370   8.891  0.5458 -0.5712  0.9620
  457MOL0     C60253   1.909   4.307   9.020  0.0340  0.4393  0.1361
  457MOL0     C60254   2.061   4.288   9.016  0.1563  0.4934  0.5152
  457MOL0     C60255   2.142   4.417   9.012  0.2804 -0.3541  0.4810
  457MOL0     C60256   2.229   4.505   9.010  0.4287  0.7992  0.4265
  457MOL0     C60257   1.455   4.303   9.106 -0.8639 -0.2047 -0.3192
  457MOL0     C60258   1.326   4.254   9.120 -0.2772 -0.7197 -0.2474
  457MOL0     H60259   0.955   4.215   9.322 -0.8527 -1.1143  3.1208
  457MOL0     H60260   0.724   4.182   9.390 -3.0515  2.0085 -2.2186
  457MOL0     H60261   0.478   3.967   9.102  0.8042 -0.9933  0.0655
  457MOL0     H60262   0.414   4.102   9.189  0.3206 -0.3818  0.0801
  457MOL0     H60263   0.382   3.804   9.271  2.2133  0.2243  0.5140
  457MOL0     H60264   0.258   3.900   9.188  1.2145  0.1569 -0.4110
  457MOL0     H60265   0.243   4.070   9.347  1.2634  0.9528  1.2261
  457MOL0     H60266   0.367   3.981   9.445  0.4612 -0.7397  0.0034
  457MOL0     H60267   0.143   3.808   9.384  4.1859 -2.7601 -0.1324
  457MOL0     H60268   0.274   3.811   9.499  1.3601 -0.4524 -3.1813
  457MOL0     H60269   0.058   4.023   9.514 -1.0448  1.4834  4.9705
  457MOL0     H60270   0.181   3.985   9.628  1.2402 -2.3820  1.1823
  457MOL0     H60271   0.081   3.808   9.710 -1.5103 -1.9717  0.4345
  457MOL0     H60272  -0.005   3.748   9.572 -0.5223  0.4685  0.0825
  457MOL0     H60273  -0.125   3.827   9.763  1.8597 -2.5091 -1.4571
  457MOL0     H60274  -0.068   3.996   9.738 -5.2228  0.4245  5.2110
  457MOL0     H60275  -0.225   3.861   9.511 -0.8761 -0.6691  1.7379
  457MOL0     H60276  -0.177   4.031   9.531  3.5349  0.1913 -0.1556
  457MOL0     H60277  -0.307   4.083   9.798  1.6082 -1.2026  0.2407
  457MOL0     H60278  -0.709   4.021   9.835  0.9330  3.3103 -1.7211
  457MOL0     H60279  -0.599   4.141   9.903  0.3587 -0.4930  1.8692
  457MOL0     H60280  -0.504   3.997  10.062 -0.5450 -2.5280  1.7158
  457MOL0     H60281  -0.589   3.859  10.006  0.7590  0.0359  2.4696
  457MOL0     H60282  -0.693   3.958  10.221  0.4850  1.9045  1.4113
  457MOL0     H60283  -0.711   4.108  10.146 -0.1211  0.2418 -0.9070
  457MOL0     H60284  -0.870   3.886  10.021 -1.2354 -1.2414  1.8845
  457MOL0     H60285  -0.877   4.066  10.013  2.0721 -1.0511 -1.6478
  457MOL0     H60286  -1.100   3.892  10.374 -4.1030  2.8617  1.7650
  457MOL0     H60287  -1.326   3.796  10.352 -0.9817 -0.9974 -2.1856
  457MOL0     H60288  -1.806   3.847  10.261  2.2800  1.5227 -1.4227
  457MOL0     H60289  -2.001   3.704  10.291  0.6087  0.7614 -0.8493
  457MOL0     H60290  -2.115   3.492  10.076 -0.3006 -2.2421 -1.0099
  457MOL0     H60291  -2.153   3.566  10.239 -1.5712 -2.1754  2.4069
  457MOL0     H60292  -2.248   3.354  10.313 -1.4831  1.0431 -0.4375
  457MOL0     H60293  -2.187   3.276  10.167  0.8205 -1.9131  2.2378
  457MOL0     H60294  -2.351   3.451  10.035  1.7581 -1.1086  0.2155
  457MOL0     H60295  -2.407   3.491  10.202  1.4862  2.4594 -1.6809
  457MOL0     H60296  -2.413   3.212  10.088  2.3760 -0.0886  1.1303
  457MOL0     H60297  -2.501   3.266  10.233 -2.9676  0.4703 -0.2957
  457MOL0     H60298  -2.551   3.341   9.949 -2.5268 -1.6128 -0.5157
  457MOL0     H60299  -2.628   3.426  10.082 -0.8274 -0.2611  0.8985
  457MOL0     H60300  -2.724   3.230  10.178  0.2439 -0.8585 -0.3712
  457MOL0     H60301  -2.664   3.129  10.043  2.3027  0.5458  1.8425
  457MOL0     H60302  -2.840   3.388  10.053 -1.4147 -1.8334  2.7471
  457MOL0     H60303  -2.774   3.310   9.906  3.1910 -2.7866  0.9407
  457MOL0     H60304  -2.914   3.106   9.982 -0.0467  0.4650 -0.8789
  457MOL0     H60305  -3.015   3.253   9.933 -0.3007 -0.4121 -0.9883
  457MOL0     H60306  -1.754   3.365  10.185 -1.9190 -0.8425  2.3390
  457MOL0     H60307  -1.560   3.511  10.200 -1.2507 -0.6817 -2.7537
  457MOL0     H60308  -1.296   3.820   9.935  4.4880 -0.0746 -0.7759
  457MOL0     H60309  -1.073   3.928   9.949  2.2662 -0.9512  1.4369
  457MOL0     H60310   0.676   3.869   9.103 -1.4420  0.5475  0.0082
  457MOL0     H60311   0.909   3.930   9.010  0.8732  1.6041  0.0340
  457MOL0     H60312   1.230   4.268   8.790 -2.8449 -0.4516  1.7197
  457MOL0     H60313   1.460   4.353   8.766 -1.1171  3.7187  0.9696
  457MOL0     H60314   1.695   4.455   8.794 -0.2455  0.1477 -0.1076
  457MOL0     H60315   1.688   4.281   8.817  2.2763  0.5561 -1.1675
  457MOL0     H60316   1.903   4.313   8.803 -2.1173 -0.5020 -0.2139
  457MOL0     H60317   1.903   4.474   8.890  1.3537 -0.7721 -1.6459
  457MOL0     H60318   1.859   4.211   9.034  0.3607  0.4238  1.2870
  457MOL0     H60319   1.869   4.377   9.094  2.1656 -0.2340  2.0357
  457MOL0     H60320   2.080   4.221   9.100 -3.7343  1.1309  2.1376
  457MOL0     H60321   2.086   4.229   8.928 -0.3883  0.4779  0.3669
  457MOL0     H60322   2.313   4.572   9.006  1.5818 -0.6791 -2.4319
  457MOL0     H60323   1.521   4.324   9.190  1.6094 -0.2390 -2.1411
  457MOL0     H60324   1.289   4.236   9.220  1.7360  2.0081  1.1289
  458MOL0     O60325   3.083   1.391   1.834  0.5219  0.5887  0.1985
  458MOL0     C60326   3.172   1.449   1.775  0.3778 -0.2182 -0.5428
  458MOL0     O60327   3.172   1.590   1.760  0.0845 -0.1776 -0.8754
  458MOL0     C60328   3.099   1.688   1.825  0.0777  0.3373 -0.6278
  458MOL0     C60329   2.982   1.666   1.902 -0.9756 -0.4233  0.1276
  458MOL0     C60330   2.913   1.774   1.963  0.2289  0.4097  0.2165
  458MOL0     C60331   2.953   1.905   1.951  0.2455 -0.9762  0.2280
  458MOL0     O60332   2.895   2.005   2.018  0.3298  0.1553 -0.4870
  458MOL0     C60333   2.755   2.024   2.000  0.4683 -0.2816  0.3604
  458MOL0     C60334   2.717   2.174   2.004  0.2984 -0.2473 -0.5148
  458MOL0     C60335   2.570   2.200   2.023  0.7986  0.0657 -0.6018
  458MOL0     C60336   2.511   2.106   2.131  0.2163  1.3523  0.2857
  458MOL0     C60337   2.372   2.144   2.165  0.2524  0.7443 -0.2216
  458MOL0     C60338   2.269   2.115   2.056 -0.3499  0.4678 -0.5864
  458MOL0     C60339   2.128   2.169   2.096 -0.4902  0.0782  0.7846
  458MOL0     C60340   2.029   2.142   1.976 -0.6209 -0.0512 -0.0972
  458MOL0     N60341   1.895   2.171   2.019  0.9147 -0.4489  0.1612
  458MOL0     C60342   1.836   2.294   1.988  0.4839 -1.3372  0.2872
  458MOL0     C60343   1.717   2.284   2.045  0.7119  0.4590  0.1390
  458MOL0     C60344   1.614   2.398   2.054 -0.7172 -0.1997 -0.8578
  458MOL0     C60345   1.552   2.427   2.200 -0.0975  0.5835  0.2412
  458MOL0     C60346   1.439   2.536   2.192  0.2508  0.0060  0.0672
  458MOL0     C60347   1.309   2.491   2.118  0.1412 -0.0524 -0.3403
  458MOL0     O60348   1.207   2.590   2.142 -0.1316  0.0248  0.1204
  458MOL0     C60349   1.092   2.584   2.061  0.6659  0.3006 -0.1187
  458MOL0     C60350   1.063   2.483   1.965 -0.9784  0.3189  0.1006
  458MOL0     C60351   0.940   2.495   1.898  0.2803 -0.3143  0.0268
  458MOL0     C60352   0.849   2.595   1.910 -0.2848  0.6066 -0.2273
  458MOL0     C60353   0.725   2.600   1.825  0.0969 -0.9190 -0.1520
  458MOL0     O60354   0.627   2.696   1.841 -0.2963 -0.3715 -0.4663
  458MOL0     C60355   0.548   2.723   1.737  0.2906 -0.0815  0.4398
  458MOL0     C60356   0.591   2.723   1.606 -0.6135 -0.9814  0.5281
  458MOL0     C60357   0.515   2.770   1.502 -0.1595 -0.0480  0.3547
  458MOL0     C60358   0.386   2.827   1.528  0.8164 -0.0830 -0.2031
  458MOL0     O60359   0.309   2.889   1.438  0.2693  0.5214 -1.0633
  458MOL0     C60360   0.361   2.902   1.305  0.6019 -0.4781 -0.3424
  458MOL0     C60361   0.259   3.001   1.232  0.6421 -0.0809 -0.2113
  458MOL0     C60362   0.301   3.030   1.088  0.0857 -0.7127 -0.1708
  458MOL0     C60363   0.279   2.923   0.985  0.2895  1.0640  0.5868
  458MOL0     C60364   0.344   2.942   0.852 -0.2333 -0.5666  0.6203
  458MOL0     C60365   0.492   2.993   0.843  0.3542 -0.1402 -1.2250
  458MOL0     C60366   0.583   2.913   0.936  0.0670  0.6465 -0.4328
  458MOL0     C60367   0.733   2.950   0.915  0.4149 -0.3944 -0.1574
  458MOL0    Cl60368   0.792   3.040   1.052  0.0432  0.4329  0.3408
  458MOL0     C60369   0.340   2.824   1.658  0.1226 -0.2962  0.2971
  458MOL0     C60370   0.420   2.764   1.761  0.7937  0.4303 -0.2029
  458MOL0     O60371   0.725   2.512   1.742 -0.7660  0.4380 -0.0069
  458MOL0     C60372   0.874   2.686   2.019 -0.5983  0.2885 -0.0341
  458MOL0     C60373   0.994   2.688   2.089 -0.5236  0.7951 -0.6689
  458MOL0     N60374   1.707   2.159   2.107 -0.7206 -0.6085 -0.1102
  458MOL0     N60375   1.816   2.092   2.084 -0.3867 -0.3473 -0.0891
  458MOL0     C60376   3.060   1.928   1.866 -0.1074  0.3592 -0.2350
  458MOL0     C60377   3.126   1.827   1.805 -0.5450  0.2371  0.0571
  458MOL0     C60378   3.279   1.375   1.721 -0.6417  0.4769  0.7466
  458MOL0     C60379   3.362   1.447   1.632  0.3129  0.6369  0.7064
  458MOL0     C60380   3.468   1.380   1.567  0.3951 -0.0661  0.0412
  458MOL0     C60381   3.509   1.253   1.610 -0.3491  0.4134  0.2350
  458MOL0     O60382   3.620   1.199   1.546 -0.1262 -1.0317 -0.2637
  458MOL0     C60383   3.670   1.076   1.584 -0.1858  0.3551  0.0881
  458MOL0     C60384   3.787   1.047   1.487 -0.3879 -0.4179  0.2531
  458MOL0     C60385   3.918   1.126   1.506  0.0634 -0.0497 -0.7906
  458MOL0     C60386   4.019   1.074   1.603 -1.2456 -0.2292 -0.6940
  458MOL0     C60387   4.152   1.126   1.593 -0.3772  0.2263 -0.6205
  458MOL0     C60388   4.267   1.156   1.576  0.2570 -0.0615  0.1824
  458MOL0     C60389   3.427   1.178   1.703 -0.0713 -0.6807 -0.0173
  458MOL0     C60390   3.312   1.245   1.759 -0.0169  0.4975  0.4646
  458MOL0     H60391   2.948   1.566   1.925 -0.8071  0.1643  3.6094
  458MOL0     H60392   2.831   1.765   2.033  0.8752 -0.3672  0.8850
  458MOL0     H60393   2.715   1.973   2.088 -0.7447  1.7282  1.0495
  458MOL0     H60394   2.721   1.988   1.902  3.8931 -0.3015 -0.9440
  458MOL0     H60395   2.751   2.219   1.910 -1.2919 -1.2180 -1.5905
  458MOL0     H60396   2.767   2.224   2.088 -0.5132  2.6395 -1.6332
  458MOL0     H60397   2.515   2.187   1.929  0.3668 -2.8776 -0.0513
  458MOL0     H60398   2.553   2.305   2.046 -1.7841 -0.3525 -0.3636
  458MOL0     H60399   2.511   2.004   2.092  3.4600  1.4620 -0.2301
  458MOL0     H60400   2.582   2.109   2.214  0.5128  0.4183  0.0771
  458MOL0     H60401   2.368   2.250   2.193 -1.9220  0.5190  0.5350
  458MOL0     H60402   2.337   2.089   2.253  0.2118  0.0524 -0.6678
  458MOL0     H60403   2.269   2.007   2.038  0.3308  0.5882 -1.4183
  458MOL0     H60404   2.297   2.167   1.964  0.9643 -0.6479 -0.8630
  458MOL0     H60405   2.085   2.126   2.187 -1.7679 -1.0462 -0.2994
  458MOL0     H60406   2.121   2.278   2.101  1.3036  0.3866 -1.6126
  458MOL0     H60407   2.041   2.036   1.953 -3.1738 -0.2938 -0.6477
  458MOL0     H60408   2.060   2.201   1.890  0.7522  2.0596  1.7512
  458MOL0     H60409   1.877   2.376   1.931 -1.1097 -2.5316 -2.8255
  458MOL0     H60410   1.555   2.387   1.962  2.1970  0.4981 -2.9366
  458MOL0     H60411   1.674   2.489   2.043  0.2620 -0.5684  0.9943
  458MOL0     H60412   1.634   2.459   2.265  0.4666 -0.9026  0.2939
  458MOL0     H60413   1.508   2.338   2.247 -1.6569  1.4690  0.5437
  458MOL0     H60414   1.410   2.581   2.287 -0.0577 -1.3948  0.6510
  458MOL0     H60415   1.480   2.623   2.139  1.1670 -0.6396 -0.3068
  458MOL0     H60416   1.280   2.397   2.167  2.9250 -0.3227  0.9899
  458MOL0     H60417   1.320   2.457   2.015 -0.9275 -1.2497 -0.0964
  458MOL0     H60418   1.123   2.395   1.947 -0.8117  0.5857 -0.6800
  458MOL0     H60419   0.926   2.417   1.824 -0.1933 -1.8838  1.7052
  458MOL0     H60420   0.693   2.694   1.583 -0.0757 -0.1108  1.7156
  458MOL0     H60421   0.559   2.762   1.403  1.1863 -1.0211  1.0068
  458MOL0     H60422   0.364   2.807   1.250  3.2503 -1.1927  0.8614
  458MOL0     H60423   0.460   2.949   1.300 -0.7419  2.4619 -1.7576
  458MOL0     H60424   0.248   3.095   1.287  1.5042  0.9335 -1.7073
  458MOL0     H60425   0.157   2.961   1.227 -0.6095  2.8529 -0.5313
  458MOL0     H60426   0.405   3.063   1.089 -0.1147 -0.0638 -0.2037
  458MOL0     H60427   0.245   3.118   1.054  0.4546 -0.8700 -1.2244
  458MOL0     H60428   0.318   2.826   1.016  0.8571  0.7688 -0.9728
  458MOL0     H60429   0.173   2.917   0.959  0.8917  1.7030 -2.3500
  458MOL0     H60430   0.286   3.012   0.790 -2.4360 -1.9108  1.0246
  458MOL0     H60431   0.340   2.847   0.797 -3.5646 -0.2884  0.1650
  458MOL0     H60432   0.513   3.098   0.869  0.6408 -0.2930 -0.8305
  458MOL0     H60433   0.526   2.985   0.739  3.0746  1.5698 -0.5879
  458MOL0     H60434   0.560   2.916   1.043  0.5953  0.4360 -0.3097
  458MOL0     H60435   0.572   2.809   0.904  0.2360  0.2140  0.8271
  458MOL0     H60436   0.747   3.011   0.826  1.4361 -0.5017 -0.0755
  458MOL0     H60437   0.795   2.860   0.910  1.9316  0.6833 -1.3987
  458MOL0     H60438   0.236   2.855   1.654 -0.3093 -1.6980 -2.8912
  458MOL0     H60439   0.377   2.751   1.860 -0.1455 -0.0200 -0.6558
  458MOL0     H60440   0.807   2.767   2.045 -0.6172 -0.0080  0.8916
  458MOL0     H60441   1.012   2.758   2.170  1.2228  1.1750 -1.3247
  458MOL0     H60442   3.104   2.024   1.845  0.7265  0.1140  0.3108
  458MOL0     H60443   3.191   1.858   1.724 -2.6404  3.5825 -0.5341
  458MOL0     H60444   3.362   1.553   1.606  0.3946  0.2131 -1.1928
  458MOL0     H60445   3.528   1.438   1.498  2.0552  0.4635  1.8707
  458MOL0     H60446   3.591   1.003   1.560 -0.7221  1.5890 -2.2768
  458MOL0     H60447   3.700   1.066   1.688 -0.7767 -2.3018  0.0693
  458MOL0     H60448   3.813   0.941   1.487  0.7968 -0.1660  1.6736
  458MOL0     H60449   3.746   1.065   1.387 -1.0467  1.9095  0.8735
  458MOL0     H60450   3.898   1.226   1.546 -0.0001 -1.7723  4.0213
  458MOL0     H60451   3.965   1.137   1.408  5.4691  1.4132  1.5989
  458MOL0     H60452   3.983   1.083   1.706  3.5554 -1.9764  1.4135
  458MOL0     H60453   4.036   0.968   1.580 -0.8986 -0.2037 -0.5589
  458MOL0     H60454   4.370   1.178   1.551  0.1661  0.3612  0.1737
  458MOL0     H60455   3.448   1.081   1.746 -0.2546 -0.6063  0.2474
  458MOL0     H60456   3.251   1.195   1.833 -1.8684  0.0992 -1.2357
  459MOL0     O60457   9.538   5.611   3.232 -0.2667 -0.1621 -0.1126
  459MOL0     C60458   9.621   5.519   3.217 -1.1227  0.8777 -0.2108
  459MOL0     O60459   9.636   5.437   3.113 -0.4076  0.0568  0.0797
  459MOL0     C60460   9.536   5.435   3.018 -0.1486 -0.0584  0.5613
  459MOL0     C60461   9.588   5.439   2.893  0.1824  0.5029  0.6932
  459MOL0     C60462   9.502   5.426   2.787  0.1060 -0.1516 -0.5312
  459MOL0     C60463   9.362   5.429   2.804 -1.6793 -0.2291  0.2527
  459MOL0     O60464   9.273   5.409   2.698 -0.6511  0.4798 -0.3688
  459MOL0     C60465   9.250   5.273   2.642  0.3236 -0.2691 -0.0399
  459MOL0     C60466   9.184   5.307   2.510  1.2187 -0.0005  0.2673
  459MOL0     C60467   9.137   5.177   2.448  0.2046  0.1069  0.0519
  459MOL0     C60468   9.065   5.216   2.323  0.9979 -0.4950 -0.0039
  459MOL0     C60469   9.009   5.102   2.248 -0.1599 -0.0656  0.0288
  459MOL0     C60470   8.877   5.044   2.302 -0.8793  0.7325 -0.0174
  459MOL0     C60471   8.823   4.931   2.204 -0.3636 -0.1853 -0.5882
  459MOL0     C60472   8.879   4.792   2.223  0.1297 -1.5874 -0.0913
  459MOL0     N60473   8.850   4.692   2.128  1.6682  0.5468  0.2309
  459MOL0     C60474   8.815   4.557   2.143 -0.9213  0.1615  0.0484
  459MOL0     C60475   8.814   4.502   2.013 -0.6913  0.0519 -1.1065
  459MOL0     C60476   8.789   4.356   1.980 -0.8844  0.4728  0.4643
  459MOL0     C60477   8.649   4.290   2.013  1.1479 -0.9685 -1.1374
  459MOL0     C60478   8.536   4.359   1.924 -1.0979 -0.3526  0.1986
  459MOL0     C60479   8.406   4.293   1.926  0.2437  0.0309  0.1508
  459MOL0     O60480   8.347   4.291   2.055 -0.4922  0.0745  0.0789
  459MOL0     C60481   8.217   4.310   2.066  0.1919 -1.0718  1.0272
  459MOL0     C60482   8.184   4.381   2.180 -0.3559  0.1829  1.0435
  459MOL0     C60483   8.045   4.397   2.214 -0.1362 -0.8600  0.3035
  459MOL0     C60484   7.946   4.343   2.134 -0.1571  0.7597 -0.8157
  459MOL0     C60485   7.806   4.374   2.158 -0.4485 -0.0548 -0.0811
  459MOL0     O60486   7.714   4.336   2.071  0.7393  0.1931  0.5747
  459MOL0     C60487   7.581   4.339   2.075  0.1692  0.3403 -0.4494
  459MOL0     C60488   7.505   4.426   2.164  0.1072  0.0866  0.7317
  459MOL0     C60489   7.369   4.412   2.163  0.8805  0.1022  0.2394
  459MOL0     C60490   7.294   4.320   2.085  0.1402 -0.2003 -0.2423
  459MOL0     O60491   7.153   4.320   2.071  0.1328 -0.0609 -0.6264
  459MOL0     C60492   7.084   4.418   2.141  0.1875  0.0219  0.2227
  459MOL0     C60493   6.945   4.408   2.103 -1.1341  0.3638 -0.4573
  459MOL0     C60494   6.872   4.282   2.148 -0.3910  1.0876  0.1465
  459MOL0     C60495   6.721   4.310   2.136 -0.7732 -0.3237  0.4653
  459MOL0     C60496   6.626   4.184   2.156 -0.8552 -0.2751  0.0316
  459MOL0     C60497   6.478   4.218   2.138 -0.3431 -0.3439  0.1046
  459MOL0     C60498   6.436   4.311   2.260 -0.6294 -1.1197 -0.0831
  459MOL0     C60499   6.291   4.332   2.259  0.5585 -0.2000  0.7007
  459MOL0    Cl60500   6.265   4.457   2.130  0.0474 -0.1468 -0.3538
  459MOL0     C60501   7.359   4.236   2.005  0.1401  0.1109 -0.2151
  459MOL0     C60502   7.507   4.244   1.998  0.0537  0.3015 -0.2489
  459MOL0     O60503   7.788   4.433   2.267 -0.4160  0.6967  0.0685
  459MOL0     C60504   7.985   4.282   2.017  0.9132  1.1636  0.3170
  459MOL0     C60505   8.119   4.259   1.988  0.3082 -0.0018  0.2803
  459MOL0     N60506   8.838   4.605   1.924 -0.5413  0.2362  0.0416
  459MOL0     N60507   8.852   4.717   1.996  0.1445  0.0755  0.1968
  459MOL0     C60508   9.308   5.435   2.927 -1.1705 -0.3933  0.3865
  459MOL0     C60509   9.394   5.438   3.036 -0.5517  0.3697 -0.4015
  459MOL0     C60510   9.704   5.496   3.340 -0.2004  0.3730 -0.5685
  459MOL0     C60511   9.737   5.362   3.369 -0.4166 -0.3864  0.0642
  459MOL0     C60512   9.793   5.321   3.489 -0.3073 -0.6897 -0.8544
  459MOL0     C60513   9.810   5.424   3.589 -1.3400  0.2250  0.3736
  459MOL0     O60514   9.838   5.384   3.718 -0.3942 -0.0618  0.3802
  459MOL0     C60515   9.895   5.488   3.804  0.1007 -0.1620 -0.6604
  459MOL0     C60516   9.786   5.560   3.897 -0.6843  0.0952  0.1376
  459MOL0     C60517   9.749   5.453   4.007 -0.2664  0.2207 -0.6791
  459MOL0     C60518   9.626   5.487   4.098 -0.8261  0.5433 -0.6723
  459MOL0     C60519   9.526   5.544   4.015  0.2032 -0.5438  0.3390
  459MOL0     C60520   9.419   5.572   3.961  0.6733 -0.5237 -0.6363
  459MOL0     C60521   9.783   5.558   3.553  0.0635 -0.6815 -0.2114
  459MOL0     C60522   9.728   5.596   3.433 -0.9191 -0.9149 -0.6621
  459MOL0     H60523   9.694   5.446   2.872  0.3113  0.4152  1.3113
  459MOL0     H60524   9.540   5.397   2.690 -0.6256  0.7889 -1.1242
  459MOL0     H60525   9.201   5.206   2.712 -0.9760  0.0978 -0.5681
  459MOL0     H60526   9.344   5.221   2.619  0.3781 -0.2021  0.0278
  459MOL0     H60527   9.247   5.365   2.441  0.1580 -1.8994 -2.4451
  459MOL0     H60528   9.092   5.366   2.523  0.3733 -0.2408 -3.4797
  459MOL0     H60529   9.064   5.123   2.509 -1.5533  0.7154 -1.4170
  459MOL0     H60530   9.212   5.103   2.418 -0.3591 -0.1021 -0.8966
  459MOL0     H60531   8.985   5.289   2.339 -0.1010 -1.7448  0.4025
  459MOL0     H60532   9.142   5.264   2.262 -0.3463 -0.0104 -1.4171
  459MOL0     H60533   9.091   5.030   2.248 -0.7025 -0.7353 -1.8744
  459MOL0     H60534   8.983   5.126   2.145  2.5897  2.6450 -0.1645
  459MOL0     H60535   8.794   5.116   2.304 -1.6422 -0.1303  0.8109
  459MOL0     H60536   8.884   5.010   2.406 -1.2002 -1.5149 -0.6630
  459MOL0     H60537   8.714   4.926   2.211 -0.5706 -1.0941 -3.2887
  459MOL0     H60538   8.839   4.958   2.099  2.1289 -0.5619 -0.3652
  459MOL0     H60539   8.838   4.758   2.319 -2.5294  1.5104  0.0682
  459MOL0     H60540   8.988   4.802   2.225  0.1987 -1.8624 -1.4743
  459MOL0     H60541   8.818   4.492   2.230 -0.8834 -0.9819 -0.7761
  459MOL0     H60542   8.873   4.301   2.026  1.7708  2.4017 -1.7724
  459MOL0     H60543   8.803   4.349   1.872  0.0460  2.6237  0.3976
  459MOL0     H60544   8.634   4.309   2.119  0.4231  0.5588 -1.4856
  459MOL0     H60545   8.657   4.181   1.999 -0.1906 -1.3128  0.4880
  459MOL0     H60546   8.502   4.455   1.963 -1.6074  0.0596 -1.1936
  459MOL0     H60547   8.582   4.372   1.826  0.7177  3.3054  1.3601
  459MOL0     H60548   8.407   4.187   1.899 -3.0370  0.0120 -0.2803
  459MOL0     H60549   8.350   4.359   1.859  0.7300  0.2577 -0.0328
  459MOL0     H60550   8.260   4.425   2.244  1.3413 -1.1524  0.0479
  459MOL0     H60551   8.013   4.441   2.308  1.8684  1.8523 -0.1737
  459MOL0     H60552   7.566   4.489   2.229  4.3547 -2.7606 -0.0562
  459MOL0     H60553   7.322   4.494   2.216  1.9374  0.5834  0.4541
  459MOL0     H60554   7.113   4.524   2.134 -1.0865  0.3487 -0.3558
  459MOL0     H60555   7.088   4.400   2.249 -2.3750 -1.7684  0.1063
  459MOL0     H60556   6.946   4.420   1.994  0.8565 -0.5216 -0.5924
  459MOL0     H60557   6.900   4.490   2.159  2.3486 -0.0289  3.3630
  459MOL0     H60558   6.897   4.244   2.248  1.2861  0.3773 -0.4918
  459MOL0     H60559   6.905   4.197   2.086 -2.9226  0.4192 -0.3739
  459MOL0     H60560   6.703   4.388   2.211 -1.2615  0.7249 -0.6947
  459MOL0     H60561   6.701   4.363   2.043  1.5602  0.1007  0.1572
  459MOL0     H60562   6.644   4.145   2.257  0.9147  1.0289  0.2779
  459MOL0     H60563   6.646   4.109   2.080 -2.1578  0.5566 -1.1727
  459MOL0     H60564   6.421   4.125   2.147  0.8798 -0.9914  1.7029
  459MOL0     H60565   6.471   4.271   2.043  0.2524  3.8998  2.1755
  459MOL0     H60566   6.473   4.257   2.347  2.9322 -0.5994 -1.0932
  459MOL0     H60567   6.490   4.407   2.253 -2.1302 -0.0485  1.9363
  459MOL0     H60568   6.265   4.377   2.355  0.1231  3.9806 -1.1409
  459MOL0     H60569   6.247   4.234   2.240  4.3344 -1.5230 -2.7347
  459MOL0     H60570   7.311   4.168   1.935 -0.5600  1.7195 -1.3601
  459MOL0     H60571   7.554   4.177   1.928  0.2291  0.5725 -0.3948
  459MOL0     H60572   7.904   4.242   1.957  1.1634  2.0604 -0.6628
  459MOL0     H60573   8.160   4.213   1.899 -0.4151  3.9976 -2.3557
  459MOL0     H60574   9.206   5.434   2.964 -1.0789  2.5566  0.9162
  459MOL0     H60575   9.353   5.434   3.137 -2.7851 -3.1238 -1.2619
  459MOL0     H60576   9.703   5.286   3.299 -0.0458  0.7300 -1.3702
  459MOL0     H60577   9.824   5.220   3.515  2.3886  0.7724  2.5054
  459MOL0     H60578   9.934   5.578   3.754  2.5660 -2.3863 -3.0547
  459MOL0     H60579   9.971   5.444   3.869  0.8982  0.3438 -1.2281
  459MOL0     H60580   9.836   5.642   3.948  2.1623 -0.6617 -1.2415
  459MOL0     H60581   9.705   5.592   3.832 -1.3291  0.5408  1.1426
  459MOL0     H60582   9.834   5.448   4.075 -1.7641  3.1204  1.6405
  459MOL0     H60583   9.726   5.361   3.952 -0.9591 -0.7723  1.1842
  459MOL0     H60584   9.597   5.400   4.157 -0.4414  1.9774  1.7601
  459MOL0     H60585   9.664   5.558   4.172  1.8001 -0.6167 -0.8320
  459MOL0     H60586   9.323   5.600   3.923 -0.4252 -0.1973  2.1724
  459MOL0     H60587   9.789   5.643   3.621 -0.3012 -2.1597  1.7603
  459MOL0     H60588   9.706   5.702   3.422  2.6004 -0.2763 -3.3651
  460MOL0     O60589   3.451   0.830   6.481 -0.1792 -0.1784  0.2835
  460MOL0     C60590   3.436   0.870   6.366  0.0511  0.1580 -0.2624
  460MOL0     O60591   3.326   0.860   6.300 -0.3668  0.6113  0.1853
  460MOL0     C60592   3.218   0.795   6.355 -0.7235  0.3199  0.5319
  460MOL0     C60593   3.209   0.658   6.384 -0.2197  1.1642  0.6705
  460MOL0     C60594   3.093   0.607   6.436  0.1880  0.6468 -0.4592
  460MOL0     C60595   2.978   0.692   6.437  0.5390  0.3064 -0.8076
  460MOL0     O60596   2.861   0.648   6.497 -0.7225  0.2594  0.6507
  460MOL0     C60597   2.798   0.535   6.431  0.4982 -0.3932  0.0110
  460MOL0     C60598   2.658   0.511   6.489  0.3949  0.5163 -0.5409
  460MOL0     C60599   2.558   0.429   6.406  0.0878 -0.4982 -0.2782
  460MOL0     C60600   2.432   0.421   6.485  0.4067 -0.7308  0.0234
  460MOL0     C60601   2.321   0.364   6.400 -0.6499  0.1258 -0.5407
  460MOL0     C60602   2.299   0.437   6.265  0.7151  0.4132  0.7309
  460MOL0     C60603   2.161   0.420   6.218  0.6701  0.6794  0.3411
  460MOL0     C60604   2.135   0.274   6.169 -0.5863  0.0985  0.4976
  460MOL0     N60605   2.024   0.250   6.078  0.7740  0.3252  0.8753
  460MOL0     C60606   1.935   0.340   6.035  0.2681 -0.1113 -0.0100
  460MOL0     C60607   1.847   0.280   5.946 -0.2664  0.1133 -0.0114
  460MOL0     C60608   1.734   0.356   5.881  0.4421  0.7571  0.0443
  460MOL0     C60609   1.786   0.421   5.755 -0.8135  0.4562  0.2691
  460MOL0     C60610   1.715   0.545   5.715 -0.2231 -0.0831 -1.3629
  460MOL0     C60611   1.558   0.531   5.724  0.2654 -0.3980 -0.6395
  460MOL0     O60612   1.510   0.432   5.632  0.2140 -0.2718 -0.1897
  460MOL0     C60613   1.402   0.438   5.555  0.4030  0.3148 -1.4145
  460MOL0     C60614   1.333   0.321   5.527  0.1726 -0.4469 -0.1030
  460MOL0     C60615   1.227   0.319   5.433  0.0936 -0.1406  0.4870
  460MOL0     C60616   1.178   0.437   5.376  0.7594  0.4509 -0.1439
  460MOL0     C60617   1.063   0.434   5.276 -0.1132 -0.3544  0.3884
  460MOL0     O60618   0.995   0.310   5.256  0.5958 -0.9640  0.1635
  460MOL0     C60619   0.907   0.298   5.148 -0.7333  0.0735  0.2834
  460MOL0     C60620   0.946   0.336   5.018 -0.3692  0.1306 -0.3401
  460MOL0     C60621   0.846   0.341   4.914 -0.5712  0.0437 -0.2512
  460MOL0     C60622   0.711   0.304   4.930  0.4610 -0.3158 -1.3025
  460MOL0     O60623   0.614   0.282   4.837 -0.2141 -0.0334  0.1723
  460MOL0     C60624   0.624   0.352   4.718  0.0878 -0.3047  1.1700
  460MOL0     C60625   0.489   0.339   4.646 -0.0323  0.1248 -0.0191
  460MOL0     C60626   0.442   0.200   4.614  0.0555  0.0309 -0.2788
  460MOL0     C60627   0.312   0.186   4.535  0.3532  0.1000 -0.3154
  460MOL0     C60628   0.188   0.255   4.598 -0.1438  0.8252  0.9166
  460MOL0     C60629   0.065   0.210   4.517  0.4952  1.0638 -0.3581
  460MOL0     C60630  -0.055   0.300   4.539  0.1922  1.0221 -0.0588
  460MOL0     C60631  -0.180   0.269   4.460  0.0863  0.4503 -0.6717
  460MOL0    Cl60632  -0.162   0.302   4.297 -0.0364 -0.2079 -0.0293
  460MOL0     C60633   0.674   0.270   5.062 -0.9100  0.3044 -0.1506
  460MOL0     C60634   0.774   0.264   5.166  0.2724  0.4998  0.1901
  460MOL0     O60635   1.050   0.533   5.210  0.3873  0.2167  0.7247
  460MOL0     C60636   1.228   0.558   5.417 -0.3786 -0.1908 -0.2933
  460MOL0     C60637   1.352   0.557   5.496  0.9850  0.6130 -0.2723
  460MOL0     N60638   1.878   0.146   5.948 -0.6706  1.2427  0.5537
  460MOL0     N60639   1.986   0.125   6.029 -0.0149  1.2770 -0.7094
  460MOL0     C60640   2.978   0.825   6.396  0.2596  0.5762 -0.3380
  460MOL0     C60641   3.104   0.879   6.359 -0.7392 -0.0666  0.4331
  460MOL0     C60642   3.551   0.931   6.283 -0.2030 -0.9717  0.6260
  460MOL0     C60643   3.543   0.972   6.154  0.4345 -0.0825  0.3004
  460MOL0     C60644   3.652   1.029   6.084 -1.0106  0.4893  0.6684
  460MOL0     C60645   3.778   1.050   6.150  0.4638  0.4917  0.7253
  460MOL0     O60646   3.891   1.104   6.083  0.0985  0.1207  0.3310
  460MOL0     C60647   3.933   1.051   5.957 -0.0410  0.0563 -0.0401
  460MOL0     C60648   4.060   0.962   5.974 -0.2615  0.4283 -0.4513
  460MOL0     C60649   4.064   0.869   6.092  1.1904  1.0223 -0.2444
  460MOL0     C60650   4.185   0.777   6.070 -0.5959 -0.4139 -0.2578
  460MOL0     C60651   4.316   0.829   6.113 -0.4613 -0.3174  0.8438
  460MOL0     C60652   4.418   0.887   6.144 -0.4793 -0.0114  0.0435
  460MOL0     C60653   3.790   1.020   6.287  1.1531 -1.0579  0.3372
  460MOL0     C60654   3.674   0.974   6.351  0.4115 -0.1583  0.0226
  460MOL0     H60655   3.293   0.594   6.361  0.5903  2.5383 -0.3987
  460MOL0     H60656   3.075   0.500   6.446  1.6403  0.3730 -0.6042
  460MOL0     H60657   2.857   0.444   6.441 -0.8273 -1.2103  0.7703
  460MOL0     H60658   2.780   0.553   6.325 -1.7175 -0.0312  0.3965
  460MOL0     H60659   2.604   0.602   6.516 -2.3535 -1.0487 -0.3616
  460MOL0     H60660   2.677   0.471   6.589  0.7429  5.4463  1.6568
  460MOL0     H60661   2.603   0.330   6.394 -1.8510 -1.7746  2.1107
  460MOL0     H60662   2.551   0.484   6.312  0.8635  0.5646  0.2469
  460MOL0     H60663   2.449   0.357   6.572  1.5900 -1.2041 -0.5177
  460MOL0     H60664   2.402   0.521   6.518 -0.6415 -1.1173  0.2832
  460MOL0     H60665   2.235   0.376   6.466  2.3137 -0.9437  3.9604
  460MOL0     H60666   2.333   0.259   6.373 -5.0505 -0.5695 -0.5706
  460MOL0     H60667   2.360   0.403   6.181  1.2876  0.5116  1.1001
  460MOL0     H60668   2.304   0.545   6.281 -0.4744  0.6467 -0.3467
  460MOL0     H60669   2.086   0.459   6.288  0.7241  3.5341 -1.0324
  460MOL0     H60670   2.152   0.473   6.122 -0.6187 -4.2681 -2.5992
  460MOL0     H60671   2.139   0.192   6.241  0.7167  1.0098  1.5014
  460MOL0     H60672   2.221   0.244   6.109 -0.0846 -0.3594  1.4262
  460MOL0     H60673   1.926   0.444   6.067  1.6813  0.4333 -1.2084
  460MOL0     H60674   1.694   0.436   5.944 -1.0443 -0.4392  0.6685
  460MOL0     H60675   1.652   0.295   5.842 -0.5846  1.5166  0.9723
  460MOL0     H60676   1.792   0.344   5.677 -2.8506 -0.4742  0.9715
  460MOL0     H60677   1.887   0.462   5.769 -1.6838  2.2390  1.7646
  460MOL0     H60678   1.752   0.629   5.775 -0.8294  0.4196 -1.6828
  460MOL0     H60679   1.741   0.565   5.611  3.2114  0.2996 -0.5562
  460MOL0     H60680   1.517   0.632   5.717  1.7666  0.3441  0.5842
  460MOL0     H60681   1.540   0.510   5.830 -1.0487  0.9286 -0.5604
  460MOL0     H60682   1.387   0.233   5.561 -0.2240 -1.0593 -1.0181
  460MOL0     H60683   1.201   0.216   5.409 -1.8656  0.8907 -2.2292
  460MOL0     H60684   1.046   0.375   5.005 -0.3794 -0.0592 -1.0174
  460MOL0     H60685   0.872   0.376   4.815 -3.7597 -1.1720 -1.6553
  460MOL0     H60686   0.704   0.314   4.655 -0.7363  0.2284 -0.2294
  460MOL0     H60687   0.649   0.455   4.745  2.5364 -0.4518 -0.2784
  460MOL0     H60688   0.503   0.404   4.559 -0.6785 -0.0755 -0.2738
  460MOL0     H60689   0.413   0.382   4.712  1.5672  2.7455  0.2692
  460MOL0     H60690   0.454   0.149   4.710  4.0714 -1.3966 -1.3542
  460MOL0     H60691   0.524   0.158   4.555  2.4507 -0.4397  3.1151
  460MOL0     H60692   0.345   0.209   4.433 -1.9753  0.7485 -1.0000
  460MOL0     H60693   0.289   0.079   4.537 -1.0903  0.3962 -0.0379
  460MOL0     H60694   0.198   0.363   4.580  0.3311  0.6023 -0.2530
  460MOL0     H60695   0.173   0.232   4.703  0.5276 -3.9623  0.1864
  460MOL0     H60696   0.034   0.109   4.546  1.8337  0.6709 -0.2175
  460MOL0     H60697   0.090   0.212   4.411 -1.6699  1.0771 -0.9169
  460MOL0     H60698  -0.091   0.293   4.642 -0.5187 -3.2427 -0.3924
  460MOL0     H60699  -0.032   0.404   4.514 -2.8379  1.7573 -0.1650
  460MOL0     H60700  -0.268   0.315   4.506  0.9283  0.3763  1.1258
  460MOL0     H60701  -0.205   0.162   4.468 -3.7704  1.3272  1.7801
  460MOL0     H60702   0.573   0.242   5.089 -0.0896 -2.1629  0.6681
  460MOL0     H60703   0.745   0.236   5.267 -0.6052  0.4659 -0.0690
  460MOL0     H60704   1.195   0.649   5.370 -3.6800 -3.5350 -5.4115
  460MOL0     H60705   1.414   0.646   5.510  1.5218  0.1449  0.4029
  460MOL0     H60706   2.883   0.876   6.400  1.0008  1.9674  0.1949
  460MOL0     H60707   3.105   0.985   6.336 -1.8838 -0.1926 -0.2860
  460MOL0     H60708   3.447   0.963   6.104  0.1629 -0.5801  0.8857
  460MOL0     H60709   3.634   1.061   5.982 -0.7636 -0.4119  0.3325
  460MOL0     H60710   3.967   1.126   5.885  2.4725  0.2704  1.2689
  460MOL0     H60711   3.858   0.982   5.917  0.4108 -0.7163  0.4203
  460MOL0     H60712   4.074   0.905   5.882  0.2819  3.2993 -2.2626
  460MOL0     H60713   4.144   1.031   5.987  0.0371  0.1479 -0.8760
  460MOL0     H60714   3.973   0.808   6.087 -0.3939  3.0654  1.6665
  460MOL0     H60715   4.071   0.933   6.180  1.3033 -1.0113  1.2864
  460MOL0     H60716   4.160   0.689   6.130  0.8588 -1.2624 -0.8414
  460MOL0     H60717   4.197   0.745   5.966 -0.5648 -0.4800 -0.2338
  460MOL0     H60718   4.502   0.945   6.177 -0.9402  2.4603 -2.7065
  460MOL0     H60719   3.880   1.046   6.341  0.1755  1.4940  0.9130
  460MOL0     H60720   3.691   0.956   6.457 -2.3424 -1.4526  0.3333
  461MOL0     O60721   4.934   8.931   3.850 -0.4425  0.8066 -0.1024
  461MOL0     C60722   4.893   9.038   3.900 -0.7302 -0.0696 -0.2454
  461MOL0     O60723   4.763   9.075   3.920  0.6277 -0.9025  0.4469
  461MOL0     C60724   4.657   9.000   3.887 -0.0636  0.8138 -0.9579
  461MOL0     C60725   4.530   9.051   3.899 -0.5569  0.4829 -0.2378
  461MOL0     C60726   4.410   8.979   3.890 -0.2183 -0.3710 -0.1340
  461MOL0     C60727   4.421   8.838   3.858  0.9643 -0.4876 -0.2529
  461MOL0     O60728   4.314   8.761   3.831  0.0358 -0.1459 -0.1088
  461MOL0     C60729   4.192   8.781   3.912 -0.1968  0.6375  0.2800
  461MOL0     C60730   4.097   8.659   3.891  0.6991 -0.6532  1.2385
  461MOL0     C60731   3.953   8.681   3.931  0.1558 -0.0373 -1.1350
  461MOL0     C60732   3.868   8.551   3.943 -0.1033  0.3446 -0.3949
  461MOL0     C60733   3.718   8.573   3.937  0.0663  0.1992 -0.5132
  461MOL0     C60734   3.629   8.472   4.022  0.4544 -0.1351  0.2927
  461MOL0     C60735   3.478   8.524   4.042  0.4115  0.4714  0.3101
  461MOL0     C60736   3.386   8.519   3.928  0.5463 -0.2263  0.3748
  461MOL0     N60737   3.249   8.564   3.952 -0.2507  0.8950 -0.0325
  461MOL0     C60738   3.169   8.550   4.064 -0.5979 -0.4466 -0.5459
  461MOL0     C60739   3.045   8.593   4.034 -0.3503 -0.3197 -0.7031
  461MOL0     C60740   2.917   8.581   4.123  0.3776  0.2470  0.2249
  461MOL0     C60741   2.877   8.726   4.140  0.5756  0.3088  0.0371
  461MOL0     C60742   2.726   8.727   4.175  0.4048 -0.1028 -1.0971
  461MOL0     C60743   2.704   8.867   4.236  0.1255  0.1437 -0.3951
  461MOL0     O60744   2.570   8.889   4.285  0.0090 -0.0811  0.2538
  461MOL0     C60745   2.461   8.927   4.209  0.5475  1.0122  1.4848
  461MOL0     C60746   2.479   8.979   4.079  0.4313  0.4733  0.1486
  461MOL0     C60747   2.377   9.003   3.997  0.1973 -0.5136  0.2735
  461MOL0     C60748   2.243   8.983   4.044  0.5294  0.7534  0.9316
  461MOL0     C60749   2.128   9.013   3.953 -0.4627  0.2459  0.8913
  461MOL0     O60750   2.168   9.044   3.824  0.1632 -0.1406  0.2049
  461MOL0     C60751   2.073   9.058   3.725  1.0404  0.2848  0.2849
  461MOL0     C60752   2.124   9.083   3.592 -0.4683  0.3952 -0.9621
  461MOL0     C60753   2.045   9.100   3.484  0.2806  0.9199 -0.6195
  461MOL0     C60754   1.910   9.047   3.481 -0.2883 -0.4835 -0.2728
  461MOL0     O60755   1.832   9.039   3.369 -0.5456  0.0845 -0.4366
  461MOL0     C60756   1.842   8.916   3.304  0.2183  0.4346 -0.4850
  461MOL0     C60757   1.956   8.915   3.205  0.5132  0.4409  0.3708
  461MOL0     C60758   1.931   8.799   3.093  0.1680  0.1134 -0.7997
  461MOL0     C60759   2.064   8.776   3.017  0.1569 -0.1535  0.0352
  461MOL0     C60760   2.066   8.633   2.948  0.2457 -0.2999  0.7675
  461MOL0     C60761   2.083   8.525   3.049  0.1540  0.9037 -0.0044
  461MOL0     C60762   2.230   8.517   3.118 -0.6700 -0.7336 -0.0469
  461MOL0     C60763   2.242   8.551   3.270 -0.7196 -0.4822  0.2666
  461MOL0    Cl60764   2.115   8.463   3.365 -0.5660 -0.2043 -0.1093
  461MOL0     C60765   1.859   9.023   3.609  0.2101  0.3820 -0.4040
  461MOL0     C60766   1.926   9.025   3.724 -0.9381  0.0940  0.2225
  461MOL0     O60767   2.010   9.025   3.992 -0.7213 -0.4960 -0.2170
  461MOL0     C60768   2.222   8.921   4.172 -0.7420 -0.3744  0.8911
  461MOL0     C60769   2.334   8.885   4.251 -0.9164 -0.2895  0.5390
  461MOL0     N60770   3.055   8.657   3.910  0.7780  0.8106 -0.5098
  461MOL0     N60771   3.167   8.631   3.860 -0.4504 -0.1611 -0.4579
  461MOL0     C60772   4.546   8.778   3.837  0.3456 -1.4980 -0.2726
  461MOL0     C60773   4.655   8.859   3.861 -1.3865 -0.9419  0.4547
  461MOL0     C60774   4.998   9.130   3.947  0.1240  0.0158  0.2742
  461MOL0     C60775   5.118   9.084   4.003 -0.6047  0.1127  0.4488
  461MOL0     C60776   5.205   9.186   4.066 -0.1700  0.8417  0.0332
  461MOL0     C60777   5.176   9.318   4.065 -0.9855  0.2039  0.2928
  461MOL0     O60778   5.260   9.407   4.133 -0.2003  0.1215 -0.1500
  461MOL0     C60779   5.216   9.544   4.146 -0.7922  0.2627  0.6234
  461MOL0     C60780   5.314   9.615   4.239 -0.0889 -0.2846  0.3455
  461MOL0     C60781   5.330   9.765   4.207 -0.4544  0.3748  0.4064
  461MOL0     C60782   5.456   9.826   4.282 -0.9103  0.5243  0.1213
  461MOL0     C60783   5.582   9.790   4.213  0.4403  0.3132  0.4259
  461MOL0     C60784   5.682   9.768   4.149  0.2370  0.8351  0.1715
  461MOL0     C60785   5.060   9.356   4.004  0.8729  0.4868 -0.3508
  461MOL0     C60786   4.969   9.266   3.949 -0.1850 -0.2830  0.4346
  461MOL0     H60787   4.543   9.154   3.932  2.2558 -0.1633  0.9791
  461MOL0     H60788   4.313   9.024   3.908  0.1671 -0.7504  3.7909
  461MOL0     H60789   4.146   8.871   3.870  1.3403  1.0990 -0.5112
  461MOL0     H60790   4.214   8.794   4.019 -0.7192 -0.5470  0.5466
  461MOL0     H60791   4.145   8.578   3.947  1.4982  0.0701  1.6158
  461MOL0     H60792   4.097   8.641   3.783 -2.1220  1.8339  0.6838
  461MOL0     H60793   3.924   8.758   3.860  0.9874  2.0769  0.6948
  461MOL0     H60794   3.948   8.732   4.028  0.4576 -2.8298  0.4557
  461MOL0     H60795   3.891   8.479   3.864  1.1704  0.1176  0.1609
  461MOL0     H60796   3.899   8.512   4.040 -2.5939  0.4602  0.5129
  461MOL0     H60797   3.684   8.576   3.833 -1.5286 -0.6468 -0.0504
  461MOL0     H60798   3.719   8.670   3.988  1.8235  1.0817 -2.0839
  461MOL0     H60799   3.680   8.459   4.118  1.0445 -3.2979 -0.3539
  461MOL0     H60800   3.611   8.377   3.972  0.7062  0.1556 -0.3627
  461MOL0     H60801   3.437   8.463   4.123 -2.1303 -1.2998 -2.0985
  461MOL0     H60802   3.479   8.629   4.071  2.3347  1.0274 -1.4968
  461MOL0     H60803   3.393   8.413   3.900 -1.3525 -0.1960 -0.3466
  461MOL0     H60804   3.427   8.585   3.851 -2.7888 -0.0104 -1.4013
  461MOL0     H60805   3.198   8.504   4.159 -0.3475  1.5783  0.4001
  461MOL0     H60806   2.933   8.532   4.219  1.1186  0.6055  0.2925
  461MOL0     H60807   2.833   8.527   4.078  0.7773  1.1230 -1.6913
  461MOL0     H60808   2.878   8.767   4.039 -0.0434  0.5882  0.1380
  461MOL0     H60809   2.939   8.786   4.207 -1.3390  1.4628  0.8675
  461MOL0     H60810   2.656   8.727   4.091 -1.1738  1.6826  0.1452
  461MOL0     H60811   2.693   8.653   4.248 -2.2670  0.4130 -1.6791
  461MOL0     H60812   2.740   8.944   4.167  0.8554 -0.5074 -0.7612
  461MOL0     H60813   2.764   8.882   4.326  0.6494 -2.7230 -0.1556
  461MOL0     H60814   2.581   8.986   4.042  0.0817 -1.9896 -1.5256
  461MOL0     H60815   2.407   9.032   3.896 -1.3344 -1.7539 -0.5882
  461MOL0     H60816   2.231   9.095   3.577  0.2067  0.2464  2.6714
  461MOL0     H60817   2.089   9.136   3.391  2.8459  0.6835  0.4319
  461MOL0     H60818   1.750   8.895   3.249 -0.4199 -0.6236  0.9169
  461MOL0     H60819   1.853   8.830   3.370 -1.3390  1.7485  1.5829
  461MOL0     H60820   2.046   8.898   3.265 -0.4574 -1.7275  1.3445
  461MOL0     H60821   1.963   9.010   3.153 -3.4101 -0.6444 -2.6048
  461MOL0     H60822   1.860   8.827   3.015 -0.2746 -2.4460 -1.3842
  461MOL0     H60823   1.902   8.703   3.137 -2.2397  0.2631 -1.8846
  461MOL0     H60824   2.087   8.848   2.938  0.7298 -2.4564 -2.0178
  461MOL0     H60825   2.154   8.785   3.079 -1.0766  0.9292  1.7456
  461MOL0     H60826   2.142   8.619   2.870  0.9542  3.5850  0.5261
  461MOL0     H60827   1.970   8.606   2.903  1.2235 -0.8205 -1.1199
  461MOL0     H60828   2.063   8.431   2.996  2.8434  0.1585  0.1590
  461MOL0     H60829   2.015   8.523   3.134  1.3642 -2.4430  1.0577
  461MOL0     H60830   2.266   8.416   3.095 -0.9015 -0.7999 -0.1257
  461MOL0     H60831   2.291   8.590   3.064 -1.2792 -1.1415 -1.3425
  461MOL0     H60832   2.240   8.655   3.302  0.1418 -0.1658 -0.6542
  461MOL0     H60833   2.338   8.509   3.302 -1.7289 -1.8864  1.5758
  461MOL0     H60834   1.755   8.995   3.621  0.7911 -1.1050  1.8753
  461MOL0     H60835   1.861   8.993   3.805 -1.6103 -2.0418 -1.0563
  461MOL0     H60836   2.116   8.902   4.188 -0.9461  0.1740  0.2266
  461MOL0     H60837   2.338   8.832   4.345 -0.4352 -3.3680 -1.1123
  461MOL0     H60838   4.552   8.673   3.812 -2.4710 -1.6161 -0.6794
  461MOL0     H60839   4.747   8.806   3.840 -1.9994 -1.8797  0.0780
  461MOL0     H60840   5.142   8.979   3.997  0.7023  0.4315 -0.5554
  461MOL0     H60841   5.292   9.145   4.116 -0.5856 -0.3442 -0.1751
  461MOL0     H60842   5.114   9.541   4.187 -1.9433  1.1973 -1.9324
  461MOL0     H60843   5.203   9.607   4.057 -0.6688  2.2587  1.9343
  461MOL0     H60844   5.303   9.599   4.346 -2.1465 -1.4560  0.0109
  461MOL0     H60845   5.403   9.559   4.207  1.2070  1.1383  1.2998
  461MOL0     H60846   5.244   9.820   4.245  0.3063  1.8260  0.0817
  461MOL0     H60847   5.336   9.787   4.100 -0.5731  1.9963  0.7114
  461MOL0     H60848   5.465   9.935   4.282  1.6420  0.4044  1.9773
  461MOL0     H60849   5.459   9.784   4.383 -1.2194 -0.4946 -0.2790
  461MOL0     H60850   5.779   9.763   4.104  0.2175 -3.3785  0.1401
  461MOL0     H60851   5.039   9.461   3.986 -0.4001  0.2750 -0.2041
  461MOL0     H60852   4.874   9.306   3.914  1.4766  2.1220 -1.6855
  462MOL0     O60853   7.929   4.687  10.612  0.1522  0.0132 -0.0658
  462MOL0     C60854   7.853   4.749  10.537 -0.5514 -0.0609  0.4528
  462MOL0     O60855   7.889   4.804  10.421  0.2829 -0.6593 -0.3740
  462MOL0     C60856   8.015   4.782  10.363  1.3807  0.5648 -0.3799
  462MOL0     C60857   8.020   4.675  10.280 -0.4824 -0.2221 -0.4239
  462MOL0     C60858   8.139   4.649  10.216  1.0581  0.4030 -0.2911
  462MOL0     C60859   8.254   4.725  10.236 -0.1227 -0.3422  0.7006
  462MOL0     O60860   8.375   4.702  10.167  0.1936  0.5632  0.6660
  462MOL0     C60861   8.358   4.671  10.027 -0.0150 -0.9126 -0.5038
  462MOL0     C60862   8.448   4.754   9.945  0.9298 -0.1659 -0.5499
  462MOL0     C60863   8.434   4.728   9.800 -0.4964  0.0232  0.2411
  462MOL0     C60864   8.530   4.821   9.709 -0.5173 -0.4987 -0.8242
  462MOL0     C60865   8.519   4.754   9.573  0.4038 -0.8561  0.7699
  462MOL0     C60866   8.609   4.820   9.472  0.2349  0.1241 -0.0433
  462MOL0     C60867   8.637   4.723   9.358  0.2704  0.1185  0.5842
  462MOL0     C60868   8.757   4.627   9.398  0.1866 -0.5137 -0.0462
  462MOL0     N60869   8.811   4.540   9.285  0.3760  0.2431  0.4098
  462MOL0     C60870   8.759   4.417   9.259  0.4934 -0.0074  0.6549
  462MOL0     C60871   8.832   4.369   9.150 -0.1205 -0.5938 -0.1940
  462MOL0     C60872   8.820   4.242   9.082  0.3099  0.0847 -0.2168
  462MOL0     C60873   8.731   4.149   9.173 -0.2926  1.4898  0.0638
  462MOL0     C60874   8.687   4.022   9.105 -0.1570 -0.4377 -0.2171
  462MOL0     C60875   8.572   4.047   9.009  0.4928 -0.5711  0.1554
  462MOL0     O60876   8.498   3.931   8.997 -0.2350  0.5471  0.1923
  462MOL0     C60877   8.373   3.956   8.952  0.8160  0.3238 -0.3876
  462MOL0     C60878   8.260   3.931   9.042  0.4507  0.7399  0.0491
  462MOL0     C60879   8.126   3.956   8.992 -0.2780  0.2961 -0.2732
  462MOL0     C60880   8.108   4.018   8.856  0.7254  1.0599 -0.8168
  462MOL0     C60881   7.975   4.057   8.804  0.5057 -0.5902  0.1563
  462MOL0     O60882   7.977   4.114   8.675  0.0225  0.2716  0.4067
  462MOL0     C60883   7.868   4.183   8.624 -0.3593  0.7399 -0.0630
  462MOL0     C60884   7.815   4.288   8.699  0.4607 -0.6068  0.9541
  462MOL0     C60885   7.694   4.354   8.658 -0.2259 -1.1572  0.0636
  462MOL0     C60886   7.633   4.329   8.534 -0.3807  0.6726 -0.2754
  462MOL0     O60887   7.516   4.383   8.484  0.6430 -1.1450 -0.1581
  462MOL0     C60888   7.423   4.457   8.565 -0.6156  1.0351 -1.3027
  462MOL0     C60889   7.335   4.542   8.476  0.1609 -0.2061 -0.2021
  462MOL0     C60890   7.410   4.663   8.413 -0.1975 -0.3645 -0.6041
  462MOL0     C60891   7.374   4.701   8.270 -0.9164  0.2047 -0.8109
  462MOL0     C60892   7.419   4.843   8.226 -0.1364  0.3158  0.3499
  462MOL0     C60893   7.574   4.883   8.238 -0.1538  0.6430  0.2839
  462MOL0     C60894   7.670   4.794   8.180  0.7548  0.4051  0.0578
  462MOL0     C60895   7.648   4.790   8.034 -0.3286 -0.0511 -0.7722
  462MOL0    Cl60896   7.690   4.950   7.946  0.4853  0.2646 -0.3643
  462MOL0     C60897   7.689   4.226   8.453  0.0534  0.0912 -0.3000
  462MOL0     C60898   7.799   4.145   8.504 -0.1680 -0.9618  0.2905
  462MOL0     O60899   7.868   4.045   8.870 -0.2696 -0.4362  0.2822
  462MOL0     C60900   8.223   4.037   8.778  0.1043 -0.0162  0.2343
  462MOL0     C60901   8.349   4.014   8.830  0.5711 -0.1228 -0.3842
  462MOL0     N60902   8.916   4.470   9.113  0.3612 -0.5669  0.2409
  462MOL0     N60903   8.906   4.574   9.195 -0.2034  0.4659 -0.7644
  462MOL0     C60904   8.253   4.832  10.326  1.0770 -0.6939  0.7277
  462MOL0     C60905   8.129   4.865  10.387  0.0350  0.0219  0.4732
  462MOL0     C60906   7.711   4.776  10.583 -0.0081 -0.0219  0.6852
  462MOL0     C60907   7.676   4.733  10.714 -0.6626  0.1591 -1.4052
  462MOL0     C60908   7.547   4.758  10.766  0.4522  0.4308 -0.3899
  462MOL0     C60909   7.459   4.852  10.704 -0.2920  0.3145  1.5123
  462MOL0     O60910   7.336   4.892  10.756 -0.3845  0.6396 -0.1508
  462MOL0     C60911   7.272   5.006  10.711  0.8341 -0.3392  0.7473
  462MOL0     C60912   7.123   5.022  10.771 -0.1620  0.2433 -0.3797
  462MOL0     C60913   7.045   5.142  10.730  1.5824 -1.0363 -0.4716
  462MOL0     C60914   6.906   5.140  10.797 -0.2011 -0.3352  0.1955
  462MOL0     C60915   6.905   5.190  10.934 -0.1372 -0.2597  0.0025
  462MOL0     C60916   6.899   5.223  11.051  0.1791  0.3424  0.3195
  462MOL0     C60917   7.498   4.895  10.575  0.4628  0.3101  0.2834
  462MOL0     C60918   7.616   4.850  10.516  1.6629  0.2242  0.0588
  462MOL0     H60919   7.931   4.620  10.254  0.8004 -1.4645 -2.5469
  462MOL0     H60920   8.147   4.562  10.150 -0.8063 -1.6192  1.9706
  462MOL0     H60921   8.257   4.692   9.990  1.0971  3.6376 -1.5668
  462MOL0     H60922   8.389   4.567  10.017  0.3865 -0.7516 -0.9868
  462MOL0     H60923   8.551   4.740   9.977  0.8744 -3.4425 -1.5208
  462MOL0     H60924   8.414   4.858   9.947  1.5612  0.1108 -2.5424
  462MOL0     H60925   8.331   4.739   9.766 -1.1754 -4.4943  0.2282
  462MOL0     H60926   8.440   4.619   9.785 -0.0457  0.0422  0.2650
  462MOL0     H60927   8.490   4.923   9.709 -0.4751 -0.4833 -0.4363
  462MOL0     H60928   8.634   4.825   9.742 -0.3552 -3.7943 -0.6561
  462MOL0     H60929   8.418   4.763   9.533  1.2372  0.4918 -1.1771
  462MOL0     H60930   8.542   4.647   9.584 -0.5822 -1.1968 -0.3191
  462MOL0     H60931   8.705   4.846   9.518  1.1635 -1.2771 -1.0991
  462MOL0     H60932   8.560   4.908   9.429 -2.2497 -1.1117  0.0513
  462MOL0     H60933   8.547   4.671   9.324 -1.3372  1.6548  2.2813
  462MOL0     H60934   8.666   4.780   9.269 -1.2550  0.0764  0.0292
  462MOL0     H60935   8.718   4.552   9.467  3.2597 -2.3986 -0.1571
  462MOL0     H60936   8.838   4.688   9.439 -2.0969  1.9415  1.1502
  462MOL0     H60937   8.671   4.374   9.306  0.1535  1.1653  1.1189
  462MOL0     H60938   8.920   4.197   9.082  0.1701 -0.2684  0.8742
  462MOL0     H60939   8.783   4.247   8.979 -2.4135 -0.9235  0.6277
  462MOL0     H60940   8.633   4.190   9.198 -0.4709  1.4774 -0.6001
  462MOL0     H60941   8.794   4.125   9.260  0.7678  0.2264 -0.9973
  462MOL0     H60942   8.767   3.976   9.045 -1.2846 -2.0573 -0.5366
  462MOL0     H60943   8.661   3.943   9.177  3.6047 -1.7868 -0.0672
  462MOL0     H60944   8.607   4.089   8.914 -1.9004  2.2969  0.3892
  462MOL0     H60945   8.513   4.128   9.052  0.6299 -0.3017 -0.1595
  462MOL0     H60946   8.269   3.903   9.147 -0.0100  2.1836  0.5035
  462MOL0     H60947   8.046   3.940   9.063  0.8282 -1.1012  0.7098
  462MOL0     H60948   7.860   4.302   8.797  3.4460 -0.3086 -0.3620
  462MOL0     H60949   7.670   4.434   8.726 -1.3659 -0.0567 -1.5515
  462MOL0     H60950   7.478   4.522   8.634 -0.4217  1.5884 -1.9672
  462MOL0     H60951   7.359   4.382   8.612  0.0899  1.0517 -0.2836
  462MOL0     H60952   7.251   4.584   8.532  0.5853  0.4439 -0.0373
  462MOL0     H60953   7.288   4.476   8.404  0.1415 -0.0904 -0.2958
  462MOL0     H60954   7.517   4.647   8.421 -0.4516 -2.2309 -0.3734
  462MOL0     H60955   7.392   4.750   8.477  4.5873 -1.8669  3.4072
  462MOL0     H60956   7.399   4.632   8.189  0.2279  0.5281 -0.7517
  462MOL0     H60957   7.265   4.706   8.275 -0.9022 -0.4323  0.8722
  462MOL0     H60958   7.370   4.922   8.284 -0.7194  1.0609 -1.1031
  462MOL0     H60959   7.391   4.847   8.120  0.7190 -1.5756  0.0181
  462MOL0     H60960   7.602   4.907   8.341  1.3277 -2.2308  0.6367
  462MOL0     H60961   7.587   4.979   8.187  0.1853 -0.6713 -2.2700
  462MOL0     H60962   7.768   4.841   8.194  1.7726 -0.7468 -2.4249
  462MOL0     H60963   7.669   4.691   8.216 -1.1212  0.1198 -0.6746
  462MOL0     H60964   7.548   4.753   8.010 -0.9496 -0.5297  2.1740
  462MOL0     H60965   7.721   4.722   7.988  2.3467  2.6810 -0.8968
  462MOL0     H60966   7.643   4.207   8.357  0.0458 -2.6265  0.1731
  462MOL0     H60967   7.841   4.053   8.463  0.7172 -0.6407  0.4418
  462MOL0     H60968   8.210   4.064   8.673 -3.2926  2.0460  1.0391
  462MOL0     H60969   8.431   4.018   8.759  0.5899 -2.1717 -0.5231
  462MOL0     H60970   8.338   4.899  10.338 -2.3671  3.8415  3.1303
  462MOL0     H60971   8.115   4.952  10.450 -4.7526  1.2238 -1.7722
  462MOL0     H60972   7.744   4.674  10.774 -1.4159 -1.5807 -2.1927
  462MOL0     H60973   7.531   4.717  10.865 -0.5265  1.3007 -0.1706
  462MOL0     H60974   7.264   5.008  10.602  1.5349  3.3045  0.6374
  462MOL0     H60975   7.336   5.085  10.750 -2.7671  3.1416  0.1758
  462MOL0     H60976   7.054   4.940  10.745  1.1134 -0.5487 -1.3753
  462MOL0     H60977   7.140   5.019  10.879 -2.0677  0.0822 -0.0484
  462MOL0     H60978   7.027   5.138  10.622  2.8195  2.9789 -0.9773
  462MOL0     H60979   7.095   5.236  10.755 -1.6541  0.6642  0.1816
  462MOL0     H60980   6.839   5.195  10.730  0.9511  0.4623 -0.3424
  462MOL0     H60981   6.871   5.037  10.803  0.1625 -0.4687  0.0592
  462MOL0     H60982   6.924   5.253  11.151 -0.1484  2.0774 -0.0830
  462MOL0     H60983   7.428   4.953  10.516  2.7361  1.3956 -1.4868
  462MOL0     H60984   7.638   4.867  10.411 -0.8265 -1.4416 -0.8296
  463MOL0     O60985   3.384   2.148   0.792  0.0332 -0.0963 -0.5186
  463MOL0     C60986   3.461   2.126   0.884 -0.1027 -0.8743 -0.1347
  463MOL0     O60987   3.422   2.097   1.013 -0.1360  0.2769 -0.1819
  463MOL0     C60988   3.283   2.076   1.030 -0.1694 -0.6842  1.1695
  463MOL0     C60989   3.211   1.976   0.961  0.0681  0.4310  0.6627
  463MOL0     C60990   3.076   1.976   0.975  0.2825 -0.8149  1.2668
  463MOL0     C60991   3.010   2.052   1.076 -0.4937  0.0806 -0.6053
  463MOL0     O60992   2.878   2.041   1.099 -0.7405  0.6868  0.5380
  463MOL0     C60993   2.798   1.950   1.012  0.1052 -0.4733  0.0543
  463MOL0     C60994   2.652   1.945   1.059 -0.2221  0.6705 -1.0947
  463MOL0     C60995   2.591   2.081   1.114  0.2603  0.5805 -0.2439
  463MOL0     C60996   2.450   2.060   1.183 -0.2828 -0.2226 -0.7566
  463MOL0     C60997   2.418   2.204   1.226  1.2645 -0.5036 -0.1120
  463MOL0     C60998   2.269   2.228   1.272 -0.1351 -0.3262 -0.2792
  463MOL0     C60999   2.251   2.352   1.351 -0.1421  0.4516 -0.0707
  463MOL0     C61000   2.314   2.336   1.496 -0.1127  0.7350  0.2456
  463MOL0     N61001   2.228   2.419   1.583  0.0194 -0.0454 -0.1408
  463MOL0     C61002   2.212   2.557   1.578 -0.0153  0.0507 -0.1022
  463MOL0     C61003   2.131   2.583   1.681 -0.0627 -0.8616  0.7133
  463MOL0     C61004   2.099   2.726   1.726 -0.1390  0.3710  0.1763
  463MOL0     C61005   1.958   2.766   1.677 -0.3749 -0.3322  0.1083
  463MOL0     C61006   1.844   2.702   1.755  0.8638  0.2159 -0.5471
  463MOL0     C61007   1.712   2.736   1.671 -0.6058  0.4312 -0.2782
  463MOL0     O61008   1.596   2.669   1.725  0.2023 -0.2569 -0.5278
  463MOL0     C61009   1.480   2.716   1.682 -0.6840 -0.3355  0.3736
  463MOL0     C61010   1.461   2.782   1.559 -0.5308 -0.1409 -0.5969
  463MOL0     C61011   1.333   2.830   1.521  0.3781 -0.3467  0.2439
  463MOL0     C61012   1.221   2.811   1.600 -1.7508  1.0137 -1.2497
  463MOL0     C61013   1.080   2.861   1.568 -0.8418  0.2135 -0.5115
  463MOL0     O61014   1.061   2.951   1.461  0.1167  0.2936  0.2366
  463MOL0     C61015   0.943   3.024   1.457  0.8803 -0.9734 -0.0680
  463MOL0     C61016   0.965   3.147   1.410  0.5219  0.6529 -0.0086
  463MOL0     C61017   0.858   3.235   1.399  0.3093  0.1904  0.3666
  463MOL0     C61018   0.721   3.199   1.424 -0.1418 -0.2108  0.0608
  463MOL0     O61019   0.613   3.282   1.411  0.5416 -0.3686 -0.6894
  463MOL0     C61020   0.619   3.354   1.286  0.3891  0.2621  0.0507
  463MOL0     C61021   0.469   3.365   1.244  0.1191  0.1457 -0.1461
  463MOL0     C61022   0.452   3.437   1.113  0.3250 -0.2594  0.7807
  463MOL0     C61023   0.307   3.441   1.063 -0.6709  0.5972  0.5503
  463MOL0     C61024   0.305   3.465   0.907 -0.0203 -0.3172 -0.5136
  463MOL0     C61025   0.163   3.473   0.845 -0.3780  0.0286  0.6614
  463MOL0     C61026   0.173   3.516   0.705 -0.0468  0.0605 -0.4509
  463MOL0     C61027   0.037   3.557   0.653  0.3562  0.3690 -0.0554
  463MOL0    Cl61028  -0.058   3.407   0.627 -0.3786 -0.1378 -0.3040
  463MOL0     C61029   0.709   3.061   1.457  0.3894 -0.9402  0.3796
  463MOL0     C61030   0.820   2.979   1.477  0.7653  0.6572 -0.0956
  463MOL0     O61031   0.993   2.838   1.649  0.0597  0.1001 -0.5656
  463MOL0     C61032   1.241   2.736   1.718 -0.1417 -0.0382  0.5473
  463MOL0     C61033   1.370   2.702   1.761 -0.2125  0.0562  0.4497
  463MOL0     N61034   2.094   2.467   1.750  0.2837  0.3530  0.8615
  463MOL0     N61035   2.152   2.365   1.685  0.3323 -0.2182  0.1564
  463MOL0     C61036   3.091   2.134   1.160 -0.2123 -0.4891  0.9331
  463MOL0     C61037   3.225   2.148   1.140  0.9570 -0.8638  1.0112
  463MOL0     C61038   3.608   2.137   0.864 -1.4276  0.4479  0.9726
  463MOL0     C61039   3.700   2.179   0.960  0.3759 -0.2811  0.1628
  463MOL0     C61040   3.833   2.188   0.933  0.1192 -0.1629  0.6243
  463MOL0     C61041   3.886   2.151   0.809  0.3370 -0.4564 -0.4344
  463MOL0     O61042   4.024   2.166   0.793  0.7439  0.8683  0.6477
  463MOL0     C61043   4.083   2.121   0.667 -0.2870 -0.5559  0.1708
  463MOL0     C61044   4.084   1.962   0.665 -0.8272  0.6390  0.8363
  463MOL0     C61045   4.219   1.903   0.715 -0.6124  0.5847  0.5673
  463MOL0     C61046   4.217   1.747   0.714 -0.6298 -0.5027 -0.0569
  463MOL0     C61047   4.134   1.696   0.822 -0.0638  0.8935 -0.5269
  463MOL0     C61048   4.086   1.667   0.924  0.0563 -0.1656  0.1137
  463MOL0     C61049   3.808   2.096   0.715 -0.2737  0.5976  0.3831
  463MOL0     C61050   3.666   2.097   0.737 -0.1605 -0.4184  0.4238
  463MOL0     H61051   3.266   1.921   0.885  1.3186 -0.4366  2.1471
  463MOL0     H61052   3.025   1.909   0.906  1.7384  0.2563 -0.9578
  463MOL0     H61053   2.845   1.852   1.019 -1.9918 -1.4755  0.8768
  463MOL0     H61054   2.806   1.979   0.907 -3.4104  1.0477  0.0544
  463MOL0     H61055   2.639   1.877   1.143 -1.1404  3.1994  0.9477
  463MOL0     H61056   2.588   1.892   0.988  1.4418 -1.8936 -0.8182
  463MOL0     H61057   2.573   2.146   1.027 -0.2662  0.1974 -0.4254
  463MOL0     H61058   2.661   2.131   1.182 -0.2355 -0.4004  1.0229
  463MOL0     H61059   2.373   2.026   1.114  0.2402 -0.5773 -1.1769
  463MOL0     H61060   2.457   1.995   1.271  2.2892  2.4641  1.2358
  463MOL0     H61061   2.427   2.276   1.144 -2.6487 -0.2317 -0.4637
  463MOL0     H61062   2.492   2.245   1.295  0.8136  0.0021  0.0768
  463MOL0     H61063   2.229   2.138   1.320  1.2824 -1.1201 -0.5306
  463MOL0     H61064   2.208   2.238   1.182 -3.5934 -0.8567  1.7922
  463MOL0     H61065   2.313   2.429   1.304  2.3127 -1.8520 -0.8849
  463MOL0     H61066   2.151   2.394   1.342 -0.3991  0.4757  2.2671
  463MOL0     H61067   2.420   2.356   1.478  0.2981 -1.4104  0.0184
  463MOL0     H61068   2.319   2.234   1.535  2.6703  1.2055  1.3606
  463MOL0     H61069   2.259   2.627   1.509 -0.0724  1.5990  1.3597
  463MOL0     H61070   2.173   2.794   1.683 -2.6133  3.2358  0.1242
  463MOL0     H61071   2.106   2.739   1.835 -0.9854  1.8225  0.0967
  463MOL0     H61072   1.946   2.747   1.570 -1.9624 -0.8620  0.3428
  463MOL0     H61073   1.941   2.874   1.686 -1.2494 -0.1790 -2.4982
  463MOL0     H61074   1.861   2.595   1.767  0.1690  0.1817  0.1908
  463MOL0     H61075   1.826   2.745   1.854  6.5111  1.0629  0.4591
  463MOL0     H61076   1.740   2.703   1.571  1.8836 -1.8932  1.0492
  463MOL0     H61077   1.701   2.844   1.667 -2.8683  0.2097 -2.2187
  463MOL0     H61078   1.548   2.787   1.494  1.3214 -0.0174  1.7600
  463MOL0     H61079   1.319   2.875   1.423  0.4809  0.3386  0.5342
  463MOL0     H61080   1.065   3.167   1.373  1.4774 -3.2003  0.0737
  463MOL0     H61081   0.881   3.336   1.365 -1.9844  0.0839 -1.7479
  463MOL0     H61082   0.674   3.306   1.204  0.2350  2.5848 -1.5202
  463MOL0     H61083   0.667   3.451   1.302  1.6600 -0.2928 -0.2652
  463MOL0     H61084   0.421   3.433   1.315  2.0732  0.6256  0.8159
  463MOL0     H61085   0.407   3.277   1.229  1.4809 -0.4664 -2.7748
  463MOL0     H61086   0.510   3.387   1.035  1.8053  1.0953  0.9561
  463MOL0     H61087   0.482   3.542   1.123  1.7756  0.1198 -4.3230
  463MOL0     H61088   0.256   3.349   1.092  0.5706  0.7928  3.7290
  463MOL0     H61089   0.247   3.522   1.105 -1.1901  2.0092 -2.6367
  463MOL0     H61090   0.351   3.378   0.858 -0.4467 -0.0604 -1.3937
  463MOL0     H61091   0.368   3.554   0.895 -1.3876  0.6301 -0.8502
  463MOL0     H61092   0.093   3.538   0.899 -0.5216  0.4070  0.0300
  463MOL0     H61093   0.118   3.373   0.843  2.4722 -1.3791 -1.8820
  463MOL0     H61094   0.233   3.608   0.711 -2.4881  1.6466  2.8094
  463MOL0     H61095   0.212   3.442   0.635 -0.4658  1.5825 -2.3776
  463MOL0     H61096   0.047   3.606   0.556 -0.7509 -1.0846 -0.9384
  463MOL0     H61097  -0.005   3.635   0.717  2.9699  3.9159 -2.2223
  463MOL0     H61098   0.614   3.029   1.500  2.5582 -1.5010  5.4429
  463MOL0     H61099   0.804   2.877   1.509  0.0567 -0.5678 -3.8133
  463MOL0     H61100   1.157   2.717   1.784 -1.5896 -1.3236 -1.5733
  463MOL0     H61101   1.377   2.655   1.858  3.1105  0.1067  0.3654
  463MOL0     H61102   3.050   2.179   1.250  2.0461  1.8418  0.9039
  463MOL0     H61103   3.289   2.201   1.210  2.5465  0.1207 -1.0673
  463MOL0     H61104   3.675   2.207   1.061 -0.5041  1.0994 -0.4056
  463MOL0     H61105   3.896   2.235   1.008 -0.6997 -0.2277  1.3529
  463MOL0     H61106   4.185   2.159   0.659 -0.0540 -1.2433 -0.1946
  463MOL0     H61107   4.032   2.165   0.581 -1.1742 -0.2103  0.8604
  463MOL0     H61108   4.002   1.927   0.729  0.1136  1.1254  2.3869
  463MOL0     H61109   4.063   1.932   0.562 -0.4772  1.2709  0.5723
  463MOL0     H61110   4.245   1.943   0.814  1.3682  3.3164 -0.9280
  463MOL0     H61111   4.293   1.932   0.640  0.8986 -0.7008  1.4884
  463MOL0     H61112   4.190   1.707   0.616  2.2113  0.1615 -1.2026
  463MOL0     H61113   4.319   1.713   0.735 -0.3411  1.7088  2.6308
  463MOL0     H61114   4.036   1.633   1.012  1.0033 -1.3648  0.2228
  463MOL0     H61115   3.842   2.073   0.615  1.8879  1.5407  0.8355
  463MOL0     H61116   3.608   2.060   0.653  1.6300 -0.2622 -0.9231
  464MOL0     O61117   9.197   2.908   7.105  0.2683 -0.1186 -0.0326
  464MOL0     C61118   9.263   2.992   7.168  0.2536  0.5920  0.6076
  464MOL0     O61119   9.207   3.075   7.266 -0.3817  0.0104  0.3006
  464MOL0     C61120   9.075   3.050   7.314 -0.3532  0.8197 -0.4350
  464MOL0     C61121   8.969   3.080   7.233  0.0058  0.3006  0.3663
  464MOL0     C61122   8.841   3.052   7.283  0.1964 -0.1693  0.4478
  464MOL0     C61123   8.820   3.004   7.411  0.0814 -0.0287  0.0979
  464MOL0     O61124   8.687   2.979   7.441 -0.2216 -0.4274 -0.7019
  464MOL0     C61125   8.650   2.960   7.580 -0.5352 -0.2380 -0.5381
  464MOL0     C61126   8.496   2.982   7.601 -0.1852  0.2370 -0.1846
  464MOL0     C61127   8.429   2.874   7.503 -0.8264 -0.5288  1.0350
  464MOL0     C61128   8.282   2.862   7.491  0.1695 -0.4854 -0.2677
  464MOL0     C61129   8.244   2.746   7.400 -0.3583 -0.3487  0.9372
  464MOL0     C61130   8.091   2.713   7.380  0.0734 -0.6124 -0.4479
  464MOL0     C61131   8.108   2.572   7.318  0.6080 -0.2079 -0.4913
  464MOL0     C61132   7.985   2.507   7.257 -0.0814 -1.0237 -0.5965
  464MOL0     N61133   8.001   2.377   7.195  0.0701 -0.9295 -0.2488
  464MOL0     C61134   7.980   2.346   7.064 -0.6988  0.3227 -0.5699
  464MOL0     C61135   8.017   2.218   7.054 -0.7024  0.8015 -0.3768
  464MOL0     C61136   8.012   2.141   6.929 -0.1227 -1.1910  0.0196
  464MOL0     C61137   7.879   2.135   6.861 -0.1182 -0.3943 -0.3544
  464MOL0     C61138   7.764   2.100   6.962  0.5370  0.0264 -0.5364
  464MOL0     C61139   7.639   2.076   6.870 -0.3920  0.4501  0.4345
  464MOL0     O61140   7.530   2.053   6.956 -0.1309  0.2719 -0.0767
  464MOL0     C61141   7.403   2.081   6.921  0.3881 -0.6801  0.4315
  464MOL0     C61142   7.316   2.149   7.005  0.0314  0.1450 -1.0469
  464MOL0     C61143   7.182   2.178   6.971  0.2633  0.5109 -0.4752
  464MOL0     C61144   7.134   2.125   6.845 -0.1730  0.9870 -0.7127
  464MOL0     C61145   7.006   2.150   6.791  0.1105 -0.5808  0.4743
  464MOL0     O61146   6.958   2.073   6.690  0.1294 -0.2359 -0.3093
  464MOL0     C61147   6.837   2.082   6.630 -0.5238 -0.0181  0.8116
  464MOL0     C61148   6.718   2.102   6.701  0.4857 -1.2022  0.3800
  464MOL0     C61149   6.597   2.097   6.626 -0.5231 -1.1362  0.4825
  464MOL0     C61150   6.590   2.078   6.488 -0.0703  0.7552 -0.6571
  464MOL0     O61151   6.473   2.062   6.417  0.1922 -0.5040  0.0344
  464MOL0     C61152   6.356   2.091   6.482 -0.2144  0.7277 -0.1820
  464MOL0     C61153   6.248   2.112   6.369  0.2630 -0.3011  0.0725
  464MOL0     C61154   6.115   2.136   6.421  0.2526 -0.3979 -0.1536
  464MOL0     C61155   6.014   2.158   6.306  0.5834 -0.1012 -0.4844
  464MOL0     C61156   5.868   2.183   6.368 -0.7593 -0.2694 -0.2542
  464MOL0     C61157   5.757   2.183   6.263  0.1324 -0.4808 -0.0025
  464MOL0     C61158   5.622   2.208   6.347 -1.0502 -0.3209 -0.4924
  464MOL0     C61159   5.494   2.201   6.261 -0.8580 -0.1260 -0.2615
  464MOL0    Cl61160   5.468   2.340   6.163 -0.1960  0.2644  0.5281
  464MOL0     C61161   6.711   2.062   6.415 -1.2995 -0.7177 -0.0498
  464MOL0     C61162   6.835   2.079   6.482  0.4903  0.6052 -0.0609
  464MOL0     O61163   6.937   2.231   6.849 -0.1940 -0.3090 -0.4210
  464MOL0     C61164   7.227   2.074   6.753 -0.9175 -0.4200 -0.8485
  464MOL0     C61165   7.359   2.054   6.791  0.5806 -0.2784  1.2234
  464MOL0     N61166   8.050   2.165   7.182  0.4874 -0.3908  0.0827
  464MOL0     N61167   8.028   2.263   7.261 -0.0028  0.9298 -0.1641
  464MOL0     C61168   8.929   2.989   7.505  0.5428  0.0190 -0.5813
  464MOL0     C61169   9.058   3.004   7.446 -0.2492 -0.9235 -0.0429
  464MOL0     C61170   9.407   2.989   7.146  0.7178 -0.4820 -0.4004
  464MOL0     C61171   9.452   2.912   7.037  0.6332 -0.3167 -0.1590
  464MOL0     C61172   9.588   2.903   7.012  0.2033 -0.2301  0.8453
  464MOL0     C61173   9.679   2.967   7.093 -0.7405  0.3755 -0.6818
  464MOL0     O61174   9.815   2.959   7.070 -0.0601 -0.0657 -0.6323
  464MOL0     C61175   9.867   2.832   7.092 -0.6342  0.1539  0.0805
  464MOL0     C61176  10.005   2.815   7.021  0.4870 -0.7976 -0.4545
  464MOL0     C61177  10.102   2.934   7.038  1.0166 -0.3754 -0.1551
  464MOL0     C61178  10.136   2.984   7.178 -0.4045  0.8940  0.6570
  464MOL0     C61179  10.244   2.896   7.232  0.0987 -0.2009 -0.3694
  464MOL0     C61180  10.322   2.822   7.290 -0.5966 -0.4422  0.0177
  464MOL0     C61181   9.635   3.045   7.196 -0.4895 -0.3294 -0.8851
  464MOL0     C61182   9.498   3.052   7.225  0.8119 -0.1422 -0.0497
  464MOL0     H61183   8.988   3.096   7.127  1.7006  0.3693  0.6503
  464MOL0     H61184   8.754   3.071   7.222  0.5399  3.8708  0.9436
  464MOL0     H61185   8.705   3.021   7.652 -2.0391  0.9665 -0.3661
  464MOL0     H61186   8.670   2.856   7.608 -3.9285 -0.7393  0.4603
  464MOL0     H61187   8.468   3.085   7.577  1.5046  1.6516  3.2708
  464MOL0     H61188   8.454   2.969   7.701  0.5552 -0.5179  0.0358
  464MOL0     H61189   8.463   2.785   7.559  1.5425  0.9156  2.0630
  464MOL0     H61190   8.472   2.884   7.403 -0.2982  0.4461  1.3453
  464MOL0     H61191   8.236   2.851   7.590  1.3059 -1.4723  0.1742
  464MOL0     H61192   8.252   2.951   7.436  2.0286 -1.1683 -2.5537
  464MOL0     H61193   8.294   2.661   7.448  0.8527 -1.0073 -1.3529
  464MOL0     H61194   8.279   2.753   7.296 -1.3698 -1.8003  0.4686
  464MOL0     H61195   8.044   2.785   7.313  1.0496 -0.2410 -0.7526
  464MOL0     H61196   8.036   2.715   7.475  0.9910  1.7966  0.1115
  464MOL0     H61197   8.185   2.579   7.242  0.5105  0.8161 -0.5085
  464MOL0     H61198   8.144   2.504   7.395  0.9868  2.3470  1.7216
  464MOL0     H61199   7.936   2.577   7.189 -1.8349 -0.5356  1.0808
  464MOL0     H61200   7.912   2.506   7.338  0.6609 -2.5082  0.1035
  464MOL0     H61201   7.946   2.398   6.975 -0.1445 -0.4094 -1.2250
  464MOL0     H61202   8.043   2.037   6.945 -0.7460 -1.2314  1.0170
  464MOL0     H61203   8.068   2.196   6.853 -3.0626  0.9249 -0.7680
  464MOL0     H61204   7.886   2.056   6.785 -1.2866  0.0230 -0.9227
  464MOL0     H61205   7.861   2.234   6.818 -1.1669  0.0729  1.0877
  464MOL0     H61206   7.780   2.017   7.031 -1.4322 -0.6870 -0.8730
  464MOL0     H61207   7.744   2.180   7.034  1.7670 -0.6672  0.6149
  464MOL0     H61208   7.641   1.993   6.798  2.0360 -0.8302  1.8602
  464MOL0     H61209   7.622   2.166   6.810 -0.7611  0.2498  0.2379
  464MOL0     H61210   7.358   2.184   7.099 -0.9542 -2.5772  0.5447
  464MOL0     H61211   7.110   2.225   7.036 -0.7024 -1.8348  0.2691
  464MOL0     H61212   6.707   2.126   6.806 -1.1240  1.8917 -0.3826
  464MOL0     H61213   6.508   2.105   6.687  0.6202  4.1951  1.8917
  464MOL0     H61214   6.363   2.181   6.543 -1.1265 -0.0925  1.2046
  464MOL0     H61215   6.336   2.005   6.548 -0.1749  1.3953  0.7179
  464MOL0     H61216   6.242   2.021   6.309  0.4723 -0.4068  0.2099
  464MOL0     H61217   6.282   2.198   6.310  0.7755 -0.7506 -0.2938
  464MOL0     H61218   6.112   2.230   6.478 -0.6854  1.4339 -2.9804
  464MOL0     H61219   6.075   2.055   6.482 -2.3298  0.3808 -0.6635
  464MOL0     H61220   6.049   2.244   6.249  0.4040  0.8450  0.7903
  464MOL0     H61221   6.017   2.068   6.244 -0.3424 -0.9482  0.6458
  464MOL0     H61222   5.872   2.273   6.430  0.7872  1.4008 -2.6065
  464MOL0     H61223   5.845   2.092   6.424 -2.5345 -0.5925 -1.4363
  464MOL0     H61224   5.757   2.096   6.197  0.6595  0.7510 -1.7052
  464MOL0     H61225   5.762   2.272   6.201  4.2416 -1.6502 -1.6814
  464MOL0     H61226   5.619   2.131   6.424 -0.1913 -0.2445 -0.3713
  464MOL0     H61227   5.631   2.306   6.395  1.8340 -0.9553  0.5084
  464MOL0     H61228   5.407   2.182   6.325  0.1737 -2.3395  0.5864
  464MOL0     H61229   5.501   2.107   6.206  0.8617 -0.8546  1.1171
  464MOL0     H61230   6.692   2.052   6.309  1.9360  2.4306 -1.1684
  464MOL0     H61231   6.932   2.080   6.432  0.8266  2.2697  0.5538
  464MOL0     H61232   7.203   2.020   6.663 -0.2956 -0.7137 -0.8420
  464MOL0     H61233   7.422   2.012   6.713 -0.7827 -1.4325  0.6974
  464MOL0     H61234   8.920   2.960   7.609  3.0756  2.6564  0.5336
  464MOL0     H61235   9.151   2.994   7.500  1.4778  2.1958 -2.1122
  464MOL0     H61236   9.385   2.859   6.971 -0.7915 -0.5891  1.4386
  464MOL0     H61237   9.626   2.845   6.928 -0.4160 -1.3658  1.3281
  464MOL0     H61238   9.796   2.756   7.058 -0.4934  0.2515 -0.4348
  464MOL0     H61239   9.884   2.818   7.199  1.4487  0.7686 -0.1304
  464MOL0     H61240  10.048   2.725   7.066 -0.2016 -0.0960  1.7876
  464MOL0     H61241   9.991   2.818   6.913  0.5712  1.7621 -0.4586
  464MOL0     H61242  10.063   3.018   6.980 -1.0324 -1.7850 -0.8961
  464MOL0     H61243  10.191   2.909   6.979  1.3049 -1.6570  0.7892
  464MOL0     H61244  10.180   3.084   7.167  0.7537  0.7450  3.1962
  464MOL0     H61245  10.045   2.985   7.239  1.4720  2.5311  3.6722
  464MOL0     H61246  10.377   2.748   7.345 -1.0103  1.0820  2.6478
  464MOL0     H61247   9.704   3.096   7.263  0.3311 -3.8525  1.2195
  464MOL0     H61248   9.463   3.109   7.311 -1.1275 -0.7189 -0.4132
  465MOL0     O61249   6.763  11.200   7.322 -0.2907 -0.5064  0.2325
  465MOL0     C61250   6.841  11.221   7.223  0.1712 -0.0714  0.7769
  465MOL0     O61251   6.823  11.318   7.130  0.5799  0.4759  0.4325
  465MOL0     C61252   6.694  11.371   7.113  0.6128 -0.1649  0.7537
  465MOL0     C61253   6.684  11.509   7.079  0.1776  0.5993  0.4867
  465MOL0     C61254   6.565  11.571   7.061 -0.0983 -0.0870  0.5304
  465MOL0     C61255   6.445  11.491   7.068 -0.3305 -0.0460  0.2905
  465MOL0     O61256   6.339  11.566   7.057 -0.2892 -0.8698 -0.1096
  465MOL0     C61257   6.229  11.523   6.980 -0.0520  0.7964 -0.2254
  465MOL0     C61258   6.138  11.631   6.918  0.3949  0.2982 -0.6944
  465MOL0     C61259   6.057  11.696   7.024  0.0200 -0.3413 -0.2023
  465MOL0     C61260   5.919  11.739   6.995 -0.0696 -0.4781 -0.6120
  465MOL0     C61261   5.848  11.772   7.126  1.0715 -0.1072  0.1011
  465MOL0     C61262   5.698  11.786   7.108  0.4094  0.2406  0.2797
  465MOL0     C61263   5.627  11.837   7.243 -0.6137  0.0150  0.0859
  465MOL0     C61264   5.485  11.851   7.235 -0.0053 -0.1973  0.2448
  465MOL0     N61265   5.441  11.977   7.178  0.1386 -0.2467 -0.8931
  465MOL0     C61266   5.361  12.055   7.253  0.2294 -0.1415 -0.1194
  465MOL0     C61267   5.293  12.133   7.160  0.8693  0.4103  0.2216
  465MOL0     C61268   5.183  12.235   7.188  0.5496 -0.1014 -0.9455
  465MOL0     C61269   5.056  12.203   7.104  0.3317 -0.5397  0.1104
  465MOL0     C61270   5.054  12.264   6.963  0.9821 -1.0431  0.9127
  465MOL0     C61271   4.919  12.249   6.889 -0.5680 -0.6653  0.3268
  465MOL0     O61272   4.835  12.350   6.955 -0.4567 -0.8261  0.2715
  465MOL0     C61273   4.725  12.389   6.887 -1.2056  0.4054  0.3054
  465MOL0     C61274   4.597  12.344   6.930 -0.0693 -0.3992 -0.4023
  465MOL0     C61275   4.487  12.389   6.857  0.1924 -0.5911  0.3837
  465MOL0     C61276   4.494  12.482   6.750  0.0933  0.6118  0.4112
  465MOL0     C61277   4.380  12.515   6.670 -0.4844  0.1883  0.8725
  465MOL0     O61278   4.255  12.517   6.725 -1.0102  0.3854 -0.2406
  465MOL0     C61279   4.141  12.543   6.659  0.1053  0.5877  0.6039
  465MOL0     C61280   4.132  12.625   6.536  0.3357  0.3720 -0.6465
  465MOL0     C61281   3.997  12.650   6.489  0.5023  0.9342 -0.5306
  465MOL0     C61282   3.891  12.595   6.559  0.3118 -0.9142  0.7626
  465MOL0     O61283   3.763  12.617   6.510 -0.0929  0.3485  0.2217
  465MOL0     C61284   3.729  12.744   6.461 -0.3518 -0.5592  0.3793
  465MOL0     C61285   3.621  12.738   6.360  0.7128 -0.0813  0.8129
  465MOL0     C61286   3.497  12.685   6.429 -0.5847  0.1866  0.1146
  465MOL0     C61287   3.360  12.705   6.352 -0.6529 -0.5166  0.0667
  465MOL0     C61288   3.363  12.620   6.214  0.4137  0.0854 -0.4641
  465MOL0     C61289   3.221  12.597   6.168  0.4264 -0.2779  0.1719
  465MOL0     C61290   3.165  12.721   6.115 -1.0942 -0.2498 -0.3529
  465MOL0     C61291   3.014  12.695   6.087  0.3656 -0.2250 -1.0113
  465MOL0    Cl61292   2.952  12.859   6.075 -0.0842 -0.0565  0.2516
  465MOL0     C61293   3.901  12.515   6.671  0.8269 -0.3367 -1.2339
  465MOL0     C61294   4.032  12.497   6.730  0.0779 -0.0284  0.4640
  465MOL0     O61295   4.408  12.542   6.554 -0.0035 -0.2625 -0.4098
  465MOL0     C61296   4.626  12.525   6.709 -0.4094  0.1002 -0.4345
  465MOL0     C61297   4.739  12.477   6.766  0.7028  0.5663 -0.6754
  465MOL0     N61298   5.337  12.097   7.033  0.5121 -0.1428 -0.0657
  465MOL0     N61299   5.430  12.004   7.047 -0.5973 -0.8472 -0.3908
  465MOL0     C61300   6.455  11.353   7.083 -0.0048  0.2894  0.3518
  465MOL0     C61301   6.573  11.291   7.105 -0.3716  0.0591 -0.5309
  465MOL0     C61302   6.974  11.149   7.212  0.6823 -0.4343  0.1356
  465MOL0     C61303   7.057  11.171   7.109  0.2633 -0.5554 -0.3134
  465MOL0     C61304   7.179  11.104   7.107  0.1564 -0.5082 -0.5422
  465MOL0     C61305   7.207  11.003   7.193 -0.0350 -0.6183 -0.6220
  465MOL0     O61306   7.326  10.936   7.188  0.1390 -0.1203 -0.2511
  465MOL0     C61307   7.427  10.990   7.276  0.4434 -0.4247  0.0604
  465MOL0     C61308   7.554  11.020   7.216 -0.8791 -0.3041 -1.4185
  465MOL0     C61309   7.643  11.107   7.308 -0.2123 -0.6861  0.3354
  465MOL0     C61310   7.780  11.153   7.252  0.4032  0.4508  0.5266
  465MOL0     C61311   7.743  11.261   7.156  0.2466 -0.1108  0.4236
  465MOL0     C61312   7.708  11.345   7.078 -0.2249  0.0302  0.7956
  465MOL0     C61313   7.112  10.981   7.298 -0.0223 -0.5105 -0.5783
  465MOL0     C61314   6.996  11.051   7.305  0.0346 -0.2648  0.0408
  465MOL0     H61315   6.779  11.561   7.084  0.0400  1.1393 -1.7008
  465MOL0     H61316   6.545  11.676   7.043  1.5085 -0.0828 -1.6808
  465MOL0     H61317   6.173  11.451   7.041  1.6125 -1.7245 -1.5010
  465MOL0     H61318   6.260  11.469   6.890 -3.9693  2.3152 -2.7507
  465MOL0     H61319   6.070  11.576   6.853 -0.0232  0.9514 -0.8204
  465MOL0     H61320   6.207  11.694   6.861  0.7974 -1.5630 -2.3737
  465MOL0     H61321   6.111  11.786   7.055 -2.5288  1.4128 -0.4374
  465MOL0     H61322   6.056  11.630   7.111  0.3210  0.7789  0.6715
  465MOL0     H61323   5.922  11.832   6.938 -2.4577  0.6415  0.8956
  465MOL0     H61324   5.865  11.661   6.940 -1.0834 -0.1723 -0.0805
  465MOL0     H61325   5.894  11.865   7.161  0.8010 -0.9026  2.8914
  465MOL0     H61326   5.860  11.686   7.193  0.4937 -3.0492 -3.2558
  465MOL0     H61327   5.670  11.684   7.083  1.9129 -0.2129  0.3720
  465MOL0     H61328   5.663  11.860   7.035 -0.9897  0.2393  0.9005
  465MOL0     H61329   5.643  11.757   7.316  0.7620 -2.3945 -2.6510
  465MOL0     H61330   5.677  11.925   7.284 -0.9451 -1.4940  4.1558
  465MOL0     H61331   5.435  11.828   7.330  1.3399  1.4177  1.3971
  465MOL0     H61332   5.447  11.768   7.175 -2.2281  0.9223 -0.0125
  465MOL0     H61333   5.356  12.049   7.361  2.1216 -0.0434  0.0115
  465MOL0     H61334   5.224  12.336   7.183  0.1543  0.1180  0.1196
  465MOL0     H61335   5.157  12.211   7.291  1.5777  2.0400 -0.1306
  465MOL0     H61336   4.969  12.233   7.163  1.2458  1.0510  0.7248
  465MOL0     H61337   5.048  12.095   7.087 -2.2739 -0.0615 -2.5789
  465MOL0     H61338   5.090  12.366   6.977 -0.7970 -0.4737  1.5857
  465MOL0     H61339   5.139  12.211   6.918  0.5453 -0.9547 -0.0321
  465MOL0     H61340   4.873  12.153   6.911  1.0416 -0.9257  2.9999
  465MOL0     H61341   4.934  12.262   6.781  1.6370  0.2183  0.6809
  465MOL0     H61342   4.584  12.281   7.017  0.2198 -0.7822 -0.6346
  465MOL0     H61343   4.391  12.347   6.885 -0.0684 -1.5346 -1.6996
  465MOL0     H61344   4.215  12.660   6.474  0.4106 -0.8419 -1.2699
  465MOL0     H61345   3.982  12.688   6.389 -0.9421 -1.6248 -1.3771
  465MOL0     H61346   3.810  12.802   6.415  0.0505 -0.8042  0.7682
  465MOL0     H61347   3.689  12.799   6.546 -2.4884 -4.0354  1.8591
  465MOL0     H61348   3.644  12.678   6.271  1.4404  0.5722  0.5423
  465MOL0     H61349   3.599  12.832   6.310 -3.5837 -0.7823  1.0566
  465MOL0     H61350   3.484  12.727   6.530  0.2876  2.4036 -0.6268
  465MOL0     H61351   3.515  12.578   6.438  2.3525  0.5045 -1.0253
  465MOL0     H61352   3.274  12.669   6.410 -2.1964 -0.5539 -2.1000
  465MOL0     H61353   3.346  12.809   6.322 -0.4856 -0.5664 -0.1908
  465MOL0     H61354   3.412  12.524   6.230  1.5913  0.5240 -1.3523
  465MOL0     H61355   3.409  12.681   6.136 -0.3587  0.5007 -0.6104
  465MOL0     H61356   3.164  12.552   6.250 -0.6842 -0.1034 -0.4724
  465MOL0     H61357   3.224  12.532   6.080  3.0435  0.7319 -0.5591
  465MOL0     H61358   3.168  12.796   6.194  0.6089 -0.2966 -0.3491
  465MOL0     H61359   3.232  12.762   6.039  0.9896 -1.4047  0.7860
  465MOL0     H61360   2.971  12.635   6.168  1.3656 -1.0960 -1.1100
  465MOL0     H61361   3.007  12.633   5.997 -0.0753 -3.3043  0.9886
  465MOL0     H61362   3.815  12.467   6.717 -1.2349  1.6443 -2.7546
  465MOL0     H61363   4.036  12.431   6.815 -1.0562  1.0659  1.4119
  465MOL0     H61364   4.644  12.583   6.619  0.7813 -1.6588 -1.3885
  465MOL0     H61365   4.831  12.506   6.715  1.5153  0.3974  0.6489
  465MOL0     H61366   6.366  11.292   7.095 -2.2677  2.5573 -3.2218
  465MOL0     H61367   6.586  11.185   7.122 -0.1828  0.2446  0.5350
  465MOL0     H61368   7.035  11.243   7.030 -0.8244 -1.5695 -0.9789
  465MOL0     H61369   7.255  11.127   7.032 -0.5204  0.4147 -0.9573
  465MOL0     H61370   7.433  10.930   7.367  1.4070 -2.6131 -1.3484
  465MOL0     H61371   7.397  11.092   7.303  2.0805  0.3780 -0.9580
  465MOL0     H61372   7.607  10.925   7.200 -1.6188 -0.9414 -0.2222
  465MOL0     H61373   7.532  11.067   7.120 -1.2475 -2.6900 -2.5893
  465MOL0     H61374   7.674  11.048   7.395  0.8895 -1.0986 -0.3148
  465MOL0     H61375   7.581  11.187   7.351  0.9574 -0.6348  2.0244
  465MOL0     H61376   7.862  11.177   7.320  2.5751 -0.0966 -1.7591
  465MOL0     H61377   7.826  11.063   7.210  0.5502  0.0896  1.4149
  465MOL0     H61378   7.680  11.413   7.000 -0.3072 -2.7345 -1.7982
  465MOL0     H61379   7.151  10.908   7.368 -0.9685 -1.7689 -1.3268
  465MOL0     H61380   6.922  11.027   7.382  0.1790 -1.0578 -0.0595
  466MOL0     O61381   3.229   5.670   6.108  0.2173 -0.0254 -0.8984
  466MOL0     C61382   3.241   5.786   6.154  0.2056  0.4267 -0.0751
  466MOL0     O61383   3.142   5.867   6.193  0.2539 -0.5824 -0.4784
  466MOL0     C61384   3.005   5.854   6.164  0.0826  0.1830  0.4524
  466MOL0     C61385   2.959   5.772   6.060 -0.1320 -0.0066 -0.2065
  466MOL0     C61386   2.826   5.768   6.032 -0.6804 -0.1447  0.2116
  466MOL0     C61387   2.741   5.830   6.124 -0.4361 -0.2775  0.8917
  466MOL0     O61388   2.607   5.812   6.101 -0.1428 -0.7962  0.2419
  466MOL0     C61389   2.520   5.826   6.215 -0.0873 -0.4443 -0.7700
  466MOL0     C61390   2.405   5.744   6.201  0.3984 -0.0512 -0.1435
  466MOL0     C61391   2.332   5.726   6.333  0.7988  0.1320 -1.0085
  466MOL0     C61392   2.230   5.846   6.365  0.1695  0.3052  0.8183
  466MOL0     C61393   2.155   5.833   6.498  0.6143  0.6268 -0.5169
  466MOL0     C61394   2.051   5.715   6.503 -0.6404 -0.4902 -0.9331
  466MOL0     C61395   1.965   5.711   6.624 -0.3672  0.3214  0.1731
  466MOL0     C61396   1.846   5.805   6.616  0.5597  0.9425  1.1787
  466MOL0     N61397   1.748   5.757   6.516  0.4441  0.7632  1.0961
  466MOL0     C61398   1.721   5.807   6.391  1.5036  1.1098  0.2528
  466MOL0     C61399   1.622   5.731   6.346  0.6150 -0.0878 -0.3724
  466MOL0     C61400   1.566   5.737   6.205 -0.8011  0.2379  1.0074
  466MOL0     C61401   1.428   5.663   6.190  0.8163 -0.2794 -0.3248
  466MOL0     C61402   1.309   5.753   6.228 -0.1011  0.1344 -0.1837
  466MOL0     C61403   1.188   5.663   6.247  0.0327  0.3186 -0.3900
  466MOL0     O61404   1.115   5.713   6.359 -0.0689  0.2623 -0.0712
  466MOL0     C61405   0.983   5.729   6.345 -0.8982 -1.0716  0.0281
  466MOL0     C61406   0.897   5.622   6.349  0.1036  1.6364 -0.9451
  466MOL0     C61407   0.758   5.639   6.320  1.0611  0.5688 -1.1133
  466MOL0     C61408   0.701   5.766   6.298  0.2298 -0.7386 -0.3873
  466MOL0     C61409   0.548   5.779   6.292  0.2213 -0.0780 -0.0731
  466MOL0     O61410   0.469   5.675   6.333  0.3027 -0.6340  0.0564
  466MOL0     C61411   0.332   5.674   6.322  0.0549  0.6548 -0.5178
  466MOL0     C61412   0.247   5.782   6.370  0.0611  0.4228 -1.5440
  466MOL0     C61413   0.114   5.772   6.353 -0.0678 -1.4462  0.2822
  466MOL0     C61414   0.058   5.660   6.295  0.2169  0.4499 -0.5429
  466MOL0     O61415  -0.078   5.639   6.271 -0.5764  0.3112 -0.7380
  466MOL0     C61416  -0.150   5.738   6.190 -0.2843 -0.2163  0.6551
  466MOL0     C61417  -0.294   5.690   6.160 -0.6211 -0.7248 -0.3652
  466MOL0     C61418  -0.378   5.794   6.092  0.4504 -0.9440  0.9339
  466MOL0     C61419  -0.344   5.790   5.934  0.3669  0.8854 -0.3183
  466MOL0     C61420  -0.433   5.896   5.861 -0.0680 -0.2046 -0.1138
  466MOL0     C61421  -0.431   6.029   5.918  0.1552 -0.0525 -0.4404
  466MOL0     C61422  -0.464   6.134   5.811 -0.6054 -0.4063 -0.2855
  466MOL0     C61423  -0.452   6.282   5.859 -0.5758  0.8786  0.0956
  466MOL0    Cl61424  -0.571   6.300   5.987  0.1888  0.3906  0.2373
  466MOL0     C61425   0.144   5.546   6.254  0.9443 -0.2727  0.1712
  466MOL0     C61426   0.283   5.553   6.273  0.2833 -0.7643 -0.1093
  466MOL0     O61427   0.509   5.890   6.254  0.2662 -0.1048 -0.7790
  466MOL0     C61428   0.787   5.881   6.297  0.4024  0.3213  0.0700
  466MOL0     C61429   0.928   5.856   6.322  1.1286 -0.6107  0.7362
  466MOL0     N61430   1.597   5.630   6.436  0.3778 -0.0312  0.1249
  466MOL0     N61431   1.663   5.650   6.542  0.1484 -0.5899 -1.1653
  466MOL0     C61432   2.784   5.912   6.227 -0.6590 -0.5602  0.0561
  466MOL0     C61433   2.919   5.919   6.250 -0.4221 -0.3050 -0.1640
  466MOL0     C61434   3.381   5.839   6.169 -0.0033  0.7769 -0.9233
  466MOL0     C61435   3.483   5.757   6.121  0.2603  0.2487  0.6241
  466MOL0     C61436   3.611   5.810   6.116 -0.5385 -0.0246  0.0357
  466MOL0     C61437   3.640   5.934   6.177  0.0119 -0.0900  0.2277
  466MOL0     O61438   3.771   5.965   6.164 -0.0337  0.3864  0.1573
  466MOL0     C61439   3.826   6.067   6.247  1.2609 -0.0550 -1.0250
  466MOL0     C61440   3.966   6.043   6.310 -0.0038  0.4692  0.7327
  466MOL0     C61441   4.027   6.145   6.408  0.6801 -0.2785  0.6642
  466MOL0     C61442   4.001   6.283   6.365 -0.5632 -0.2047  0.0072
  466MOL0     C61443   4.074   6.381   6.461  0.7648  1.2613 -0.5419
  466MOL0     C61444   4.114   6.449   6.551 -0.0149 -0.0203 -0.1476
  466MOL0     C61445   3.546   6.010   6.242 -0.5822 -0.3564  0.3435
  466MOL0     C61446   3.417   5.960   6.236  0.3714 -0.5299 -0.0303
  466MOL0     H61447   3.032   5.732   5.990  1.6501  2.3764  0.1649
  466MOL0     H61448   2.782   5.713   5.950  0.3838  1.0977 -1.2448
  466MOL0     H61449   2.490   5.931   6.208 -1.9095 -0.9558 -1.3244
  466MOL0     H61450   2.564   5.804   6.312 -1.3136  0.3812  0.0009
  466MOL0     H61451   2.435   5.640   6.182  1.6612  0.2769 -0.0748
  466MOL0     H61452   2.347   5.785   6.119  1.0779 -1.5515 -1.4355
  466MOL0     H61453   2.398   5.725   6.420 -0.0574 -1.6813 -0.3219
  466MOL0     H61454   2.276   5.632   6.343 -1.5010  1.6645  4.1649
  466MOL0     H61455   2.284   5.941   6.367 -0.3361  0.6669 -0.9169
  466MOL0     H61456   2.158   5.839   6.282 -0.4123  1.3801  1.2138
  466MOL0     H61457   2.100   5.926   6.513 -0.3217 -0.3759  3.0575
  466MOL0     H61458   2.213   5.829   6.590 -0.1412  1.5357  0.0082
  466MOL0     H61459   2.111   5.624   6.507 -1.1403 -1.0423 -3.7644
  466MOL0     H61460   1.983   5.712   6.418 -2.7259 -2.8338  0.6896
  466MOL0     H61461   1.931   5.608   6.640 -0.5961  0.4125  0.2736
  466MOL0     H61462   2.023   5.743   6.711  0.6464 -1.0502  0.0390
  466MOL0     H61463   1.870   5.908   6.590  1.0457  0.5552  0.0265
  466MOL0     H61464   1.790   5.805   6.710  0.3256 -1.3034  1.1081
  466MOL0     H61465   1.753   5.896   6.339  2.2372  1.7372  1.6996
  466MOL0     H61466   1.627   5.684   6.132 -0.8639  1.0241  0.3745
  466MOL0     H61467   1.551   5.838   6.167  0.1066 -0.2526 -0.7674
  466MOL0     H61468   1.436   5.569   6.245 -1.5861  0.3346  1.2404
  466MOL0     H61469   1.418   5.638   6.084 -2.0700  0.1436 -0.2335
  466MOL0     H61470   1.338   5.802   6.321  1.4867 -1.4038  0.1914
  466MOL0     H61471   1.290   5.819   6.143  1.5621  2.4724  1.1358
  466MOL0     H61472   1.227   5.565   6.273 -0.3488  0.3368  0.2566
  466MOL0     H61473   1.133   5.643   6.154 -1.7996  0.4750  0.6132
  466MOL0     H61474   0.940   5.523   6.364 -3.9049 -0.2580 -0.5171
  466MOL0     H61475   0.688   5.556   6.332  3.8774 -1.9949 -1.4206
  466MOL0     H61476   0.292   5.875   6.403  0.1545  0.6958 -2.3998
  466MOL0     H61477   0.047   5.853   6.380  0.6075 -1.0445  0.7726
  466MOL0     H61478  -0.102   5.747   6.092  0.4092 -2.2320  0.7455
  466MOL0     H61479  -0.142   5.839   6.230 -3.5522  1.2155 -1.8837
  466MOL0     H61480  -0.351   5.657   6.248 -2.2209  3.5023  0.4384
  466MOL0     H61481  -0.266   5.607   6.096  1.2365 -2.4152  2.4485
  466MOL0     H61482  -0.356   5.892   6.135  0.3644 -1.0630  1.2509
  466MOL0     H61483  -0.484   5.767   6.100  0.0440  0.5931  0.9360
  466MOL0     H61484  -0.243   5.799   5.893  0.2722 -0.7671 -1.0017
  466MOL0     H61485  -0.388   5.696   5.898 -0.3922  2.2201 -3.1336
  466MOL0     H61486  -0.529   5.845   5.865 -0.1090 -0.2393 -1.1773
  466MOL0     H61487  -0.407   5.903   5.755 -0.4240 -0.9475 -0.2569
  466MOL0     H61488  -0.333   6.049   5.962  0.7059 -0.4953 -1.4242
  466MOL0     H61489  -0.512   6.043   5.990 -2.0186 -2.2834 -2.2778
  466MOL0     H61490  -0.383   6.132   5.738 -0.5858 -2.3935 -0.2433
  466MOL0     H61491  -0.560   6.125   5.759  0.0118  2.5251 -2.1898
  466MOL0     H61492  -0.471   6.354   5.778 -1.3198 -0.7293 -1.2252
  466MOL0     H61493  -0.354   6.300   5.904 -0.2212 -0.7891  0.0631
  466MOL0     H61494   0.089   5.468   6.202 -1.4595 -1.9932  4.7407
  466MOL0     H61495   0.349   5.482   6.224  1.5667  0.6470 -0.4913
  466MOL0     H61496   0.752   5.982   6.278 -0.1465  0.8512  3.3211
  466MOL0     H61497   0.997   5.940   6.321  0.7564 -0.2931 -1.2791
  466MOL0     H61498   2.727   5.967   6.301  0.3520 -1.1043  1.2740
  466MOL0     H61499   2.971   5.979   6.325  2.5489 -0.0163 -2.2519
  466MOL0     H61500   3.470   5.659   6.074 -0.6054  1.0083 -0.8156
  466MOL0     H61501   3.694   5.755   6.073  0.0596  2.2839 -1.9985
  466MOL0     H61502   3.760   6.081   6.334 -0.6495 -0.7490 -2.2960
  466MOL0     H61503   3.821   6.160   6.190  2.4688 -0.8697 -2.5350
  466MOL0     H61504   3.968   5.947   6.362 -0.1081  0.7111  1.1847
  466MOL0     H61505   4.030   6.044   6.221  0.0697  3.9716  0.6857
  466MOL0     H61506   4.134   6.140   6.425  0.7854  1.5279  0.7931
  466MOL0     H61507   3.981   6.121   6.505 -2.2500 -1.0488 -0.7991
  466MOL0     H61508   4.031   6.310   6.263 -1.0048  0.3538  0.0201
  466MOL0     H61509   3.893   6.302   6.365 -0.7790 -1.2932 -0.5071
  466MOL0     H61510   4.173   6.512   6.614 -1.9751  3.2329 -1.3162
  466MOL0     H61511   3.565   6.106   6.290 -3.6547  1.2359 -1.3206
  466MOL0     H61512   3.342   6.024   6.281  1.6279  0.9037  0.0753
  467MOL0     O61513  11.173   6.303   2.395 -0.2623  0.0612 -0.0651
  467MOL0     C61514  11.273   6.242   2.377 -0.5846  1.1096  0.4706
  467MOL0     O61515  11.315   6.211   2.247 -0.1566  0.5486 -0.0145
  467MOL0     C61516  11.222   6.218   2.147 -0.7590 -1.0291  0.1417
  467MOL0     C61517  11.194   6.346   2.097  0.1848 -1.0378 -0.9763
  467MOL0     C61518  11.098   6.361   1.997 -0.4459 -0.4199 -0.0766
  467MOL0     C61519  11.049   6.251   1.928 -0.7026 -0.1596 -0.2182
  467MOL0     O61520  10.987   6.262   1.812  0.7500  0.2918  0.2539
  467MOL0     C61521  11.073   6.269   1.694  0.4619  0.6727  1.3213
  467MOL0     C61522  11.024   6.159   1.603  0.4225 -0.7496  0.1667
  467MOL0     C61523  11.110   6.142   1.479 -0.7942  0.6941 -0.6309
  467MOL0     C61524  11.065   6.020   1.406 -0.2071  0.3407 -0.1876
  467MOL0     C61525  11.068   5.879   1.485  1.1529  0.0477 -0.8234
  467MOL0     C61526  11.065   5.759   1.393  1.0932 -0.3129 -0.0549
  467MOL0     C61527  10.941   5.757   1.308  0.3374 -0.3632  1.0466
  467MOL0     C61528  10.911   5.618   1.253 -0.5104 -0.0119  1.2860
  467MOL0     N61529  11.002   5.564   1.149 -0.1000  0.1915  0.0583
  467MOL0     C61530  11.047   5.617   1.030  0.0090  0.1787 -0.2757
  467MOL0     C61531  11.136   5.521   0.979 -1.2375  0.2484  0.8275
  467MOL0     C61532  11.235   5.504   0.856 -0.4551  0.3518 -0.1914
  467MOL0     C61533  11.135   5.523   0.741 -0.3619 -0.5055 -0.0422
  467MOL0     C61534  11.042   5.395   0.710  0.7319 -0.2259  0.3289
  467MOL0     C61535  10.933   5.425   0.599  0.1330 -0.4463 -0.2008
  467MOL0     O61536  10.819   5.486   0.664 -0.4766 -0.7573  0.4217
  467MOL0     C61537  10.712   5.509   0.591 -0.5850 -0.4243  0.2515
  467MOL0     C61538  10.612   5.580   0.653 -0.0802  0.0933  0.3441
  467MOL0     C61539  10.490   5.604   0.589 -0.1102  0.3636 -0.2159
  467MOL0     C61540  10.463   5.539   0.463  0.5398 -0.7141 -0.0507
  467MOL0     C61541  10.327   5.563   0.412  0.4251 -0.6200 -0.5001
  467MOL0     O61542  10.292   5.463   0.319  0.2596 -0.1217 -0.4126
  467MOL0     C61543  10.170   5.472   0.253 -0.0964 -0.5781  1.0960
  467MOL0     C61544  10.049   5.452   0.316 -0.1132  0.2545  0.8801
  467MOL0     C61545   9.925   5.434   0.255  0.1213 -0.0031 -0.4690
  467MOL0     C61546   9.917   5.445   0.114 -0.2958  0.1746 -0.4409
  467MOL0     O61547   9.792   5.436   0.055  0.1848  0.1061 -0.7338
  467MOL0     C61548   9.777   5.446  -0.086  0.2543  0.2072  0.7810
  467MOL0     C61549   9.757   5.590  -0.136  1.0631 -0.2127 -0.2934
  467MOL0     C61550   9.664   5.675  -0.044  0.7150 -0.0374 -0.6742
  467MOL0     C61551   9.647   5.827  -0.082  0.6865 -0.1615 -0.7107
  467MOL0     C61552   9.644   5.847  -0.234  0.0488  0.3227 -1.4167
  467MOL0     C61553   9.649   6.000  -0.260  0.0742  0.2208 -0.3647
  467MOL0     C61554   9.646   6.036  -0.414  0.4269  0.1086 -2.0516
  467MOL0     C61555   9.764   5.985  -0.487  0.6853 -0.3488 -1.0029
  467MOL0    Cl61556   9.756   6.043  -0.651 -0.0454  0.7668 -0.4377
  467MOL0     C61557  10.042   5.472   0.048  0.1023  0.4820  0.6285
  467MOL0     C61558  10.166   5.475   0.116  1.0394  0.6988  0.2753
  467MOL0     O61559  10.255   5.665   0.441  0.1984  0.2573  0.1971
  467MOL0     C61560  10.561   5.466   0.399  0.5578 -0.5713  0.9781
  467MOL0     C61561  10.685   5.456   0.465  0.4538 -0.4187 -0.0910
  467MOL0     N61562  11.144   5.422   1.071 -0.5506  0.0309  0.2582
  467MOL0     N61563  11.067   5.449   1.176  0.1276 -0.5773  0.0280
  467MOL0     C61564  11.099   6.122   1.967 -0.5000  0.2689 -0.3804
  467MOL0     C61565  11.184   6.104   2.082  0.2365 -0.6323  0.3515
  467MOL0     C61566  11.370   6.220   2.480 -0.4103 -0.2823  0.0631
  467MOL0     C61567  11.365   6.295   2.601 -0.8738 -0.2132 -0.1696
  467MOL0     C61568  11.465   6.277   2.695  0.5609  0.0562 -0.7385
  467MOL0     C61569  11.558   6.176   2.684  0.0006 -0.3168  0.1261
  467MOL0     O61570  11.649   6.137   2.782  0.0753 -0.4505 -0.2109
  467MOL0     C61571  11.771   6.225   2.783  0.1566  0.5220 -0.3034
  467MOL0     C61572  11.905   6.154   2.789  0.0165  0.2734 -0.7377
  467MOL0     C61573  12.012   6.259   2.794 -0.0418 -0.3307  0.5850
  467MOL0     C61574  12.144   6.200   2.745  0.7239 -0.5517  0.8428
  467MOL0     C61575  12.263   6.238   2.823 -0.5234 -0.7690  1.0403
  467MOL0     C61576  12.351   6.272   2.901  0.2061  0.0972  0.4467
  467MOL0     C61577  11.564   6.101   2.563  0.7021 -0.7046 -0.1753
  467MOL0     C61578  11.472   6.129   2.456 -0.0160 -0.7003  0.1036
  467MOL0     H61579  11.236   6.432   2.148 -1.9484 -2.0217  2.8290
  467MOL0     H61580  11.084   6.461   1.959  1.8753 -0.5434 -1.4213
  467MOL0     H61581  11.177   6.247   1.722  0.9663  1.2957  0.0055
  467MOL0     H61582  11.074   6.365   1.642 -2.5871  2.2446  3.7927
  467MOL0     H61583  10.919   6.179   1.581  0.7144  3.1115  1.5992
  467MOL0     H61584  11.023   6.062   1.655 -0.1251 -0.9281 -0.1686
  467MOL0     H61585  11.216   6.137   1.506 -1.0461  2.3806  0.8473
  467MOL0     H61586  11.103   6.219   1.401 -1.2442  0.1501 -1.1354
  467MOL0     H61587  10.963   6.030   1.368  0.7473 -0.1095 -3.1540
  467MOL0     H61588  11.129   6.013   1.317  1.2348 -0.2988  0.8640
  467MOL0     H61589  10.987   5.883   1.558  1.7597 -0.2070 -0.1278
  467MOL0     H61590  11.170   5.866   1.523  0.6938  0.7840  0.7128
  467MOL0     H61591  11.072   5.669   1.454 -2.1841 -0.4354  0.3186
  467MOL0     H61592  11.155   5.763   1.331  2.6568  0.4768  2.1195
  467MOL0     H61593  10.846   5.779   1.359 -1.3281 -1.8847 -1.1905
  467MOL0     H61594  10.955   5.818   1.218 -0.5172 -0.6500  0.7034
  467MOL0     H61595  10.812   5.618   1.207  0.8511 -0.0353 -1.9699
  467MOL0     H61596  10.910   5.535   1.324 -1.0669 -2.1971 -1.0876
  467MOL0     H61597  11.014   5.707   0.980 -4.2677 -0.5884  0.7278
  467MOL0     H61598  11.286   5.408   0.846 -1.4856 -0.1288 -1.0304
  467MOL0     H61599  11.313   5.579   0.873 -3.0533  2.7305  2.5817
  467MOL0     H61600  11.191   5.558   0.654  0.4309 -1.3969  0.0930
  467MOL0     H61601  11.073   5.611   0.761 -0.8956 -0.3020 -2.3701
  467MOL0     H61602  11.116   5.327   0.667  1.1920 -1.3753  2.7492
  467MOL0     H61603  11.006   5.352   0.805 -0.7061  1.6599  0.6988
  467MOL0     H61604  10.902   5.329   0.557  0.4932 -0.2074 -1.0411
  467MOL0     H61605  10.980   5.484   0.520  0.3268 -0.2982  0.0228
  467MOL0     H61606  10.615   5.614   0.756  2.0954 -2.4328  1.2023
  467MOL0     H61607  10.415   5.660   0.644 -1.7628 -2.9854  1.2422
  467MOL0     H61608  10.034   5.438   0.423 -0.9601 -0.8685  0.6418
  467MOL0     H61609   9.834   5.434   0.314 -0.4218  2.0227 -1.2235
  467MOL0     H61610   9.682   5.394  -0.100 -0.4748  1.9420 -1.2851
  467MOL0     H61611   9.854   5.389  -0.138 -0.5947  0.0864 -0.3768
  467MOL0     H61612   9.714   5.572  -0.235 -0.1619  1.3050 -0.0753
  467MOL0     H61613   9.853   5.642  -0.146  0.3688  0.8049 -2.4898
  467MOL0     H61614   9.702   5.656   0.057  0.7120 -0.8568 -0.8264
  467MOL0     H61615   9.567   5.625  -0.044  0.2821  0.7872 -1.0508
  467MOL0     H61616   9.558   5.861  -0.029  2.8111 -2.3718  5.1651
  467MOL0     H61617   9.727   5.888  -0.038 -0.8442  0.5428  1.1995
  467MOL0     H61618   9.550   5.804  -0.269 -2.0936  2.6618  0.9748
  467MOL0     H61619   9.731   5.799  -0.280  0.8783  0.0246  0.3879
  467MOL0     H61620   9.737   6.048  -0.216 -0.7170  0.1481  1.3765
  467MOL0     H61621   9.553   6.036  -0.223  0.2397  1.8272 -1.4022
  467MOL0     H61622   9.553   6.003  -0.462 -1.2797  0.7961  0.6066
  467MOL0     H61623   9.645   6.146  -0.420 -0.0502  0.1756 -0.8737
  467MOL0     H61624   9.760   5.876  -0.489  1.7636 -0.4211 -0.3118
  467MOL0     H61625   9.863   6.018  -0.453  1.6296 -1.5741 -2.3982
  467MOL0     H61626  10.042   5.474  -0.060 -0.6224  1.3378  0.6379
  467MOL0     H61627  10.265   5.477   0.071  0.2641  1.5876 -1.4756
  467MOL0     H61628  10.544   5.426   0.300 -5.2142 -1.6071  2.0126
  467MOL0     H61629  10.773   5.414   0.417 -0.0254 -3.5788  1.5056
  467MOL0     H61630  11.063   6.038   1.908 -1.1524 -0.2296  0.7011
  467MOL0     H61631  11.208   6.007   2.125  0.4948  0.0606  1.8175
  467MOL0     H61632  11.281   6.361   2.620 -3.2157 -2.0493 -3.2289
  467MOL0     H61633  11.468   6.351   2.775  2.9484  0.1798 -0.8908
  467MOL0     H61634  11.772   6.289   2.872  0.0611 -0.5004  0.4551
  467MOL0     H61635  11.758   6.283   2.691 -3.5981  1.3378  0.5632
  467MOL0     H61636  11.924   6.091   2.876  0.5082  2.0557  0.4885
  467MOL0     H61637  11.910   6.105   2.691 -5.8873 -2.2914 -0.1989
  467MOL0     H61638  12.030   6.301   2.893  0.7091 -0.5129  0.5347
  467MOL0     H61639  11.987   6.343   2.728  2.6824  0.3956  0.3701
  467MOL0     H61640  12.133   6.091   2.744 -2.0643 -0.3502  0.7601
  467MOL0     H61641  12.163   6.237   2.643  2.7684  0.7306  1.6312
  467MOL0     H61642  12.423   6.281   2.980 -0.4225 -2.3521  1.4114
  467MOL0     H61643  11.641   6.024   2.557  2.8130  1.1617  1.3863
  467MOL0     H61644  11.488   6.068   2.367 -1.2958  2.1582 -2.2704
  468MOL0     O61645   8.829   4.101   6.264  0.5839 -0.1691 -0.7248
  468MOL0     C61646   8.708   4.083   6.270  0.2232  0.3488 -0.6551
  468MOL0     O61647   8.644   4.000   6.369  0.0313  0.4577 -0.0265
  468MOL0     C61648   8.728   3.908   6.433 -0.2256  0.5607 -0.4636
  468MOL0     C61649   8.759   3.784   6.380  0.0669 -0.2985 -0.3047
  468MOL0     C61650   8.849   3.700   6.444  0.1939 -0.7732  0.0775
  468MOL0     C61651   8.920   3.743   6.561  0.4044  1.4383  0.0267
  468MOL0     O61652   9.017   3.670   6.613  0.3314 -0.0447 -0.2835
  468MOL0     C61653   8.965   3.602   6.729  1.1986 -0.3302 -0.0078
  468MOL0     C61654   9.084   3.597   6.825  0.8807  0.2890  0.4470
  468MOL0     C61655   9.161   3.726   6.851 -0.3352 -0.2690 -1.2762
  468MOL0     C61656   9.273   3.704   6.947 -0.5396  0.1545  0.4924
  468MOL0     C61657   9.330   3.850   6.987  0.8471  0.2039 -1.1426
  468MOL0     C61658   9.428   3.903   6.885  0.2733 -0.2053 -0.6726
  468MOL0     C61659   9.438   4.059   6.863  0.0029 -0.0733  0.4771
  468MOL0     C61660   9.330   4.112   6.764 -0.1177 -0.7792  0.1515
  468MOL0     N61661   9.373   4.085   6.624  0.4568 -0.2885 -0.4098
  468MOL0     C61662   9.333   3.972   6.550  0.0306 -0.0770  1.0197
  468MOL0     C61663   9.359   4.011   6.421 -0.4955  0.0563  0.2525
  468MOL0     C61664   9.333   3.927   6.311  0.3313 -0.3124  0.5558
  468MOL0     C61665   9.189   3.933   6.254 -0.3873 -0.9479  0.7099
  468MOL0     C61666   9.160   3.817   6.150 -0.3885  0.3474  0.1836
  468MOL0     C61667   9.027   3.827   6.072 -0.6457 -0.9313  0.3684
  468MOL0     O61668   8.970   3.698   6.050  0.3574 -1.1597 -0.5376
  468MOL0     C61669   8.831   3.703   6.017 -0.4798 -0.7492  0.3528
  468MOL0     C61670   8.771   3.820   5.973 -0.3902  0.2234  0.4757
  468MOL0     C61671   8.638   3.821   5.955 -0.0325 -0.5435  0.5315
  468MOL0     C61672   8.556   3.718   5.979  0.1549 -0.3659 -0.6066
  468MOL0     C61673   8.412   3.735   5.956 -0.6849 -0.2486 -0.1923
  468MOL0     O61674   8.358   3.852   5.991  0.2040  0.4235 -0.1937
  468MOL0     C61675   8.242   3.904   5.948 -0.0149 -0.5924  0.0825
  468MOL0     C61676   8.222   4.036   5.990  0.7959 -0.9567  0.5092
  468MOL0     C61677   8.107   4.109   5.943 -0.5590 -0.0336 -0.1944
  468MOL0     C61678   8.010   4.049   5.867  0.7566 -0.1572  0.3753
  468MOL0     O61679   7.899   4.111   5.823  0.6203 -0.3982 -0.3222
  468MOL0     C61680   7.778   4.039   5.792 -0.2693 -0.3971 -1.0019
  468MOL0     C61681   7.662   4.128   5.843 -0.3738  0.0028 -0.3738
  468MOL0     C61682   7.546   4.105   5.741  0.6066 -0.1129 -0.1419
  468MOL0     C61683   7.412   4.180   5.791  0.2633 -0.4076  0.6909
  468MOL0     C61684   7.325   4.241   5.676 -1.1920 -0.2421 -1.5065
  468MOL0     C61685   7.200   4.320   5.738 -1.4129 -0.9105  1.3512
  468MOL0     C61686   7.089   4.233   5.793 -0.1132 -0.4611 -0.2477
  468MOL0     C61687   6.989   4.335   5.854  0.0513 -0.6761 -0.2350
  468MOL0    Cl61688   6.867   4.236   5.942  0.5174 -0.2469 -0.0521
  468MOL0     C61689   8.029   3.916   5.831 -0.0488 -0.2509  0.2791
  468MOL0     C61690   8.142   3.840   5.871  0.0061  0.0002  0.0755
  468MOL0     O61691   8.353   3.635   5.924  0.0372 -0.0784  0.0841
  468MOL0     C61692   8.610   3.601   6.019 -0.1838 -0.7545 -0.6273
  468MOL0     C61693   8.748   3.592   6.043  0.5460  0.4791  0.8820
  468MOL0     N61694   9.415   4.134   6.422 -0.5532 -0.3714 -0.7648
  468MOL0     N61695   9.434   4.177   6.548 -0.6026 -0.0915  0.0428
  468MOL0     C61696   8.897   3.870   6.600  0.2893 -0.0994 -0.4713
  468MOL0     C61697   8.798   3.947   6.547  0.5408 -0.9936  1.1413
  468MOL0     C61698   8.623   4.170   6.188 -0.1949 -0.7117 -0.8936
  468MOL0     C61699   8.507   4.213   6.229 -0.2940  0.0873  0.6409
  468MOL0     C61700   8.426   4.298   6.145 -0.7775  0.1496 -0.2025
  468MOL0     C61701   8.475   4.338   6.015  0.4525  0.0338 -0.6374
  468MOL0     O61702   8.389   4.419   5.942 -0.0504 -0.0511  0.6010
  468MOL0     C61703   8.431   4.498   5.833 -0.4672 -0.4445  0.3511
  468MOL0     C61704   8.535   4.608   5.876 -0.3448  1.1253 -0.0445
  468MOL0     C61705   8.473   4.741   5.926 -0.1228  0.2056 -0.1106
  468MOL0     C61706   8.577   4.852   5.949 -0.4752  0.3746  0.3567
  468MOL0     C61707   8.647   4.885   5.831  0.0901 -0.4895 -0.0635
  468MOL0     C61708   8.698   4.918   5.730 -0.3205  0.5676  0.1025
  468MOL0     C61709   8.600   4.293   5.972  0.3211 -0.1617  0.4689
  468MOL0     C61710   8.673   4.214   6.063 -0.5474 -1.2626 -0.1653
  468MOL0     H61711   8.716   3.763   6.282  0.4941  0.5083 -0.6714
  468MOL0     H61712   8.862   3.600   6.404  3.0944  0.0159 -1.2539
  468MOL0     H61713   8.936   3.498   6.712 -1.1685 -0.0267  1.6416
  468MOL0     H61714   8.881   3.652   6.778  2.4941 -0.5455  2.6402
  468MOL0     H61715   9.149   3.517   6.787 -0.5610 -0.3928 -0.6765
  468MOL0     H61716   9.049   3.552   6.918  0.7689 -0.4466  0.0603
  468MOL0     H61717   9.091   3.777   6.917 -0.7936 -1.4449 -0.8169
  468MOL0     H61718   9.194   3.785   6.766  1.5187  1.2742  0.4387
  468MOL0     H61719   9.231   3.653   7.034 -1.0118  1.3331  0.9752
  468MOL0     H61720   9.352   3.641   6.906 -3.1650 -2.0412 -1.5799
  468MOL0     H61721   9.370   3.847   7.089 -3.0655  0.4504  0.5644
  468MOL0     H61722   9.242   3.913   7.003 -1.0871 -2.1320 -2.0721
  468MOL0     H61723   9.406   3.864   6.785 -1.3215 -2.9880  0.6395
  468MOL0     H61724   9.530   3.869   6.905  1.1801  2.2455 -0.8376
  468MOL0     H61725   9.412   4.108   6.958 -0.1255 -0.5309  0.6796
  468MOL0     H61726   9.535   4.083   6.819 -1.2947  2.6642 -1.2089
  468MOL0     H61727   9.342   4.220   6.778 -0.9449 -0.5326 -0.8901
  468MOL0     H61728   9.226   4.082   6.780 -1.6945  3.9305  0.3591
  468MOL0     H61729   9.274   3.887   6.582 -0.1659 -0.7781 -1.0631
  468MOL0     H61730   9.356   3.824   6.340  0.8983  0.3296  2.5456
  468MOL0     H61731   9.394   3.966   6.229  0.8422  0.2180  1.1779
  468MOL0     H61732   9.172   4.028   6.203 -3.7840 -0.8214  1.8223
  468MOL0     H61733   9.119   3.926   6.337 -4.6659  1.9617 -2.2638
  468MOL0     H61734   9.244   3.808   6.081 -0.3774  1.4569  0.0313
  468MOL0     H61735   9.155   3.728   6.214  1.7687  0.1088  0.0992
  468MOL0     H61736   9.042   3.872   5.974 -2.6210 -0.8714  0.0355
  468MOL0     H61737   8.956   3.893   6.123 -2.9156 -1.5875 -1.7139
  468MOL0     H61738   8.828   3.910   5.952  1.1032  0.2967  4.1509
  468MOL0     H61739   8.605   3.917   5.917  0.0155 -1.1652 -1.1517
  468MOL0     H61740   8.299   4.088   6.045  0.2616  2.7359 -1.8257
  468MOL0     H61741   8.094   4.210   5.980  1.9652  0.9148 -1.6692
  468MOL0     H61742   7.781   3.948   5.852  1.9161  2.2834  3.5299
  468MOL0     H61743   7.779   4.024   5.684  2.4736  1.2135 -1.3005
  468MOL0     H61744   7.682   4.235   5.839 -3.2529  0.6071 -2.2990
  468MOL0     H61745   7.630   4.104   5.945 -1.0511 -1.3625 -0.8713
  468MOL0     H61746   7.527   3.998   5.741  0.5727 -0.1895  3.0489
  468MOL0     H61747   7.567   4.138   5.638 -1.0436 -1.0820 -0.8328
  468MOL0     H61748   7.347   4.105   5.836 -1.7368  1.3900  0.9876
  468MOL0     H61749   7.426   4.260   5.865 -1.9969  2.4738 -1.7206
  468MOL0     H61750   7.284   4.170   5.603 -5.3726  1.0309 -0.6950
  468MOL0     H61751   7.392   4.307   5.620  0.3472 -0.3106  0.1622
  468MOL0     H61752   7.166   4.389   5.660  2.8727  1.5360  1.3488
  468MOL0     H61753   7.239   4.389   5.813  1.1956 -2.2222  1.3003
  468MOL0     H61754   7.051   4.166   5.714 -1.0286  0.4456 -0.5947
  468MOL0     H61755   7.128   4.176   5.878 -1.9035 -0.2585  0.7635
  468MOL0     H61756   6.957   4.391   5.765  0.6318 -0.3491 -0.2441
  468MOL0     H61757   7.022   4.418   5.917  0.3844  0.7288 -2.1537
  468MOL0     H61758   7.965   3.863   5.761  1.5312 -1.1636 -0.5445
  468MOL0     H61759   8.147   3.739   5.832  1.1633  0.6600 -1.6401
  468MOL0     H61760   8.547   3.513   6.031  2.5888 -2.5835  2.3476
  468MOL0     H61761   8.796   3.499   6.071 -1.8189 -1.3248 -0.7085
  468MOL0     H61762   8.936   3.914   6.691 -2.6102  0.2275  0.7126
  468MOL0     H61763   8.774   4.046   6.584  4.7249  1.1761 -1.1648
  468MOL0     H61764   8.478   4.188   6.331  1.7276 -1.7069  0.8451
  468MOL0     H61765   8.327   4.336   6.165 -1.1290 -1.3675  1.0902
  468MOL0     H61766   8.352   4.561   5.791  0.6235  0.7319  0.0210
  468MOL0     H61767   8.482   4.445   5.752 -2.6108 -2.9806  0.5122
  468MOL0     H61768   8.592   4.564   5.958 -2.7646 -1.9129  0.1915
  468MOL0     H61769   8.607   4.617   5.794 -0.0381  0.2309  0.1155
  468MOL0     H61770   8.416   4.724   6.018 -3.2258  2.1027 -1.5463
  468MOL0     H61771   8.393   4.776   5.860 -1.4600 -2.0151  0.2452
  468MOL0     H61772   8.526   4.939   5.992  1.3463  1.0823  1.2168
  468MOL0     H61773   8.646   4.825   6.029 -3.3875  1.0291  3.2925
  468MOL0     H61774   8.748   4.936   5.637 -1.8013 -0.2770 -0.9016
  468MOL0     H61775   8.632   4.323   5.873  1.9047  1.7477  1.4909
  468MOL0     H61776   8.773   4.177   6.041  1.4673  0.1237  5.1513
  469MOL0     O61777   0.964   0.616   8.712 -0.6969 -1.1219 -0.7049
  469MOL0     C61778   0.966   0.535   8.805 -0.0530 -0.9324  0.3060
  469MOL0     O61779   0.855   0.488   8.869  0.2929 -0.1652  0.6331
  469MOL0     C61780   0.733   0.499   8.801  0.2064 -0.0645 -0.8129
  469MOL0     C61781   0.639   0.571   8.873  0.2799  0.2324 -1.0847
  469MOL0     C61782   0.510   0.574   8.827  0.7215  0.6676  0.5912
  469MOL0     C61783   0.476   0.506   8.702 -0.0112  1.1534 -0.8076
  469MOL0     O61784   0.350   0.478   8.646  0.1711  0.2991  0.0554
  469MOL0     C61785   0.238   0.525   8.723  0.9373 -1.0751 -0.8253
  469MOL0     C61786   0.114   0.462   8.681  0.0473  0.9116 -0.2756
  469MOL0     C61787   0.006   0.491   8.784 -0.1010  0.5335 -0.3043
  469MOL0     C61788  -0.135   0.441   8.750 -0.0643 -0.4262 -0.5861
  469MOL0     C61789  -0.223   0.421   8.876  0.9013 -1.1352  0.7426
  469MOL0     C61790  -0.354   0.355   8.839  0.3478  0.2155  0.0172
  469MOL0     C61791  -0.435   0.333   8.965  0.8755 -0.1317  0.1951
  469MOL0     C61792  -0.571   0.262   8.943 -0.0534  0.0492 -0.4287
  469MOL0     N61793  -0.658   0.326   8.841  0.2332 -0.9307 -0.6178
  469MOL0     C61794  -0.687   0.460   8.843  1.0226  0.2590  0.1972
  469MOL0     C61795  -0.738   0.484   8.720 -0.0763 -0.3881  0.3370
  469MOL0     C61796  -0.790   0.620   8.671  0.3367 -0.0706 -0.0214
  469MOL0     C61797  -0.944   0.628   8.682  0.4542 -0.5785 -0.8093
  469MOL0     C61798  -0.982   0.754   8.752  0.5555 -0.1394 -0.4243
  469MOL0     C61799  -1.129   0.785   8.703  0.1969  0.1491 -0.4325
  469MOL0     O61800  -1.178   0.911   8.764 -0.3924  0.0382  0.0310
  469MOL0     C61801  -1.313   0.949   8.737 -0.2362  0.6626 -0.4387
  469MOL0     C61802  -1.378   1.039   8.818 -0.3393 -0.1470 -0.6494
  469MOL0     C61803  -1.507   1.084   8.804  0.1882 -0.7626 -0.2524
  469MOL0     C61804  -1.581   1.022   8.701  0.4719  0.0947  1.2623
  469MOL0     C61805  -1.717   1.072   8.675  0.1398 -0.3754  0.2585
  469MOL0     O61806  -1.781   1.018   8.565  0.4762 -0.0537  0.1890
  469MOL0     C61807  -1.896   1.079   8.530  0.0685  0.5658 -0.2949
  469MOL0     C61808  -1.910   1.189   8.439 -0.7785  0.5227 -1.5315
  469MOL0     C61809  -2.028   1.253   8.424  0.1009  0.2413  1.4103
  469MOL0     C61810  -2.143   1.207   8.488 -0.9002  0.3631  0.0584
  469MOL0     O61811  -2.256   1.271   8.463 -0.3075 -0.4635  0.2608
  469MOL0     C61812  -2.267   1.408   8.503 -0.3020  0.5449 -0.2387
  469MOL0     C61813  -2.288   1.508   8.388 -0.7444  0.8540  0.1797
  469MOL0     C61814  -2.385   1.458   8.288 -0.5337  0.3345  1.1090
  469MOL0     C61815  -2.512   1.409   8.352 -0.6316 -1.2735  0.2827
  469MOL0     C61816  -2.617   1.374   8.250  0.1130  0.0679  0.9344
  469MOL0     C61817  -2.730   1.296   8.306  0.2523 -0.3002  0.3412
  469MOL0     C61818  -2.808   1.355   8.421 -0.1403 -0.2010 -0.2970
  469MOL0     C61819  -2.956   1.318   8.428  0.4942 -0.8565 -0.5414
  469MOL0    Cl61820  -3.057   1.428   8.328 -0.2991 -0.1010  0.1159
  469MOL0     C61821  -2.138   1.091   8.559 -0.9355 -0.2742  0.3990
  469MOL0     C61822  -2.013   1.030   8.574  0.0596  1.6759  0.1567
  469MOL0     O61823  -1.768   1.151   8.753 -0.9162 -1.1627  0.8457
  469MOL0     C61824  -1.523   0.915   8.630 -0.3309 -0.1818  0.2180
  469MOL0     C61825  -1.391   0.874   8.650 -0.3096  0.1762 -0.0446
  469MOL0     N61826  -0.749   0.360   8.650 -0.3768 -0.2436  0.1328
  469MOL0     N61827  -0.697   0.273   8.721  0.1867 -0.1415 -0.1074
  469MOL0     C61828   0.572   0.448   8.633 -0.6794 -1.0477  0.1151
  469MOL0     C61829   0.703   0.438   8.681 -0.2696  0.1537 -0.3939
  469MOL0     C61830   1.089   0.495   8.869 -0.5592  0.5132  0.8407
  469MOL0     C61831   1.101   0.366   8.920 -0.3723  0.1788  1.2662
  469MOL0     C61832   1.216   0.317   8.973 -0.1879 -0.4697  0.4864
  469MOL0     C61833   1.335   0.392   8.975 -0.4181  0.1970  0.9337
  469MOL0     O61834   1.438   0.338   9.051 -0.0834 -0.1397  0.1345
  469MOL0     C61835   1.558   0.421   9.072  0.9769  0.2100 -0.0839
  469MOL0     C61836   1.644   0.433   8.947  0.0377 -0.3391 -0.2740
  469MOL0     C61837   1.763   0.532   8.961  0.3004  0.2209 -0.8384
  469MOL0     C61838   1.874   0.468   9.051  0.9248 -0.7713 -0.2618
  469MOL0     C61839   1.950   0.370   8.983 -1.0160  0.5400  0.2876
  469MOL0     C61840   2.006   0.283   8.912  0.1499  0.2280 -0.2449
  469MOL0     C61841   1.328   0.522   8.919 -0.0400 -0.6098  0.1249
  469MOL0     C61842   1.206   0.572   8.863  0.3678 -0.8807 -1.3201
  469MOL0     H61843   0.672   0.620   8.964 -1.5277  2.5276 -1.5640
  469MOL0     H61844   0.441   0.625   8.894  1.1846  2.8121 -0.4856
  469MOL0     H61845   0.226   0.632   8.708  1.3882 -0.2368  3.4634
  469MOL0     H61846   0.261   0.511   8.829  1.9510  1.7613 -0.5904
  469MOL0     H61847   0.121   0.353   8.676 -2.3190  0.7518 -1.9437
  469MOL0     H61848   0.086   0.499   8.582 -0.5916 -1.4575 -1.0689
  469MOL0     H61849   0.004   0.594   8.820  0.5050  0.5146 -0.1912
  469MOL0     H61850   0.039   0.430   8.869  1.2493 -1.0710 -1.8689
  469MOL0     H61851  -0.187   0.516   8.689 -0.0796 -0.9573 -1.2361
  469MOL0     H61852  -0.128   0.353   8.686  0.5681 -1.1024  0.4031
  469MOL0     H61853  -0.229   0.524   8.914  0.9632 -1.0535  0.5345
  469MOL0     H61854  -0.180   0.371   8.963  1.1826  1.4107  2.1940
  469MOL0     H61855  -0.342   0.259   8.787 -0.7508  0.3640 -0.5449
  469MOL0     H61856  -0.412   0.420   8.772  1.2696 -0.4284 -1.4720
  469MOL0     H61857  -0.375   0.277   9.038  0.8760 -1.4143 -0.7663
  469MOL0     H61858  -0.458   0.433   9.004  0.2140 -0.9670  2.0730
  469MOL0     H61859  -0.619   0.263   9.041  1.6542  1.3730  0.4475
  469MOL0     H61860  -0.559   0.155   8.925  1.5361  0.3928 -1.6577
  469MOL0     H61861  -0.668   0.537   8.917  0.7422  0.7486 -0.2292
  469MOL0     H61862  -0.782   0.624   8.562  1.6655  0.7550  0.0851
  469MOL0     H61863  -0.739   0.707   8.712 -1.4528  1.0026  0.0242
  469MOL0     H61864  -0.985   0.536   8.725  2.0030 -0.2922  1.4381
  469MOL0     H61865  -0.994   0.631   8.585  1.0035 -1.9019 -1.1573
  469MOL0     H61866  -0.963   0.761   8.859  3.3551  3.3744 -0.9520
  469MOL0     H61867  -0.921   0.832   8.705  1.5244 -1.6200 -1.6878
  469MOL0     H61868  -1.198   0.704   8.728 -0.3773  1.7718  4.2881
  469MOL0     H61869  -1.127   0.794   8.594  0.9090 -1.8658 -0.6226
  469MOL0     H61870  -1.307   1.088   8.884 -2.3246  2.0952 -0.0362
  469MOL0     H61871  -1.547   1.167   8.862  1.5389 -0.4668  0.3023
  469MOL0     H61872  -1.816   1.211   8.390  1.4027 -0.6937  1.7621
  469MOL0     H61873  -2.035   1.351   8.377 -2.3788  2.4953  5.7895
  469MOL0     H61874  -2.181   1.448   8.558 -0.9172 -0.0551  1.2099
  469MOL0     H61875  -2.356   1.401   8.567 -1.9469 -3.5731 -2.6174
  469MOL0     H61876  -2.194   1.521   8.334 -1.2736  1.1078 -0.7123
  469MOL0     H61877  -2.315   1.597   8.446 -1.6578  0.3227  0.6088
  469MOL0     H61878  -2.327   1.381   8.237 -2.7844 -2.0454  1.9154
  469MOL0     H61879  -2.401   1.547   8.226  1.3969 -0.1372 -0.1470
  469MOL0     H61880  -2.486   1.321   8.412  1.0924  0.3206  1.9844
  469MOL0     H61881  -2.547   1.484   8.423  3.0096  0.2814  0.6252
  469MOL0     H61882  -2.565   1.317   8.172  1.5568  0.5025  1.5458
  469MOL0     H61883  -2.648   1.471   8.210  0.8934 -0.3452 -0.7951
  469MOL0     H61884  -2.691   1.203   8.346  1.0562  0.0790  0.4528
  469MOL0     H61885  -2.785   1.274   8.214  2.1175 -1.3857 -0.5595
  469MOL0     H61886  -2.770   1.322   8.518  1.0079  2.2060  0.1352
  469MOL0     H61887  -2.808   1.464   8.422 -0.6972 -0.1709  1.6261
  469MOL0     H61888  -2.996   1.331   8.528  1.2336 -2.6712  0.0177
  469MOL0     H61889  -2.964   1.211   8.406  0.1411 -2.0789  4.4786
  469MOL0     H61890  -2.223   1.044   8.607  0.8330 -3.1738  0.8800
  469MOL0     H61891  -2.013   0.938   8.632  1.7795  0.8137 -1.1237
  469MOL0     H61892  -1.573   0.870   8.545  0.6910  0.4215 -0.7217
  469MOL0     H61893  -1.344   0.794   8.594 -0.3492 -1.2065  1.7950
  469MOL0     H61894   0.532   0.407   8.540 -0.6250  0.5458 -0.6576
  469MOL0     H61895   0.776   0.391   8.616 -1.9397 -1.9283 -0.8545
  469MOL0     H61896   1.015   0.301   8.906  0.0713  0.1263 -1.9821
  469MOL0     H61897   1.218   0.223   9.027 -0.9200 -0.6422  0.2227
  469MOL0     H61898   1.613   0.384   9.158 -0.2250 -1.6823 -0.0798
  469MOL0     H61899   1.515   0.518   9.100 -0.7559 -0.9880  1.6175
  469MOL0     H61900   1.686   0.335   8.923 -1.4045 -0.7513 -1.2295
  469MOL0     H61901   1.580   0.455   8.861 -0.2640  0.7472  0.2071
  469MOL0     H61902   1.719   0.623   9.000  0.9073  1.0283 -1.9629
  469MOL0     H61903   1.804   0.563   8.864  1.0458  0.3689 -0.4794
  469MOL0     H61904   1.941   0.545   9.091 -0.7224 -0.7545  2.7827
  469MOL0     H61905   1.823   0.422   9.136 -0.2555 -0.8140 -0.9757
  469MOL0     H61906   2.085   0.221   8.873  2.2828  1.3936  1.9045
  469MOL0     H61907   1.414   0.589   8.912 -0.5683 -0.0513 -1.2642
  469MOL0     H61908   1.207   0.667   8.811 -0.0749 -0.2328 -0.1861
  470MOL0     O61909   4.984  10.412   7.845 -0.5206 -0.1866  0.7014
  470MOL0     C61910   5.007  10.404   7.965 -0.3049 -0.1559 -0.2042
  470MOL0     O61911   4.914  10.361   8.059 -0.5084  0.1875  0.2141
  470MOL0     C61912   4.803  10.307   8.010  0.1030  0.0535 -0.8029
  470MOL0     C61913   4.694  10.368   8.065 -0.5250  0.1113  0.5597
  470MOL0     C61914   4.568  10.331   8.021  0.4911  0.3272  0.1313
  470MOL0     C61915   4.548  10.223   7.934 -0.3819 -0.2151 -0.8676
  470MOL0     O61916   4.420  10.201   7.905 -0.7269  0.8112 -1.2806
  470MOL0     C61917   4.396  10.067   7.855 -0.1803  0.0221 -0.3319
  470MOL0     C61918   4.253  10.062   7.804  1.2744 -0.4210 -0.5595
  470MOL0     C61919   4.149  10.075   7.916 -0.1064  0.5196 -0.1172
  470MOL0     C61920   4.006  10.054   7.858  0.2651  1.1492 -0.2348
  470MOL0     C61921   3.916  10.051   7.978  0.1375  0.3066  0.1211
  470MOL0     C61922   3.855   9.905   7.990 -0.4168 -1.1056 -0.7895
  470MOL0     C61923   3.741   9.903   8.094 -0.9780 -0.4806 -0.6104
  470MOL0     C61924   3.642   9.782   8.064 -0.3593 -0.5989  0.2931
  470MOL0     N61925   3.542   9.756   8.161 -0.1539  0.8970 -0.9024
  470MOL0     C61926   3.434   9.829   8.195 -0.7726 -0.5382 -0.3023
  470MOL0     C61927   3.381   9.761   8.299  0.2095 -0.5412  0.0097
  470MOL0     C61928   3.279   9.812   8.388 -0.3903 -0.2863  0.3164
  470MOL0     C61929   3.132   9.776   8.350 -0.0838 -0.6635  0.1746
  470MOL0     C61930   3.032   9.800   8.474 -0.1748  0.5341  0.2149
  470MOL0     C61931   2.883   9.784   8.435 -0.4949  0.3270  0.1446
  470MOL0     O61932   2.795   9.837   8.540  0.1176  0.3607  0.2684
  470MOL0     C61933   2.675   9.876   8.487 -0.1251  0.7700 -0.6295
  470MOL0     C61934   2.560   9.805   8.489  0.2290  0.3968  0.1108
  470MOL0     C61935   2.437   9.855   8.437  0.1985  0.7889 -0.2109
  470MOL0     C61936   2.435   9.982   8.386  0.0463  0.1709  0.5325
  470MOL0     C61937   2.320  10.052   8.314  1.0149  0.7568  0.1286
  470MOL0     O61938   2.313  10.184   8.301 -0.0296 -0.5495  0.2953
  470MOL0     C61939   2.194  10.231   8.245  0.4370 -0.1925 -0.3990
  470MOL0     C61940   2.071  10.228   8.312 -0.6258 -0.7394  0.6271
  470MOL0     C61941   1.955  10.299   8.256 -0.5185 -0.3207 -1.1944
  470MOL0     C61942   1.969  10.375   8.137  0.0645  1.4020 -0.3067
  470MOL0     O61943   1.847  10.412   8.075 -1.2067  0.0077 -0.6676
  470MOL0     C61944   1.839  10.548   8.031 -0.4692 -0.3038  0.7379
  470MOL0     C61945   1.698  10.576   7.978 -0.0489 -0.3335 -0.1675
  470MOL0     C61946   1.687  10.701   7.899 -0.1595 -0.0006 -0.4959
  470MOL0     C61947   1.543  10.743   7.897  0.4662  0.0124  0.1245
  470MOL0     C61948   1.540  10.880   7.832 -0.5579 -0.8299 -0.2131
  470MOL0     C61949   1.401  10.929   7.817 -0.0546  0.5100  0.2678
  470MOL0     C61950   1.338  10.863   7.702  0.4643  0.0835  0.2226
  470MOL0     C61951   1.206  10.932   7.667  0.2277 -0.2231  0.3138
  470MOL0    Cl61952   1.144  10.834   7.529 -0.0173  0.6219 -0.6381
  470MOL0     C61953   2.097  10.386   8.077  0.0667 -0.1644 -1.0034
  470MOL0     C61954   2.213  10.315   8.132  0.6969  0.1548 -0.7547
  470MOL0     O61955   2.241   9.970   8.266 -0.1966  0.0473  0.4101
  470MOL0     C61956   2.560  10.060   8.394 -0.3380 -0.0258 -0.0387
  470MOL0     C61957   2.672  10.004   8.439 -0.6226  0.3346 -0.5092
  470MOL0     N61958   3.448   9.647   8.324  0.2146  1.5989  0.4824
  470MOL0     N61959   3.551   9.643   8.240  0.4184 -0.2047 -0.1175
  470MOL0     C61960   4.658  10.156   7.885 -0.0644  0.3438  0.0681
  470MOL0     C61961   4.790  10.194   7.928  0.4202 -0.0208 -0.1630
  470MOL0     C61962   5.132  10.465   8.022 -0.0861  0.8785 -0.1535
  470MOL0     C61963   5.219  10.533   7.939 -0.2637 -0.9344  0.5286
  470MOL0     C61964   5.340  10.577   7.986  0.0776 -0.4938 -0.2988
  470MOL0     C61965   5.381  10.559   8.114 -0.8752  0.1517 -0.5373
  470MOL0     O61966   5.511  10.603   8.157  0.0121 -0.5688 -1.0086
  470MOL0     C61967   5.615  10.572   8.072 -0.9147 -0.9852  0.1813
  470MOL0     C61968   5.732  10.564   8.169 -0.3460 -0.7015  0.5773
  470MOL0     C61969   5.721  10.441   8.261 -0.3274  0.0998  0.2870
  470MOL0     C61970   5.737  10.306   8.198 -0.1885  0.9361  0.4123
  470MOL0     C61971   5.600  10.262   8.165 -0.6903  0.7665 -0.4886
  470MOL0     C61972   5.484  10.223   8.153  0.0622 -0.0268  0.7236
  470MOL0     C61973   5.290  10.488   8.200 -1.3450  0.1614 -0.9240
  470MOL0     C61974   5.167  10.435   8.160 -0.0401 -0.4644  0.3115
  470MOL0     H61975   4.720  10.446   8.135 -0.3102  0.6732 -0.1326
  470MOL0     H61976   4.478  10.381   8.056 -0.2598  1.9857 -3.6414
  470MOL0     H61977   4.406   9.986   7.926 -2.2778  0.4838  0.5733
  470MOL0     H61978   4.470  10.053   7.775  2.0719  1.8748  1.2815
  470MOL0     H61979   4.232   9.960   7.771  1.4162 -0.8223  0.5527
  470MOL0     H61980   4.228  10.124   7.717  0.8626  1.7021  0.9809
  470MOL0     H61981   4.149  10.177   7.955 -3.2084  0.2848  0.7736
  470MOL0     H61982   4.167  10.009   8.002  1.6839  1.0048 -0.0887
  470MOL0     H61983   3.991  10.128   7.779  0.5051 -1.3532 -2.7585
  470MOL0     H61984   3.983   9.968   7.795 -1.6432  0.4754  1.2829
  470MOL0     H61985   3.838  10.123   7.952  0.3270  0.0309 -1.2634
  470MOL0     H61986   3.971  10.080   8.068 -0.9064 -0.0427  0.8918
  470MOL0     H61987   3.926   9.827   8.018  2.4945 -0.2030 -4.8239
  470MOL0     H61988   3.838   9.861   7.892  2.2222  0.1881 -1.9316
  470MOL0     H61989   3.789   9.887   8.190  0.5962 -1.8438 -1.5684
  470MOL0     H61990   3.689   9.999   8.088  0.4658  0.3029 -0.9997
  470MOL0     H61991   3.706   9.694   8.054 -0.1714 -0.5302  0.8564
  470MOL0     H61992   3.608   9.789   7.960 -0.5875 -0.8807  0.3481
  470MOL0     H61993   3.399   9.916   8.140 -2.6680 -0.8882  0.2821
  470MOL0     H61994   3.278   9.922   8.387 -0.4014 -0.2880  0.2071
  470MOL0     H61995   3.313   9.772   8.484 -0.7921  0.3866  0.7461
  470MOL0     H61996   3.128   9.673   8.313 -0.4303 -0.3690 -0.6221
  470MOL0     H61997   3.089   9.831   8.266  0.5260  0.1321  0.3739
  470MOL0     H61998   3.056   9.724   8.549 -4.9718 -2.3898 -0.7477
  470MOL0     H61999   3.048   9.898   8.518  0.0215  1.7651 -2.3768
  470MOL0     H62000   2.868   9.680   8.406  0.0593  0.7249 -1.6819
  470MOL0     H62001   2.863   9.844   8.346 -0.2044  0.2873  0.0522
  470MOL0     H62002   2.577   9.700   8.513  1.9221  0.4714 -0.6225
  470MOL0     H62003   2.351   9.789   8.422  0.8728 -0.0537 -0.4489
  470MOL0     H62004   2.046  10.161   8.394  1.2917 -1.1379  0.9321
  470MOL0     H62005   1.862  10.287   8.310  0.7229 -1.1355  0.8790
  470MOL0     H62006   1.919  10.561   7.957 -0.5508 -2.8076  0.1310
  470MOL0     H62007   1.848  10.613   8.119 -3.3981 -1.6628  2.1811
  470MOL0     H62008   1.642  10.583   8.072  1.9827 -0.3250  1.1099
  470MOL0     H62009   1.652  10.491   7.926 -2.6220 -0.0379  1.4526
  470MOL0     H62010   1.733  10.691   7.800  1.8365  2.5588  0.0510
  470MOL0     H62011   1.738  10.785   7.949 -1.5015 -0.0183  0.9708
  470MOL0     H62012   1.496  10.660   7.843  2.5428  0.9630 -3.4755
  470MOL0     H62013   1.505  10.762   7.997 -1.5459  0.6431 -0.7114
  470MOL0     H62014   1.586  10.868   7.733 -3.3660  0.2877 -1.7480
  470MOL0     H62015   1.609  10.944   7.889  1.8979 -2.6477 -0.9679
  470MOL0     H62016   1.417  11.034   7.788  0.9011  0.4979  0.6920
  470MOL0     H62017   1.337  10.924   7.906 -0.3384 -0.7975  0.0032
  470MOL0     H62018   1.404  10.858   7.615 -0.1549 -3.4481 -0.2389
  470MOL0     H62019   1.316  10.758   7.724 -4.2601  1.0486  1.2097
  470MOL0     H62020   1.228  11.035   7.639  2.1730 -0.7667 -0.3176
  470MOL0     H62021   1.136  10.924   7.751 -0.7073 -3.2923 -0.6170
  470MOL0     H62022   2.109  10.460   7.999  0.1581  0.8980  0.0010
  470MOL0     H62023   2.316  10.332   8.104  1.8361  0.3954  2.9892
  470MOL0     H62024   2.568  10.160   8.353 -1.8101  0.3843  0.6044
  470MOL0     H62025   2.764  10.061   8.445 -0.4183 -0.1571  2.2986
  470MOL0     H62026   4.651  10.071   7.818  1.1818  0.4188 -0.1825
  470MOL0     H62027   4.881  10.144   7.896 -0.1444 -0.7872 -0.6076
  470MOL0     H62028   5.195  10.565   7.838 -0.3602 -3.1479 -0.2189
  470MOL0     H62029   5.413  10.628   7.924  0.7510  0.2724  1.0774
  470MOL0     H62030   5.628  10.654   8.001 -2.4440 -1.3679 -0.5747
  470MOL0     H62031   5.607  10.487   8.004 -1.8550 -0.3915 -0.4593
  470MOL0     H62032   5.820  10.547   8.106 -1.4367 -2.8187 -0.4831
  470MOL0     H62033   5.748  10.661   8.215  0.3606  1.5815 -3.9067
  470MOL0     H62034   5.628  10.449   8.319 -1.1566  2.9390 -1.2728
  470MOL0     H62035   5.798  10.450   8.339  1.5457 -0.3177 -1.4355
  470MOL0     H62036   5.809  10.307   8.115 -1.1130 -2.0197 -0.5530
  470MOL0     H62037   5.773  10.232   8.269 -0.0986  0.6937  0.1187
  470MOL0     H62038   5.390  10.187   8.118  0.2071  1.1040 -0.9423
  470MOL0     H62039   5.320  10.472   8.303  0.5605 -0.5230 -1.5354
  470MOL0     H62040   5.093  10.379   8.216 -0.6417 -1.7619 -1.6669
  471MOL0     O62041   5.031   1.002   4.037 -0.6620  0.6830  0.0542
  471MOL0     C62042   5.101   1.101   4.066 -0.4482 -0.3508 -0.7191
  471MOL0     O62043   5.051   1.223   4.093 -0.4198 -0.1381 -0.6942
  471MOL0     C62044   4.919   1.256   4.073 -0.5974 -0.3009 -0.5186
  471MOL0     C62045   4.889   1.384   4.030 -0.2558  0.0796  0.5751
  471MOL0     C62046   4.759   1.439   4.037  0.5766 -0.1039  0.9268
  471MOL0     C62047   4.653   1.349   4.073 -0.9789  0.5650  0.5868
  471MOL0     O62048   4.527   1.385   4.077  0.5970  0.0467  0.7000
  471MOL0     C62049   4.473   1.483   3.982  0.0727  0.4413  0.6047
  471MOL0     C62050   4.450   1.410   3.848 -0.4390 -0.0859  0.7645
  471MOL0     C62051   4.374   1.492   3.746 -0.0444  0.3048 -0.9427
  471MOL0     C62052   4.349   1.421   3.617 -0.2900  0.6316 -0.3419
  471MOL0     C62053   4.262   1.499   3.519 -0.4609  1.2129  0.7443
  471MOL0     C62054   4.261   1.422   3.382 -0.5219  0.1814  1.3862
  471MOL0     C62055   4.197   1.505   3.270 -0.1789  0.5949  0.5505
  471MOL0     C62056   4.194   1.429   3.136  0.0871  0.1408 -0.1886
  471MOL0     N62057   4.084   1.330   3.128  0.4589  0.6079  0.0411
  471MOL0     C62058   3.955   1.361   3.142  0.3112  0.7568 -0.5011
  471MOL0     C62059   3.892   1.247   3.170 -1.0834 -0.1843 -1.0571
  471MOL0     C62060   3.750   1.216   3.196 -0.5285 -0.0708 -0.1239
  471MOL0     C62061   3.669   1.227   3.083  0.4958 -0.9699 -0.4603
  471MOL0     C62062   3.561   1.123   3.095 -0.4750 -0.2103  0.0736
  471MOL0     C62063   3.468   1.139   3.218  0.6702  0.9143 -0.1238
  471MOL0     O62064   3.394   1.262   3.225 -0.3490  0.7525 -0.2697
  471MOL0     C62065   3.270   1.256   3.290 -0.0477 -0.7574 -0.1843
  471MOL0     C62066   3.236   1.175   3.391 -0.3569  0.2006 -0.2601
  471MOL0     C62067   3.115   1.172   3.441 -0.0590 -0.0582 -1.0927
  471MOL0     C62068   3.008   1.245   3.385 -0.4866  0.3095  0.3668
  471MOL0     C62069   2.875   1.236   3.442  0.0382  0.5384 -0.4250
  471MOL0     O62070   2.833   1.118   3.516 -0.6349 -0.2414 -0.3108
  471MOL0     C62071   2.705   1.094   3.561 -0.1592  1.0928  0.0946
  471MOL0     C62072   2.586   1.163   3.524  0.3598 -0.7799  0.1345
  471MOL0     C62073   2.467   1.140   3.588 -0.5705  0.0808 -1.0161
  471MOL0     C62074   2.448   1.044   3.682  0.1294  0.3864  0.3650
  471MOL0     O62075   2.336   0.992   3.742  0.1061 -0.2777 -0.0500
  471MOL0     C62076   2.206   1.052   3.726 -0.3925  0.4009  0.3111
  471MOL0     C62077   2.197   1.204   3.747  1.1882  0.7015  0.5397
  471MOL0     C62078   2.057   1.246   3.799  0.4255  0.1355 -0.5900
  471MOL0     C62079   1.956   1.220   3.688 -1.2644  0.5569  0.0904
  471MOL0     C62080   1.811   1.266   3.708 -1.0681  0.2773  0.4073
  471MOL0     C62081   1.744   1.205   3.826  0.9494  0.2434  0.4644
  471MOL0     C62082   1.591   1.243   3.833  0.0055  0.0917  0.0292
  471MOL0     C62083   1.526   1.161   3.937 -0.4993  0.0718 -0.2836
  471MOL0    Cl62084   1.486   0.993   3.896 -0.2295  0.0689 -0.7592
  471MOL0     C62085   2.567   0.980   3.721  0.2901  0.4866 -0.6569
  471MOL0     C62086   2.696   0.995   3.661 -0.4726 -0.2531 -0.8201
  471MOL0     O62087   2.809   1.339   3.417  0.9435  0.8711 -1.1007
  471MOL0     C62088   3.042   1.338   3.286 -0.2653 -0.6028 -0.6854
  471MOL0     C62089   3.169   1.341   3.230 -0.5644  0.5145 -0.2855
  471MOL0     N62090   3.989   1.143   3.175  0.1853 -0.2830  1.2756
  471MOL0     N62091   4.099   1.198   3.142 -0.0023  0.7075  0.1590
  471MOL0     C62092   4.688   1.223   4.133 -0.1408 -1.0747 -0.1964
  471MOL0     C62093   4.821   1.177   4.127 -0.1784 -0.2108  0.1926
  471MOL0     C62094   5.255   1.084   4.082  0.2962  0.1622 -0.2529
  471MOL0     C62095   5.332   1.199   4.120  0.6072 -0.7009  0.7976
  471MOL0     C62096   5.474   1.191   4.092  0.5904 -0.3659 -0.2058
  471MOL0     C62097   5.532   1.070   4.051 -0.0378 -0.1481 -0.7422
  471MOL0     O62098   5.670   1.084   4.033  0.2195 -0.4973  0.1491
  471MOL0     C62099   5.748   0.973   3.991 -0.9573  0.4365 -0.4915
  471MOL0     C62100   5.891   1.005   4.020 -0.1616  0.4026  0.0639
  471MOL0     C62101   5.993   0.905   3.967 -0.1080  0.5115  0.1002
  471MOL0     C62102   6.138   0.950   3.950  0.0804 -0.7139 -0.2719
  471MOL0     C62103   6.212   0.856   3.860 -0.0513 -0.1893 -0.2058
  471MOL0     C62104   6.256   0.776   3.779  0.1773 -1.1920  0.2103
  471MOL0     C62105   5.461   0.952   4.029 -0.0126 -0.8448 -1.3174
  471MOL0     C62106   5.321   0.960   4.047 -0.7488 -0.3421 -0.7341
  471MOL0     H62107   4.982   1.431   3.999 -0.0230  0.2168  1.4776
  471MOL0     H62108   4.738   1.532   3.985  1.1404 -1.9665 -3.0567
  471MOL0     H62109   4.533   1.573   3.972  0.2119  0.1157 -2.4610
  471MOL0     H62110   4.373   1.517   4.013 -0.1663 -1.1752  1.7439
  471MOL0     H62111   4.396   1.315   3.854  0.2996 -0.5522  0.2131
  471MOL0     H62112   4.545   1.372   3.809 -0.0599  1.5101  0.0359
  471MOL0     H62113   4.433   1.583   3.735  1.2444  0.0242  2.5923
  471MOL0     H62114   4.280   1.528   3.790 -1.1107 -1.2204 -1.8663
  471MOL0     H62115   4.445   1.398   3.570 -0.2902 -3.2856  1.2653
  471MOL0     H62116   4.282   1.343   3.655 -3.7452  3.6759  0.4736
  471MOL0     H62117   4.317   1.594   3.509  1.2326  0.5912  3.1730
  471MOL0     H62118   4.158   1.508   3.551  0.2203  0.7548  3.4063
  471MOL0     H62119   4.209   1.327   3.399 -2.3383  1.3276  2.5591
  471MOL0     H62120   4.364   1.405   3.349 -1.1535 -0.9964 -0.1329
  471MOL0     H62121   4.104   1.542   3.314 -0.3956  1.0208 -0.2389
  471MOL0     H62122   4.265   1.589   3.252 -0.0787  0.4414  0.2137
  471MOL0     H62123   4.286   1.375   3.112  0.5608  1.0800 -0.5798
  471MOL0     H62124   4.185   1.494   3.048 -0.0689  1.1089  0.5170
  471MOL0     H62125   3.910   1.460   3.148 -0.3503  0.4059  0.8545
  471MOL0     H62126   3.705   1.280   3.273 -0.3937 -1.0025  0.7437
  471MOL0     H62127   3.738   1.120   3.246  2.2450 -1.6865 -2.2578
  471MOL0     H62128   3.739   1.212   3.000  4.6108 -0.7088  2.6104
  471MOL0     H62129   3.626   1.328   3.083  0.7573 -0.7739 -3.1129
  471MOL0     H62130   3.501   1.135   3.004  0.3110  0.9552 -0.3235
  471MOL0     H62131   3.602   1.022   3.099  0.2012  0.0590  0.0998
  471MOL0     H62132   3.519   1.125   3.314  0.8144  2.5462  0.0671
  471MOL0     H62133   3.400   1.054   3.211  4.3919 -2.5583  1.4101
  471MOL0     H62134   3.318   1.130   3.445  0.3601  0.3525 -1.1858
  471MOL0     H62135   3.093   1.107   3.525 -2.0589  0.7919 -0.9036
  471MOL0     H62136   2.599   1.238   3.447  0.7977 -1.1624 -0.1707
  471MOL0     H62137   2.386   1.203   3.553  0.5071  1.1699 -1.6318
  471MOL0     H62138   2.155   1.004   3.811 -0.3870  0.4666  0.3516
  471MOL0     H62139   2.163   1.020   3.631 -1.1752  1.0638  0.4326
  471MOL0     H62140   2.210   1.269   3.660 -0.3146  1.3549  0.7696
  471MOL0     H62141   2.278   1.232   3.815  0.9078 -0.1543  1.2509
  471MOL0     H62142   2.071   1.351   3.824  1.9961  0.7650 -3.6061
  471MOL0     H62143   2.020   1.189   3.885 -0.0149  3.4008  1.5361
  471MOL0     H62144   1.991   1.281   3.604 -1.6788  1.8562  0.8364
  471MOL0     H62145   1.949   1.112   3.671 -1.2233  0.0061  2.9822
  471MOL0     H62146   1.752   1.244   3.619 -1.3119 -1.6160  0.9889
  471MOL0     H62147   1.804   1.374   3.727 -3.0443  0.3571 -0.4841
  471MOL0     H62148   1.779   1.225   3.928  1.2662 -0.6471  0.5374
  471MOL0     H62149   1.753   1.099   3.799 -0.2764  0.4537 -0.9008
  471MOL0     H62150   1.580   1.348   3.862  0.7832  0.5342 -1.1830
  471MOL0     H62151   1.553   1.237   3.730  2.7375  0.0659 -1.0613
  471MOL0     H62152   1.427   1.201   3.962 -1.0452  0.0006 -2.2266
  471MOL0     H62153   1.599   1.155   4.018  1.3850  1.3671 -1.7935
  471MOL0     H62154   2.554   0.918   3.809  0.0039  0.2005 -0.8974
  471MOL0     H62155   2.786   0.950   3.703  2.2824  2.6434 -3.1157
  471MOL0     H62156   2.963   1.402   3.249 -1.2781 -1.0419  0.6303
  471MOL0     H62157   3.194   1.400   3.143  0.1888  0.0003 -0.4207
  471MOL0     H62158   4.613   1.168   4.189 -2.3217  2.0981  0.3130
  471MOL0     H62159   4.852   1.085   4.174  0.8010  0.2176  0.4149
  471MOL0     H62160   5.285   1.285   4.167  1.7423 -0.0634  0.7967
  471MOL0     H62161   5.546   1.269   4.113  1.5290  0.1353 -4.4205
  471MOL0     H62162   5.726   0.963   3.884  2.0507  1.3936 -1.2873
  471MOL0     H62163   5.740   0.877   4.043  1.1878  0.2550 -0.4285
  471MOL0     H62164   5.920   1.101   3.975 -1.8194  0.5454 -0.7617
  471MOL0     H62165   5.886   1.012   4.129  4.8716 -1.3727  0.6692
  471MOL0     H62166   5.970   0.856   3.873  2.2147 -0.9060  0.1919
  471MOL0     H62167   5.988   0.823   4.039  1.2288  2.0535  2.0649
  471MOL0     H62168   6.146   1.051   3.910  1.4693  0.4546  2.6756
  471MOL0     H62169   6.201   0.956   4.040  1.7851 -1.9213 -1.3051
  471MOL0     H62170   6.299   0.720   3.698  1.5925  1.6610 -1.1622
  471MOL0     H62171   5.506   0.862   3.989 -0.5621 -1.4907 -0.4956
  471MOL0     H62172   5.262   0.873   4.020 -2.4441  1.5436 -3.6959
  472MOL0     O62173   9.970   3.822  11.361 -0.0662 -0.0505 -0.3571
  472MOL0     C62174   9.956   3.783  11.476 -0.1685 -0.7516 -0.6392
  472MOL0     O62175  10.063   3.754  11.558  0.5034  1.4981 -1.2334
  472MOL0     C62176  10.183   3.799  11.527 -0.4294 -0.8893  0.7053
  472MOL0     C62177  10.247   3.890  11.609 -0.7045 -0.2433  0.6162
  472MOL0     C62178  10.380   3.931  11.592  1.1360 -0.0296 -0.3681
  472MOL0     C62179  10.457   3.869  11.492  0.5271 -0.1892  0.7030
  472MOL0     O62180  10.597   3.901  11.490 -0.0417  0.3049  0.5962
  472MOL0     C62181  10.689   3.832  11.392 -0.6262 -0.1028  0.1098
  472MOL0     C62182  10.751   3.707  11.442  0.0720  0.4480  0.2836
  472MOL0     C62183  10.855   3.661  11.344 -0.4715  0.0057 -0.6563
  472MOL0     C62184  10.800   3.586  11.226 -0.2953  0.1977  0.7953
  472MOL0     C62185  10.907   3.525  11.137  0.5311  0.0966 -0.5731
  472MOL0     C62186  10.966   3.630  11.039  0.8117 -0.6541 -0.3044
  472MOL0     C62187  11.077   3.554  10.960 -0.0878  0.7588 -0.1392
  472MOL0     C62188  11.150   3.656  10.874 -0.2181  1.1022  0.3093
  472MOL0     N62189  11.090   3.662  10.736  0.7539 -0.6363 -0.3594
  472MOL0     C62190  11.166   3.663  10.627 -0.3513 -0.5742  0.2738
  472MOL0     C62191  11.085   3.682  10.519  0.0822 -0.4072 -0.1215
  472MOL0     C62192  11.123   3.684  10.378 -0.4037 -0.3875 -0.0337
  472MOL0     C62193  11.054   3.799  10.294  0.6871 -0.3259  0.1920
  472MOL0     C62194  11.097   3.781  10.143 -0.1481  0.5923 -0.1211
  472MOL0     C62195  11.236   3.845  10.105  0.0342  0.4732  0.4419
  472MOL0     O62196  11.343   3.741  10.087  0.6722  0.3770  0.7094
  472MOL0     C62197  11.458   3.782  10.021  0.4913 -0.4427  0.3682
  472MOL0     C62198  11.494   3.915  10.011  0.2727  0.7960  0.4444
  472MOL0     C62199  11.613   3.942   9.947  0.7979  0.1861 -0.3236
  472MOL0     C62200  11.703   3.847   9.902  0.1100  0.9944 -0.8180
  472MOL0     C62201  11.823   3.874   9.826 -0.8055 -0.9288  0.4817
  472MOL0     O62202  11.896   3.772   9.786  0.5742  0.4766  0.0953
  472MOL0     C62203  12.019   3.796   9.730  0.3064  0.2425 -0.3002
  472MOL0     C62204  12.121   3.712   9.780  0.0506 -0.0458 -0.0047
  472MOL0     C62205  12.249   3.715   9.723 -0.1328  0.2613  0.6721
  472MOL0     C62206  12.276   3.787   9.605  0.4765 -0.5248 -0.9334
  472MOL0     O62207  12.392   3.765   9.548  0.7275  0.6640 -1.2130
  472MOL0     C62208  12.430   3.834   9.433  0.0824 -0.3225  0.2971
  472MOL0     C62209  12.525   3.738   9.364  0.5024  0.0150 -0.6724
  472MOL0     C62210  12.611   3.806   9.253 -0.9620  0.3290  0.2989
  472MOL0     C62211  12.718   3.704   9.213 -0.0827  0.6444 -0.1803
  472MOL0     C62212  12.828   3.777   9.129  0.7435 -0.5479  0.4043
  472MOL0     C62213  12.921   3.668   9.072  0.2500 -0.2798 -0.3871
  472MOL0     C62214  13.022   3.745   8.990 -1.1033 -0.3376 -1.0117
  472MOL0     C62215  13.138   3.787   9.080  0.5296  0.2782  0.6419
  472MOL0    Cl62216  13.269   3.877   8.996  0.4220 -0.5097 -0.2862
  472MOL0     C62217  12.176   3.872   9.555  0.2659  0.0939  0.1663
  472MOL0     C62218  12.048   3.866   9.615 -0.3267  0.0257 -0.0815
  472MOL0     O62219  11.855   3.996   9.823 -1.2001 -0.1441 -0.3732
  472MOL0     C62220  11.665   3.709   9.917 -0.1444 -0.1344 -0.0688
  472MOL0     C62221  11.539   3.682   9.968  1.2662  0.0306  0.0293
  472MOL0     N62222  10.953   3.693  10.576  0.0023  0.1460  0.7261
  472MOL0     N62223  10.956   3.689  10.703 -0.1847 -0.1996  0.0031
  472MOL0     C62224  10.396   3.780  11.405  0.9567 -0.2722 -0.1273
  472MOL0     C62225  10.259   3.746  11.417  0.8222  0.0147  0.6404
  472MOL0     C62226   9.827   3.750  11.518 -0.0676  0.2001 -0.5209
  472MOL0     C62227   9.808   3.667  11.627 -0.2357  0.5048  0.7428
  472MOL0     C62228   9.678   3.629  11.672 -0.3624  0.5009 -0.3650
  472MOL0     C62229   9.572   3.682  11.603 -0.7050  0.1261 -0.5741
  472MOL0     O62230   9.451   3.637  11.639  0.2842 -0.1518  0.4601
  472MOL0     C62231   9.329   3.712  11.588  0.4689  0.0907 -0.1795
  472MOL0     C62232   9.199   3.650  11.632 -0.1240  0.6705 -0.7993
  472MOL0     C62233   9.170   3.649  11.787 -0.1304 -0.0729  0.4217
  472MOL0     C62234   9.119   3.784  11.844 -0.6081  0.1691  0.5972
  472MOL0     C62235   9.110   3.766  11.989 -0.2127 -0.4893 -0.1778
  472MOL0     C62236   9.103   3.733  12.112 -0.9086 -0.7036  0.0905
  472MOL0     C62237   9.586   3.773  11.494  0.1048 -0.3133 -0.2762
  472MOL0     C62238   9.711   3.801  11.452 -0.7751 -0.0259 -0.0476
  472MOL0     H62239  10.190   3.945  11.683  2.4576  0.3431  2.8416
  472MOL0     H62240  10.435   4.005  11.650  1.2427 -0.4406  0.0636
  472MOL0     H62241  10.768   3.907  11.380 -0.3542  0.0041  2.1629
  472MOL0     H62242  10.636   3.828  11.296  0.0172 -3.0644 -0.2225
  472MOL0     H62243  10.677   3.629  11.460 -1.7218  2.0581  0.2142
  472MOL0     H62244  10.797   3.730  11.538 -1.0993  1.3682  0.6515
  472MOL0     H62245  10.929   3.594  11.390 -2.0957 -0.5785  1.2617
  472MOL0     H62246  10.908   3.753  11.317 -1.7571  1.0721  0.3702
  472MOL0     H62247  10.756   3.494  11.266 -1.3282  0.2714 -0.1158
  472MOL0     H62248  10.729   3.638  11.162  2.3088  2.7682 -0.2532
  472MOL0     H62249  10.865   3.441  11.080  1.9224 -1.0931  0.0945
  472MOL0     H62250  10.984   3.486  11.203 -2.9213 -1.0395  3.2088
  472MOL0     H62251  11.014   3.704  11.104  4.2062 -3.4984  0.7772
  472MOL0     H62252  10.898   3.662  10.959  2.4812 -0.0367 -1.5463
  472MOL0     H62253  11.145   3.501  11.028  1.1195  2.6266  0.1706
  472MOL0     H62254  11.032   3.493  10.881  1.0461  0.5284 -0.6205
  472MOL0     H62255  11.252   3.620  10.860  0.1826  2.0851  0.6127
  472MOL0     H62256  11.132   3.756  10.914 -4.5873  0.7914 -0.4110
  472MOL0     H62257  11.275   3.661  10.628 -0.3548 -1.5299  1.9126
  472MOL0     H62258  11.088   3.584  10.348 -0.8426 -0.1753 -0.2491
  472MOL0     H62259  11.228   3.703  10.355 -1.0710  1.9393 -1.4776
  472MOL0     H62260  11.104   3.886  10.337 -3.1693  1.3820  1.6683
  472MOL0     H62261  10.946   3.812  10.285  1.0382  1.2047 -3.7377
  472MOL0     H62262  11.099   3.673  10.122 -0.0442  0.8650 -1.5919
  472MOL0     H62263  11.017   3.824  10.082 -0.1321 -0.3185 -0.8064
  472MOL0     H62264  11.280   3.902  10.188  0.0476  3.3584 -1.3954
  472MOL0     H62265  11.239   3.911  10.018  1.9434  2.0713  1.6331
  472MOL0     H62266  11.435   3.990  10.063  0.8868  0.2595  1.9609
  472MOL0     H62267  11.651   4.042   9.930  0.8957  0.3322  0.6922
  472MOL0     H62268  12.095   3.668   9.875 -0.5953 -0.1138 -0.2109
  472MOL0     H62269  12.328   3.664   9.777  0.0777  0.1391  0.2527
  472MOL0     H62270  12.490   3.918   9.470 -1.2573  2.3746 -3.0606
  472MOL0     H62271  12.358   3.883   9.367  0.2179 -0.1249  0.2944
  472MOL0     H62272  12.463   3.660   9.319 -1.7325  0.2797  1.6925
  472MOL0     H62273  12.584   3.680   9.436 -1.0829 -0.2185  0.5031
  472MOL0     H62274  12.647   3.902   9.290  0.7309  0.3320 -1.1922
  472MOL0     H62275  12.551   3.814   9.162  2.7597  0.4401 -2.3977
  472MOL0     H62276  12.769   3.660   9.298  2.6359 -1.4754 -2.6959
  472MOL0     H62277  12.675   3.621   9.155  1.2848  0.7848 -1.4360
  472MOL0     H62278  12.874   3.849   9.197 -0.1528 -0.7983  1.3031
  472MOL0     H62279  12.794   3.843   9.048  1.0415  0.2479  0.9146
  472MOL0     H62280  12.871   3.595   9.008  1.2873 -3.6478  2.3627
  472MOL0     H62281  12.964   3.613   9.156 -1.3108 -1.1097 -0.0837
  472MOL0     H62282  13.049   3.679   8.907 -0.3961 -0.1857 -0.9111
  472MOL0     H62283  12.987   3.839   8.947 -4.7294 -0.4999  1.1753
  472MOL0     H62284  13.186   3.697   9.121  2.4059  0.6401 -0.6250
  472MOL0     H62285  13.098   3.842   9.166  0.6473 -2.6061  2.7030
  472MOL0     H62286  12.174   3.909   9.453 -2.5686 -1.6386 -0.5138
  472MOL0     H62287  11.972   3.926   9.566  1.7958  1.9266 -1.2614
  472MOL0     H62288  11.727   3.628   9.879 -1.5219 -0.0724 -2.6996
  472MOL0     H62289  11.514   3.577   9.977  1.1521  0.2102  2.2957
  472MOL0     H62290  10.450   3.752  11.315 -1.5981 -0.7973 -1.6103
  472MOL0     H62291  10.228   3.676  11.340  0.7968 -1.2741  1.7627
  472MOL0     H62292   9.891   3.617  11.677 -0.1208  0.6711  0.7197
  472MOL0     H62293   9.662   3.562  11.756  0.8030 -0.7213 -1.0885
  472MOL0     H62294   9.338   3.709  11.479  1.8818 -0.0008 -0.0715
  472MOL0     H62295   9.343   3.816  11.618  2.6340 -0.0170 -0.6650
  472MOL0     H62296   9.105   3.686  11.587 -0.3161 -1.2784 -2.0845
  472MOL0     H62297   9.209   3.545  11.600  0.3468 -0.8378  3.6909
  472MOL0     H62298   9.262   3.617  11.837  0.1654 -1.0968 -0.7418
  472MOL0     H62299   9.099   3.568  11.805  1.2579 -1.6444 -0.8730
  472MOL0     H62300   9.175   3.868  11.802 -1.8859  0.7850  0.0575
  472MOL0     H62301   9.016   3.814  11.824  0.3369  2.9453 -0.5716
  472MOL0     H62302   9.120   3.703  12.213 -2.2728 -3.1446 -0.3200
  472MOL0     H62303   9.505   3.815  11.435 -0.1930 -0.0636  0.3051
  472MOL0     H62304   9.723   3.877  11.376  0.2112 -1.2903 -1.1968
  473MOL0     O62305   3.455   1.626   6.594 -0.0517  0.2419  0.3497
  473MOL0     C62306   3.439   1.698   6.495 -0.1853  0.8418  0.8826
  473MOL0     O62307   3.316   1.733   6.439  0.4782 -0.4399  0.3261
  473MOL0     C62308   3.200   1.673   6.481  0.5678 -0.3422  0.0187
  473MOL0     C62309   3.158   1.679   6.613  0.2189  0.9062  0.6151
  473MOL0     C62310   3.018   1.652   6.632 -0.5102  1.4501  1.0088
  473MOL0     C62311   2.933   1.616   6.534 -0.2474 -0.2623  0.0525
  473MOL0     O62312   2.797   1.615   6.566 -0.1786  0.6613 -0.8589
  473MOL0     C62313   2.731   1.489   6.531 -0.3346 -0.3110  0.0678
  473MOL0     C62314   2.580   1.500   6.532  0.5879  0.1469  0.0104
  473MOL0     C62315   2.507   1.600   6.434  0.7858  0.4405  0.6389
  473MOL0     C62316   2.550   1.613   6.287  0.4165  0.2575 -0.2619
  473MOL0     C62317   2.480   1.506   6.190 -0.9181  0.1520 -0.4272
  473MOL0     C62318   2.541   1.503   6.052 -1.1789 -0.1640 -0.5727
  473MOL0     C62319   2.475   1.412   5.953 -0.0146  0.6126 -1.0959
  473MOL0     C62320   2.486   1.267   6.005  0.5159 -0.0848 -0.0152
  473MOL0     N62321   2.618   1.208   5.992 -0.8480 -0.3832  0.9456
  473MOL0     C62322   2.674   1.132   6.100 -0.4283 -0.1557 -0.2212
  473MOL0     C62323   2.776   1.058   6.049  0.1865  0.3234  0.5326
  473MOL0     C62324   2.845   0.948   6.131  0.1269  0.1778  0.1240
  473MOL0     C62325   2.789   0.813   6.142  0.8835  0.8217 -0.4357
  473MOL0     C62326   2.767   0.740   5.999  0.0956 -0.0695  0.7445
  473MOL0     C62327   2.680   0.615   6.010 -1.0939  0.2963 -0.7146
  473MOL0     O62328   2.549   0.647   6.069 -0.0596 -1.0132 -0.3946
  473MOL0     C62329   2.457   0.687   5.967  0.3984 -0.0615  0.0881
  473MOL0     C62330   2.453   0.828   5.933  0.8653 -0.1644  0.2160
  473MOL0     C62331   2.361   0.878   5.835  0.2875 -0.4628 -0.1529
  473MOL0     C62332   2.254   0.792   5.794 -0.3424 -0.0730  0.0541
  473MOL0     C62333   2.158   0.823   5.691 -0.1265 -1.1940  0.2147
  473MOL0     O62334   2.100   0.734   5.609  0.0615  0.4998  1.1151
  473MOL0     C62335   2.003   0.752   5.512  0.2420  0.3698 -0.1062
  473MOL0     C62336   1.892   0.830   5.549  0.3017 -0.1730  0.0661
  473MOL0     C62337   1.788   0.845   5.459 -0.8077  0.2043  0.4596
  473MOL0     C62338   1.789   0.781   5.330  0.4006  0.0810 -0.1292
  473MOL0     O62339   1.695   0.814   5.235 -0.2426 -0.2082  0.1739
  473MOL0     C62340   1.560   0.762   5.239 -0.6540  0.0608 -0.0580
  473MOL0     C62341   1.486   0.803   5.110 -0.5264  0.2685 -1.0163
  473MOL0     C62342   1.343   0.748   5.097  0.1948  0.2288 -0.4179
  473MOL0     C62343   1.293   0.768   4.954  0.1650  0.2934  0.0521
  473MOL0     C62344   1.143   0.717   4.941 -0.0566  0.0645 -0.3723
  473MOL0     C62345   1.082   0.766   4.812  0.8168 -0.2715  0.7957
  473MOL0     C62346   1.130   0.671   4.700 -0.2633  0.3024  0.0363
  473MOL0     C62347   1.043   0.670   4.582  0.0555  0.2209 -0.4458
  473MOL0    Cl62348   0.923   0.541   4.586 -0.6071 -0.1711 -0.0939
  473MOL0     C62349   1.891   0.685   5.308 -0.7296 -0.0534 -0.7764
  473MOL0     C62350   2.011   0.680   5.392  0.6866  0.3897  0.2905
  473MOL0     O62351   2.156   0.946   5.668  0.3509 -0.3967  0.7939
  473MOL0     C62352   2.251   0.657   5.837 -0.7268 -0.4829 -0.0417
  473MOL0     C62353   2.353   0.607   5.919  0.3574 -0.1494 -0.6268
  473MOL0     N62354   2.781   1.089   5.902 -0.1919 -0.6293  0.6784
  473MOL0     N62355   2.704   1.182   5.874  1.3681 -0.6800  0.1381
  473MOL0     C62356   2.975   1.609   6.395  0.3148  0.3389 -0.6383
  473MOL0     C62357   3.112   1.630   6.377 -0.3592  0.7669 -0.0982
  473MOL0     C62358   3.562   1.734   6.414  0.0802 -0.3632 -0.1666
  473MOL0     C62359   3.690   1.702   6.464  0.4805 -0.8485  0.6851
  473MOL0     C62360   3.792   1.731   6.376 -0.6171 -0.5773  0.5587
  473MOL0     C62361   3.780   1.805   6.261 -0.0317  0.4943 -0.4232
  473MOL0     O62362   3.892   1.840   6.191  0.0240  0.3174 -0.7032
  473MOL0     C62363   3.896   1.776   6.063 -0.0366 -0.2872 -0.6227
  473MOL0     C62364   4.042   1.749   6.038 -0.8447  0.5719  0.4112
  473MOL0     C62365   4.082   1.623   6.119  0.4646 -0.3118 -0.0972
  473MOL0     C62366   4.111   1.502   6.026 -0.3963 -0.3000 -1.0877
  473MOL0     C62367   4.181   1.405   6.113 -0.6596  0.0514 -0.0275
  473MOL0     C62368   4.244   1.334   6.195  0.7493  0.6457  0.0463
  473MOL0     C62369   3.655   1.844   6.223  0.6375 -0.6027  0.3456
  473MOL0     C62370   3.543   1.807   6.298 -1.1952 -0.6031 -0.0578
  473MOL0     H62371   3.217   1.716   6.697  2.3545 -1.7854  0.4470
  473MOL0     H62372   2.975   1.680   6.727 -0.7442  1.3838  0.9241
  473MOL0     H62373   2.758   1.410   6.601  0.3067 -0.7281 -0.6333
  473MOL0     H62374   2.766   1.455   6.433 -0.8929 -1.3424  0.2231
  473MOL0     H62375   2.563   1.524   6.637  0.8029  2.2624 -0.3924
  473MOL0     H62376   2.550   1.396   6.519  0.2863  0.2450 -0.0809
  473MOL0     H62377   2.511   1.702   6.475 -1.3963  1.8921 -2.4249
  473MOL0     H62378   2.399   1.581   6.437  0.6485  1.2739  2.6608
  473MOL0     H62379   2.529   1.713   6.249 -0.8089 -0.7890 -2.4866
  473MOL0     H62380   2.659   1.600   6.285  0.2134 -1.7209 -0.7521
  473MOL0     H62381   2.371   1.516   6.194 -0.8943  0.2035  0.1137
  473MOL0     H62382   2.501   1.418   6.250  1.0013  2.2433  2.1944
  473MOL0     H62383   2.647   1.473   6.058 -0.8528 -0.3871 -4.4275
  473MOL0     H62384   2.557   1.603   6.011  2.3272  1.0732  3.1339
  473MOL0     H62385   2.370   1.440   5.949 -0.1655  1.2447  3.0890
  473MOL0     H62386   2.522   1.429   5.855  0.4781 -1.1050 -1.1882
  473MOL0     H62387   2.414   1.210   5.946  0.6527 -0.0474 -0.2187
  473MOL0     H62388   2.459   1.277   6.111  0.6665  3.2057 -0.1690
  473MOL0     H62389   2.640   1.125   6.203 -2.1723 -3.9955 -0.8631
  473MOL0     H62390   2.858   0.996   6.228 -3.3566  2.5580 -0.3914
  473MOL0     H62391   2.946   0.938   6.090 -0.3344 -0.0882 -1.0050
  473MOL0     H62392   2.692   0.832   6.188 -0.4389 -1.2680 -2.1389
  473MOL0     H62393   2.850   0.744   6.202 -0.0404  0.6163  0.2954
  473MOL0     H62394   2.721   0.811   5.930  1.0318 -1.0853 -1.0004
  473MOL0     H62395   2.865   0.714   5.958  0.1935  1.7758 -0.3019
  473MOL0     H62396   2.739   0.549   6.075  1.8515  1.7380 -1.7393
  473MOL0     H62397   2.674   0.573   5.910 -1.2460  1.8772 -1.4058
  473MOL0     H62398   2.521   0.896   5.983  3.0357  0.0300 -2.7594
  473MOL0     H62399   2.373   0.977   5.793  2.8499 -1.0640 -1.0066
  473MOL0     H62400   1.879   0.890   5.638 -1.7995  1.4788 -1.2771
  473MOL0     H62401   1.699   0.905   5.476 -1.5408 -1.0809  1.2942
  473MOL0     H62402   1.508   0.808   5.323 -3.5599 -0.9991 -1.1446
  473MOL0     H62403   1.558   0.654   5.252 -2.0335 -0.2174 -2.1224
  473MOL0     H62404   1.553   0.756   5.036  0.5831 -0.6350  0.4985
  473MOL0     H62405   1.488   0.911   5.093 -2.2450  0.0091 -3.3156
  473MOL0     H62406   1.273   0.798   5.165  0.2624  1.6525 -1.3501
  473MOL0     H62407   1.349   0.642   5.125  2.7407  0.7462  1.3438
  473MOL0     H62408   1.304   0.873   4.928  0.9672  0.3830  0.7177
  473MOL0     H62409   1.357   0.709   4.888  1.2599 -0.4039  1.6810
  473MOL0     H62410   1.076   0.757   5.018 -0.5847 -0.4142 -0.5725
  473MOL0     H62411   1.129   0.609   4.953 -4.0237  0.3444 -0.9943
  473MOL0     H62412   1.123   0.865   4.791  2.7378 -0.9052  1.3351
  473MOL0     H62413   0.976   0.745   4.829  0.2587  1.3078 -0.4706
  473MOL0     H62414   1.231   0.702   4.673  0.8187 -4.1141 -1.7768
  473MOL0     H62415   1.142   0.570   4.740 -0.3967 -0.4096 -1.6612
  473MOL0     H62416   1.110   0.646   4.499  0.6743  0.0628  0.0885
  473MOL0     H62417   1.007   0.769   4.554 -1.0170 -0.5282 -1.8411
  473MOL0     H62418   1.883   0.620   5.221  0.5643  2.1911 -2.6832
  473MOL0     H62419   2.094   0.617   5.362 -1.3281 -2.4758  0.2943
  473MOL0     H62420   2.175   0.585   5.810 -1.1231 -0.0115 -0.2034
  473MOL0     H62421   2.355   0.501   5.945  0.2394 -0.0928 -0.3917
  473MOL0     H62422   2.914   1.589   6.308 -0.2286  1.1887 -0.4636
  473MOL0     H62423   3.138   1.634   6.272 -4.0080  3.1350 -1.0947
  473MOL0     H62424   3.709   1.658   6.561  1.8970 -5.7397 -1.4887
  473MOL0     H62425   3.889   1.692   6.405 -0.6281 -1.1996 -0.2272
  473MOL0     H62426   3.851   1.850   5.995  0.2569  0.9374  0.4732
  473MOL0     H62427   3.843   1.681   6.052 -1.8455  0.6610 -0.5536
  473MOL0     H62428   4.061   1.739   5.931  0.6778  1.3221  0.6015
  473MOL0     H62429   4.103   1.831   6.075 -0.9543  0.5686  0.6010
  473MOL0     H62430   4.015   1.583   6.195 -0.5704 -2.3495 -1.9619
  473MOL0     H62431   4.175   1.639   6.174  1.4062 -0.4666 -1.5686
  473MOL0     H62432   4.014   1.456   6.006 -1.0344 -0.4806  1.9179
  473MOL0     H62433   4.173   1.514   5.936 -0.2634  2.8125 -0.6991
  473MOL0     H62434   4.293   1.269   6.265  2.0021  0.4396 -0.9772
  473MOL0     H62435   3.636   1.900   6.132 -1.3896  2.8991  2.6620
  473MOL0     H62436   3.444   1.834   6.262 -2.1226 -2.3508  1.0687
  474MOL0     O62437   3.397   9.686   4.461  0.0025 -0.3818 -0.0433
  474MOL0     C62438   3.341   9.728   4.357 -1.5440 -0.0310 -0.7377
  474MOL0     O62439   3.242   9.653   4.282 -1.0301  0.4796  0.2821
  474MOL0     C62440   3.167   9.563   4.352  0.1568  1.1283 -0.0904
  474MOL0     C62441   3.142   9.444   4.290 -1.1065 -0.6145  0.1310
  474MOL0     C62442   3.044   9.363   4.338 -0.3133 -1.0351  0.2517
  474MOL0     C62443   2.953   9.402   4.445 -0.2366 -0.4224 -0.3655
  474MOL0     O62444   2.831   9.340   4.466  0.1141  0.6353 -0.2151
  474MOL0     C62445   2.818   9.202   4.434  0.9112 -0.7155 -1.1037
  474MOL0     C62446   2.688   9.148   4.496 -1.6464 -0.7592 -0.0337
  474MOL0     C62447   2.566   9.204   4.418  0.6868 -0.7439 -0.1900
  474MOL0     C62448   2.421   9.168   4.474  0.3596  0.0163  0.6444
  474MOL0     C62449   2.310   9.244   4.393 -0.2550  0.6264 -0.8937
  474MOL0     C62450   2.173   9.228   4.456  0.2458 -0.5202  0.8695
  474MOL0     C62451   2.062   9.282   4.369 -0.3376 -0.3672  0.8496
  474MOL0     C62452   1.927   9.261   4.432 -0.6058  0.0746 -0.8842
  474MOL0     N62453   1.806   9.272   4.334  0.0353 -0.2510  0.7110
  474MOL0     C62454   1.790   9.198   4.224 -1.1328  0.4640 -0.1334
  474MOL0     C62455   1.658   9.212   4.192  0.3177  0.9206  0.8532
  474MOL0     C62456   1.605   9.158   4.061 -0.7553  0.4828 -0.7185
  474MOL0     C62457   1.554   9.264   3.965  0.1258  0.1752 -0.0691
  474MOL0     C62458   1.529   9.181   3.830  0.4478 -0.6020 -0.7079
  474MOL0     C62459   1.477   9.280   3.717  0.8407  0.1928 -0.2337
  474MOL0     O62460   1.458   9.207   3.590 -1.0512 -0.9133 -0.9662
  474MOL0     C62461   1.531   9.236   3.475  0.1218 -0.1428 -0.1777
  474MOL0     C62462   1.654   9.311   3.466  0.7525  0.4970 -0.4482
  474MOL0     C62463   1.725   9.333   3.348  0.8583 -0.4021 -0.9329
  474MOL0     C62464   1.683   9.281   3.231  0.4410 -0.4501  0.3388
  474MOL0     C62465   1.751   9.303   3.092  0.5934 -1.2523  0.4389
  474MOL0     O62466   1.697   9.253   2.978  0.3856 -0.3915 -0.2242
  474MOL0     C62467   1.779   9.276   2.874  0.1989 -0.1728  0.7335
  474MOL0     C62468   1.738   9.366   2.778 -0.4807 -0.5497 -0.3613
  474MOL0     C62469   1.822   9.405   2.682 -0.3122 -0.1238  0.1651
  474MOL0     C62470   1.958   9.341   2.668  0.4817 -0.1856 -0.3151
  474MOL0     O62471   2.047   9.388   2.576 -0.0480 -0.2061  0.4980
  474MOL0     C62472   2.092   9.518   2.604  0.4868  0.0368  0.1283
  474MOL0     C62473   2.192   9.566   2.505 -0.6617 -0.0093  0.6933
  474MOL0     C62474   2.303   9.460   2.478  0.4498  0.1312 -0.0853
  474MOL0     C62475   2.416   9.507   2.383 -0.0565  0.0715 -0.3936
  474MOL0     C62476   2.491   9.381   2.353  0.2515  0.4747  0.7496
  474MOL0     C62477   2.595   9.396   2.236 -0.3671 -0.0296 -0.2065
  474MOL0     C62478   2.721   9.472   2.275  0.8954 -1.2658 -0.5892
  474MOL0     C62479   2.840   9.474   2.179 -0.1352  0.7221 -0.2671
  474MOL0    Cl62480   2.990   9.508   2.263  0.1608  0.0725  0.3391
  474MOL0     C62481   1.988   9.234   2.753  0.3488  0.5901 -1.2554
  474MOL0     C62482   1.899   9.202   2.861 -0.4148 -0.4329 -1.2583
  474MOL0     O62483   1.856   9.375   3.094 -0.2249  0.9101 -0.1914
  474MOL0     C62484   1.555   9.213   3.234  0.1850 -0.8105  0.4400
  474MOL0     C62485   1.483   9.191   3.350  0.0615 -0.5503 -0.0926
  474MOL0     N62486   1.595   9.293   4.281  0.0137 -0.2324  0.9888
  474MOL0     N62487   1.686   9.324   4.362  0.4386  0.0150  0.0781
  474MOL0     C62488   2.975   9.526   4.503 -0.9423 -0.2307 -0.0094
  474MOL0     C62489   3.087   9.604   4.458  0.3603 -0.2289  0.2545
  474MOL0     C62490   3.376   9.854   4.301  0.4372  0.0583 -0.5348
  474MOL0     C62491   3.448   9.947   4.381  0.5143 -0.1625  0.8398
  474MOL0     C62492   3.495  10.073   4.333  0.0616  0.1200 -0.1320
  474MOL0     C62493   3.468  10.113   4.206 -0.0702 -0.1123 -0.6502
  474MOL0     O62494   3.532  10.222   4.150 -0.4757  0.1628  0.3020
  474MOL0     C62495   3.608  10.317   4.236  0.2859 -0.5964 -0.5253
  474MOL0     C62496   3.751  10.289   4.261  0.4324  0.4414  1.0708
  474MOL0     C62497   3.817  10.225   4.133 -0.0736 -0.4306  0.3180
  474MOL0     C62498   3.827  10.340   4.026  0.0869  0.2976  0.3825
  474MOL0     C62499   3.875  10.292   3.896 -0.3167 -0.1382 -0.4332
  474MOL0     C62500   3.928  10.248   3.791  0.6594 -0.2795  0.3373
  474MOL0     C62501   3.391  10.031   4.127 -0.4148 -0.1312 -0.5878
  474MOL0     C62502   3.343   9.900   4.172  0.0240 -1.3612 -1.0961
  474MOL0     H62503   3.194   9.420   4.198  1.2338  3.0508  0.2784
  474MOL0     H62504   3.026   9.267   4.290 -1.2698 -0.7220 -0.0235
  474MOL0     H62505   2.904   9.157   4.485  0.3117 -1.5468 -0.8037
  474MOL0     H62506   2.825   9.164   4.331  0.9246 -0.2799 -1.2678
  474MOL0     H62507   2.706   9.175   4.600  4.0701  1.2528 -1.1842
  474MOL0     H62508   2.694   9.039   4.496  0.4163 -0.6893  0.6104
  474MOL0     H62509   2.574   9.174   4.313 -2.5008 -1.5623 -0.2949
  474MOL0     H62510   2.575   9.313   4.427  0.3644 -0.6316 -1.0677
  474MOL0     H62511   2.406   9.060   4.461  0.5486  0.3204 -3.3476
  474MOL0     H62512   2.416   9.197   4.579  0.0401  5.4931 -0.6067
  474MOL0     H62513   2.307   9.201   4.292 -3.0037  1.5411 -1.3025
  474MOL0     H62514   2.342   9.349   4.393 -1.4653  1.0181 -1.4238
  474MOL0     H62515   2.166   9.283   4.550  0.1744  0.8886  0.0578
  474MOL0     H62516   2.150   9.126   4.491 -0.6251 -0.1697  1.3313
  474MOL0     H62517   2.083   9.390   4.372 -0.7453 -0.1508 -1.9038
  474MOL0     H62518   2.070   9.246   4.266  2.1575  0.5866  0.6281
  474MOL0     H62519   1.920   9.329   4.518  1.8645 -2.9017  1.9305
  474MOL0     H62520   1.926   9.157   4.464 -0.5234 -0.5599 -2.8560
  474MOL0     H62521   1.861   9.139   4.167 -0.7393 -0.4381  1.2452
  474MOL0     H62522   1.545   9.071   4.089  2.2526 -1.0480  1.3746
  474MOL0     H62523   1.689   9.118   4.004 -1.5095 -2.1094 -0.1446
  474MOL0     H62524   1.630   9.343   3.959  0.0137  1.0480  5.1376
  474MOL0     H62525   1.459   9.307   3.998 -0.6964 -2.3682  1.1110
  474MOL0     H62526   1.617   9.136   3.786  2.0534  1.4816  0.1725
  474MOL0     H62527   1.464   9.096   3.853  1.4432 -0.9431  0.9991
  474MOL0     H62528   1.535   9.372   3.709  1.2977 -0.0436  0.2668
  474MOL0     H62529   1.380   9.310   3.758 -0.3531 -4.4665  0.9216
  474MOL0     H62530   1.691   9.349   3.561  1.2270 -2.9356  0.8878
  474MOL0     H62531   1.809   9.401   3.355  1.2549 -0.8727 -1.1398
  474MOL0     H62532   1.638   9.409   2.777 -1.7735 -3.2498  0.9276
  474MOL0     H62533   1.793   9.489   2.619 -0.4868 -0.1965  0.1492
  474MOL0     H62534   2.140   9.511   2.702 -1.7049  2.5586  1.5082
  474MOL0     H62535   2.012   9.592   2.607 -0.1840 -0.6091 -1.1272
  474MOL0     H62536   2.242   9.658   2.536 -0.8164 -0.5307  2.6371
  474MOL0     H62537   2.148   9.584   2.407  2.2637 -5.4124 -2.1029
  474MOL0     H62538   2.268   9.364   2.438  0.3889  0.2741 -0.3773
  474MOL0     H62539   2.349   9.436   2.575  0.3876 -2.2969 -0.5838
  474MOL0     H62540   2.375   9.542   2.288  1.8492 -1.2300 -1.7737
  474MOL0     H62541   2.486   9.579   2.427 -0.3266  0.0835  0.0275
  474MOL0     H62542   2.424   9.301   2.321 -0.2237  0.5495  1.5475
  474MOL0     H62543   2.551   9.351   2.439 -1.2050 -3.4298  0.6053
  474MOL0     H62544   2.548   9.444   2.150  2.7388  3.0050 -0.4374
  474MOL0     H62545   2.626   9.296   2.204 -2.3955 -1.1700  1.1443
  474MOL0     H62546   2.687   9.576   2.286  4.1785 -0.0875 -0.4256
  474MOL0     H62547   2.755   9.422   2.366  3.6958 -0.1798 -0.9424
  474MOL0     H62548   2.834   9.543   2.094  0.3807  0.5747 -0.4275
  474MOL0     H62549   2.848   9.377   2.130  0.1584 -0.0808  1.3157
  474MOL0     H62550   2.077   9.172   2.750  0.5116  0.4624  2.3738
  474MOL0     H62551   1.925   9.113   2.917  1.7051 -1.4999 -3.7527
  474MOL0     H62552   1.529   9.178   3.134  1.9370  1.0817 -0.7698
  474MOL0     H62553   1.389   9.136   3.354 -2.1042  2.6171  6.5357
  474MOL0     H62554   2.907   9.559   4.581  0.1987  0.5941  0.6750
  474MOL0     H62555   3.111   9.704   4.491  2.3113  1.5378 -5.3927
  474MOL0     H62556   3.477   9.922   4.482  1.2976 -2.0967  0.1753
  474MOL0     H62557   3.539  10.138   4.408 -0.6572 -0.1254  0.5076
  474MOL0     H62558   3.564  10.336   4.334  1.9513  1.3861 -0.0926
  474MOL0     H62559   3.606  10.412   4.181 -1.2019 -0.7409 -0.7605
  474MOL0     H62560   3.813  10.378   4.278 -0.4578  2.1121 -3.2240
  474MOL0     H62561   3.755  10.213   4.339 -3.0086  0.5326  1.4706
  474MOL0     H62562   3.758  10.137   4.106 -0.7560 -0.4865  1.9082
  474MOL0     H62563   3.916  10.186   4.157  1.9910  3.3383 -1.2181
  474MOL0     H62564   3.731  10.386   4.004  0.2370  1.1499  1.4377
  474MOL0     H62565   3.893  10.420   4.061  2.4151  1.0416 -4.8246
  474MOL0     H62566   3.968  10.218   3.696  1.5462  0.0279  0.6044
  474MOL0     H62567   3.376  10.062   4.024 -2.1767 -1.7526 -0.8729
  474MOL0     H62568   3.285   9.846   4.098 -1.9758  0.9621 -1.3419
  475MOL0     O62569   9.593   6.738   6.690 -0.0020  0.6017  0.1297
  475MOL0     C62570   9.633   6.810   6.781 -0.2925 -1.6457 -0.2601
  475MOL0     O62571   9.580   6.842   6.902  0.1835 -0.3940  0.0955
  475MOL0     C62572   9.462   6.786   6.952  0.3443 -0.5384 -0.0019
  475MOL0     C62573   9.459   6.736   7.077  0.5628  0.6757  0.0097
  475MOL0     C62574   9.338   6.691   7.139 -0.2939 -0.8217  0.5000
  475MOL0     C62575   9.221   6.697   7.072  0.1989 -0.1387  0.6098
  475MOL0     O62576   9.119   6.630   7.138  0.1041  0.4098 -0.0785
  475MOL0     C62577   8.985   6.657   7.087 -0.9091 -0.1776 -0.7637
  475MOL0     C62578   8.876   6.609   7.177  0.1179  0.9636 -0.1568
  475MOL0     C62579   8.742   6.667   7.134  0.6945  0.1072  0.6635
  475MOL0     C62580   8.627   6.600   7.219 -0.9401 -1.2453  0.0578
  475MOL0     C62581   8.478   6.650   7.185  1.3141  0.3847 -0.4498
  475MOL0     C62582   8.372   6.564   7.269 -0.0645  0.7493  0.1185
  475MOL0     C62583   8.229   6.603   7.261  0.4316  0.5839 -0.5397
  475MOL0     C62584   8.135   6.537   7.376  0.0663 -1.0495  0.6392
  475MOL0     N62585   8.002   6.593   7.365  0.4919 -0.1404  0.0406
  475MOL0     C62586   7.934   6.677   7.452 -0.3015 -0.2865 -0.3305
  475MOL0     C62587   7.803   6.676   7.422  0.4766  0.0943  0.1924
  475MOL0     C62588   7.700   6.762   7.480  0.0748 -0.6316  0.5076
  475MOL0     C62589   7.626   6.689   7.595  0.0940 -0.2876  0.2602
  475MOL0     C62590   7.571   6.789   7.697 -1.0905  0.1171 -0.1978
  475MOL0     C62591   7.478   6.721   7.798 -0.4012  0.4534 -0.1780
  475MOL0     O62592   7.349   6.785   7.781  0.3189 -0.3875 -0.8113
  475MOL0     C62593   7.251   6.760   7.874 -0.2587 -0.3981 -1.0440
  475MOL0     C62594   7.146   6.846   7.876  0.9938 -0.4656 -0.4664
  475MOL0     C62595   7.047   6.839   7.972 -0.2234 -0.4830  0.8069
  475MOL0     C62596   7.042   6.737   8.064 -0.2562  0.1917 -0.7535
  475MOL0     C62597   6.933   6.729   8.157  0.2224  0.8478  0.3252
  475MOL0     O62598   6.822   6.807   8.135 -0.8168  0.5212  1.1496
  475MOL0     C62599   6.719   6.798   8.221  1.1937  0.0429  0.8301
  475MOL0     C62600   6.590   6.772   8.172  1.1472  0.3164  0.2253
  475MOL0     C62601   6.481   6.784   8.266  1.0088 -0.1629  0.2607
  475MOL0     C62602   6.502   6.819   8.399  0.9819 -0.7736 -0.1631
  475MOL0     O62603   6.396   6.821   8.492  0.3440 -0.2012  1.0101
  475MOL0     C62604   6.270   6.869   8.443  1.0742 -0.1183  0.9261
  475MOL0     C62605   6.203   6.927   8.568 -0.5340  0.0751  0.7371
  475MOL0     C62606   6.075   7.006   8.526  0.0330  0.9683 -0.6342
  475MOL0     C62607   5.986   7.012   8.655  0.4436 -1.2077  0.1375
  475MOL0     C62608   5.851   7.079   8.624 -0.0570 -0.4666 -0.6897
  475MOL0     C62609   5.862   7.223   8.572 -0.8014  0.0700  0.8555
  475MOL0     C62610   5.717   7.284   8.548 -0.2421  0.8809  0.2461
  475MOL0     C62611   5.643   7.216   8.426  0.0594 -0.2832 -0.4793
  475MOL0    Cl62612   5.718   7.258   8.277  0.3522 -0.0936  0.4824
  475MOL0     C62613   6.630   6.839   8.446 -0.5344  0.0134  0.2083
  475MOL0     C62614   6.740   6.828   8.359 -0.2076 -0.1301  0.0199
  475MOL0     O62615   6.953   6.659   8.255  1.0153 -0.5051  0.7087
  475MOL0     C62616   7.143   6.642   8.058 -0.0141  0.0652  0.5182
  475MOL0     C62617   7.240   6.642   7.953 -0.0671 -0.9698 -0.6561
  475MOL0     N62618   7.792   6.592   7.309  0.2770 -0.5712 -0.2180
  475MOL0     N62619   7.905   6.558   7.273 -0.5641  0.7806 -0.4662
  475MOL0     C62620   9.218   6.746   6.940 -0.9490 -0.2980  0.5183
  475MOL0     C62621   9.341   6.800   6.882  0.3182 -0.3754  0.7200
  475MOL0     C62622   9.780   6.834   6.769  0.6293 -0.8062 -0.1814
  475MOL0     C62623   9.839   6.936   6.856  0.4094 -1.0330  1.4095
  475MOL0     C62624   9.970   6.959   6.856  0.3894  0.3962  0.0554
  475MOL0     C62625  10.063   6.874   6.792  0.2708 -0.4014 -0.1152
  475MOL0     O62626  10.199   6.879   6.789 -1.1057  0.7664  0.0323
  475MOL0     C62627  10.258   6.934   6.907 -0.5678 -0.3357 -0.1820
  475MOL0     C62628  10.283   7.093   6.889  0.0880 -0.4005 -0.5098
  475MOL0     C62629  10.407   7.131   6.795  0.1589  0.5825 -0.2725
  475MOL0     C62630  10.540   7.140   6.869  0.1539 -0.4093 -0.0157
  475MOL0     C62631  10.646   7.178   6.767 -0.6390 -0.2867 -0.8430
  475MOL0     C62632  10.724   7.190   6.674  0.3278  0.3066  0.3629
  475MOL0     C62633  10.001   6.780   6.702  0.8006 -0.3642 -0.2206
  475MOL0     C62634   9.870   6.763   6.685  0.6849  0.4079 -0.5376
  475MOL0     H62635   9.553   6.738   7.132 -0.0312 -1.4545  1.2222
  475MOL0     H62636   9.329   6.670   7.245 -0.7349  3.7246  1.5733
  475MOL0     H62637   8.983   6.598   6.995 -2.7321 -3.8031  1.4175
  475MOL0     H62638   8.959   6.761   7.066 -1.7550  0.5314  3.0677
  475MOL0     H62639   8.894   6.631   7.282 -1.2949 -0.2324  0.3611
  475MOL0     H62640   8.859   6.501   7.175 -1.2202  1.0292  3.0123
  475MOL0     H62641   8.724   6.633   7.032  0.2796  1.8959  0.1124
  475MOL0     H62642   8.743   6.776   7.121  0.6022  0.3487  2.3831
  475MOL0     H62643   8.636   6.493   7.196 -0.5295 -1.5186  1.4314
  475MOL0     H62644   8.660   6.605   7.323  0.6203  0.7843 -0.4741
  475MOL0     H62645   8.467   6.633   7.077 -0.5367  3.8967 -0.9640
  475MOL0     H62646   8.470   6.756   7.210 -1.8078  0.0668  0.2309
  475MOL0     H62647   8.394   6.574   7.376  0.1711  0.0316  0.1460
  475MOL0     H62648   8.369   6.458   7.241 -0.8726 -0.1955  3.2479
  475MOL0     H62649   8.236   6.712   7.276  0.1784  0.5300 -0.0145
  475MOL0     H62650   8.196   6.568   7.163  1.4264  0.4045 -0.8192
  475MOL0     H62651   8.182   6.550   7.473 -1.4677 -0.2721  1.3136
  475MOL0     H62652   8.131   6.432   7.344  1.7687 -0.5506 -1.4256
  475MOL0     H62653   7.992   6.730   7.527 -1.6975 -0.8468  1.2140
  475MOL0     H62654   7.633   6.792   7.399  0.8985 -0.9586 -0.3131
  475MOL0     H62655   7.750   6.856   7.502 -0.3473  0.2315 -1.8745
  475MOL0     H62656   7.687   6.613   7.644 -1.9058 -1.2132  1.4559
  475MOL0     H62657   7.546   6.634   7.545  0.4349 -0.7157  0.1790
  475MOL0     H62658   7.646   6.850   7.748 -0.9337 -1.2428  1.2406
  475MOL0     H62659   7.513   6.867   7.646  0.2205  2.7192  2.0655
  475MOL0     H62660   7.525   6.731   7.896  3.3945 -3.8944 -1.1899
  475MOL0     H62661   7.468   6.615   7.771  5.1751 -0.7402  1.3141
  475MOL0     H62662   7.149   6.919   7.796 -0.5799 -1.2891 -1.3255
  475MOL0     H62663   6.967   6.912   7.978 -0.5814 -0.5705 -1.9678
  475MOL0     H62664   6.568   6.752   8.068 -0.7078  1.5147  0.3225
  475MOL0     H62665   6.381   6.755   8.235  1.3971 -2.2480  0.8356
  475MOL0     H62666   6.209   6.787   8.402  1.2889 -0.1373  0.6399
  475MOL0     H62667   6.288   6.949   8.371  0.9038 -1.1838 -0.3533
  475MOL0     H62668   6.275   6.984   8.627 -0.6995  0.2128  0.8072
  475MOL0     H62669   6.170   6.842   8.628 -0.0410  0.3346  1.3863
  475MOL0     H62670   6.011   6.954   8.453 -3.1349  0.6587  2.1214
  475MOL0     H62671   6.101   7.102   8.480 -0.4669  1.1729 -0.4940
  475MOL0     H62672   5.989   6.917   8.708  3.1674 -1.1105  0.3184
  475MOL0     H62673   6.042   7.079   8.721 -2.2856  1.1366  0.2720
  475MOL0     H62674   5.778   7.074   8.705 -1.2689  3.0393 -1.3679
  475MOL0     H62675   5.805   7.013   8.549 -4.8090 -2.7795  3.6130
  475MOL0     H62676   5.923   7.223   8.481  2.8454 -2.7702  3.0323
  475MOL0     H62677   5.919   7.272   8.652  0.5573  0.7820 -0.5024
  475MOL0     H62678   5.659   7.258   8.636 -1.4993 -2.0483 -1.3082
  475MOL0     H62679   5.721   7.394   8.550  0.8406  0.8505  0.5749
  475MOL0     H62680   5.538   7.244   8.425  0.7793  2.9880  1.1958
  475MOL0     H62681   5.639   7.107   8.440  0.1218 -0.2423 -0.1306
  475MOL0     H62682   6.651   6.876   8.546 -1.7721  0.0360  0.4773
  475MOL0     H62683   6.841   6.842   8.398 -0.9743 -1.5790  2.8181
  475MOL0     H62684   7.149   6.558   8.127  0.9872 -1.5249 -1.4158
  475MOL0     H62685   7.312   6.562   7.960 -2.1463 -2.8301  1.5340
  475MOL0     H62686   9.139   6.750   6.866  1.2243 -2.3635 -2.1699
  475MOL0     H62687   9.336   6.827   6.777 -0.9432  2.7808  1.5005
  475MOL0     H62688   9.766   6.990   6.916 -4.2912 -2.4645 -2.3510
  475MOL0     H62689   9.992   7.039   6.926 -3.5425 -0.2397  2.2838
  475MOL0     H62690  10.354   6.887   6.931  0.7351  1.8623 -0.8124
  475MOL0     H62691  10.202   6.909   6.998  0.2956 -3.2155 -0.3369
  475MOL0     H62692  10.187   7.127   6.849  1.5778 -0.0006 -4.1604
  475MOL0     H62693  10.320   7.136   6.982  2.9546  0.7707 -2.0593
  475MOL0     H62694  10.371   7.223   6.748  0.0449  0.6206 -0.1069
  475MOL0     H62695  10.410   7.059   6.712 -3.0598  1.6322 -1.4547
  475MOL0     H62696  10.524   7.216   6.946  1.5769  0.6112 -0.6816
  475MOL0     H62697  10.564   7.042   6.910  0.9278  1.1973  3.7472
  475MOL0     H62698  10.793   7.205   6.593  0.9759 -0.7042  0.7132
  475MOL0     H62699  10.058   6.722   6.630 -1.0391 -1.1529 -1.0960
  475MOL0     H62700   9.828   6.690   6.617 -1.6277  0.7302  0.4326
  476MOL0     O62701   7.237   0.591   2.103  0.1887 -0.8124 -0.1771
  476MOL0     C62702   7.190   0.497   2.181  0.4785  0.5081  0.0079
  476MOL0     O62703   7.253   0.389   2.228  0.9404 -0.2788 -0.0975
  476MOL0     C62704   7.385   0.374   2.180  0.1552  0.5366 -0.1819
  476MOL0     C62705   7.425   0.376   2.046  0.5738  0.3401 -0.7653
  476MOL0     C62706   7.562   0.376   2.010  0.4010 -1.5193 -0.3202
  476MOL0     C62707   7.651   0.326   2.109 -0.5706  0.6146  0.7412
  476MOL0     O62708   7.790   0.319   2.084 -0.1364  0.1197 -0.1909
  476MOL0     C62709   7.835   0.387   1.971 -0.3440 -0.3199  0.6599
  476MOL0     C62710   7.987   0.421   1.962 -0.7777  0.2251 -0.6927
  476MOL0     C62711   8.035   0.533   2.065  1.0006 -0.4577 -0.2119
  476MOL0     C62712   8.182   0.546   2.078  0.5747 -0.2790  0.4139
  476MOL0     C62713   8.245   0.582   1.951  0.2286  0.4438  0.6198
  476MOL0     C62714   8.400   0.598   1.969  0.6910  0.0922 -0.5134
  476MOL0     C62715   8.453   0.691   2.072 -0.3249 -0.3540 -0.1503
  476MOL0     C62716   8.387   0.831   2.075  0.9128  0.2054  0.1912
  476MOL0     N62717   8.408   0.919   1.953  0.4787 -0.5837 -0.1699
  476MOL0     C62718   8.532   0.993   1.943 -0.1038  0.4320  0.0237
  476MOL0     C62719   8.535   1.026   1.807  0.5830 -0.1493  0.3084
  476MOL0     C62720   8.641   1.095   1.719  0.8526 -0.0663 -0.5565
  476MOL0     C62721   8.613   1.246   1.725  0.3531 -1.6436 -1.0693
  476MOL0     C62722   8.708   1.324   1.637  0.1427 -0.4312 -0.6442
  476MOL0     C62723   8.846   1.337   1.694  0.5632 -0.9631 -0.0152
  476MOL0     O62724   8.854   1.367   1.832  0.3997  0.1873 -0.1213
  476MOL0     C62725   8.978   1.388   1.886  0.1987 -0.3938  0.0139
  476MOL0     C62726   8.997   1.374   2.027  1.0861  0.7049  0.4372
  476MOL0     C62727   9.112   1.401   2.096 -1.3036  0.0753  0.6260
  476MOL0     C62728   9.217   1.453   2.024 -0.6958 -0.3694  0.5029
  476MOL0     C62729   9.342   1.511   2.090  0.3482  1.1452  0.4572
  476MOL0     O62730   9.364   1.480   2.225  0.2731  0.5094  0.2282
  476MOL0     C62731   9.435   1.555   2.315  0.4707  0.2349  0.6874
  476MOL0     C62732   9.480   1.495   2.434 -0.2498 -0.0728 -0.0251
  476MOL0     C62733   9.537   1.567   2.537 -0.6409 -0.2427 -0.6436
  476MOL0     C62734   9.555   1.709   2.536  1.3419  0.2330  0.9716
  476MOL0     O62735   9.610   1.792   2.634  0.4208  0.1558 -0.3523
  476MOL0     C62736   9.672   1.722   2.749  0.2386  0.0959  0.5202
  476MOL0     C62737   9.757   1.827   2.820 -0.3106 -1.2992 -0.8219
  476MOL0     C62738   9.823   1.776   2.946  0.9957 -0.2882 -0.1796
  476MOL0     C62739   9.932   1.876   3.009 -0.4569  0.6457  0.0706
  476MOL0     C62740   9.884   2.018   3.011 -1.2103 -0.0549  0.4519
  476MOL0     C62741   9.936   2.121   3.116 -0.0556 -0.2957  0.7082
  476MOL0     C62742  10.089   2.108   3.130 -0.1008 -0.4985 -0.8006
  476MOL0     C62743  10.163   2.224   3.190 -0.1531  0.0880 -0.5138
  476MOL0    Cl62744  10.321   2.162   3.225  0.2808 -0.1843 -0.1820
  476MOL0     C62745   9.519   1.765   2.414  0.8663 -1.2837 -0.4882
  476MOL0     C62746   9.458   1.692   2.302 -0.8761 -0.5064 -0.4179
  476MOL0     O62747   9.415   1.585   2.031  1.1267  0.5696 -0.9411
  476MOL0     C62748   9.212   1.458   1.882  0.3489 -0.0379  0.0862
  476MOL0     C62749   9.090   1.433   1.816 -0.6087 -0.6224  0.7565
  476MOL0     N62750   8.417   0.983   1.752  0.0440  0.2523  0.1330
  476MOL0     N62751   8.343   0.911   1.836 -0.8056 -1.4779 -0.0535
  476MOL0     C62752   7.614   0.299   2.240  0.1302  0.6426  1.1807
  476MOL0     C62753   7.486   0.328   2.274 -0.2147  0.5351 -0.8376
  476MOL0     C62754   7.044   0.494   2.221 -0.5466  0.1648 -0.2805
  476MOL0     C62755   6.943   0.567   2.165 -0.0539  0.9113  0.4963
  476MOL0     C62756   6.814   0.556   2.213  0.5382  0.0729  0.4571
  476MOL0     C62757   6.773   0.478   2.325  0.1707  0.1658  0.3285
  476MOL0     O62758   6.653   0.484   2.396 -0.3517  0.9231 -0.3305
  476MOL0     C62759   6.549   0.559   2.346  0.1025  0.7085  0.2904
  476MOL0     C62760   6.448   0.590   2.448  0.5355 -0.0437 -0.2282
  476MOL0     C62761   6.332   0.677   2.369  0.2132  0.5668  0.0617
  476MOL0     C62762   6.203   0.695   2.452 -0.2863 -0.8857  0.3271
  476MOL0     C62763   6.108   0.799   2.398 -0.0149  0.0505  0.8364
  476MOL0     C62764   6.026   0.883   2.369  0.0657  0.9521 -0.9766
  476MOL0     C62765   6.877   0.409   2.388 -0.2462  0.1632 -0.2580
  476MOL0     C62766   7.007   0.418   2.334 -0.0414 -0.0042 -0.4290
  476MOL0     H62767   7.344   0.405   1.980 -0.4533 -1.5344 -0.4127
  476MOL0     H62768   7.597   0.400   1.910  1.7193  0.3750  0.5178
  476MOL0     H62769   7.786   0.479   1.936 -0.3423 -0.1357  1.1320
  476MOL0     H62770   7.813   0.316   1.891 -5.2582 -1.4411  2.6683
  476MOL0     H62771   8.006   0.454   1.859 -0.5163  1.8561 -0.1580
  476MOL0     H62772   8.033   0.323   1.978  0.8574  1.2395  1.3059
  476MOL0     H62773   7.995   0.520   2.166 -0.3289 -1.5703 -0.8532
  476MOL0     H62774   7.990   0.628   2.035  3.2524  1.1479  1.1963
  476MOL0     H62775   8.217   0.604   2.164 -0.1147 -2.9646  2.6604
  476MOL0     H62776   8.232   0.453   2.105  2.9968  1.0496  0.7752
  476MOL0     H62777   8.210   0.674   1.903  1.3573  0.6639  0.1711
  476MOL0     H62778   8.222   0.498   1.885  2.6572 -1.6631  2.2833
  476MOL0     H62779   8.452   0.619   1.874  0.3341 -0.8647 -0.9327
  476MOL0     H62780   8.439   0.500   1.996 -0.2206 -0.0214  0.4275
  476MOL0     H62781   8.453   0.663   2.177 -2.0072  1.4704  0.4003
  476MOL0     H62782   8.558   0.694   2.039 -0.3158 -2.1324 -0.3711
  476MOL0     H62783   8.434   0.874   2.164  1.9142 -3.0137  1.3491
  476MOL0     H62784   8.280   0.813   2.092  0.4542  1.2950 -1.2367
  476MOL0     H62785   8.590   1.032   2.027  0.2579 -1.5959  0.7800
  476MOL0     H62786   8.632   1.065   1.614  2.0847 -0.0449 -0.6795
  476MOL0     H62787   8.740   1.066   1.755 -0.5912 -2.4139  1.9107
  476MOL0     H62788   8.623   1.273   1.831 -1.1248  0.0964 -1.3265
  476MOL0     H62789   8.511   1.275   1.697  0.8212  3.0194  1.0299
  476MOL0     H62790   8.711   1.271   1.541 -2.1875  0.1902 -1.1280
  476MOL0     H62791   8.670   1.425   1.613 -0.8701 -0.3656  1.0540
  476MOL0     H62792   8.897   1.417   1.640 -0.0855  0.8898  1.9948
  476MOL0     H62793   8.906   1.247   1.678  3.6891  1.0655 -0.5153
  476MOL0     H62794   8.906   1.342   2.077  1.1527 -1.1592 -0.5327
  476MOL0     H62795   9.116   1.387   2.204 -2.6367 -4.1778  0.3058
  476MOL0     H62796   9.470   1.387   2.421  1.5289  0.0343 -3.5231
  476MOL0     H62797   9.586   1.512   2.616 -1.4259 -1.9395 -1.2861
  476MOL0     H62798   9.742   1.643   2.722  1.2565  1.0113  0.4450
  476MOL0     H62799   9.590   1.682   2.811 -2.8422  1.3336 -2.4173
  476MOL0     H62800   9.687   1.906   2.847 -1.7066 -3.2952  1.8636
  476MOL0     H62801   9.829   1.865   2.747 -1.0524  0.0537 -0.8927
  476MOL0     H62802   9.867   1.681   2.915 -2.4601 -1.0048 -3.7430
  476MOL0     H62803   9.737   1.767   3.013  1.1340 -1.1887 -0.1095
  476MOL0     H62804   9.947   1.849   3.114  1.9102  4.2302  0.8458
  476MOL0     H62805  10.017   1.859   2.943 -1.9862 -0.0395 -1.8222
  476MOL0     H62806   9.778   2.013   3.038 -1.0273  2.8101  2.0195
  476MOL0     H62807   9.897   2.056   2.909 -1.6766  2.4050  1.2558
  476MOL0     H62808   9.895   2.101   3.215  2.7715  0.2889  2.0993
  476MOL0     H62809   9.908   2.221   3.084  0.3196 -1.0183 -2.2379
  476MOL0     H62810  10.105   2.029   3.204  0.4917 -0.1073 -0.5001
  476MOL0     H62811  10.137   2.070   3.040 -0.8047 -1.0791 -0.9387
  476MOL0     H62812  10.115   2.264   3.280 -1.9887  0.2696 -1.5040
  476MOL0     H62813  10.168   2.288   3.101  0.3168  0.2156 -0.3957
  476MOL0     H62814   9.523   1.873   2.405 -3.4711 -0.6767  2.1583
  476MOL0     H62815   9.435   1.746   2.211  2.2605  1.6125 -0.1219
  476MOL0     H62816   9.295   1.510   1.836 -0.5102 -0.3211 -1.9048
  476MOL0     H62817   9.092   1.461   1.711  2.0467  2.1561  1.4365
  476MOL0     H62818   7.690   0.258   2.306  2.4138  0.2026 -1.4972
  476MOL0     H62819   7.460   0.305   2.377 -0.5941  1.0817 -0.8060
  476MOL0     H62820   6.978   0.614   2.073  0.3802 -0.6866 -0.1962
  476MOL0     H62821   6.734   0.610   2.164 -1.6027 -2.3176  1.0665
  476MOL0     H62822   6.496   0.498   2.272  1.2581 -1.3870  1.0959
  476MOL0     H62823   6.580   0.656   2.305 -0.7646  0.9389  0.1704
  476MOL0     H62824   6.399   0.500   2.486  0.6244  0.2729  0.6804
  476MOL0     H62825   6.481   0.662   2.524  0.0784  0.4624 -0.4976
  476MOL0     H62826   6.299   0.632   2.275  0.4040  4.0620 -1.8473
  476MOL0     H62827   6.366   0.777   2.341 -2.0445  1.5813  0.6807
  476MOL0     H62828   6.147   0.606   2.482 -0.9780  0.8420  5.0180
  476MOL0     H62829   6.225   0.749   2.545  1.4889  1.8602 -1.5394
  476MOL0     H62830   5.953   0.960   2.357 -1.8688 -0.7547 -0.6035
  476MOL0     H62831   6.845   0.357   2.477 -2.7811 -0.2262 -1.3319
  476MOL0     H62832   7.084   0.358   2.382  0.1782  0.4548 -0.1985
  477MOL0     O62833   1.306   7.296   6.285  0.4149 -0.1019 -0.5957
  477MOL0     C62834   1.258   7.389   6.339  0.8458 -0.2342  1.1867
  477MOL0     O62835   1.285   7.435   6.466  0.1361  0.6631 -0.2327
  477MOL0     C62836   1.386   7.393   6.539  0.1295 -0.3448 -0.0920
  477MOL0     C62837   1.516   7.395   6.488  0.5062  0.6656 -0.6860
  477MOL0     C62838   1.621   7.342   6.571 -0.2129 -0.9636 -0.2290
  477MOL0     C62839   1.589   7.295   6.696  0.0839  0.2245 -0.4601
  477MOL0     O62840   1.679   7.257   6.786  0.5219  0.0209  0.0772
  477MOL0     C62841   1.712   7.123   6.770  0.1054 -1.1193 -0.3768
  477MOL0     C62842   1.803   7.105   6.888 -0.0042 -0.4308  0.4774
  477MOL0     C62843   1.848   6.956   6.911 -0.1376 -0.2442 -0.1553
  477MOL0     C62844   1.962   6.928   7.007 -1.1664  0.1346  0.9199
  477MOL0     C62845   2.012   6.787   6.994  0.4261  0.0560  0.2186
  477MOL0     C62846   2.132   6.749   7.072 -0.8723 -0.4764  0.3998
  477MOL0     C62847   2.115   6.755   7.214  0.3642 -0.1102  0.5313
  477MOL0     C62848   1.989   6.674   7.280  0.6808 -0.5301 -0.2535
  477MOL0     N62849   1.994   6.532   7.279  0.5047  1.2348 -0.3410
  477MOL0     C62850   2.058   6.450   7.368 -0.1406  0.2369  0.1558
  477MOL0     C62851   2.040   6.327   7.324 -0.7428  0.0395 -0.3010
  477MOL0     C62852   2.064   6.193   7.381 -0.7142 -0.2901 -0.4883
  477MOL0     C62853   2.203   6.128   7.358 -0.3414  0.0793  0.3069
  477MOL0     C62854   2.300   6.170   7.472  1.1540  0.2677  0.1058
  477MOL0     C62855   2.436   6.103   7.448 -0.9819 -0.6318 -1.0598
  477MOL0     O62856   2.534   6.179   7.529  0.3081 -0.0897 -0.0580
  477MOL0     C62857   2.659   6.124   7.542 -0.6006  0.3960 -0.2594
  477MOL0     C62858   2.692   6.048   7.648  0.2861 -0.6727  0.2376
  477MOL0     C62859   2.826   6.012   7.679 -0.6704  0.8210  0.4625
  477MOL0     C62860   2.922   6.048   7.578  0.5145 -0.0413  0.0502
  477MOL0     C62861   3.070   6.014   7.598  0.1097 -0.1476  0.6153
  477MOL0     O62862   3.150   6.066   7.509  0.5218 -0.7283  0.4318
  477MOL0     C62863   3.282   6.048   7.510  0.0727  0.3499 -0.2305
  477MOL0     C62864   3.349   5.926   7.520 -0.7979 -0.2216 -0.3177
  477MOL0     C62865   3.486   5.906   7.529  0.6832  0.8819  0.7613
  477MOL0     C62866   3.558   6.023   7.527 -0.0947 -0.1100  0.2141
  477MOL0     O62867   3.695   6.045   7.556  0.3376  0.2955 -0.3271
  477MOL0     C62868   3.777   5.930   7.526  0.6160 -1.7881  0.4519
  477MOL0     C62869   3.923   5.972   7.560  0.4500 -0.0232  0.6363
  477MOL0     C62870   4.026   5.862   7.552  0.4936 -1.0235 -0.4485
  477MOL0     C62871   4.045   5.808   7.414 -0.4736  0.9598 -1.2225
  477MOL0     C62872   4.131   5.685   7.407 -0.5764  0.4480  0.4536
  477MOL0     C62873   4.262   5.686   7.476  0.0808  0.5939  0.3741
  477MOL0     C62874   4.334   5.556   7.480  1.0068  0.6414 -0.2680
  477MOL0     C62875   4.342   5.490   7.340  0.3312 -0.2878 -0.1252
  477MOL0    Cl62876   4.454   5.339   7.353 -0.0711  0.7078  0.3307
  477MOL0     C62877   3.493   6.151   7.517 -0.2257 -0.2393  0.3239
  477MOL0     C62878   3.356   6.163   7.511 -0.8063  0.3215 -0.0171
  477MOL0     O62879   3.104   5.945   7.692  0.7873  0.2162  0.4136
  477MOL0     C62880   2.875   6.110   7.459 -0.0725  0.3076  0.0079
  477MOL0     C62881   2.749   6.155   7.445  0.7046  0.4317  0.5400
  477MOL0     N62882   1.971   6.337   7.201  0.3599  0.7966 -0.0254
  477MOL0     N62883   1.947   6.458   7.177 -0.3285 -0.1207 -0.4463
  477MOL0     C62884   1.457   7.312   6.743 -0.8383  0.1184  0.0693
  477MOL0     C62885   1.352   7.357   6.663  0.8952 -1.0156 -0.4683
  477MOL0     C62886   1.146   7.471   6.276 -0.3414  0.3080  0.7441
  477MOL0     C62887   1.059   7.554   6.353 -0.4285 -0.9512  0.6502
  477MOL0     C62888   0.968   7.639   6.284  0.3189 -0.3892 -1.0396
  477MOL0     C62889   0.938   7.615   6.144  0.0472  0.9431 -0.2901
  477MOL0     O62890   0.831   7.685   6.100 -0.2546 -0.5853  0.3364
  477MOL0     C62891   0.865   7.824   6.074 -0.0822  0.9162  0.8578
  477MOL0     C62892   0.860   7.861   5.927 -0.2799  0.1651 -0.5979
  477MOL0     C62893   0.953   7.776   5.828 -0.2326 -0.0684 -0.2061
  477MOL0     C62894   0.948   7.810   5.684  0.5704  0.0225 -1.3804
  477MOL0     C62895   1.068   7.749   5.621  0.0640 -0.1924 -0.6114
  477MOL0     C62896   1.172   7.721   5.565 -0.0951 -0.1070  1.0306
  477MOL0     C62897   1.033   7.535   6.076 -0.0834 -0.2701  0.9230
  477MOL0     C62898   1.133   7.466   6.142  0.0347  0.7705  0.5507
  477MOL0     H62899   1.521   7.428   6.384 -1.0021 -0.5559 -1.1777
  477MOL0     H62900   1.724   7.331   6.535  0.5559  0.9160  1.2487
  477MOL0     H62901   1.769   7.096   6.680  1.2600  0.8687 -0.3217
  477MOL0     H62902   1.619   7.067   6.765  1.3884 -3.5961  1.5689
  477MOL0     H62903   1.759   7.138   6.983  0.3342 -0.4987  0.6597
  477MOL0     H62904   1.896   7.159   6.868 -2.1230  2.8375 -1.5130
  477MOL0     H62905   1.886   6.927   6.813  0.9662  0.3680  0.0754
  477MOL0     H62906   1.765   6.888   6.931 -0.5897  0.1423 -0.6690
  477MOL0     H62907   2.033   7.011   6.993 -3.7899  2.6172  1.2340
  477MOL0     H62908   1.918   6.948   7.105 -2.3720  0.9947  0.2292
  477MOL0     H62909   2.037   6.779   6.888  1.5993 -1.2443  0.5643
  477MOL0     H62910   1.932   6.715   7.014  1.2616 -1.4345 -1.5164
  477MOL0     H62911   2.207   6.820   7.035 -2.6865  1.5621  0.3915
  477MOL0     H62912   2.153   6.646   7.043  1.9903 -0.0351  0.6373
  477MOL0     H62913   2.211   6.731   7.261 -0.2138 -0.3119  1.6553
  477MOL0     H62914   2.103   6.861   7.239  0.9350  0.5994 -1.9751
  477MOL0     H62915   1.905   6.713   7.221 -2.2663 -0.7410  3.4292
  477MOL0     H62916   1.965   6.702   7.383  1.1112  0.2360 -0.3552
  477MOL0     H62917   2.095   6.483   7.465 -0.6786 -1.2059  0.8894
  477MOL0     H62918   1.996   6.129   7.323 -0.8196  0.9685 -1.8112
  477MOL0     H62919   2.041   6.195   7.488 -0.1865  3.9756 -0.2992
  477MOL0     H62920   2.244   6.158   7.261  0.4520  0.1167  0.6513
  477MOL0     H62921   2.184   6.021   7.351 -0.0357 -0.1388  2.2728
  477MOL0     H62922   2.310   6.279   7.472  0.2890  0.4266 -2.5948
  477MOL0     H62923   2.263   6.136   7.569 -0.0429  2.7118  0.5656
  477MOL0     H62924   2.468   6.105   7.343 -0.0993 -1.9310 -0.8324
  477MOL0     H62925   2.435   5.998   7.477  0.4315 -0.6100 -0.8785
  477MOL0     H62926   2.606   6.022   7.710 -1.2723  2.1311 -0.5964
  477MOL0     H62927   2.839   5.938   7.757  1.3339  0.6921  0.0665
  477MOL0     H62928   3.290   5.835   7.529 -0.0838 -0.7181 -0.5343
  477MOL0     H62929   3.535   5.810   7.534  1.4259  1.2967  1.7364
  477MOL0     H62930   3.768   5.895   7.423  0.0551 -1.2016  0.3003
  477MOL0     H62931   3.754   5.852   7.600  0.0750 -0.3299  1.8892
  477MOL0     H62932   3.921   6.001   7.665  2.0041 -0.1875  0.7245
  477MOL0     H62933   3.960   6.054   7.497 -0.5023  0.0480  0.1373
  477MOL0     H62934   3.992   5.778   7.613  1.8588 -2.2501 -1.3126
  477MOL0     H62935   4.120   5.914   7.573  0.3412 -1.3592  1.1982
  477MOL0     H62936   3.947   5.792   7.367  0.6074 -3.7887 -2.2850
  477MOL0     H62937   4.093   5.885   7.354  1.3414  0.3930 -0.5630
  477MOL0     H62938   4.154   5.658   7.303  3.4216 -0.8235  1.4970
  477MOL0     H62939   4.066   5.603   7.437  1.5387 -2.1477 -1.5098
  477MOL0     H62940   4.249   5.735   7.573 -0.0133 -2.1954  1.8842
  477MOL0     H62941   4.326   5.748   7.412 -1.2102 -0.4946 -2.0858
  477MOL0     H62942   4.436   5.574   7.516  0.1687  4.0378  0.7288
  477MOL0     H62943   4.274   5.489   7.542  1.2343  1.1150  0.4747
  477MOL0     H62944   4.380   5.551   7.258  0.5667  0.6131  0.6391
  477MOL0     H62945   4.248   5.455   7.297  1.1840 -2.4610 -0.3301
  477MOL0     H62946   3.558   6.237   7.527 -1.1619  0.5026  0.1014
  477MOL0     H62947   3.312   6.261   7.492  0.5807  0.9254 -0.2322
  477MOL0     H62948   2.944   6.142   7.382 -0.2146  2.0733  0.5559
  477MOL0     H62949   2.714   6.209   7.358 -1.5280 -0.6898  0.6741
  477MOL0     H62950   1.435   7.289   6.847  2.8361  1.0846  1.2120
  477MOL0     H62951   1.251   7.367   6.702  1.7876  2.4159  1.4240
  477MOL0     H62952   1.077   7.572   6.458  1.6989  0.1761  0.1612
  477MOL0     H62953   0.908   7.709   6.341  1.6256  0.8477 -1.1227
  477MOL0     H62954   0.966   7.839   6.111 -0.1691  1.2056  0.9826
  477MOL0     H62955   0.791   7.885   6.127 -0.6097  0.5488  0.5527
  477MOL0     H62956   0.756   7.865   5.893 -0.2718  1.4846 -0.5536
  477MOL0     H62957   0.910   7.959   5.922  0.9207 -0.4775 -1.8815
  477MOL0     H62958   0.917   7.673   5.834 -0.5401 -0.0164 -0.9235
  477MOL0     H62959   1.054   7.782   5.868 -0.3691 -2.7962  0.7355
  477MOL0     H62960   0.853   7.773   5.645 -0.9702  1.2804  0.9355
  477MOL0     H62961   0.934   7.915   5.656 -1.4841  0.3206  0.5310
  477MOL0     H62962   1.259   7.695   5.509 -0.9717 -0.8283 -0.0451
  477MOL0     H62963   1.009   7.508   5.974 -1.0455 -1.0598  1.3413
  477MOL0     H62964   1.202   7.418   6.073 -1.2799  0.7522 -0.7994
  478MOL0     O62965   1.978   7.790  11.003 -0.1712 -0.0436  0.1611
  478MOL0     C62966   1.972   7.761  11.119 -0.1777  0.5847  0.0914
  478MOL0     O62967   1.863   7.798  11.202 -0.0700  0.3645  0.9224
  478MOL0     C62968   1.751   7.861  11.147  1.4525 -0.0201  1.1322
  478MOL0     C62969   1.667   7.942  11.227 -0.6939  0.3800  0.0874
  478MOL0     C62970   1.540   7.999  11.182 -0.9314 -0.5307 -0.5619
  478MOL0     C62971   1.500   7.989  11.047 -0.7320 -0.2726  0.6511
  478MOL0     O62972   1.395   8.074  11.012 -0.0007 -0.3410 -0.1783
  478MOL0     C62973   1.277   8.001  10.967 -0.2845 -0.4363  0.4262
  478MOL0     C62974   1.180   8.076  10.875  0.3730  0.5659 -0.6802
  478MOL0     C62975   1.039   8.006  10.870 -1.0675  0.7600  0.1965
  478MOL0     C62976   0.924   8.104  10.891 -0.1332  0.4191  0.0993
  478MOL0     C62977   0.794   8.041  10.864  0.5358 -0.2826  0.6299
  478MOL0     C62978   0.735   7.949  10.978  0.0803 -0.6929 -0.5538
  478MOL0     C62979   0.632   7.855  10.918  0.2289  0.8610 -0.0392
  478MOL0     C62980   0.575   7.779  11.040  0.1359  0.7472  0.8362
  478MOL0     N62981   0.666   7.680  11.105 -0.8636 -1.1502  0.5563
  478MOL0     C62982   0.628   7.605  11.219 -0.6428  1.0497  0.0096
  478MOL0     C62983   0.730   7.514  11.235 -0.2266  0.0747 -0.0925
  478MOL0     C62984   0.743   7.414  11.346  0.2768  0.8325  0.9138
  478MOL0     C62985   0.783   7.476  11.480 -0.4213  1.0957  0.1654
  478MOL0     C62986   0.679   7.577  11.542  0.0370 -0.2230 -0.2869
  478MOL0     C62987   0.542   7.517  11.591  0.4315  0.1420  1.2633
  478MOL0     O62988   0.481   7.460  11.480 -0.6461 -0.2848 -0.0595
  478MOL0     C62989   0.349   7.415  11.486 -0.6016  0.1540  0.6606
  478MOL0     C62990   0.289   7.386  11.605  1.2637  0.0831  0.8240
  478MOL0     C62991   0.151   7.326  11.596  0.0455 -0.2148  0.2946
  478MOL0     C62992   0.088   7.293  11.483  0.1707  1.0244  0.6584
  478MOL0     C62993  -0.051   7.244  11.492 -0.2369  0.0766 -0.0696
  478MOL0     O62994  -0.089   7.183  11.605 -0.9053  0.1655  0.3986
  478MOL0     C62995  -0.211   7.131  11.635  0.9147 -0.1888  0.2169
  478MOL0     C62996  -0.205   7.015  11.709 -0.8256  0.8426 -0.0434
  478MOL0     C62997  -0.317   6.941  11.744  0.1314 -1.1305 -0.1415
  478MOL0     C62998  -0.437   6.980  11.688 -1.0881 -0.1022 -0.7316
  478MOL0     O62999  -0.549   6.904  11.711  0.1077  0.1002  0.4213
  478MOL0     C63000  -0.578   6.829  11.586  1.0078 -0.3087 -0.5148
  478MOL0     C63001  -0.713   6.767  11.591 -0.8056  0.4372  0.2435
  478MOL0     C63002  -0.762   6.714  11.462  0.4502  0.1355 -0.1082
  478MOL0     C63003  -0.910   6.725  11.448 -0.2373 -0.7733  1.4598
  478MOL0     C63004  -0.956   6.675  11.311 -0.5706  0.0383  0.0267
  478MOL0     C63005  -0.931   6.781  11.202 -0.6657 -0.7545 -0.8091
  478MOL0     C63006  -1.017   6.746  11.085  0.7374  0.4301  0.1752
  478MOL0     C63007  -1.000   6.846  10.961  0.0108  0.1410 -0.2284
  478MOL0    Cl63008  -1.065   6.761  10.819  0.3880 -0.1696 -0.6786
  478MOL0     C63009  -0.448   7.095  11.625 -0.4331  0.1134  0.6952
  478MOL0     C63010  -0.331   7.177  11.603  0.5091  0.3070  0.4996
  478MOL0     O63011  -0.117   7.244  11.393 -0.4633 -0.1526  0.5377
  478MOL0     C63012   0.157   7.318  11.363  0.1491  0.4026  0.0159
  478MOL0     C63013   0.285   7.381  11.366  0.3615  0.5763 -0.4360
  478MOL0     N63014   0.825   7.534  11.137 -0.0052  0.4270 -0.7972
  478MOL0     N63015   0.783   7.622  11.047  0.2073  0.2457  0.7016
  478MOL0     C63016   1.580   7.903  10.967  0.5625  0.7176  0.0285
  478MOL0     C63017   1.689   7.839  11.013 -0.0781 -0.5091 -1.0004
  478MOL0     C63018   2.095   7.705  11.190 -0.6904  0.0107 -0.1423
  478MOL0     C63019   2.193   7.636  11.115  0.3192 -0.0299  0.6433
  478MOL0     C63020   2.306   7.589  11.180 -0.7286 -0.2171 -0.5432
  478MOL0     C63021   2.327   7.614  11.315  0.3887  0.0726  0.3311
  478MOL0     O63022   2.455   7.586  11.364  0.2882  0.6976  0.2978
  478MOL0     C63023   2.464   7.448  11.418 -0.6663 -0.3977 -0.3155
  478MOL0     C63024   2.525   7.461  11.558  0.3582 -0.9689 -0.3968
  478MOL0     C63025   2.487   7.345  11.645  0.2192  0.0336 -0.0583
  478MOL0     C63026   2.495   7.202  11.578  1.1545 -1.2634 -0.9327
  478MOL0     C63027   2.430   7.103  11.659  0.0956 -0.3817 -0.4437
  478MOL0     C63028   2.373   7.016  11.716  0.9728  1.0597 -0.3290
  478MOL0     C63029   2.226   7.674  11.390  0.7787  0.6514  0.4684
  478MOL0     C63030   2.111   7.723  11.330 -0.0861  0.2603 -0.3232
  478MOL0     H63031   1.705   7.958  11.328  1.5956  2.2261 -0.9709
  478MOL0     H63032   1.483   8.069  11.243 -2.5296 -0.9433 -1.5068
  478MOL0     H63033   1.223   7.966  11.055  0.9746 -1.9892  0.6198
  478MOL0     H63034   1.316   7.910  10.921  0.1028 -0.1316  0.1441
  478MOL0     H63035   1.220   8.074  10.773  0.0706 -0.2361 -0.7954
  478MOL0     H63036   1.173   8.181  10.905  1.4689 -0.1205  2.3353
  478MOL0     H63037   1.039   7.924  10.942  0.1004  0.3908 -0.2097
  478MOL0     H63038   1.024   7.968  10.769 -0.2014 -0.2824  0.4454
  478MOL0     H63039   0.922   8.151  10.990 -1.8489 -0.5186  0.5517
  478MOL0     H63040   0.938   8.192  10.826  0.9025  0.5159  0.4364
  478MOL0     H63041   0.807   7.983  10.772  0.0710  2.0776 -0.9969
  478MOL0     H63042   0.723   8.123  10.850  0.2259 -0.6177  0.2148
  478MOL0     H63043   0.684   8.008  11.056 -1.2463 -3.3286  0.7190
  478MOL0     H63044   0.810   7.886  11.026  2.0699  1.1553 -1.0775
  478MOL0     H63045   0.548   7.908  10.873 -0.3007 -1.6839 -2.2648
  478MOL0     H63046   0.673   7.792  10.838 -1.0243  1.0170 -0.8285
  478MOL0     H63047   0.481   7.729  11.012 -0.1015  1.0978  1.0008
  478MOL0     H63048   0.547   7.858  11.110 -0.0185  2.3831 -0.9769
  478MOL0     H63049   0.532   7.622  11.266 -2.2114  0.9316 -2.9488
  478MOL0     H63050   0.819   7.340  11.320  1.3921  1.5098  2.1859
  478MOL0     H63051   0.650   7.358  11.364  1.1344 -0.5563  1.1537
  478MOL0     H63052   0.875   7.532  11.462 -1.6524  2.6077 -1.8319
  478MOL0     H63053   0.806   7.389  11.542 -0.9792  1.1852  0.4969
  478MOL0     H63054   0.736   7.619  11.626  2.6223 -1.4570 -1.3034
  478MOL0     H63055   0.654   7.660  11.477 -3.7014  0.9185  2.3037
  478MOL0     H63056   0.474   7.597  11.622 -1.1459 -0.3805 -0.6893
  478MOL0     H63057   0.551   7.449  11.676 -1.6525 -0.0072  1.4270
  478MOL0     H63058   0.340   7.398  11.700 -0.7637  1.5304  1.8077
  478MOL0     H63059   0.088   7.320  11.685 -3.0666 -0.1379 -1.7619
  478MOL0     H63060  -0.110   6.982  11.752  1.2621  1.2507 -3.9158
  478MOL0     H63061  -0.315   6.850  11.803  0.8109 -0.6628  0.5751
  478MOL0     H63062  -0.502   6.751  11.570  1.1801  0.1922 -2.3510
  478MOL0     H63063  -0.584   6.888  11.494 -1.2347 -0.4746 -0.5161
  478MOL0     H63064  -0.785   6.832  11.641  1.4615  2.8932  0.5339
  478MOL0     H63065  -0.684   6.680  11.651  2.4648  1.3061  0.1044
  478MOL0     H63066  -0.733   6.608  11.460  0.0612  0.0210  0.0586
  478MOL0     H63067  -0.717   6.771  11.380 -3.7619  2.9838 -0.7400
  478MOL0     H63068  -0.970   6.671  11.522 -2.3771  2.7934  2.5441
  478MOL0     H63069  -0.927   6.833  11.452  1.1561 -0.4189 -0.6275
  478MOL0     H63070  -1.060   6.643  11.321 -0.2395 -1.0057  0.2782
  478MOL0     H63071  -0.898   6.589  11.276  0.5982  0.7596  0.1607
  478MOL0     H63072  -0.826   6.779  11.173 -0.3143  3.6800 -0.3980
  478MOL0     H63073  -0.954   6.884  11.231  1.1403  0.2991 -2.8107
  478MOL0     H63074  -0.977   6.653  11.041 -1.4019  0.3522 -1.7919
  478MOL0     H63075  -1.121   6.726  11.110  0.8793 -0.3305  0.1904
  478MOL0     H63076  -0.893   6.864  10.964  0.0584 -0.1716 -0.0266
  478MOL0     H63077  -1.049   6.944  10.972  0.0595  0.2660 -1.0846
  478MOL0     H63078  -0.543   7.122  11.582 -0.7550 -2.4144 -0.3475
  478MOL0     H63079  -0.350   7.271  11.552 -2.7369 -0.0617  0.8553
  478MOL0     H63080   0.124   7.301  11.261  0.2280  2.1278 -0.3293
  478MOL0     H63081   0.330   7.394  11.267 -1.2943 -0.1475 -1.3248
  478MOL0     H63082   1.553   7.888  10.863 -0.4261  0.8560  0.2551
  478MOL0     H63083   1.738   7.772  10.943 -0.8228  0.7174 -2.7670
  478MOL0     H63084   2.176   7.618  11.009  0.0975  0.2311  0.6335
  478MOL0     H63085   2.398   7.562  11.128  0.1147 -2.8109  2.0551
  478MOL0     H63086   2.538   7.384  11.369 -0.4154 -1.0252  0.8469
  478MOL0     H63087   2.363   7.406  11.420 -0.5667 -0.7815 -2.2164
  478MOL0     H63088   2.633   7.474  11.542  0.2388  0.7163 -0.0047
  478MOL0     H63089   2.491   7.554  11.606  2.2270 -0.6503  0.3931
  478MOL0     H63090   2.386   7.363  11.682 -0.1423 -1.5836 -0.1996
  478MOL0     H63091   2.560   7.354  11.727 -0.2918 -0.9292  0.5289
  478MOL0     H63092   2.447   7.200  11.479  3.0982  1.0048 -2.0137
  478MOL0     H63093   2.600   7.173  11.570  1.2733 -1.0650 -0.1097
  478MOL0     H63094   2.335   6.932  11.770  2.4554 -1.1983 -2.5585
  478MOL0     H63095   2.250   7.691  11.495 -0.0948  0.6571  0.6753
  478MOL0     H63096   2.037   7.771  11.394 -3.8376 -3.5378 -1.3463
  479MOL0     O63097   8.904   7.522   7.091 -0.8072  0.0964  0.8001
  479MOL0     C63098   8.995   7.572   7.150 -0.5087  0.1309  0.1857
  479MOL0     O63099   8.992   7.643   7.270 -0.1366  0.2877 -0.4284
  479MOL0     C63100   8.881   7.615   7.348  0.4733 -0.0430  0.6868
  479MOL0     C63101   8.886   7.502   7.426  0.7098 -0.2962 -0.5837
  479MOL0     C63102   8.771   7.487   7.500  0.4592  0.2993  0.2635
  479MOL0     C63103   8.666   7.579   7.502 -0.4897  0.5498 -0.3224
  479MOL0     O63104   8.551   7.548   7.573  0.6411 -0.0082 -0.6673
  479MOL0     C63105   8.502   7.650   7.666 -0.4052 -0.7931  0.2102
  479MOL0     C63106   8.506   7.601   7.807  0.4909 -0.3789 -0.0101
  479MOL0     C63107   8.437   7.702   7.905 -0.1106 -0.3181 -0.2771
  479MOL0     C63108   8.284   7.663   7.932 -0.2986  0.1234  0.0131
  479MOL0     C63109   8.233   7.750   8.053 -0.5123  0.4455 -0.7860
  479MOL0     C63110   8.089   7.731   8.079 -0.4134 -0.1228 -0.3975
  479MOL0     C63111   8.008   7.832   8.164  0.2826 -0.3627  0.1756
  479MOL0     C63112   8.065   7.847   8.299 -0.6473  0.1527  0.6189
  479MOL0     N63113   7.952   7.886   8.382  1.5797  0.2320  0.2050
  479MOL0     C63114   7.856   7.976   8.352 -0.8496  0.6010  0.6763
  479MOL0     C63115   7.760   7.946   8.441 -0.0654 -0.4024 -0.5297
  479MOL0     C63116   7.623   8.009   8.442 -0.6030 -0.3739 -0.3807
  479MOL0     C63117   7.614   8.154   8.489 -0.6714 -0.5294  1.0988
  479MOL0     C63118   7.473   8.209   8.512  0.3351  0.0456  0.0885
  479MOL0     C63119   7.389   8.210   8.388 -0.3961  0.1344  0.5802
  479MOL0     O63120   7.262   8.256   8.418  0.3627 -0.2797  0.0809
  479MOL0     C63121   7.216   8.386   8.411 -1.3374 -0.3288 -0.1932
  479MOL0     C63122   7.083   8.416   8.412 -1.1393  0.7116  0.5906
  479MOL0     C63123   7.038   8.548   8.409 -1.1867 -0.7368 -0.6262
  479MOL0     C63124   7.135   8.659   8.403  0.8771  0.4739  0.9333
  479MOL0     C63125   7.088   8.795   8.386  0.0004  0.5688  0.1399
  479MOL0     O63126   6.955   8.812   8.353  0.6230  0.1060  0.1383
  479MOL0     C63127   6.881   8.925   8.347 -0.1192  0.7125 -0.2024
  479MOL0     C63128   6.745   8.893   8.317  0.7717 -1.2565  0.1414
  479MOL0     C63129   6.648   9.001   8.311 -0.6208  0.2052 -0.6366
  479MOL0     C63130   6.689   9.134   8.324 -1.4654  0.5929 -0.1394
  479MOL0     O63131   6.599   9.227   8.295 -0.6674 -0.4897 -0.1259
  479MOL0     C63132   6.627   9.362   8.325 -0.5582  0.7131  0.3218
  479MOL0     C63133   6.498   9.454   8.321 -0.0623 -0.2569 -0.2808
  479MOL0     C63134   6.459   9.510   8.185  0.5252 -0.1897 -0.1419
  479MOL0     C63135   6.448   9.397   8.082  0.5813 -0.0129  0.4579
  479MOL0     C63136   6.344   9.429   7.967 -0.4722 -0.1586  1.3664
  479MOL0     C63137   6.390   9.535   7.871 -0.4824 -0.1919 -0.2459
  479MOL0     C63138   6.307   9.562   7.748  0.6871 -0.4772 -0.4792
  479MOL0     C63139   6.295   9.714   7.730 -0.1233 -0.0750  0.4402
  479MOL0    Cl63140   6.216   9.736   7.572 -0.2651 -0.0621  0.3841
  479MOL0     C63141   6.826   9.164   8.362 -1.0449 -0.5092 -0.4514
  479MOL0     C63142   6.912   9.055   8.388 -0.4848  0.9848  0.2850
  479MOL0     O63143   7.167   8.889   8.392  0.3694 -0.5353  0.0057
  479MOL0     C63144   7.266   8.631   8.402  0.8705 -0.4694  0.7332
  479MOL0     C63145   7.310   8.497   8.410  0.4020 -0.5899 -0.2712
  479MOL0     N63146   7.808   7.853   8.531  0.0485  0.2047 -0.2923
  479MOL0     N63147   7.924   7.812   8.492  0.3579  0.3891 -0.7956
  479MOL0     C63148   8.674   7.694   7.418 -0.1173  0.0974 -0.3637
  479MOL0     C63149   8.777   7.712   7.340 -0.1707 -0.1493  0.6059
  479MOL0     C63150   9.123   7.580   7.072  0.6001  0.4096  0.8182
  479MOL0     C63151   9.223   7.664   7.102 -0.5788 -0.0449  0.2846
  479MOL0     C63152   9.342   7.670   7.036 -0.1039 -0.4979  0.4467
  479MOL0     C63153   9.360   7.595   6.918  0.4612  0.2209  0.5720
  479MOL0     O63154   9.479   7.589   6.847 -0.7501 -0.7328  0.1491
  479MOL0     C63155   9.521   7.720   6.818  0.1433  0.5389  0.2179
  479MOL0     C63156   9.635   7.705   6.710  0.3971 -0.5048 -0.1435
  479MOL0     C63157   9.665   7.843   6.646  0.4974 -0.1645 -0.1204
  479MOL0     C63158   9.776   7.822   6.544 -0.1218 -1.2008 -0.5484
  479MOL0     C63159   9.765   7.709   6.446 -0.6119 -0.6124  0.3551
  479MOL0     C63160   9.775   7.615   6.380  0.3488 -0.3790  0.1724
  479MOL0     C63161   9.253   7.522   6.878  0.2236  0.3962  0.7543
  479MOL0     C63162   9.135   7.517   6.949  0.3659  1.1086  0.2712
  479MOL0     H63163   8.966   7.429   7.424  0.6467 -0.3733 -0.2839
  479MOL0     H63164   8.760   7.400   7.563  1.4389  0.9923  1.4504
  479MOL0     H63165   8.398   7.670   7.636  0.3555  0.4716 -1.8128
  479MOL0     H63166   8.558   7.744   7.661 -2.1387  0.3153  0.4458
  479MOL0     H63167   8.611   7.588   7.834  0.8254  0.6755 -0.7285
  479MOL0     H63168   8.462   7.501   7.807 -0.2696 -0.1316 -2.6004
  479MOL0     H63169   8.458   7.809   7.894 -1.6097  0.2315  1.7165
  479MOL0     H63170   8.482   7.683   8.003 -0.7369 -3.6768 -0.5332
  479MOL0     H63171   8.235   7.679   7.835  0.7275 -0.9154 -0.7127
  479MOL0     H63172   8.281   7.560   7.968  0.2372  0.3141  0.6157
  479MOL0     H63173   8.244   7.857   8.031  0.8108  0.2432 -1.1927
  479MOL0     H63174   8.307   7.741   8.132 -0.0084 -1.3217 -1.4255
  479MOL0     H63175   8.072   7.627   8.107  0.6114 -0.7284 -1.9413
  479MOL0     H63176   8.035   7.737   7.983  0.0368 -0.5263 -0.6758
  479MOL0     H63177   8.008   7.932   8.120 -1.4043  0.3038  1.5565
  479MOL0     H63178   7.905   7.796   8.168 -0.2826  0.9987 -1.2141
  479MOL0     H63179   8.141   7.924   8.288 -0.5774 -0.3107 -3.3978
  479MOL0     H63180   8.116   7.752   8.320 -0.4943 -0.2564 -1.3964
  479MOL0     H63181   7.867   8.033   8.260  3.5884 -1.3867 -0.3019
  479MOL0     H63182   7.566   7.957   8.520 -1.3100 -0.1208 -0.7155
  479MOL0     H63183   7.561   7.990   8.354 -3.0183  0.8081  0.9646
  479MOL0     H63184   7.666   8.224   8.423 -0.4899 -0.0888  1.6950
  479MOL0     H63185   7.675   8.158   8.579 -1.3618 -3.6603  1.8109
  479MOL0     H63186   7.427   8.154   8.594  0.0348  0.0924 -0.0490
  479MOL0     H63187   7.470   8.313   8.547 -3.9632  0.6985 -1.6216
  479MOL0     H63188   7.387   8.107   8.351 -4.0216  0.6110 -1.0031
  479MOL0     H63189   7.449   8.274   8.321  2.3617 -0.5150  2.2644
  479MOL0     H63190   7.010   8.336   8.417  0.8696 -1.3164 -0.5810
  479MOL0     H63191   6.930   8.562   8.414 -0.9789  0.6417  1.0665
  479MOL0     H63192   6.699   8.798   8.291 -4.0245  1.1770 -1.3900
  479MOL0     H63193   6.545   8.978   8.286 -1.2391  3.5733 -1.7664
  479MOL0     H63194   6.708   9.390   8.256  0.9321 -0.3742  1.5848
  479MOL0     H63195   6.658   9.378   8.428  0.7791  1.8354 -0.2214
  479MOL0     H63196   6.514   9.529   8.399 -2.2698  0.4396 -0.4486
  479MOL0     H63197   6.417   9.395   8.365 -0.9506  1.0529 -0.1114
  479MOL0     H63198   6.525   9.592   8.156 -0.5584  1.6682  2.3478
  479MOL0     H63199   6.363   9.561   8.196  2.1085  2.5321  2.7070
  479MOL0     H63200   6.540   9.362   8.034  0.1693  2.2441 -2.2521
  479MOL0     H63201   6.416   9.304   8.129  0.4922  0.9267  2.3799
  479MOL0     H63202   6.247   9.470   7.998 -0.1357  4.2805 -2.3291
  479MOL0     H63203   6.322   9.337   7.914  0.3334  0.1178  0.5339
  479MOL0     H63204   6.494   9.521   7.840 -0.7119  2.1533 -2.4561
  479MOL0     H63205   6.401   9.628   7.928  1.9363  1.4935 -3.1396
  479MOL0     H63206   6.362   9.530   7.659  0.3090  2.1243 -1.7249
  479MOL0     H63207   6.206   9.518   7.751  0.7500 -0.8591 -2.3421
  479MOL0     H63208   6.388   9.771   7.736 -0.0883 -0.1751  0.8587
  479MOL0     H63209   6.236   9.768   7.804  0.7996  1.5824  0.0116
  479MOL0     H63210   6.877   9.258   8.379  2.3871 -2.1848 -0.5295
  479MOL0     H63211   7.013   9.080   8.419 -0.2411  0.1896  0.1585
  479MOL0     H63212   7.346   8.704   8.389  0.1118  0.1551 -0.7457
  479MOL0     H63213   7.418   8.480   8.409  1.0826  2.8721 -2.4271
  479MOL0     H63214   8.593   7.766   7.428  0.2099  0.3173  0.9452
  479MOL0     H63215   8.797   7.806   7.291  0.4585 -0.7248 -0.2797
  479MOL0     H63216   9.226   7.717   7.197  2.2613  0.2446  0.1180
  479MOL0     H63217   9.423   7.734   7.071 -0.2427  0.4824 -0.9046
  479MOL0     H63218   9.562   7.776   6.902  2.8572 -2.7068  1.3006
  479MOL0     H63219   9.439   7.778   6.775 -0.5181  0.7501  1.7187
  479MOL0     H63220   9.718   7.650   6.755  0.9569 -0.8736 -1.5712
  479MOL0     H63221   9.606   7.626   6.640  1.7506  0.5588 -1.9873
  479MOL0     H63222   9.696   7.925   6.711 -0.4530  0.7859 -0.8277
  479MOL0     H63223   9.577   7.879   6.592 -0.6962 -0.7142  1.3943
  479MOL0     H63224   9.784   7.923   6.503 -1.3849  0.1169  2.1867
  479MOL0     H63225   9.873   7.808   6.593  0.9531  2.0123 -1.4512
  479MOL0     H63226   9.771   7.530   6.314 -1.9552  0.4964 -0.9450
  479MOL0     H63227   9.264   7.458   6.791  1.1636 -1.0257  1.8616
  479MOL0     H63228   9.050   7.460   6.912  2.2910 -1.6823 -0.1916
  480MOL0     O63229   1.810   4.307   4.562 -0.2815  0.5420  0.3116
  480MOL0     C63230   1.821   4.181   4.552 -0.0252  0.9319 -1.1590
  480MOL0     O63231   1.721   4.091   4.526 -0.1291 -0.3092  0.4168
  480MOL0     C63232   1.587   4.124   4.525  0.0907 -0.3103 -0.3555
  480MOL0     C63233   1.496   4.028   4.568 -0.5743 -0.9370 -0.4520
  480MOL0     C63234   1.358   4.058   4.572  0.5226 -0.1209  0.0481
  480MOL0     C63235   1.316   4.182   4.526 -0.1094  1.2327 -0.0168
  480MOL0     O63236   1.178   4.187   4.511  0.2183 -0.5125  0.1375
  480MOL0     C63237   1.113   4.306   4.475 -0.3889 -0.9451  0.2595
  480MOL0     C63238   1.077   4.298   4.319 -0.7938 -0.7905  0.3555
  480MOL0     C63239   1.004   4.169   4.280 -0.1507 -0.1717 -0.1599
  480MOL0     C63240   0.890   4.148   4.387  0.3647 -0.0804 -0.1622
  480MOL0     C63241   0.794   4.041   4.315 -0.5256  0.4892 -0.9757
  480MOL0     C63242   0.667   4.006   4.403 -0.0290  0.2653 -1.8910
  480MOL0     C63243   0.537   3.988   4.320 -0.5595 -0.8420 -0.3334
  480MOL0     C63244   0.412   3.966   4.411  0.2128 -0.0219  0.6321
  480MOL0     N63245   0.383   4.087   4.486 -0.1021 -0.5461 -0.3748
  480MOL0     C63246   0.353   4.211   4.435  0.0332 -0.5926 -0.2489
  480MOL0     C63247   0.319   4.288   4.538  0.4084 -0.3265 -0.7273
  480MOL0     C63248   0.281   4.432   4.542  0.0520 -0.1158  0.3844
  480MOL0     C63249   0.158   4.473   4.630  0.8451 -0.3404 -0.0947
  480MOL0     C63250   0.173   4.604   4.708 -0.2675 -0.5106 -0.7123
  480MOL0     C63251   0.066   4.660   4.791  0.0115 -0.3724  0.2721
  480MOL0     O63252  -0.050   4.675   4.717  0.3152  0.4180 -0.1668
  480MOL0     C63253  -0.165   4.698   4.794 -0.0900 -0.4046  0.0829
  480MOL0     C63254  -0.163   4.782   4.911  0.1063  1.0033 -0.3022
  480MOL0     C63255  -0.281   4.822   4.984  0.2884 -0.2436 -0.4266
  480MOL0     C63256  -0.400   4.760   4.937 -0.2914 -0.0672 -0.3208
  480MOL0     C63257  -0.520   4.792   5.015 -0.5651 -0.1655  0.4328
  480MOL0     O63258  -0.499   4.816   5.147  0.9074  0.2185  0.2474
  480MOL0     C63259  -0.598   4.835   5.231 -0.7030  0.0358 -0.6000
  480MOL0     C63260  -0.727   4.772   5.228  0.9698  0.3231  0.4706
  480MOL0     C63261  -0.818   4.804   5.329  0.8275 -0.3418  1.1176
  480MOL0     C63262  -0.791   4.905   5.423  0.1064 -0.3818 -0.0903
  480MOL0     O63263  -0.895   4.952   5.502  0.2541 -0.0715  0.2943
  480MOL0     C63264  -0.990   4.845   5.543 -0.4497  0.0326 -0.5704
  480MOL0     C63265  -1.067   4.900   5.665 -0.8669 -0.4041 -0.5552
  480MOL0     C63266  -1.185   4.811   5.702  0.0628 -0.7635  0.2623
  480MOL0     C63267  -1.156   4.679   5.765 -0.4646  0.2415 -0.3703
  480MOL0     C63268  -1.045   4.687   5.884  0.3856  0.2361  0.8407
  480MOL0     C63269  -1.016   4.550   5.937  0.3229  0.7027  0.2922
  480MOL0     C63270  -0.890   4.527   6.025 -0.3944 -0.2714 -0.1071
  480MOL0     C63271  -0.763   4.580   5.968  0.5447 -0.4914 -1.0145
  480MOL0    Cl63272  -0.618   4.534   6.069 -0.4148  0.0438 -0.8579
  480MOL0     C63273  -0.666   4.960   5.425 -0.6511  0.2590 -0.0373
  480MOL0     C63274  -0.563   4.925   5.331 -0.3976 -0.5655 -0.0383
  480MOL0     O63275  -0.628   4.785   4.958  0.2018  0.2318 -0.2485
  480MOL0     C63276  -0.400   4.681   4.815  0.1946 -0.7009 -0.2994
  480MOL0     C63277  -0.284   4.649   4.747 -0.8032 -0.2720 -0.5946
  480MOL0     N63278   0.329   4.221   4.660  0.0508  0.7243  0.9193
  480MOL0     N63279   0.366   4.103   4.624  0.6661  0.0018  0.6541
  480MOL0     C63280   1.403   4.272   4.474 -0.2393 -0.3260  0.4495
  480MOL0     C63281   1.538   4.244   4.478  0.1266 -0.0432  0.2844
  480MOL0     C63282   1.959   4.123   4.549 -0.5239 -0.1279 -0.0306
  480MOL0     C63283   1.973   3.977   4.535 -0.3785  0.2003 -0.8619
  480MOL0     C63284   2.104   3.922   4.534  0.8665 -0.3513  0.9807
  480MOL0     C63285   2.221   4.004   4.540  0.5283  0.6939 -0.8736
  480MOL0     O63286   2.348   3.947   4.547  0.2071 -0.2934  0.8319
  480MOL0     C63287   2.362   3.803   4.577 -0.1471 -0.4161 -0.0038
  480MOL0     C63288   2.514   3.787   4.570 -0.0564 -0.0605 -0.7851
  480MOL0     C63289   2.588   3.828   4.701  0.2007 -0.6187 -0.6598
  480MOL0     C63290   2.743   3.846   4.685  0.2467 -0.4043  0.6496
  480MOL0     C63291   2.807   3.712   4.670 -0.2659 -0.4317 -0.2419
  480MOL0     C63292   2.850   3.600   4.657 -0.4070 -0.0078 -0.4176
  480MOL0     C63293   2.201   4.145   4.549 -0.7816  0.3609 -0.7157
  480MOL0     C63294   2.070   4.201   4.563 -0.6911  0.0511  1.0315
  480MOL0     H63295   1.538   3.935   4.604  0.7724  0.6507  2.5243
  480MOL0     H63296   1.296   3.983   4.620  0.6126 -1.6509 -2.0928
  480MOL0     H63297   1.178   4.392   4.495 -0.5669 -0.1488 -2.2179
  480MOL0     H63298   1.021   4.304   4.534 -2.3666 -3.0293 -2.6084
  480MOL0     H63299   1.169   4.307   4.261 -1.7962 -1.9522 -1.5096
  480MOL0     H63300   1.010   4.380   4.290  0.9273  0.4691 -0.1906
  480MOL0     H63301   1.061   4.075   4.282 -3.2826 -2.2171  0.3472
  480MOL0     H63302   0.974   4.185   4.177  1.2644  1.5935 -0.3576
  480MOL0     H63303   0.931   4.115   4.482 -0.1747 -2.6949 -0.7447
  480MOL0     H63304   0.826   4.236   4.395 -0.7268 -0.7067 -1.4500
  480MOL0     H63305   0.843   3.943   4.304 -2.2916 -0.3766 -1.5630
  480MOL0     H63306   0.757   4.075   4.218  0.3307  2.2408 -0.7201
  480MOL0     H63307   0.659   4.083   4.480 -0.6176 -2.0678  0.5432
  480MOL0     H63308   0.692   3.909   4.447  0.2399 -1.3095 -5.1847
  480MOL0     H63309   0.518   4.067   4.246 -1.9479 -0.3376  0.5121
  480MOL0     H63310   0.560   3.902   4.256 -2.5066 -0.0546 -2.2340
  480MOL0     H63311   0.432   3.883   4.479 -0.2915  0.4866  1.4129
  480MOL0     H63312   0.326   3.946   4.346  2.2861  0.2884 -2.4256
  480MOL0     H63313   0.356   4.234   4.329  0.1422 -0.7681 -0.2842
  480MOL0     H63314   0.270   4.473   4.441  0.8883 -0.0814  0.2996
  480MOL0     H63315   0.362   4.481   4.598 -0.5850  1.7457 -0.2204
  480MOL0     H63316   0.158   4.394   4.705  0.6843 -0.6314 -0.3978
  480MOL0     H63317   0.061   4.481   4.580 -1.0830 -1.0272  3.2188
  480MOL0     H63318   0.252   4.586   4.781 -2.0950  2.7005  2.3332
  480MOL0     H63319   0.210   4.676   4.635 -1.1836  0.2431 -0.4619
  480MOL0     H63320   0.108   4.754   4.827  2.7533 -1.5073  0.2979
  480MOL0     H63321   0.040   4.582   4.864 -1.2304 -1.7536 -1.5559
  480MOL0     H63322  -0.063   4.817   4.936  1.2339 -1.7353 -0.6588
  480MOL0     H63323  -0.287   4.897   5.062 -2.1046 -0.3155 -0.4771
  480MOL0     H63324  -0.739   4.690   5.157  1.1563  1.1336 -0.5350
  480MOL0     H63325  -0.920   4.771   5.315  0.9463  0.0739 -1.0916
  480MOL0     H63326  -0.945   4.752   5.579  1.4820 -0.2019 -3.3122
  480MOL0     H63327  -1.057   4.820   5.460  2.0100 -0.6913 -2.4502
  480MOL0     H63328  -1.090   5.002   5.633  0.2121 -0.0246 -0.1812
  480MOL0     H63329  -1.004   4.920   5.752  0.7602 -3.3397 -0.9154
  480MOL0     H63330  -1.248   4.796   5.614 -0.6388  0.4109  0.5456
  480MOL0     H63331  -1.256   4.865   5.766  0.7866  0.7984 -0.2241
  480MOL0     H63332  -1.249   4.626   5.788  1.0849 -1.8182  1.6265
  480MOL0     H63333  -1.103   4.612   5.697 -1.9605 -0.7672 -0.6191
  480MOL0     H63334  -1.076   4.753   5.966  1.7069  3.2362 -0.8726
  480MOL0     H63335  -0.953   4.727   5.841  1.2477 -1.3003  1.1831
  480MOL0     H63336  -0.992   4.488   5.851  1.4147  1.2971  0.1484
  480MOL0     H63337  -1.108   4.518   5.987 -1.6688  0.9361 -2.9868
  480MOL0     H63338  -0.896   4.569   6.126 -0.4059  1.2940 -0.7455
  480MOL0     H63339  -0.875   4.420   6.044  0.5021 -0.4866 -1.8743
  480MOL0     H63340  -0.772   4.688   5.953  1.4686 -0.6770 -3.2211
  480MOL0     H63341  -0.744   4.534   5.871 -2.0706 -0.4608 -1.6182
  480MOL0     H63342  -0.643   5.034   5.501 -0.4851  3.7460 -3.1655
  480MOL0     H63343  -0.464   4.969   5.332 -0.9604  0.7698  0.8373
  480MOL0     H63344  -0.489   4.650   4.761  1.3122 -1.8361 -1.5794
  480MOL0     H63345  -0.284   4.578   4.665  1.9185  1.7486 -2.5426
  480MOL0     H63346   1.364   4.363   4.429  2.3703  1.0732  0.8505
  480MOL0     H63347   1.615   4.314   4.448 -0.2599  0.8009  1.2180
  480MOL0     H63348   1.890   3.907   4.532 -1.4908  1.2929  1.7131
  480MOL0     H63349   2.104   3.815   4.522  0.1343 -0.2644  0.1182
  480MOL0     H63350   2.314   3.737   4.504 -1.4669 -1.3084  1.6113
  480MOL0     H63351   2.321   3.784   4.676 -0.6087 -1.4867 -0.3803
  480MOL0     H63352   2.536   3.680   4.558  0.9312  0.2414 -1.8516
  480MOL0     H63353   2.543   3.838   4.478 -1.8318 -0.9789 -1.8955
  480MOL0     H63354   2.569   3.750   4.775  2.2577 -1.1910 -0.6722
  480MOL0     H63355   2.551   3.922   4.742  0.4677 -0.9700  0.4162
  480MOL0     H63356   2.754   3.916   4.603  2.8154  1.3892  2.3663
  480MOL0     H63357   2.789   3.888   4.775 -0.5961 -0.3382  1.0659
  480MOL0     H63358   2.894   3.503   4.663 -2.1811 -0.8542 -0.5301
  480MOL0     H63359   2.290   4.199   4.580 -0.9259 -1.0816  2.7074
  480MOL0     H63360   2.066   4.308   4.581  1.7519  0.1401  1.4328
  481MOL0     O63361   6.452   4.589   3.754 -0.5718 -0.0591 -0.2804
  481MOL0     C63362   6.424   4.710   3.772 -0.1138 -0.3645  0.5348
  481MOL0     O63363   6.515   4.812   3.766  0.1174 -0.5329 -0.1362
  481MOL0     C63364   6.651   4.794   3.756  0.1669  0.2307 -0.5494
  481MOL0     C63365   6.718   4.841   3.651 -0.0074 -0.2783 -0.1055
  481MOL0     C63366   6.863   4.832   3.655 -0.9411  0.0296 -0.0052
  481MOL0     C63367   6.936   4.798   3.768  0.2079 -0.7259 -0.6965
  481MOL0     O63368   7.072   4.814   3.759  0.4317 -0.2377 -0.1791
  481MOL0     C63369   7.144   4.787   3.875 -1.5044  0.0952 -0.2215
  481MOL0     C63370   7.300   4.791   3.859  0.6177 -0.1073  1.0979
  481MOL0     C63371   7.353   4.738   3.730  0.3909 -0.1288  0.2705
  481MOL0     C63372   7.512   4.744   3.733  0.1843  0.7302 -0.1081
  481MOL0     C63373   7.593   4.746   3.602  0.2879 -0.3066  0.7867
  481MOL0     C63374   7.741   4.726   3.641  0.3064  0.3438 -0.5181
  481MOL0     C63375   7.827   4.745   3.512  1.2936 -0.5136 -0.9947
  481MOL0     C63376   7.964   4.689   3.527 -0.5702 -0.2690  0.6845
  481MOL0     N63377   8.051   4.778   3.620  0.3716  0.2815  0.5505
  481MOL0     C63378   8.119   4.886   3.577 -0.0035  0.6883  0.0386
  481MOL0     C63379   8.202   4.915   3.679  0.3331 -1.3611  0.5854
  481MOL0     C63380   8.296   5.031   3.673  0.3253 -0.7029 -0.7528
  481MOL0     C63381   8.441   4.994   3.715 -0.3386 -1.0060  1.3689
  481MOL0     C63382   8.528   5.048   3.596  0.3945 -0.0517 -0.6595
  481MOL0     C63383   8.678   5.048   3.623  0.1181 -0.1059  0.6818
  481MOL0     O63384   8.726   4.907   3.630 -0.2078 -0.8776  0.3023
  481MOL0     C63385   8.860   4.882   3.602 -0.1112 -0.7209 -0.5364
  481MOL0     C63386   8.890   4.751   3.626  0.9514 -0.3849 -0.4387
  481MOL0     C63387   9.019   4.699   3.634 -0.4349 -0.5877  0.2762
  481MOL0     C63388   9.131   4.792   3.604 -0.1952  0.2217  0.2151
  481MOL0     C63389   9.262   4.735   3.590  0.3379  0.1953 -0.2178
  481MOL0     O63390   9.359   4.817   3.542  0.6234  0.0687  0.5387
  481MOL0     C63391   9.481   4.763   3.545  0.0898  0.3457 -0.7089
  481MOL0     C63392   9.586   4.800   3.639 -0.4001 -0.3469  0.2341
  481MOL0     C63393   9.702   4.729   3.649 -0.8864  0.1196  0.2582
  481MOL0     C63394   9.727   4.627   3.556 -0.0054 -0.9320 -0.0850
  481MOL0     O63395   9.848   4.566   3.568 -0.3237 -0.3123  0.3566
  481MOL0     C63396   9.912   4.569   3.442 -0.5015 -0.0907 -0.9937
  481MOL0     C63397  10.061   4.546   3.468 -0.4750  0.0203  0.0066
  481MOL0     C63398  10.150   4.631   3.376 -0.4155 -0.2406 -0.3382
  481MOL0     C63399  10.291   4.570   3.391 -0.4664 -0.7465  0.6218
  481MOL0     C63400  10.398   4.641   3.304 -0.2378 -0.5628  0.8078
  481MOL0     C63401  10.555   4.585   3.303 -0.2546  0.0539  1.1579
  481MOL0     C63402  10.597   4.568   3.456 -0.7327 -0.0099 -0.1772
  481MOL0     C63403  10.734   4.494   3.467 -0.1735  0.4394 -0.4709
  481MOL0    Cl63404  10.798   4.479   3.642  0.3905 -0.0188  0.1077
  481MOL0     C63405   9.635   4.592   3.460  0.2636  1.1224  0.5705
  481MOL0     C63406   9.510   4.658   3.457  0.5442  0.1464  0.5488
  481MOL0     O63407   9.276   4.623   3.631  0.1260  0.7486 -0.0993
  481MOL0     C63408   9.104   4.921   3.569 -0.3484 -0.3453  0.3593
  481MOL0     C63409   8.970   4.967   3.569 -0.2436 -0.7493 -0.0598
  481MOL0     N63410   8.189   4.826   3.778 -0.0819 -0.3251 -0.2063
  481MOL0     N63411   8.096   4.739   3.744  0.0230 -0.6656 -0.2400
  481MOL0     C63412   6.864   4.763   3.886 -0.2718 -0.9565  0.5668
  481MOL0     C63413   6.719   4.766   3.877  0.1355  0.2652 -0.2129
  481MOL0     C63414   6.291   4.754   3.796  0.3637  0.9057 -1.2350
  481MOL0     C63415   6.270   4.804   3.928  0.1654  0.0847 -0.7683
  481MOL0     C63416   6.137   4.839   3.956  0.4755 -0.2656  0.4284
  481MOL0     C63417   6.033   4.812   3.866 -0.4830  0.3701 -0.9367
  481MOL0     O63418   5.900   4.830   3.900 -0.3613 -0.4284  0.3244
  481MOL0     C63419   5.865   4.876   4.030 -0.4775  0.2868 -0.4364
  481MOL0     C63420   5.714   4.905   4.044 -0.4137 -0.0562 -1.3104
  481MOL0     C63421   5.675   5.036   3.985  0.5102 -0.3439  0.2843
  481MOL0     C63422   5.547   5.101   4.045  0.1274  0.5847 -0.5649
  481MOL0     C63423   5.431   5.013   4.032  0.2915 -0.0921 -0.4360
  481MOL0     C63424   5.330   4.948   4.035  0.0289 -1.3865  0.4355
  481MOL0     C63425   6.058   4.753   3.744  0.8619  0.4468 -0.5927
  481MOL0     C63426   6.188   4.728   3.712 -0.1401 -0.0991 -0.0716
  481MOL0     H63427   6.666   4.878   3.563  1.5090 -3.1413 -2.3977
  481MOL0     H63428   6.915   4.858   3.563 -3.9540  0.0422 -1.8530
  481MOL0     H63429   7.118   4.694   3.927 -0.6980  1.7724  3.4443
  481MOL0     H63430   7.114   4.868   3.941 -2.1931 -0.9942  0.8461
  481MOL0     H63431   7.348   4.738   3.942 -0.4380 -0.9216  1.2129
  481MOL0     H63432   7.328   4.896   3.870  0.7099 -0.1443  1.2112
  481MOL0     H63433   7.313   4.787   3.641  0.9282 -1.4990 -0.7685
  481MOL0     H63434   7.323   4.634   3.713 -2.9602  0.8577 -0.5733
  481MOL0     H63435   7.534   4.832   3.795  0.4199  0.6454 -0.0727
  481MOL0     H63436   7.539   4.659   3.796  1.9452  1.7946  0.6397
  481MOL0     H63437   7.584   4.838   3.543 -0.6237 -1.3788 -0.8114
  481MOL0     H63438   7.557   4.668   3.535 -1.2816 -0.1921  1.4420
  481MOL0     H63439   7.767   4.627   3.681  1.2111  0.8366  0.1496
  481MOL0     H63440   7.764   4.798   3.720 -1.0532 -2.5574  2.7750
  481MOL0     H63441   7.776   4.697   3.428  1.3852  3.4616 -3.5465
  481MOL0     H63442   7.824   4.852   3.492 -2.1505 -0.2630  0.3110
  481MOL0     H63443   8.014   4.689   3.429  0.3892 -1.0928  1.1539
  481MOL0     H63444   7.962   4.585   3.560  1.5714 -0.7354 -0.4285
  481MOL0     H63445   8.112   4.932   3.478  0.0692 -2.3848 -1.5167
  481MOL0     H63446   8.253   5.112   3.733 -0.8526  2.0853 -4.8895
  481MOL0     H63447   8.290   5.066   3.569 -0.1305  2.3807  0.2184
  481MOL0     H63448   8.460   4.887   3.723  3.4794 -0.7413 -1.3278
  481MOL0     H63449   8.471   5.041   3.809 -1.6489  0.1990  1.2221
  481MOL0     H63450   8.516   4.984   3.509  3.2818 -1.1834 -0.3316
  481MOL0     H63451   8.498   5.149   3.567  0.0107  0.1733  0.4429
  481MOL0     H63452   8.700   5.113   3.708 -2.7636  4.5199 -1.6359
  481MOL0     H63453   8.738   5.099   3.546 -0.2854 -0.5985  0.0315
  481MOL0     H63454   8.806   4.687   3.651  2.5980 -1.5791  2.4889
  481MOL0     H63455   9.032   4.594   3.659  0.8143 -0.7135 -0.7913
  481MOL0     H63456   9.556   4.875   3.712 -1.8769 -0.2046 -0.4806
  481MOL0     H63457   9.794   4.747   3.705 -0.2863  0.6261 -0.8544
  481MOL0     H63458   9.918   4.668   3.396 -3.0814  0.7263  0.2551
  481MOL0     H63459   9.879   4.496   3.368  1.5362  1.9684 -4.1731
  481MOL0     H63460  10.096   4.444   3.450 -0.1920 -0.1677  1.5131
  481MOL0     H63461  10.088   4.555   3.574  0.5597 -2.9870  0.1018
  481MOL0     H63462  10.139   4.736   3.405  0.1398  0.3231 -2.0377
  481MOL0     H63463  10.111   4.617   3.274  0.7112 -1.5204 -0.6194
  481MOL0     H63464  10.330   4.562   3.493  1.4081 -3.3027 -0.1751
  481MOL0     H63465  10.287   4.464   3.363  0.6807 -0.9663  1.2069
  481MOL0     H63466  10.405   4.749   3.317  1.2691 -0.1378 -2.4012
  481MOL0     H63467  10.372   4.643   3.197 -1.8825  1.2699  1.1802
  481MOL0     H63468  10.623   4.654   3.253  1.4867 -1.2637  1.6337
  481MOL0     H63469  10.560   4.493   3.244 -0.7959 -0.1471  1.4063
  481MOL0     H63470  10.602   4.671   3.494  1.7787 -0.8142  1.9981
  481MOL0     H63471  10.527   4.520   3.523  2.9901 -0.8481  3.5098
  481MOL0     H63472  10.809   4.554   3.414 -1.8458  4.6518  1.4502
  481MOL0     H63473  10.720   4.399   3.414 -0.9481  0.1305  0.2602
  481MOL0     H63474   9.645   4.505   3.397 -1.5867  2.5405 -1.8552
  481MOL0     H63475   9.426   4.629   3.395  0.0165  1.1497  0.7684
  481MOL0     H63476   9.177   4.987   3.522 -0.3556 -0.2908  0.4262
  481MOL0     H63477   8.948   5.073   3.556 -0.5000 -1.0381 -2.5492
  481MOL0     H63478   6.907   4.726   3.979  1.3766  0.3014  0.3457
  481MOL0     H63479   6.661   4.743   3.966  1.3386 -0.4791  0.4076
  481MOL0     H63480   6.344   4.810   4.008 -0.7661  1.9000  0.0231
  481MOL0     H63481   6.132   4.893   4.050  0.5233 -1.5917  1.2109
  481MOL0     H63482   5.923   4.967   4.051 -1.8558  1.5323 -1.7932
  481MOL0     H63483   5.894   4.802   4.106 -2.5572 -1.4313 -1.2248
  481MOL0     H63484   5.665   4.811   4.019 -0.1506 -0.0426 -1.8738
  481MOL0     H63485   5.680   4.920   4.147 -1.0787  2.1878 -1.8010
  481MOL0     H63486   5.663   5.026   3.877  2.7919 -1.4778  0.0780
  481MOL0     H63487   5.750   5.116   3.995 -1.0053  1.2501 -0.4471
  481MOL0     H63488   5.570   5.129   4.148 -0.4163 -0.7361 -0.0590
  481MOL0     H63489   5.520   5.191   3.988  1.0725 -0.2255 -2.3846
  481MOL0     H63490   5.242   4.886   4.030  0.6741 -2.2111 -1.8584
  481MOL0     H63491   5.971   4.723   3.687  0.3853  0.5461  0.0639
  481MOL0     H63492   6.186   4.681   3.614 -3.9585  1.2581 -0.8543
  482MOL0     O63493   2.615  10.118   7.223 -0.6417 -0.3334 -0.3001
  482MOL0     C63494   2.698  10.140   7.130 -0.9121  0.3620  0.1197
  482MOL0     O63495   2.660  10.170   7.000 -0.1041  0.2382 -0.1540
  482MOL0     C63496   2.534  10.158   6.962  1.1917 -0.2071  0.0431
  482MOL0     C63497   2.432  10.232   7.025 -1.2413 -0.6569  0.5591
  482MOL0     C63498   2.303  10.225   6.975  0.0727 -0.1753  0.9672
  482MOL0     C63499   2.274  10.142   6.868  0.0522 -0.3106  0.0741
  482MOL0     O63500   2.144  10.137   6.822  0.0425  0.9112  0.2019
  482MOL0     C63501   2.037  10.098   6.918  1.0527  0.7099  0.9605
  482MOL0     C63502   1.903  10.055   6.845  0.1629  0.7755  0.8264
  482MOL0     C63503   1.954   9.932   6.753 -0.2468 -0.8993  0.2348
  482MOL0     C63504   1.841   9.870   6.660  0.0144 -0.5700  0.0796
  482MOL0     C63505   1.718   9.830   6.752  0.6072 -0.1247  0.1587
  482MOL0     C63506   1.762   9.739   6.870 -0.0991 -0.8760 -0.0156
  482MOL0     C63507   1.627   9.691   6.927  0.0608  0.6175  0.6531
  482MOL0     C63508   1.538   9.791   6.982  0.5817  0.2458 -0.7243
  482MOL0     N63509   1.607   9.896   7.061  0.4497 -0.2875  0.1112
  482MOL0     C63510   1.665   9.881   7.180 -0.4427 -0.1953  0.8038
  482MOL0     C63511   1.709   9.996   7.224 -0.6323 -0.2840  1.0349
  482MOL0     C63512   1.766  10.002   7.366 -0.5294  0.3190 -0.2165
  482MOL0     C63513   1.908   9.935   7.376  0.8460 -0.6258 -0.2781
  482MOL0     C63514   2.013   9.994   7.292  0.4447  0.1497  0.4084
  482MOL0     C63515   2.019  10.149   7.286  0.2327 -0.0977 -0.4736
  482MOL0     O63516   2.032  10.202   7.418 -0.1647 -0.1319  0.4111
  482MOL0     C63517   2.147  10.217   7.486 -0.6973 -0.6276  0.0087
  482MOL0     C63518   2.137  10.231   7.623  0.2285 -0.1167 -0.6244
  482MOL0     C63519   2.250  10.261   7.704 -0.5541  0.3770 -0.8312
  482MOL0     C63520   2.376  10.246   7.646  1.0187  0.5803 -0.0867
  482MOL0     C63521   2.494  10.285   7.718 -0.3004 -0.1336  0.2141
  482MOL0     O63522   2.586  10.364   7.648 -0.5739  0.6050 -0.0452
  482MOL0     C63523   2.709  10.405   7.710 -0.1441  0.9417  0.7172
  482MOL0     C63524   2.750  10.536   7.694 -0.1459 -0.2075 -0.8220
  482MOL0     C63525   2.865  10.586   7.749 -0.9022  0.0621  0.1261
  482MOL0     C63526   2.943  10.495   7.829  0.0312 -0.2455 -0.4038
  482MOL0     O63527   3.052  10.556   7.884  0.1775  0.2928 -0.3599
  482MOL0     C63528   3.152  10.485   7.962 -0.1334 -0.0534  0.1741
  482MOL0     C63529   3.244  10.577   8.041 -0.1051 -0.5645 -0.4116
  482MOL0     C63530   3.317  10.674   7.943 -0.2546  0.2239  0.1683
  482MOL0     C63531   3.389  10.787   8.015  0.7945 -0.3494 -0.8841
  482MOL0     C63532   3.438  10.892   7.916 -0.3628  0.4300 -0.3002
  482MOL0     C63533   3.555  10.846   7.832  0.4225  0.7091 -0.5165
  482MOL0     C63534   3.663  10.950   7.838 -0.6407  0.1831 -0.3323
  482MOL0     C63535   3.781  10.904   7.752  0.5422  0.0618  0.5504
  482MOL0    Cl63536   3.860  10.744   7.798  0.2762 -0.2858 -0.0222
  482MOL0     C63537   2.915  10.359   7.831  0.2078  0.3124 -0.4114
  482MOL0     C63538   2.799  10.312   7.780  0.3585 -0.2295 -0.4413
  482MOL0     O63539   2.483  10.272   7.842 -0.2107  0.5616  0.9442
  482MOL0     C63540   2.386  10.227   7.501 -0.2020 -0.1161  0.6192
  482MOL0     C63541   2.278  10.204   7.428 -1.0192  0.0232  0.3142
  482MOL0     N63542   1.689  10.085   7.129  0.3369 -0.8059  0.2388
  482MOL0     N63543   1.621  10.030   7.028 -0.6913 -0.2452  0.4348
  482MOL0     C63544   2.371  10.074   6.800 -0.5536  0.8400 -0.3061
  482MOL0     C63545   2.503  10.084   6.845  0.4126 -0.6963 -0.1598
  482MOL0     C63546   2.848  10.141   7.152 -0.1106  1.6308  0.4745
  482MOL0     C63547   2.941  10.205   7.071  0.1806 -0.0093  0.0289
  482MOL0     C63548   3.080  10.197   7.100 -1.2750  0.0639  0.0963
  482MOL0     C63549   3.127  10.131   7.210 -0.3007  0.1717 -0.1314
  482MOL0     O63550   3.254  10.132   7.255 -0.7883 -0.2673  0.1210
  482MOL0     C63551   3.365  10.155   7.162  0.3151  0.1042  0.2967
  482MOL0     C63552   3.473  10.059   7.207 -0.3770  0.3420  0.2808
  482MOL0     C63553   3.609  10.102   7.139 -0.4496 -0.1745  0.3965
  482MOL0     C63554   3.725  10.007   7.165 -0.4218  0.3543  0.6101
  482MOL0     C63555   3.858  10.058   7.113 -0.4849 -0.6907 -0.3146
  482MOL0     C63556   3.972  10.064   7.062  0.4760  0.2344 -0.7777
  482MOL0     C63557   3.036  10.074   7.293  0.5047  0.8330 -0.0353
  482MOL0     C63558   2.896  10.080   7.271  0.1010  0.2654  1.5991
  482MOL0     H63559   2.457  10.286   7.116  2.4738 -1.2146  0.0490
  482MOL0     H63560   2.217  10.273   7.020 -1.0769  1.3532 -2.4881
  482MOL0     H63561   2.005  10.177   6.986  0.3812 -0.5697  2.1650
  482MOL0     H63562   2.077  10.012   6.973 -1.6613 -0.4166  1.3016
  482MOL0     H63563   1.860  10.141   6.794  0.7399  2.5875  3.2014
  482MOL0     H63564   1.834  10.018   6.921 -0.8147  2.3388  0.7350
  482MOL0     H63565   1.992   9.856   6.823  0.0308 -0.8142  0.1764
  482MOL0     H63566   2.040   9.949   6.689 -0.6422  1.1412  0.1905
  482MOL0     H63567   1.817   9.936   6.576 -0.5215 -0.2782  0.4559
  482MOL0     H63568   1.873   9.775   6.616 -0.9137 -0.6279 -0.4936
  482MOL0     H63569   1.652   9.775   6.684  1.1335 -1.7779  0.9145
  482MOL0     H63570   1.667   9.915   6.797  1.3167 -1.3117  3.4539
  482MOL0     H63571   1.800   9.794   6.957 -0.9548  3.9446 -2.3561
  482MOL0     H63572   1.837   9.665   6.841  0.8119 -1.0675  2.5667
  482MOL0     H63573   1.577   9.617   6.864  0.9889  1.5665 -1.2827
  482MOL0     H63574   1.663   9.630   7.010 -2.5177  0.2292  1.5700
  482MOL0     H63575   1.470   9.739   7.050  1.2967 -0.7570 -0.7513
  482MOL0     H63576   1.470   9.836   6.910 -0.4306 -0.9693 -0.5672
  482MOL0     H63577   1.676   9.788   7.233  2.3852 -0.1370  0.4559
  482MOL0     H63578   1.705   9.939   7.432  1.0966  0.0935  1.1645
  482MOL0     H63579   1.765  10.106   7.398 -0.6850  0.0537  0.6911
  482MOL0     H63580   1.900   9.830   7.348 -0.9990 -0.0720 -2.1827
  482MOL0     H63581   1.948   9.937   7.478  5.1730  2.4515 -1.7430
  482MOL0     H63582   2.115   9.958   7.313 -0.7787 -4.4382 -0.3230
  482MOL0     H63583   1.998   9.948   7.194 -1.6814  1.0808  0.2424
  482MOL0     H63584   1.929  10.192   7.240 -0.6154 -0.8885  0.4025
  482MOL0     H63585   2.099  10.170   7.214  0.2519  0.5175 -0.2790
  482MOL0     H63586   2.039  10.226   7.667  0.6497 -2.2632  0.1758
  482MOL0     H63587   2.241  10.265   7.812  1.8043 -3.3158 -0.3054
  482MOL0     H63588   2.681  10.599   7.640  0.9009  0.2520 -1.6673
  482MOL0     H63589   2.886  10.692   7.741 -0.2561 -0.1007 -0.4159
  482MOL0     H63590   3.222  10.431   7.897 -1.8017 -1.7245 -0.3194
  482MOL0     H63591   3.105  10.423   8.039  1.2131 -0.6508  0.5510
  482MOL0     H63592   3.311  10.513   8.099 -0.2882  0.7222  1.2810
  482MOL0     H63593   3.181  10.637   8.107  1.2184 -0.6510  0.9944
  482MOL0     H63594   3.248  10.722   7.873 -1.9037 -0.3618  1.3519
  482MOL0     H63595   3.390  10.621   7.881  1.0580  1.4444  0.6133
  482MOL0     H63596   3.322  10.831   8.088 -0.3772 -1.2475 -1.3844
  482MOL0     H63597   3.476  10.741   8.064  2.2970  0.6037 -2.5327
  482MOL0     H63598   3.470  10.981   7.971 -1.9818 -0.3034  1.9496
  482MOL0     H63599   3.347  10.920   7.863 -1.6596 -1.3543  0.8874
  482MOL0     H63600   3.520  10.845   7.728  0.7536  1.7065 -0.6423
  482MOL0     H63601   3.591  10.746   7.857 -0.9702 -0.3329 -2.4174
  482MOL0     H63602   3.624  11.043   7.797  0.8802  0.6591 -0.7509
  482MOL0     H63603   3.686  10.964   7.944 -0.7542  1.8090 -0.5001
  482MOL0     H63604   3.853  10.984   7.736 -0.8603  1.2295 -0.1413
  482MOL0     H63605   3.758  10.890   7.646  2.4176 -0.4689  0.1876
  482MOL0     H63606   2.985  10.298   7.886 -1.3648 -0.2336  1.0739
  482MOL0     H63607   2.776  10.207   7.761  4.6029 -1.4729  0.2213
  482MOL0     H63608   2.479  10.226   7.445 -0.6843 -2.9908 -0.2577
  482MOL0     H63609   2.294  10.186   7.323 -2.7654  1.7054 -0.2995
  482MOL0     H63610   2.330  10.014   6.720 -0.1955 -0.9478  0.8133
  482MOL0     H63611   2.586  10.033   6.798 -0.9204 -1.5215 -1.7088
  482MOL0     H63612   2.908  10.271   6.992 -2.3256  0.5814  1.4765
  482MOL0     H63613   3.163  10.234   7.040  2.6415 -5.1266  1.6011
  482MOL0     H63614   3.407  10.252   7.189  1.6294 -0.5455  0.6427
  482MOL0     H63615   3.347  10.141   7.055 -0.0877 -3.8286  0.7233
  482MOL0     H63616   3.485  10.065   7.316 -0.8833 -2.6787  0.6001
  482MOL0     H63617   3.453   9.954   7.186  1.1507  0.0952 -0.0564
  482MOL0     H63618   3.637  10.196   7.188  0.1865 -0.3796  0.4313
  482MOL0     H63619   3.605  10.124   7.032  0.8315  0.4043  0.4525
  482MOL0     H63620   3.734   9.991   7.273 -0.1498 -1.0504  0.4032
  482MOL0     H63621   3.713   9.905   7.127  4.7541 -0.0189 -0.8233
  482MOL0     H63622   4.072  10.057   7.024  0.8860  0.7377  0.1780
  482MOL0     H63623   3.076  10.029   7.384  1.0992  2.1832  0.4007
  482MOL0     H63624   2.839  10.025   7.345 -1.6211 -0.3520 -0.1068
  483MOL0     O63625   5.854   4.237   6.320  0.0991  0.0624 -0.5232
  483MOL0     C63626   5.903   4.128   6.338 -1.1655 -0.9251 -0.3457
  483MOL0     O63627   5.843   4.014   6.309  0.1002  0.1346  0.3170
  483MOL0     C63628   5.709   4.016   6.293  0.8679 -0.5382  1.0426
  483MOL0     C63629   5.656   4.001   6.162  0.6965  0.9998  0.4368
  483MOL0     C63630   5.516   3.992   6.143 -0.7020  0.1633 -0.6360
  483MOL0     C63631   5.425   4.014   6.256 -0.4062 -0.3364  0.3723
  483MOL0     O63632   5.285   4.005   6.256  0.1757 -0.8347  0.5773
  483MOL0     C63633   5.223   3.996   6.132 -0.0560  0.3772  0.9070
  483MOL0     C63634   5.074   3.989   6.147  1.2770 -0.2531 -0.2541
  483MOL0     C63635   5.014   4.105   6.235 -0.0449 -0.0122  0.0259
  483MOL0     C63636   4.861   4.107   6.237 -0.6827 -0.8014  0.1898
  483MOL0     C63637   4.794   4.011   6.326 -0.4366 -0.1554 -1.4050
  483MOL0     C63638   4.642   4.017   6.311 -0.4159 -0.4302 -0.2793
  483MOL0     C63639   4.571   3.911   6.390 -0.0226 -0.0066  0.2176
  483MOL0     C63640   4.450   3.967   6.456 -0.8200  1.0634 -1.0138
  483MOL0     N63641   4.344   4.015   6.364 -0.2238 -0.4384 -0.1387
  483MOL0     C63642   4.281   3.940   6.279 -0.1438  0.7213 -0.1999
  483MOL0     C63643   4.192   4.024   6.216 -1.5034 -0.1358 -0.5722
  483MOL0     C63644   4.096   3.986   6.115 -0.2734  0.7231 -0.1474
  483MOL0     C63645   3.951   3.949   6.158 -1.1894  0.6476 -0.4006
  483MOL0     C63646   3.872   4.068   6.215  0.2294  0.3367  0.7190
  483MOL0     C63647   3.853   4.176   6.113  0.6417  0.1542  0.5493
  483MOL0     O63648   3.805   4.139   5.985 -0.3342 -0.2908  0.0242
  483MOL0     C63649   3.671   4.126   5.962  0.5365 -0.1945 -0.1663
  483MOL0     C63650   3.561   4.162   6.041 -0.5327  0.3264  0.1406
  483MOL0     C63651   3.431   4.139   5.998  0.2253 -0.2696 -0.6628
  483MOL0     C63652   3.405   4.071   5.885 -0.3955 -0.8212 -0.0656
  483MOL0     C63653   3.268   4.054   5.836 -0.3315  0.8497 -0.0797
  483MOL0     O63654   3.172   4.058   5.926 -0.6036 -0.1383  0.0965
  483MOL0     C63655   3.045   4.085   5.880 -0.0726 -0.8937  0.6723
  483MOL0     C63656   2.939   4.023   5.949  0.2491  0.1636  0.0941
  483MOL0     C63657   2.804   4.052   5.903 -1.0191 -1.7382 -0.3379
  483MOL0     C63658   2.781   4.160   5.819  0.1675 -0.7797  0.4042
  483MOL0     O63659   2.646   4.195   5.812 -0.0306 -0.5392 -0.7376
  483MOL0     C63660   2.604   4.293   5.723 -0.2493  0.7864  0.4653
  483MOL0     C63661   2.546   4.229   5.592 -0.4933  0.2897 -0.4704
  483MOL0     C63662   2.413   4.144   5.630  0.4087 -1.2831  0.5765
  483MOL0     C63663   2.385   4.087   5.500 -0.8029 -0.0289  0.2600
  483MOL0     C63664   2.258   3.997   5.495 -0.7276  0.4212  0.0726
  483MOL0     C63665   2.127   4.049   5.551 -0.5571 -0.1706  0.4287
  483MOL0     C63666   2.078   4.167   5.473 -0.4232 -0.2541 -0.1835
  483MOL0     C63667   1.981   4.258   5.556 -1.1679  0.0676 -0.3238
  483MOL0    Cl63668   1.911   4.385   5.460 -0.3731 -0.8471 -0.3371
  483MOL0     C63669   2.892   4.233   5.761  0.9649  0.5314  0.7916
  483MOL0     C63670   3.026   4.193   5.791  1.1076 -0.1313  0.0859
  483MOL0     O63671   3.250   4.027   5.723  0.2839  0.6257 -0.4129
  483MOL0     C63672   3.510   4.023   5.812 -0.6229  0.8412 -0.7314
  483MOL0     C63673   3.643   4.055   5.846  0.2678  0.0446  0.0467
  483MOL0     N63674   4.206   4.148   6.279  0.3075 -0.9766  0.1198
  483MOL0     N63675   4.297   4.141   6.372 -0.5210 -0.5882 -0.5657
  483MOL0     C63676   5.481   4.027   6.384 -0.1131 -0.2010  0.5794
  483MOL0     C63677   5.624   4.039   6.397  0.8375 -0.1153  0.1095
  483MOL0     C63678   6.049   4.103   6.362  1.2450 -0.7157 -0.0784
  483MOL0     C63679   6.097   3.977   6.398 -0.4338  0.3567 -0.0056
  483MOL0     C63680   6.235   3.953   6.412 -0.3582 -0.3869  0.6883
  483MOL0     C63681   6.322   4.059   6.392 -0.6890  0.8978 -0.0343
  483MOL0     O63682   6.461   4.025   6.406  0.0217  0.3110 -0.1053
  483MOL0     C63683   6.556   4.136   6.407  0.7022 -0.5129 -0.4764
  483MOL0     C63684   6.698   4.078   6.417  1.2213  0.3631 -0.2788
  483MOL0     C63685   6.747   4.024   6.286 -0.1686 -0.8276 -0.5730
  483MOL0     C63686   6.890   3.979   6.273 -0.0623  0.1953 -0.2681
  483MOL0     C63687   6.936   3.888   6.382 -0.3181 -0.9244  0.5745
  483MOL0     C63688   6.975   3.817   6.476 -0.4082 -0.1319 -0.0658
  483MOL0     C63689   6.270   4.186   6.374  0.2296 -0.3476 -0.0028
  483MOL0     C63690   6.133   4.210   6.351  0.9316  1.0123 -0.2736
  483MOL0     H63691   5.711   3.987   6.069  2.3824  2.1259  1.2044
  483MOL0     H63692   5.477   3.960   6.047  2.3493  0.2055 -2.0060
  483MOL0     H63693   5.262   3.903   6.090 -0.0942  0.5597  0.4646
  483MOL0     H63694   5.242   4.076   6.060 -0.4718 -2.6650 -2.9216
  483MOL0     H63695   5.041   3.898   6.197  1.6093  0.0564  0.5349
  483MOL0     H63696   5.022   3.989   6.050  0.4143 -1.1147  0.1835
  483MOL0     H63697   5.048   4.203   6.198  0.0317 -0.2557 -0.5594
  483MOL0     H63698   5.046   4.099   6.339 -3.8449  0.2447  1.3793
  483MOL0     H63699   4.827   4.202   6.280 -3.5064 -1.4828 -0.2920
  483MOL0     H63700   4.832   4.097   6.132 -1.2579  0.2519  0.2394
  483MOL0     H63701   4.816   4.038   6.430  2.6545  2.0760 -2.4838
  483MOL0     H63702   4.834   3.909   6.318  1.7530  0.4257  0.9615
  483MOL0     H63703   4.619   4.008   6.205  2.1374  3.2953 -1.3663
  483MOL0     H63704   4.612   4.118   6.344  2.1308  0.0057  1.0082
  483MOL0     H63705   4.540   3.845   6.308 -0.3418  2.0615 -1.4364
  483MOL0     H63706   4.627   3.864   6.471 -0.2265  0.5261  0.6748
  483MOL0     H63707   4.482   4.034   6.536  3.0670 -2.9273  1.1872
  483MOL0     H63708   4.405   3.882   6.508  1.4466  1.1434  1.2054
  483MOL0     H63709   4.313   3.837   6.268  1.1364  0.8698  1.6866
  483MOL0     H63710   4.146   3.900   6.069 -0.2564 -0.6534  2.2924
  483MOL0     H63711   4.100   4.069   6.044  1.9628  1.6914  1.0118
  483MOL0     H63712   3.978   3.888   6.244 -0.9605  1.0500 -0.1863
  483MOL0     H63713   3.901   3.892   6.079  1.5045  0.2119 -1.9096
  483MOL0     H63714   3.776   4.034   6.257  0.8227  0.1853  1.9890
  483MOL0     H63715   3.931   4.113   6.295 -1.0931 -0.3328  2.1213
  483MOL0     H63716   3.950   4.224   6.102  1.2447 -0.8003  1.4411
  483MOL0     H63717   3.797   4.264   6.147  0.3931  0.6537 -1.0732
  483MOL0     H63718   3.585   4.213   6.134  3.1856 -0.0969 -0.4319
  483MOL0     H63719   3.355   4.183   6.063 -1.7959 -3.7203 -0.4675
  483MOL0     H63720   2.965   3.956   6.031  0.0551  0.4009  0.3502
  483MOL0     H63721   2.723   4.001   5.954 -2.8769  0.6024 -0.8030
  483MOL0     H63722   2.671   4.376   5.701  2.2526 -0.5898  2.3295
  483MOL0     H63723   2.518   4.333   5.778  1.9137 -0.8137  5.6088
  483MOL0     H63724   2.626   4.169   5.549  0.6994  0.3140  1.5553
  483MOL0     H63725   2.501   4.302   5.525 -2.5588 -1.2657 -0.8550
  483MOL0     H63726   2.334   4.214   5.658  0.6569 -1.8879  2.9413
  483MOL0     H63727   2.418   4.056   5.694  0.6992 -1.4264  0.3573
  483MOL0     H63728   2.369   4.164   5.423 -2.9682 -0.9720 -0.2834
  483MOL0     H63729   2.462   4.021   5.459 -4.1197 -2.3267 -2.8013
  483MOL0     H63730   2.288   3.902   5.539 -4.2532 -1.1141 -0.4935
  483MOL0     H63731   2.236   3.974   5.390 -3.7114 -0.2142  0.7562
  483MOL0     H63732   2.139   4.063   5.659  0.9438 -1.8856  0.5335
  483MOL0     H63733   2.063   3.960   5.543 -0.4914 -0.1231 -0.8825
  483MOL0     H63734   2.157   4.237   5.444 -1.1480 -0.0592 -1.7766
  483MOL0     H63735   2.022   4.144   5.382 -0.0653  1.5170 -0.9069
  483MOL0     H63736   2.041   4.307   5.634 -3.8343  3.7276 -0.2640
  483MOL0     H63737   1.915   4.187   5.607  0.9441 -2.7156 -1.2260
  483MOL0     H63738   2.874   4.318   5.695  2.0266  1.9268  2.2035
  483MOL0     H63739   3.107   4.250   5.746  0.3053  1.1833  0.2375
  483MOL0     H63740   3.493   3.981   5.714 -2.6621  0.4316 -0.2593
  483MOL0     H63741   3.724   4.020   5.782  1.5113  1.7083  0.6297
  483MOL0     H63742   5.416   4.040   6.469  0.4093 -1.3830  1.1806
  483MOL0     H63743   5.668   4.064   6.493 -0.1741  0.3649  0.4587
  483MOL0     H63744   6.035   3.890   6.418 -0.2770  0.7326  2.3006
  483MOL0     H63745   6.273   3.852   6.425 -1.0021 -1.0648 -1.9393
  483MOL0     H63746   6.539   4.194   6.498  0.8810  1.1498 -1.4752
  483MOL0     H63747   6.551   4.203   6.322  2.5043 -0.1081 -0.3093
  483MOL0     H63748   6.760   4.154   6.465  0.2625 -0.3783  2.2966
  483MOL0     H63749   6.706   3.996   6.489  0.2696  0.2798 -0.2512
  483MOL0     H63750   6.731   4.103   6.213  0.6722  1.0471  1.1738
  483MOL0     H63751   6.682   3.938   6.268  0.5035 -1.2729 -0.8837
  483MOL0     H63752   6.902   3.925   6.178 -1.0934  1.7630 -1.3426
  483MOL0     H63753   6.959   4.063   6.271  2.0327 -1.2067  3.5289
  483MOL0     H63754   7.008   3.761   6.561 -1.5258  1.3886  1.4259
  483MOL0     H63755   6.337   4.271   6.383 -1.3715  1.1327 -1.3959
  483MOL0     H63756   6.115   4.313   6.322  1.7165  1.1793 -0.1838
  484MOL0     O63757   7.718   7.123   0.336  0.8312  0.6776  0.5669
  484MOL0     C63758   7.757   7.170   0.230 -0.3711 -0.5000 -0.6564
  484MOL0     O63759   7.685   7.255   0.154 -0.5566  0.9994  0.3820
  484MOL0     C63760   7.562   7.302   0.184 -0.2393 -0.4693  0.7092
  484MOL0     C63761   7.516   7.327   0.313 -0.1651  0.1964 -0.4411
  484MOL0     C63762   7.387   7.371   0.339  0.3774  0.5411 -0.6336
  484MOL0     C63763   7.301   7.392   0.227  0.7496  0.5169 -0.7290
  484MOL0     O63764   7.172   7.432   0.246  0.3772 -0.3321 -0.1174
  484MOL0     C63765   7.104   7.501   0.138 -0.1542  0.4118  0.3392
  484MOL0     C63766   6.997   7.591   0.199  0.5134  0.0178  0.2408
  484MOL0     C63767   6.881   7.500   0.232  0.2757  0.9165 -0.2466
  484MOL0     C63768   6.764   7.588   0.291 -0.7840 -0.5823  0.2185
  484MOL0     C63769   6.635   7.507   0.268 -0.1580  1.0570  0.4279
  484MOL0     C63770   6.505   7.586   0.279 -0.7260  0.1593 -0.1098
  484MOL0     C63771   6.471   7.622   0.422  0.0749  0.5438 -0.2577
  484MOL0     C63772   6.330   7.674   0.454  0.2453 -1.4860 -0.0148
  484MOL0     N63773   6.230   7.567   0.439 -0.4395  0.0790  0.3805
  484MOL0     C63774   6.168   7.486   0.534  0.4003 -0.7750  0.0451
  484MOL0     C63775   6.099   7.385   0.473 -0.1205 -0.2098 -0.4100
  484MOL0     C63776   6.020   7.275   0.536 -0.8017 -0.3785  0.7870
  484MOL0     C63777   6.098   7.219   0.652 -0.2430  0.9685 -0.2000
  484MOL0     C63778   6.024   7.111   0.724  0.1112 -0.7473 -0.3840
  484MOL0     C63779   5.970   7.172   0.854 -0.4661  0.1071  0.8536
  484MOL0     O63780   5.878   7.282   0.838 -0.3603  0.6009 -0.3914
  484MOL0     C63781   5.741   7.254   0.838  0.2756  0.4945 -1.6825
  484MOL0     C63782   5.653   7.356   0.881 -0.0675  1.0402  0.1638
  484MOL0     C63783   5.512   7.335   0.883 -0.3192 -0.4952  0.4704
  484MOL0     C63784   5.463   7.215   0.834 -0.3797 -0.0085  0.6199
  484MOL0     C63785   5.312   7.201   0.818  0.2793 -0.1587  0.8347
  484MOL0     O63786   5.220   7.305   0.839 -0.2030  0.5227  0.5151
  484MOL0     C63787   5.091   7.300   0.793  0.6314  0.6430 -0.1166
  484MOL0     C63788   4.985   7.374   0.862  0.2701 -0.6648  0.3661
  484MOL0     C63789   4.863   7.390   0.801  0.2138 -0.4130 -0.2784
  484MOL0     C63790   4.841   7.352   0.666 -0.7982  0.1625 -0.4583
  484MOL0     O63791   4.728   7.377   0.596 -0.5740 -0.7846 -0.2249
  484MOL0     C63792   4.665   7.260   0.540  0.5364  0.4880 -0.2828
  484MOL0     C63793   4.544   7.225   0.637  0.3773 -1.0942  0.9306
  484MOL0     C63794   4.408   7.295   0.592 -0.1443  0.1366  0.1530
  484MOL0     C63795   4.320   7.312   0.719  0.6521  0.2880  0.2485
  484MOL0     C63796   4.171   7.336   0.688 -0.5110  0.2835  0.0491
  484MOL0     C63797   4.090   7.356   0.821 -0.2070  0.1821  0.1866
  484MOL0     C63798   3.941   7.383   0.795  0.0681  0.8900 -0.6931
  484MOL0     C63799   3.851   7.308   0.896  0.2154 -0.0545 -0.4531
  484MOL0    Cl63800   3.908   7.339   1.072 -0.1606 -0.3887 -0.4536
  484MOL0     C63801   4.947   7.291   0.598  0.3561 -0.7808  0.1974
  484MOL0     C63802   5.065   7.260   0.662 -0.6015  0.3367  0.4830
  484MOL0     O63803   5.271   7.093   0.782 -0.0935  0.2373  0.7799
  484MOL0     C63804   5.546   7.107   0.810 -0.1070 -0.1543  0.2752
  484MOL0     C63805   5.686   7.120   0.821 -0.1279 -0.6376  1.0326
  484MOL0     N63806   6.093   7.423   0.339  0.2891 -0.0072 -0.5350
  484MOL0     N63807   6.171   7.529   0.320  0.0621  0.1924  0.0738
  484MOL0     C63808   7.334   7.347   0.101 -0.0852  0.1177 -0.4879
  484MOL0     C63809   7.472   7.311   0.083  0.7257 -0.5074 -0.4581
  484MOL0     C63810   7.890   7.136   0.184 -0.6263 -0.3316  1.0199
  484MOL0     C63811   7.986   7.067   0.261  0.7443  0.4752  0.1782
  484MOL0     C63812   8.107   7.029   0.212  0.4628 -0.3526  1.3414
  484MOL0     C63813   8.145   7.053   0.076 -0.3505 -0.0547 -0.1579
  484MOL0     O63814   8.270   7.009   0.043 -0.2877 -0.7067 -0.8003
  484MOL0     C63815   8.311   7.022  -0.094 -0.3735 -0.1709 -0.6520
  484MOL0     C63816   8.447   6.963  -0.121  0.0078 -0.1307 -0.3115
  484MOL0     C63817   8.488   6.938  -0.271 -0.1163  0.1117 -0.3336
  484MOL0     C63818   8.586   7.049  -0.319  0.5770  0.8585 -0.9025
  484MOL0     C63819   8.718   7.033  -0.260 -0.8199 -0.5379 -0.0495
  484MOL0     C63820   8.828   7.030  -0.203 -0.2485 -1.6806 -0.5861
  484MOL0     C63821   8.053   7.129   0.001 -0.1267 -0.4400  0.1634
  484MOL0     C63822   7.932   7.170   0.052  0.0224 -0.2363  0.9133
  484MOL0     H63823   7.586   7.302   0.393 -1.1510 -2.6939 -0.3652
  484MOL0     H63824   7.360   7.391   0.442 -0.7542 -2.8644 -0.1520
  484MOL0     H63825   7.061   7.432   0.065  2.5510 -2.0914  0.9192
  484MOL0     H63826   7.173   7.562   0.079  0.6062  0.3603  1.1552
  484MOL0     H63827   6.973   7.669   0.126  3.3510 -1.6491 -2.7244
  484MOL0     H63828   7.034   7.642   0.287  0.7070  0.1567  0.0785
  484MOL0     H63829   6.915   7.431   0.310  2.2784  0.0093 -1.8375
  484MOL0     H63830   6.850   7.443   0.144 -2.5455 -1.2169  1.9420
  484MOL0     H63831   6.789   7.615   0.394 -0.3676  2.2154 -0.5405
  484MOL0     H63832   6.759   7.687   0.245 -0.3224 -0.0915  1.1856
  484MOL0     H63833   6.638   7.423   0.338 -1.0973 -0.1520 -0.9385
  484MOL0     H63834   6.643   7.458   0.171 -3.1713  3.0241 -0.9626
  484MOL0     H63835   6.421   7.530   0.236 -0.5179  0.4101 -0.8623
  484MOL0     H63836   6.502   7.673   0.213  0.8465 -0.2627 -0.7894
  484MOL0     H63837   6.489   7.526   0.470  3.9812  1.1497 -0.2461
  484MOL0     H63838   6.548   7.687   0.464  0.8434  0.1072 -0.9696
  484MOL0     H63839   6.316   7.746   0.373 -3.4503  0.5889  2.2100
  484MOL0     H63840   6.320   7.734   0.544  1.4678 -1.1554 -0.0886
  484MOL0     H63841   6.192   7.505   0.638 -0.8346  0.8118  0.0806
  484MOL0     H63842   5.996   7.200   0.460 -0.8863 -1.0712  1.4807
  484MOL0     H63843   5.926   7.310   0.580  0.2528 -0.1657  3.0118
  484MOL0     H63844   6.131   7.296   0.722  0.8626  0.9403 -0.6746
  484MOL0     H63845   6.190   7.173   0.614  0.9892  1.9524  1.4526
  484MOL0     H63846   5.935   7.086   0.665 -0.8505  4.0140 -1.2922
  484MOL0     H63847   6.096   7.031   0.746  2.2415  2.1958  5.4807
  484MOL0     H63848   6.050   7.220   0.911 -0.9161  1.1561  0.6338
  484MOL0     H63849   5.929   7.091   0.915  2.4293 -2.0558  0.0746
  484MOL0     H63850   5.698   7.454   0.885 -0.0327  0.9843  1.9805
  484MOL0     H63851   5.446   7.421   0.891 -0.9826 -0.8279 -1.1807
  484MOL0     H63852   5.018   7.408   0.960 -0.2877  2.4382 -0.4111
  484MOL0     H63853   4.782   7.423   0.865  0.7220 -0.3278  0.3342
  484MOL0     H63854   4.728   7.172   0.526  0.2833  0.5415 -2.0554
  484MOL0     H63855   4.625   7.284   0.441 -0.0172 -2.7521 -0.9390
  484MOL0     H63856   4.580   7.264   0.733  4.2733 -1.6527 -0.1159
  484MOL0     H63857   4.522   7.119   0.654 -0.3024 -0.9522  0.9622
  484MOL0     H63858   4.345   7.238   0.522 -0.9272 -0.0297  0.9866
  484MOL0     H63859   4.427   7.395   0.552  1.7787 -0.1870  0.1570
  484MOL0     H63860   4.325   7.211   0.762  0.3130  0.7458  1.3898
  484MOL0     H63861   4.371   7.379   0.789  4.3260 -0.4951 -1.4358
  484MOL0     H63862   4.132   7.247   0.637 -1.4157  1.7356 -1.9341
  484MOL0     H63863   4.167   7.423   0.621  2.2082 -0.1888 -0.8769
  484MOL0     H63864   4.129   7.442   0.877 -4.1161  0.6596  2.5291
  484MOL0     H63865   4.098   7.264   0.879  1.8729 -1.1091 -1.9530
  484MOL0     H63866   3.917   7.489   0.797 -2.6622  0.3680 -1.1329
  484MOL0     H63867   3.924   7.352   0.692  0.3869 -2.3587  0.1129
  484MOL0     H63868   3.866   7.200   0.882 -0.7278 -0.0699 -1.4174
  484MOL0     H63869   3.745   7.334   0.892  0.3430  0.5974  0.1937
  484MOL0     H63870   4.942   7.270   0.492  3.0671  1.7625 -0.5716
  484MOL0     H63871   5.137   7.215   0.594 -2.6726 -0.1742 -1.5075
  484MOL0     H63872   5.509   7.007   0.792  1.9963 -1.2320  1.6022
  484MOL0     H63873   5.748   7.034   0.796  0.1706  0.1856 -1.2665
  484MOL0     H63874   7.270   7.348   0.013 -1.5447  0.1461  0.5311
  484MOL0     H63875   7.507   7.257  -0.005 -3.9636 -1.8587 -1.8155
  484MOL0     H63876   7.960   7.035   0.362 -3.8853 -2.0955 -1.4972
  484MOL0     H63877   8.177   6.976   0.275  1.5600  0.5493  0.9281
  484MOL0     H63878   8.306   7.127  -0.124 -0.4383  0.1949  0.5703
  484MOL0     H63879   8.240   6.964  -0.153  1.2149 -1.8109 -1.0466
  484MOL0     H63880   8.510   7.035  -0.067  1.1424 -1.7751  0.6508
  484MOL0     H63881   8.455   6.871  -0.063 -1.2013  1.0925  1.9447
  484MOL0     H63882   8.398   6.920  -0.330 -2.2110  1.6435  2.1675
  484MOL0     H63883   8.540   6.842  -0.268 -1.4292 -0.6465 -0.9308
  484MOL0     H63884   8.592   7.048  -0.428  2.6977 -3.0744 -0.9419
  484MOL0     H63885   8.551   7.145  -0.280  1.4044  1.2371 -1.0628
  484MOL0     H63886   8.909   7.027  -0.134 -2.1029 -3.3129  1.6621
  484MOL0     H63887   8.088   7.166  -0.095 -3.7671  0.7277 -0.8832
  484MOL0     H63888   7.865   7.235  -0.005 -0.9132 -0.9746  1.1456
  485MOL0     O63889   4.247   3.928   2.995 -0.3824  0.4087  0.3340
  485MOL0     C63890   4.358   3.867   3.007  0.6415 -0.0430 -0.3015
  485MOL0     O63891   4.400   3.776   2.921  0.0213 -0.5621  0.5731
  485MOL0     C63892   4.312   3.722   2.833 -0.3040  0.5785  0.7750
  485MOL0     C63893   4.251   3.793   2.723 -0.1102 -0.7857  0.5880
  485MOL0     C63894   4.196   3.724   2.614 -0.1575 -0.5364 -0.1866
  485MOL0     C63895   4.182   3.587   2.630  0.9147 -0.4884 -0.0650
  485MOL0     O63896   4.107   3.507   2.537  0.6326 -0.2953 -0.1561
  485MOL0     C63897   4.045   3.561   2.418 -0.2071  0.2233  0.0147
  485MOL0     C63898   4.149   3.583   2.301  0.8841 -0.5099  0.6531
  485MOL0     C63899   4.253   3.468   2.273  0.2143 -0.3360 -0.2303
  485MOL0     C63900   4.321   3.500   2.147  0.3111 -0.5103 -0.7783
  485MOL0     C63901   4.394   3.385   2.083 -0.7898  0.7959  0.4588
  485MOL0     C63902   4.507   3.318   2.164 -0.6095  1.4018 -0.0813
  485MOL0     C63903   4.604   3.245   2.069  0.2828 -0.9678 -0.3282
  485MOL0     C63904   4.722   3.193   2.148 -0.4041 -0.7439 -0.3794
  485MOL0     N63905   4.781   3.076   2.092  0.3356 -0.1094 -1.3037
  485MOL0     C63906   4.720   2.956   2.100 -0.1001 -0.3107  0.5423
  485MOL0     C63907   4.803   2.870   2.035  0.1891  0.3940  0.7256
  485MOL0     C63908   4.777   2.726   1.996  0.7622 -0.6125  0.7539
  485MOL0     C63909   4.681   2.710   1.882  0.4996 -0.0516 -0.0123
  485MOL0     C63910   4.664   2.559   1.837  0.0042  0.4120  0.4293
  485MOL0     C63911   4.628   2.544   1.692 -0.0126 -0.0971 -0.3198
  485MOL0     O63912   4.499   2.599   1.650 -0.2078  0.0127 -0.6536
  485MOL0     C63913   4.392   2.587   1.736  0.2568  0.5120  0.2950
  485MOL0     C63914   4.338   2.709   1.771  0.3556 -0.9175 -0.2580
  485MOL0     C63915   4.225   2.707   1.854 -0.2452 -0.1518  0.3049
  485MOL0     C63916   4.167   2.583   1.899 -0.4685 -0.0620 -0.6631
  485MOL0     C63917   4.040   2.580   1.977  0.3499 -0.1443 -0.3592
  485MOL0     O63918   3.983   2.697   1.999  0.1856  0.1026 -0.1194
  485MOL0     C63919   3.859   2.689   2.064  0.3089  0.0013 -0.2574
  485MOL0     C63920   3.757   2.600   2.025 -0.4316  0.3249  0.0957
  485MOL0     C63921   3.630   2.606   2.084 -0.2110  0.1692 -0.7002
  485MOL0     C63922   3.601   2.694   2.186  0.2978  0.2676 -0.2475
  485MOL0     O63923   3.474   2.679   2.239 -0.3798  0.1325 -0.1531
  485MOL0     C63924   3.440   2.762   2.357 -0.0554 -0.5313  0.5889
  485MOL0     C63925   3.295   2.744   2.411  0.0855 -0.0950 -0.4799
  485MOL0     C63926   3.198   2.792   2.299 -0.0084  0.4579  0.2217
  485MOL0     C63927   3.042   2.794   2.332  0.4699  0.3385  0.7563
  485MOL0     C63928   2.960   2.826   2.217  0.6684 -0.1355 -0.2989
  485MOL0     C63929   2.799   2.814   2.249 -0.1447 -0.1671  0.2998
  485MOL0     C63930   2.706   2.879   2.146 -0.0689  0.8017 -0.8562
  485MOL0     C63931   2.736   3.035   2.142  0.1493  1.0917 -0.2733
  485MOL0    Cl63932   2.710   3.125   2.302 -0.1464  0.2644 -0.1303
  485MOL0     C63933   3.705   2.782   2.223 -0.0603  0.1004  0.0023
  485MOL0     C63934   3.836   2.772   2.167 -0.2651 -0.5736 -1.0708
  485MOL0     O63935   4.006   2.472   2.020 -0.2404 -0.0552 -0.6748
  485MOL0     C63936   4.231   2.465   1.862 -0.2506  0.4653 -0.3965
  485MOL0     C63937   4.336   2.462   1.771 -0.3142  0.7888  0.1889
  485MOL0     N63938   4.905   2.943   1.976 -0.3666 -0.2937 -0.6628
  485MOL0     N63939   4.893   3.066   2.020 -0.6228 -0.1070  0.6193
  485MOL0     C63940   4.240   3.516   2.736  0.6820  0.1233  0.2402
  485MOL0     C63941   4.317   3.580   2.834  0.5487 -0.0238  0.2431
  485MOL0     C63942   4.437   3.913   3.124  0.0333  0.7529  0.2231
  485MOL0     C63943   4.539   3.832   3.186  0.0301 -0.0273  0.5488
  485MOL0     C63944   4.599   3.875   3.303 -0.6476 -1.0061 -0.5810
  485MOL0     C63945   4.557   3.997   3.368  0.3857 -0.1024  0.0554
  485MOL0     O63946   4.597   4.045   3.495 -0.7402  0.0333 -0.3106
  485MOL0     C63947   4.697   3.971   3.568  0.4963  0.8937 -0.5630
  485MOL0     C63948   4.834   4.007   3.513  0.1376  0.3193 -0.0242
  485MOL0     C63949   4.917   3.881   3.483 -1.0470 -0.2473  0.2015
  485MOL0     C63950   4.960   3.806   3.613  0.9244 -0.4863 -0.1616
  485MOL0     C63951   5.069   3.862   3.684 -0.3751  0.5538  0.2184
  485MOL0     C63952   5.163   3.884   3.753 -0.6460  0.1710 -0.3703
  485MOL0     C63953   4.460   4.075   3.301  0.5219 -0.3940 -0.5437
  485MOL0     C63954   4.404   4.039   3.185 -0.6259  0.1282 -0.1633
  485MOL0     H63955   4.256   3.901   2.708 -2.5024 -0.4810  1.5314
  485MOL0     H63956   4.156   3.768   2.524  1.6613 -1.1541 -1.3471
  485MOL0     H63957   3.996   3.656   2.438  1.1609  1.1343 -0.8514
  485MOL0     H63958   3.969   3.489   2.383  2.0446 -2.9132  1.0838
  485MOL0     H63959   4.210   3.668   2.332 -2.5955  1.6837  2.1860
  485MOL0     H63960   4.082   3.603   2.217 -0.8463 -1.6882  1.6712
  485MOL0     H63961   4.209   3.369   2.254  1.3861 -0.6617 -1.4349
  485MOL0     H63962   4.319   3.457   2.359 -0.9381  1.3199  0.9176
  485MOL0     H63963   4.243   3.535   2.079 -0.9833  0.4441  1.0952
  485MOL0     H63964   4.395   3.580   2.162 -0.1738 -0.5137  2.2350
  485MOL0     H63965   4.440   3.433   1.996  2.3148 -2.8155 -0.1738
  485MOL0     H63966   4.318   3.320   2.039 -0.0119  0.2656 -0.1303
  485MOL0     H63967   4.468   3.240   2.231 -0.3937 -0.1169 -1.6704
  485MOL0     H63968   4.562   3.389   2.226 -0.1767 -0.8099  2.2725
  485MOL0     H63969   4.543   3.167   2.022  0.6854 -1.4317 -0.0862
  485MOL0     H63970   4.642   3.312   1.991  0.6628 -0.0955  0.5975
  485MOL0     H63971   4.693   3.162   2.249 -0.6209  1.1723  0.1998
  485MOL0     H63972   4.801   3.268   2.161 -0.2837 -1.0479  0.7948
  485MOL0     H63973   4.632   2.933   2.158 -0.3811  1.3771  0.8385
  485MOL0     H63974   4.734   2.682   2.086  0.3369 -2.6647 -0.3751
  485MOL0     H63975   4.876   2.682   1.980  0.2606 -2.1880  1.7543
  485MOL0     H63976   4.724   2.765   1.797 -1.5895 -0.1040 -1.1723
  485MOL0     H63977   4.579   2.746   1.901  1.4234  2.3054  0.8596
  485MOL0     H63978   4.755   2.500   1.851  0.8685  0.5399 -3.5518
  485MOL0     H63979   4.592   2.521   1.910  0.7699 -0.3439  0.8095
  485MOL0     H63980   4.619   2.435   1.682 -2.8244 -0.2927  2.5062
  485MOL0     H63981   4.705   2.580   1.624  0.5221  0.4954  0.5782
  485MOL0     H63982   4.385   2.802   1.741 -0.1712 -0.2963  0.7858
  485MOL0     H63983   4.173   2.795   1.891  1.2104  0.5353  0.8161
  485MOL0     H63984   3.773   2.530   1.945  1.7889  2.5854 -1.6096
  485MOL0     H63985   3.553   2.541   2.043  0.1519 -1.0282  0.4465
  485MOL0     H63986   3.465   2.865   2.331 -0.4525 -1.1077 -2.4977
  485MOL0     H63987   3.507   2.737   2.440  0.3123 -0.6398  0.2626
  485MOL0     H63988   3.291   2.815   2.494  1.0964  0.7036 -1.0896
  485MOL0     H63989   3.285   2.645   2.455  1.4046  0.6761  1.7447
  485MOL0     H63990   3.219   2.716   2.224  3.9515  0.9497  0.6234
  485MOL0     H63991   3.233   2.885   2.254  1.8352 -1.2780 -2.1324
  485MOL0     H63992   3.000   2.707   2.384 -1.9253 -0.2025 -1.8463
  485MOL0     H63993   3.015   2.878   2.396 -3.6756 -0.8230  0.8019
  485MOL0     H63994   3.003   2.758   2.143  3.2197  0.5377  0.4333
  485MOL0     H63995   2.983   2.932   2.202 -2.5462  0.5244 -1.4292
  485MOL0     H63996   2.785   2.859   2.348  1.1426  4.7422 -1.4407
  485MOL0     H63997   2.773   2.709   2.262 -0.5662 -0.2290 -0.9422
  485MOL0     H63998   2.726   2.843   2.044 -3.3889 -3.3679 -0.3272
  485MOL0     H63999   2.600   2.865   2.168 -0.0425  0.8186 -0.7180
  485MOL0     H64000   2.684   3.081   2.057  1.8120 -1.4707 -2.8732
  485MOL0     H64001   2.841   3.047   2.114  0.2046  1.3202  0.0352
  485MOL0     H64002   3.674   2.855   2.296 -4.3005 -3.1263  1.8957
  485MOL0     H64003   3.910   2.847   2.193 -2.1914  0.2005  3.0019
  485MOL0     H64004   4.182   2.371   1.886  1.3459  0.1787  2.0362
  485MOL0     H64005   4.376   2.370   1.731  0.0099  1.3288 -0.7658
  485MOL0     H64006   4.233   3.409   2.751 -2.1370 -0.0419 -1.5972
  485MOL0     H64007   4.359   3.531   2.921 -2.8979  0.6614  2.5051
  485MOL0     H64008   4.554   3.731   3.148 -2.5066 -0.1829 -0.1736
  485MOL0     H64009   4.672   3.815   3.357 -0.9726  0.3167  1.4643
  485MOL0     H64010   4.687   3.863   3.576 -3.1420  1.2372  5.4795
  485MOL0     H64011   4.703   3.994   3.675  2.4425 -2.2561  0.1290
  485MOL0     H64012   4.826   4.078   3.429  1.0711 -0.4916 -0.8324
  485MOL0     H64013   4.892   4.058   3.590 -0.3405 -2.8823  2.6937
  485MOL0     H64014   5.005   3.913   3.427  1.1889 -1.2629  2.8572
  485MOL0     H64015   4.860   3.817   3.416 -4.2113  0.1419  2.3209
  485MOL0     H64016   4.876   3.790   3.681  0.5582  1.9347  0.0173
  485MOL0     H64017   4.997   3.707   3.584 -0.5397 -0.4668 -2.3449
  485MOL0     H64018   5.245   3.919   3.812 -1.3671  3.0543 -0.9594
  485MOL0     H64019   4.431   4.168   3.348  0.7303 -1.2057  1.3058
  485MOL0     H64020   4.329   4.107   3.146  0.1630  1.1162 -0.0184
  486MOL0     O64021   6.638  10.820   1.054  0.0191 -0.0465  0.0591
  486MOL0     C64022   6.737  10.902   1.041  0.0473  0.2528 -1.0476
  486MOL0     O64023   6.841  10.896   0.950 -0.0897  0.1349 -1.1245
  486MOL0     C64024   6.859  10.793   0.858 -0.5955 -0.5442  0.2583
  486MOL0     C64025   6.991  10.748   0.840  0.0219 -0.3916 -0.3000
  486MOL0     C64026   7.011  10.653   0.731 -0.3094  0.3217 -0.3271
  486MOL0     C64027   6.901  10.613   0.655 -0.1875  0.3968 -0.1914
  486MOL0     O64028   6.926  10.528   0.546  0.3207  0.0011  0.1998
  486MOL0     C64029   6.830  10.456   0.471 -0.4225 -0.1149 -0.9602
  486MOL0     C64030   6.772  10.339   0.557 -0.2259 -0.2350  1.1122
  486MOL0     C64031   6.650  10.269   0.499 -0.2519  0.2088  0.5188
  486MOL0     C64032   6.693  10.176   0.384  0.2489  0.0934  0.1037
  486MOL0     C64033   6.581  10.100   0.307 -0.3878  0.9208 -0.9181
  486MOL0     C64034   6.457  10.058   0.396 -0.0510 -0.0228 -0.5043
  486MOL0     C64035   6.363   9.995   0.295  0.8426  0.4917 -0.6223
  486MOL0     C64036   6.372   9.845   0.300  0.0912 -0.1864 -0.6617
  486MOL0     N64037   6.268   9.779   0.217 -0.2679 -0.0763 -0.0255
  486MOL0     C64038   6.290   9.747   0.082  0.7350 -0.3652  0.1717
  486MOL0     C64039   6.155   9.722   0.042 -0.4826 -0.0048  0.7323
  486MOL0     C64040   6.120   9.707  -0.102  0.7515 -0.0721  0.1906
  486MOL0     C64041   6.102   9.561  -0.141 -0.3968  0.4700 -0.8715
  486MOL0     C64042   6.009   9.554  -0.262  0.9576  0.2180  0.5837
  486MOL0     C64043   6.003   9.403  -0.312  0.2919 -0.8734  0.8141
  486MOL0     O64044   5.926   9.320  -0.228 -0.2170  0.0727  0.6726
  486MOL0     C64045   5.817   9.262  -0.279 -0.0882  0.7784  0.7148
  486MOL0     C64046   5.818   9.122  -0.295  0.2019 -0.1930 -0.7330
  486MOL0     C64047   5.704   9.064  -0.350  1.0240 -0.1449 -1.0006
  486MOL0     C64048   5.593   9.127  -0.400  0.6995 -0.1322 -0.2843
  486MOL0     C64049   5.483   9.068  -0.465 -0.2348 -0.0358  0.6464
  486MOL0     O64050   5.403   9.154  -0.530 -0.3914 -0.1796 -0.1352
  486MOL0     C64051   5.294   9.105  -0.599  0.2839  0.3127 -0.5533
  486MOL0     C64052   5.291   9.076  -0.731  0.4255  1.0279  0.6476
  486MOL0     C64053   5.186   9.018  -0.790  1.0410  0.2419  0.7949
  486MOL0     C64054   5.066   8.998  -0.715  0.6735 -1.0486 -0.1817
  486MOL0     O64055   4.948   8.946  -0.774  0.0433  0.0292 -0.2840
  486MOL0     C64056   4.911   8.969  -0.917 -0.0711  0.4190  0.6311
  486MOL0     C64057   4.793   9.053  -0.916 -0.4230 -0.6192 -0.4211
  486MOL0     C64058   4.755   9.086  -1.058  0.1847 -0.6294 -0.2600
  486MOL0     C64059   4.638   9.180  -1.053  0.3796  0.8551 -0.4917
  486MOL0     C64060   4.588   9.211  -1.202  0.6140 -0.6008 -0.2003
  486MOL0     C64061   4.548   9.085  -1.283 -0.2175 -0.7203  0.2992
  486MOL0     C64062   4.426   9.110  -1.380 -0.2307  0.2042  0.1369
  486MOL0     C64063   4.370   8.976  -1.440 -0.7848 -0.4815 -0.5951
  486MOL0    Cl64064   4.277   8.999  -1.589 -0.5686  0.1464 -0.4012
  486MOL0     C64065   5.062   9.041  -0.584 -0.0156 -0.3573 -0.0415
  486MOL0     C64066   5.176   9.099  -0.530 -1.2389  0.9644  0.2700
  486MOL0     O64067   5.473   8.946  -0.465 -0.0734  0.5003  0.3036
  486MOL0     C64068   5.598   9.268  -0.385  0.0944 -0.1370 -1.4352
  486MOL0     C64069   5.706   9.330  -0.322  0.4352  0.3140 -0.2628
  486MOL0     N64070   6.071   9.715   0.153 -0.1865  0.1687  0.8222
  486MOL0     N64071   6.147   9.745   0.251 -0.9397  1.0550  0.0212
  486MOL0     C64072   6.770  10.649   0.680 -0.6067 -0.3122 -1.3636
  486MOL0     C64073   6.752  10.744   0.782  0.0568  0.0856 -0.5969
  486MOL0     C64074   6.740  11.035   1.129 -0.2504  0.6192 -0.2809
  486MOL0     C64075   6.845  11.122   1.103 -0.3464  0.0193 -0.9383
  486MOL0     C64076   6.866  11.236   1.187  0.1435  0.2923  0.2900
  486MOL0     C64077   6.780  11.260   1.297  0.0285 -0.8518 -0.2564
  486MOL0     O64078   6.811  11.363   1.388  0.2421  0.0592 -0.1400
  486MOL0     C64079   6.743  11.482   1.369 -0.5664 -1.0692 -0.3000
  486MOL0     C64080   6.818  11.580   1.280 -0.2655 -0.0273  0.9919
  486MOL0     C64081   6.939  11.644   1.348 -0.4007  0.6055  0.8323
  486MOL0     C64082   7.036  11.730   1.267 -0.2666  0.9369  0.0582
  486MOL0     C64083   7.074  11.654   1.152 -0.2537  0.4308 -0.2950
  486MOL0     C64084   7.107  11.577   1.060 -0.1502  0.2791  0.3329
  486MOL0     C64085   6.674  11.174   1.312  0.3700  0.0556  0.3420
  486MOL0     C64086   6.663  11.056   1.237  0.2871 -0.2896  0.5900
  486MOL0     H64087   7.070  10.796   0.896 -2.0237  0.0812  2.3577
  486MOL0     H64088   7.110  10.612   0.710 -0.4499 -0.7743  0.9613
  486MOL0     H64089   6.880  10.409   0.386  0.0157 -0.3679 -0.5658
  486MOL0     H64090   6.763  10.530   0.426  1.1725  2.2153  0.3126
  486MOL0     H64091   6.739  10.375   0.655  0.8901 -2.0116  2.2046
  486MOL0     H64092   6.860  10.278   0.580  1.1548  2.3156  3.1536
  486MOL0     H64093   6.583  10.347   0.460  4.9149  4.2092 -1.5285
  486MOL0     H64094   6.611  10.204   0.577  0.0823 -1.3538 -0.5626
  486MOL0     H64095   6.747  10.234   0.308 -0.1146 -1.7710 -1.6502
  486MOL0     H64096   6.763  10.100   0.421 -0.2520  0.7804  2.6240
  486MOL0     H64097   6.615  10.010   0.255  1.9315 -0.4984  2.6804
  486MOL0     H64098   6.554  10.172   0.229  2.7941  1.6688 -1.4755
  486MOL0     H64099   6.422  10.148   0.448  1.8120  0.5601 -0.1676
  486MOL0     H64100   6.482   9.990   0.479 -0.4600  0.3278 -0.0882
  486MOL0     H64101   6.263  10.020   0.332  0.6893 -2.6959  1.5337
  486MOL0     H64102   6.386  10.030   0.195  1.8237 -0.0633 -0.6071
  486MOL0     H64103   6.349   9.819   0.403 -1.1268 -2.3713 -1.3995
  486MOL0     H64104   6.466   9.800   0.266 -0.1201  0.6846 -2.5544
  486MOL0     H64105   6.380   9.752   0.022 -0.8424  0.8904 -2.2501
  486MOL0     H64106   6.195   9.750  -0.169 -0.2281  0.2340 -0.7560
  486MOL0     H64107   6.022   9.754  -0.115  0.3018 -1.0124  0.1261
  486MOL0     H64108   6.060   9.501  -0.060 -0.1745 -0.7349 -1.6181
  486MOL0     H64109   6.196   9.509  -0.163  1.0773  1.6412  2.1150
  486MOL0     H64110   5.913   9.600  -0.241  1.4984  1.0718  1.2594
  486MOL0     H64111   6.047   9.616  -0.344 -0.4513 -2.2702 -2.1643
  486MOL0     H64112   6.101   9.363  -0.341  0.4249  1.0841 -1.8078
  486MOL0     H64113   5.956   9.413  -0.410  3.7046  0.1173 -0.8667
  486MOL0     H64114   5.895   9.055  -0.259 -0.2291  1.0835  2.9550
  486MOL0     H64115   5.695   8.956  -0.346 -1.2889 -0.0298 -1.7113
  486MOL0     H64116   5.385   9.097  -0.782  0.5622  0.0062  0.4565
  486MOL0     H64117   5.201   8.988  -0.894 -0.3462  0.1215  0.6056
  486MOL0     H64118   4.882   8.875  -0.965 -0.8036  0.5744  0.7473
  486MOL0     H64119   5.004   9.006  -0.960 -0.2139  1.3372  1.0964
  486MOL0     H64120   4.812   9.145  -0.859 -1.9506 -0.0300 -0.8295
  486MOL0     H64121   4.717   8.994  -0.864  0.2751 -0.5193  0.7542
  486MOL0     H64122   4.737   8.991  -1.110  0.7205 -1.3314  0.7958
  486MOL0     H64123   4.839   9.146  -1.095  1.5429 -2.6442 -0.6071
  486MOL0     H64124   4.564   9.116  -1.004  2.4443 -0.1977  1.4340
  486MOL0     H64125   4.666   9.268  -0.994  1.1799 -1.7490  3.4534
  486MOL0     H64126   4.669   9.259  -1.258 -0.8803  1.0267 -1.0825
  486MOL0     H64127   4.502   9.278  -1.193  1.8361  0.9342  0.5414
  486MOL0     H64128   4.510   9.010  -1.212 -0.1522  1.3705  2.6777
  486MOL0     H64129   4.633   9.047  -1.340 -2.9987 -0.9085 -4.2243
  486MOL0     H64130   4.342   9.149  -1.321 -0.1482  0.9723 -0.2371
  486MOL0     H64131   4.458   9.179  -1.459 -1.8862  1.7823  0.7578
  486MOL0     H64132   4.310   8.924  -1.365 -0.0151  0.8102  0.9765
  486MOL0     H64133   4.462   8.923  -1.465 -0.7878 -1.3583  1.1329
  486MOL0     H64134   4.975   9.051  -0.519  2.1135  1.0532  2.7876
  486MOL0     H64135   5.185   9.139  -0.429  1.4786  0.6678  0.2183
  486MOL0     H64136   5.512   9.323  -0.421 -1.6597 -3.6520 -3.0424
  486MOL0     H64137   5.692   9.436  -0.303 -2.1192 -0.1002  0.5777
  486MOL0     H64138   6.688  10.606   0.623 -1.0070 -2.5674  0.7474
  486MOL0     H64139   6.653  10.788   0.787 -0.0143  0.9506 -5.2249
  486MOL0     H64140   6.913  11.106   1.020  0.8851 -0.3047  0.0928
  486MOL0     H64141   6.951  11.302   1.173 -0.1842  0.5879 -0.3344
  486MOL0     H64142   6.735  11.531   1.467  2.5017 -0.3164 -0.3326
  486MOL0     H64143   6.637  11.470   1.348 -1.4639 -1.4285  3.5999
  486MOL0     H64144   6.857  11.531   1.190 -1.7411 -1.4245  1.0782
  486MOL0     H64145   6.747  11.661   1.264  3.0925  3.1422  0.8238
  486MOL0     H64146   7.000  11.569   1.400  1.6616  1.4982 -0.1736
  486MOL0     H64147   6.882  11.703   1.419 -1.8090 -1.2391  1.3079
  486MOL0     H64148   6.977  11.817   1.237  0.5816  1.4972 -0.0155
  486MOL0     H64149   7.110  11.761   1.341 -4.7782  1.1683  5.1930
  486MOL0     H64150   7.130  11.508   0.981 -1.5883  0.3479 -0.1791
  486MOL0     H64151   6.602  11.180   1.393 -0.1697 -2.6017  0.1677
  486MOL0     H64152   6.587  10.980   1.255  0.6453 -1.2902 -1.7617
  487MOL0     O64153   3.460   0.603   4.544  0.0046  0.0339  0.2522
  487MOL0     C64154   3.501   0.714   4.505 -0.0294 -0.1221 -0.2792
  487MOL0     O64155   3.455   0.785   4.402 -0.6596  0.4687 -1.3427
  487MOL0     C64156   3.321   0.774   4.370  0.7912  0.2864  0.1017
  487MOL0     C64157   3.219   0.804   4.472  0.1925 -1.1524  0.7338
  487MOL0     C64158   3.079   0.805   4.436  0.0996  0.2896 -0.3144
  487MOL0     C64159   3.036   0.779   4.305 -0.3255  0.2880  0.0343
  487MOL0     O64160   2.905   0.804   4.266  0.3771 -0.0186 -0.8171
  487MOL0     C64161   2.869   0.944   4.258 -0.2018  0.2202 -0.2622
  487MOL0     C64162   2.732   0.965   4.206 -0.5042  0.9368  0.8865
  487MOL0     C64163   2.611   0.925   4.294  0.5950  0.1212 -0.0757
  487MOL0     C64164   2.476   0.961   4.242  0.0971  1.0536 -0.3407
  487MOL0     C64165   2.367   0.877   4.305  0.6877  0.0635  0.0386
  487MOL0     C64166   2.225   0.934   4.285  0.0863 -0.8711  1.3136
  487MOL0     C64167   2.184   0.966   4.144  0.2033  0.4000 -0.8586
  487MOL0     C64168   2.031   0.981   4.132 -0.2324  0.5757  0.5116
  487MOL0     N64169   1.988   1.088   4.226  0.3263  0.0717  0.5926
  487MOL0     C64170   1.884   1.068   4.315 -0.6742  0.2217 -0.4839
  487MOL0     C64171   1.840   1.191   4.368  0.8996  0.1893  0.0742
  487MOL0     C64172   1.750   1.228   4.484 -0.2934  0.5655  0.6857
  487MOL0     C64173   1.599   1.223   4.440  0.0392  0.2287 -0.3967
  487MOL0     C64174   1.547   1.327   4.340  0.2601  0.4911 -0.0271
  487MOL0     C64175   1.392   1.293   4.319  0.2212 -0.5228 -0.3231
  487MOL0     O64176   1.337   1.373   4.212  0.1412  0.6254  0.6848
  487MOL0     C64177   1.204   1.361   4.177 -0.2632 -0.5857 -0.4503
  487MOL0     C64178   1.177   1.366   4.041 -0.2773 -0.6496  0.7880
  487MOL0     C64179   1.047   1.355   3.990 -0.2880  0.9880 -0.4777
  487MOL0     C64180   0.941   1.341   4.072 -0.8853  0.4263 -0.1190
  487MOL0     C64181   0.809   1.321   4.019 -0.2411  0.7954  0.5208
  487MOL0     O64182   0.807   1.322   3.882  0.6063 -0.2211  0.5328
  487MOL0     C64183   0.689   1.334   3.813  0.3301 -0.1370  0.1326
  487MOL0     C64184   0.693   1.366   3.674  0.6525  0.2999  0.7775
  487MOL0     C64185   0.578   1.383   3.592 -0.0064  0.2954 -0.6744
  487MOL0     C64186   0.450   1.364   3.643  0.3004  1.3816 -0.7703
  487MOL0     O64187   0.350   1.396   3.557  0.2794 -0.7356  0.0363
  487MOL0     C64188   0.226   1.440   3.607 -0.0689 -0.8179 -0.2264
  487MOL0     C64189   0.121   1.323   3.605 -0.1682 -0.3975  0.2968
  487MOL0     C64190  -0.015   1.385   3.556  1.0769 -0.0534 -0.5684
  487MOL0     C64191  -0.132   1.279   3.551 -0.9663 -0.1358  0.5019
  487MOL0     C64192  -0.272   1.335   3.525 -0.9741  0.3773 -1.0796
  487MOL0     C64193  -0.278   1.388   3.378 -0.1598 -0.0602 -0.3794
  487MOL0     C64194  -0.403   1.461   3.347  0.6301  0.4497 -0.6670
  487MOL0     C64195  -0.541   1.400   3.354  0.1357  0.4780  0.0760
  487MOL0    Cl64196  -0.665   1.520   3.311 -0.3829  0.1003 -0.2678
  487MOL0     C64197   0.442   1.314   3.778  0.0037 -0.1596  0.0678
  487MOL0     C64198   0.553   1.297   3.861  0.8553  0.6076 -0.5818
  487MOL0     O64199   0.720   1.300   4.102  0.3328  0.0990 -0.0969
  487MOL0     C64200   0.963   1.333   4.213  0.5321  0.1096  0.3233
  487MOL0     C64201   1.095   1.346   4.266  0.1781  0.2216 -0.0695
  487MOL0     N64202   1.911   1.279   4.285  0.1375  0.2594  0.1786
  487MOL0     N64203   1.999   1.220   4.208  0.3507  0.5350 -0.0175
  487MOL0     C64204   3.140   0.731   4.224 -0.5327 -0.2019  0.1628
  487MOL0     C64205   3.274   0.715   4.261  0.5506 -0.7059  0.7295
  487MOL0     C64206   3.630   0.751   4.567  0.6005  0.6667 -0.1355
  487MOL0     C64207   3.732   0.659   4.598 -0.3927  1.4935 -0.3238
  487MOL0     C64208   3.855   0.703   4.645 -0.3248 -0.4185 -0.3718
  487MOL0     C64209   3.867   0.839   4.680 -0.4048 -0.0958 -0.1528
  487MOL0     O64210   3.981   0.889   4.735 -0.4037 -0.0840  0.0048
  487MOL0     C64211   4.092   0.811   4.774 -0.4083 -0.2508  0.5440
  487MOL0     C64212   4.201   0.908   4.836  0.1115  0.1763  0.5521
  487MOL0     C64213   4.220   1.029   4.740  0.2764 -0.1625  0.3591
  487MOL0     C64214   4.331   1.127   4.789 -0.0765 -0.9393  0.2188
  487MOL0     C64215   4.289   1.216   4.902 -0.5319  0.5149 -0.0673
  487MOL0     C64216   4.257   1.297   4.990  0.1454 -1.2326  1.4083
  487MOL0     C64217   3.758   0.926   4.674 -0.3155  0.0722 -0.5563
  487MOL0     C64218   3.635   0.888   4.605 -0.1544  0.0725  0.5444
  487MOL0     H64219   3.252   0.831   4.571 -0.3506  0.8510  0.4112
  487MOL0     H64220   3.005   0.844   4.506 -0.4290  0.9301 -1.2142
  487MOL0     H64221   2.944   0.989   4.192  0.2490  0.2950  0.2933
  487MOL0     H64222   2.876   1.001   4.352 -0.5931 -2.1925  1.3146
  487MOL0     H64223   2.728   0.918   4.107  0.8344 -0.4391  1.4352
  487MOL0     H64224   2.725   1.070   4.175 -1.8263 -0.0256 -2.5229
  487MOL0     H64225   2.621   0.958   4.398 -2.1424 -0.7588  0.5437
  487MOL0     H64226   2.622   0.819   4.318  0.7568  0.6849  2.6777
  487MOL0     H64227   2.447   1.064   4.264  1.0028  1.3478 -0.5142
  487MOL0     H64228   2.474   0.946   4.133  1.6093 -2.0155 -0.0469
  487MOL0     H64229   2.391   0.871   4.411  0.4122  0.4235  0.1220
  487MOL0     H64230   2.364   0.774   4.268 -1.6017  0.5673 -1.4044
  487MOL0     H64231   2.226   1.029   4.338  2.4631 -1.9096  3.3356
  487MOL0     H64232   2.153   0.866   4.331 -1.7639  0.1899  0.1334
  487MOL0     H64233   2.232   1.054   4.100 -0.6139  2.9374  2.8795
  487MOL0     H64234   2.207   0.878   4.084  0.5744  1.7356 -2.7822
  487MOL0     H64235   1.982   0.888   4.159 -1.2948  0.9055 -0.1985
  487MOL0     H64236   1.991   0.985   4.030 -0.1371 -3.4954  0.1654
  487MOL0     H64237   1.844   0.975   4.354  0.5864 -0.1182  0.0591
  487MOL0     H64238   1.774   1.328   4.521  0.7599 -0.8536  4.2073
  487MOL0     H64239   1.756   1.153   4.563 -0.5385 -1.4702 -1.1361
  487MOL0     H64240   1.548   1.247   4.534  0.5377  0.6365 -0.2276
  487MOL0     H64241   1.574   1.125   4.398  3.2802  0.1699 -2.5263
  487MOL0     H64242   1.584   1.413   4.397  0.8579 -1.8578  3.3792
  487MOL0     H64243   1.596   1.312   4.243  0.6275  1.2132  0.0409
  487MOL0     H64244   1.341   1.305   4.415 -0.0914 -0.8827 -0.4458
  487MOL0     H64245   1.387   1.188   4.289  1.1643 -0.9319  0.8428
  487MOL0     H64246   1.253   1.392   3.967 -1.7342  0.2739 -0.4335
  487MOL0     H64247   1.029   1.371   3.884 -0.3445  0.8921 -0.4823
  487MOL0     H64248   0.791   1.369   3.627 -0.0587 -2.1995 -1.1118
  487MOL0     H64249   0.594   1.401   3.486 -0.1509 -1.4514 -1.0359
  487MOL0     H64250   0.191   1.517   3.537 -0.9419  1.1542  2.2328
  487MOL0     H64251   0.237   1.494   3.701  5.1454  1.8290 -1.9552
  487MOL0     H64252   0.096   1.290   3.706  2.5525 -1.9876  0.5747
  487MOL0     H64253   0.138   1.232   3.546 -1.5872 -1.5389  1.5820
  487MOL0     H64254   0.003   1.424   3.455  1.5494  1.0467 -0.0861
  487MOL0     H64255  -0.055   1.464   3.621 -0.2817 -1.6865  0.6448
  487MOL0     H64256  -0.130   1.204   3.472 -5.9390 -2.0896  1.7975
  487MOL0     H64257  -0.137   1.231   3.650  0.1863 -0.2153  0.5278
  487MOL0     H64258  -0.284   1.408   3.605 -2.8287  0.0937 -1.0533
  487MOL0     H64259  -0.349   1.256   3.525 -0.2537 -0.3489 -1.7006
  487MOL0     H64260  -0.270   1.311   3.300 -0.1680  1.8646 -2.3885
  487MOL0     H64261  -0.197   1.461   3.371  1.7766 -1.7006  2.7917
  487MOL0     H64262  -0.414   1.533   3.429 -1.3752  1.2274 -1.5402
  487MOL0     H64263  -0.393   1.515   3.252 -1.8401 -0.5553 -1.5883
  487MOL0     H64264  -0.564   1.352   3.449  1.1447 -0.0885  0.0411
  487MOL0     H64265  -0.565   1.320   3.283 -1.9577  0.4758  0.7031
  487MOL0     H64266   0.346   1.283   3.819  0.7920 -0.1407  2.0477
  487MOL0     H64267   0.528   1.277   3.964 -0.6854  1.5120 -0.7539
  487MOL0     H64268   0.878   1.324   4.279  0.7640  2.8436  1.1313
  487MOL0     H64269   1.095   1.338   4.375  0.8954  2.6515  0.1582
  487MOL0     H64270   3.112   0.698   4.125 -1.7458  0.1292  0.3841
  487MOL0     H64271   3.346   0.687   4.185 -2.6654 -2.3491 -1.9408
  487MOL0     H64272   3.721   0.556   4.569  1.1074  0.0237  3.6364
  487MOL0     H64273   3.943   0.643   4.663  0.1396  1.3637  4.8125
  487MOL0     H64274   4.136   0.770   4.683 -3.9041  0.3878 -1.5967
  487MOL0     H64275   4.064   0.743   4.855  1.9720  1.7202  3.2329
  487MOL0     H64276   4.159   0.947   4.929 -0.8077 -1.4637  0.8517
  487MOL0     H64277   4.294   0.853   4.852  0.2442  0.5970  1.2840
  487MOL0     H64278   4.130   1.091   4.739  0.9744  0.8927  1.4420
  487MOL0     H64279   4.255   1.002   4.640  2.4219 -1.9561  1.5214
  487MOL0     H64280   4.421   1.068   4.807 -0.4121 -1.0343  1.6856
  487MOL0     H64281   4.351   1.199   4.708 -0.7618  0.4477  1.2352
  487MOL0     H64282   4.216   1.375   5.052 -0.0587  0.6046 -0.9191
  487MOL0     H64283   3.767   1.032   4.697  0.4859  0.1565 -1.2035
  487MOL0     H64284   3.553   0.957   4.587 -1.5488 -1.5374  0.4758
  488MOL0     O64285   4.088   2.092   5.372  0.7042 -0.0819  0.6224
  488MOL0     C64286   4.148   2.061   5.472  0.1121 -0.1947 -0.0505
  488MOL0     O64287   4.124   2.112   5.589  0.8052 -0.1791 -1.0752
  488MOL0     C64288   4.029   2.204   5.602  1.1309 -1.2169  0.7411
  488MOL0     C64289   3.894   2.156   5.607  0.7403 -0.0127  0.3025
  488MOL0     C64290   3.786   2.239   5.614  0.6913 -0.4690 -0.6023
  488MOL0     C64291   3.805   2.373   5.646 -0.3867  0.1534  0.1185
  488MOL0     O64292   3.714   2.466   5.681 -0.0913 -0.1584  0.4066
  488MOL0     C64293   3.577   2.437   5.660 -0.6906  0.3429  0.2253
  488MOL0     C64294   3.474   2.550   5.690  0.8745 -0.2106 -0.1188
  488MOL0     C64295   3.515   2.670   5.603 -0.2358  0.4167 -0.1161
  488MOL0     C64296   3.462   2.800   5.648  0.9959 -1.2021 -0.4618
  488MOL0     C64297   3.313   2.814   5.672 -0.0987 -0.1559 -0.9746
  488MOL0     C64298   3.280   2.964   5.691 -0.6363 -0.3563  0.5868
  488MOL0     C64299   3.129   2.988   5.658 -0.4436  0.7460  0.4863
  488MOL0     C64300   3.105   3.132   5.632 -0.3343 -0.8741 -0.1183
  488MOL0     N64301   2.963   3.148   5.621 -0.4305 -0.0791 -0.4907
  488MOL0     C64302   2.876   3.140   5.724 -0.1859 -0.0070 -0.0924
  488MOL0     C64303   2.755   3.136   5.668  1.2789  0.5906  0.1524
  488MOL0     C64304   2.629   3.135   5.744  0.5418 -0.4016  0.0878
  488MOL0     C64305   2.549   3.268   5.700  0.2222  0.1666  0.5075
  488MOL0     C64306   2.395   3.242   5.682  0.8435  0.5239 -0.3104
  488MOL0     C64307   2.313   3.258   5.804  0.2379 -0.6247  0.6511
  488MOL0     O64308   2.177   3.238   5.764 -0.1045  0.1581  0.4519
  488MOL0     C64309   2.072   3.245   5.848  0.7437  0.0929 -0.9762
  488MOL0     C64310   1.935   3.216   5.811 -0.8960 -0.4075 -0.2064
  488MOL0     C64311   1.827   3.213   5.897 -0.3027  0.2577 -0.3843
  488MOL0     C64312   1.851   3.248   6.028  1.1841 -0.0933  0.0832
  488MOL0     C64313   1.737   3.251   6.126 -0.5398 -1.0072  0.3388
  488MOL0     O64314   1.607   3.236   6.075  0.3205  0.1023  0.9931
  488MOL0     C64315   1.497   3.209   6.149 -1.0912  0.6862  0.0014
  488MOL0     C64316   1.500   3.146   6.279  0.4620  0.4341 -0.0630
  488MOL0     C64317   1.376   3.135   6.349 -1.1657 -0.0709  0.0519
  488MOL0     C64318   1.253   3.181   6.291  0.5552  0.7634 -0.3940
  488MOL0     O64319   1.135   3.169   6.359 -0.0514  0.8114  0.7306
  488MOL0     C64320   1.051   3.078   6.293  1.0018  0.6562 -0.1311
  488MOL0     C64321   0.994   2.973   6.405 -0.5902 -1.1751  0.3044
  488MOL0     C64322   0.865   2.902   6.366 -0.1845 -0.1462  0.9016
  488MOL0     C64323   0.756   3.011   6.361 -0.9179  0.0077 -0.5924
  488MOL0     C64324   0.615   2.953   6.381  0.7087 -0.7924  0.6801
  488MOL0     C64325   0.548   2.867   6.286  0.1203  0.3335 -0.0636
  488MOL0     C64326   0.562   2.916   6.142  0.2389  0.0144 -0.0593
  488MOL0     C64327   0.493   2.818   6.035 -0.1338 -0.5312  0.0707
  488MOL0    Cl64328   0.323   2.819   6.078 -0.4403  0.0734  0.6007
  488MOL0     C64329   1.253   3.239   6.164  0.0561  0.2304  0.3352
  488MOL0     C64330   1.371   3.257   6.099 -1.0162 -0.0090  0.4878
  488MOL0     O64331   1.770   3.265   6.247  0.3980 -0.4331 -0.3073
  488MOL0     C64332   1.980   3.286   6.069  0.2638  1.0137  0.2018
  488MOL0     C64333   2.082   3.279   5.982 -0.5517 -0.6601  0.0781
  488MOL0     N64334   2.772   3.151   5.524 -0.4490 -0.4471  0.0542
  488MOL0     N64335   2.896   3.152   5.499  1.2888  0.3788 -0.1566
  488MOL0     C64336   3.933   2.412   5.655 -0.0191 -0.1828 -0.2762
  488MOL0     C64337   4.049   2.335   5.627 -0.1152  0.2776 -0.3736
  488MOL0     C64338   4.266   1.983   5.456  0.3170 -0.0285 -0.1383
  488MOL0     C64339   4.277   1.894   5.348 -0.2468 -0.7505 -0.5578
  488MOL0     C64340   4.392   1.807   5.335  0.1048  0.1136 -0.5519
  488MOL0     C64341   4.496   1.812   5.428 -0.4019  1.2939 -0.9764
  488MOL0     O64342   4.619   1.756   5.410  0.4773  0.1548  0.7315
  488MOL0     C64343   4.650   1.678   5.300  0.1247 -0.0256  1.1485
  488MOL0     C64344   4.795   1.639   5.318 -1.0376 -0.0295 -0.5930
  488MOL0     C64345   4.807   1.546   5.447 -0.4832 -0.0532 -0.2777
  488MOL0     C64346   4.792   1.389   5.430 -0.2357  0.0891  0.3938
  488MOL0     C64347   4.913   1.317   5.462 -0.5424 -0.3581 -0.9877
  488MOL0     C64348   5.020   1.262   5.491  0.0811 -1.1423 -0.4429
  488MOL0     C64349   4.482   1.888   5.546  0.4092  0.3358  0.5673
  488MOL0     C64350   4.367   1.972   5.555  0.7491 -0.1393 -0.2677
  488MOL0     H64351   3.881   2.050   5.592 -4.2963  0.0609  2.3602
  488MOL0     H64352   3.688   2.192   5.605 -0.1797  1.1720 -0.1539
  488MOL0     H64353   3.557   2.361   5.736  3.5499  0.2423  1.5158
  488MOL0     H64354   3.549   2.403   5.559 -1.7708 -1.5389  1.0981
  488MOL0     H64355   3.480   2.588   5.792 -0.9950  2.2680 -0.8404
  488MOL0     H64356   3.373   2.524   5.657  1.4261  1.2618 -3.4206
  488MOL0     H64357   3.483   2.659   5.499  1.2131  1.1121 -0.6755
  488MOL0     H64358   3.624   2.680   5.605 -0.2542  0.7942  2.0885
  488MOL0     H64359   3.512   2.836   5.739 -1.0170  0.0411  0.2338
  488MOL0     H64360   3.493   2.878   5.578  1.5486 -1.1918 -0.2056
  488MOL0     H64361   3.268   2.756   5.753  0.1537  1.1369  0.1326
  488MOL0     H64362   3.265   2.779   5.581 -0.5264  2.9319 -2.0547
  488MOL0     H64363   3.344   3.019   5.622 -2.7202 -0.7103 -1.7809
  488MOL0     H64364   3.305   3.001   5.791 -1.9405 -0.1588  0.8691
  488MOL0     H64365   3.086   2.923   5.582  0.5337  0.6629 -0.0210
  488MOL0     H64366   3.072   2.948   5.742 -0.2573 -0.7088 -0.0488
  488MOL0     H64367   3.148   3.157   5.534  0.1841 -0.1232  0.2925
  488MOL0     H64368   3.132   3.194   5.718  0.7442  0.7932 -1.5848
  488MOL0     H64369   2.895   3.155   5.830 -2.9500  2.5923  0.1998
  488MOL0     H64370   2.669   3.141   5.846  0.9716 -1.0655 -0.0342
  488MOL0     H64371   2.567   3.045   5.737 -2.3088  1.4676 -0.4724
  488MOL0     H64372   2.585   3.305   5.604  2.8679 -1.1806  0.9094
  488MOL0     H64373   2.564   3.346   5.776  2.2518 -2.3676  2.8953
  488MOL0     H64374   2.363   3.310   5.602  3.9490  1.0924 -1.2216
  488MOL0     H64375   2.382   3.139   5.648  3.0540 -0.3268  1.1803
  488MOL0     H64376   2.323   3.357   5.850 -0.3980  0.1660 -0.8568
  488MOL0     H64377   2.335   3.185   5.882 -1.3778 -1.3394  0.4820
  488MOL0     H64378   1.926   3.202   5.704  1.2675  4.3919 -1.2563
  488MOL0     H64379   1.733   3.190   5.849  0.9237  1.2760 -3.5026
  488MOL0     H64380   1.593   3.113   6.325  0.4897 -4.2815 -2.8724
  488MOL0     H64381   1.386   3.100   6.452 -0.2263 -1.6278 -0.5302
  488MOL0     H64382   1.104   3.034   6.208  3.0558  2.9960 -0.1732
  488MOL0     H64383   0.968   3.130   6.244 -0.6308  1.2003  3.0028
  488MOL0     H64384   0.980   3.035   6.494  0.5537  2.2485 -1.6795
  488MOL0     H64385   1.069   2.901   6.436  0.2282 -0.6304 -0.3630
  488MOL0     H64386   0.840   2.828   6.443 -0.8065 -1.0868 -0.1800
  488MOL0     H64387   0.873   2.849   6.271 -1.8547  1.3572 -0.1550
  488MOL0     H64388   0.769   3.079   6.446 -1.1615 -1.2193  0.4689
  488MOL0     H64389   0.772   3.075   6.274  0.0667  2.4473  1.2641
  488MOL0     H64390   0.547   3.039   6.386  1.4968 -0.0243 -0.8354
  488MOL0     H64391   0.597   2.903   6.476 -0.9770  0.1783  0.9088
  488MOL0     H64392   0.441   2.868   6.312 -0.0520  4.1163 -0.4240
  488MOL0     H64393   0.583   2.763   6.282 -3.0815 -0.9139  0.9337
  488MOL0     H64394   0.522   3.018   6.145 -1.1195 -0.4904  2.3640
  488MOL0     H64395   0.666   2.934   6.114 -0.4226 -0.7580 -3.4841
  488MOL0     H64396   0.544   2.721   6.040  1.3554  0.2827  1.9212
  488MOL0     H64397   0.514   2.864   5.938 -1.0492 -1.1498 -0.4343
  488MOL0     H64398   1.168   3.280   6.110  0.4544 -2.4977 -2.6812
  488MOL0     H64399   1.384   3.300   6.000 -1.5180  0.3630  0.5819
  488MOL0     H64400   1.993   3.329   6.168  0.2147  0.2703  0.5383
  488MOL0     H64401   2.181   3.311   6.011 -0.4019 -1.0526  0.0006
  488MOL0     H64402   3.951   2.516   5.681 -1.3252  0.0267 -0.1216
  488MOL0     H64403   4.146   2.380   5.643  0.9354 -0.9878 -2.6139
  488MOL0     H64404   4.206   1.890   5.266 -0.2201  3.5872 -0.9874
  488MOL0     H64405   4.393   1.744   5.246 -2.1356 -1.3705  0.3587
  488MOL0     H64406   4.635   1.719   5.200 -0.0480 -1.6967  0.4513
  488MOL0     H64407   4.595   1.583   5.301  0.2699 -0.1129  0.9499
  488MOL0     H64408   4.829   1.594   5.224 -1.3828 -1.5884  0.0133
  488MOL0     H64409   4.844   1.737   5.327 -1.6603  0.1080  1.9342
  488MOL0     H64410   4.747   1.582   5.530  1.1232 -0.2786  1.0302
  488MOL0     H64411   4.912   1.557   5.477 -0.3815  1.8047 -1.1245
  488MOL0     H64412   4.700   1.378   5.488 -1.5254  3.6129 -0.7046
  488MOL0     H64413   4.763   1.358   5.329 -0.9264  1.6050  0.0947
  488MOL0     H64414   5.121   1.226   5.484  1.1720  1.7899 -1.4586
  488MOL0     H64415   4.567   1.902   5.611 -0.8962  2.1838  1.9605
  488MOL0     H64416   4.365   2.027   5.648 -0.9210 -2.3694  1.1012
  489MOL0     O64417   4.043   8.633   9.193 -0.4833 -0.3794  0.4436
  489MOL0     C64418   4.076   8.645   9.075  0.4828  0.5286  0.4375
  489MOL0     O64419   4.173   8.715   9.031  0.3491 -0.1329 -0.0164
  489MOL0     C64420   4.252   8.780   9.115 -0.1016 -0.4168 -0.6257
  489MOL0     C64421   4.386   8.766   9.086  0.2077  0.2542 -0.2052
  489MOL0     C64422   4.483   8.831   9.165  0.3884 -0.0194 -0.3430
  489MOL0     C64423   4.436   8.907   9.273 -0.8165 -0.0009  0.9027
  489MOL0     O64424   4.517   8.972   9.362  0.2732  0.0141  0.2375
  489MOL0     C64425   4.650   8.982   9.321  0.0357 -0.2875 -0.0647
  489MOL0     C64426   4.721   9.060   9.428  0.7079  0.8125 -0.7639
  489MOL0     C64427   4.704   9.013   9.576 -0.2515 -0.1468  0.2848
  489MOL0     C64428   4.762   9.110   9.683 -0.5164  0.1922 -0.6511
  489MOL0     C64429   4.811   9.025   9.804 -0.7096  0.3599  0.1711
  489MOL0     C64430   4.944   8.952   9.752 -0.0900 -0.3156 -0.9085
  489MOL0     C64431   5.008   8.852   9.842 -0.1261 -0.4653  0.9814
  489MOL0     C64432   5.161   8.878   9.865 -1.0253  0.3514  0.3901
  489MOL0     N64433   5.191   9.020   9.904 -0.4339  0.2696  0.4568
  489MOL0     C64434   5.151   9.085  10.014  0.0955 -0.3467 -0.5724
  489MOL0     C64435   5.193   9.211   9.996  0.2699 -0.7640 -0.1659
  489MOL0     C64436   5.162   9.337  10.087 -0.3287  0.5794  0.0488
  489MOL0     C64437   5.034   9.413  10.052  0.4497  0.7136  1.1367
  489MOL0     C64438   5.051   9.547  10.129 -1.2955 -0.2628 -0.0598
  489MOL0     C64439   4.936   9.640  10.094 -0.3110 -0.1748  0.2417
  489MOL0     O64440   4.818   9.590  10.152  0.4481 -0.0221  0.6025
  489MOL0     C64441   4.693   9.628  10.096 -0.0344  0.5056 -0.3732
  489MOL0     C64442   4.669   9.734  10.008  0.0812 -1.4513 -0.4319
  489MOL0     C64443   4.543   9.767   9.965 -1.1013  0.0662  0.8392
  489MOL0     C64444   4.437   9.684  10.009  0.1768 -0.0053  0.6550
  489MOL0     C64445   4.296   9.717   9.975  0.2455  0.5522 -0.0616
  489MOL0     O64446   4.267   9.841   9.925  0.1942 -0.2185  0.6914
  489MOL0     C64447   4.135   9.877   9.904 -0.5332 -0.1486 -0.1554
  489MOL0     C64448   4.088   9.990   9.970 -1.1818  0.5094 -0.9104
  489MOL0     C64449   3.957  10.023   9.953  0.4896  0.5233  0.6147
  489MOL0     C64450   3.873   9.957   9.869 -0.1056 -0.4511  0.3462
  489MOL0     O64451   3.746  10.014   9.860  0.0235  0.5496 -0.6972
  489MOL0     C64452   3.635   9.927   9.838  0.6737 -0.1840  0.4554
  489MOL0     C64453   3.521  10.020   9.807 -0.4818 -0.8615  0.3575
  489MOL0     C64454   3.386   9.958   9.799  0.1360  0.4283  0.2123
  489MOL0     C64455   3.330   9.941   9.945 -0.4419 -0.4092  0.0482
  489MOL0     C64456   3.202  10.019   9.986 -0.4287 -0.5878  1.5727
  489MOL0     C64457   3.214  10.166   9.974  0.0531  0.8783  0.2107
  489MOL0     C64458   3.101  10.239  10.054  0.9271 -0.3289  0.6001
  489MOL0     C64459   2.949  10.207  10.007 -0.1715  1.0286  0.0234
  489MOL0    Cl64460   2.825  10.308  10.086  0.2891 -0.2063  0.2357
  489MOL0     C64461   3.918   9.854   9.789  0.7013 -0.0328 -0.2370
  489MOL0     C64462   4.055   9.812   9.811 -0.3480  0.6190 -0.1207
  489MOL0     O64463   4.208   9.631   9.999 -0.0337 -0.6499 -0.0037
  489MOL0     C64464   4.454   9.578  10.098 -0.1686 -0.1206  0.2149
  489MOL0     C64465   4.578   9.553  10.149 -0.2356  0.7116  0.0945
  489MOL0     N64466   5.262   9.220   9.878  0.0240 -0.2457 -0.1419
  489MOL0     N64467   5.266   9.101   9.831  0.0980 -0.2445  0.1125
  489MOL0     C64468   4.300   8.925   9.292 -0.0384 -0.9072  0.8505
  489MOL0     C64469   4.199   8.863   9.215 -1.0408 -0.2135 -0.1441
  489MOL0     C64470   3.999   8.565   8.977 -0.3197  0.1982 -0.4699
  489MOL0     C64471   4.020   8.586   8.844 -0.3722  0.0869  0.0110
  489MOL0     C64472   3.976   8.494   8.749 -1.0547 -0.4375 -0.8540
  489MOL0     C64473   3.888   8.390   8.785  0.4548  0.1061 -1.2421
  489MOL0     O64474   3.847   8.307   8.685  0.6658 -0.2658  0.4657
  489MOL0     C64475   3.843   8.160   8.705  0.8907 -0.2797 -1.0021
  489MOL0     C64476   3.701   8.112   8.750  1.0690 -0.7742  0.2243
  489MOL0     C64477   3.686   7.966   8.698 -0.2272  0.4487 -0.4832
  489MOL0     C64478   3.558   7.893   8.752 -0.5505  0.3825 -0.9523
  489MOL0     C64479   3.571   7.748   8.763 -0.2323 -0.4345 -0.4335
  489MOL0     C64480   3.597   7.632   8.780 -0.3073  0.0551 -0.6816
  489MOL0     C64481   3.848   8.376   8.921 -0.0738 -0.1201  0.4174
  489MOL0     C64482   3.910   8.460   9.013 -0.1784 -0.1083 -0.8016
  489MOL0     H64483   4.423   8.715   8.997  0.2704  1.8454 -1.1246
  489MOL0     H64484   4.590   8.818   9.152  0.3633 -1.2346  0.4386
  489MOL0     H64485   4.658   9.046   9.233  0.3131 -1.6725 -1.0705
  489MOL0     H64486   4.697   8.883   9.315 -0.5683 -0.4935 -1.9617
  489MOL0     H64487   4.708   9.168   9.413 -0.1391  0.8015 -0.1919
  489MOL0     H64488   4.830   9.055   9.419  0.8148  2.3083 -0.5611
  489MOL0     H64489   4.743   8.913   9.597  1.2591  0.2678 -0.4225
  489MOL0     H64490   4.598   8.991   9.594  0.3093 -2.7478  0.8466
  489MOL0     H64491   4.841   9.177   9.647  1.1925  0.3667  3.0093
  489MOL0     H64492   4.684   9.175   9.724 -1.4474 -1.2627 -0.0440
  489MOL0     H64493   4.742   8.945   9.831 -0.1275 -0.2229 -0.0557
  489MOL0     H64494   4.831   9.084   9.894  2.7593  1.2269 -1.0109
  489MOL0     H64495   5.015   9.033   9.732  3.3573 -3.0250 -0.5615
  489MOL0     H64496   4.935   8.897   9.658  4.1907  0.5784 -2.0570
  489MOL0     H64497   4.963   8.852   9.941  0.1184  2.4639  1.1816
  489MOL0     H64498   4.997   8.755   9.792  0.5138 -0.1443  0.1866
  489MOL0     H64499   5.209   8.852   9.770  0.3065  0.0406  1.1390
  489MOL0     H64500   5.197   8.808   9.940 -1.0670 -1.2477 -1.0203
  489MOL0     H64501   5.087   9.044  10.091 -0.7988  1.0991 -0.5031
  489MOL0     H64502   5.241   9.407  10.060  0.6469  1.7412  5.0057
  489MOL0     H64503   5.167   9.315  10.194  2.6046 -1.9159 -0.4642
  489MOL0     H64504   4.947   9.349  10.073  1.1166 -1.0647 -1.0518
  489MOL0     H64505   5.040   9.432   9.945 -1.9897  1.0989  1.0194
  489MOL0     H64506   5.057   9.526  10.237 -1.6207 -3.2997 -0.5473
  489MOL0     H64507   5.143   9.601  10.105 -0.6042 -0.6608  1.5396
  489MOL0     H64508   4.931   9.629   9.986  0.9265 -1.4817  0.2848
  489MOL0     H64509   4.956   9.744  10.122  0.5782 -0.1378 -0.4776
  489MOL0     H64510   4.740   9.812   9.982 -3.0025  2.5405  1.9108
  489MOL0     H64511   4.523   9.850   9.899  2.8659  0.5897  0.0776
  489MOL0     H64512   4.147  10.042  10.044 -1.5050  0.2408 -0.4616
  489MOL0     H64513   3.911  10.109  10.001 -1.3700 -0.1941  0.1579
  489MOL0     H64514   3.613   9.870   9.929 -2.0011  1.4674  0.9673
  489MOL0     H64515   3.649   9.859   9.753  1.7839 -1.5268  1.6612
  489MOL0     H64516   3.529  10.061   9.706 -2.6968  0.7458  0.7777
  489MOL0     H64517   3.526  10.105   9.875  1.4511 -0.1384 -0.5915
  489MOL0     H64518   3.383   9.872   9.732 -3.2994  0.6466 -0.1144
  489MOL0     H64519   3.318  10.029   9.751  1.2116  1.7472  0.5688
  489MOL0     H64520   3.304   9.834   9.951 -1.7540 -0.3233 -2.6935
  489MOL0     H64521   3.398   9.962  10.028 -1.0170 -0.8047  0.6309
  489MOL0     H64522   3.184  10.001  10.092  1.9988  3.6478  2.9327
  489MOL0     H64523   3.120   9.984   9.923 -0.8386  1.0056  1.1579
  489MOL0     H64524   3.217  10.206   9.873 -2.1606  4.8460  1.4946
  489MOL0     H64525   3.306  10.201  10.021 -0.1537  5.0754 -2.0067
  489MOL0     H64526   3.114  10.223  10.162  1.6463 -3.2123  0.1700
  489MOL0     H64527   3.115  10.347  10.040 -1.7190  0.0364  0.3283
  489MOL0     H64528   2.928  10.101  10.023 -1.5597  1.1245 -0.9812
  489MOL0     H64529   2.946  10.232   9.901 -1.5708 -1.6804 -0.6736
  489MOL0     H64530   3.861   9.796   9.716  0.2166  0.6134 -0.3734
  489MOL0     H64531   4.109   9.735   9.757 -2.9423 -1.7375  0.4529
  489MOL0     H64532   4.375   9.519  10.144  0.0558 -0.6177 -0.0276
  489MOL0     H64533   4.593   9.476  10.224  0.2813  0.0059 -0.7203
  489MOL0     H64534   4.269   8.995   9.370 -0.6422  0.1618 -0.2981
  489MOL0     H64535   4.095   8.887   9.231 -1.3473 -0.4608 -1.6322
  489MOL0     H64536   4.095   8.658   8.813 -0.6805  0.2099 -0.4593
  489MOL0     H64537   4.008   8.502   8.646 -0.3674  1.9322 -0.5143
  489MOL0     H64538   3.912   8.135   8.786 -0.1322 -0.6973 -0.2520
  489MOL0     H64539   3.880   8.109   8.615  0.2482 -2.3162 -0.1724
  489MOL0     H64540   3.701   8.104   8.859 -0.4862 -1.2797  0.2099
  489MOL0     H64541   3.619   8.178   8.720  1.3412  0.1342  1.3932
  489MOL0     H64542   3.767   7.903   8.735  1.1583  2.2624 -0.2867
  489MOL0     H64543   3.686   7.971   8.588 -0.2495  0.7465 -0.4701
  489MOL0     H64544   3.540   7.926   8.855 -1.0584  0.3781 -1.0361
  489MOL0     H64545   3.465   7.916   8.698 -1.4295 -3.2539 -1.2560
  489MOL0     H64546   3.623   7.528   8.774  0.1108  0.1760 -1.0567
  489MOL0     H64547   3.763   8.311   8.937 -2.7264  2.8508 -0.5255
  489MOL0     H64548   3.893   8.471   9.120  3.1757  0.6982 -0.2182
  490MOL0     O64549   8.466   6.953   9.144  0.4221 -0.1171  0.0915
  490MOL0     C64550   8.531   7.019   9.069 -0.7545 -0.5330 -0.1222
  490MOL0     O64551   8.490   7.121   8.986  0.5267 -0.0460 -0.1481
  490MOL0     C64552   8.352   7.152   8.980 -0.2467 -0.5679 -0.5296
  490MOL0     C64553   8.284   7.192   9.095  0.7070 -0.8762 -0.3675
  490MOL0     C64554   8.153   7.248   9.087  1.2277  0.1589 -0.3246
  490MOL0     C64555   8.084   7.265   8.964  0.3692  0.5938 -0.8892
  490MOL0     O64556   7.955   7.312   8.949  0.0698  0.3112  1.0659
  490MOL0     C64557   7.885   7.352   9.068  0.2253  0.6888  0.0930
  490MOL0     C64558   7.740   7.391   9.039  1.0442 -0.2118  0.1659
  490MOL0     C64559   7.639   7.273   9.078  0.0116 -0.7238  0.6570
  490MOL0     C64560   7.497   7.309   9.034  1.0462 -0.0814 -0.3574
  490MOL0     C64561   7.399   7.196   9.091 -1.2841 -0.1251 -0.6714
  490MOL0     C64562   7.253   7.205   9.063 -0.2737 -0.4035  0.4896
  490MOL0     C64563   7.215   7.189   8.911 -0.4961  1.0730 -0.6003
  490MOL0     C64564   7.226   7.040   8.863 -0.4628  0.3966 -0.1752
  490MOL0     N64565   7.136   6.953   8.938 -0.0056 -1.1076 -0.0262
  490MOL0     C64566   7.002   6.970   8.966 -0.1008 -0.5340 -0.1586
  490MOL0     C64567   6.977   6.877   9.058  1.0983  0.5334 -0.4558
  490MOL0     C64568   6.845   6.842   9.126 -0.7386 -0.6083 -0.0813
  490MOL0     C64569   6.838   6.922   9.254 -0.6369  0.4394 -0.3630
  490MOL0     C64570   6.943   6.879   9.363  1.0019 -0.7237  0.1146
  490MOL0     C64571   6.935   6.729   9.405 -0.5658 -0.0125 -0.9025
  490MOL0     O64572   6.982   6.716   9.539 -0.2075  0.4286  0.2375
  490MOL0     C64573   7.119   6.712   9.564  0.7702 -0.7588 -0.0644
  490MOL0     C64574   7.209   6.703   9.464 -0.1324 -0.1118  0.2214
  490MOL0     C64575   7.339   6.693   9.498 -0.2723 -0.3670 -0.1205
  490MOL0     C64576   7.384   6.710   9.632  0.4563 -0.8605  0.4766
  490MOL0     C64577   7.529   6.712   9.656  0.0051  0.4881 -0.2222
  490MOL0     O64578   7.612   6.652   9.567 -0.0626 -0.0320 -0.0514
  490MOL0     C64579   7.743   6.623   9.584 -0.8836  0.0112 -0.1312
  490MOL0     C64580   7.832   6.738   9.581  0.1737  0.3232  0.0480
  490MOL0     C64581   7.974   6.732   9.587  0.4801  0.5240 -0.1855
  490MOL0     C64582   8.023   6.605   9.581 -0.1871  0.0244 -0.2579
  490MOL0     O64583   8.163   6.597   9.567 -0.1177  0.8263 -0.1958
  490MOL0     C64584   8.214   6.635   9.442 -0.0925 -0.5526  0.6163
  490MOL0     C64585   8.365   6.684   9.449 -0.2901  0.6050 -0.6417
  490MOL0     C64586   8.451   6.556   9.464  0.1204 -0.0530  0.3753
  490MOL0     C64587   8.595   6.591   9.457 -0.1883  0.1894  0.1214
  490MOL0     C64588   8.691   6.469   9.432  0.0876 -0.5479 -0.1471
  490MOL0     C64589   8.711   6.381   9.559 -1.5778  0.4607 -0.5432
  490MOL0     C64590   8.826   6.274   9.533  0.9297 -0.3785  0.4630
  490MOL0     C64591   8.958   6.312   9.595 -0.0512  0.7906 -0.7421
  490MOL0    Cl64592   9.061   6.413   9.495  0.1910 -0.3755 -0.6497
  490MOL0     C64593   7.941   6.489   9.585  0.4848  0.0680  0.6185
  490MOL0     C64594   7.799   6.494   9.583 -0.9445 -0.1675 -0.2051
  490MOL0     O64595   7.557   6.743   9.775  0.7830 -0.2974  0.2729
  490MOL0     C64596   7.283   6.723   9.731 -0.0163  0.1469 -0.6617
  490MOL0     C64597   7.149   6.726   9.701  0.2917  0.3131  0.4379
  490MOL0     N64598   7.085   6.801   9.089 -0.0986  0.1327  0.6280
  490MOL0     N64599   7.186   6.855   9.016 -0.7394 -0.2296  0.2988
  490MOL0     C64600   8.144   7.212   8.852 -0.1887 -0.2689  0.3245
  490MOL0     C64601   8.285   7.157   8.863  0.5713  0.4441  0.7775
  490MOL0     C64602   8.683   6.995   9.061 -0.4488 -0.1003  0.5143
  490MOL0     C64603   8.769   7.075   8.979  1.0164 -0.4069  0.4535
  490MOL0     C64604   8.905   7.052   8.963  0.0884  0.0724 -0.1111
  490MOL0     C64605   8.958   6.925   9.009 -0.7847  0.4186 -0.3314
  490MOL0     O64606   9.088   6.880   8.995  0.4370 -0.5335  0.1229
  490MOL0     C64607   9.185   6.970   8.944  1.2851  0.6455 -0.2739
  490MOL0     C64608   9.321   6.894   8.929  0.0785  0.3565  0.5652
  490MOL0     C64609   9.432   6.973   8.858 -0.7462  0.6962 -0.0102
  490MOL0     C64610   9.572   6.949   8.911 -1.6010  0.5432 -0.9856
  490MOL0     C64611   9.569   7.009   9.039  0.1402  0.6078 -0.4091
  490MOL0     C64612   9.565   7.072   9.143  0.3870  0.8917  0.5743
  490MOL0     C64613   8.879   6.838   9.079 -0.0751 -0.2084 -0.0468
  490MOL0     C64614   8.739   6.872   9.101 -0.2489  0.2962 -1.8425
  490MOL0     H64615   8.334   7.193   9.191 -1.8300 -1.2002  1.0406
  490MOL0     H64616   8.111   7.291   9.178  0.4702 -0.6632 -0.2735
  490MOL0     H64617   7.941   7.434   9.115 -0.4102  0.8656  0.5587
  490MOL0     H64618   7.881   7.262   9.130  3.1991 -0.3058 -0.9898
  490MOL0     H64619   7.723   7.427   8.937 -4.1626  0.4481  0.9418
  490MOL0     H64620   7.712   7.473   9.107 -2.7903 -1.4724  0.3626
  490MOL0     H64621   7.649   7.261   9.186  5.7624  0.0729  0.5300
  490MOL0     H64622   7.661   7.182   9.022  1.4762  0.7004 -1.1935
  490MOL0     H64623   7.466   7.409   9.066  1.2715  0.9435 -3.0927
  490MOL0     H64624   7.487   7.308   8.925 -4.3028 -0.4769 -0.1491
  490MOL0     H64625   7.413   7.214   9.198 -1.1076  0.8675 -0.8475
  490MOL0     H64626   7.444   7.099   9.069 -0.2692 -0.1075  1.1225
  490MOL0     H64627   7.236   7.309   9.092  0.7477 -0.0863  0.0077
  490MOL0     H64628   7.191   7.142   9.128  0.3944 -2.1262 -0.4924
  490MOL0     H64629   7.112   7.227   8.902 -0.8630  0.0265 -0.8751
  490MOL0     H64630   7.290   7.252   8.862  0.9154  0.3680  0.5930
  490MOL0     H64631   7.329   7.005   8.863 -0.1349  1.2649 -1.9817
  490MOL0     H64632   7.187   7.045   8.761 -4.0874  1.0518  1.0768
  490MOL0     H64633   6.931   7.043   8.929  1.1945  0.0337 -1.6758
  490MOL0     H64634   6.840   6.738   9.160  0.3030 -0.6406  0.0185
  490MOL0     H64635   6.763   6.864   9.058 -2.7477  0.8391  2.6144
  490MOL0     H64636   6.738   6.910   9.297 -0.2385 -0.3695  0.3665
  490MOL0     H64637   6.843   7.028   9.228 -0.7410  0.0444 -2.1570
  490MOL0     H64638   7.041   6.905   9.323  0.1709 -0.8652 -2.1873
  490MOL0     H64639   6.940   6.943   9.452  1.4565 -1.0682  0.3817
  490MOL0     H64640   6.990   6.657   9.344  0.1839 -2.6556  2.5604
  490MOL0     H64641   6.829   6.702   9.406 -0.5791  0.0454 -0.2357
  490MOL0     H64642   7.191   6.695   9.357  0.2188 -1.0589  0.2238
  490MOL0     H64643   7.413   6.680   9.420  0.8450  1.7275  0.5023
  490MOL0     H64644   7.784   6.835   9.584 -1.4092 -0.4375  0.3103
  490MOL0     H64645   8.034   6.822   9.585  1.3094 -0.0326 -0.8825
  490MOL0     H64646   8.150   6.719   9.413  1.2808  1.1819  2.3099
  490MOL0     H64647   8.189   6.560   9.367 -0.6051  0.1687  0.0431
  490MOL0     H64648   8.380   6.756   9.530  1.3446 -0.5146  0.1119
  490MOL0     H64649   8.382   6.739   9.356 -1.2974 -1.5534 -2.1823
  490MOL0     H64650   8.414   6.485   9.389  0.2117 -2.0963  2.1660
  490MOL0     H64651   8.424   6.507   9.558 -2.3121 -0.0803 -0.2504
  490MOL0     H64652   8.619   6.664   9.379  1.3403  3.5916  3.4382
  490MOL0     H64653   8.625   6.644   9.548 -3.0545  1.2155  0.5563
  490MOL0     H64654   8.790   6.504   9.401 -0.3125  0.7310 -0.0320
  490MOL0     H64655   8.646   6.411   9.351  3.1653  2.4921 -4.5067
  490MOL0     H64656   8.620   6.329   9.590 -0.1895 -0.0957  3.0041
  490MOL0     H64657   8.746   6.440   9.644 -1.1271  1.0662 -1.1427
  490MOL0     H64658   8.794   6.179   9.576  2.8964 -1.7163 -0.8890
  490MOL0     H64659   8.834   6.255   9.425  2.1156  1.4428  0.1924
  490MOL0     H64660   9.016   6.221   9.615 -2.8833 -1.2145 -0.9900
  490MOL0     H64661   8.943   6.360   9.692 -1.8575  1.4616 -1.3086
  490MOL0     H64662   7.980   6.390   9.564 -2.2775 -0.7804 -1.1183
  490MOL0     H64663   7.742   6.403   9.569  1.3035 -1.4744 -1.4031
  490MOL0     H64664   7.313   6.727   9.835 -0.2772  3.6761 -0.5975
  490MOL0     H64665   7.073   6.752   9.774  0.3614  0.8071  0.3389
  490MOL0     H64666   8.084   7.211   8.762 -1.2425  1.2955  0.9612
  490MOL0     H64667   8.332   7.102   8.782  1.4560 -3.0015  3.4097
  490MOL0     H64668   8.734   7.163   8.926 -0.5980 -1.1064  0.2934
  490MOL0     H64669   8.971   7.131   8.928 -0.6437  1.7099  1.9752
  490MOL0     H64670   9.205   7.048   9.018  0.8869 -1.8271  2.6219
  490MOL0     H64671   9.150   7.002   8.845 -0.8286  0.2355  0.2948
  490MOL0     H64672   9.358   6.874   9.030  1.0994 -1.2414 -0.0770
  490MOL0     H64673   9.301   6.800   8.876  0.3777  1.1219 -0.9853
  490MOL0     H64674   9.415   7.080   8.873  3.1267  1.4327  0.0974
  490MOL0     H64675   9.428   6.960   8.749  2.4853 -2.1133  0.0566
  490MOL0     H64676   9.583   6.841   8.924 -0.5633  0.7583  0.1181
  490MOL0     H64677   9.651   6.995   8.850 -0.9397 -1.8342 -2.0668
  490MOL0     H64678   9.581   7.130   9.231  1.3497  2.0051 -0.3098
  490MOL0     H64679   8.905   6.739   9.116 -0.2002 -1.0628 -2.0854
  490MOL0     H64680   8.685   6.797   9.158 -0.3257  2.5118  1.2841
  491MOL0     O64681   0.443   0.847   1.301 -0.2897  0.0965  0.0438
  491MOL0     C64682   0.446   0.961   1.342  0.7654  0.3086  0.3083
  491MOL0     O64683   0.355   1.059   1.319 -0.0412 -0.0953  1.1816
  491MOL0     C64684   0.227   1.030   1.268  0.8353  1.0090 -1.3350
  491MOL0     C64685   0.124   1.102   1.335  0.5354  0.0859  0.1909
  491MOL0     C64686  -0.009   1.083   1.313  1.0577  0.2453  0.6412
  491MOL0     C64687  -0.037   1.008   1.193 -0.0894  0.7993 -0.4288
  491MOL0     O64688  -0.168   0.994   1.155 -0.1809  0.9028 -0.3252
  491MOL0     C64689  -0.205   0.969   1.023  0.5449 -0.1395  1.2818
  491MOL0     C64690  -0.358   0.996   1.001 -0.6393  0.4724 -0.7133
  491MOL0     C64691  -0.447   0.932   1.103  0.1110  1.0951 -0.3200
  491MOL0     C64692  -0.598   0.944   1.064 -0.6297  0.4232  0.3207
  491MOL0     C64693  -0.656   0.810   0.995 -0.1650 -0.3568  0.0517
  491MOL0     C64694  -0.603   0.774   0.859  0.0952  0.2720  1.0572
  491MOL0     C64695  -0.694   0.679   0.780  0.0145 -0.1542 -0.5952
  491MOL0     C64696  -0.817   0.749   0.732  0.3468  0.4689  1.1008
  491MOL0     N64697  -0.916   0.652   0.692 -0.1629 -0.0220  0.4115
  491MOL0     C64698  -1.002   0.579   0.764 -0.3679 -0.6253  0.3363
  491MOL0     C64699  -1.070   0.517   0.675 -0.0942 -0.2627 -0.5839
  491MOL0     C64700  -1.196   0.441   0.690 -0.0985  1.0324 -0.5804
  491MOL0     C64701  -1.302   0.544   0.711 -0.1377 -0.4702 -0.0034
  491MOL0     C64702  -1.429   0.467   0.761 -0.5312  0.0425 -0.1016
  491MOL0     C64703  -1.497   0.378   0.652 -0.7552  0.8414 -0.3469
  491MOL0     O64704  -1.535   0.468   0.552 -0.6377  0.2615  0.1185
  491MOL0     C64705  -1.654   0.442   0.494  0.0801  0.0844 -0.1509
  491MOL0     C64706  -1.707   0.309   0.472 -0.5442  1.4688  0.8840
  491MOL0     C64707  -1.830   0.288   0.415 -0.1595 -0.6200 -0.1204
  491MOL0     C64708  -1.913   0.402   0.384  0.5688  0.1258 -0.0065
  491MOL0     C64709  -2.047   0.381   0.323  0.3424  1.0028  0.4495
  491MOL0     O64710  -2.112   0.495   0.287  0.6272 -0.1491  0.0316
  491MOL0     C64711  -2.250   0.482   0.240  0.6163  0.1717 -0.8456
  491MOL0     C64712  -2.285   0.562   0.129 -0.3278 -0.9597  0.1975
  491MOL0     C64713  -2.414   0.565   0.089  0.0329  0.5795  0.4624
  491MOL0     C64714  -2.509   0.486   0.147 -0.2182 -0.5788  0.5443
  491MOL0     O64715  -2.635   0.498   0.093 -0.2672  0.6148 -0.2427
  491MOL0     C64716  -2.749   0.485   0.181  0.2889  0.1420 -0.1334
  491MOL0     C64717  -2.889   0.520   0.108 -0.1800  0.4220 -0.4836
  491MOL0     C64718  -2.931   0.420   0.002 -0.2837 -0.8457 -0.1248
  491MOL0     C64719  -3.079   0.393  -0.036  0.6289 -1.1576  0.1077
  491MOL0     C64720  -3.164   0.370   0.092  0.8980  0.4462  0.5101
  491MOL0     C64721  -3.306   0.313   0.061  0.2767 -0.3477 -0.1152
  491MOL0     C64722  -3.370   0.249   0.182 -0.3297 -0.0192 -0.0424
  491MOL0     C64723  -3.511   0.214   0.144  0.1767 -0.3050  0.1610
  491MOL0    Cl64724  -3.608   0.374   0.149 -0.2553 -0.1618 -0.3498
  491MOL0     C64725  -2.477   0.400   0.251  0.2265 -0.1260  0.2744
  491MOL0     C64726  -2.349   0.398   0.300 -0.1155 -0.7195  0.1789
  491MOL0     O64727  -2.084   0.262   0.290 -0.6956 -0.2184  0.3580
  491MOL0     C64728  -1.870   0.529   0.428 -0.2476 -0.4470  0.2088
  491MOL0     C64729  -1.738   0.552   0.476 -0.3495 -0.7089  0.5724
  491MOL0     N64730  -1.028   0.549   0.549  0.0114 -0.1473 -0.4099
  491MOL0     N64731  -0.935   0.631   0.554  0.1980 -0.5151  0.2659
  491MOL0     C64732   0.060   0.931   1.122  0.1200 -0.7594  0.5023
  491MOL0     C64733   0.193   0.951   1.159 -0.3174 -0.0025 -0.0122
  491MOL0     C64734   0.556   0.992   1.429  0.8879  0.2205  0.2243
  491MOL0     C64735   0.589   1.129   1.467  1.0662  0.1764  0.0771
  491MOL0     C64736   0.686   1.147   1.564 -0.0035 -0.2897  0.8981
  491MOL0     C64737   0.764   1.049   1.620 -0.7108 -0.6574 -1.0771
  491MOL0     O64738   0.860   1.067   1.714 -0.4869 -0.2264 -0.5408
  491MOL0     C64739   0.820   1.078   1.853  0.2058  0.5965  0.2378
  491MOL0     C64740   0.903   0.970   1.937  0.1351 -1.2365  0.0582
  491MOL0     C64741   0.868   0.971   2.087 -0.0279  0.5723 -1.7478
  491MOL0     C64742   0.940   0.854   2.166 -0.3204  0.6045 -0.0790
  491MOL0     C64743   0.968   0.896   2.305  0.8781 -0.0186  0.0961
  491MOL0     C64744   0.977   0.931   2.420  0.6785  0.1740 -0.3792
  491MOL0     C64745   0.740   0.921   1.579  0.6434  0.1291  0.2400
  491MOL0     C64746   0.644   0.890   1.483 -0.6582 -0.0274  0.0312
  491MOL0     H64747   0.156   1.176   1.408  2.3691 -2.1364  1.8109
  491MOL0     H64748  -0.092   1.134   1.361 -2.5773 -0.9227 -3.7434
  491MOL0     H64749  -0.181   0.865   1.000  0.2891 -0.4420  2.3363
  491MOL0     H64750  -0.151   1.037   0.957  1.6346 -1.9521  0.2210
  491MOL0     H64751  -0.365   0.955   0.900 -0.0513  0.8187 -0.9024
  491MOL0     H64752  -0.390   1.101   0.996 -2.1003  0.2764  2.5129
  491MOL0     H64753  -0.436   0.985   1.198 -1.4878 -0.3799  0.7511
  491MOL0     H64754  -0.415   0.831   1.129 -0.0189  1.1425  0.0337
  491MOL0     H64755  -0.661   0.967   1.150  0.3905  0.1279  1.1584
  491MOL0     H64756  -0.620   1.019   0.988 -0.7321 -0.8267 -0.9345
  491MOL0     H64757  -0.765   0.820   0.997 -0.3839 -2.3414  1.9644
  491MOL0     H64758  -0.634   0.729   1.065 -2.2865  0.5077  1.8613
  491MOL0     H64759  -0.501   0.735   0.853 -0.8858 -2.2372 -2.4337
  491MOL0     H64760  -0.598   0.873   0.812 -0.7531  0.0939  0.5713
  491MOL0     H64761  -0.639   0.635   0.696 -3.4353  1.7835 -4.2063
  491MOL0     H64762  -0.716   0.595   0.847  1.2830  1.1790  1.6276
  491MOL0     H64763  -0.795   0.806   0.642 -1.1014 -1.1058 -0.3170
  491MOL0     H64764  -0.862   0.816   0.806 -1.4775  1.6057 -0.9133
  491MOL0     H64765  -1.036   0.586   0.866 -2.3636 -0.3686 -0.3152
  491MOL0     H64766  -1.196   0.386   0.785 -1.2831  0.1276 -1.0819
  491MOL0     H64767  -1.214   0.364   0.615  0.4351 -0.6850  0.9753
  491MOL0     H64768  -1.313   0.594   0.615 -1.5620 -1.7352 -0.5357
  491MOL0     H64769  -1.281   0.622   0.785 -0.4711  0.4944 -0.9052
  491MOL0     H64770  -1.408   0.416   0.855 -2.0438  1.0203  0.8154
  491MOL0     H64771  -1.510   0.535   0.791 -0.5380 -0.3384  0.7661
  491MOL0     H64772  -1.575   0.324   0.707  2.5413 -3.3597  0.7482
  491MOL0     H64773  -1.432   0.301   0.610 -2.4261 -2.2560  2.3090
  491MOL0     H64774  -1.645   0.224   0.497  3.0886  3.4128 -0.6693
  491MOL0     H64775  -1.850   0.184   0.389  0.1652 -1.4666  2.6531
  491MOL0     H64776  -2.212   0.626   0.082 -0.7309 -0.4475  0.2515
  491MOL0     H64777  -2.440   0.612  -0.005  1.1549  0.3058 -0.0026
  491MOL0     H64778  -2.740   0.546   0.271  1.6948  2.6821 -1.8812
  491MOL0     H64779  -2.740   0.379   0.207 -0.3745  0.0918 -0.0854
  491MOL0     H64780  -2.877   0.615   0.056  1.7081  0.5834  0.1489
  491MOL0     H64781  -2.963   0.526   0.188 -0.0524 -0.3092 -0.3057
  491MOL0     H64782  -2.891   0.331   0.051 -1.4111 -1.2442  0.0926
  491MOL0     H64783  -2.871   0.437  -0.088 -0.4717 -0.3651 -0.1618
  491MOL0     H64784  -3.109   0.488  -0.080  0.8953 -0.9820  0.3016
  491MOL0     H64785  -3.086   0.313  -0.111  0.5046  0.3648 -1.5674
  491MOL0     H64786  -3.162   0.465   0.145  1.6790 -0.9512  3.1723
  491MOL0     H64787  -3.125   0.297   0.164 -0.7860  2.6679  3.9477
  491MOL0     H64788  -3.287   0.231  -0.010 -1.8437  0.9675 -2.3846
  491MOL0     H64789  -3.358   0.397   0.013  1.2636 -0.5705 -1.6180
  491MOL0     H64790  -3.316   0.158   0.208  0.4993  1.0884  2.4847
  491MOL0     H64791  -3.377   0.307   0.275 -2.3648  0.1478 -0.2381
  491MOL0     H64792  -3.540   0.145   0.224 -0.5892 -2.0722 -1.5487
  491MOL0     H64793  -3.506   0.171   0.044  2.8082  2.2078 -0.9378
  491MOL0     H64794  -2.550   0.345   0.309  1.6326 -0.8470  1.3965
  491MOL0     H64795  -2.330   0.347   0.394  0.6013  0.0854  0.4748
  491MOL0     H64796  -1.933   0.613   0.403 -0.6921 -1.1846 -1.2638
  491MOL0     H64797  -1.694   0.648   0.503  0.8420 -1.0827  0.0157
  491MOL0     H64798   0.035   0.860   1.045  0.1843 -0.8995  0.6087
  491MOL0     H64799   0.263   0.885   1.107  0.6645  1.3409 -0.4431
  491MOL0     H64800   0.522   1.208   1.433 -2.8697 -3.1750 -0.6739
  491MOL0     H64801   0.707   1.248   1.598 -1.9292  1.2328 -2.0399
  491MOL0     H64802   0.712   1.060   1.857  0.1797  0.2280 -1.3271
  491MOL0     H64803   0.840   1.180   1.887 -0.5950  0.0400  2.5244
  491MOL0     H64804   0.880   0.867   1.909  0.0641 -1.1618 -0.1646
  491MOL0     H64805   1.008   0.992   1.917  0.7807 -1.6907  2.5506
  491MOL0     H64806   0.761   0.950   2.096 -0.1082 -1.2998 -5.2205
  491MOL0     H64807   0.885   1.059   2.150  1.7031 -0.3024 -0.9154
  491MOL0     H64808   0.889   0.757   2.168  1.8383 -0.6786 -1.8891
  491MOL0     H64809   1.039   0.839   2.122 -0.4408 -1.5893  0.3053
  491MOL0     H64810   0.952   0.956   2.521 -2.8014  2.0446 -1.5551
  491MOL0     H64811   0.793   0.839   1.626  1.0315  0.6817  0.7824
  491MOL0     H64812   0.629   0.785   1.456  0.7038  0.4183 -2.8078
  492MOL0     O64813   2.217   2.575   2.821 -0.5259 -0.0009  0.7255
  492MOL0     C64814   2.199   2.452   2.852  0.2080  0.0340 -0.3169
  492MOL0     O64815   2.086   2.371   2.831  0.1446 -0.0353 -0.6732
  492MOL0     C64816   1.966   2.435   2.807  0.8758 -0.1471  0.3552
  492MOL0     C64817   1.849   2.399   2.874  0.1594 -0.1888 -0.0476
  492MOL0     C64818   1.724   2.439   2.830  0.2282 -0.2798  0.2508
  492MOL0     C64819   1.714   2.529   2.721 -0.2161 -0.1297 -0.4459
  492MOL0     O64820   1.596   2.570   2.669  0.7600 -0.9258 -0.1261
  492MOL0     C64821   1.504   2.461   2.633  1.1017  0.2867 -0.0871
  492MOL0     C64822   1.365   2.515   2.582  0.1609 -0.7562 -0.2718
  492MOL0     C64823   1.296   2.403   2.499 -0.4615 -0.1099 -0.3560
  492MOL0     C64824   1.148   2.427   2.465  0.1475 -0.3863 -0.1914
  492MOL0     C64825   1.079   2.311   2.391 -0.0199 -0.6382 -0.1940
  492MOL0     C64826   0.919   2.328   2.368 -0.4045 -0.0389 -0.8792
  492MOL0     C64827   0.883   2.412   2.254  0.7625  0.2567  0.7962
  492MOL0     C64828   0.735   2.444   2.250 -0.0878  0.2073  0.1888
  492MOL0     N64829   0.657   2.330   2.215 -0.2298 -0.2331  0.3196
  492MOL0     C64830   0.609   2.298   2.092 -0.9513 -0.1002  0.7217
  492MOL0     C64831   0.517   2.204   2.116  0.2934 -0.1284  0.9513
  492MOL0     C64832   0.431   2.136   2.010 -0.0816 -0.2361  0.6931
  492MOL0     C64833   0.303   2.219   1.973  0.5109 -0.8030  0.2126
  492MOL0     C64834   0.187   2.186   2.070  0.6747  0.3980  0.3366
  492MOL0     C64835   0.051   2.237   2.036  0.3608 -0.5564  0.4816
  492MOL0     O64836  -0.044   2.252   2.148  0.0442 -0.0664 -0.8489
  492MOL0     C64837  -0.161   2.300   2.116  0.0481 -0.1598  0.0102
  492MOL0     C64838  -0.223   2.285   1.988 -0.0015  0.1751 -0.1914
  492MOL0     C64839  -0.356   2.332   1.968  0.2178 -0.3420  0.0318
  492MOL0     C64840  -0.431   2.374   2.078  0.4029  0.7236 -0.9312
  492MOL0     C64841  -0.579   2.404   2.065 -0.0052  0.4461 -0.0301
  492MOL0     O64842  -0.637   2.424   1.949  0.4049 -0.2722  0.1053
  492MOL0     C64843  -0.772   2.393   1.934 -0.2388  0.3041 -0.3239
  492MOL0     C64844  -0.853   2.463   1.844  0.2463  0.9062  0.7228
  492MOL0     C64845  -0.988   2.437   1.828  0.1604  0.1178 -0.1839
  492MOL0     C64846  -1.048   2.340   1.908 -0.1249  0.2018  0.3984
  492MOL0     O64847  -1.180   2.331   1.898  0.2320 -0.6406 -0.1598
  492MOL0     C64848  -1.243   2.231   1.970  0.7597  0.0455  0.4325
  492MOL0     C64849  -1.255   2.102   1.892 -0.0280 -1.1152 -0.2616
  492MOL0     C64850  -1.323   1.991   1.966 -0.5272 -0.0031 -0.3302
  492MOL0     C64851  -1.331   1.868   1.881 -0.4876 -0.6177 -0.5025
  492MOL0     C64852  -1.430   1.782   1.947  0.8734 -0.0112 -0.6081
  492MOL0     C64853  -1.580   1.810   1.911  0.3159  0.2998  0.3467
  492MOL0     C64854  -1.656   1.713   2.002 -0.0258 -0.1235 -0.2106
  492MOL0     C64855  -1.650   1.568   1.936 -0.1128 -0.3112 -0.1195
  492MOL0    Cl64856  -1.759   1.584   1.795  0.0750 -0.3705  0.3445
  492MOL0     C64857  -0.964   2.260   1.993 -0.9575  0.2280  0.6790
  492MOL0     C64858  -0.832   2.293   2.009  0.8381  0.0068  0.4809
  492MOL0     O64859  -0.635   2.432   2.171  0.9652 -0.0237 -0.1821
  492MOL0     C64860  -0.372   2.383   2.205  0.6038 -0.4866 -0.3561
  492MOL0     C64861  -0.240   2.349   2.219 -0.5109  0.5524  0.5797
  492MOL0     N64862   0.505   2.169   2.247  0.0767  0.2850  0.3955
  492MOL0     N64863   0.587   2.252   2.304  0.7590  0.9622  0.5730
  492MOL0     C64864   1.832   2.574   2.661 -0.3234  1.7307 -0.0553
  492MOL0     C64865   1.955   2.533   2.709  0.1898 -0.4703  0.1623
  492MOL0     C64866   2.316   2.397   2.923  0.7404 -0.1050 -0.4341
  492MOL0     C64867   2.442   2.455   2.906 -0.1670  0.1517  0.0960
  492MOL0     C64868   2.552   2.394   2.965 -0.2541 -0.2379 -0.0516
  492MOL0     C64869   2.539   2.283   3.052 -0.3028 -0.1149 -0.7375
  492MOL0     O64870   2.640   2.220   3.122 -0.0790 -0.0399 -0.1339
  492MOL0     C64871   2.779   2.272   3.120 -0.1790 -0.6612  0.2065
  492MOL0     C64872   2.782   2.372   3.228  0.3362  0.3668  0.9643
  492MOL0     C64873   2.921   2.419   3.259 -1.1721  0.3344  0.4000
  492MOL0     C64874   2.967   2.547   3.188 -0.3470 -0.1074  0.0765
  492MOL0     C64875   3.117   2.550   3.183  0.0947  0.5246  0.2179
  492MOL0     C64876   3.238   2.545   3.190 -0.0274  0.9121  0.1958
  492MOL0     C64877   2.416   2.225   3.056 -0.0360  0.3179 -1.1041
  492MOL0     C64878   2.301   2.275   2.999  0.3604  0.0373 -0.8574
  492MOL0     H64879   1.852   2.327   2.956  2.6942 -2.5724 -2.0182
  492MOL0     H64880   1.635   2.395   2.872  2.4394 -2.5919  2.9518
  492MOL0     H64881   1.481   2.383   2.705 -0.4394  2.3787  1.8356
  492MOL0     H64882   1.542   2.408   2.545 -1.4383  0.2380 -1.2478
  492MOL0     H64883   1.378   2.604   2.519  1.1660  0.2047  1.2309
  492MOL0     H64884   1.311   2.557   2.666  2.5476  2.8451 -0.3130
  492MOL0     H64885   1.309   2.313   2.560 -2.0368 -0.9512 -1.2132
  492MOL0     H64886   1.348   2.376   2.407  0.2423  0.1093 -0.0269
  492MOL0     H64887   1.088   2.432   2.556 -0.3148  1.6248 -0.5586
  492MOL0     H64888   1.137   2.524   2.415  0.0514 -0.6830 -0.7466
  492MOL0     H64889   1.084   2.218   2.449 -3.6184  0.0848  1.5336
  492MOL0     H64890   1.127   2.302   2.293  0.0054  4.4402 -0.9186
  492MOL0     H64891   0.870   2.364   2.458  0.6634 -0.2353 -0.1973
  492MOL0     H64892   0.889   2.224   2.349 -0.9360  0.0896 -0.7421
  492MOL0     H64893   0.924   2.512   2.266 -1.5856  1.2999  0.7439
  492MOL0     H64894   0.917   2.367   2.161 -0.0458  1.6856 -0.2330
  492MOL0     H64895   0.720   2.525   2.177 -0.1476 -1.7250 -2.0527
  492MOL0     H64896   0.701   2.484   2.346 -0.3166  2.8025 -0.8670
  492MOL0     H64897   0.632   2.340   1.995 -0.6573 -2.3829 -0.2576
  492MOL0     H64898   0.405   2.035   2.044  0.5547 -1.0369 -1.0756
  492MOL0     H64899   0.491   2.135   1.918 -1.6055 -0.7153 -0.3320
  492MOL0     H64900   0.270   2.191   1.873 -1.2917  0.9933  0.2364
  492MOL0     H64901   0.327   2.325   1.976 -1.2170 -0.3909  2.0582
  492MOL0     H64902   0.179   2.080   2.095  1.7052 -0.3191 -2.1068
  492MOL0     H64903   0.217   2.237   2.162 -0.4908 -0.5956  1.2997
  492MOL0     H64904   0.013   2.173   1.954  1.5081  1.0771 -1.4164
  492MOL0     H64905   0.072   2.334   1.990  1.8510 -1.6253 -1.2687
  492MOL0     H64906  -0.179   2.245   1.897 -1.2558  3.0358 -2.2318
  492MOL0     H64907  -0.405   2.336   1.872 -0.9292  0.7838  0.6423
  492MOL0     H64908  -0.790   2.525   1.781 -0.5065  2.2331  1.2372
  492MOL0     H64909  -1.055   2.495   1.766  0.0722 -0.4190 -0.5973
  492MOL0     H64910  -1.342   2.260   2.005  1.6778  3.6468  0.3570
  492MOL0     H64911  -1.205   2.220   2.072 -3.6250 -0.1082  2.2553
  492MOL0     H64912  -1.149   2.088   1.868  0.1392  0.7342 -0.7574
  492MOL0     H64913  -1.304   2.132   1.799 -2.1349 -1.2125  0.7581
  492MOL0     H64914  -1.420   2.030   2.000 -0.1632  1.8880 -1.3511
  492MOL0     H64915  -1.267   1.971   2.058  2.8098  1.1075 -1.9881
  492MOL0     H64916  -1.360   1.892   1.778  0.9914  0.7050 -0.6598
  492MOL0     H64917  -1.233   1.818   1.880 -0.5152 -0.7810  1.5145
  492MOL0     H64918  -1.422   1.779   2.056  1.0488 -0.3364 -0.6288
  492MOL0     H64919  -1.399   1.686   1.906  0.6243 -0.2402 -0.2690
  492MOL0     H64920  -1.603   1.793   1.806 -0.1908 -0.7212  0.6067
  492MOL0     H64921  -1.599   1.912   1.944 -0.8705  0.0933  0.3692
  492MOL0     H64922  -1.616   1.720   2.103 -1.0249 -0.3470  0.2116
  492MOL0     H64923  -1.762   1.739   2.002 -0.8371 -3.0255 -0.1846
  492MOL0     H64924  -1.690   1.498   2.010 -0.9946 -0.6824 -0.9226
  492MOL0     H64925  -1.548   1.532   1.921  0.0750 -0.8970  2.1310
  492MOL0     H64926  -1.010   2.180   2.051 -1.8806  0.8338  0.7935
  492MOL0     H64927  -0.768   2.235   2.074 -0.0008 -3.9809 -1.8876
  492MOL0     H64928  -0.428   2.411   2.294 -0.4511 -0.3868 -1.0284
  492MOL0     H64929  -0.186   2.356   2.313  3.1336 -0.9056 -1.2011
  492MOL0     H64930   1.843   2.650   2.585  3.1859  1.1777 -0.2349
  492MOL0     H64931   2.044   2.557   2.652 -0.3174 -5.6418 -3.4659
  492MOL0     H64932   2.443   2.535   2.834  0.5996 -0.0109 -0.0775
  492MOL0     H64933   2.653   2.431   2.956  0.1143 -1.3241 -0.5375
  492MOL0     H64934   2.818   2.301   3.022  2.1051 -2.5939  0.4412
  492MOL0     H64935   2.837   2.181   3.137 -1.3500 -2.8817 -5.5935
  492MOL0     H64936   2.718   2.456   3.198  0.6830  0.2284 -0.2153
  492MOL0     H64937   2.741   2.326   3.318  1.7409 -0.9809  0.9480
  492MOL0     H64938   2.987   2.338   3.223 -1.9184  1.0492 -2.9269
  492MOL0     H64939   2.944   2.428   3.365 -0.5638  0.7083  0.2397
  492MOL0     H64940   2.923   2.559   3.089  1.3085 -0.9553 -0.8093
  492MOL0     H64941   2.936   2.636   3.243  1.9270  1.6255 -1.2407
  492MOL0     H64942   3.344   2.536   3.182 -0.2975 -1.0131 -2.5564
  492MOL0     H64943   2.405   2.131   3.110  0.9268  1.0409  0.4289
  492MOL0     H64944   2.198   2.241   3.005  0.9891 -1.8808 -0.1965
  493MOL0     O64945   2.582   5.287   7.866 -0.0867  0.4695  0.4061
  493MOL0     C64946   2.600   5.194   7.786  0.0402 -0.3214 -0.1608
  493MOL0     O64947   2.517   5.141   7.690  0.6276 -0.3113 -1.4564
  493MOL0     C64948   2.378   5.142   7.705 -0.8289 -0.5843 -0.1234
  493MOL0     C64949   2.297   5.047   7.638 -0.2310  0.9043 -0.0310
  493MOL0     C64950   2.155   5.044   7.657 -0.0089 -0.0584  0.1796
  493MOL0     C64951   2.099   5.141   7.729 -0.7038  0.4840  0.1207
  493MOL0     O64952   1.966   5.124   7.738 -0.3117  0.0648 -0.0293
  493MOL0     C64953   1.908   5.249   7.696  0.3790 -0.2470 -0.9212
  493MOL0     C64954   1.761   5.225   7.679  0.4751  0.0080  0.3157
  493MOL0     C64955   1.739   5.129   7.561  0.5287  0.2605 -0.4367
  493MOL0     C64956   1.587   5.101   7.539 -0.6421  0.1565  0.3933
  493MOL0     C64957   1.583   4.980   7.437  0.1690 -0.5465 -0.2541
  493MOL0     C64958   1.614   4.842   7.501 -0.2665  1.7265  0.3387
  493MOL0     C64959   1.551   4.819   7.641  0.5144  0.7812 -1.2178
  493MOL0     C64960   1.401   4.821   7.640 -0.8378  0.1843  0.1118
  493MOL0     N64961   1.330   4.759   7.534 -0.0605  0.7042  0.5815
  493MOL0     C64962   1.307   4.619   7.529  0.2009  0.1164 -0.3732
  493MOL0     C64963   1.243   4.598   7.411 -0.3185 -0.7301 -0.1049
  493MOL0     C64964   1.214   4.462   7.356 -0.0181  0.4671 -0.3985
  493MOL0     C64965   1.069   4.422   7.390 -0.4337  0.0863  0.5512
  493MOL0     C64966   0.963   4.498   7.310 -0.0192  0.0742  0.0797
  493MOL0     C64967   0.828   4.430   7.337  1.0841  0.0660  0.3133
  493MOL0     O64968   0.743   4.460   7.229  0.6694 -0.7269  0.7594
  493MOL0     C64969   0.609   4.439   7.241  0.4196  1.3127  1.2648
  493MOL0     C64970   0.538   4.469   7.124  0.0748  0.7799 -0.5116
  493MOL0     C64971   0.394   4.449   7.114 -0.8005 -0.2819  0.6291
  493MOL0     C64972   0.330   4.387   7.224 -0.4844  0.7082  0.5795
  493MOL0     C64973   0.183   4.364   7.204 -0.5272 -0.7745  0.1536
  493MOL0     O64974   0.135   4.375   7.075 -0.3216 -0.2751  0.4826
  493MOL0     C64975   0.001   4.370   7.039  0.5277  0.2900 -0.1935
  493MOL0     C64976  -0.030   4.411   6.911 -0.0288  0.7264 -0.1711
  493MOL0     C64977  -0.155   4.408   6.858 -0.7024 -0.4402  0.4101
  493MOL0     C64978  -0.262   4.348   6.920  0.3485  0.4070  0.1797
  493MOL0     O64979  -0.390   4.369   6.874 -0.0655  0.6274  1.1475
  493MOL0     C64980  -0.404   4.363   6.732 -0.1248  0.4354 -0.1174
  493MOL0     C64981  -0.552   4.365   6.696 -0.4495 -0.0450 -0.3110
  493MOL0     C64982  -0.645   4.249   6.726  0.0899 -0.8535  0.4548
  493MOL0     C64983  -0.779   4.289   6.660 -0.8039 -0.2507  0.9561
  493MOL0     C64984  -0.871   4.168   6.639 -0.5910  0.6734 -1.1845
  493MOL0     C64985  -1.005   4.157   6.718 -0.4635 -0.2571  0.4092
  493MOL0     C64986  -1.068   4.018   6.733 -0.8002 -0.1368 -0.4625
  493MOL0     C64987  -1.213   4.036   6.775  1.2409  0.1047 -0.4867
  493MOL0    Cl64988  -1.232   4.120   6.934 -0.1745  0.2992 -0.0421
  493MOL0     C64989  -0.235   4.291   7.046 -0.0449 -0.0209  0.7464
  493MOL0     C64990  -0.113   4.322   7.109  0.6438 -0.6380 -0.2887
  493MOL0     O64991   0.111   4.340   7.301  0.1922 -0.1525  0.2520
  493MOL0     C64992   0.401   4.338   7.329  0.1138 -0.0652 -0.9268
  493MOL0     C64993   0.535   4.377   7.345  0.7588  0.0919 -0.2491
  493MOL0     N64994   1.221   4.713   7.347 -0.5872 -0.3631 -0.0728
  493MOL0     N64995   1.278   4.807   7.422 -0.4724  0.0292  0.3735
  493MOL0     C64996   2.170   5.235   7.805  0.1304  0.0866 -0.4474
  493MOL0     C64997   2.302   5.240   7.780  0.1286 -0.1497  0.4950
  493MOL0     C64998   2.733   5.133   7.795  0.0449  0.7570 -1.1135
  493MOL0     C64999   2.847   5.199   7.841  0.0279 -0.3893 -0.1480
  493MOL0     C65000   2.978   5.161   7.810  0.8992 -0.2467 -1.0224
  493MOL0     C65001   3.006   5.045   7.734  0.2163  0.5459 -0.4624
  493MOL0     O65002   3.143   5.018   7.721 -0.6762  0.7379 -0.2217
  493MOL0     C65003   3.187   4.908   7.634 -0.2793  0.5212  1.2224
  493MOL0     C65004   3.340   4.910   7.627  0.4470  0.2786  0.0691
  493MOL0     C65005   3.400   5.049   7.620  0.2328  0.2025 -0.9465
  493MOL0     C65006   3.555   5.035   7.618 -1.2751  0.2112 -0.2042
  493MOL0     C65007   3.618   4.938   7.535 -0.4267  0.2925 -0.4437
  493MOL0     C65008   3.676   4.857   7.464  0.1682 -0.4286 -0.6553
  493MOL0     C65009   2.892   4.973   7.688  0.0895 -0.4014 -0.7880
  493MOL0     C65010   2.758   5.018   7.718  0.3017  0.9398  0.6231
  493MOL0     H65011   2.350   4.962   7.596  0.8169  0.6641  1.6664
  493MOL0     H65012   2.102   4.967   7.602  2.9018 -0.5723 -2.2068
  493MOL0     H65013   1.955   5.298   7.610 -0.2398  1.2562 -0.4533
  493MOL0     H65014   1.923   5.322   7.776  1.6426 -2.4532  0.9511
  493MOL0     H65015   1.705   5.318   7.668 -3.0911 -1.9347  0.6012
  493MOL0     H65016   1.712   5.175   7.763  0.3216 -1.0133 -0.3668
  493MOL0     H65017   1.781   5.030   7.577 -0.6128  0.0650  1.8163
  493MOL0     H65018   1.784   5.172   7.471  1.8434 -1.2167 -0.5284
  493MOL0     H65019   1.545   5.080   7.637  1.0207 -0.5825  0.9826
  493MOL0     H65020   1.543   5.192   7.497  0.9300  0.2884 -1.0886
  493MOL0     H65021   1.665   4.989   7.366 -1.5918  1.7410 -2.1902
  493MOL0     H65022   1.484   4.973   7.391 -0.1267 -2.2727  0.5846
  493MOL0     H65023   1.722   4.832   7.515 -0.4253 -2.6122 -0.3017
  493MOL0     H65024   1.588   4.761   7.432  0.4779  2.2274 -0.5645
  493MOL0     H65025   1.579   4.719   7.676  2.8253  1.9285  0.4445
  493MOL0     H65026   1.596   4.887   7.713 -0.1346  0.2464 -0.2824
  493MOL0     H65027   1.366   4.924   7.631  1.2404  1.1060  1.7225
  493MOL0     H65028   1.366   4.787   7.738  1.3532  0.9716  1.2280
  493MOL0     H65029   1.334   4.527   7.580  1.0203 -0.0219 -1.0375
  493MOL0     H65030   1.273   4.388   7.410 -0.1715  1.2533  0.9121
  493MOL0     H65031   1.239   4.471   7.250 -2.5514  1.7692 -0.9858
  493MOL0     H65032   1.049   4.455   7.493  1.7698  1.5077  0.5832
  493MOL0     H65033   1.046   4.316   7.378 -1.6678  0.5533 -1.6809
  493MOL0     H65034   0.967   4.605   7.334 -0.6847 -0.7806  5.0614
  493MOL0     H65035   0.985   4.487   7.203 -0.6583 -2.2845  0.1431
  493MOL0     H65036   0.787   4.474   7.428 -1.1141  0.2754 -0.7171
  493MOL0     H65037   0.838   4.321   7.342  0.2407 -0.0160  0.2968
  493MOL0     H65038   0.592   4.513   7.041 -1.9483  0.7475 -1.9282
  493MOL0     H65039   0.343   4.475   7.021  4.6497  1.0977 -2.4113
  493MOL0     H65040   0.049   4.441   6.843 -0.6988  2.6131 -0.1758
  493MOL0     H65041  -0.165   4.460   6.763 -1.2461 -4.7854 -2.2401
  493MOL0     H65042  -0.366   4.267   6.694 -3.4934 -2.0346  2.1037
  493MOL0     H65043  -0.354   4.447   6.683  3.1141 -2.0709 -1.5615
  493MOL0     H65044  -0.537   4.374   6.588 -0.6916  2.9457 -0.1780
  493MOL0     H65045  -0.591   4.461   6.730 -0.7829 -0.5319  0.7273
  493MOL0     H65046  -0.657   4.234   6.833  0.2868 -2.5683  0.2626
  493MOL0     H65047  -0.616   4.160   6.669 -1.8127 -1.3057  0.1217
  493MOL0     H65048  -0.834   4.364   6.718  0.2977  0.0867  1.6064
  493MOL0     H65049  -0.767   4.338   6.563 -2.0287 -1.7278  0.0089
  493MOL0     H65050  -0.814   4.077   6.660 -2.2353  0.3375  2.5862
  493MOL0     H65051  -0.895   4.161   6.533 -3.8842  0.3536 -0.5165
  493MOL0     H65052  -1.072   4.226   6.667  2.7193  2.9940  0.1587
  493MOL0     H65053  -0.979   4.196   6.817  1.1910  0.2431 -0.1771
  493MOL0     H65054  -1.071   3.963   6.638  1.6475 -1.5675  0.2015
  493MOL0     H65055  -1.011   3.965   6.809 -1.1412 -0.0994 -0.1753
  493MOL0     H65056  -1.265   3.940   6.773  0.1207  0.6462  0.7260
  493MOL0     H65057  -1.265   4.086   6.692 -1.0455 -1.7624 -0.2902
  493MOL0     H65058  -0.328   4.265   7.096  0.1674 -0.7786  0.7537
  493MOL0     H65059  -0.092   4.282   7.208  1.2646 -2.0556 -0.9688
  493MOL0     H65060   0.349   4.285   7.407 -3.1117 -0.8049 -3.3530
  493MOL0     H65061   0.599   4.354   7.429  0.3062  1.5712  0.5259
  493MOL0     H65062   2.132   5.315   7.867  1.8627  2.7632 -2.5898
  493MOL0     H65063   2.346   5.320   7.839 -0.6196 -1.9283  3.6476
  493MOL0     H65064   2.836   5.299   7.882 -0.7365 -0.5100 -0.0449
  493MOL0     H65065   3.052   5.234   7.842  0.5911  0.2583 -1.4452
  493MOL0     H65066   3.135   4.919   7.538  0.5791  0.8694  0.7853
  493MOL0     H65067   3.176   4.811   7.682  3.2453  0.1757  1.6369
  493MOL0     H65068   3.388   4.859   7.711 -0.4610  0.7023  0.8620
  493MOL0     H65069   3.358   4.849   7.538 -3.3160 -3.2936  1.4414
  493MOL0     H65070   3.381   5.102   7.714 -2.8486 -2.2602 -0.0245
  493MOL0     H65071   3.366   5.108   7.535  1.3338  2.8737  0.3608
  493MOL0     H65072   3.605   5.130   7.594  2.2326 -1.6611 -1.1047
  493MOL0     H65073   3.579   5.017   7.723 -2.3509  0.0108  0.0149
  493MOL0     H65074   3.726   4.795   7.392  0.8178  0.7967 -1.2845
  493MOL0     H65075   2.916   4.886   7.627  1.9306  0.7173 -1.7448
  493MOL0     H65076   2.678   4.957   7.677 -0.7544  3.0645 -0.6676
  494MOL0     O65077   9.601   4.990   4.609  0.5706  0.2293 -0.6592
  494MOL0     C65078   9.577   4.970   4.488 -0.0593 -0.1907  0.5432
  494MOL0     O65079   9.626   4.861   4.415 -0.1054  0.0904 -0.0429
  494MOL0     C65080   9.699   4.767   4.472 -0.2629 -0.2491 -0.4579
  494MOL0     C65081   9.672   4.632   4.446 -0.0095  0.4426 -0.7858
  494MOL0     C65082   9.764   4.536   4.474 -1.6211 -0.5130 -0.4738
  494MOL0     C65083   9.878   4.556   4.546 -0.3251 -1.4297 -0.2268
  494MOL0     O65084   9.956   4.446   4.569 -0.2296 -0.1871  0.3691
  494MOL0     C65085   9.990   4.432   4.705 -0.0021  0.1556 -0.7911
  494MOL0     C65086  10.073   4.306   4.742 -0.5181 -1.0289  0.3430
  494MOL0     C65087  10.219   4.312   4.679 -0.3178 -0.5434 -0.0207
  494MOL0     C65088  10.302   4.398   4.777 -1.5447 -0.3161 -0.2338
  494MOL0     C65089  10.450   4.413   4.726 -0.4425 -0.3872  0.0290
  494MOL0     C65090  10.544   4.445   4.836 -0.2093  0.4001 -0.6014
  494MOL0     C65091  10.686   4.484   4.800 -0.3786  0.3037  0.1331
  494MOL0     C65092  10.762   4.377   4.719  0.0417  1.2411 -0.5959
  494MOL0     N65093  10.853   4.288   4.798 -0.1065 -0.4970  0.4446
  494MOL0     C65094  10.831   4.159   4.840  0.4705 -0.2516  0.7305
  494MOL0     C65095  10.946   4.121   4.897 -0.6471 -0.3920  0.1325
  494MOL0     C65096  10.957   3.977   4.932  0.5576  0.4597  0.3985
  494MOL0     C65097  10.878   3.931   5.060  0.2412  0.1104  0.3014
  494MOL0     C65098  10.732   3.915   5.037  1.5205  0.2328  1.2679
  494MOL0     C65099  10.657   3.848   5.149  0.6042 -0.6120 -0.3096
  494MOL0     O65100  10.524   3.879   5.144  0.5819 -0.2446  1.0126
  494MOL0     C65101  10.438   3.835   5.232  0.4998  0.2727  1.2798
  494MOL0     C65102  10.463   3.770   5.350  0.6390 -1.2640  0.0256
  494MOL0     C65103  10.365   3.715   5.432  0.6051 -0.3789 -0.2599
  494MOL0     C65104  10.223   3.741   5.388 -0.1284 -0.1138  0.1926
  494MOL0     C65105  10.110   3.678   5.463  0.4506 -0.4867 -0.5945
  494MOL0     O65106  10.142   3.660   5.591  0.6607  0.1426 -0.4667
  494MOL0     C65107  10.036   3.632   5.670 -0.1713 -0.0525 -0.4597
  494MOL0     C65108   9.978   3.740   5.733  0.4797 -0.0678  0.8749
  494MOL0     C65109   9.877   3.718   5.830  0.4182 -0.1581  0.4488
  494MOL0     C65110   9.846   3.589   5.870 -0.1975  0.4831  0.0821
  494MOL0     O65111   9.765   3.559   5.980  0.8568  0.2853  0.2655
  494MOL0     C65112   9.655   3.467   5.953  0.8360  0.1408  0.6010
  494MOL0     C65113   9.523   3.535   5.986 -0.4125  0.4325 -0.0989
  494MOL0     C65114   9.405   3.433   5.993 -0.7670 -0.0540 -0.3082
  494MOL0     C65115   9.371   3.349   5.869  0.2444  0.1413  0.1391
  494MOL0     C65116   9.283   3.223   5.890 -0.3955 -0.2743  0.1814
  494MOL0     C65117   9.346   3.120   5.986 -0.4929  0.0691 -0.0411
  494MOL0     C65118   9.477   3.065   5.944 -0.1292 -0.1164 -0.1962
  494MOL0     C65119   9.501   2.940   6.025  0.0643 -0.8785  0.0609
  494MOL0    Cl65120   9.494   2.980   6.195  0.8356 -0.2642 -0.1028
  494MOL0     C65121   9.915   3.481   5.811 -0.7874  0.1331  1.9600
  494MOL0     C65122  10.015   3.505   5.713 -0.2267 -0.0371 -0.5932
  494MOL0     O65123   9.998   3.668   5.414 -0.0212 -0.3810 -0.7671
  494MOL0     C65124  10.205   3.807   5.265  0.7196 -0.6283 -1.0048
  494MOL0     C65125  10.311   3.849   5.190  0.0278 -0.0901 -1.1057
  494MOL0     N65126  11.044   4.220   4.893  0.6351  0.6933  0.4559
  494MOL0     N65127  10.992   4.315   4.820  0.2673 -0.1297 -0.1195
  494MOL0     C65128   9.897   4.688   4.587  0.0414 -0.2582 -0.0544
  494MOL0     C65129   9.813   4.797   4.554 -0.6824 -0.3972  0.0186
  494MOL0     C65130   9.513   5.076   4.411 -0.3208  0.2329 -0.7598
  494MOL0     C65131   9.525   5.091   4.274 -0.1054  1.1746  0.2051
  494MOL0     C65132   9.440   5.185   4.209 -0.0901  0.7358  0.1867
  494MOL0     C65133   9.348   5.267   4.279 -0.3725  0.0997 -0.2276
  494MOL0     O65134   9.260   5.354   4.218 -0.2358 -0.1602 -0.5900
  494MOL0     C65135   9.211   5.324   4.088 -0.6467  0.7426  0.1845
  494MOL0     C65136   9.133   5.189   4.091  0.7255  0.6626  0.0151
  494MOL0     C65137   9.068   5.145   3.965  0.4059  0.2905  0.1477
  494MOL0     C65138   9.034   4.993   3.956  0.7409  0.0148  0.4305
  494MOL0     C65139   8.916   4.952   4.043 -0.1907  0.1448 -0.1989
  494MOL0     C65140   8.831   4.912   4.117  0.1026  0.0805  0.2149
  494MOL0     C65141   9.340   5.256   4.416 -0.1451 -0.1286 -0.5717
  494MOL0     C65142   9.417   5.159   4.478  0.3573  0.4596  0.2614
  494MOL0     H65143   9.577   4.616   4.395  0.4701 -1.4101 -1.1488
  494MOL0     H65144   9.749   4.436   4.432 -0.4200 -0.8171 -0.2344
  494MOL0     H65145   9.895   4.419   4.757  0.1166  2.0833 -0.0041
  494MOL0     H65146  10.035   4.520   4.751  0.4451 -1.7470  2.8041
  494MOL0     H65147  10.025   4.228   4.682 -1.6461  2.3646 -3.6620
  494MOL0     H65148  10.076   4.291   4.850  0.6720  3.0423  1.0447
  494MOL0     H65149  10.223   4.345   4.575 -0.1882 -3.3338 -0.9800
  494MOL0     H65150  10.237   4.204   4.674 -0.3197 -0.7177  2.4390
  494MOL0     H65151  10.264   4.500   4.793  0.8912  0.4916  1.1092
  494MOL0     H65152  10.297   4.343   4.871 -0.6490 -0.5957 -0.3369
  494MOL0     H65153  10.454   4.499   4.658 -2.4233 -2.2400 -2.6668
  494MOL0     H65154  10.483   4.322   4.674  1.5173  0.4944 -0.3578
  494MOL0     H65155  10.554   4.352   4.894 -1.2344  0.6011 -0.0832
  494MOL0     H65156  10.498   4.525   4.894 -2.5822 -2.4232  1.7957
  494MOL0     H65157  10.672   4.579   4.746  0.1945 -1.4013 -3.2610
  494MOL0     H65158  10.742   4.504   4.891  1.4913 -2.1722 -0.3838
  494MOL0     H65159  10.816   4.426   4.637 -0.2047  1.5451 -0.5820
  494MOL0     H65160  10.695   4.310   4.665 -3.1414 -0.2966  4.5274
  494MOL0     H65161  10.741   4.102   4.820  0.6520 -0.2775 -0.0389
  494MOL0     H65162  11.058   3.951   4.963 -1.0259 -1.0857  5.2068
  494MOL0     H65163  10.940   3.910   4.847  1.6156  0.1103  0.4549
  494MOL0     H65164  10.891   3.997   5.146  0.2460  0.3123  0.1477
  494MOL0     H65165  10.909   3.829   5.084 -0.0615 -0.1614 -0.4078
  494MOL0     H65166  10.691   4.011   5.006  1.5803 -0.9137 -2.9466
  494MOL0     H65167  10.722   3.849   4.950  0.3517  0.0662  1.5133
  494MOL0     H65168  10.698   3.878   5.246  0.6950  0.6607 -0.7135
  494MOL0     H65169  10.674   3.740   5.152 -0.5308 -0.8138  3.1284
  494MOL0     H65170  10.562   3.742   5.385  0.4550 -3.8248 -1.2507
  494MOL0     H65171  10.399   3.668   5.524  1.6070 -0.8006 -0.8316
  494MOL0     H65172   9.998   3.843   5.704  0.0207 -0.0778  0.5176
  494MOL0     H65173   9.847   3.803   5.890 -0.8485  0.1233 -0.5527
  494MOL0     H65174   9.670   3.376   6.012  2.4896 -3.3673 -4.5592
  494MOL0     H65175   9.656   3.430   5.851  1.4191  0.7027  0.3969
  494MOL0     H65176   9.495   3.621   5.925 -0.5278  2.3970  2.5350
  494MOL0     H65177   9.546   3.587   6.080  0.3130  0.3969 -0.2469
  494MOL0     H65178   9.314   3.479   6.033  0.9695  1.7519  1.8821
  494MOL0     H65179   9.449   3.370   6.071 -0.5343  1.4734  0.8612
  494MOL0     H65180   9.323   3.423   5.804  1.8397  1.4406  0.3901
  494MOL0     H65181   9.465   3.312   5.827 -1.2078 -1.9782 -1.4298
  494MOL0     H65182   9.253   3.166   5.802 -3.4494  1.0399  0.2486
  494MOL0     H65183   9.190   3.261   5.933  1.0929  1.2906  2.2287
  494MOL0     H65184   9.275   3.038   6.001 -0.3405  0.1799  1.4072
  494MOL0     H65185   9.361   3.163   6.085  2.1933 -1.3984  0.2712
  494MOL0     H65186   9.477   3.038   5.838  3.1629 -1.9434  0.1456
  494MOL0     H65187   9.552   3.142   5.958 -1.8177  1.4148  1.0235
  494MOL0     H65188   9.597   2.894   6.000 -0.7699 -1.8517 -1.5066
  494MOL0     H65189   9.430   2.865   5.989  0.1787 -0.6036 -0.7565
  494MOL0     H65190   9.896   3.378   5.840  2.6854 -0.7391  1.6083
  494MOL0     H65191  10.075   3.424   5.674 -0.4353  0.1459 -1.3088
  494MOL0     H65192  10.100   3.828   5.247  0.7254  3.5122  2.1772
  494MOL0     H65193  10.289   3.896   5.094  2.3743 -1.0399 -2.1729
  494MOL0     H65194   9.976   4.710   4.658  1.5649  0.1682 -1.8265
  494MOL0     H65195   9.825   4.900   4.587 -0.7555  0.2249 -1.7799
  494MOL0     H65196   9.604   5.036   4.223 -1.7351 -1.5630  0.4566
  494MOL0     H65197   9.449   5.177   4.101 -0.1607  2.4808  0.0242
  494MOL0     H65198   9.296   5.312   4.020  0.1381  1.0395  1.1008
  494MOL0     H65199   9.148   5.400   4.040 -1.0838 -1.7797 -3.7120
  494MOL0     H65200   9.206   5.111   4.118  1.8695  1.1957 -1.4286
  494MOL0     H65201   9.055   5.190   4.168  1.4279  0.1294  0.7453
  494MOL0     H65202   9.138   5.171   3.885  1.0010 -0.4669  0.4065
  494MOL0     H65203   8.976   5.204   3.957 -0.6094 -1.4708 -3.1806
  494MOL0     H65204   9.007   4.959   3.856 -0.8274 -1.2103  1.2284
  494MOL0     H65205   9.125   4.954   4.001  0.9584  1.1105  0.9920
  494MOL0     H65206   8.752   4.881   4.183 -2.0380 -1.5135 -2.8710
  494MOL0     H65207   9.267   5.312   4.473  0.7901  1.6847 -1.0650
  494MOL0     H65208   9.379   5.143   4.579  1.2504 -0.5834  0.4525
  495MOL0     O65209  10.013   0.419   8.486  0.1963  0.2526  0.2290
  495MOL0     C65210   9.989   0.450   8.603 -0.4487  0.1299  0.0143
  495MOL0     O65211   9.878   0.510   8.650  0.4881  0.7438 -0.0717
  495MOL0     C65212   9.783   0.566   8.575  0.4866  0.1874  0.1951
  495MOL0     C65213   9.681   0.613   8.657 -0.3618  0.6701  0.5232
  495MOL0     C65214   9.563   0.666   8.609 -0.6708 -0.5151  1.2697
  495MOL0     C65215   9.558   0.694   8.471 -0.2639 -0.2087  0.3250
  495MOL0     O65216   9.437   0.741   8.422 -0.1091 -0.2006 -0.2686
  495MOL0     C65217   9.414   0.758   8.279  0.1227  0.1768 -0.2074
  495MOL0     C65218   9.281   0.826   8.265 -0.2190 -1.0629  0.0837
  495MOL0     C65219   9.162   0.749   8.332 -0.0363 -0.3448  0.8174
  495MOL0     C65220   9.031   0.838   8.335 -0.3723 -0.2896  0.6697
  495MOL0     C65221   8.912   0.742   8.297  0.4990  0.5050 -0.4167
  495MOL0     C65222   8.773   0.801   8.315  0.4466  0.4688 -0.3198
  495MOL0     C65223   8.676   0.702   8.249  0.2411 -0.1494 -0.3550
  495MOL0     C65224   8.532   0.767   8.261 -0.5921  0.2540  0.0305
  495MOL0     N65225   8.447   0.667   8.194 -0.0259 -0.9720 -0.1583
  495MOL0     C65226   8.344   0.613   8.264  0.9361 -0.3106 -1.2618
  495MOL0     C65227   8.284   0.541   8.168 -0.3463 -0.4045  0.7573
  495MOL0     C65228   8.163   0.461   8.179  0.5540  0.0481  0.8310
  495MOL0     C65229   8.047   0.558   8.210 -0.1485  0.4241 -0.5674
  495MOL0     C65230   7.965   0.499   8.324  0.4320 -0.0795  0.1452
  495MOL0     C65231   7.840   0.586   8.340 -0.5233 -0.8723  0.3638
  495MOL0     O65232   7.789   0.630   8.212 -0.7661 -0.5617 -0.3232
  495MOL0     C65233   7.689   0.728   8.211 -0.1825  0.1675  0.2677
  495MOL0     C65234   7.712   0.860   8.248 -0.2561 -0.3521 -0.0351
  495MOL0     C65235   7.620   0.964   8.231 -0.0088 -1.1606  0.0034
  495MOL0     C65236   7.500   0.944   8.162  0.5053 -0.0851 -0.3618
  495MOL0     C65237   7.408   1.053   8.117 -0.2652  0.0187  0.3844
  495MOL0     O65238   7.321   1.005   8.018  0.2839  0.0770 -0.0557
  495MOL0     C65239   7.224   1.076   7.963  1.0011 -1.2813 -0.9600
  495MOL0     C65240   7.138   1.164   8.049  0.1538 -0.0980  1.5711
  495MOL0     C65241   7.032   1.245   8.006  0.1179 -0.3061  0.4671
  495MOL0     C65242   7.002   1.242   7.874 -0.6670 -0.6798 -0.3824
  495MOL0     O65243   6.912   1.321   7.813  0.8317  0.3134 -0.9892
  495MOL0     C65244   6.777   1.299   7.865 -0.1129 -1.2577 -0.0227
  495MOL0     C65245   6.678   1.290   7.749 -0.1325  0.4703  0.1515
  495MOL0     C65246   6.717   1.202   7.627  0.9764  0.7389 -0.1730
  495MOL0     C65247   6.693   1.057   7.657 -0.5725 -0.3428 -0.2700
  495MOL0     C65248   6.545   1.009   7.666  0.4713 -0.9428 -0.1235
  495MOL0     C65249   6.523   0.862   7.666 -0.4556  0.6207 -0.3903
  495MOL0     C65250   6.370   0.847   7.697 -0.1975 -0.0260 -0.4168
  495MOL0     C65251   6.332   0.703   7.707  0.1519 -0.5854 -0.0788
  495MOL0    Cl65252   6.326   0.626   7.550  0.1209  0.1537  0.3550
  495MOL0     C65253   7.078   1.162   7.780  0.8217 -0.0194 -0.5049
  495MOL0     C65254   7.176   1.076   7.822 -0.8215  0.0673  0.0442
  495MOL0     O65255   7.423   1.172   8.157 -0.5814  0.4630  0.8979
  495MOL0     C65256   7.480   0.809   8.113  0.4003  0.2211 -0.6058
  495MOL0     C65257   7.572   0.699   8.146  1.1488 -0.2841 -0.1010
  495MOL0     N65258   8.352   0.543   8.050  0.1846 -0.9078  0.0508
  495MOL0     N65259   8.452   0.623   8.064  0.2898  0.0980  0.7195
  495MOL0     C65260   9.663   0.657   8.385  0.0856 -0.0241 -0.4852
  495MOL0     C65261   9.770   0.580   8.436  0.4002  0.4422  0.3492
  495MOL0     C65262  10.093   0.407   8.708  0.0491  0.8361  0.9162
  495MOL0     C65263  10.205   0.324   8.671 -0.0220 -0.4704 -0.4444
  495MOL0     C65264  10.307   0.289   8.766 -0.2247  0.1303  1.0838
  495MOL0     C65265  10.295   0.331   8.898 -0.0942 -0.0558  0.7590
  495MOL0     O65266  10.392   0.299   8.986  0.1333 -0.4146  0.3977
  495MOL0     C65267  10.430   0.167   9.015  0.6591 -0.5429  0.9875
  495MOL0     C65268  10.385   0.109   9.151  0.6604 -0.1634 -0.5510
  495MOL0     C65269  10.232   0.117   9.165 -0.5879  0.4427  0.5480
  495MOL0     C65270  10.174  -0.002   9.239  0.8566 -0.2684 -0.7421
  495MOL0     C65271  10.026   0.008   9.246 -0.2094 -0.2979 -0.0502
  495MOL0     C65272   9.908   0.020   9.219 -0.4215 -0.0729 -0.0719
  495MOL0     C65273  10.176   0.399   8.937 -0.6876 -0.6232 -0.0913
  495MOL0     C65274  10.084   0.444   8.836  0.5742 -0.4500 -0.5797
  495MOL0     H65275   9.682   0.602   8.765 -0.8559 -0.3488  0.4369
  495MOL0     H65276   9.488   0.684   8.685  2.0626  1.1813  3.7487
  495MOL0     H65277   9.403   0.663   8.227 -0.3602  0.1467 -0.0611
  495MOL0     H65278   9.491   0.822   8.234 -1.5816  1.2755 -1.7158
  495MOL0     H65279   9.255   0.839   8.160 -1.4277 -0.4943  0.4364
  495MOL0     H65280   9.290   0.927   8.307 -2.2210 -0.3962 -0.9259
  495MOL0     H65281   9.188   0.715   8.433  0.3841  3.0402  1.9472
  495MOL0     H65282   9.156   0.666   8.261  1.9178  0.4233 -0.2995
  495MOL0     H65283   9.026   0.878   8.437  0.0666 -2.7924  1.7566
  495MOL0     H65284   9.027   0.915   8.257  0.0157 -0.9054  0.0285
  495MOL0     H65285   8.922   0.653   8.360  1.9206 -0.2222 -1.5874
  495MOL0     H65286   8.937   0.697   8.201 -1.8690 -3.0658  0.4466
  495MOL0     H65287   8.760   0.901   8.274  0.3595 -0.3600 -2.4698
  495MOL0     H65288   8.747   0.808   8.421  1.5101 -1.5601  0.1440
  495MOL0     H65289   8.705   0.694   8.144  3.2908  0.4515  0.3485
  495MOL0     H65290   8.672   0.604   8.298  0.6399 -0.2772 -0.5804
  495MOL0     H65291   8.537   0.858   8.200  2.8782 -0.4810 -1.0273
  495MOL0     H65292   8.488   0.787   8.359 -0.5943  1.5373 -0.2112
  495MOL0     H65293   8.323   0.617   8.371  0.8532 -1.6018 -1.2131
  495MOL0     H65294   8.183   0.392   8.261 -1.8759 -2.9486 -0.8785
  495MOL0     H65295   8.146   0.395   8.094 -0.4551  1.4522 -0.1147
  495MOL0     H65296   7.983   0.576   8.123  0.5823 -1.7430 -1.6232
  495MOL0     H65297   8.093   0.651   8.245 -1.0307 -0.2853  2.7589
  495MOL0     H65298   7.939   0.396   8.300 -1.2307 -0.9534  4.6612
  495MOL0     H65299   8.027   0.496   8.414 -1.4963  0.5818  1.5670
  495MOL0     H65300   7.860   0.673   8.402 -1.1845 -0.1109 -0.4629
  495MOL0     H65301   7.759   0.530   8.388 -1.8179  0.3316 -0.3337
  495MOL0     H65302   7.801   0.877   8.309 -0.0617  0.3397 -0.5014
  495MOL0     H65303   7.656   1.059   8.268  0.8517 -2.0396  1.5590
  495MOL0     H65304   7.163   1.174   8.154 -0.8729 -0.0104  1.8123
  495MOL0     H65305   6.974   1.300   8.079 -1.5672 -1.7383  0.2824
  495MOL0     H65306   6.757   1.380   7.934  2.7903  1.2644 -1.8790
  495MOL0     H65307   6.780   1.204   7.919  0.5604 -0.5960  1.1229
  495MOL0     H65308   6.653   1.388   7.709 -2.1065  0.1099  0.4200
  495MOL0     H65309   6.586   1.242   7.782 -0.7921  1.6798  0.1195
  495MOL0     H65310   6.819   1.211   7.588  0.4901  0.1872 -1.6512
  495MOL0     H65311   6.652   1.236   7.546 -2.0565 -1.0307  1.3632
  495MOL0     H65312   6.746   0.994   7.586 -0.4029 -2.2458  1.4661
  495MOL0     H65313   6.741   1.028   7.751  1.0550 -1.2621 -1.3502
  495MOL0     H65314   6.480   1.056   7.591  1.2131 -0.5746 -0.5484
  495MOL0     H65315   6.506   1.048   7.760  4.2192 -4.7038  3.4314
  495MOL0     H65316   6.577   0.803   7.740 -1.4365  2.3518  1.7898
  495MOL0     H65317   6.538   0.816   7.568  2.5733  1.2553 -0.3214
  495MOL0     H65318   6.354   0.886   7.798 -0.7156 -3.7005  1.0583
  495MOL0     H65319   6.313   0.901   7.620  0.1274 -0.4259 -0.9468
  495MOL0     H65320   6.234   0.707   7.755 -0.8580  1.0594 -2.1341
  495MOL0     H65321   6.402   0.648   7.770 -1.2291 -0.2525  1.8246
  495MOL0     H65322   7.043   1.172   7.677  1.6097  4.9026 -0.5606
  495MOL0     H65323   7.227   1.007   7.756 -0.3293 -2.6407  3.0278
  495MOL0     H65324   7.396   0.776   8.052  0.4848  0.2815 -0.7535
  495MOL0     H65325   7.559   0.597   8.111 -2.2237  0.4473 -1.3840
  495MOL0     H65326   9.663   0.677   8.279  3.1157 -1.2811 -0.8337
  495MOL0     H65327   9.864   0.548   8.392  1.1750 -2.3215  3.6248
  495MOL0     H65328  10.207   0.298   8.566 -1.3291  1.8658 -1.1234
  495MOL0     H65329  10.398   0.234   8.747  1.0652  2.5040 -0.0623
  495MOL0     H65330  10.537   0.170   9.037  0.3579 -2.7303  3.2068
  495MOL0     H65331  10.408   0.102   8.929  1.0716  0.2075  0.3021
  495MOL0     H65332  10.411   0.003   9.159 -2.8635 -1.0569  4.2355
  495MOL0     H65333  10.426   0.153   9.243 -0.6002  0.6394 -0.3395
  495MOL0     H65334  10.188   0.133   9.066 -0.2634  0.0319  0.3346
  495MOL0     H65335  10.211   0.197   9.237 -0.6815 -0.5662  1.6887
  495MOL0     H65336  10.197  -0.098   9.193 -4.4607 -1.5944 -1.2632
  495MOL0     H65337  10.210  -0.003   9.342  0.4299  0.5415 -0.5784
  495MOL0     H65338   9.801   0.027   9.210 -0.9100 -3.0185  1.9070
  495MOL0     H65339  10.143   0.421   9.038  3.5526  3.6871  0.7200
  495MOL0     H65340   9.992   0.497   8.859 -0.8670 -2.1730 -2.1037
  496MOL0     O65341   9.283   4.308   7.067 -0.6013 -0.0018  0.4747
  496MOL0     C65342   9.224   4.373   7.154  0.2367 -0.2260  0.2668
  496MOL0     O65343   9.275   4.407   7.280 -0.0804 -0.1080 -0.0113
  496MOL0     C65344   9.409   4.400   7.288  0.5016 -1.0868  0.6996
  496MOL0     C65345   9.479   4.284   7.291 -0.0944  0.0766  0.2641
  496MOL0     C65346   9.609   4.274   7.305  0.3606 -0.6829  0.9587
  496MOL0     C65347   9.696   4.389   7.301  0.7141 -0.1440  0.1474
  496MOL0     O65348   9.830   4.362   7.310  0.0823  0.7689  0.6940
  496MOL0     C65349   9.909   4.472   7.271 -0.2458  0.0669  0.4330
  496MOL0     C65350  10.050   4.431   7.291  0.5837 -1.1448 -0.0284
  496MOL0     C65351  10.144   4.518   7.217 -0.0085 -0.1751 -0.9792
  496MOL0     C65352  10.278   4.455   7.210 -0.4362 -0.5719 -0.2131
  496MOL0     C65353  10.396   4.542   7.149  0.6138  0.8583 -0.4686
  496MOL0     C65354  10.525   4.469   7.133 -0.0346  0.4941  0.4786
  496MOL0     C65355  10.625   4.528   7.040 -0.6838  0.3052  0.1889
  496MOL0     C65356  10.686   4.658   7.096  0.9438  1.0678  0.0933
  496MOL0     N65357  10.776   4.725   6.996 -0.1359 -0.0572  0.3973
  496MOL0     C65358  10.893   4.682   6.957  0.6468  0.7389 -0.0951
  496MOL0     C65359  10.953   4.790   6.899 -0.6291  0.3687 -0.0081
  496MOL0     C65360  11.096   4.796   6.848  0.6209  0.5513  0.4505
  496MOL0     C65361  11.200   4.778   6.954  0.0275  0.3842  0.0999
  496MOL0     C65362  11.343   4.805   6.888 -0.1449 -0.1195  0.1711
  496MOL0     C65363  11.456   4.784   6.989 -0.9679 -1.0701  0.1100
  496MOL0     O65364  11.583   4.789   6.906 -0.5657 -0.2541 -0.0619
  496MOL0     C65365  11.704   4.828   6.962 -0.0587  0.6271  0.2779
  496MOL0     C65366  11.728   4.886   7.099  1.1404  0.6621  0.7208
  496MOL0     C65367  11.852   4.902   7.137 -0.8310 -0.5406  0.2227
  496MOL0     C65368  11.972   4.874   7.053 -1.2000 -0.1803  0.2745
  496MOL0     C65369  12.115   4.891   7.101 -0.0443 -0.2508  0.0314
  496MOL0     O65370  12.210   4.824   7.035 -0.0684 -0.0633 -0.3011
  496MOL0     C65371  12.312   4.894   6.983 -0.0391 -0.6131 -0.2358
  496MOL0     C65372  12.318   4.912   6.843  0.0875  0.6061 -0.2298
  496MOL0     C65373  12.429   4.979   6.785 -1.4919 -0.0097 -0.1502
  496MOL0     C65374  12.540   5.024   6.866 -0.6968  0.4041 -0.2321
  496MOL0     O65375  12.642   5.088   6.806  0.2887  0.2387  0.7602
  496MOL0     C65376  12.769   5.079   6.867 -1.1911  0.2567 -0.5199
  496MOL0     C65377  12.859   5.192   6.823 -0.2509  0.3599  0.1018
  496MOL0     C65378  12.804   5.326   6.874 -0.6837 -0.2240 -0.5789
  496MOL0     C65379  12.873   5.447   6.805 -0.4299 -0.3300  0.3846
  496MOL0     C65380  13.021   5.455   6.831 -0.2469 -0.6632 -0.9023
  496MOL0     C65381  13.046   5.502   6.981  0.3971  0.2583  0.1672
  496MOL0     C65382  13.190   5.553   6.985 -0.7995 -1.1023 -0.3937
  496MOL0     C65383  13.203   5.627   7.120 -0.3819  0.8217  0.4324
  496MOL0    Cl65384  13.365   5.682   7.147 -0.1255  0.1426 -0.0617
  496MOL0     C65385  12.529   5.000   7.000  0.2188 -0.4906 -0.0030
  496MOL0     C65386  12.420   4.941   7.060  0.4551  0.3931  0.4597
  496MOL0     O65387  12.135   4.942   7.210  0.3991 -0.3902 -0.8194
  496MOL0     C65388  11.944   4.840   6.922  0.2252  0.4698 -0.2206
  496MOL0     C65389  11.816   4.810   6.876  0.4758  0.1083 -0.2162
  496MOL0     N65390  10.864   4.891   6.903  0.8414  0.0774  1.1254
  496MOL0     N65391  10.758   4.853   6.947  0.1889 -0.4317 -1.4249
  496MOL0     C65392   9.632   4.513   7.306 -0.0788 -0.4425 -1.3573
  496MOL0     C65393   9.489   4.515   7.291 -0.4450 -0.5080 -0.0310
  496MOL0     C65394   9.081   4.403   7.125  0.4168 -0.1383  0.2027
  496MOL0     C65395   9.013   4.377   7.004 -0.0585 -0.3733 -0.3643
  496MOL0     C65396   8.887   4.427   6.974  0.1434 -0.0630 -0.9631
  496MOL0     C65397   8.821   4.506   7.069 -0.2855 -0.0599  0.1119
  496MOL0     O65398   8.692   4.552   7.055 -0.5411 -0.0515  0.7714
  496MOL0     C65399   8.640   4.537   6.928  0.3747  0.2131 -0.5860
  496MOL0     C65400   8.520   4.623   6.895  1.2859 -0.2204  0.2660
  496MOL0     C65401   8.396   4.546   6.949  0.5927  0.0124  0.3216
  496MOL0     C65402   8.255   4.586   6.890 -0.1159 -0.3771  0.6848
  496MOL0     C65403   8.153   4.507   6.954  0.3884 -0.0939  0.2490
  496MOL0     C65404   8.074   4.433   7.011 -0.0697  0.0233 -0.5291
  496MOL0     C65405   8.879   4.530   7.194  0.5264 -0.3908  0.0718
  496MOL0     C65406   9.009   4.484   7.221  0.1432  1.1684  0.0512
  496MOL0     H65407   9.424   4.191   7.303 -1.1433  0.9522  3.0192
  496MOL0     H65408   9.665   4.181   7.314  1.3577 -0.1852  0.1420
  496MOL0     H65409   9.887   4.563   7.329 -1.1159  0.3411 -0.3116
  496MOL0     H65410   9.885   4.496   7.167 -2.6455 -0.8532  0.7212
  496MOL0     H65411  10.066   4.334   7.244  1.1586 -0.7651 -0.6367
  496MOL0     H65412  10.079   4.427   7.397  1.4749 -2.3826 -0.2937
  496MOL0     H65413  10.164   4.606   7.279 -1.8830  1.7018 -2.8524
  496MOL0     H65414  10.110   4.559   7.121  0.9391  1.0368 -0.8309
  496MOL0     H65415  10.315   4.426   7.308  1.6731 -0.2208 -0.8482
  496MOL0     H65416  10.264   4.372   7.140 -0.3445  0.1760 -1.1385
  496MOL0     H65417  10.413   4.635   7.204  0.4607  1.4218 -1.3530
  496MOL0     H65418  10.364   4.566   7.048 -2.2946 -1.5195 -0.2322
  496MOL0     H65419  10.508   4.366   7.099 -1.0101  0.9203 -0.3917
  496MOL0     H65420  10.576   4.459   7.229  1.8679  1.2129 -0.3975
  496MOL0     H65421  10.702   4.462   7.001 -0.8897  1.2239 -1.8735
  496MOL0     H65422  10.569   4.555   6.950 -0.9305 -0.2567  0.1671
  496MOL0     H65423  10.742   4.639   7.188  0.5538  1.1104  0.3424
  496MOL0     H65424  10.611   4.732   7.124  1.5701  1.9715 -0.5861
  496MOL0     H65425  10.930   4.582   6.978 -1.0654 -0.1621 -1.2006
  496MOL0     H65426  11.107   4.898   6.809  1.3841  1.0625  1.8964
  496MOL0     H65427  11.120   4.718   6.776  1.3295  0.9916  0.1976
  496MOL0     H65428  11.190   4.677   6.997  1.0077 -1.2149 -3.0896
  496MOL0     H65429  11.182   4.855   7.029  1.6835 -1.6072  2.7050
  496MOL0     H65430  11.344   4.745   6.796 -0.9404 -1.7471  1.1854
  496MOL0     H65431  11.357   4.911   6.865 -1.3489  0.4204  1.8279
  496MOL0     H65432  11.438   4.690   7.042 -1.7332  0.0658  1.9577
  496MOL0     H65433  11.461   4.871   7.055  0.1651 -1.2136  0.2411
  496MOL0     H65434  11.657   4.922   7.173 -0.6520  0.3132 -0.7741
  496MOL0     H65435  11.885   4.946   7.231 -2.2425  1.9012 -0.3310
  496MOL0     H65436  12.242   4.883   6.772 -2.5752  0.7645  2.3763
  496MOL0     H65437  12.423   5.003   6.679  1.6866 -0.0529 -0.4359
  496MOL0     H65438  12.817   4.983   6.843 -2.0561 -0.3935  0.2928
  496MOL0     H65439  12.756   5.083   6.975 -2.6080  1.1757 -0.7054
  496MOL0     H65440  12.864   5.190   6.714  0.6148 -0.6277  0.1416
  496MOL0     H65441  12.958   5.163   6.859 -0.0455  3.3060  2.3257
  496MOL0     H65442  12.810   5.327   6.983 -0.1558  0.9514 -0.6022
  496MOL0     H65443  12.700   5.324   6.841 -0.4444 -2.8107 -1.4061
  496MOL0     H65444  12.868   5.443   6.696  0.5252  1.1740  0.2527
  496MOL0     H65445  12.825   5.536   6.847  0.5977  0.4081  0.0356
  496MOL0     H65446  13.054   5.533   6.761  0.7544 -1.1152 -0.9472
  496MOL0     H65447  13.071   5.359   6.817  0.7581 -0.0720 -1.5056
  496MOL0     H65448  13.033   5.414   7.044  4.1826 -1.0881 -0.6625
  496MOL0     H65449  12.976   5.583   7.002 -0.2627 -0.2127 -0.1885
  496MOL0     H65450  13.251   5.462   6.988  0.0475 -0.5202  0.8138
  496MOL0     H65451  13.224   5.618   6.904  2.2901 -1.0202  0.8386
  496MOL0     H65452  13.161   5.568   7.202  2.5562  0.6522  1.9734
  496MOL0     H65453  13.143   5.718   7.122 -2.0588 -0.2463  1.1650
  496MOL0     H65454  12.599   5.046   7.070  0.6056 -1.4583  0.2582
  496MOL0     H65455  12.428   4.911   7.164 -0.9432  3.4189  1.5377
  496MOL0     H65456  12.023   4.821   6.850  1.3499 -0.9927  1.2999
  496MOL0     H65457  11.802   4.794   6.769 -1.5084 -3.7624  0.4368
  496MOL0     H65458   9.692   4.601   7.329  0.9437 -0.5607 -3.3953
  496MOL0     H65459   9.450   4.614   7.313 -0.3290 -0.8651  1.9882
  496MOL0     H65460   9.064   4.319   6.928 -3.4340 -3.8619 -0.2534
  496MOL0     H65461   8.842   4.407   6.877  0.4521  0.5388 -1.2322
  496MOL0     H65462   8.643   4.432   6.899  1.7944  0.3633 -1.0999
  496MOL0     H65463   8.720   4.582   6.867 -0.3016  1.3231 -0.6785
  496MOL0     H65464   8.525   4.715   6.954  0.2648 -0.9835  1.5887
  496MOL0     H65465   8.507   4.637   6.787  2.8080 -2.7629 -0.3281
  496MOL0     H65466   8.398   4.551   7.058  2.4292 -4.2724  0.7150
  496MOL0     H65467   8.406   4.442   6.916  0.9246 -0.4227  1.7320
  496MOL0     H65468   8.236   4.690   6.918 -2.3479 -0.4320 -0.3738
  496MOL0     H65469   8.245   4.582   6.781 -3.3927 -1.8291  0.9315
  496MOL0     H65470   8.014   4.360   7.060 -0.5448  1.1296  0.5978
  496MOL0     H65471   8.812   4.586   7.258 -0.5739 -0.8837 -0.6169
  496MOL0     H65472   9.057   4.516   7.313  0.8092  1.3955 -0.3630
  497MOL0     O65473   3.121   3.198   6.877 -0.4687 -0.1780 -0.1090
  497MOL0     C65474   3.156   3.183   6.996 -0.0005  0.4398 -0.0697
  497MOL0     O65475   3.083   3.149   7.100  0.0727 -0.4516  0.2656
  497MOL0     C65476   2.956   3.102   7.096  0.6960 -0.1601  0.6089
  497MOL0     C65477   2.910   3.003   7.006  0.0242 -0.5664 -0.8818
  497MOL0     C65478   2.784   2.942   7.026  0.0328  0.7229 -0.0116
  497MOL0     C65479   2.695   2.995   7.130 -0.6061 -0.7346 -0.0758
  497MOL0     O65480   2.564   2.959   7.156 -0.1290 -0.2473 -0.0480
  497MOL0     C65481   2.503   2.854   7.080 -0.2142  0.1794 -0.1090
  497MOL0     C65482   2.359   2.809   7.133 -0.3550  0.8447  0.6052
  497MOL0     C65483   2.262   2.921   7.109 -0.0898 -0.2609 -0.8658
  497MOL0     C65484   2.121   2.878   7.174  0.3581 -0.1629 -0.3612
  497MOL0     C65485   2.011   2.980   7.132  0.4311  0.8197 -0.3013
  497MOL0     C65486   1.873   2.935   7.185 -0.3942  0.2183 -0.4945
  497MOL0     C65487   1.759   3.033   7.143  0.4439  0.3303  0.0823
  497MOL0     C65488   1.640   3.015   7.242  0.8897 -0.2466  0.5115
  497MOL0     N65489   1.514   3.087   7.197 -0.2846 -0.1595  0.1294
  497MOL0     C65490   1.500   3.193   7.115 -0.2867 -0.5909  0.6782
  497MOL0     C65491   1.366   3.226   7.107  1.0312  0.6095 -0.8175
  497MOL0     C65492   1.297   3.333   7.023 -0.2055  0.6253  0.0929
  497MOL0     C65493   1.295   3.301   6.879  0.3514  0.9795 -0.5847
  497MOL0     C65494   1.259   3.420   6.793 -0.4300  0.1257  0.5633
  497MOL0     C65495   1.347   3.542   6.788  0.8742 -0.1485 -0.4984
  497MOL0     O65496   1.466   3.493   6.732  0.0810  0.4563 -0.0273
  497MOL0     C65497   1.588   3.539   6.779  0.5815 -0.2325 -0.0478
  497MOL0     C65498   1.607   3.608   6.904  0.7946 -0.3099 -1.0942
  497MOL0     C65499   1.734   3.650   6.948 -0.1289 -0.3006 -0.6893
  497MOL0     C65500   1.849   3.629   6.866 -0.1277 -1.0653 -0.2500
  497MOL0     C65501   1.991   3.666   6.900 -0.5951 -0.1396 -0.2540
  497MOL0     O65502   2.085   3.637   6.806  0.5144  0.0266 -0.2940
  497MOL0     C65503   2.208   3.702   6.815  0.8756 -0.1661  0.0589
  497MOL0     C65504   2.205   3.837   6.840 -0.5160 -0.0888  0.2868
  497MOL0     C65505   2.324   3.906   6.848  0.8348  0.3640 -0.3023
  497MOL0     C65506   2.447   3.849   6.823  0.2508  0.4057 -0.2434
  497MOL0     O65507   2.555   3.931   6.824 -0.6416  0.2905  0.3920
  497MOL0     C65508   2.673   3.867   6.869 -0.0836  0.5442  0.6292
  497MOL0     C65509   2.786   3.970   6.877  0.2413  0.9989 -0.4499
  497MOL0     C65510   2.857   3.970   6.737 -0.4350 -1.0465 -0.1376
  497MOL0     C65511   2.970   4.081   6.708  0.6276  0.6453 -0.0832
  497MOL0     C65512   2.904   4.217   6.679  0.6045 -0.2719  0.3303
  497MOL0     C65513   3.005   4.331   6.692  0.3515  1.2830  0.5567
  497MOL0     C65514   3.083   4.359   6.555  1.0307 -0.0812  0.2085
  497MOL0     C65515   3.182   4.479   6.568 -0.4537  1.0259  0.6826
  497MOL0    Cl65516   3.097   4.614   6.629  0.3315 -0.2901 -0.2124
  497MOL0     C65517   2.444   3.717   6.770  0.0830 -0.2149 -1.5666
  497MOL0     C65518   2.328   3.643   6.762  0.6112  0.0272  0.7007
  497MOL0     O65519   2.003   3.731   7.000  0.0686 -0.5212  0.2130
  497MOL0     C65520   1.824   3.569   6.742  0.0985 -0.7788  0.2312
  497MOL0     C65521   1.698   3.526   6.694 -0.1998  0.3537 -0.5212
  497MOL0     N65522   1.302   3.138   7.198  0.5802  0.5528 -0.6296
  497MOL0     N65523   1.393   3.060   7.256 -0.4839 -0.7029 -0.2008
  497MOL0     C65524   2.743   3.097   7.215  0.7009  0.0284  0.2811
  497MOL0     C65525   2.874   3.149   7.201  0.2570  0.6021  0.2319
  497MOL0     C65526   3.305   3.212   7.030  0.8061 -0.1688  0.3427
  497MOL0     C65527   3.400   3.213   6.925 -0.1500 -0.0573  0.3761
  497MOL0     C65528   3.534   3.237   6.941  0.1872  0.8894  0.4493
  497MOL0     C65529   3.590   3.254   7.072  0.4148 -0.2963 -0.6252
  497MOL0     O65530   3.727   3.282   7.077  0.1467  0.0392  0.2167
  497MOL0     C65531   3.799   3.239   7.188  0.7283 -0.4762 -0.3330
  497MOL0     C65532   3.929   3.321   7.193 -0.5399 -0.0205 -0.3581
  497MOL0     C65533   3.895   3.467   7.244  0.4595 -0.0641  0.3574
  497MOL0     C65534   4.025   3.538   7.304  0.2754  0.5235 -0.1514
  497MOL0     C65535   4.079   3.459   7.412  0.2274  0.2447 -0.9167
  497MOL0     C65536   4.106   3.389   7.508 -0.2523 -0.0079  0.5881
  497MOL0     C65537   3.503   3.226   7.180  0.5133 -0.6488 -0.2381
  497MOL0     C65538   3.360   3.222   7.158  0.5085 -0.4419  0.1256
  497MOL0     H65539   2.976   2.961   6.931  0.4986 -0.4568 -0.5388
  497MOL0     H65540   2.749   2.866   6.956  0.4053  0.5092  0.0302
  497MOL0     H65541   2.577   2.775   7.068 -0.3706  0.0096  0.0435
  497MOL0     H65542   2.477   2.894   6.982  2.9503  3.0918  0.0363
  497MOL0     H65543   2.357   2.779   7.239 -2.7088 -3.0694 -0.3323
  497MOL0     H65544   2.320   2.720   7.082  0.6368  0.4881  0.4498
  497MOL0     H65545   2.241   2.948   7.005 -4.4870 -2.0999 -0.6935
  497MOL0     H65546   2.299   3.013   7.156  0.0103 -0.6231 -0.2214
  497MOL0     H65547   2.098   2.775   7.145 -1.7817 -0.4055  1.9002
  497MOL0     H65548   2.142   2.891   7.280  3.7360  1.0028 -1.0344
  497MOL0     H65549   1.988   3.001   7.027 -3.4612 -0.0071  0.2609
  497MOL0     H65550   2.050   3.074   7.171  5.1937 -1.3358  1.0190
  497MOL0     H65551   1.881   2.915   7.292  0.5238  0.6450 -0.4763
  497MOL0     H65552   1.838   2.839   7.143 -3.2462  0.9154  0.0507
  497MOL0     H65553   1.792   3.137   7.148  0.0030  0.5050 -0.4613
  497MOL0     H65554   1.733   3.014   7.038  0.0911  1.1563  0.0094
  497MOL0     H65555   1.667   3.042   7.345  2.8647 -1.0571  0.2495
  497MOL0     H65556   1.615   2.909   7.248  0.4101 -0.0826  1.9276
  497MOL0     H65557   1.583   3.249   7.073 -1.1557 -0.4156 -0.9076
  497MOL0     H65558   1.341   3.431   7.042  0.9760 -0.0080  0.7761
  497MOL0     H65559   1.194   3.332   7.062 -0.1717 -0.1186  0.1835
  497MOL0     H65560   1.225   3.218   6.871 -0.3929  1.3059  1.6542
  497MOL0     H65561   1.395   3.264   6.855  0.3520 -0.8003  1.7065
  497MOL0     H65562   1.255   3.389   6.688  3.9313  0.6479  0.0598
  497MOL0     H65563   1.156   3.446   6.816  0.0852  2.6114  0.2993
  497MOL0     H65564   1.353   3.575   6.892  0.3861 -3.0329  0.5545
  497MOL0     H65565   1.296   3.616   6.726 -5.0895 -2.4823  0.9262
  497MOL0     H65566   1.524   3.629   6.971  3.0679  2.2202  1.1704
  497MOL0     H65567   1.752   3.687   7.048  0.3890  2.2567 -1.6496
  497MOL0     H65568   2.115   3.893   6.863 -1.4062 -0.8850 -1.1403
  497MOL0     H65569   2.316   4.012   6.866  1.6051  1.0392 -3.4765
  497MOL0     H65570   2.711   3.790   6.800  0.8081  1.4518  0.0747
  497MOL0     H65571   2.644   3.811   6.958  0.9356 -1.4840 -0.2447
  497MOL0     H65572   2.863   3.943   6.949  2.3536 -1.0348 -3.2750
  497MOL0     H65573   2.739   4.067   6.900  0.2759  0.5177  1.9710
  497MOL0     H65574   2.775   3.978   6.664 -1.7015  1.9906  1.4675
  497MOL0     H65575   2.899   3.869   6.732 -0.6973 -1.1195 -1.1372
  497MOL0     H65576   3.029   4.085   6.799  1.5944 -3.5537 -0.3178
  497MOL0     H65577   3.037   4.051   6.627  2.4781  0.4910  1.4401
  497MOL0     H65578   2.831   4.228   6.759 -0.1523 -2.0073 -0.0700
  497MOL0     H65579   2.848   4.227   6.585  1.4363  2.5640  0.0426
  497MOL0     H65580   3.084   4.314   6.767 -1.1535 -1.1584  1.7172
  497MOL0     H65581   2.942   4.415   6.725 -3.4199  0.7260 -4.1716
  497MOL0     H65582   3.136   4.270   6.521  1.3809 -0.5999  1.9817
  497MOL0     H65583   3.003   4.381   6.483  2.6958 -2.3195 -2.5345
  497MOL0     H65584   3.229   4.508   6.474  0.4227 -2.6155 -0.1280
  497MOL0     H65585   3.263   4.454   6.636 -0.5411  2.3586  1.3219
  497MOL0     H65586   2.534   3.679   6.723 -0.0606 -2.3127 -0.2443
  497MOL0     H65587   2.339   3.547   6.713 -0.2998  0.7305 -0.9409
  497MOL0     H65588   1.920   3.551   6.694  0.7542  1.9005  0.3490
  497MOL0     H65589   1.698   3.470   6.601 -0.6471  1.0548 -0.9523
  497MOL0     H65590   2.680   3.133   7.296 -2.3552 -2.5874 -0.7340
  497MOL0     H65591   2.915   3.222   7.270  2.3492 -1.2177  1.0202
  497MOL0     H65592   3.380   3.187   6.822  0.3631 -3.8802  1.0675
  497MOL0     H65593   3.615   3.237   6.868 -0.2064  0.7664  0.0078
  497MOL0     H65594   3.822   3.132   7.180  1.7070 -0.3887  0.9227
  497MOL0     H65595   3.752   3.260   7.285 -0.2400  0.9310 -1.0655
  497MOL0     H65596   4.014   3.283   7.251  0.9393  0.1471 -2.2732
  497MOL0     H65597   3.968   3.329   7.091 -2.6933  4.7286 -1.0349
  497MOL0     H65598   3.814   3.465   7.317 -0.4865 -2.0754 -0.6630
  497MOL0     H65599   3.845   3.511   7.157 -0.8226 -1.1923  0.4960
  497MOL0     H65600   4.104   3.558   7.230  0.1925  1.8618  0.0963
  497MOL0     H65601   4.001   3.641   7.332  1.9776  1.3812 -1.5620
  497MOL0     H65602   4.153   3.323   7.578  2.8216 -1.7386 -2.7911
  497MOL0     H65603   3.530   3.235   7.284 -0.7139  1.6021 -0.0722
  497MOL0     H65604   3.287   3.203   7.236  1.1888 -2.5960  0.3184
  498MOL0     O65605   5.119   2.633   0.908 -0.1147  0.0849  0.0833
  498MOL0     C65606   5.110   2.519   0.852  0.2191  0.0724 -0.4306
  498MOL0     O65607   4.996   2.462   0.792 -0.3373  0.1271  0.1202
  498MOL0     C65608   4.891   2.543   0.773 -0.7101 -0.4358  1.4545
  498MOL0     C65609   4.891   2.617   0.649  0.3985 -1.0909  0.0139
  498MOL0     C65610   4.776   2.690   0.623 -0.3622  0.8123 -0.1176
  498MOL0     C65611   4.667   2.700   0.709  0.3260  0.6724  0.2144
  498MOL0     O65612   4.562   2.780   0.665 -0.4979 -0.0763 -0.8781
  498MOL0     C65613   4.452   2.791   0.752  0.2831 -1.3830 -0.0134
  498MOL0     C65614   4.325   2.825   0.665 -0.8350  0.1133  1.1388
  498MOL0     C65615   4.199   2.817   0.741  0.9454 -0.1691  1.0124
  498MOL0     C65616   4.185   2.935   0.837 -0.1356 -0.2412  0.0689
  498MOL0     C65617   4.059   2.915   0.918 -0.4818  0.1900 -0.2706
  498MOL0     C65618   4.050   3.032   1.011  0.7134 -0.8205  1.1249
  498MOL0     C65619   3.966   2.999   1.138 -0.9822  0.8101  1.1718
  498MOL0     C65620   3.826   2.938   1.107 -0.5276  0.8978  0.0456
  498MOL0     N65621   3.773   3.004   0.992 -0.4181 -0.4446 -0.8172
  498MOL0     C65622   3.737   2.942   0.879  0.0613  0.3246 -0.6200
  498MOL0     C65623   3.695   3.041   0.798  0.3978  0.6630 -0.7371
  498MOL0     C65624   3.626   3.041   0.661 -0.1537  0.2907  0.5833
  498MOL0     C65625   3.598   2.901   0.603  0.3237 -0.0890 -0.6486
  498MOL0     C65626   3.495   2.824   0.671 -0.9322 -0.2448 -0.2798
  498MOL0     C65627   3.463   2.698   0.592 -0.5963  0.6046  0.9746
  498MOL0     O65628   3.405   2.696   0.462  0.2326 -0.6113  0.2386
  498MOL0     C65629   3.269   2.705   0.453 -0.3603  0.6065 -0.3774
  498MOL0     C65630   3.184   2.733   0.564 -0.7973  0.3538 -0.5526
  498MOL0     C65631   3.051   2.756   0.534 -0.5747 -0.5565 -0.7967
  498MOL0     C65632   2.997   2.759   0.408 -0.5884  0.6584 -0.1936
  498MOL0     C65633   2.854   2.760   0.391  1.4089  0.2205  0.3866
  498MOL0     O65634   2.776   2.790   0.498 -0.0859  0.2280 -0.5966
  498MOL0     C65635   2.639   2.797   0.481 -0.5599  0.3144  0.8227
  498MOL0     C65636   2.561   2.689   0.426 -0.6464 -0.3069 -1.6462
  498MOL0     C65637   2.417   2.711   0.418 -0.4425  0.8085 -0.9753
  498MOL0     C65638   2.356   2.819   0.471 -0.0499 -0.1995 -0.0805
  498MOL0     O65639   2.222   2.826   0.453  0.4718  0.2381  0.7055
  498MOL0     C65640   2.135   2.907   0.534 -0.1379 -0.0182  0.2425
  498MOL0     C65641   1.994   2.848   0.508 -0.1352 -0.4382  0.3133
  498MOL0     C65642   1.892   2.934   0.566  0.5855  0.0457  0.4094
  498MOL0     C65643   1.876   2.925   0.723  0.2635 -0.0397 -0.0066
  498MOL0     C65644   1.758   3.006   0.774 -0.1303  1.5704 -0.4148
  498MOL0     C65645   1.755   2.986   0.930 -0.5939  0.3827  0.3651
  498MOL0     C65646   1.661   3.086   0.996 -0.0776  0.0958  0.5295
  498MOL0     C65647   1.680   3.078   1.147 -0.3715 -0.0931 -0.0778
  498MOL0    Cl65648   1.841   3.158   1.183  0.0336  0.2186  0.0836
  498MOL0     C65649   2.436   2.911   0.537 -0.3699 -0.4691 -0.5661
  498MOL0     C65650   2.579   2.903   0.538 -0.4766  0.4257 -0.1083
  498MOL0     O65651   2.804   2.719   0.285  0.3398 -0.4392 -0.1951
  498MOL0     C65652   3.079   2.732   0.304 -0.1105 -0.0137 -0.5410
  498MOL0     C65653   3.215   2.704   0.322 -0.1300  0.2582 -0.8152
  498MOL0     N65654   3.704   3.160   0.867 -0.1528 -0.2709 -0.9151
  498MOL0     N65655   3.745   3.135   0.984  0.8302 -0.0264  0.7557
  498MOL0     C65656   4.672   2.630   0.833  0.2040 -0.0850 -0.0142
  498MOL0     C65657   4.787   2.550   0.865 -0.4268  0.1332  0.2598
  498MOL0     C65658   5.229   2.440   0.845 -0.1822 -0.1736  0.1900
  498MOL0     C65659   5.232   2.322   0.761 -0.0683 -1.2621 -0.5136
  498MOL0     C65660   5.345   2.247   0.756  0.1190  0.5375 -0.5471
  498MOL0     C65661   5.457   2.284   0.831  0.7046  1.3534  1.3363
  498MOL0     O65662   5.563   2.195   0.843  0.1595 -0.1866 -0.3944
  498MOL0     C65663   5.655   2.232   0.748  0.8955 -0.5862 -0.5191
  498MOL0     C65664   5.792   2.162   0.779  0.0026  0.6464  0.7227
  498MOL0     C65665   5.791   2.008   0.744  1.1026 -0.3051 -0.0469
  498MOL0     C65666   5.772   1.925   0.865 -1.2159 -0.0550 -0.0886
  498MOL0     C65667   5.783   1.783   0.816  0.5369 -0.9281 -1.0943
  498MOL0     C65668   5.779   1.667   0.799  0.4883 -0.0462 -0.4380
  498MOL0     C65669   5.462   2.397   0.905  0.4508 -1.1484 -0.2928
  498MOL0     C65670   5.354   2.480   0.915  0.1262  0.0421  0.1668
  498MOL0     H65671   4.971   2.605   0.576  0.4486 -2.4566  0.2695
  498MOL0     H65672   4.781   2.739   0.526 -1.7618 -2.4598 -2.0269
  498MOL0     H65673   4.474   2.873   0.821 -1.3398  0.7154 -1.8366
  498MOL0     H65674   4.425   2.701   0.807 -4.1495 -0.3423 -0.1061
  498MOL0     H65675   4.329   2.753   0.583  2.8690  1.7324 -0.3045
  498MOL0     H65676   4.331   2.927   0.626 -0.6343  0.3241  1.7072
  498MOL0     H65677   4.195   2.725   0.800  0.0661 -0.2657  0.8125
  498MOL0     H65678   4.111   2.818   0.677 -0.5547 -1.8642  2.9042
  498MOL0     H65679   4.275   2.930   0.899  0.5629 -0.3000 -0.9237
  498MOL0     H65680   4.192   3.034   0.791  1.2741  0.9433  2.5755
  498MOL0     H65681   4.069   2.824   0.979 -1.4201 -0.4217 -0.9921
  498MOL0     H65682   3.972   2.898   0.854 -1.3181  2.6633  0.1116
  498MOL0     H65683   3.998   3.115   0.964 -1.0357 -3.9826 -3.3045
  498MOL0     H65684   4.150   3.066   1.040  0.8021  1.2071 -1.2503
  498MOL0     H65685   4.023   2.924   1.193 -0.6670 -0.8745 -1.2866
  498MOL0     H65686   3.959   3.090   1.198  1.1753 -0.2067  3.1095
  498MOL0     H65687   3.767   2.939   1.199 -0.4469 -3.2136  0.3566
  498MOL0     H65688   3.835   2.831   1.082  2.1141  1.1243 -0.1718
  498MOL0     H65689   3.754   2.838   0.855 -4.6807 -0.5427 -1.1494
  498MOL0     H65690   3.697   3.090   0.593 -2.5263 -0.6767 -2.8985
  498MOL0     H65691   3.530   3.092   0.653 -0.3068 -0.2598 -2.1098
  498MOL0     H65692   3.682   2.832   0.589 -0.3833 -1.4103  1.1435
  498MOL0     H65693   3.554   2.915   0.504 -0.1931  1.9004 -0.1816
  498MOL0     H65694   3.531   2.805   0.773 -0.9141 -0.9313 -0.4041
  498MOL0     H65695   3.411   2.892   0.683 -0.2114  0.2620  2.9209
  498MOL0     H65696   3.417   2.621   0.654 -1.7257 -1.3129 -2.0420
  498MOL0     H65697   3.562   2.658   0.566 -1.3746 -1.0796  0.4918
  498MOL0     H65698   3.214   2.734   0.668 -0.3837 -0.8552 -0.6423
  498MOL0     H65699   2.979   2.781   0.612 -1.8144 -1.4255 -1.6173
  498MOL0     H65700   2.626   2.605   0.404 -1.3213 -1.9156  1.7757
  498MOL0     H65701   2.359   2.637   0.364  0.2264 -0.3056 -0.2121
  498MOL0     H65702   2.143   3.010   0.497  0.2721 -0.1839 -0.1379
  498MOL0     H65703   2.151   2.902   0.642  0.6336  0.4614  0.1593
  498MOL0     H65704   1.979   2.745   0.544 -0.2332 -0.9132 -1.0448
  498MOL0     H65705   1.973   2.856   0.401 -3.5169  2.1492  0.9948
  498MOL0     H65706   1.788   2.913   0.537  0.3040  1.1476  0.5729
  498MOL0     H65707   1.921   3.038   0.546 -0.2368  0.3508  0.7411
  498MOL0     H65708   1.864   2.819   0.743  0.5228 -0.2352 -0.8623
  498MOL0     H65709   1.966   2.960   0.775 -0.5750 -1.3730  2.5256
  498MOL0     H65710   1.662   2.969   0.734 -0.2231  2.4090 -0.9826
  498MOL0     H65711   1.763   3.112   0.750 -0.2598  2.3265  2.5805
  498MOL0     H65712   1.856   2.998   0.971 -1.3925  0.5296  2.3614
  498MOL0     H65713   1.728   2.887   0.968  0.3206  0.5461  1.5237
  498MOL0     H65714   1.682   3.185   0.953  2.3688 -1.0010 -1.0446
  498MOL0     H65715   1.559   3.063   0.965  0.4564  0.7589 -1.9729
  498MOL0     H65716   1.677   2.977   1.188 -1.8353  0.9338  2.6265
  498MOL0     H65717   1.590   3.127   1.186 -1.1249 -1.0605 -0.5507
  498MOL0     H65718   2.392   3.001   0.579  2.1355  0.0845  1.1006
  498MOL0     H65719   2.645   2.970   0.592  0.1056 -0.6217  0.5233
  498MOL0     H65720   3.045   2.728   0.201 -2.1641 -2.9148  0.1350
  498MOL0     H65721   3.288   2.683   0.245 -1.1110 -1.6223 -1.2668
  498MOL0     H65722   4.600   2.627   0.914  0.7645 -4.4228  0.5407
  498MOL0     H65723   4.794   2.485   0.951  0.5641  1.6341  1.3557
  498MOL0     H65724   5.146   2.306   0.697 -1.6416  0.2098  1.0904
  498MOL0     H65725   5.344   2.149   0.708  0.3750 -0.1372  0.7846
  498MOL0     H65726   5.669   2.340   0.757 -1.0190 -0.1007 -2.5165
  498MOL0     H65727   5.621   2.216   0.646 -2.9845 -5.3137  1.1020
  498MOL0     H65728   5.877   2.207   0.727 -0.6318  0.6988 -0.2908
  498MOL0     H65729   5.809   2.184   0.885  2.5374  0.6657  0.3917
  498MOL0     H65730   5.877   1.981   0.682 -0.1022  3.4081 -3.8260
  498MOL0     H65731   5.713   1.976   0.675  2.4685  0.2754 -1.9495
  498MOL0     H65732   5.842   1.945   0.946  0.5412  0.3723 -1.6518
  498MOL0     H65733   5.669   1.932   0.902 -2.3682 -0.2600 -2.9764
  498MOL0     H65734   5.774   1.560   0.801 -3.1152 -0.0153  0.6378
  498MOL0     H65735   5.553   2.398   0.965  1.4744 -2.3609 -1.7558
  498MOL0     H65736   5.364   2.563   0.984  0.7898 -0.8306  1.1508
  499MOL0     O65737   1.881   9.202   8.028  0.3682 -0.0095  0.4796
  499MOL0     C65738   1.841   9.309   8.075 -1.0165 -0.1466 -0.2975
  499MOL0     O65739   1.919   9.382   8.167  1.2340  0.6378 -0.1883
  499MOL0     C65740   2.014   9.329   8.246 -0.4186  0.5127 -0.7646
  499MOL0     C65741   2.019   9.200   8.307  0.4860  0.0532  0.2911
  499MOL0     C65742   2.138   9.151   8.365 -0.1691  0.2804 -1.1686
  499MOL0     C65743   2.261   9.226   8.366  0.2071 -0.1863 -0.8276
  499MOL0     O65744   2.387   9.189   8.408  0.0608 -0.6689 -0.0068
  499MOL0     C65745   2.401   9.073   8.488  0.3136  0.7446 -0.2239
  499MOL0     C65746   2.458   8.970   8.393 -0.5930  0.3147  0.3859
  499MOL0     C65747   2.476   8.828   8.458  0.3040 -0.5948 -0.4553
  499MOL0     C65748   2.490   8.716   8.355 -0.0060  0.8034  0.5186
  499MOL0     C65749   2.417   8.586   8.383 -0.1915  0.3316 -0.1021
  499MOL0     C65750   2.446   8.517   8.516  1.4823 -0.2181  0.2050
  499MOL0     C65751   2.316   8.441   8.562 -0.8017 -0.4925  0.2784
  499MOL0     C65752   2.349   8.330   8.659  0.6965  0.2553  0.2056
  499MOL0     N65753   2.435   8.230   8.598  0.1599 -0.2669  0.1956
  499MOL0     C65754   2.566   8.190   8.624 -0.3127 -0.1838 -0.4990
  499MOL0     C65755   2.595   8.087   8.544 -0.2914 -0.0042  0.2506
  499MOL0     C65756   2.728   8.000   8.546 -0.0900  0.7097 -0.3366
  499MOL0     C65757   2.767   7.947   8.685  0.1539  0.3595  0.0559
  499MOL0     C65758   2.649   7.873   8.750 -0.1805 -0.6788 -0.3469
  499MOL0     C65759   2.604   7.766   8.657  0.2818  1.1609  0.0891
  499MOL0     O65760   2.522   7.679   8.731  0.3027 -0.1813  0.5222
  499MOL0     C65761   2.383   7.700   8.739 -0.6535  0.2535  0.0645
  499MOL0     C65762   2.313   7.592   8.785 -0.9687 -0.9121 -0.6269
  499MOL0     C65763   2.184   7.589   8.796  0.4804  0.6751  0.1243
  499MOL0     C65764   2.103   7.685   8.734  0.0739  0.2553  0.1763
  499MOL0     C65765   1.956   7.677   8.739 -0.8424  0.4964  0.0160
  499MOL0     O65766   1.921   7.546   8.773 -0.6846  0.6526 -0.5075
  499MOL0     C65767   1.803   7.485   8.755 -0.0999 -0.5048  0.2529
  499MOL0     C65768   1.802   7.355   8.799 -0.1192  0.6547 -1.2433
  499MOL0     C65769   1.687   7.273   8.779  0.9745 -0.5271 -0.8045
  499MOL0     C65770   1.571   7.329   8.718 -0.2095  0.2792 -0.0163
  499MOL0     O65771   1.477   7.234   8.680  0.1093 -0.2943 -0.6074
  499MOL0     C65772   1.357   7.262   8.612 -0.2075 -0.4948  0.1709
  499MOL0     C65773   1.256   7.331   8.705 -0.3682  0.5209  0.1544
  499MOL0     C65774   1.119   7.342   8.629 -0.1025 -0.2391 -0.3587
  499MOL0     C65775   1.008   7.404   8.720 -0.2927  0.4045  0.4007
  499MOL0     C65776   0.913   7.499   8.632 -0.2913 -0.0948 -0.5920
  499MOL0     C65777   0.778   7.537   8.698  0.2742  0.1825 -0.3927
  499MOL0     C65778   0.683   7.600   8.595  0.8429 -0.2598 -0.6274
  499MOL0     C65779   0.546   7.609   8.671  0.2736 -0.6480 -0.2003
  499MOL0    Cl65780   0.422   7.682   8.561  0.0825  0.3888  0.0177
  499MOL0     C65781   1.567   7.463   8.680 -0.4798 -0.0388  0.7514
  499MOL0     C65782   1.685   7.536   8.702  0.3586 -0.4393 -0.2919
  499MOL0     O65783   1.882   7.768   8.701 -0.0023  0.2814 -0.1006
  499MOL0     C65784   2.171   7.798   8.680  0.1355  0.2793 -0.4870
  499MOL0     C65785   2.308   7.810   8.692  0.4479  0.2417 -0.0230
  499MOL0     N65786   2.491   8.072   8.465 -0.2618 -0.1718 -0.7324
  499MOL0     N65787   2.393   8.147   8.493 -0.8169  0.0167 -0.8693
  499MOL0     C65788   2.252   9.355   8.300 -0.6487  0.5003  0.3002
  499MOL0     C65789   2.133   9.406   8.245 -0.2312  0.2079 -0.5134
  499MOL0     C65790   1.720   9.357   8.025  0.8806 -0.2568 -1.0386
  499MOL0     C65791   1.632   9.280   7.944  0.4730  0.2780 -0.5423
  499MOL0     C65792   1.509   9.332   7.905 -0.0672 -0.3737 -0.0223
  499MOL0     C65793   1.453   9.451   7.960  0.1054  0.7255 -0.1784
  499MOL0     O65794   1.329   9.496   7.927  0.1024 -0.5447 -0.9889
  499MOL0     C65795   1.263   9.443   7.810 -0.7404 -0.3072  0.0681
  499MOL0     C65796   1.171   9.540   7.737 -0.6437  0.1054 -0.5881
  499MOL0     C65797   1.074   9.618   7.817  0.1296 -0.2633 -0.2791
  499MOL0     C65798   1.026   9.753   7.750  0.9335  0.5239  0.7146
  499MOL0     C65799   0.883   9.765   7.737  0.2209  0.5343 -0.5608
  499MOL0     C65800   0.764   9.772   7.727  0.2153 -0.1619  0.1496
  499MOL0     C65801   1.531   9.508   8.061 -0.0351 -0.5852 -0.0353
  499MOL0     C65802   1.654   9.464   8.093 -0.3266  0.6246 -0.4627
  499MOL0     H65803   1.933   9.134   8.302 -0.2846  0.9414 -6.0820
  499MOL0     H65804   2.138   9.049   8.403 -0.2393  0.7689  0.2083
  499MOL0     H65805   2.301   9.041   8.518  0.3175 -0.5830 -1.5355
  499MOL0     H65806   2.464   9.090   8.576 -0.3108 -1.3996  0.6940
  499MOL0     H65807   2.556   9.001   8.354 -1.2258 -0.0720 -1.6375
  499MOL0     H65808   2.387   8.955   8.311  2.4106  1.6924 -2.7414
  499MOL0     H65809   2.386   8.802   8.514  0.1470  1.5395  0.3565
  499MOL0     H65810   2.561   8.836   8.528  0.8708  1.3562 -1.2804
  499MOL0     H65811   2.446   8.756   8.263 -2.0261 -0.0394  1.0518
  499MOL0     H65812   2.591   8.683   8.331 -0.0158 -0.6122  2.2386
  499MOL0     H65813   2.423   8.517   8.298 -1.2401 -0.5420  0.5118
  499MOL0     H65814   2.311   8.613   8.379  0.4404  3.0408 -3.4177
  499MOL0     H65815   2.477   8.593   8.588  3.4340 -1.1188  0.3749
  499MOL0     H65816   2.523   8.442   8.499  0.3018 -1.2683 -0.7042
  499MOL0     H65817   2.253   8.516   8.611  0.3455  0.3622  0.5067
  499MOL0     H65818   2.264   8.390   8.481 -4.7714  4.2415 -0.6477
  499MOL0     H65819   2.260   8.289   8.708  1.4500 -0.4983  0.9869
  499MOL0     H65820   2.409   8.362   8.745  0.1045 -5.2050  3.1262
  499MOL0     H65821   2.636   8.223   8.701 -0.3402 -0.7950 -0.1979
  499MOL0     H65822   2.807   8.065   8.506 -2.1060  2.2085 -2.1157
  499MOL0     H65823   2.710   7.919   8.476  0.5383 -1.3128  1.7081
  499MOL0     H65824   2.802   8.023   8.754 -0.6726  2.1067 -1.3602
  499MOL0     H65825   2.849   7.875   8.674  0.5185  1.1300 -4.1551
  499MOL0     H65826   2.671   7.826   8.846  3.1030 -3.5398 -2.2685
  499MOL0     H65827   2.566   7.943   8.765 -2.6451 -2.5873 -3.5507
  499MOL0     H65828   2.681   7.698   8.621 -0.8285 -1.5927  2.4921
  499MOL0     H65829   2.545   7.800   8.571  0.4922  0.5725 -0.2965
  499MOL0     H65830   2.372   7.504   8.806 -0.8867 -0.3080  2.0608
  499MOL0     H65831   2.143   7.502   8.846  1.0131  0.5701  0.3904
  499MOL0     H65832   1.883   7.315   8.858 -0.1461 -1.8488 -2.7570
  499MOL0     H65833   1.689   7.173   8.821 -1.9235  0.9817  3.5853
  499MOL0     H65834   1.315   7.174   8.563 -0.7905  1.4620 -3.2122
  499MOL0     H65835   1.382   7.318   8.521 -1.2492  0.6281  0.5503
  499MOL0     H65836   1.296   7.432   8.715  1.9871 -0.2805 -0.4793
  499MOL0     H65837   1.234   7.274   8.795  3.1392 -0.6482  0.4335
  499MOL0     H65838   1.084   7.246   8.592 -0.8727  0.2273 -0.8620
  499MOL0     H65839   1.127   7.406   8.540 -0.0350 -1.3141 -1.1469
  499MOL0     H65840   0.956   7.314   8.754  1.4030 -1.2045 -1.0354
  499MOL0     H65841   1.040   7.463   8.806 -2.8628 -0.7537  2.2960
  499MOL0     H65842   0.896   7.439   8.542  0.7425  2.2130 -2.4340
  499MOL0     H65843   0.957   7.595   8.605 -1.4902  1.1022  1.4566
  499MOL0     H65844   0.793   7.584   8.795  2.3963 -0.0774 -0.5570
  499MOL0     H65845   0.740   7.437   8.721  2.8431 -0.3548  1.9855
  499MOL0     H65846   0.719   7.698   8.561  0.0110  0.8339  1.4655
  499MOL0     H65847   0.658   7.530   8.515 -2.9824 -0.9962  0.9923
  499MOL0     H65848   0.541   7.685   8.750 -0.6700 -0.2944 -0.5810
  499MOL0     H65849   0.515   7.513   8.713 -2.7805  1.9022  4.2951
  499MOL0     H65850   1.486   7.502   8.618 -0.9986 -0.9735  0.8219
  499MOL0     H65851   1.693   7.637   8.663 -1.6630  0.0530  0.4627
  499MOL0     H65852   2.116   7.881   8.637  2.1922  4.5997  4.1410
  499MOL0     H65853   2.358   7.902   8.662 -1.6496  2.2421  2.1972
  499MOL0     H65854   2.338   9.420   8.289  2.3076 -2.9000  1.2626
  499MOL0     H65855   2.142   9.505   8.202 -0.8345  0.8211  0.7342
  499MOL0     H65856   1.663   9.180   7.916  0.8716 -0.4586  2.2044
  499MOL0     H65857   1.450   9.273   7.836  0.5524 -1.3098  0.2346
  499MOL0     H65858   1.206   9.354   7.839 -1.4262 -0.3886 -1.4659
  499MOL0     H65859   1.334   9.408   7.735 -2.6000  2.3831 -3.2299
  499MOL0     H65860   1.245   9.614   7.705 -0.5735  0.2748 -0.0472
  499MOL0     H65861   1.132   9.486   7.651  0.7871  0.7066 -1.6487
  499MOL0     H65862   1.117   9.637   7.916  1.6071 -0.2514 -0.8945
  499MOL0     H65863   0.991   9.551   7.840  0.4071 -0.6857 -0.4863
  499MOL0     H65864   1.055   9.833   7.820  1.1084 -1.9209  3.6291
  499MOL0     H65865   1.074   9.774   7.654  0.7631  1.1920  0.7677
  499MOL0     H65866   0.657   9.774   7.738  0.3689  1.2755  1.8998
  499MOL0     H65867   1.486   9.593   8.111 -1.8280 -1.1285 -0.6551
  499MOL0     H65868   1.713   9.507   8.173 -2.9985  1.5255  1.1574
  500MOL0     O65869   9.927   7.256   7.048 -0.2001  0.0055  0.0815
  500MOL0     C65870   9.913   7.381   7.020 -0.1988  0.9924  0.9414
  500MOL0     O65871   9.818   7.433   6.937  0.8270 -0.4632 -0.3690
  500MOL0     C65872   9.743   7.351   6.868 -0.3890  0.5612  0.3108
  500MOL0     C65873   9.654   7.265   6.941  0.1176 -0.3722  0.1648
  500MOL0     C65874   9.570   7.185   6.861 -0.4902  0.8865 -0.0322
  500MOL0     C65875   9.564   7.185   6.722 -0.3045  0.8114 -0.0697
  500MOL0     O65876   9.482   7.096   6.656  0.6838 -0.3666  0.4967
  500MOL0     C65877   9.472   7.100   6.515 -0.7465 -0.8861  0.3157
  500MOL0     C65878   9.348   7.030   6.459  0.9170  0.2021  0.6271
  500MOL0     C65879   9.227   7.045   6.552  0.2610  0.0705  0.9004
  500MOL0     C65880   9.172   7.191   6.577 -0.5186 -0.2984  0.1943
  500MOL0     C65881   9.063   7.180   6.685  0.2412  0.2985  1.0731
  500MOL0     C65882   8.927   7.137   6.621 -0.7282 -0.5709  0.3052
  500MOL0     C65883   8.820   7.173   6.713 -0.2884 -1.0258  0.5790
  500MOL0     C65884   8.774   7.325   6.720 -0.2133  0.5508 -0.1093
  500MOL0     N65885   8.646   7.332   6.795  0.5084  0.2046 -0.7703
  500MOL0     C65886   8.639   7.320   6.924 -0.0037 -0.0436 -0.7158
  500MOL0     C65887   8.509   7.362   6.968 -0.2340  0.0497  0.2600
  500MOL0     C65888   8.461   7.380   7.115 -0.1023 -0.0450 -0.3734
  500MOL0     C65889   8.419   7.239   7.165  0.2482 -1.1068 -0.7422
  500MOL0     C65890   8.325   7.253   7.293  0.7300  0.2445 -0.2158
  500MOL0     C65891   8.384   7.338   7.408  0.4948 -0.3072  0.5718
  500MOL0     O65892   8.285   7.333   7.519  0.2140  0.3377 -0.5543
  500MOL0     C65893   8.179   7.419   7.541  0.8817 -0.3179  0.4081
  500MOL0     C65894   8.089   7.399   7.652 -0.1995 -0.0723  0.2285
  500MOL0     C65895   7.963   7.477   7.670 -0.7310  0.5976  0.8343
  500MOL0     C65896   7.921   7.555   7.555  0.0741  0.6886  0.0303
  500MOL0     C65897   7.780   7.608   7.555 -0.2592  0.9654 -0.1766
  500MOL0     O65898   7.699   7.582   7.672 -0.1005  0.0824  0.4051
  500MOL0     C65899   7.562   7.595   7.655 -0.1896 -0.1337 -0.2215
  500MOL0     C65900   7.498   7.534   7.552  0.0049  0.0296 -0.2038
  500MOL0     C65901   7.355   7.529   7.541 -0.0404 -0.2160  0.9472
  500MOL0     C65902   7.277   7.595   7.637  1.0819 -0.7043  0.1118
  500MOL0     O65903   7.141   7.608   7.607 -0.3380 -1.3780  0.3782
  500MOL0     C65904   7.053   7.603   7.718 -0.6310  0.2123  0.2709
  500MOL0     C65905   6.919   7.542   7.672 -0.7854  0.0284  0.1595
  500MOL0     C65906   6.835   7.530   7.790  0.3057 -0.4017 -0.7518
  500MOL0     C65907   6.764   7.660   7.819 -0.7873 -0.4157 -0.1299
  500MOL0     C65908   6.658   7.645   7.927  0.4553  0.0921  0.6282
  500MOL0     C65909   6.721   7.591   8.052 -0.5475  0.2351  0.0036
  500MOL0     C65910   6.638   7.620   8.174  0.4003  0.7147  0.6384
  500MOL0     C65911   6.712   7.588   8.297 -0.2110  0.5806 -0.2107
  500MOL0    Cl65912   6.604   7.555   8.423  0.5771  0.0710  0.0332
  500MOL0     C65913   7.341   7.659   7.741 -0.8566  0.3117 -0.2717
  500MOL0     C65914   7.483   7.666   7.751 -0.1006  0.5404  0.8876
  500MOL0     O65915   7.736   7.655   7.451 -0.8855  0.0326 -0.2443
  500MOL0     C65916   8.012   7.570   7.447 -0.2814  0.5977 -0.7783
  500MOL0     C65917   8.139   7.515   7.445 -0.0367 -0.3413  0.2832
  500MOL0     N65918   8.447   7.405   6.859 -1.2567 -0.0581  0.0860
  500MOL0     N65919   8.527   7.391   6.754  0.2422  0.4112 -0.3125
  500MOL0     C65920   9.656   7.266   6.652  0.6755 -0.4267 -0.3648
  500MOL0     C65921   9.744   7.350   6.729  0.6985  0.4219 -0.0334
  500MOL0     C65922  10.024   7.459   7.061 -0.5929 -0.4538 -0.9999
  500MOL0     C65923  10.128   7.409   7.140  0.3388 -0.1314  0.5555
  500MOL0     C65924  10.235   7.490   7.184  0.0521 -0.0177  0.5647
  500MOL0     C65925  10.233   7.632   7.163  0.1316  1.2761  0.1493
  500MOL0     O65926  10.327   7.704   7.234 -0.7625 -0.1971  0.2996
  500MOL0     C65927  10.339   7.837   7.184 -1.0824 -0.3151 -0.7243
  500MOL0     C65928  10.464   7.894   7.267 -0.2663 -0.0801 -0.6380
  500MOL0     C65929  10.513   8.040   7.231  0.0299 -0.4738  1.2744
  500MOL0     C65930  10.663   8.057   7.227 -0.7300  0.1662 -0.4303
  500MOL0     C65931  10.726   7.957   7.136  0.1916  0.1694  0.4695
  500MOL0     C65932  10.779   7.887   7.058  0.3777  0.1494 -0.3339
  500MOL0     C65933  10.125   7.679   7.082  0.5348 -0.2659 -0.7216
  500MOL0     C65934  10.024   7.595   7.034 -0.2893  0.5686 -0.2390
  500MOL0     H65935   9.649   7.261   7.049  0.5187  1.3763  0.2724
  500MOL0     H65936   9.505   7.114   6.912 -2.1580  0.1766 -2.9374
  500MOL0     H65937   9.560   7.059   6.465  2.2463 -0.3610  4.6310
  500MOL0     H65938   9.453   7.205   6.489 -1.6936 -1.3928 -1.2059
  500MOL0     H65939   9.354   6.921   6.450 -0.4136  0.1752 -0.3991
  500MOL0     H65940   9.317   7.055   6.357  0.1553 -0.7419  0.6071
  500MOL0     H65941   9.235   6.995   6.649 -0.5885 -2.0888 -0.0744
  500MOL0     H65942   9.141   6.995   6.506  0.4113  1.3777 -0.8802
  500MOL0     H65943   9.252   7.261   6.602 -0.7231 -0.1172  0.3463
  500MOL0     H65944   9.131   7.228   6.483  0.2627 -2.2107 -0.9414
  500MOL0     H65945   9.044   7.275   6.735 -3.2194 -0.2565  0.9938
  500MOL0     H65946   9.093   7.115   6.768  1.5363  0.1748  0.5341
  500MOL0     H65947   8.923   7.030   6.602 -4.2455 -0.1992 -1.8957
  500MOL0     H65948   8.917   7.197   6.530  2.2215 -1.3832 -0.6807
  500MOL0     H65949   8.734   7.114   6.680  0.3167 -0.5815 -1.9706
  500MOL0     H65950   8.849   7.151   6.816 -1.4980  2.5528  1.8365
  500MOL0     H65951   8.751   7.351   6.616  3.8633  1.1409 -1.0526
  500MOL0     H65952   8.856   7.388   6.756  0.1045 -1.2114  2.5364
  500MOL0     H65953   8.716   7.303   6.999  0.6680  2.4183 -0.7707
  500MOL0     H65954   8.377   7.449   7.110  1.5442  2.1067  0.2381
  500MOL0     H65955   8.542   7.421   7.176  1.6854  0.1030 -2.6864
  500MOL0     H65956   8.509   7.185   7.196  1.6255 -0.1684 -2.8701
  500MOL0     H65957   8.359   7.184   7.092 -2.6269 -1.1632  1.4715
  500MOL0     H65958   8.231   7.300   7.264  1.4427  2.0828  0.3227
  500MOL0     H65959   8.293   7.155   7.329 -0.4327  1.2873  1.7999
  500MOL0     H65960   8.396   7.442   7.375  3.7454 -0.9818 -0.6994
  500MOL0     H65961   8.478   7.292   7.439  0.9654  0.4211  0.2390
  500MOL0     H65962   8.099   7.326   7.732  2.3946 -1.6785 -1.4224
  500MOL0     H65963   7.897   7.446   7.750 -2.3155 -2.9791 -1.5730
  500MOL0     H65964   7.559   7.484   7.478  1.7803  0.2837  1.0287
  500MOL0     H65965   7.306   7.481   7.457  0.2517  1.6389 -0.3435
  500MOL0     H65966   7.029   7.699   7.764 -1.1525 -0.0659  0.5902
  500MOL0     H65967   7.090   7.536   7.796 -0.5738 -0.5135 -0.3671
  500MOL0     H65968   6.940   7.444   7.627 -2.3521  0.1544 -0.8821
  500MOL0     H65969   6.873   7.617   7.608 -0.8951  2.2880  2.6847
  500MOL0     H65970   6.908   7.498   7.865  1.7393 -0.3049 -2.0574
  500MOL0     H65971   6.759   7.451   7.787  1.7384 -1.8714  0.4089
  500MOL0     H65972   6.838   7.737   7.843  1.5475 -1.8154 -2.3536
  500MOL0     H65973   6.716   7.692   7.726  2.1270 -1.0497 -1.9752
  500MOL0     H65974   6.565   7.595   7.896  0.2388  0.3681  0.8231
  500MOL0     H65975   6.622   7.746   7.947  2.4937  0.8082  0.8836
  500MOL0     H65976   6.818   7.639   8.067 -1.3458  1.6221  0.9107
  500MOL0     H65977   6.722   7.483   8.037  0.8078  0.5564 -3.0852
  500MOL0     H65978   6.616   7.727   8.172  4.2761  1.6866 -1.0557
  500MOL0     H65979   6.544   7.565   8.166 -0.8407  2.7912  0.4940
  500MOL0     H65980   6.789   7.659   8.328 -0.7066  2.1242 -2.2705
  500MOL0     H65981   6.764   7.495   8.272 -1.6321 -1.3721  3.3852
  500MOL0     H65982   7.284   7.707   7.820 -1.7875 -0.0365 -0.7145
  500MOL0     H65983   7.523   7.700   7.846 -0.8494 -2.2082  2.2909
  500MOL0     H65984   7.980   7.620   7.356 -1.8329  0.4606 -0.3495
  500MOL0     H65985   8.199   7.545   7.360 -3.2647  0.7334 -1.8062
  500MOL0     H65986   9.670   7.277   6.545  2.0173 -1.7389 -0.3595
  500MOL0     H65987   9.810   7.417   6.675  0.6451 -0.5420 -1.3413
  500MOL0     H65988  10.139   7.303   7.164 -1.0697  0.0407  2.1861
  500MOL0     H65989  10.316   7.440   7.236 -0.1593  0.6067  1.5112
  500MOL0     H65990  10.250   7.899   7.196  1.1112  2.6190  1.8219
  500MOL0     H65991  10.377   7.841   7.081 -0.5263  0.5604 -0.4955
  500MOL0     H65992  10.426   7.901   7.370 -0.5533  0.7506 -0.7953
  500MOL0     H65993  10.547   7.824   7.262  0.1663  0.2826  0.9065
  500MOL0     H65994  10.486   8.111   7.309  0.5291  0.8291  0.3041
  500MOL0     H65995  10.471   8.073   7.135 -1.3001 -3.4352  0.7117
  500MOL0     H65996  10.702   8.152   7.189  2.1328 -0.4618  0.6809
  500MOL0     H65997  10.706   8.036   7.326 -3.1538  1.3213  0.9520
  500MOL0     H65998  10.832   7.810   7.005  2.9399  1.7191 -0.1859
  500MOL0     H65999  10.112   7.783   7.052  0.7115  0.0764  0.3334
  500MOL0     H66000   9.944   7.642   6.977 -1.9535  1.0396  2.3237
  501MOL0     O66001   7.292   0.891   3.979  0.0978 -0.2409  0.5430
  501MOL0     C66002   7.346   0.892   3.867 -0.2646  0.4684 -0.4129
  501MOL0     O66003   7.280   0.860   3.745 -0.6702 -0.3662 -0.2735
  501MOL0     C66004   7.157   0.801   3.740 -0.4930 -0.6892  0.0278
  501MOL0     C66005   7.088   0.808   3.618 -0.2702 -0.6154 -0.0580
  501MOL0     C66006   6.972   0.737   3.589  0.3614 -0.1147  0.7046
  501MOL0     C66007   6.902   0.661   3.677 -0.5394 -0.2686  0.1402
  501MOL0     O66008   6.774   0.618   3.659 -0.6094  0.0363  0.0067
  501MOL0     C66009   6.698   0.586   3.772  0.1494  0.5317 -0.9173
  501MOL0     C66010   6.554   0.557   3.740  0.5371  0.2242  0.2764
  501MOL0     C66011   6.532   0.416   3.681  0.1730 -0.8546 -0.3413
  501MOL0     C66012   6.387   0.393   3.645 -0.0870 -0.3390  0.3713
  501MOL0     C66013   6.366   0.273   3.552 -0.2097 -0.2369  0.1145
  501MOL0     C66014   6.221   0.235   3.536  0.1886 -0.1443  0.4896
  501MOL0     C66015   6.208   0.132   3.432 -0.1904  0.6668  0.8490
  501MOL0     C66016   6.065   0.083   3.405  0.3593 -0.3960  0.6306
  501MOL0     N66017   6.018  -0.027   3.486  0.4999  0.5722 -0.4784
  501MOL0     C66018   6.013  -0.035   3.619  0.1822 -0.0998 -0.0750
  501MOL0     C66019   5.985  -0.171   3.643 -0.3897  0.1095  0.3698
  501MOL0     C66020   5.959  -0.232   3.777 -0.7332  0.3910 -0.2134
  501MOL0     C66021   5.874  -0.360   3.775 -0.4298  0.8128  0.0190
  501MOL0     C66022   5.840  -0.406   3.916 -0.1295  0.6650  0.1868
  501MOL0     C66023   5.787  -0.302   4.021  0.4712  0.1816 -0.0997
  501MOL0     O66024   5.700  -0.362   4.118  0.6434  0.1998  0.5885
  501MOL0     C66025   5.561  -0.368   4.096 -0.0424  0.1791 -0.4236
  501MOL0     C66026   5.502  -0.327   3.981 -0.5923 -0.4313 -0.0601
  501MOL0     C66027   5.366  -0.328   3.968 -0.0218 -0.6977 -0.4190
  501MOL0     C66028   5.278  -0.355   4.073  0.0580  0.5647  1.2328
  501MOL0     C66029   5.138  -0.323   4.071  0.1664 -0.1351 -0.3744
  501MOL0     O66030   5.065  -0.403   4.148  0.1893  0.3929 -0.4191
  501MOL0     C66031   4.928  -0.404   4.134  0.1776 -0.6831 -0.0314
  501MOL0     C66032   4.848  -0.355   4.236  0.4646 -0.3769 -0.3481
  501MOL0     C66033   4.709  -0.358   4.219  0.4315  0.0161 -0.1566
  501MOL0     C66034   4.641  -0.399   4.102 -0.6763  0.2363  0.6181
  501MOL0     O66035   4.501  -0.391   4.087 -0.7830 -0.3537  0.7287
  501MOL0     C66036   4.411  -0.349   4.186  0.5922  0.2805 -0.1156
  501MOL0     C66037   4.271  -0.316   4.146 -0.6745 -0.1399  1.0212
  501MOL0     C66038   4.206  -0.229   4.254  1.0445 -0.2735 -0.2038
  501MOL0     C66039   4.050  -0.224   4.237 -0.3137  0.5905 -0.3923
  501MOL0     C66040   3.980  -0.167   4.359  0.1394 -0.0012 -0.2995
  501MOL0     C66041   3.821  -0.204   4.364 -0.8675 -0.4988  0.7210
  501MOL0     C66042   3.747  -0.091   4.273 -0.4659  0.5339 -0.7130
  501MOL0     C66043   3.595  -0.112   4.249 -0.2737  0.3502  0.4275
  501MOL0    Cl66044   3.525   0.012   4.141 -0.3598 -0.0233  0.1356
  501MOL0     C66045   4.728  -0.441   3.993 -1.4090  0.0487 -0.2839
  501MOL0     C66046   4.870  -0.446   4.009  0.2660  0.6848 -1.6331
  501MOL0     O66047   5.088  -0.239   3.995 -1.2698 -0.3663 -0.4294
  501MOL0     C66048   5.337  -0.403   4.190  0.3854 -0.6338  0.0221
  501MOL0     C66049   5.479  -0.404   4.200 -0.3976  0.0696 -0.1081
  501MOL0     N66050   5.973  -0.238   3.523 -0.6318  0.6475  0.3911
  501MOL0     N66051   5.999  -0.146   3.432 -0.0605 -0.3633 -0.4080
  501MOL0     C66052   6.976   0.647   3.800  0.4265 -0.6438 -0.5368
  501MOL0     C66053   7.102   0.707   3.828  0.4264  0.2633 -0.8583
  501MOL0     C66054   7.492   0.910   3.871 -0.5144  0.0466 -0.2295
  501MOL0     C66055   7.571   0.913   3.988 -1.2816 -0.8555  0.7545
  501MOL0     C66056   7.709   0.915   3.986 -0.7175 -0.0905 -0.1698
  501MOL0     C66057   7.770   0.909   3.859  0.8110 -0.1145  0.6219
  501MOL0     O66058   7.910   0.921   3.863  0.6348 -0.9484  0.5145
  501MOL0     C66059   7.974   0.948   3.732 -0.2821 -0.3384  0.1241
  501MOL0     C66060   7.963   1.101   3.704  0.9332 -0.0151  0.4777
  501MOL0     C66061   8.046   1.182   3.795 -0.6776  1.0938 -0.4293
  501MOL0     C66062   8.009   1.327   3.754 -0.0853  0.0209 -0.2400
  501MOL0     C66063   8.050   1.427   3.857 -0.3382 -0.3249  0.1159
  501MOL0     C66064   8.089   1.492   3.951 -0.3789 -0.9228  0.3959
  501MOL0     C66065   7.693   0.915   3.743  0.0360 -0.3663  0.5455
  501MOL0     C66066   7.559   0.911   3.754  0.3908  0.7214 -0.7602
  501MOL0     H66067   7.120   0.872   3.537 -0.8064 -2.8857 -2.1750
  501MOL0     H66068   6.933   0.742   3.488 -0.1044  1.3771  0.9462
  501MOL0     H66069   6.688   0.675   3.835  1.1327  2.1917 -2.9627
  501MOL0     H66070   6.737   0.502   3.831  2.0638  1.3107 -1.0019
  501MOL0     H66071   6.524   0.638   3.673  3.2736 -0.2829 -1.7465
  501MOL0     H66072   6.489   0.566   3.827  0.6761 -0.3806  0.4435
  501MOL0     H66073   6.564   0.351   3.762  1.6821  0.3504  0.0725
  501MOL0     H66074   6.596   0.407   3.592 -0.5599 -2.8758 -0.7131
  501MOL0     H66075   6.327   0.389   3.736  0.4752 -7.6469  1.0515
  501MOL0     H66076   6.364   0.489   3.598  0.6809  0.1160  0.8985
  501MOL0     H66077   6.418   0.189   3.600 -3.4605 -0.5490  3.5226
  501MOL0     H66078   6.411   0.294   3.455 -0.0773 -2.4293 -0.3661
  501MOL0     H66079   6.169   0.327   3.510  1.6792  0.2019 -1.4842
  501MOL0     H66080   6.197   0.187   3.631 -0.2255 -2.1604 -0.5728
  501MOL0     H66081   6.241   0.187   3.343  1.3439  2.1242  2.2414
  501MOL0     H66082   6.267   0.041   3.444  0.2623  0.5558 -1.6707
  501MOL0     H66083   6.060   0.061   3.298  0.3904  1.9456  0.1052
  501MOL0     H66084   5.995   0.166   3.415  0.3291 -0.2697 -0.5362
  501MOL0     H66085   6.014   0.047   3.690 -2.0343  0.1362 -0.2476
  501MOL0     H66086   5.911  -0.156   3.840 -0.7504  1.0820 -1.0325
  501MOL0     H66087   6.057  -0.259   3.815 -0.3352  0.7305 -0.9716
  501MOL0     H66088   5.920  -0.442   3.718  2.3069  2.0235  0.3439
  501MOL0     H66089   5.778  -0.342   3.724 -0.4649 -0.7498 -0.5410
  501MOL0     H66090   5.766  -0.486   3.908 -0.2091  0.7803 -0.2694
  501MOL0     H66091   5.929  -0.450   3.962 -0.7868 -1.1433 -0.1985
  501MOL0     H66092   5.728  -0.225   3.970  0.6469 -0.4639 -1.3014
  501MOL0     H66093   5.871  -0.239   4.054  0.0416  1.7106 -1.7765
  501MOL0     H66094   5.563  -0.306   3.893  1.6364 -0.5176  1.3874
  501MOL0     H66095   5.331  -0.307   3.867  1.9351 -0.4681 -1.0954
  501MOL0     H66096   4.895  -0.327   4.330 -0.5863  1.2116 -0.2675
  501MOL0     H66097   4.666  -0.314   4.308 -1.4676 -0.5371 -0.7531
  501MOL0     H66098   4.454  -0.259   4.231  0.0691  0.2883  0.3782
  501MOL0     H66099   4.400  -0.424   4.264 -0.2808  2.4509  1.9799
  501MOL0     H66100   4.212  -0.408   4.134 -0.1171 -0.3019 -0.6688
  501MOL0     H66101   4.260  -0.275   4.046 -0.3109 -4.3971 -1.0022
  501MOL0     H66102   4.247  -0.128   4.246 -1.3996  0.7717 -0.5611
  501MOL0     H66103   4.240  -0.262   4.352  2.5356  1.8380  0.0458
  501MOL0     H66104   4.026  -0.174   4.142  0.1480  1.9748  0.1937
  501MOL0     H66105   4.011  -0.325   4.225 -0.4066  0.4647  0.8557
  501MOL0     H66106   4.018  -0.064   4.366  2.4159 -0.7965 -0.2359
  501MOL0     H66107   4.022  -0.214   4.448  1.5076  4.0117  1.4333
  501MOL0     H66108   3.782  -0.192   4.466 -0.1113  5.7253  0.6475
  501MOL0     H66109   3.796  -0.306   4.335 -0.3875 -0.6670  0.8819
  501MOL0     H66110   3.760   0.010   4.313 -0.3515  0.0704  0.4626
  501MOL0     H66111   3.799  -0.079   4.177  2.3090 -0.3438  0.5552
  501MOL0     H66112   3.550  -0.112   4.349 -1.1408 -0.4764  0.0583
  501MOL0     H66113   3.574  -0.208   4.201  0.0918  0.7275 -0.5093
  501MOL0     H66114   4.678  -0.462   3.899  1.1753  0.3795 -1.8211
  501MOL0     H66115   4.925  -0.471   3.919  0.1491 -1.4553 -1.1617
  501MOL0     H66116   5.282  -0.424   4.281 -0.0526  0.0597 -0.0763
  501MOL0     H66117   5.533  -0.413   4.294  0.6893 -1.8587 -0.8509
  501MOL0     H66118   6.937   0.574   3.871 -0.3668  0.3764  0.1114
  501MOL0     H66119   7.155   0.686   3.920  1.3821  3.4629 -0.5789
  501MOL0     H66120   7.527   0.929   4.086 -1.1752  2.5037  0.3496
  501MOL0     H66121   7.769   0.910   4.076  0.1133  0.8944 -0.6483
  501MOL0     H66122   7.930   0.885   3.655 -1.8341 -0.0521  0.7273
  501MOL0     H66123   8.080   0.924   3.726  0.6725  3.4439 -1.4442
  501MOL0     H66124   7.976   1.127   3.599  0.4194  0.6730  0.5768
  501MOL0     H66125   7.862   1.136   3.726  1.5167  1.5010  0.9193
  501MOL0     H66126   8.150   1.155   3.775 -0.6968 -0.3238  1.1661
  501MOL0     H66127   8.021   1.153   3.897 -0.7998  1.3896 -0.3737
  501MOL0     H66128   8.074   1.361   3.673  3.5033  0.1206  2.4620
  501MOL0     H66129   7.906   1.344   3.721 -0.9645 -4.8777 -0.8739
  501MOL0     H66130   8.123   1.540   4.040  0.8333 -3.0932  1.1571
  501MOL0     H66131   7.748   0.921   3.649  3.2890  0.8186  2.3605
  501MOL0     H66132   7.509   0.893   3.660 -0.4706  1.6190 -0.4961
  502MOL0     O66133   8.485   9.312   2.728  0.1193  0.1675  0.0050
  502MOL0     C66134   8.437   9.405   2.789 -0.3061 -0.1248 -0.6571
  502MOL0     O66135   8.482   9.454   2.904 -0.2444 -0.1497  0.0274
  502MOL0     C66136   8.591   9.394   2.951 -0.1797 -0.0267  0.4836
  502MOL0     C66137   8.718   9.395   2.887 -0.1589  0.2649 -0.0908
  502MOL0     C66138   8.820   9.323   2.955 -1.1394  0.3343  0.3168
  502MOL0     C66139   8.805   9.262   3.083 -0.4246 -0.0440  1.3605
  502MOL0     O66140   8.915   9.212   3.148 -0.1928  0.4094 -0.5336
  502MOL0     C66141   9.001   9.308   3.205 -0.1544 -0.0716  0.2176
  502MOL0     C66142   9.135   9.239   3.216  0.1645 -0.0163 -0.6029
  502MOL0     C66143   9.243   9.332   3.252  0.1119 -0.7454 -0.8588
  502MOL0     C66144   9.374   9.265   3.281  0.8414  0.2678 -0.7712
  502MOL0     C66145   9.492   9.372   3.268 -0.1013  1.5689 -1.1527
  502MOL0     C66146   9.609   9.323   3.357  0.0742 -0.2360 -0.3937
  502MOL0     C66147   9.730   9.414   3.383  0.5593  0.4178 -0.6276
  502MOL0     C66148   9.853   9.379   3.290  0.2652 -0.5792  0.2856
  502MOL0     N66149   9.827   9.424   3.148  0.2829 -0.1988  0.2168
  502MOL0     C66150   9.861   9.548   3.099 -0.0744 -0.7506 -0.5631
  502MOL0     C66151   9.808   9.535   2.977 -0.5812  0.1667  0.3511
  502MOL0     C66152   9.797   9.647   2.876  0.8630 -0.5891 -0.3813
  502MOL0     C66153   9.917   9.659   2.784 -0.5141 -1.2770  0.0531
  502MOL0     C66154  10.026   9.744   2.838  0.1300  0.3348 -0.1515
  502MOL0     C66155  10.158   9.695   2.765 -0.2220 -0.3585  0.5383
  502MOL0     O66156  10.267   9.776   2.804 -0.3153  0.5055  0.2812
  502MOL0     C66157  10.395   9.716   2.789 -0.2174  0.4057  0.2045
  502MOL0     C66158  10.413   9.625   2.683 -0.2516  0.1846  0.5635
  502MOL0     C66159  10.539   9.579   2.653 -0.6525 -0.5051  0.0063
  502MOL0     C66160  10.651   9.639   2.722  1.0424  0.3708 -0.7816
  502MOL0     C66161  10.787   9.602   2.684  0.4568 -0.6435  0.4301
  502MOL0     O66162  10.878   9.616   2.785 -0.1631  0.0502  0.3080
  502MOL0     C66163  11.005   9.622   2.749 -0.5355  0.5040  0.2591
  502MOL0     C66164  11.079   9.511   2.695  0.7938 -0.2422  0.0678
  502MOL0     C66165  11.215   9.524   2.661  0.1197  0.2544  0.1413
  502MOL0     C66166  11.288   9.640   2.681  0.1309 -0.0180  0.0538
  502MOL0     O66167  11.416   9.628   2.655 -1.1331 -0.2292 -0.3910
  502MOL0     C66168  11.487   9.731   2.583 -0.8388  0.1135 -0.2989
  502MOL0     C66169  11.476   9.705   2.431 -0.3835  0.8195  0.2320
  502MOL0     C66170  11.564   9.590   2.387  0.4379  1.0907 -0.4321
  502MOL0     C66171  11.703   9.628   2.341 -0.2588  0.5190 -0.1073
  502MOL0     C66172  11.785   9.527   2.281 -0.0136 -0.3000 -0.1018
  502MOL0     C66173  11.794   9.398   2.370  0.1283 -0.3270 -0.5154
  502MOL0     C66174  11.883   9.300   2.296 -0.5934 -0.1761 -0.0631
  502MOL0     C66175  11.817   9.237   2.179 -0.1241  0.3062 -0.3736
  502MOL0    Cl66176  11.921   9.105   2.134 -0.2419 -0.0563 -0.5423
  502MOL0     C66177  11.218   9.751   2.735 -0.4482  0.1013 -0.3402
  502MOL0     C66178  11.083   9.740   2.772  0.2456 -0.0728 -0.1952
  502MOL0     O66179  10.813   9.566   2.572 -0.4268  0.0678  0.2435
  502MOL0     C66180  10.627   9.717   2.833 -0.5741 -0.0665 -0.1305
  502MOL0     C66181  10.496   9.764   2.858 -0.1581  0.4541 -0.6009
  502MOL0     N66182   9.752   9.408   2.945 -0.4250  0.2750 -0.7440
  502MOL0     N66183   9.767   9.344   3.058  0.3299 -1.3833  0.9337
  502MOL0     C66184   8.690   9.274   3.151  0.1113  0.5396 -0.5854
  502MOL0     C66185   8.580   9.340   3.083  0.2853  0.8554  0.4532
  502MOL0     C66186   8.314   9.454   2.732 -0.6607 -0.2605 -0.0209
  502MOL0     C66187   8.251   9.385   2.624 -0.4118 -0.7679 -0.6248
  502MOL0     C66188   8.124   9.433   2.574  0.2725  0.0768 -1.2027
  502MOL0     C66189   8.066   9.545   2.636 -0.6556  0.8222 -0.3426
  502MOL0     O66190   7.940   9.584   2.599  0.5638 -0.2180  0.7717
  502MOL0     C66191   7.857   9.507   2.504 -0.7767  1.0679 -0.9937
  502MOL0     C66192   7.738   9.599   2.481 -0.1867 -0.1032  0.3807
  502MOL0     C66193   7.634   9.540   2.383  1.3966 -0.7491 -0.2338
  502MOL0     C66194   7.516   9.625   2.342  0.4712 -0.5404  0.5444
  502MOL0     C66195   7.453   9.580   2.214 -0.0834  0.5979  0.2778
  502MOL0     C66196   7.398   9.546   2.108 -0.3886 -0.4137 -0.1940
  502MOL0     C66197   8.128   9.613   2.742 -0.1941  0.7712 -0.4532
  502MOL0     C66198   8.247   9.567   2.787 -0.5972  0.6511  0.3648
  502MOL0     H66199   8.740   9.446   2.793  1.6386 -1.3154 -0.5650
  502MOL0     H66200   8.910   9.304   2.897 -0.1759 -1.0465  2.1771
  502MOL0     H66201   8.969   9.337   3.305  1.5851  1.6267  0.3148
  502MOL0     H66202   9.016   9.405   3.157 -2.0338 -0.5510 -1.4854
  502MOL0     H66203   9.153   9.184   3.123  0.5621  2.5489 -2.1551
  502MOL0     H66204   9.131   9.162   3.293 -1.2473  0.9271  0.3154
  502MOL0     H66205   9.210   9.391   3.338  1.1580 -1.2275 -0.1104
  502MOL0     H66206   9.264   9.397   3.167  0.2920 -0.7391 -0.8100
  502MOL0     H66207   9.362   9.221   3.380  2.4510  0.1671 -0.5879
  502MOL0     H66208   9.389   9.187   3.206  0.3639 -0.4645 -0.1147
  502MOL0     H66209   9.444   9.460   3.312 -1.4139  0.0382  0.6750
  502MOL0     H66210   9.521   9.393   3.165 -0.6444  1.5057 -1.3187
  502MOL0     H66211   9.652   9.233   3.313  2.0398 -0.2908  1.4611
  502MOL0     H66212   9.556   9.300   3.450 -1.0146 -0.7084 -1.1054
  502MOL0     H66213   9.697   9.518   3.376 -1.1500  0.0037  0.4720
  502MOL0     H66214   9.768   9.410   3.485  1.7612  0.2558 -1.0729
  502MOL0     H66215   9.874   9.272   3.297  2.7717 -0.0773  1.7588
  502MOL0     H66216   9.941   9.439   3.317 -0.3655 -0.7298  2.9613
  502MOL0     H66217   9.911   9.629   3.149 -0.4105 -0.0430 -1.3497
  502MOL0     H66218   9.788   9.740   2.933  1.4903  0.0790 -1.3407
  502MOL0     H66219   9.706   9.632   2.816  0.2884 -0.0437  0.3356
  502MOL0     H66220   9.901   9.690   2.680  1.9420 -3.2554 -1.0340
  502MOL0     H66221   9.951   9.559   2.757 -0.8926 -1.1544 -0.9160
  502MOL0     H66222   9.995   9.846   2.812 -3.2962 -0.7795 -0.9525
  502MOL0     H66223  10.028   9.725   2.946 -3.3363 -3.3543 -0.5252
  502MOL0     H66224  10.139   9.690   2.657 -2.2308 -2.2707  0.9078
  502MOL0     H66225  10.181   9.596   2.806  1.1036 -0.5287 -0.5137
  502MOL0     H66226  10.337   9.591   2.614  2.3281 -2.1181 -1.3435
  502MOL0     H66227  10.570   9.516   2.570  0.5998 -0.5349  0.4777
  502MOL0     H66228  11.027   9.416   2.697  2.7524 -1.4240 -1.3474
  502MOL0     H66229  11.269   9.436   2.630 -2.0345 -1.3887  0.7898
  502MOL0     H66230  11.591   9.708   2.608 -1.4816 -2.0182  0.5656
  502MOL0     H66231  11.460   9.835   2.605  0.3715  0.5906 -0.9448
  502MOL0     H66232  11.502   9.795   2.375 -3.4337  2.2640  0.9027
  502MOL0     H66233  11.369   9.685   2.419 -0.3228  0.9123 -0.4658
  502MOL0     H66234  11.518   9.543   2.299 -2.0442  0.5401  1.0398
  502MOL0     H66235  11.563   9.511   2.462  0.0851 -0.6316 -2.1601
  502MOL0     H66236  11.685   9.705   2.265  0.6152  1.0528  0.2124
  502MOL0     H66237  11.754   9.686   2.418 -1.7050  2.5777 -0.6441
  502MOL0     H66238  11.883   9.574   2.265 -1.3076  2.0049 -1.6912
  502MOL0     H66239  11.747   9.500   2.182 -0.9584 -0.8100  0.3959
  502MOL0     H66240  11.694   9.355   2.386  0.3823 -0.2575  1.6591
  502MOL0     H66241  11.839   9.432   2.464 -1.2007  0.1550 -0.0232
  502MOL0     H66242  11.980   9.340   2.267 -0.5201 -0.4559 -0.2128
  502MOL0     H66243  11.915   9.226   2.371 -1.5585  3.0367  3.8938
  502MOL0     H66244  11.794   9.307   2.099 -2.0941  1.0696  0.7993
  502MOL0     H66245  11.724   9.188   2.211 -0.4836 -0.7555 -2.8517
  502MOL0     H66246  11.255   9.852   2.743  4.3437 -1.2710 -1.7640
  502MOL0     H66247  11.033   9.823   2.821 -2.4650  0.3027 -3.2623
  502MOL0     H66248  10.711   9.761   2.885  0.1603 -1.1011 -0.4053
  502MOL0     H66249  10.472   9.822   2.946 -0.1145 -1.6368  0.8510
  502MOL0     H66250   8.672   9.230   3.249  1.8259  0.1817 -0.3981
  502MOL0     H66251   8.478   9.345   3.119  1.5411  4.1651  4.2345
  502MOL0     H66252   8.295   9.294   2.584 -0.9700 -2.2537  1.9332
  502MOL0     H66253   8.072   9.362   2.510 -0.1605 -4.4170  3.4969
  502MOL0     H66254   7.812   9.418   2.549 -0.8270  0.7411 -1.6776
  502MOL0     H66255   7.904   9.471   2.413  2.3543  1.3137  0.4082
  502MOL0     H66256   7.685   9.624   2.573  0.3889  0.8312  0.4726
  502MOL0     H66257   7.772   9.691   2.433  0.0872  0.4020  1.5087
  502MOL0     H66258   7.585   9.456   2.431  1.8470 -2.5084 -2.6434
  502MOL0     H66259   7.682   9.508   2.290  1.3114 -2.0939  0.1713
  502MOL0     H66260   7.436   9.608   2.415 -0.8151 -2.4626 -1.1965
  502MOL0     H66261   7.532   9.733   2.333 -1.4480 -0.2214  0.4452
  502MOL0     H66262   7.329   9.528   2.028  0.3987 -0.9412 -0.7674
  502MOL0     H66263   8.090   9.708   2.777  0.9564  1.5301 -1.2006
  502MOL0     H66264   8.281   9.606   2.883  3.2593 -2.5659  0.5847
  503MOL0     O66265  10.407   8.889   0.901 -0.2720  0.3740 -0.5219
  503MOL0     C66266  10.451   8.849   1.006  0.2216 -0.4415 -1.1209
  503MOL0     O66267  10.380   8.781   1.112  1.1079 -0.4782  0.3851
  503MOL0     C66268  10.242   8.794   1.114 -1.0380  0.1645  0.2033
  503MOL0     C66269  10.173   8.860   1.215 -0.4116 -0.2247 -0.4126
  503MOL0     C66270  10.038   8.855   1.217 -0.3281 -0.1582 -0.0562
  503MOL0     C66271   9.963   8.783   1.117 -1.3996 -0.0494 -0.0457
  503MOL0     O66272   9.827   8.757   1.136 -0.1393 -0.1326  0.8457
  503MOL0     C66273   9.778   8.626   1.094  0.5914 -0.4315 -0.1005
  503MOL0     C66274   9.716   8.561   1.214  0.1585 -0.5684 -0.0330
  503MOL0     C66275   9.819   8.522   1.321 -0.8359  0.7223 -0.1037
  503MOL0     C66276   9.834   8.365   1.330  0.1202  0.1194 -0.4119
  503MOL0     C66277   9.911   8.331   1.465  0.4060 -0.1089  1.2874
  503MOL0     C66278  10.036   8.411   1.489  0.0631 -0.8295 -0.8849
  503MOL0     C66279  10.152   8.400   1.386 -0.1864 -0.2174  0.0676
  503MOL0     C66280  10.269   8.498   1.439  0.2813  0.5072 -0.1840
  503MOL0     N66281  10.397   8.488   1.361  0.1019 -0.1718 -0.0301
  503MOL0     C66282  10.409   8.473   1.218  0.4550 -0.0755  1.2612
  503MOL0     C66283  10.535   8.506   1.199  0.0718  0.7452 -0.8482
  503MOL0     C66284  10.611   8.503   1.066 -0.1476  0.2879  0.1637
  503MOL0     C66285  10.764   8.525   1.069  0.1948  0.0790  0.6306
  503MOL0     C66286  10.821   8.546   0.936 -0.7906  0.5583  0.3196
  503MOL0     C66287  10.974   8.568   0.963 -0.0376  0.2570 -0.5953
  503MOL0     O66288  11.030   8.589   0.836 -0.2140  0.0798 -0.1090
  503MOL0     C66289  11.148   8.659   0.838  0.5202  0.8544  0.1440
  503MOL0     C66290  11.234   8.683   0.949 -0.7531 -0.0100  0.0932
  503MOL0     C66291  11.359   8.750   0.927  0.9632 -0.4327  0.5733
  503MOL0     C66292  11.380   8.821   0.808 -0.7353 -0.1226 -0.5046
  503MOL0     C66293  11.511   8.895   0.790 -0.8102 -0.2713 -0.6702
  503MOL0     O66294  11.594   8.903   0.900 -0.1318  0.1906  1.3343
  503MOL0     C66295  11.663   9.022   0.916  0.9126 -0.7260 -0.0594
  503MOL0     C66296  11.608   9.143   0.971 -0.4207  0.1024 -0.2269
  503MOL0     C66297  11.686   9.259   0.993  0.1679  0.0042 -0.3490
  503MOL0     C66298  11.820   9.256   0.971 -0.0537  0.2335 -0.5900
  503MOL0     O66299  11.895   9.365   0.991  0.1835 -0.8468  0.1408
  503MOL0     C66300  12.024   9.388   0.943 -0.5560  0.7207 -0.4058
  503MOL0     C66301  12.006   9.414   0.796 -0.3128 -0.7630  0.4009
  503MOL0     C66302  12.129   9.496   0.742  0.0344  0.9736  0.5799
  503MOL0     C66303  12.137   9.504   0.593 -0.9108  0.3395 -0.4472
  503MOL0     C66304  12.278   9.525   0.541 -1.1244  0.3597  0.5988
  503MOL0     C66305  12.325   9.673   0.586 -0.0074 -1.3430 -0.1474
  503MOL0     C66306  12.480   9.649   0.579  0.6616  0.1470  0.1069
  503MOL0     C66307  12.554   9.772   0.538 -0.7080 -1.1414  0.3850
  503MOL0    Cl66308  12.709   9.729   0.469  0.5213  0.7540  0.0732
  503MOL0     C66309  11.876   9.138   0.914 -0.7966 -0.3915 -0.7967
  503MOL0     C66310  11.796   9.020   0.894 -0.3410 -1.0839  0.2552
  503MOL0     O66311  11.516   8.969   0.694 -0.1983 -0.1359 -0.7531
  503MOL0     C66312  11.280   8.816   0.711  0.1291  0.0312  0.0887
  503MOL0     C66313  11.177   8.732   0.726  0.3071 -0.3265  0.0076
  503MOL0     N66314  10.599   8.560   1.309  0.6834  0.3780  1.1444
  503MOL0     N66315  10.514   8.549   1.400  0.5582 -0.2623  0.2729
  503MOL0     C66316  10.037   8.726   1.011 -0.0907  0.2495 -0.2526
  503MOL0     C66317  10.168   8.726   1.014  0.0987 -0.1709  0.3281
  503MOL0     C66318  10.588   8.869   1.040  0.0023 -0.0090  0.6680
  503MOL0     C66319  10.691   8.911   0.948 -0.2389 -0.4285  0.4122
  503MOL0     C66320  10.823   8.941   0.989 -0.3097 -0.5179  0.0794
  503MOL0     C66321  10.847   8.934   1.130 -0.3906  0.2033 -0.3558
  503MOL0     O66322  10.960   8.976   1.196  0.2970 -0.6198  0.6770
  503MOL0     C66323  11.080   8.953   1.124 -0.1282  0.1239 -0.2082
  503MOL0     C66324  11.158   9.085   1.115  0.7264 -0.3034  0.3536
  503MOL0     C66325  11.207   9.136   1.252 -0.5669  1.0067  0.4282
  503MOL0     C66326  11.295   9.257   1.222  0.1687 -0.9175 -0.3068
  503MOL0     C66327  11.276   9.364   1.324 -0.9509 -0.1824 -0.1471
  503MOL0     C66328  11.260   9.457   1.396  0.6393  0.8571 -0.5285
  503MOL0     C66329  10.746   8.892   1.214  0.4292 -0.6810 -0.0196
  503MOL0     C66330  10.621   8.860   1.172  0.4311 -0.0866  0.2952
  503MOL0     H66331  10.227   8.918   1.289 -0.6468  2.0299 -1.9009
  503MOL0     H66332   9.988   8.906   1.298  2.3900  2.2254  0.2487
  503MOL0     H66333   9.856   8.568   1.042 -0.7741 -0.7620 -1.8814
  503MOL0     H66334   9.710   8.645   1.011  0.4408  0.8698  0.3059
  503MOL0     H66335   9.639   8.490   1.182 -0.7402 -0.0236  0.8769
  503MOL0     H66336   9.655   8.639   1.259  2.1078  0.1482  1.4924
  503MOL0     H66337   9.795   8.573   1.415  1.2567  0.6058  0.5354
  503MOL0     H66338   9.911   8.573   1.292  1.2250 -2.5692  0.0119
  503MOL0     H66339   9.733   8.325   1.323  0.0463  0.4814 -1.6111
  503MOL0     H66340   9.899   8.342   1.244 -1.0448 -2.2649 -0.7215
  503MOL0     H66341   9.943   8.227   1.453  2.9743  0.7038  0.2697
  503MOL0     H66342   9.834   8.324   1.542 -0.0379 -1.4099  0.7462
  503MOL0     H66343  10.073   8.374   1.585  0.1039  0.9813 -0.1689
  503MOL0     H66344  10.017   8.515   1.518  1.0553 -1.1545  1.0648
  503MOL0     H66345  10.192   8.299   1.369 -0.1185 -0.1371 -0.2527
  503MOL0     H66346  10.123   8.430   1.285 -1.0067 -1.6670 -0.1598
  503MOL0     H66347  10.296   8.457   1.537 -1.1746  0.0133  0.0396
  503MOL0     H66348  10.240   8.603   1.449 -0.7016  0.0790  2.3664
  503MOL0     H66349  10.337   8.442   1.144  2.7300  4.2461 -3.3242
  503MOL0     H66350  10.571   8.566   0.986  0.8598  0.3530 -0.3061
  503MOL0     H66351  10.586   8.403   1.028 -4.2393  1.6571 -1.1764
  503MOL0     H66352  10.813   8.446   1.127  0.0068 -0.1522  0.4767
  503MOL0     H66353  10.788   8.618   1.120  0.2417  0.6630 -0.4191
  503MOL0     H66354  10.804   8.456   0.877 -3.7909  1.4656 -0.3842
  503MOL0     H66355  10.779   8.641   0.900 -0.2212  0.4563 -0.6233
  503MOL0     H66356  11.023   8.481   1.009  1.6280  1.5596  0.1765
  503MOL0     H66357  10.986   8.656   1.027  0.6050 -0.9690  1.0395
  503MOL0     H66358  11.206   8.650   1.049 -0.9025  0.7284  0.3024
  503MOL0     H66359  11.419   8.771   1.015  0.3035  0.2605  0.8669
  503MOL0     H66360  11.501   9.156   0.987 -0.5145  2.2989 -2.1281
  503MOL0     H66361  11.642   9.349   1.037 -0.9587 -0.0979 -1.2229
  503MOL0     H66362  12.088   9.301   0.960  0.4326  1.4193 -0.4803
  503MOL0     H66363  12.051   9.472   1.007 -1.2268  0.2238  0.5407
  503MOL0     H66364  11.918   9.475   0.774  0.1607 -0.2704 -0.1988
  503MOL0     H66365  11.996   9.328   0.730 -0.9157  0.9049 -1.8147
  503MOL0     H66366  12.220   9.459   0.790  1.2131  0.7082 -1.7629
  503MOL0     H66367  12.118   9.599   0.779  1.2188  2.8177 -3.5940
  503MOL0     H66368  12.098   9.410   0.554  0.5587 -0.9730  1.0930
  503MOL0     H66369  12.067   9.576   0.550 -2.4517 -0.2479  0.9467
  503MOL0     H66370  12.289   9.514   0.433  1.2223 -1.0130  0.9135
  503MOL0     H66371  12.325   9.450   0.604 -5.3683 -1.6814  1.7425
  503MOL0     H66372  12.298   9.701   0.688 -0.3629  0.9248 -0.8192
  503MOL0     H66373  12.295   9.749   0.514  0.1735  0.3036  1.4485
  503MOL0     H66374  12.521   9.615   0.675  2.2462  0.2619 -0.4917
  503MOL0     H66375  12.500   9.570   0.506 -1.2841 -0.2253 -0.0634
  503MOL0     H66376  12.566   9.836   0.625 -2.2183  0.3099 -0.4225
  503MOL0     H66377  12.497   9.830   0.464 -0.7719 -0.9281  0.6014
  503MOL0     H66378  11.979   9.140   0.880 -0.8091  1.6090 -0.8520
  503MOL0     H66379  11.841   8.931   0.850  0.1593 -0.8467  0.2817
  503MOL0     H66380  11.297   8.866   0.616  0.2189 -2.9651 -1.5859
  503MOL0     H66381  11.107   8.723   0.643  0.5530  2.6161 -0.6047
  503MOL0     H66382   9.997   8.680   0.921 -0.1220  0.3536 -0.2910
  503MOL0     H66383  10.216   8.692   0.922 -0.8822  1.1236 -0.7094
  503MOL0     H66384  10.654   8.942   0.851  0.7902 -0.6894 -0.0780
  503MOL0     H66385  10.891   8.989   0.919 -2.3740  1.6531 -0.5864
  503MOL0     H66386  11.069   8.905   1.026  0.9009  0.6717 -0.6039
  503MOL0     H66387  11.145   8.879   1.173  0.8861  0.1165 -1.5236
  503MOL0     H66388  11.241   9.078   1.045 -0.1312 -0.4155 -0.6687
  503MOL0     H66389  11.080   9.155   1.084 -1.1009 -2.6590 -0.7207
  503MOL0     H66390  11.264   9.062   1.310  0.1347  2.5484  1.7584
  503MOL0     H66391  11.117   9.163   1.309  0.2027  1.8260  1.2868
  503MOL0     H66392  11.402   9.237   1.214  0.6301  0.7787  1.0825
  503MOL0     H66393  11.252   9.303   1.132 -0.6360  0.7596  0.8891
  503MOL0     H66394  11.239   9.550   1.445 -0.5938  0.6075 -0.5469
  503MOL0     H66395  10.786   8.897   1.315  2.7382  0.7926 -0.9301
  503MOL0     H66396  10.549   8.854   1.252  0.8671 -0.2974  0.6784
  504MOL0     O66397   4.046   8.828   0.266 -0.5326  0.8925  0.9569
  504MOL0     C66398   4.115   8.722   0.236  0.4268 -0.2439 -0.2191
  504MOL0     O66399   4.254   8.717   0.213 -0.3044  0.3288 -0.3209
  504MOL0     C66400   4.333   8.825   0.189  0.9919 -0.2589 -1.7166
  504MOL0     C66401   4.367   8.903   0.310 -1.0961  0.4502  0.9231
  504MOL0     C66402   4.449   9.017   0.291 -0.2720 -0.8137  1.1073
  504MOL0     C66403   4.491   9.056   0.161  0.6278 -0.4603  0.2731
  504MOL0     O66404   4.543   9.185   0.150  0.9730 -0.0556  1.5364
  504MOL0     C66405   4.597   9.234   0.025 -1.0979 -0.7062  0.1753
  504MOL0     C66406   4.602   9.381   0.056  0.3361 -0.0612 -0.8545
  504MOL0     C66407   4.701   9.426   0.170 -1.5945  1.9113  0.8122
  504MOL0     C66408   4.859   9.415   0.134 -0.3526  0.2465  0.4940
  504MOL0     C66409   4.944   9.467   0.255  0.4610 -0.5474 -0.3017
  504MOL0     C66410   5.094   9.450   0.246  0.3515  0.2307  1.2767
  504MOL0     C66411   5.133   9.323   0.316  0.1707  0.0132  0.2697
  504MOL0     C66412   5.285   9.286   0.347 -0.0385 -0.8755  1.1808
  504MOL0     N66413   5.347   9.353   0.459  1.0948 -0.0488  0.5357
  504MOL0     C66414   5.323   9.326   0.584 -0.0079  0.3190 -0.6226
  504MOL0     C66415   5.406   9.408   0.655  0.5333 -0.8523  0.8196
  504MOL0     C66416   5.412   9.423   0.801 -0.8269  0.0273 -0.0578
  504MOL0     C66417   5.468   9.288   0.869  0.3735 -0.1775 -0.0047
  504MOL0     C66418   5.499   9.311   1.015 -0.1309  0.2349  0.1712
  504MOL0     C66419   5.497   9.181   1.103 -0.3045 -0.6812  0.0821
  504MOL0     O66420   5.384   9.095   1.082  0.1806 -0.4206 -0.5129
  504MOL0     C66421   5.259   9.139   1.115 -0.1122  0.2244 -0.9543
  504MOL0     C66422   5.156   9.123   1.025  0.6625 -0.2295  0.4187
  504MOL0     C66423   5.024   9.149   1.054  0.4105 -0.2717 -0.0259
  504MOL0     C66424   4.991   9.211   1.174  0.6018  0.8470  0.2937
  504MOL0     C66425   4.849   9.243   1.202 -0.0005 -0.1983  0.0318
  504MOL0     O66426   4.761   9.213   1.107  0.0682  0.6342 -0.2724
  504MOL0     C66427   4.642   9.246   1.155  0.8420  0.1076 -0.0931
  504MOL0     C66428   4.579   9.187   1.277 -0.3822 -0.2126  0.8010
  504MOL0     C66429   4.444   9.209   1.295  0.6182  0.2043  0.7950
  504MOL0     C66430   4.369   9.300   1.214 -0.1274  0.0845  0.1148
  504MOL0     O66431   4.235   9.324   1.235 -0.9973  0.3339 -0.1474
  504MOL0     C66432   4.189   9.335   1.370  0.3048 -0.9976  0.1784
  504MOL0     C66433   4.114   9.210   1.417 -0.3335  0.2403 -0.2870
  504MOL0     C66434   4.126   9.214   1.571 -0.0856  0.2447 -0.6736
  504MOL0     C66435   4.066   9.088   1.646 -0.7378 -0.0476 -0.5240
  504MOL0     C66436   3.922   9.066   1.602  0.6233  0.4302 -0.3169
  504MOL0     C66437   3.836   9.005   1.721  0.0118  0.3090  0.2983
  504MOL0     C66438   3.686   9.000   1.689 -1.3647 -0.3531  0.6398
  504MOL0     C66439   3.592   8.997   1.816 -0.8004  0.5116 -0.6747
  504MOL0    Cl66440   3.671   8.928   1.956 -0.3325 -0.5298 -0.0504
  504MOL0     C66441   4.437   9.371   1.107  0.6882  0.5353 -0.0866
  504MOL0     C66442   4.568   9.342   1.079  0.9027  0.0707  0.7762
  504MOL0     O66443   4.834   9.297   1.319 -0.2808  0.2687  0.3567
  504MOL0     C66444   5.089   9.216   1.273 -0.3768 -0.5994  0.9704
  504MOL0     C66445   5.225   9.179   1.245 -0.1017 -0.9126 -0.9319
  504MOL0     N66446   5.485   9.477   0.556  0.9216 -0.2769  0.4260
  504MOL0     N66447   5.447   9.448   0.435  0.0791  0.2284 -0.6005
  504MOL0     C66448   4.463   8.975   0.051 -0.0459  0.1076 -1.1940
  504MOL0     C66449   4.391   8.859   0.073  0.3723 -0.0668  0.6465
  504MOL0     C66450   4.041   8.592   0.238 -0.6288  0.8439 -0.1025
  504MOL0     C66451   3.900   8.595   0.261  0.1804 -0.0017 -0.0936
  504MOL0     C66452   3.828   8.474   0.251 -0.0104  0.5069 -1.0305
  504MOL0     C66453   3.898   8.357   0.236  0.5862 -0.2148  0.5767
  504MOL0     O66454   3.829   8.235   0.230  0.1977 -0.1834 -0.1249
  504MOL0     C66455   3.746   8.206   0.348 -0.3200  0.2000 -0.0519
  504MOL0     C66456   3.601   8.189   0.319  0.1162  1.4244  0.1538
  504MOL0     C66457   3.589   8.085   0.206  0.2959 -0.0485 -0.0214
  504MOL0     C66458   3.442   8.049   0.172  0.0363 -0.1208 -0.1897
  504MOL0     C66459   3.376   7.986   0.292  0.8091 -1.3541  0.5285
  504MOL0     C66460   3.315   7.924   0.377  0.1647 -0.3790  0.1501
  504MOL0     C66461   4.031   8.350   0.209  0.3681 -0.3822  0.9686
  504MOL0     C66462   4.106   8.469   0.217  1.2082 -0.5229  0.3726
  504MOL0     H66463   4.326   8.890   0.409 -0.9615 -1.4864  0.7579
  504MOL0     H66464   4.471   9.080   0.376 -1.7911 -0.2692  1.1311
  504MOL0     H66465   4.529   9.223  -0.060 -1.6190  2.6716  0.0144
  504MOL0     H66466   4.691   9.184  -0.001  0.4627  1.7197  0.8108
  504MOL0     H66467   4.505   9.427   0.078  1.0807  1.5694 -0.7798
  504MOL0     H66468   4.641   9.440  -0.028  1.4371  1.3502  0.5735
  504MOL0     H66469   4.688   9.363   0.258 -0.5275 -0.7216 -0.7941
  504MOL0     H66470   4.676   9.527   0.205 -3.3982  1.0802  2.0507
  504MOL0     H66471   4.874   9.308   0.117  2.0097  0.4534  0.9686
  504MOL0     H66472   4.873   9.472   0.042  2.9417  2.3773  2.1455
  504MOL0     H66473   4.898   9.410   0.336 -2.9204 -2.3118 -3.1856
  504MOL0     H66474   4.920   9.573   0.268 -0.5578 -0.9735  1.7633
  504MOL0     H66475   5.154   9.526   0.297  1.3049  1.0032 -0.8750
  504MOL0     H66476   5.109   9.456   0.138 -0.5862 -0.6773  1.0770
  504MOL0     H66477   5.086   9.348   0.412  0.2467  0.6204  0.1495
  504MOL0     H66478   5.078   9.235   0.281  0.5874 -0.5996  1.1266
  504MOL0     H66479   5.344   9.311   0.258  3.5214 -1.9473  3.0236
  504MOL0     H66480   5.298   9.179   0.365 -0.5043 -1.3774 -1.1347
  504MOL0     H66481   5.248   9.257   0.622  0.5137  0.4082  0.5809
  504MOL0     H66482   5.309   9.443   0.833 -0.2727  1.1220  1.1599
  504MOL0     H66483   5.473   9.502   0.846  0.2818 -0.7553 -0.1294
  504MOL0     H66484   5.548   9.238   0.814 -1.2635 -4.8349  1.3609
  504MOL0     H66485   5.384   9.218   0.866 -0.2466  0.5464  0.0770
  504MOL0     H66486   5.603   9.341   1.027  0.8230 -1.9788 -1.7737
  504MOL0     H66487   5.436   9.391   1.056  0.6331  1.3809 -0.8186
  504MOL0     H66488   5.489   9.227   1.203 -1.5324 -0.4244 -0.1221
  504MOL0     H66489   5.587   9.122   1.086 -0.6435 -1.4828  0.9859
  504MOL0     H66490   5.170   9.077   0.927 -1.0631  1.1423 -0.5263
  504MOL0     H66491   4.946   9.137   0.980  0.2809  0.4138 -0.0107
  504MOL0     H66492   4.635   9.133   1.353  0.9810  0.0596  0.0255
  504MOL0     H66493   4.401   9.154   1.378 -0.3818 -0.5216 -0.1864
  504MOL0     H66494   4.114   9.416   1.365  2.6366  1.3873  1.2344
  504MOL0     H66495   4.264   9.369   1.442 -0.3998 -2.0970  1.4729
  504MOL0     H66496   4.164   9.124   1.373  1.3558  1.4258 -0.8267
  504MOL0     H66497   4.020   9.206   1.362  2.0362 -1.9014 -4.6134
  504MOL0     H66498   4.099   9.309   1.617 -3.5347  0.0556 -1.9586
  504MOL0     H66499   4.233   9.210   1.592 -0.4776  0.9935  1.7765
  504MOL0     H66500   4.117   8.992   1.636  2.3152  1.4806 -0.6664
  504MOL0     H66501   4.079   9.102   1.754  1.8278  0.6122 -0.8530
  504MOL0     H66502   3.917   8.998   1.517 -1.0651  0.3275 -0.1646
  504MOL0     H66503   3.879   9.166   1.586 -1.3877 -0.1248  1.2191
  504MOL0     H66504   3.849   9.066   1.811 -1.3655  1.2736 -0.1157
  504MOL0     H66505   3.857   8.902   1.750 -0.4209  0.8173  2.5948
  504MOL0     H66506   3.668   9.080   1.616 -1.1111  0.1085  1.0858
  504MOL0     H66507   3.668   8.916   1.620 -2.4607  0.9094 -0.6892
  504MOL0     H66508   3.500   8.940   1.794 -1.9450  0.4633  3.3986
  504MOL0     H66509   3.564   9.101   1.835 -0.9158  0.2196  0.8559
  504MOL0     H66510   4.377   9.446   1.057 -2.6330 -0.8457  1.4592
  504MOL0     H66511   4.620   9.391   0.998 -0.1101 -3.9635 -2.6620
  504MOL0     H66512   5.055   9.254   1.368 -4.5572  0.9923 -0.9399
  504MOL0     H66513   5.287   9.191   1.333 -1.6533 -0.2711  0.1140
  504MOL0     H66514   4.498   8.994  -0.050  0.2910  1.7798 -0.7840
  504MOL0     H66515   4.363   8.796  -0.010 -1.2908 -0.0266  1.1346
  504MOL0     H66516   3.858   8.694   0.274 -1.7314 -0.7864  0.0443
  504MOL0     H66517   3.722   8.457   0.266  0.2966 -1.2918 -0.6864
  504MOL0     H66518   3.761   8.282   0.425  0.5741 -1.4175  1.4403
  504MOL0     H66519   3.781   8.113   0.392 -4.1540  0.7437  5.1054
  504MOL0     H66520   3.547   8.150   0.406 -0.8407  0.1561 -0.9637
  504MOL0     H66521   3.552   8.280   0.283 -1.0087  0.5742 -0.5438
  504MOL0     H66522   3.650   7.997   0.226  2.9137  1.8137  0.7165
  504MOL0     H66523   3.625   8.138   0.117 -0.0197  1.4146  0.7031
  504MOL0     H66524   3.389   8.143   0.155  0.5094  0.0911 -0.5318
  504MOL0     H66525   3.434   7.986   0.083 -0.1354  1.6555 -1.4868
  504MOL0     H66526   3.261   7.872   0.454 -1.6827 -1.0060 -1.4987
  504MOL0     H66527   4.079   8.255   0.191  2.4744  0.3749  2.2585
  504MOL0     H66528   4.207   8.474   0.180  0.6469 -0.5998 -1.2778
  505MOL0     O66529  10.391   5.127   7.198 -0.2907 -0.4733  0.8203
  505MOL0     C66530  10.442   5.061   7.102 -0.7170 -0.5042 -0.9263
  505MOL0     O66531  10.581   5.075   7.068 -0.2655  1.0121  0.4394
  505MOL0     C66532  10.670   5.157   7.134  0.1152 -0.4124  0.6392
  505MOL0     C66533  10.665   5.178   7.271 -0.1571  0.3435 -0.0483
  505MOL0     C66534  10.765   5.245   7.332  0.8359  0.2516  0.7022
  505MOL0     C66535  10.877   5.270   7.263  1.0633 -0.7453 -0.7271
  505MOL0     O66536  10.987   5.322   7.330  0.2597  1.4982 -0.3128
  505MOL0     C66537  10.976   5.401   7.444 -0.1586  0.5933 -0.6952
  505MOL0     C66538  11.125   5.453   7.481  0.5458  0.8924 -1.1861
  505MOL0     C66539  11.116   5.538   7.603 -0.2953  0.5321 -0.1353
  505MOL0     C66540  11.245   5.619   7.613  0.7384 -0.2745 -0.3283
  505MOL0     C66541  11.376   5.547   7.639  0.3347  1.0031 -0.3926
  505MOL0     C66542  11.484   5.619   7.718  0.2749  0.4204 -0.3982
  505MOL0     C66543  11.578   5.711   7.637 -0.0945 -0.0576 -0.4236
  505MOL0     C66544  11.724   5.718   7.679  0.3253  0.4564 -0.5759
  505MOL0     N66545  11.727   5.767   7.813  0.9331  1.1700 -1.1909
  505MOL0     C66546  11.774   5.690   7.914  0.3511 -0.0485  0.2375
  505MOL0     C66547  11.779   5.767   8.022  0.1178 -0.6137 -0.3015
  505MOL0     C66548  11.823   5.728   8.163  0.6753 -0.1125 -0.3921
  505MOL0     C66549  11.920   5.819   8.237  0.3827 -0.7407  0.4027
  505MOL0     C66550  11.848   5.927   8.331 -0.0663 -0.0034 -0.7938
  505MOL0     C66551  11.956   5.989   8.436  0.1496  0.4262  0.2384
  505MOL0     O66552  11.958   5.916   8.564  0.5432 -0.1314  0.6912
  505MOL0     C66553  12.061   5.949   8.645 -0.8147 -1.1673  0.9090
  505MOL0     C66554  12.122   6.074   8.644 -0.0244  0.4366  0.0248
  505MOL0     C66555  12.252   6.092   8.701  0.2853  0.4660  0.7842
  505MOL0     C66556  12.318   5.987   8.764 -0.4229 -0.1937  0.7833
  505MOL0     C66557  12.459   5.999   8.813 -0.1585 -0.2947 -0.1616
  505MOL0     O66558  12.517   6.130   8.800 -0.4607  0.2335  0.2754
  505MOL0     C66559  12.634   6.141   8.876 -0.3869 -1.0357  0.5722
  505MOL0     C66560  12.748   6.193   8.808  0.6464  1.5065 -0.0445
  505MOL0     C66561  12.861   6.227   8.880  0.0833 -0.0744  0.0801
  505MOL0     C66562  12.869   6.214   9.018 -0.2254 -0.5183 -0.0629
  505MOL0     O66563  12.985   6.262   9.077  0.1720 -0.4169 -0.0616
  505MOL0     C66564  12.980   6.262   9.219  0.4799 -0.0281  0.5698
  505MOL0     C66565  12.905   6.376   9.284  0.3741  0.1003  0.0174
  505MOL0     C66566  12.884   6.358   9.429  0.0007 -0.0753 -0.3495
  505MOL0     C66567  12.782   6.244   9.460  0.0043  0.2639 -0.7893
  505MOL0     C66568  12.741   6.239   9.608 -0.1325 -0.1267  0.5032
  505MOL0     C66569  12.646   6.126   9.641 -0.4013  0.4631 -1.0227
  505MOL0     C66570  12.505   6.139   9.593 -0.4331  0.5895 -0.1059
  505MOL0     C66571  12.437   6.008   9.629  0.7459 -0.0480 -0.3946
  505MOL0    Cl66572  12.265   6.003   9.600 -0.0627 -0.6041 -0.1207
  505MOL0     C66573  12.746   6.175   9.091  0.3088 -0.4160 -0.1895
  505MOL0     C66574  12.636   6.141   9.015 -0.0153 -0.4782 -0.3989
  505MOL0     O66575  12.508   5.904   8.876 -0.1162  0.1683 -0.1874
  505MOL0     C66576  12.254   5.859   8.772  0.2997 -0.3806  0.2880
  505MOL0     C66577  12.124   5.851   8.720 -0.0829  0.5805  0.5468
  505MOL0     N66578  11.726   5.894   7.984  0.3153 -0.1867 -0.0696
  505MOL0     N66579  11.690   5.885   7.862  0.3629 -0.2706 -0.0611
  505MOL0     C66580  10.887   5.247   7.126 -0.3319  0.3001  0.4326
  505MOL0     C66581  10.784   5.180   7.065  0.0219  0.0200 -0.8940
  505MOL0     C66582  10.362   4.958   7.031  0.0178  0.0304  0.0697
  505MOL0     C66583  10.414   4.880   6.921  0.2397  0.2219 -0.4084
  505MOL0     C66584  10.329   4.798   6.847 -0.2526  0.3535  0.7223
  505MOL0     C66585  10.200   4.777   6.886  0.0075 -0.4025  0.1920
  505MOL0     O66586  10.102   4.703   6.820  0.1432  0.4040  0.6404
  505MOL0     C66587  10.154   4.592   6.742 -0.5951  0.9759 -0.2191
  505MOL0     C66588  10.121   4.462   6.808 -1.1842 -0.4026 -0.7590
  505MOL0     C66589   9.975   4.446   6.861 -0.0021 -0.5637  0.3827
  505MOL0     C66590   9.858   4.487   6.768  0.4431  0.1886  0.5813
  505MOL0     C66591   9.732   4.438   6.829  0.0130 -1.3264  0.3111
  505MOL0     C66592   9.637   4.410   6.887  0.0931  0.4192 -0.8375
  505MOL0     C66593  10.145   4.864   6.992 -0.3936  0.0004 -0.2292
  505MOL0     C66594  10.224   4.951   7.062 -0.8713  0.1140 -0.5217
  505MOL0     H66595  10.581   5.152   7.335  0.3329 -0.8636  0.1272
  505MOL0     H66596  10.766   5.276   7.436  1.0614  2.9177 -0.0434
  505MOL0     H66597  10.953   5.331   7.525 -1.0024 -0.2943 -1.6692
  505MOL0     H66598  10.915   5.491   7.431 -1.3289 -0.4252 -2.8966
  505MOL0     H66599  11.168   5.507   7.396 -0.2121  0.5249 -1.8165
  505MOL0     H66600  11.183   5.367   7.514  0.9877  2.2799  2.0268
  505MOL0     H66601  11.110   5.481   7.697 -1.6548  0.5792 -0.1805
  505MOL0     H66602  11.024   5.597   7.606 -0.2383  0.5971  0.6144
  505MOL0     H66603  11.249   5.679   7.522  0.3807  1.8705  0.9977
  505MOL0     H66604  11.222   5.687   7.695  3.1182  4.3095 -3.0863
  505MOL0     H66605  11.415   5.516   7.542  0.9988  3.2884 -0.9130
  505MOL0     H66606  11.354   5.461   7.703 -3.3937  1.3890 -0.9029
  505MOL0     H66607  11.553   5.538   7.745  1.6356  1.3813 -0.9174
  505MOL0     H66608  11.451   5.666   7.811 -2.1542 -1.8066 -0.0167
  505MOL0     H66609  11.565   5.681   7.533 -0.7119 -4.7261  0.7345
  505MOL0     H66610  11.537   5.811   7.652  1.9052  0.7346  0.1522
  505MOL0     H66611  11.767   5.792   7.610  0.2703 -1.3846 -2.7139
  505MOL0     H66612  11.771   5.621   7.660  0.7406  0.5276  0.0617
  505MOL0     H66613  11.784   5.582   7.912 -0.4955 -0.1361 -2.3119
  505MOL0     H66614  11.855   5.624   8.168 -2.7410 -1.2289  2.2155
  505MOL0     H66615  11.726   5.743   8.211  1.0745  0.5590  0.2207
  505MOL0     H66616  11.972   5.874   8.158 -1.5923  0.5628 -0.0543
  505MOL0     H66617  12.000   5.767   8.291  2.5689 -2.3123 -3.8601
  505MOL0     H66618  11.798   6.007   8.276  0.3262  2.2148  1.8197
  505MOL0     H66619  11.777   5.874   8.396  1.8460  0.0822  1.5443
  505MOL0     H66620  11.931   6.092   8.462 -1.2928  0.8303 -2.4774
  505MOL0     H66621  12.050   5.986   8.380 -1.4120 -3.2970 -2.5629
  505MOL0     H66622  12.073   6.150   8.586 -0.3516 -0.9255 -1.5623
  505MOL0     H66623  12.285   6.195   8.710 -0.2004  0.5996  1.0941
  505MOL0     H66624  12.747   6.210   8.701  2.5036 -1.2377 -0.6089
  505MOL0     H66625  12.945   6.257   8.816 -0.9852  0.0946 -1.2966
  505MOL0     H66626  13.081   6.278   9.257  0.8889  0.1898 -0.5701
  505MOL0     H66627  12.952   6.164   9.259  0.1289  1.5352  4.6148
  505MOL0     H66628  12.809   6.396   9.238 -0.4795 -2.0146  0.7711
  505MOL0     H66629  12.960   6.471   9.283 -0.0489  0.3581 -2.2490
  505MOL0     H66630  12.840   6.453   9.461  0.0518 -0.4799  1.0222
  505MOL0     H66631  12.977   6.342   9.484 -0.1536 -0.3696 -0.1716
  505MOL0     H66632  12.695   6.242   9.394 -0.5445 -3.2295 -0.1640
  505MOL0     H66633  12.832   6.147   9.452  0.1570 -0.2825  3.9125
  505MOL0     H66634  12.705   6.335   9.647  0.3200  0.3924 -0.3204
  505MOL0     H66635  12.833   6.225   9.666 -1.2622  0.0441  2.4179
  505MOL0     H66636  12.638   6.104   9.748  0.9657 -2.7086 -1.4637
  505MOL0     H66637  12.680   6.040   9.582 -0.7089  2.5665 -4.5480
  505MOL0     H66638  12.463   6.223   9.650  0.0683  0.8336 -0.0984
  505MOL0     H66639  12.495   6.155   9.486  2.3130  1.5574 -0.2721
  505MOL0     H66640  12.463   5.974   9.730 -0.1634 -0.1359 -0.1831
  505MOL0     H66641  12.478   5.931   9.563  0.6067  0.1463 -0.7078
  505MOL0     H66642  12.749   6.146   9.196  0.7372 -1.1651 -0.3996
  505MOL0     H66643  12.552   6.107   9.075  0.7317 -1.4633  0.1191
  505MOL0     H66644  12.308   5.781   8.825  1.3815 -0.4184 -0.8150
  505MOL0     H66645  12.068   5.758   8.723 -0.8819  1.0701  2.5364
  505MOL0     H66646  10.983   5.269   7.079 -0.6797 -0.7580 -0.8461
  505MOL0     H66647  10.793   5.161   6.958  0.5839  4.4123 -1.8339
  505MOL0     H66648  10.522   4.886   6.906  1.6656 -2.6621  5.5059
  505MOL0     H66649  10.377   4.750   6.762 -1.7010 -2.5313  1.4018
  505MOL0     H66650  10.259   4.592   6.711 -0.4524 -0.8519  0.1316
  505MOL0     H66651  10.114   4.605   6.641  0.5507  0.7854 -0.7244
  505MOL0     H66652  10.132   4.378   6.739  2.5719 -1.8111  1.2745
  505MOL0     H66653  10.198   4.449   6.883 -0.3047 -1.3925 -1.7984
  505MOL0     H66654   9.967   4.508   6.951  0.5523  0.7259 -0.4286
  505MOL0     H66655   9.972   4.338   6.881  3.6210 -1.3584 -2.2085
  505MOL0     H66656   9.852   4.589   6.730 -0.8171 -0.1568 -0.2246
  505MOL0     H66657   9.884   4.443   6.671 -1.7541  0.8679 -0.3793
  505MOL0     H66658   9.558   4.378   6.952 -0.9938  0.2159 -2.2025
  505MOL0     H66659  10.040   4.860   7.021 -0.0819 -0.7062  0.8612
  505MOL0     H66660  10.178   5.005   7.144  0.1461 -0.9836  0.8223
  506MOL0     O66661   3.704  11.318   1.113  0.1783 -0.0164 -0.4612
  506MOL0     C66662   3.619  11.234   1.098 -0.2184 -0.7168 -0.3136
  506MOL0     O66663   3.639  11.097   1.086  0.0183 -0.5355  0.0337
  506MOL0     C66664   3.765  11.049   1.070  0.9050  0.2624  0.1702
  506MOL0     C66665   3.791  10.923   1.127  0.1136  0.8780  0.5973
  506MOL0     C66666   3.918  10.862   1.106  0.4738  0.4530 -0.7053
  506MOL0     C66667   4.015  10.943   1.033 -0.5011  0.0608  0.9395
  506MOL0     O66668   4.146  10.925   0.992  0.5179 -0.8274 -0.5314
  506MOL0     C66669   4.217  10.825   1.057 -0.5852 -0.5233  0.2562
  506MOL0     C66670   4.371  10.848   1.039 -0.2738  1.3030  0.1805
  506MOL0     C66671   4.416  10.975   1.117 -0.0309 -0.0546 -0.7007
  506MOL0     C66672   4.404  10.986   1.271  0.6306 -0.5615 -0.7731
  506MOL0     C66673   4.499  10.889   1.348  0.3032  0.7242  0.1648
  506MOL0     C66674   4.658  10.893   1.325  0.8939  0.3087 -0.5709
  506MOL0     C66675   4.722  11.017   1.386 -0.2252 -0.1021  0.9160
  506MOL0     C66676   4.757  11.120   1.281  0.2489  0.3390 -0.9338
  506MOL0     N66677   4.892  11.095   1.239  0.5040 -0.0513  0.3466
  506MOL0     C66678   4.934  10.998   1.158 -0.2503  0.3235 -0.2832
  506MOL0     C66679   5.062  10.974   1.178 -0.5883 -1.4327 -0.3771
  506MOL0     C66680   5.120  10.837   1.136  0.3408 -1.3573 -0.6712
  506MOL0     C66681   5.040  10.728   1.214 -1.0626 -0.2421  0.6647
  506MOL0     C66682   5.095  10.597   1.169 -0.0176  0.1301  0.6883
  506MOL0     C66683   5.064  10.472   1.268  0.6582 -0.0056 -0.4513
  506MOL0     O66684   4.947  10.491   1.355  0.1148 -0.5983  0.1302
  506MOL0     C66685   4.828  10.486   1.293  0.0303 -0.3688  0.0254
  506MOL0     C66686   4.798  10.468   1.160  0.5984  0.3324  0.2677
  506MOL0     C66687   4.668  10.464   1.112 -0.7612 -0.4819 -0.4741
  506MOL0     C66688   4.555  10.460   1.200 -0.4792  0.6126  0.2330
  506MOL0     C66689   4.420  10.458   1.142  0.1424  0.8975  0.2573
  506MOL0     O66690   4.313  10.464   1.233 -0.0300  0.2128 -1.3032
  506MOL0     C66691   4.174  10.466   1.199 -0.5189  0.3117  0.7674
  506MOL0     C66692   4.086  10.492   1.298 -0.1624 -0.3274 -0.2466
  506MOL0     C66693   3.947  10.496   1.280 -0.1780  0.5094  0.3151
  506MOL0     C66694   3.903  10.464   1.151  0.3436 -0.9105 -0.3602
  506MOL0     O66695   3.762  10.429   1.133 -0.0545 -0.2432 -0.2443
  506MOL0     C66696   3.664  10.521   1.185 -0.4376  0.3451 -0.3667
  506MOL0     C66697   3.518  10.473   1.165 -0.1497 -0.1839  0.3913
  506MOL0     C66698   3.463  10.374   1.263  0.0599  0.2985 -0.5724
  506MOL0     C66699   3.340  10.301   1.208  0.1542 -0.8192  0.1001
  506MOL0     C66700   3.272  10.216   1.321  0.4500  0.6230 -0.4422
  506MOL0     C66701   3.196  10.097   1.256 -0.3019  0.3468 -0.5668
  506MOL0     C66702   3.165   9.974   1.341 -0.6743  0.9501 -1.0261
  506MOL0     C66703   3.098   9.865   1.252 -0.1857  0.1050  0.1078
  506MOL0    Cl66704   2.976   9.945   1.141 -0.0191  0.8087 -0.5888
  506MOL0     C66705   3.992  10.446   1.054 -0.0432 -0.2454 -0.4147
  506MOL0     C66706   4.127  10.441   1.070  0.8733  0.2829 -0.6120
  506MOL0     O66707   4.411  10.478   1.018  0.3993 -0.1203 -0.5307
  506MOL0     C66708   4.590  10.471   1.331  0.0167 -0.1147  0.2316
  506MOL0     C66709   4.711  10.498   1.382 -1.2458 -0.4438  0.7627
  506MOL0     N66710   5.106  11.076   1.264  0.1729  0.7095 -0.1703
  506MOL0     N66711   5.003  11.139   1.302 -0.1763 -0.1055  0.0671
  506MOL0     C66712   3.975  11.056   0.980  0.4938 -0.3142 -1.2615
  506MOL0     C66713   3.856  11.110   0.986 -0.1370  0.0740 -0.9677
  506MOL0     C66714   3.479  11.286   1.100  1.2278 -0.3069 -0.4687
  506MOL0     C66715   3.375  11.234   1.014  0.9951  0.2230 -0.5479
  506MOL0     C66716   3.248  11.289   1.014  0.0381 -0.1972  0.8852
  506MOL0     C66717   3.210  11.381   1.110 -0.0031 -0.2365 -0.1606
  506MOL0     O66718   3.079  11.411   1.096  0.9700 -0.5625 -0.1149
  506MOL0     C66719   3.014  11.512   1.182 -0.7041 -0.3025  0.0469
  506MOL0     C66720   2.926  11.615   1.107 -0.1645 -0.2090  0.8266
  506MOL0     C66721   2.822  11.545   1.020  0.3564  0.1244  0.0909
  506MOL0     C66722   2.692  11.620   0.991 -0.8135 -0.0815 -0.1070
  506MOL0     C66723   2.604  11.574   0.889 -0.3232 -0.9150  0.4289
  506MOL0     C66724   2.534  11.537   0.796  0.5731 -0.3737  0.2442
  506MOL0     C66725   3.311  11.435   1.195  0.3844 -0.7114 -1.0410
  506MOL0     C66726   3.437  11.378   1.198  0.0375 -0.6644 -0.4062
  506MOL0     H66727   3.711  10.867   1.174 -1.4243 -0.3189 -3.0519
  506MOL0     H66728   3.940  10.767   1.153 -1.9285 -1.9969 -4.0407
  506MOL0     H66729   4.193  10.728   1.013  1.5329 -2.2842  2.7165
  506MOL0     H66730   4.186  10.823   1.162 -0.4945 -1.3090  0.2675
  506MOL0     H66731   4.392  10.861   0.933  2.8386  1.4860  0.7263
  506MOL0     H66732   4.419  10.757   1.075 -1.0654 -1.3539 -4.6734
  506MOL0     H66733   4.347  11.048   1.075 -1.1940 -0.9603 -0.4001
  506MOL0     H66734   4.518  11.007   1.093 -0.0649  0.7260  0.1592
  506MOL0     H66735   4.421  11.089   1.306  1.1494 -0.7480 -0.4605
  506MOL0     H66736   4.302  10.964   1.305  0.2984  1.4277 -0.3589
  506MOL0     H66737   4.467  10.791   1.312  2.3487  0.1883 -0.2806
  506MOL0     H66738   4.479  10.897   1.455  0.4756  0.7707  0.1930
  506MOL0     H66739   4.684  10.882   1.220  0.9724 -0.8592 -0.4454
  506MOL0     H66740   4.707  10.813   1.381  0.0101 -1.3059 -1.9898
  506MOL0     H66741   4.649  11.062   1.455 -2.9281 -0.0243 -1.7729
  506MOL0     H66742   4.810  10.988   1.444  2.8142  1.2994 -2.6135
  506MOL0     H66743   4.762  11.220   1.326  3.4697  1.4574 -3.3333
  506MOL0     H66744   4.677  11.122   1.206 -0.4441  4.3556 -0.3121
  506MOL0     H66745   4.867  10.930   1.107  0.3840 -0.2566 -0.3488
  506MOL0     H66746   5.227  10.838   1.157  0.1706 -0.9099  0.2572
  506MOL0     H66747   5.114  10.816   1.029  1.6914 -2.0529 -0.6334
  506MOL0     H66748   4.932  10.733   1.193 -0.9381 -1.7306 -0.4989
  506MOL0     H66749   5.067  10.738   1.319 -0.1972  3.5493  0.2236
  506MOL0     H66750   5.049  10.570   1.073  0.1514 -3.1118  1.4069
  506MOL0     H66751   5.204  10.602   1.155  0.2023  1.1425  2.5017
  506MOL0     H66752   5.147  10.475   1.340 -0.1902  1.0679  0.5248
  506MOL0     H66753   5.056  10.377   1.215 -0.1377  0.8730 -1.9548
  506MOL0     H66754   4.878  10.455   1.089  1.4310 -0.6974  1.3458
  506MOL0     H66755   4.664  10.458   1.004 -3.5766  2.2424 -0.6744
  506MOL0     H66756   4.123  10.522   1.396  2.2090  5.0612 -2.3998
  506MOL0     H66757   3.877  10.508   1.361 -2.5215 -3.4780 -0.8672
  506MOL0     H66758   3.669  10.625   1.152  1.4394 -0.2339 -2.1043
  506MOL0     H66759   3.672  10.511   1.294 -3.3520  0.8002 -0.0298
  506MOL0     H66760   3.507  10.433   1.063  1.6540 -1.4185  0.6288
  506MOL0     H66761   3.454  10.561   1.170 -1.5406 -0.9908 -1.6175
  506MOL0     H66762   3.454  10.425   1.359 -1.6827  1.5980 -1.3697
  506MOL0     H66763   3.539  10.299   1.283  0.5611  1.3245  1.6036
  506MOL0     H66764   3.262  10.367   1.170 -0.0870 -0.7822  0.6522
  506MOL0     H66765   3.365  10.243   1.119 -0.0292  0.3501 -0.7350
  506MOL0     H66766   3.200  10.268   1.385  0.0481 -3.9833  3.3842
  506MOL0     H66767   3.353  10.173   1.381 -0.5132 -1.6170 -0.6478
  506MOL0     H66768   3.254  10.065   1.169 -2.6174 -3.9598 -0.8066
  506MOL0     H66769   3.101  10.134   1.215 -0.6845  1.7620  1.4329
  506MOL0     H66770   3.252   9.942   1.399  0.2458  1.5914 -2.0120
  506MOL0     H66771   3.093  10.003   1.417  0.4213  0.1446  0.3697
  506MOL0     H66772   3.048   9.789   1.312 -1.1666  0.5586 -0.1149
  506MOL0     H66773   3.178   9.817   1.195 -0.8696 -1.2039  0.2326
  506MOL0     H66774   3.966  10.400   0.959  2.0378 -0.3153 -1.0098
  506MOL0     H66775   4.195  10.410   0.991  1.2715  1.1589 -0.6213
  506MOL0     H66776   4.509  10.475   1.403  0.0465 -0.9152  0.3145
  506MOL0     H66777   4.747  10.527   1.480 -0.1201  1.5042 -0.1754
  506MOL0     H66778   4.046  11.130   0.945 -0.2623  1.5438  0.8739
  506MOL0     H66779   3.826  11.203   0.938  1.7222  0.4297 -1.5206
  506MOL0     H66780   3.394  11.147   0.953 -0.4551 -0.0074 -0.6931
  506MOL0     H66781   3.177  11.248   0.942 -0.3284 -1.4187  1.9013
  506MOL0     H66782   3.088  11.567   1.241  1.4268 -2.4515 -0.4871
  506MOL0     H66783   2.939  11.464   1.245 -3.7730  2.1970 -1.3939
  506MOL0     H66784   2.870  11.680   1.175  1.5280  1.7329  0.4822
  506MOL0     H66785   2.980  11.680   1.037 -2.0612 -0.3202 -0.8547
  506MOL0     H66786   2.793  11.457   1.079  0.3801 -0.0227 -0.1148
  506MOL0     H66787   2.870  11.514   0.926  0.9730  1.8774 -0.2077
  506MOL0     H66788   2.639  11.637   1.085 -0.5878  4.3108 -0.5460
  506MOL0     H66789   2.707  11.725   0.964 -0.7207 -0.0143  0.2063
  506MOL0     H66790   2.472  11.502   0.716 -2.0015  0.2315  1.8303
  506MOL0     H66791   3.287  11.498   1.280 -1.2617 -2.4274 -0.1519
  506MOL0     H66792   3.514  11.422   1.259 -0.6515  0.9135 -0.5981
  507MOL0     O66793   1.175   9.362  10.365 -0.0742  0.4587  1.6020
  507MOL0     C66794   1.177   9.285  10.463 -1.0201 -0.3356 -0.0312
  507MOL0     O66795   1.078   9.224  10.527  0.8645 -0.0230  0.5971
  507MOL0     C66796   0.951   9.215  10.474  0.5185  0.1104  0.2695
  507MOL0     C66797   0.836   9.226  10.556  0.2211  0.2965  0.0830
  507MOL0     C66798   0.712   9.207  10.491  0.3367  0.2972  0.2419
  507MOL0     C66799   0.701   9.172  10.355  0.4402  0.2946 -0.4445
  507MOL0     O66800   0.591   9.140  10.277 -0.3385  0.3136  0.2407
  507MOL0     C66801   0.463   9.135  10.332  0.2685 -0.3083 -0.1145
  507MOL0     C66802   0.366   9.039  10.273  1.2977  1.1012  0.1735
  507MOL0     C66803   0.247   9.031  10.372  0.2679  0.3518 -0.1736
  507MOL0     C66804   0.152   8.926  10.339 -0.1709 -0.0461  0.6384
  507MOL0     C66805   0.024   8.927  10.431 -0.0610  0.0567  0.3104
  507MOL0     C66806  -0.058   8.802  10.418 -0.0139  0.0571 -0.1735
  507MOL0     C66807  -0.193   8.814  10.506  0.0798 -0.1435 -0.2111
  507MOL0     C66808  -0.258   8.677  10.535  0.0528 -0.0049  0.1591
  507MOL0     N66809  -0.369   8.684  10.623 -0.0525  0.0987  0.5822
  507MOL0     C66810  -0.493   8.691  10.568 -0.0615  0.8378 -0.6983
  507MOL0     C66811  -0.566   8.767  10.657 -0.1163 -0.0495 -0.1783
  507MOL0     C66812  -0.702   8.816  10.631  0.5388 -0.4424 -0.3541
  507MOL0     C66813  -0.814   8.713  10.668 -0.0905  0.2671 -0.8735
  507MOL0     C66814  -0.836   8.720  10.822 -0.1906  1.0908 -0.1227
  507MOL0     C66815  -0.950   8.619  10.871 -0.0327  0.5985 -0.5109
  507MOL0     O66816  -1.058   8.629  10.776 -0.2742 -0.0323  0.0741
  507MOL0     C66817  -1.166   8.546  10.770 -0.6007 -0.3897  0.1581
  507MOL0     C66818  -1.198   8.475  10.891 -0.0136 -0.3468 -0.2100
  507MOL0     C66819  -1.303   8.387  10.890  0.5053 -0.7272  0.2895
  507MOL0     C66820  -1.384   8.360  10.769 -0.0104  0.5842  0.2628
  507MOL0     C66821  -1.491   8.259  10.763  0.5683  0.3262  0.3833
  507MOL0     O66822  -1.573   8.263  10.659 -0.4683  0.5807  0.4471
  507MOL0     C66823  -1.665   8.153  10.655  0.1983 -0.0878 -0.1552
  507MOL0     C66824  -1.805   8.164  10.656  0.4788 -0.4181  0.2281
  507MOL0     C66825  -1.886   8.061  10.648 -0.5220 -0.2886  0.1268
  507MOL0     C66826  -1.842   7.929  10.609  0.0821 -0.8205 -0.1887
  507MOL0     O66827  -1.923   7.820  10.583  0.3885  0.0998  0.3038
  507MOL0     C66828  -1.913   7.695  10.661 -0.0591 -0.3386 -0.4815
  507MOL0     C66829  -2.027   7.682  10.755 -0.3776  0.4797 -0.3756
  507MOL0     C66830  -2.162   7.686  10.672  0.4579 -0.5799  0.2922
  507MOL0     C66831  -2.279   7.651  10.762  0.0657 -0.4128 -0.0090
  507MOL0     C66832  -2.414   7.656  10.685 -0.7698 -0.2022 -0.2252
  507MOL0     C66833  -2.525   7.565  10.754  0.2956  0.2016 -0.0590
  507MOL0     C66834  -2.479   7.411  10.783  0.1972 -0.8354 -0.1259
  507MOL0     C66835  -2.580   7.292  10.759 -0.0691 -0.6485 -0.3638
  507MOL0    Cl66836  -2.529   7.125  10.805  0.4952  0.0407 -0.5325
  507MOL0     C66837  -1.707   7.917  10.591 -0.7687 -0.2570  0.9583
  507MOL0     C66838  -1.615   8.029  10.613  0.4802  0.5570  0.1319
  507MOL0     O66839  -1.509   8.190  10.862  0.3754  0.0360  0.5188
  507MOL0     C66840  -1.346   8.423  10.656 -0.0610 -0.6987 -0.5843
  507MOL0     C66841  -1.241   8.511  10.657  0.2941 -0.8478 -0.3756
  507MOL0     N66842  -0.481   8.794  10.762 -0.4103  0.2086 -0.4358
  507MOL0     N66843  -0.366   8.743  10.744  0.7992  0.7010  0.7821
  507MOL0     C66844   0.821   9.150  10.287 -0.1299 -0.0086 -0.2834
  507MOL0     C66845   0.947   9.178  10.339 -0.2298  0.2662 -0.0083
  507MOL0     C66846   1.315   9.253  10.523  0.5361 -0.3378 -0.0591
  507MOL0     C66847   1.325   9.146  10.620  1.2247 -0.3766 -0.8281
  507MOL0     C66848   1.446   9.112  10.678 -0.2639  0.6614  0.7129
  507MOL0     C66849   1.564   9.170  10.641  0.1768  0.2421  0.2183
  507MOL0     O66850   1.683   9.143  10.708 -0.0310 -0.3602 -0.0796
  507MOL0     C66851   1.741   9.018  10.665  0.5899  0.0017 -0.0164
  507MOL0     C66852   1.889   9.001  10.697  0.3024  0.4147 -1.3635
  507MOL0     C66853   1.970   9.059  10.586  0.3276 -0.7895 -0.6441
  507MOL0     C66854   2.120   9.012  10.580 -0.6088  1.0417 -0.0378
  507MOL0     C66855   2.182   9.067  10.693  0.1949 -0.0011 -0.4160
  507MOL0     C66856   2.221   9.100  10.808  0.6555  0.6518 -0.3499
  507MOL0     C66857   1.557   9.280  10.552  0.5317  0.1257  0.1161
  507MOL0     C66858   1.433   9.311  10.490 -0.1079 -0.0917 -1.1684
  507MOL0     H66859   0.846   9.253  10.660 -1.8257 -2.9286  1.2671
  507MOL0     H66860   0.619   9.229  10.543 -0.3214 -0.9751 -0.3603
  507MOL0     H66861   0.422   9.237  10.331  0.2846 -0.2921  0.4755
  507MOL0     H66862   0.464   9.107  10.438  2.2136  0.2314  0.0566
  507MOL0     H66863   0.408   8.938  10.267 -0.3109  0.4729 -1.3361
  507MOL0     H66864   0.332   9.078  10.177  0.0515  2.3856  1.1079
  507MOL0     H66865   0.185   9.120  10.371 -1.9673 -1.0803  1.1599
  507MOL0     H66866   0.275   9.006  10.475 -2.2039  2.4839  1.1074
  507MOL0     H66867   0.127   8.938  10.233 -1.3556  1.0031  1.0086
  507MOL0     H66868   0.187   8.824  10.356 -2.0502 -0.8786 -0.2272
  507MOL0     H66869  -0.041   9.011  10.406 -0.0582 -0.6606 -2.5144
  507MOL0     H66870   0.050   8.951  10.535 -1.9453  2.5988  0.2775
  507MOL0     H66871  -0.005   8.716  10.459  3.1875  1.3866 -1.1222
  507MOL0     H66872  -0.085   8.776  10.315  0.8077  2.1337 -0.9709
  507MOL0     H66873  -0.167   8.864  10.600 -1.4091  0.2020  0.0403
  507MOL0     H66874  -0.266   8.870  10.447 -0.6158 -0.6497  0.1501
  507MOL0     H66875  -0.189   8.611  10.591  0.1522 -0.0657 -0.0347
  507MOL0     H66876  -0.288   8.634  10.440  1.1730  2.9828 -1.6897
  507MOL0     H66877  -0.533   8.650  10.476  1.9195  1.1662 -1.7597
  507MOL0     H66878  -0.710   8.839  10.524  0.9317  0.6120 -0.1735
  507MOL0     H66879  -0.719   8.910  10.686  1.5854 -0.4871  0.0717
  507MOL0     H66880  -0.794   8.610  10.638  0.5048  0.3945 -0.9284
  507MOL0     H66881  -0.900   8.759  10.620 -0.9322  3.4415  3.0850
  507MOL0     H66882  -0.740   8.696  10.870 -0.1340  0.9655 -0.3006
  507MOL0     H66883  -0.880   8.819  10.841 -4.0187 -0.1729 -1.4475
  507MOL0     H66884  -0.981   8.657  10.969 -1.4561  0.2579 -0.8081
  507MOL0     H66885  -0.922   8.515  10.891 -0.7561  0.6576  0.9304
  507MOL0     H66886  -1.146   8.479  10.987 -0.6649 -1.6010  0.2278
  507MOL0     H66887  -1.337   8.327  10.973 -1.5190  1.2275  0.9962
  507MOL0     H66888  -1.857   8.258  10.671 -0.1008 -0.8201  0.7865
  507MOL0     H66889  -1.990   8.087  10.668  0.3018  2.9573  0.7621
  507MOL0     H66890  -1.822   7.698  10.722 -0.6149  1.2159  0.3303
  507MOL0     H66891  -1.905   7.607  10.596 -1.8893 -2.3103  1.7357
  507MOL0     H66892  -2.029   7.756  10.835  3.0106  0.8236 -0.4573
  507MOL0     H66893  -2.014   7.586  10.806  3.0345  1.4307  0.8074
  507MOL0     H66894  -2.158   7.620  10.585  0.4162  1.6499 -1.4875
  507MOL0     H66895  -2.161   7.793  10.648  1.2228 -1.0009 -1.6856
  507MOL0     H66896  -2.257   7.551  10.801 -2.2583 -1.2013 -0.5454
  507MOL0     H66897  -2.296   7.716  10.849 -1.7915 -0.5688 -0.1979
  507MOL0     H66898  -2.394   7.633  10.580 -0.6343  2.4786 -0.8575
  507MOL0     H66899  -2.434   7.763  10.695  0.4911 -0.0990  1.7930
  507MOL0     H66900  -2.622   7.564  10.702  1.4049 -0.6062 -2.2490
  507MOL0     H66901  -2.543   7.605  10.854 -1.1958 -1.5008  0.4141
  507MOL0     H66902  -2.395   7.397  10.715  0.3279 -3.5034  0.4978
  507MOL0     H66903  -2.442   7.412  10.886 -0.4163 -0.8869  0.0974
  507MOL0     H66904  -2.600   7.281  10.652  1.1810  0.9498 -0.7820
  507MOL0     H66905  -2.664   7.324  10.822 -0.6071 -2.8161  0.1184
  507MOL0     H66906  -1.669   7.818  10.569  0.5202  0.3783  0.1947
  507MOL0     H66907  -1.511   8.019  10.584  0.8428  1.5169  1.0687
  507MOL0     H66908  -1.403   8.403  10.566 -0.5027 -0.4080 -0.3696
  507MOL0     H66909  -1.212   8.555  10.561  0.1467 -1.3546 -0.6568
  507MOL0     H66910   0.814   9.131  10.180 -0.3756 -0.2759 -0.2207
  507MOL0     H66911   1.026   9.161  10.267 -1.5221  1.1062 -1.6962
  507MOL0     H66912   1.232   9.103  10.655  1.5689 -1.7613 -1.5083
  507MOL0     H66913   1.437   9.039  10.757 -0.9146  0.5487  0.5350
  507MOL0     H66914   1.732   9.013  10.556  1.5868 -0.3605 -0.0908
  507MOL0     H66915   1.684   8.938  10.713  0.5381 -0.6083 -1.0512
  507MOL0     H66916   1.909   9.070  10.780 -0.4634  1.0642 -1.6945
  507MOL0     H66917   1.910   8.897  10.722 -1.8877  0.1099 -0.5664
  507MOL0     H66918   1.967   9.168  10.592 -1.6226 -0.9089  2.0992
  507MOL0     H66919   1.923   9.038  10.489 -2.8449  0.5573  0.5014
  507MOL0     H66920   2.129   8.903  10.588  2.3673  1.3007  1.2053
  507MOL0     H66921   2.172   9.046  10.490  1.4951 -1.2148  0.2353
  507MOL0     H66922   2.251   9.123  10.908 -0.8140  0.5423  0.1525
  507MOL0     H66923   1.650   9.336  10.548  0.0373  1.5113  4.0614
  507MOL0     H66924   1.439   9.386  10.412 -1.0704  1.2567  0.0212
  508MOL0     O66925   5.162   8.078   4.573  0.0131 -0.3272 -0.6108
  508MOL0     C66926   5.132   8.192   4.606 -0.0285  0.9343 -0.0556
  508MOL0     O66927   5.006   8.236   4.641 -0.0967 -0.1480 -0.3348
  508MOL0     C66928   4.902   8.151   4.640 -0.6241 -0.0047 -0.0966
  508MOL0     C66929   4.865   8.061   4.748 -0.5469 -0.0817  0.4993
  508MOL0     C66930   4.740   7.986   4.749 -0.2772 -0.0908  0.1249
  508MOL0     C66931   4.652   8.004   4.638 -0.1601 -0.2019  0.6051
  508MOL0     O66932   4.533   7.936   4.636 -0.7352  0.0720  0.2941
  508MOL0     C66933   4.418   8.019   4.602  0.2951 -0.5809  0.3496
  508MOL0     C66934   4.289   7.951   4.645 -0.2779  0.2536  0.6613
  508MOL0     C66935   4.158   8.014   4.596 -0.6691 -0.0944 -0.6688
  508MOL0     C66936   4.044   7.914   4.619  0.0973  0.2642  0.0290
  508MOL0     C66937   3.908   7.967   4.581  0.0822  1.0103  1.0381
  508MOL0     C66938   3.798   7.862   4.616 -0.3823 -0.4984 -0.1238
  508MOL0     C66939   3.657   7.917   4.563  0.0642  0.4629  0.0708
  508MOL0     C66940   3.561   7.801   4.552 -0.3663  0.6837  0.5237
  508MOL0     N66941   3.420   7.839   4.553 -0.6010  0.2947 -0.5784
  508MOL0     C66942   3.340   7.858   4.659 -0.7722 -0.6249  0.1586
  508MOL0     C66943   3.215   7.881   4.603  0.7122  1.3577 -0.5631
  508MOL0     C66944   3.089   7.866   4.681  0.3633  0.4933  0.2843
  508MOL0     C66945   2.973   7.895   4.591 -0.6189 -0.9766  0.0749
  508MOL0     C66946   2.847   7.838   4.649  1.2330  0.2846  0.5399
  508MOL0     C66947   2.797   7.930   4.760  0.1729  0.2871 -0.5977
  508MOL0     O66948   2.734   8.049   4.717  0.1425  0.3298  0.9445
  508MOL0     C66949   2.624   8.100   4.786 -0.8174  0.3299 -0.0890
  508MOL0     C66950   2.596   8.067   4.921  0.0393  0.9287  0.0389
  508MOL0     C66951   2.480   8.117   4.979  0.3358  0.0293 -0.3497
  508MOL0     C66952   2.389   8.200   4.918  0.7717 -0.6098  0.3354
  508MOL0     C66953   2.270   8.245   4.979  0.5733 -0.1366  0.6168
  508MOL0     O66954   2.219   8.171   5.085  0.2163  0.1452 -0.0727
  508MOL0     C66955   2.087   8.169   5.130 -0.0071 -0.3577  0.3245
  508MOL0     C66956   2.058   8.116   5.252 -0.4510  0.2655  0.5985
  508MOL0     C66957   1.934   8.119   5.305 -0.1401 -0.1028 -0.4892
  508MOL0     C66958   1.829   8.189   5.247  0.7204 -0.9054  0.4353
  508MOL0     O66959   1.708   8.179   5.303  0.5535 -1.1865  0.5172
  508MOL0     C66960   1.604   8.123   5.218  0.0744  1.1287 -0.1676
  508MOL0     C66961   1.482   8.079   5.301  0.3199 -0.2382 -0.6461
  508MOL0     C66962   1.352   8.058   5.223 -0.3315 -0.4291  0.0030
  508MOL0     C66963   1.231   8.020   5.309 -0.2110  0.8701  0.2974
  508MOL0     C66964   1.120   7.992   5.214  0.2133 -0.4822  0.3730
  508MOL0     C66965   0.994   7.915   5.271 -0.0209 -0.1074 -0.1087
  508MOL0     C66966   0.902   8.028   5.329  0.5108 -0.1547 -0.3357
  508MOL0     C66967   0.776   7.967   5.384 -0.0603 -0.8670  0.5175
  508MOL0    Cl66968   0.671   7.901   5.249 -0.1911 -0.1663  0.1700
  508MOL0     C66969   1.848   8.237   5.118  0.0250  0.0846  0.2189
  508MOL0     C66970   1.979   8.229   5.058  0.2394  0.4534  0.7810
  508MOL0     O66971   2.224   8.353   4.938 -0.4001  0.5237 -0.4063
  508MOL0     C66972   2.421   8.245   4.792  0.2515 -0.1783 -0.6250
  508MOL0     C66973   2.536   8.197   4.728 -0.5341  0.6327  0.6363
  508MOL0     N66974   3.229   7.881   4.461  1.1241  0.1650 -1.6163
  508MOL0     N66975   3.347   7.849   4.436 -0.7289 -0.2192  0.3492
  508MOL0     C66976   4.697   8.079   4.525 -0.2107  0.2630  0.7730
  508MOL0     C66977   4.812   8.156   4.528  0.6591  0.3432  0.4509
  508MOL0     C66978   5.245   8.294   4.613  0.8561 -0.2839  0.1036
  508MOL0     C66979   5.375   8.262   4.572 -0.2726  0.8467 -0.0354
  508MOL0     C66980   5.472   8.357   4.557  0.8946 -0.8886 -0.0550
  508MOL0     C66981   5.451   8.491   4.601 -0.4317  0.5525  0.4689
  508MOL0     O66982   5.560   8.573   4.576  0.4177 -0.6158 -0.6722
  508MOL0     C66983   5.550   8.714   4.578  0.2015 -0.2250 -0.7195
  508MOL0     C66984   5.473   8.769   4.465  0.0491 -0.3125  0.7694
  508MOL0     C66985   5.461   8.930   4.469  0.2651 -0.8982 -0.6501
  508MOL0     C66986   5.349   8.972   4.376 -0.4689  0.5833  0.3148
  508MOL0     C66987   5.387   8.921   4.239 -0.9801  0.0242 -0.4317
  508MOL0     C66988   5.403   8.879   4.128 -0.1185 -0.4609  0.1724
  508MOL0     C66989   5.325   8.523   4.654 -0.4060  0.5027  0.3084
  508MOL0     C66990   5.222   8.424   4.653 -0.1663 -0.9428 -0.7305
  508MOL0     H66991   4.940   8.081   4.824 -1.2042  0.5008  1.0111
  508MOL0     H66992   4.723   7.924   4.836  0.2649  1.8206  1.6588
  508MOL0     H66993   4.413   8.035   4.494  1.3932 -0.5256  0.2984
  508MOL0     H66994   4.427   8.115   4.653  0.9522 -0.6159  0.2976
  508MOL0     H66995   4.283   7.935   4.753  0.1088  2.1568  1.0019
  508MOL0     H66996   4.295   7.850   4.603 -1.2953 -0.0651  1.2373
  508MOL0     H66997   4.173   8.033   4.489  3.2363 -1.2749 -0.4589
  508MOL0     H66998   4.140   8.103   4.657  0.2488  1.0449 -1.9956
  508MOL0     H66999   4.050   7.827   4.552 -0.8414  0.0460  0.2143
  508MOL0     H67000   4.052   7.885   4.724 -0.0883  0.8098  0.1942
  508MOL0     H67001   3.909   7.978   4.472  1.0436  0.4552  0.9727
  508MOL0     H67002   3.895   8.063   4.631  0.5705  1.5157  0.2167
  508MOL0     H67003   3.796   7.841   4.724  0.7525  1.0693  0.2371
  508MOL0     H67004   3.829   7.768   4.572  1.9332  0.2353 -0.1599
  508MOL0     H67005   3.625   7.995   4.633 -0.3150  1.0565 -0.7399
  508MOL0     H67006   3.661   7.952   4.459 -1.5285  0.1399 -0.1423
  508MOL0     H67007   3.576   7.741   4.642  0.0463 -1.1578 -0.7291
  508MOL0     H67008   3.585   7.746   4.461  0.6890  1.8379  0.0843
  508MOL0     H67009   3.373   7.831   4.759 -3.2278 -2.1182  0.6554
  508MOL0     H67010   3.089   7.918   4.778  2.2514 -6.3279  4.6980
  508MOL0     H67011   3.082   7.766   4.726 -0.9304  0.1888 -0.5324
  508MOL0     H67012   3.001   7.856   4.493  1.8555  0.1287  0.2668
  508MOL0     H67013   2.973   8.004   4.581  0.5122 -0.8859  0.8527
  508MOL0     H67014   2.774   7.821   4.569  2.3719  1.0486 -0.7161
  508MOL0     H67015   2.864   7.736   4.682 -1.6830 -0.6071 -0.4287
  508MOL0     H67016   2.874   7.946   4.836  3.1327  1.5841 -3.6325
  508MOL0     H67017   2.714   7.874   4.805 -0.2943  0.0528 -1.7077
  508MOL0     H67018   2.671   8.014   4.978 -0.5814  1.1687  1.1056
  508MOL0     H67019   2.460   8.079   5.079 -1.6551 -3.1486 -1.7782
  508MOL0     H67020   2.140   8.085   5.316  0.4536  2.7021  0.7566
  508MOL0     H67021   1.925   8.065   5.399  0.1273 -0.6612 -0.7776
  508MOL0     H67022   1.641   8.031   5.172  0.3393  0.6337  1.0058
  508MOL0     H67023   1.558   8.195   5.149  0.6882  0.8486 -0.8861
  508MOL0     H67024   1.475   8.144   5.389  1.4831 -1.4120  0.3595
  508MOL0     H67025   1.511   7.982   5.345  0.6787  0.3945  0.5536
  508MOL0     H67026   1.373   7.987   5.143  0.7386  1.6911 -1.6847
  508MOL0     H67027   1.313   8.147   5.173 -1.0879  0.4101  1.9991
  508MOL0     H67028   1.266   7.924   5.350  1.3769  0.3455 -2.0675
  508MOL0     H67029   1.213   8.090   5.390  1.2068  0.7710  0.7399
  508MOL0     H67030   1.153   7.914   5.145  0.2017  1.1667 -1.5887
  508MOL0     H67031   1.079   8.077   5.160  3.0182 -1.0511 -2.9428
  508MOL0     H67032   1.011   7.834   5.342 -0.0748 -0.3583 -0.3833
  508MOL0     H67033   0.939   7.867   5.191  0.0086  0.6145 -0.5719
  508MOL0     H67034   0.966   8.067   5.408  1.6156 -3.2621  0.4653
  508MOL0     H67035   0.882   8.109   5.259 -0.0162 -0.7671 -0.9162
  508MOL0     H67036   0.717   8.045   5.434 -2.3312 -1.7330 -0.6934
  508MOL0     H67037   0.791   7.895   5.465 -2.8861  0.5959  2.5518
  508MOL0     H67038   1.766   8.278   5.060  1.0011 -0.5213 -1.6534
  508MOL0     H67039   1.991   8.269   4.958  2.0838 -0.2214  0.7036
  508MOL0     H67040   2.352   8.312   4.743 -4.3892 -2.2841  2.3667
  508MOL0     H67041   2.559   8.223   4.625 -0.6091 -2.5443 -0.2841
  508MOL0     H67042   4.639   8.069   4.434  2.8723  0.0190 -1.2723
  508MOL0     H67043   4.842   8.210   4.438 -0.8682 -1.3071 -1.1343
  508MOL0     H67044   5.408   8.160   4.556  0.9288  1.2977 -0.5331
  508MOL0     H67045   5.572   8.330   4.523  0.3450 -4.4237  0.7735
  508MOL0     H67046   5.636   8.779   4.595 -1.0746  2.2383 -2.7946
  508MOL0     H67047   5.502   8.748   4.671  1.6576 -2.5002  0.9629
  508MOL0     H67048   5.521   8.743   4.369 -1.8360  2.2688 -1.0036
  508MOL0     H67049   5.374   8.724   4.470  0.8955 -2.5798 -0.6131
  508MOL0     H67050   5.553   8.987   4.457 -1.8715  3.5250  1.7197
  508MOL0     H67051   5.433   8.947   4.573 -1.5363 -0.6939 -1.1303
  508MOL0     H67052   5.262   8.911   4.403  0.2156 -0.4204  0.3197
  508MOL0     H67053   5.328   9.078   4.392  0.6351  0.3806  3.9840
  508MOL0     H67054   5.419   8.836   4.031 -2.4244 -0.0302 -0.4487
  508MOL0     H67055   5.307   8.623   4.691 -0.7030  0.3885  0.4756
  508MOL0     H67056   5.128   8.454   4.698  1.1216  2.7815 -0.1558
  509MOL0     O67057   7.580   1.530   5.987  0.3911 -0.0775  0.3245
  509MOL0     C67058   7.575   1.583   6.098 -0.2409  0.2684  0.4196
  509MOL0     O67059   7.478   1.671   6.146  0.7541 -0.0741  0.9446
  509MOL0     C67060   7.368   1.695   6.061  0.0586  0.3457 -0.9452
  509MOL0     C67061   7.365   1.811   5.997  0.2926 -0.3256  0.7231
  509MOL0     C67062   7.258   1.842   5.917  0.1458  0.6497 -0.1610
  509MOL0     C67063   7.142   1.764   5.914 -0.3743  1.2669  0.1959
  509MOL0     O67064   7.035   1.815   5.845  0.1964 -0.1338  0.2813
  509MOL0     C67065   6.908   1.780   5.892  0.4812  1.0683  0.1759
  509MOL0     C67066   6.804   1.817   5.793 -0.2910  0.5272 -0.8813
  509MOL0     C67067   6.666   1.790   5.860 -0.0676 -0.4183  0.3164
  509MOL0     C67068   6.551   1.815   5.759 -0.1102 -0.1906  1.0851
  509MOL0     C67069   6.410   1.793   5.821 -0.9015  0.4457  0.1068
  509MOL0     C67070   6.294   1.848   5.737  0.3179  0.1081  0.0242
  509MOL0     C67071   6.169   1.862   5.824  0.2180  0.5449 -0.8837
  509MOL0     C67072   6.181   1.975   5.924  0.5626 -0.1483  0.5359
  509MOL0     N67073   6.049   2.031   5.950 -0.0415  0.2951  0.0848
  509MOL0     C67074   5.929   1.973   5.902  0.3931 -0.1582  0.4515
  509MOL0     C67075   5.843   2.074   5.897  0.5177  0.9190 -0.6535
  509MOL0     C67076   5.714   2.062   5.824  0.3048 -0.6830 -0.1253
  509MOL0     C67077   5.604   2.145   5.896 -0.8215 -0.4690 -0.6915
  509MOL0     C67078   5.475   2.123   5.819 -0.3375 -1.0812 -0.3677
  509MOL0     C67079   5.355   2.211   5.878 -0.8642  0.6105  0.0636
  509MOL0     O67080   5.239   2.224   5.797 -0.0469  0.2443 -0.1301
  509MOL0     C67081   5.116   2.211   5.860  0.5921 -0.3525  0.6786
  509MOL0     C67082   5.089   2.267   5.985  0.0551 -0.0734  0.1796
  509MOL0     C67083   4.962   2.270   6.038  0.0426 -0.0324  1.0559
  509MOL0     C67084   4.855   2.228   5.960 -0.2449  0.8748  0.1476
  509MOL0     C67085   4.714   2.244   6.007  0.4724  0.7974  0.4863
  509MOL0     O67086   4.620   2.186   5.930 -0.0082 -0.5434  0.4846
  509MOL0     C67087   4.488   2.217   5.955 -0.3520  0.3387  0.1776
  509MOL0     C67088   4.434   2.336   5.906  1.3743  0.0292 -0.6671
  509MOL0     C67089   4.302   2.373   5.926  0.2662  0.6778 -0.1908
  509MOL0     C67090   4.213   2.294   5.988 -0.6341  0.0606 -0.5877
  509MOL0     O67091   4.099   2.351   6.011  0.6194  0.0855  0.3228
  509MOL0     C67092   3.987   2.259   5.996  0.2415  0.2449 -0.6825
  509MOL0     C67093   3.862   2.345   6.014  0.8220  0.0295 -0.0566
  509MOL0     C67094   3.749   2.257   6.058 -0.4164  0.1154 -0.4295
  509MOL0     C67095   3.614   2.324   6.082 -0.3267 -0.2037 -0.1076
  509MOL0     C67096   3.510   2.220   6.073  0.5541  0.7812 -0.5967
  509MOL0     C67097   3.370   2.284   6.094 -0.6122 -0.3566  0.3290
  509MOL0     C67098   3.354   2.394   6.203  0.3463  1.0239 -0.1643
  509MOL0     C67099   3.215   2.431   6.239 -0.4946  0.2406  0.9866
  509MOL0    Cl67100   3.138   2.277   6.282  0.9118 -0.3087  0.0058
  509MOL0     C67101   4.265   2.178   6.049  0.0523 -0.3795  0.3400
  509MOL0     C67102   4.399   2.134   6.024  0.1164 -0.1300 -0.3516
  509MOL0     O67103   4.699   2.274   6.123  0.4212  0.2787 -0.1146
  509MOL0     C67104   4.882   2.156   5.836  0.8784  0.1813 -0.7488
  509MOL0     C67105   5.014   2.152   5.789  0.8027  1.0665  0.2535
  509MOL0     N67106   5.899   2.182   5.960  0.0215  0.2171  0.6830
  509MOL0     N67107   6.023   2.157   5.985  0.4882 -0.1666 -0.4949
  509MOL0     C67108   7.147   1.631   5.970  0.1819  1.0173  0.5000
  509MOL0     C67109   7.262   1.603   6.055  0.1616 -0.0050  1.1808
  509MOL0     C67110   7.690   1.556   6.189  0.4159 -0.9872 -0.4248
  509MOL0     C67111   7.799   1.481   6.139 -0.5449  0.2565  0.8300
  509MOL0     C67112   7.900   1.455   6.241  0.5166  0.1643  0.0243
  509MOL0     C67113   7.896   1.506   6.373 -0.2150  0.5489  0.1206
  509MOL0     O67114   7.988   1.491   6.469  0.5842  0.0184  0.3913
  509MOL0     C67115   8.122   1.466   6.434 -0.1581  0.5239  0.3441
  509MOL0     C67116   8.159   1.313   6.419  0.0314  0.3438 -0.6545
  509MOL0     C67117   8.081   1.236   6.521 -0.4898 -0.9455  0.1883
  509MOL0     C67118   8.146   1.256   6.664 -0.2319  0.2341 -0.0329
  509MOL0     C67119   8.137   1.137   6.743  0.5700  0.1494  0.2291
  509MOL0     C67120   8.138   1.033   6.807 -0.5224  0.2208 -0.5724
  509MOL0     C67121   7.785   1.573   6.416  0.2056  0.2308 -0.2940
  509MOL0     C67122   7.686   1.601   6.323  0.6672  0.3961 -0.9989
  509MOL0     H67123   7.452   1.875   5.994  0.0994  0.2334  3.8242
  509MOL0     H67124   7.243   1.929   5.853  0.9025  0.3025 -0.8349
  509MOL0     H67125   6.873   1.840   5.977 -0.1444 -0.4053  0.9906
  509MOL0     H67126   6.900   1.674   5.916 -0.6799  1.1601  0.2823
  509MOL0     H67127   6.823   1.762   5.700 -0.8989  1.4104 -1.5394
  509MOL0     H67128   6.812   1.923   5.771 -0.6591  0.9962  1.1071
  509MOL0     H67129   6.658   1.853   5.949  1.6093  2.0648 -1.1673
  509MOL0     H67130   6.656   1.686   5.891 -0.1515 -0.4694  0.1172
  509MOL0     H67131   6.566   1.920   5.733 -1.3027  0.1342  1.6196
  509MOL0     H67132   6.568   1.744   5.677 -1.9520  1.0340 -0.4246
  509MOL0     H67133   6.413   1.843   5.918 -1.9904  3.5227 -1.3214
  509MOL0     H67134   6.400   1.685   5.837  3.8185  0.2400  4.1381
  509MOL0     H67135   6.263   1.807   5.641  1.0047 -1.5487  0.4705
  509MOL0     H67136   6.323   1.947   5.700 -2.4368  0.6344 -0.9279
  509MOL0     H67137   6.100   1.901   5.748 -2.5834  3.3442  2.7480
  509MOL0     H67138   6.141   1.768   5.871 -0.2447  0.5921 -1.0566
  509MOL0     H67139   6.239   2.050   5.870 -1.1007  0.5804 -0.3074
  509MOL0     H67140   6.222   1.947   6.021  2.0088  1.8501  0.5631
  509MOL0     H67141   5.899   1.873   5.872 -5.3021  0.6580  2.3241
  509MOL0     H67142   5.685   1.959   5.799 -3.8053  0.3774 -0.5051
  509MOL0     H67143   5.719   2.111   5.727  0.4280  0.4633  0.4344
  509MOL0     H67144   5.627   2.250   5.916  2.9874 -1.6421  2.4362
  509MOL0     H67145   5.603   2.103   5.997 -0.7020 -1.5914 -1.1451
  509MOL0     H67146   5.488   2.152   5.715 -1.6734 -6.0269 -2.2213
  509MOL0     H67147   5.445   2.018   5.823  2.5000 -1.9530  0.8905
  509MOL0     H67148   5.383   2.312   5.911 -0.4832  0.5262  0.0105
  509MOL0     H67149   5.326   2.169   5.975  2.0603  0.2887  0.9058
  509MOL0     H67150   5.168   2.303   6.051 -1.0451 -0.2589  1.6462
  509MOL0     H67151   4.939   2.305   6.138  0.1872  1.0978  0.7141
  509MOL0     H67152   4.501   2.403   5.855 -1.0895  2.2440 -1.2218
  509MOL0     H67153   4.263   2.463   5.879 -2.4914 -1.6099 -2.7058
  509MOL0     H67154   3.990   2.174   6.064  0.5544  0.9680  0.2335
  509MOL0     H67155   3.982   2.221   5.893 -3.6493  0.6180 -0.7976
  509MOL0     H67156   3.834   2.388   5.917 -1.2153 -3.6824 -1.3009
  509MOL0     H67157   3.886   2.424   6.087  0.3159 -1.7091  2.0910
  509MOL0     H67158   3.768   2.233   6.163 -1.9466 -2.8611 -0.7421
  509MOL0     H67159   3.751   2.167   5.997  3.4521  0.6082 -1.3366
  509MOL0     H67160   3.617   2.387   6.171 -2.4222  0.4039 -0.4372
  509MOL0     H67161   3.588   2.381   5.993 -1.0545 -2.2603 -1.2880
  509MOL0     H67162   3.538   2.145   6.148 -1.7560 -2.3777 -2.6550
  509MOL0     H67163   3.513   2.160   5.982 -1.2132 -2.0744  1.0542
  509MOL0     H67164   3.305   2.202   6.126 -0.4425 -0.5728  0.1259
  509MOL0     H67165   3.333   2.316   5.997  0.7643 -0.7349 -0.3565
  509MOL0     H67166   3.414   2.367   6.291  2.3255 -4.0621 -2.6883
  509MOL0     H67167   3.403   2.482   6.161 -1.3513  1.3842 -1.5170
  509MOL0     H67168   3.163   2.477   6.154 -0.8444  1.3640  1.7793
  509MOL0     H67169   3.204   2.499   6.323 -3.1704  0.4609  0.5489
  509MOL0     H67170   4.196   2.118   6.107 -1.8645  1.0075 -0.3737
  509MOL0     H67171   4.436   2.038   6.059 -2.4141 -1.1603 -0.2709
  509MOL0     H67172   4.800   2.123   5.773 -1.2894  1.6611  1.1569
  509MOL0     H67173   5.040   2.092   5.703 -1.7597 -1.8401  1.3231
  509MOL0     H67174   7.078   1.553   5.940  1.7425  0.1234 -0.9618
  509MOL0     H67175   7.264   1.503   6.098 -2.4355 -0.7989 -0.3317
  509MOL0     H67176   7.812   1.450   6.036  2.1075  1.8405  0.5917
  509MOL0     H67177   7.985   1.396   6.209  0.9496  1.1782 -0.7148
  509MOL0     H67178   8.177   1.509   6.518  1.7275 -0.6394 -0.2274
  509MOL0     H67179   8.150   1.515   6.340  2.2299 -0.4990  0.4641
  509MOL0     H67180   8.140   1.286   6.315  1.7513 -0.1466 -0.8807
  509MOL0     H67181   8.268   1.322   6.427  0.1240  1.1823 -2.4557
  509MOL0     H67182   8.088   1.130   6.496  2.3119 -1.2207  1.6737
  509MOL0     H67183   7.975   1.262   6.512 -0.2795  0.3537  1.1224
  509MOL0     H67184   8.251   1.287   6.671 -0.3229  0.2667  1.3187
  509MOL0     H67185   8.086   1.332   6.715  0.0696 -0.1825  0.9480
  509MOL0     H67186   8.137   0.943   6.865  1.8714 -0.3645 -1.3229
  509MOL0     H67187   7.779   1.593   6.522 -1.0647 -4.9995  0.8802
  509MOL0     H67188   7.592   1.640   6.361  0.3607 -0.9019 -0.3820
  510MOL0     O67189   9.274   5.450   0.344  0.0715  0.5230 -0.2641
  510MOL0     C67190   9.265   5.330   0.359  0.0952  0.5035 -0.0231
  510MOL0     O67191   9.149   5.258   0.396  0.0801  0.2469  0.3598
  510MOL0     C67192   9.030   5.323   0.390 -0.3923 -0.1714  0.1848
  510MOL0     C67193   8.922   5.271   0.321  0.5566  0.6255 -0.4940
  510MOL0     C67194   8.792   5.323   0.330 -0.3129 -0.5465 -0.2625
  510MOL0     C67195   8.769   5.436   0.410  0.1297 -0.8705  0.2047
  510MOL0     O67196   8.639   5.487   0.415  0.1484  0.4349 -0.0480
  510MOL0     C67197   8.627   5.626   0.452  0.2412 -0.4971  0.6245
  510MOL0     C67198   8.675   5.717   0.341 -0.6541 -0.0935  0.4476
  510MOL0     C67199   8.655   5.656   0.198  0.4578  0.4662 -0.2843
  510MOL0     C67200   8.667   5.766   0.090 -1.0578  0.2043  0.5194
  510MOL0     C67201   8.681   5.695  -0.046  0.1475 -0.1501  0.4854
  510MOL0     C67202   8.559   5.612  -0.103  0.3021  0.3308 -0.3031
  510MOL0     C67203   8.425   5.683  -0.062 -0.6113 -0.3330  0.6057
  510MOL0     C67204   8.305   5.590  -0.121  0.0575  0.1073  0.2132
  510MOL0     N67205   8.303   5.585  -0.266 -0.1722 -1.0922 -0.1011
  510MOL0     C67206   8.243   5.477  -0.333  0.2643  0.0426 -0.3891
  510MOL0     C67207   8.251   5.520  -0.465 -0.3690  0.4094 -0.7719
  510MOL0     C67208   8.169   5.451  -0.559  0.5404  0.7508 -0.6220
  510MOL0     C67209   8.234   5.435  -0.695  0.0290 -0.1163  0.5788
  510MOL0     C67210   8.135   5.368  -0.775  0.2053 -0.0854  1.2273
  510MOL0     C67211   8.108   5.214  -0.739  0.0168  0.4702 -0.0900
  510MOL0     O67212   8.037   5.134  -0.829 -0.1162  0.3351  0.1187
  510MOL0     C67213   7.903   5.160  -0.857 -0.7608 -0.1898 -0.5598
  510MOL0     C67214   7.850   5.112  -0.972  0.7629 -0.3769  0.1088
  510MOL0     C67215   7.720   5.150  -1.011  0.3843 -0.1182 -0.2107
  510MOL0     C67216   7.636   5.231  -0.930 -0.4087 -0.3242  0.0733
  510MOL0     C67217   7.505   5.276  -0.966  0.1235  0.7949  0.9996
  510MOL0     O67218   7.429   5.314  -0.859 -0.1763 -1.0488  0.2806
  510MOL0     C67219   7.301   5.372  -0.867 -0.1780 -0.4267  0.6297
  510MOL0     C67220   7.258   5.470  -0.767 -0.8986 -0.1681 -0.4770
  510MOL0     C67221   7.127   5.524  -0.773 -0.0572  0.1566 -1.1588
  510MOL0     C67222   7.034   5.470  -0.855 -0.1976 -0.1437 -0.6721
  510MOL0     O67223   6.899   5.506  -0.850 -0.7528  0.1035  0.1818
  510MOL0     C67224   6.863   5.609  -0.760  0.6072 -0.3713  0.1469
  510MOL0     C67225   6.732   5.679  -0.790 -0.9262  0.4008 -0.2435
  510MOL0     C67226   6.735   5.746  -0.926  0.3537  0.1951  0.5560
  510MOL0     C67227   6.682   5.650  -1.034  0.1302 -1.0815  0.0525
  510MOL0     C67228   6.736   5.694  -1.176 -0.4007 -0.5858 -0.2986
  510MOL0     C67229   6.679   5.603  -1.288 -0.3454 -0.0285 -0.3174
  510MOL0     C67230   6.696   5.665  -1.431  0.4817 -0.3110 -1.5503
  510MOL0     C67231   6.661   5.571  -1.540 -0.1514  0.5987 -0.3177
  510MOL0    Cl67232   6.681   5.666  -1.685  0.1249  0.2100 -0.0931
  510MOL0     C67233   7.071   5.378  -0.953  0.1172 -0.5479 -0.2122
  510MOL0     C67234   7.208   5.333  -0.962 -0.4132  0.3019 -0.1295
  510MOL0     O67235   7.462   5.252  -1.080 -0.5505  0.5085  0.5081
  510MOL0     C67236   7.689   5.272  -0.806 -1.0026 -0.5591  0.0128
  510MOL0     C67237   7.821   5.239  -0.764  0.0504 -0.4273 -0.7268
  510MOL0     N67238   8.315   5.647  -0.478  0.7057  0.2787 -0.6525
  510MOL0     N67239   8.336   5.688  -0.360  0.5698  0.4654 -0.5257
  510MOL0     C67240   8.876   5.488   0.488 -0.0897 -0.3190 -1.0971
  510MOL0     C67241   9.007   5.435   0.474 -0.3773  0.2880  0.7814
  510MOL0     C67242   9.389   5.251   0.355 -0.5523 -0.0641 -0.7677
  510MOL0     C67243   9.390   5.123   0.404 -0.6409 -0.0679  0.2426
  510MOL0     C67244   9.505   5.046   0.381  0.3570 -0.6521 -0.5041
  510MOL0     C67245   9.618   5.090   0.319  0.0022  1.1464 -0.6467
  510MOL0     O67246   9.714   5.000   0.311  0.1657  0.5096  0.0095
  510MOL0     C67247   9.801   5.001   0.425  0.8661  0.6171  0.5037
  510MOL0     C67248   9.929   5.069   0.390 -0.5142  1.0304 -0.6728
  510MOL0     C67249  10.062   5.006   0.430 -0.5505 -0.1985 -0.5248
  510MOL0     C67250  10.183   5.094   0.377  0.3514  0.0735 -0.5786
  510MOL0     C67251  10.228   5.063   0.240  0.5889 -0.2560 -0.1663
  510MOL0     C67252  10.248   5.029   0.125 -0.2862  1.1111  0.5597
  510MOL0     C67253   9.615   5.212   0.259  0.1322 -0.7284  0.6903
  510MOL0     C67254   9.503   5.292   0.277  0.1098  0.6724  0.5106
  510MOL0     H67255   8.928   5.190   0.249 -0.0497  1.0203 -0.9974
  510MOL0     H67256   8.715   5.284   0.264 -1.0850 -0.8105  0.7655
  510MOL0     H67257   8.659   5.654   0.553 -1.2565  3.9520  0.0941
  510MOL0     H67258   8.518   5.633   0.458 -0.1114 -4.4608  2.1478
  510MOL0     H67259   8.782   5.739   0.347 -0.8460  0.9378  0.3186
  510MOL0     H67260   8.622   5.812   0.347 -1.0706 -0.4138  2.7689
  510MOL0     H67261   8.555   5.612   0.204 -0.6276  2.9097  2.2015
  510MOL0     H67262   8.715   5.567   0.176 -2.0387 -1.4466  0.1593
  510MOL0     H67263   8.593   5.847   0.095 -1.5078 -0.0730 -1.0610
  510MOL0     H67264   8.760   5.820   0.111  0.4086 -2.8496  2.6013
  510MOL0     H67265   8.765   5.626  -0.041 -1.4658 -2.3376 -0.8662
  510MOL0     H67266   8.697   5.767  -0.127  3.0092 -1.5317 -0.3158
  510MOL0     H67267   8.560   5.512  -0.058 -0.0803  0.8018  0.8093
  510MOL0     H67268   8.564   5.611  -0.212  0.5396  1.8238 -0.3209
  510MOL0     H67269   8.410   5.691   0.046  0.3579  1.6655  0.6469
  510MOL0     H67270   8.426   5.783  -0.105 -0.9675 -0.5925 -0.0143
  510MOL0     H67271   8.214   5.641  -0.089  1.8426  2.2316  2.2469
  510MOL0     H67272   8.317   5.490  -0.077  1.8776  0.2184  0.0539
  510MOL0     H67273   8.192   5.397  -0.282 -0.2072  0.0443 -0.8494
  510MOL0     H67274   8.072   5.502  -0.565  0.7816  1.0988 -1.9467
  510MOL0     H67275   8.154   5.350  -0.519  2.2326  1.3484  1.7335
  510MOL0     H67276   8.334   5.391  -0.692 -0.6445 -1.6929  1.0248
  510MOL0     H67277   8.260   5.531  -0.740 -1.1392 -0.2119 -0.3506
  510MOL0     H67278   8.045   5.430  -0.771 -0.1279 -0.0264 -2.9308
  510MOL0     H67279   8.162   5.376  -0.880 -2.6244  0.4026  0.4603
  510MOL0     H67280   8.044   5.198  -0.651  1.0220 -3.6716  0.0789
  510MOL0     H67281   8.203   5.164  -0.725  0.5768  0.9803 -1.8396
  510MOL0     H67282   7.897   5.042  -1.040 -1.5310 -3.2270  1.2281
  510MOL0     H67283   7.685   5.121  -1.109 -2.3045 -3.2319  1.4834
  510MOL0     H67284   7.328   5.520  -0.701  0.9257  0.5312 -2.7986
  510MOL0     H67285   7.097   5.596  -0.698  0.0220 -1.1390  0.1573
  510MOL0     H67286   6.928   5.696  -0.774 -0.1366 -0.2666 -3.8474
  510MOL0     H67287   6.847   5.560  -0.663 -2.9741 -1.4627 -0.8497
  510MOL0     H67288   6.708   5.763  -0.725  0.9339  2.2967 -1.8334
  510MOL0     H67289   6.655   5.603  -0.775  0.8452 -1.1317  1.7654
  510MOL0     H67290   6.836   5.781  -0.948 -0.6012  2.9850  0.2165
  510MOL0     H67291   6.666   5.828  -0.948  0.0329  0.2804  1.8422
  510MOL0     H67292   6.713   5.546  -1.022 -0.0106 -1.4448 -2.2403
  510MOL0     H67293   6.573   5.644  -1.025  0.4001 -4.1293  3.0923
  510MOL0     H67294   6.845   5.695  -1.178 -0.3393  1.3663  1.1736
  510MOL0     H67295   6.705   5.797  -1.197 -2.0340 -0.9077  0.3946
  510MOL0     H67296   6.575   5.583  -1.261 -0.4321  0.2764 -0.4230
  510MOL0     H67297   6.741   5.513  -1.293 -1.3144 -0.6422 -2.3914
  510MOL0     H67298   6.623   5.747  -1.426  0.2329 -0.5816  1.6218
  510MOL0     H67299   6.803   5.684  -1.441  0.7687 -0.7361  0.2769
  510MOL0     H67300   6.554   5.546  -1.536 -0.2642  0.9480 -1.0086
  510MOL0     H67301   6.716   5.476  -1.534  0.2533  0.8323 -0.2836
  510MOL0     H67302   7.009   5.331  -1.029 -1.4731 -3.9519  2.8889
  510MOL0     H67303   7.224   5.256  -1.037 -3.6518  0.1542 -0.8217
  510MOL0     H67304   7.636   5.335  -0.736 -2.7354 -1.4819 -0.4255
  510MOL0     H67305   7.857   5.272  -0.667  0.6616  1.0772 -1.4291
  510MOL0     H67306   8.860   5.582   0.540 -2.2236 -2.3052  2.1972
  510MOL0     H67307   9.084   5.476   0.539  0.2830 -0.6037  0.5838
  510MOL0     H67308   9.307   5.070   0.450 -0.0414 -1.1876  0.0709
  510MOL0     H67309   9.506   4.942   0.413  0.4415  0.5938  4.2532
  510MOL0     H67310   9.820   4.896   0.447  1.8018  0.8157  0.7014
  510MOL0     H67311   9.749   5.047   0.510  2.2758 -0.0283  1.7431
  510MOL0     H67312   9.934   5.071   0.280 -1.7141 -2.9712 -0.9476
  510MOL0     H67313   9.919   5.176   0.410  2.6879  2.0159 -3.3213
  510MOL0     H67314  10.067   4.903   0.392 -0.3614 -0.7182  0.8508
  510MOL0     H67315  10.074   4.993   0.538 -0.3500 -1.3502 -0.6732
  510MOL0     H67316  10.151   5.199   0.375  0.9048  0.4001  2.7705
  510MOL0     H67317  10.276   5.092   0.435  1.5895 -0.7446 -2.4765
  510MOL0     H67318  10.275   4.990   0.029 -2.4130 -1.3512  0.8667
  510MOL0     H67319   9.700   5.239   0.198 -0.8125  0.2900 -0.2151
  510MOL0     H67320   9.511   5.388   0.225 -1.8941  1.2944  1.2578
  511MOL0     O67321   1.587   8.448   4.930 -1.1480  0.4189 -0.3852
  511MOL0     C67322   1.597   8.566   4.967  0.5146 -0.5567  0.7810
  511MOL0     O67323   1.494   8.656   4.968 -0.0657  0.4125 -0.4624
  511MOL0     C67324   1.371   8.606   5.005 -1.1743 -0.1181 -0.1173
  511MOL0     C67325   1.344   8.498   5.087 -0.2829 -0.4563 -0.2237
  511MOL0     C67326   1.213   8.453   5.114 -0.2054  0.5214 -0.7397
  511MOL0     C67327   1.106   8.518   5.063  0.4680 -0.3935 -0.1603
  511MOL0     O67328   0.977   8.496   5.102 -0.0989  0.0612 -0.0582
  511MOL0     C67329   0.939   8.353   5.135  0.8222 -0.0424  0.2690
  511MOL0     C67330   0.805   8.362   5.200 -0.2120 -0.2840  0.0373
  511MOL0     C67331   0.833   8.412   5.343  0.0206  0.9777  1.1794
  511MOL0     C67332   0.694   8.477   5.395 -1.0229 -0.9902 -0.6564
  511MOL0     C67333   0.694   8.474   5.547  1.0910 -1.5158  1.2992
  511MOL0     C67334   0.635   8.347   5.601 -0.3602 -0.7344 -0.1256
  511MOL0     C67335   0.626   8.356   5.751 -0.4036  0.1240 -0.6317
  511MOL0     C67336   0.660   8.222   5.831 -0.9179 -0.0940 -0.9674
  511MOL0     N67337   0.602   8.098   5.789  0.0150  1.0072  0.7877
  511MOL0     C67338   0.471   8.072   5.809  0.6024  0.2998  0.2697
  511MOL0     C67339   0.444   7.966   5.728  0.6073 -1.0466 -0.7150
  511MOL0     C67340   0.310   7.902   5.722  0.0483 -0.2364 -0.4626
  511MOL0     C67341   0.273   7.812   5.839 -0.3369 -0.4356 -0.1605
  511MOL0     C67342   0.132   7.750   5.819 -0.5385 -0.2497  0.9750
  511MOL0     C67343   0.031   7.865   5.817 -0.3367  0.2536 -0.3190
  511MOL0     O67344  -0.102   7.828   5.827 -0.4609 -0.4787  0.3860
  511MOL0     C67345  -0.196   7.924   5.817  0.3821 -0.1695  0.3143
  511MOL0     C67346  -0.166   8.065   5.824  0.8348  0.4494  0.6321
  511MOL0     C67347  -0.278   8.161   5.820 -0.1426 -0.3376 -0.6585
  511MOL0     C67348  -0.413   8.119   5.816 -1.3682  0.1011  0.1295
  511MOL0     C67349  -0.512   8.220   5.824  0.3283  0.4748 -0.5499
  511MOL0     O67350  -0.633   8.175   5.834  0.2383  0.5359  0.8995
  511MOL0     C67351  -0.744   8.258   5.863 -0.1118 -0.8304  0.0433
  511MOL0     C67352  -0.833   8.201   5.953  0.3648  1.0391 -0.3585
  511MOL0     C67353  -0.950   8.278   5.985  0.2980  0.0353  0.2768
  511MOL0     C67354  -0.981   8.404   5.931  0.2859  0.0935  0.4252
  511MOL0     O67355  -1.089   8.480   5.959  0.0664 -0.0792 -0.7512
  511MOL0     C67356  -1.218   8.419   5.937  0.1941 -0.2982  1.3553
  511MOL0     C67357  -1.326   8.524   5.961 -0.9563 -1.1737 -0.6098
  511MOL0     C67358  -1.463   8.493   5.914  0.0696  0.5949  0.1284
  511MOL0     C67359  -1.561   8.604   5.959  0.0934  0.6286  0.4403
  511MOL0     C67360  -1.698   8.588   5.899  0.2196  0.2040  0.1263
  511MOL0     C67361  -1.793   8.695   5.961 -0.0438 -0.3572  0.1773
  511MOL0     C67362  -1.935   8.690   5.914  0.4924 -0.6266 -0.0938
  511MOL0     C67363  -2.012   8.816   5.952 -0.5985  0.2297  0.8994
  511MOL0    Cl67364  -2.183   8.785   5.968 -0.3395  0.0136 -0.1501
  511MOL0     C67365  -0.888   8.460   5.840  0.3500  0.3162 -0.0474
  511MOL0     C67366  -0.772   8.383   5.805  0.3413  0.1762 -0.0159
  511MOL0     O67367  -0.473   8.341   5.828  0.2017  0.8177  0.3355
  511MOL0     C67368  -0.436   7.979   5.816  1.1614 -0.7310  0.7895
  511MOL0     C67369  -0.330   7.892   5.808  0.3217  0.2120  0.1188
  511MOL0     N67370   0.564   7.939   5.655  0.0267 -0.8631 -0.3110
  511MOL0     N67371   0.658   8.013   5.696  0.8337  0.0602 -0.4488
  511MOL0     C67372   1.130   8.634   4.988 -0.2575 -0.5459  0.1738
  511MOL0     C67373   1.260   8.680   4.960  0.4821  0.0481 -0.5282
  511MOL0     C67374   1.733   8.625   4.977 -0.8122  0.1499  0.2016
  511MOL0     C67375   1.745   8.761   5.031  0.6301  0.6517  0.0749
  511MOL0     C67376   1.867   8.828   5.041 -0.1250  0.5079  1.2472
  511MOL0     C67377   1.984   8.755   5.006  0.5058 -0.2736  0.2540
  511MOL0     O67378   2.105   8.813   4.985  0.0275  0.2886 -0.5972
  511MOL0     C67379   2.116   8.954   4.963  0.1728  0.5837  0.2536
  511MOL0     C67380   2.236   9.008   4.888 -0.2632  0.7757  0.0400
  511MOL0     C67381   2.203   9.138   4.826 -0.0456 -0.6562 -0.7152
  511MOL0     C67382   2.179   9.245   4.931  0.2771 -0.1972  0.3647
  511MOL0     C67383   2.180   9.383   4.884  0.2656 -0.0488 -0.8053
  511MOL0     C67384   2.164   9.497   4.840 -0.6525 -0.1681  0.8198
  511MOL0     C67385   1.973   8.622   4.951  0.6961 -0.2803 -0.6797
  511MOL0     C67386   1.846   8.556   4.928 -0.3688 -0.3190 -0.2010
  511MOL0     H67387   1.428   8.449   5.136 -0.4400 -1.2994 -0.7805
  511MOL0     H67388   1.212   8.371   5.185 -4.2837  0.7626 -0.3008
  511MOL0     H67389   1.010   8.302   5.201  3.1168  0.8969 -1.3533
  511MOL0     H67390   0.928   8.291   5.046 -0.4658  3.3287 -2.0975
  511MOL0     H67391   0.738   8.275   5.201 -1.8201  0.9169  1.0121
  511MOL0     H67392   0.749   8.433   5.139 -0.8987 -1.9440 -1.3583
  511MOL0     H67393   0.906   8.494   5.347 -0.2377  1.2006  1.3593
  511MOL0     H67394   0.867   8.323   5.397  4.3879  2.4484  1.2722
  511MOL0     H67395   0.682   8.579   5.358 -0.4581 -0.7079 -0.0779
  511MOL0     H67396   0.613   8.417   5.351  0.4061 -1.7978 -2.2844
  511MOL0     H67397   0.633   8.557   5.581  0.4466 -0.8345 -1.2782
  511MOL0     H67398   0.794   8.495   5.587  0.3440  1.7299  1.7435
  511MOL0     H67399   0.697   8.263   5.569 -1.0327 -0.8210 -1.2747
  511MOL0     H67400   0.540   8.324   5.551  0.1740 -1.4989 -0.8106
  511MOL0     H67401   0.697   8.433   5.781  0.0722  0.2886 -2.1000
  511MOL0     H67402   0.526   8.391   5.779 -0.3993 -0.1675 -0.2367
  511MOL0     H67403   0.640   8.243   5.937  1.5049 -0.8816 -0.2865
  511MOL0     H67404   0.769   8.214   5.832 -0.9941 -2.5627  1.6984
  511MOL0     H67405   0.409   8.135   5.871  0.9398  0.7781  0.1279
  511MOL0     H67406   0.311   7.838   5.634  0.7583  1.1101 -1.4750
  511MOL0     H67407   0.241   7.987   5.713 -0.7104 -0.6252  1.2473
  511MOL0     H67408   0.272   7.871   5.932  1.3551 -0.7495  0.0825
  511MOL0     H67409   0.355   7.746   5.866  0.7507  2.0095  3.2566
  511MOL0     H67410   0.143   7.706   5.719  0.6849  0.2115  0.8938
  511MOL0     H67411   0.103   7.671   5.889  0.9580 -2.0325 -0.3017
  511MOL0     H67412   0.029   7.920   5.722 -2.4105 -0.4080 -0.7048
  511MOL0     H67413   0.052   7.933   5.900 -0.9449  0.0619 -0.0020
  511MOL0     H67414  -0.067   8.108   5.823  0.2509  1.9524 -1.5889
  511MOL0     H67415  -0.257   8.267   5.830 -1.9760  0.0901 -1.0519
  511MOL0     H67416  -0.806   8.114   6.012 -0.0548  0.0288 -1.6146
  511MOL0     H67417  -1.016   8.236   6.060  2.3103 -1.9102  1.0667
  511MOL0     H67418  -1.227   8.336   6.008  0.0904  0.7861  2.6479
  511MOL0     H67419  -1.223   8.388   5.833  1.0809  1.5444  0.7225
  511MOL0     H67420  -1.296   8.618   5.913  0.2121 -0.8969  0.6045
  511MOL0     H67421  -1.326   8.561   6.064  0.8236  0.8183 -1.2492
  511MOL0     H67422  -1.505   8.397   5.948  1.8989 -0.8078 -1.3591
  511MOL0     H67423  -1.463   8.491   5.804  1.7156 -1.7684  0.0995
  511MOL0     H67424  -1.567   8.582   6.066 -1.5466 -1.4241  0.0071
  511MOL0     H67425  -1.514   8.701   5.941  0.9663  0.1416 -0.0006
  511MOL0     H67426  -1.735   8.490   5.930  1.2758  0.2087  1.5049
  511MOL0     H67427  -1.701   8.596   5.790 -1.6604  1.0771  0.2111
  511MOL0     H67428  -1.761   8.799   5.955 -0.6402 -0.2807 -2.9509
  511MOL0     H67429  -1.796   8.673   6.069  2.0535  4.6651  1.5331
  511MOL0     H67430  -1.942   8.674   5.806  0.0649 -1.7874  0.0950
  511MOL0     H67431  -1.981   8.602   5.959 -2.0592 -0.0756 -1.4419
  511MOL0     H67432  -1.994   8.892   5.875  0.5797  0.1427  1.0697
  511MOL0     H67433  -1.978   8.854   6.048  2.2823  4.1738 -1.3500
  511MOL0     H67434  -0.898   8.561   5.801 -0.1985 -0.2508 -1.4308
  511MOL0     H67435  -0.709   8.415   5.723  2.5545 -0.8118  1.2120
  511MOL0     H67436  -0.537   7.939   5.810  0.7780  0.2108  0.8040
  511MOL0     H67437  -0.358   7.788   5.799 -1.8195  0.8451 -1.5410
  511MOL0     H67438   1.038   8.691   4.975 -0.3328 -0.5897  0.5083
  511MOL0     H67439   1.279   8.779   4.919 -1.6457  0.4880 -0.5759
  511MOL0     H67440   1.660   8.826   5.047  1.0330  1.2362 -0.1340
  511MOL0     H67441   1.859   8.932   5.071 -4.7407  0.6404  0.2339
  511MOL0     H67442   2.110   9.006   5.059  1.1762  0.4972  0.3823
  511MOL0     H67443   2.023   8.987   4.918 -0.8897 -0.7431  1.3769
  511MOL0     H67444   2.330   9.008   4.943  0.0708 -0.6304 -0.4693
  511MOL0     H67445   2.263   8.944   4.802  1.1613  2.6368 -0.9762
  511MOL0     H67446   2.109   9.133   4.771 -2.6678 -0.8079  3.2888
  511MOL0     H67447   2.284   9.164   4.757 -0.4504 -1.0997 -1.3653
  511MOL0     H67448   2.077   9.231   4.968 -0.9845  0.9642 -2.3883
  511MOL0     H67449   2.249   9.232   5.014 -1.0233 -0.2902  1.4809
  511MOL0     H67450   2.169   9.591   4.789  0.8905 -1.2303 -1.1418
  511MOL0     H67451   2.057   8.562   4.917  1.2420 -1.3657  2.2641
  511MOL0     H67452   1.837   8.452   4.899  1.8567 -0.9311  1.0072
  512MOL0     O67453   9.840   0.418   6.747  0.1295 -1.0664  0.9941
  512MOL0     C67454   9.766   0.510   6.784  0.3014 -0.5363 -0.6664
  512MOL0     O67455   9.807   0.641   6.826  0.0877  0.7205 -0.2205
  512MOL0     C67456   9.938   0.673   6.820  0.0494  0.1207 -0.5314
  512MOL0     C67457  10.014   0.655   6.705  0.3950  0.3874  0.2772
  512MOL0     C67458  10.146   0.702   6.704 -0.5360  0.2139  0.3784
  512MOL0     C67459  10.195   0.768   6.809 -0.5959 -0.4946 -0.3454
  512MOL0     O67460  10.319   0.827   6.790  0.3872  0.3874  0.0393
  512MOL0     C67461  10.415   0.798   6.889 -0.0779  0.2788  0.7015
  512MOL0     C67462  10.537   0.732   6.828 -0.9136 -0.5581  0.5208
  512MOL0     C67463  10.643   0.839   6.807 -0.2970 -0.3965  0.5136
  512MOL0     C67464  10.769   0.777   6.740  0.6671 -0.9016  0.1074
  512MOL0     C67465  10.750   0.739   6.593 -0.3255 -0.3108  0.0817
  512MOL0     C67466  10.738   0.852   6.495  0.4856 -0.4548  0.5267
  512MOL0     C67467  10.691   0.789   6.355 -0.5822 -0.1566 -0.0325
  512MOL0     C67468  10.655   0.916   6.265 -0.4357 -0.3157 -0.3231
  512MOL0     N67469  10.576   0.888   6.150  0.0349  0.3630 -0.5996
  512MOL0     C67470  10.435   0.895   6.150 -0.5021 -0.2300 -0.2195
  512MOL0     C67471  10.410   0.828   6.029 -0.4176  0.1565 -0.1267
  512MOL0     C67472  10.271   0.803   5.979  0.4943  1.3407 -0.8907
  512MOL0     C67473  10.249   0.847   5.839  0.0712  0.1036  0.0660
  512MOL0     C67474  10.263   1.000   5.829 -0.3584 -0.5038 -0.2585
  512MOL0     C67475  10.172   1.089   5.919 -0.5934  0.5876  0.5555
  512MOL0     O67476  10.034   1.043   5.914  0.2659  0.4566  0.0112
  512MOL0     C67477   9.931   1.085   5.991 -0.4307 -0.0588 -0.4368
  512MOL0     C67478   9.951   1.188   6.082  0.5005 -0.8001 -0.7175
  512MOL0     C67479   9.846   1.245   6.153  0.5881  0.2601  0.9390
  512MOL0     C67480   9.717   1.194   6.130  0.5509 -0.2594 -0.7702
  512MOL0     C67481   9.597   1.249   6.189 -0.9961 -0.5150 -1.4076
  512MOL0     O67482   9.484   1.172   6.197 -0.2470 -0.1497  0.0968
  512MOL0     C67483   9.368   1.227   6.251 -0.1735  0.1499  0.0264
  512MOL0     C67484   9.301   1.145   6.340  0.4052  0.1688  0.5083
  512MOL0     C67485   9.174   1.181   6.391 -0.4233 -0.5640  0.5674
  512MOL0     C67486   9.110   1.296   6.345  0.3273  0.0093 -0.5507
  512MOL0     O67487   8.974   1.322   6.364 -0.8966 -0.5623 -0.2428
  512MOL0     C67488   8.892   1.231   6.450  0.3052  0.5090  0.3199
  512MOL0     C67489   8.737   1.265   6.425 -0.1357 -0.2853  0.0773
  512MOL0     C67490   8.697   1.412   6.440 -0.1382 -0.4119 -0.3075
  512MOL0     C67491   8.547   1.443   6.440  0.1996  0.4015  0.7947
  512MOL0     C67492   8.521   1.588   6.472  0.4094  0.0890  0.1782
  512MOL0     C67493   8.576   1.698   6.377 -0.3642  0.0276  1.3677
  512MOL0     C67494   8.526   1.834   6.422  0.4759 -0.4991 -0.3316
  512MOL0     C67495   8.582   1.948   6.336 -0.1769 -0.4405 -0.7576
  512MOL0    Cl67496   8.505   2.105   6.394  0.0359 -0.3596  0.2498
  512MOL0     C67497   9.192   1.387   6.276  0.6959  0.2820  0.1591
  512MOL0     C67498   9.318   1.348   6.223  0.9014 -0.6059 -0.4285
  512MOL0     O67499   9.608   1.366   6.227 -0.3204 -0.1863  0.3468
  512MOL0     C67500   9.699   1.098   6.034  0.0985 -0.2291  0.5136
  512MOL0     C67501   9.802   1.043   5.956  0.4888 -1.2454 -0.8060
  512MOL0     N67502  10.523   0.806   5.963  0.1073 -0.6687 -0.6207
  512MOL0     N67503  10.624   0.835   6.034 -0.0118  0.5901 -0.1897
  512MOL0     C67504  10.129   0.788   6.928  0.2451 -0.7698 -0.6823
  512MOL0     C67505   9.994   0.747   6.923  0.1056  0.2087  0.0219
  512MOL0     C67506   9.623   0.478   6.808  1.0690 -0.0755 -0.5643
  512MOL0     C67507   9.539   0.570   6.870 -0.5485  0.2150 -0.4887
  512MOL0     C67508   9.401   0.533   6.884 -0.6667 -0.0979 -0.6253
  512MOL0     C67509   9.344   0.410   6.841 -0.3958  0.1504 -0.4417
  512MOL0     O67510   9.206   0.403   6.848 -0.5978 -0.2967 -0.6187
  512MOL0     C67511   9.152   0.274   6.804 -0.7786 -0.3308  0.5585
  512MOL0     C67512   9.003   0.283   6.802 -0.1987 -0.3858  0.3867
  512MOL0     C67513   8.939   0.312   6.661 -0.1449  0.3744  0.0818
  512MOL0     C67514   8.942   0.461   6.623 -0.1253  0.0771  0.1024
  512MOL0     C67515   8.860   0.543   6.710 -0.1099 -0.2898  0.2555
  512MOL0     C67516   8.792   0.616   6.782  0.1095  0.5850  0.3197
  512MOL0     C67517   9.435   0.321   6.778 -0.1670  0.1558 -0.4245
  512MOL0     C67518   9.569   0.356   6.762 -0.2848  0.8465  0.2312
  512MOL0     H67519   9.976   0.597   6.622  2.0157 -0.4344  0.0566
  512MOL0     H67520  10.207   0.689   6.616  0.0417  0.4922  0.7312
  512MOL0     H67521  10.382   0.720   6.957 -0.7895  0.5344  0.6533
  512MOL0     H67522  10.436   0.888   6.948  0.0286  2.1435 -1.9721
  512MOL0     H67523  10.500   0.699   6.730  0.6817 -1.4274  0.1806
  512MOL0     H67524  10.584   0.644   6.873  1.0668  0.0777 -0.1677
  512MOL0     H67525  10.668   0.896   6.897 -3.9777  5.3507 -1.5291
  512MOL0     H67526  10.603   0.912   6.736 -0.0331 -0.6393  0.1123
  512MOL0     H67527  10.853   0.845   6.756  0.1029 -0.0358 -0.5209
  512MOL0     H67528  10.795   0.684   6.791  2.4721 -0.1671  0.5988
  512MOL0     H67529  10.655   0.687   6.589 -0.1344 -0.6489 -0.0799
  512MOL0     H67530  10.833   0.676   6.560 -0.8167 -0.8557 -0.1229
  512MOL0     H67531  10.834   0.899   6.474  0.3596  0.0833  1.1002
  512MOL0     H67532  10.668   0.928   6.531  0.2047 -1.1446  1.4743
  512MOL0     H67533  10.771   0.724   6.318 -2.1351 -1.0940 -1.9368
  512MOL0     H67534  10.601   0.730   6.375 -1.7818  1.2674 -0.9532
  512MOL0     H67535  10.750   0.957   6.232  0.1329 -4.2878 -4.5410
  512MOL0     H67536  10.598   0.987   6.327  0.2667  1.5706 -1.7547
  512MOL0     H67537  10.357   0.936   6.212 -0.0050  0.0260  0.2471
  512MOL0     H67538  10.194   0.846   6.044 -0.3364 -0.6061 -0.5160
  512MOL0     H67539  10.267   0.694   5.991  2.3835  1.1385 -1.7024
  512MOL0     H67540  10.158   0.805   5.797  0.1506 -1.3329  1.2638
  512MOL0     H67541  10.331   0.804   5.780  3.0730  3.9502  0.9987
  512MOL0     H67542  10.367   1.025   5.852 -0.3336  0.5533 -1.4086
  512MOL0     H67543  10.243   1.029   5.725  2.6113 -1.0159 -1.0714
  512MOL0     H67544  10.178   1.186   5.868  1.4779 -1.1011 -2.7795
  512MOL0     H67545  10.215   1.090   6.020 -0.6281 -2.9106  0.7143
  512MOL0     H67546  10.050   1.230   6.094 -0.1076  0.6804 -0.5991
  512MOL0     H67547   9.858   1.335   6.213  1.0431 -0.7120  2.3803
  512MOL0     H67548   9.333   1.043   6.361 -2.4063 -0.8142  0.4388
  512MOL0     H67549   9.121   1.107   6.450 -0.9283 -1.1575 -0.5942
  512MOL0     H67550   8.927   1.230   6.553  1.8557 -0.6647 -0.1785
  512MOL0     H67551   8.916   1.131   6.414 -3.5432 -1.9641  3.7478
  512MOL0     H67552   8.675   1.205   6.492 -2.1046  0.5641 -0.9194
  512MOL0     H67553   8.708   1.245   6.321  2.1832 -0.0121 -0.6804
  512MOL0     H67554   8.758   1.464   6.365  0.4131 -3.5400 -2.1689
  512MOL0     H67555   8.740   1.443   6.536  2.0690 -0.0383 -1.3355
  512MOL0     H67556   8.507   1.413   6.342 -0.4488 -0.3946  1.2926
  512MOL0     H67557   8.496   1.376   6.509  0.5473 -0.6545  0.0432
  512MOL0     H67558   8.571   1.620   6.565  1.7194 -0.6531 -0.2506
  512MOL0     H67559   8.417   1.619   6.488  1.3654  2.6999  2.3016
  512MOL0     H67560   8.558   1.693   6.270  0.0068  0.3459  1.2848
  512MOL0     H67561   8.685   1.693   6.387 -0.1872  1.3160  0.3052
  512MOL0     H67562   8.418   1.825   6.414  0.6596 -3.6786 -0.3829
  512MOL0     H67563   8.554   1.850   6.527 -2.3078  0.9071  0.2756
  512MOL0     H67564   8.563   1.935   6.229  1.7577 -1.8593 -0.9756
  512MOL0     H67565   8.691   1.941   6.343  0.0813 -2.4058 -4.2433
  512MOL0     H67566   9.157   1.488   6.256  0.6558  0.1560 -0.4357
  512MOL0     H67567   9.374   1.423   6.168  1.5078  0.3463  1.3919
  512MOL0     H67568   9.599   1.067   6.007  0.1193  2.7814 -4.2817
  512MOL0     H67569   9.773   0.973   5.878  0.1997 -0.3085 -1.5680
  512MOL0     H67570  10.172   0.848   7.007  0.3434  0.5006 -1.6755
  512MOL0     H67571   9.921   0.758   7.003  1.3976 -0.2962  1.3123
  512MOL0     H67572   9.580   0.661   6.912  1.9032 -0.9829 -0.1427
  512MOL0     H67573   9.332   0.610   6.917  1.9406  1.5796  1.3813
  512MOL0     H67574   9.178   0.198   6.877 -2.9094  0.4119  2.1979
  512MOL0     H67575   9.179   0.249   6.701 -1.1363  0.2846  0.3080
  512MOL0     H67576   8.958   0.188   6.832 -1.6123  0.9324  2.7481
  512MOL0     H67577   8.966   0.351   6.879 -2.1294 -2.2618  1.2177
  512MOL0     H67578   8.842   0.261   6.651  0.7838 -1.5537  0.3538
  512MOL0     H67579   9.008   0.265   6.590  0.5318 -0.6876  1.3908
  512MOL0     H67580   9.043   0.502   6.618  0.2151 -0.7168  0.3675
  512MOL0     H67581   8.893   0.479   6.526 -0.1008  0.1356  0.1009
  512MOL0     H67582   8.753   0.680   6.858  0.5239  2.7649 -1.2138
  512MOL0     H67583   9.403   0.224   6.742  1.7992 -0.0094 -1.8607
  512MOL0     H67584   9.632   0.282   6.713  1.3838  1.6293  1.1230
  513MOL0     O67585   4.208   4.216   7.525 -0.2088  0.0245  0.7807
  513MOL0     C67586   4.310   4.170   7.584  0.3785  0.3611 -0.6731
  513MOL0     O67587   4.398   4.236   7.655 -0.5346  0.0881 -0.1864
  513MOL0     C67588   4.396   4.374   7.643  0.7148  0.2765 -0.0646
  513MOL0     C67589   4.286   4.444   7.680 -0.1690 -0.5155  0.2709
  513MOL0     C67590   4.283   4.585   7.673 -0.1707  0.2659 -1.0237
  513MOL0     C67591   4.396   4.650   7.628 -1.7380  0.4395 -0.3956
  513MOL0     O67592   4.402   4.791   7.630  0.3420  0.5479 -0.3932
  513MOL0     C67593   4.462   4.851   7.513 -0.0770 -0.2734  0.7391
  513MOL0     C67594   4.381   4.977   7.470  0.4295  0.3878 -0.5240
  513MOL0     C67595   4.228   4.956   7.503  0.5820 -0.4571 -0.1026
  513MOL0     C67596   4.155   5.085   7.454 -0.1292  0.0468 -0.2529
  513MOL0     C67597   3.999   5.059   7.450 -0.1302 -0.4627 -0.4693
  513MOL0     C67598   3.900   5.178   7.446  0.4275 -0.6984 -0.2088
  513MOL0     C67599   3.952   5.305   7.370 -0.1722  0.0509 -0.4654
  513MOL0     C67600   3.839   5.392   7.316  0.0835 -0.4349  0.7234
  513MOL0     N67601   3.767   5.436   7.436 -1.1796 -0.4515  0.6305
  513MOL0     C67602   3.661   5.376   7.492  1.2625 -1.2359  0.4176
  513MOL0     C67603   3.618   5.454   7.597 -0.3942 -0.3107 -0.3083
  513MOL0     C67604   3.533   5.437   7.721  0.7088  0.9229 -0.4721
  513MOL0     C67605   3.398   5.479   7.678 -0.2254  0.3407  0.2485
  513MOL0     C67606   3.310   5.503   7.801  0.0010  0.1403  0.4899
  513MOL0     C67607   3.160   5.512   7.777  0.9505  0.0919 -0.6277
  513MOL0     O67608   3.138   5.583   7.662  0.3074 -0.2160 -0.6925
  513MOL0     C67609   3.003   5.602   7.643 -0.5558  0.2174  0.9306
  513MOL0     C67610   2.898   5.552   7.724 -1.3164 -0.9264  0.7268
  513MOL0     C67611   2.766   5.588   7.687 -0.4213  0.3625  0.2571
  513MOL0     C67612   2.740   5.653   7.570 -0.2900  0.8324  0.1621
  513MOL0     C67613   2.605   5.698   7.535  0.8540 -0.7961  0.8143
  513MOL0     O67614   2.510   5.716   7.631 -0.2453  0.0475  0.0220
  513MOL0     C67615   2.381   5.753   7.594 -0.8342  0.2825  1.0295
  513MOL0     C67616   2.303   5.688   7.496 -0.2828 -0.3942  0.1581
  513MOL0     C67617   2.168   5.713   7.481  0.1205  0.1097  0.6836
  513MOL0     C67618   2.103   5.801   7.567  0.3056 -0.0283  0.0269
  513MOL0     O67619   1.969   5.798   7.585 -0.0276 -0.1977 -0.1103
  513MOL0     C67620   1.900   5.686   7.526  0.0558  0.3097  0.0432
  513MOL0     C67621   1.758   5.680   7.570 -0.3198  0.6124  0.2663
  513MOL0     C67622   1.675   5.576   7.479  0.0685  0.6728  0.2408
  513MOL0     C67623   1.528   5.601   7.511  0.0636 -0.5699  0.0783
  513MOL0     C67624   1.441   5.523   7.429 -0.4495  0.8177 -0.9759
  513MOL0     C67625   1.429   5.550   7.274 -0.0087  0.5582 -0.4948
  513MOL0     C67626   1.334   5.456   7.205 -0.4950 -0.2687  0.7523
  513MOL0     C67627   1.257   5.528   7.097  0.1698  0.6771 -1.0582
  513MOL0    Cl67628   1.126   5.634   7.166  0.6107 -0.2612  0.3829
  513MOL0     C67629   2.186   5.878   7.647  0.1869 -0.3201  0.3313
  513MOL0     C67630   2.325   5.848   7.670  0.2167  0.2521  0.3113
  513MOL0     O67631   2.593   5.726   7.414  0.5253  0.7607  0.0170
  513MOL0     C67632   2.848   5.700   7.491  0.2620 -0.1622 -0.6733
  513MOL0     C67633   2.974   5.676   7.532  0.1288  0.0424 -0.7795
  513MOL0     N67634   3.707   5.568   7.598  0.6393  0.7453  0.7294
  513MOL0     N67635   3.795   5.549   7.500  0.5235 -0.1052  0.4453
  513MOL0     C67636   4.513   4.580   7.601 -0.5092 -0.3540 -0.8613
  513MOL0     C67637   4.511   4.436   7.609  0.2472 -1.0682 -0.9640
  513MOL0     C67638   4.340   4.027   7.577  0.2386  0.6295  0.3581
  513MOL0     C67639   4.473   3.984   7.584 -0.8983  0.3204 -0.2349
  513MOL0     C67640   4.498   3.848   7.574  0.1660  0.8478  1.7696
  513MOL0     C67641   4.389   3.759   7.563  0.0566 -0.4678 -0.1117
  513MOL0     O67642   4.396   3.620   7.568  0.0611 -0.7411 -0.0811
  513MOL0     C67643   4.523   3.554   7.600  0.2181 -0.1391 -1.2198
  513MOL0     C67644   4.584   3.495   7.470  0.0553  0.1876 -0.1009
  513MOL0     C67645   4.477   3.423   7.383 -0.4477 -0.2795 -0.1640
  513MOL0     C67646   4.529   3.376   7.245 -0.4705  0.1866  1.0172
  513MOL0     C67647   4.414   3.350   7.153  0.4300  0.8077 -0.3317
  513MOL0     C67648   4.312   3.323   7.095  0.4313 -0.5511 -0.3607
  513MOL0     C67649   4.260   3.803   7.565  0.0448 -0.1547  0.1870
  513MOL0     C67650   4.231   3.938   7.576  0.9295 -0.7878 -0.2878
  513MOL0     H67651   4.199   4.385   7.705  0.1750 -0.4805  1.6056
  513MOL0     H67652   4.193   4.642   7.691 -0.8025 -0.7007 -1.0743
  513MOL0     H67653   4.456   4.782   7.427 -0.5039 -0.1117  0.6377
  513MOL0     H67654   4.566   4.876   7.535 -0.5687  1.1980  1.4470
  513MOL0     H67655   4.394   4.993   7.363 -0.2043 -0.8390 -0.8025
  513MOL0     H67656   4.419   5.073   7.506  0.7528 -0.9511  3.1771
  513MOL0     H67657   4.221   4.953   7.612  1.4460 -2.3286 -0.0604
  513MOL0     H67658   4.185   4.865   7.459 -3.0208  0.7581  0.5433
  513MOL0     H67659   4.178   5.166   7.524  1.3614  0.2242 -0.9281
  513MOL0     H67660   4.184   5.117   7.353  3.1907  1.0700  0.9107
  513MOL0     H67661   3.973   4.989   7.530 -0.7517 -2.0438 -2.0188
  513MOL0     H67662   3.961   5.001   7.366  0.7373 -0.3756 -0.9312
  513MOL0     H67663   3.877   5.223   7.543 -1.0390  0.4235 -1.0323
  513MOL0     H67664   3.805   5.147   7.401 -0.2845  1.1348 -0.0592
  513MOL0     H67665   4.023   5.351   7.439 -2.9062  0.8275  2.0380
  513MOL0     H67666   4.004   5.261   7.284 -0.4052 -1.4675  0.1257
  513MOL0     H67667   3.774   5.319   7.266 -0.5228 -0.8949  2.1330
  513MOL0     H67668   3.875   5.463   7.241 -1.0283 -0.3859  0.2035
  513MOL0     H67669   3.605   5.287   7.467  0.0683 -0.1107 -1.1362
  513MOL0     H67670   3.571   5.508   7.795  0.9764  0.2246  0.0690
  513MOL0     H67671   3.543   5.333   7.754  1.3094  0.0175 -3.2703
  513MOL0     H67672   3.349   5.399   7.621 -0.7551 -1.6163  3.2060
  513MOL0     H67673   3.395   5.564   7.609 -1.1424 -0.8090 -1.1821
  513MOL0     H67674   3.335   5.433   7.882  0.0202 -0.5433 -0.1010
  513MOL0     H67675   3.334   5.602   7.840 -2.7224  0.3644  1.8955
  513MOL0     H67676   3.114   5.560   7.864  1.0645  3.0882 -2.0907
  513MOL0     H67677   3.112   5.415   7.761  0.0579  0.0373  1.9454
  513MOL0     H67678   2.928   5.496   7.811  2.1111 -0.2525  0.1143
  513MOL0     H67679   2.682   5.550   7.744 -0.6407  1.5565  0.7527
  513MOL0     H67680   2.344   5.616   7.425 -1.7147 -0.0692 -1.0665
  513MOL0     H67681   2.121   5.655   7.403  0.2900 -2.1126  2.1683
  513MOL0     H67682   1.941   5.587   7.546 -1.1949 -0.7101 -2.0414
  513MOL0     H67683   1.894   5.699   7.418 -0.4640  0.8290  0.1300
  513MOL0     H67684   1.721   5.783   7.561  0.3696  0.8970  0.6360
  513MOL0     H67685   1.757   5.653   7.676  0.6946  1.8339  0.6200
  513MOL0     H67686   1.703   5.471   7.494 -1.0333  0.3203 -0.1198
  513MOL0     H67687   1.688   5.591   7.372 -1.4964  0.6396  0.0294
  513MOL0     H67688   1.511   5.583   7.617 -1.0932 -0.4436 -0.0809
  513MOL0     H67689   1.510   5.706   7.485 -0.3446 -0.4216  0.9444
  513MOL0     H67690   1.345   5.544   7.477 -0.3221 -3.3435  1.6054
  513MOL0     H67691   1.469   5.419   7.449  6.4691  2.5306  0.9080
  513MOL0     H67692   1.521   5.547   7.215 -1.4827  1.7216 -3.0314
  513MOL0     H67693   1.402   5.655   7.268  0.3614  0.6360 -0.8743
  513MOL0     H67694   1.398   5.374   7.172 -0.3412  0.2217 -0.1988
  513MOL0     H67695   1.253   5.408   7.261 -0.7119 -0.2912  0.4181
  513MOL0     H67696   1.206   5.461   7.028  2.0088 -1.3887 -0.5010
  513MOL0     H67697   1.326   5.585   7.034  2.3919  1.0874  1.5745
  513MOL0     H67698   2.142   5.951   7.714  0.6997  0.3783 -0.0823
  513MOL0     H67699   2.377   5.903   7.748  0.2431 -0.7952  1.0534
  513MOL0     H67700   2.833   5.760   7.403 -0.7388  0.1486 -0.3074
  513MOL0     H67701   3.051   5.729   7.477  3.1437 -0.9758  2.1690
  513MOL0     H67702   4.598   4.637   7.567  2.2922 -2.4476  1.9971
  513MOL0     H67703   4.600   4.379   7.586  2.0602  0.7575  1.0889
  513MOL0     H67704   4.547   4.064   7.590 -1.2395  0.5546  3.8588
  513MOL0     H67705   4.601   3.817   7.557 -0.7889 -0.4585 -3.0455
  513MOL0     H67706   4.509   3.478   7.677  3.6756  1.0555  0.8188
  513MOL0     H67707   4.597   3.616   7.651 -1.0434  1.3827 -1.1739
  513MOL0     H67708   4.619   3.578   7.407 -1.1314  0.0123 -1.0237
  513MOL0     H67709   4.661   3.419   7.484  2.0394  1.5437 -2.7494
  513MOL0     H67710   4.399   3.494   7.357 -0.6894 -0.8041 -0.9063
  513MOL0     H67711   4.429   3.335   7.428  0.6052 -0.7147  0.1345
  513MOL0     H67712   4.585   3.459   7.201  2.4605 -1.6684  0.9366
  513MOL0     H67713   4.594   3.288   7.253 -1.3304 -0.4854  0.8175
  513MOL0     H67714   4.225   3.291   7.042  0.3501 -2.8001  0.9870
  513MOL0     H67715   4.181   3.729   7.573  1.4369 -2.3581 -3.8347
  513MOL0     H67716   4.130   3.976   7.574  1.6742  1.6170  1.9480
  514MOL0     O67717   7.390   0.260   8.742 -0.0291  0.0274  0.3041
  514MOL0     C67718   7.389   0.315   8.845  0.4349  0.3346  0.8608
  514MOL0     O67719   7.480   0.304   8.951 -0.4748  0.3494  0.4299
  514MOL0     C67720   7.578   0.208   8.941 -0.4495  0.5940  0.4733
  514MOL0     C67721   7.693   0.231   9.018  0.2698 -0.0799  0.8513
  514MOL0     C67722   7.786   0.131   9.033 -0.3971  0.1435  1.2587
  514MOL0     C67723   7.763  -0.002   8.982 -1.2738  0.5539 -0.3853
  514MOL0     O67724   7.844  -0.112   8.988  0.2671 -0.6469  0.4697
  514MOL0     C67725   7.981  -0.090   9.025  1.0646  0.5733  0.2797
  514MOL0     C67726   8.065  -0.221   9.035 -0.0153 -0.6534 -0.2797
  514MOL0     C67727   8.217  -0.203   9.040 -0.1244  0.2892 -0.1211
  514MOL0     C67728   8.266  -0.208   9.184 -0.8586  0.3293  0.4480
  514MOL0     C67729   8.245  -0.082   9.260  0.0030  0.2544  0.1578
  514MOL0     C67730   8.323   0.033   9.194  0.1268 -0.5184 -0.2662
  514MOL0     C67731   8.316   0.153   9.290 -0.7085 -0.6797  0.6011
  514MOL0     C67732   8.396   0.281   9.230  0.1824  0.4293 -0.9942
  514MOL0     N67733   8.304   0.377   9.172  0.0306 -0.8799 -0.3958
  514MOL0     C67734   8.224   0.358   9.063  0.7877 -0.0761  0.4376
  514MOL0     C67735   8.143   0.456   9.038 -0.1943 -0.0825  0.4060
  514MOL0     C67736   8.064   0.473   8.907 -0.2093  0.0424 -0.2057
  514MOL0     C67737   7.931   0.527   8.936 -0.4070 -0.4002 -0.5569
  514MOL0     C67738   7.828   0.499   8.822  0.4818  0.3832  0.1663
  514MOL0     C67739   7.689   0.564   8.857  0.6155  0.0372 -0.5955
  514MOL0     O67740   7.683   0.677   8.765  0.3629  0.0750 -0.8655
  514MOL0     C67741   7.580   0.762   8.780  0.0240  0.1604  1.6667
  514MOL0     C67742   7.475   0.749   8.864  0.5258  0.0236  0.3717
  514MOL0     C67743   7.364   0.843   8.877  0.8813  0.0405  0.9523
  514MOL0     C67744   7.364   0.950   8.787  0.6477  0.0821 -0.6127
  514MOL0     C67745   7.249   1.045   8.783  0.0504 -0.0720  0.4918
  514MOL0     O67746   7.127   1.004   8.830 -0.2910 -0.4753 -0.6260
  514MOL0     C67747   7.021   1.085   8.797 -0.2956  1.4380  0.6664
  514MOL0     C67748   6.925   1.044   8.701  0.6050 -0.5144  0.4086
  514MOL0     C67749   6.821   1.131   8.655  0.1835  0.4340 -0.7101
  514MOL0     C67750   6.817   1.262   8.716  0.1167 -0.2528 -0.9117
  514MOL0     O67751   6.728   1.358   8.671 -0.2277  0.3719  0.1571
  514MOL0     C67752   6.593   1.329   8.656  0.0887 -0.4713 -0.0322
  514MOL0     C67753   6.502   1.413   8.752  0.2072  0.6389 -0.0696
  514MOL0     C67754   6.501   1.340   8.887  0.7628 -0.5316  0.2966
  514MOL0     C67755   6.372   1.246   8.909  0.3144 -1.4932 -0.6654
  514MOL0     C67756   6.386   1.162   9.032 -0.1710  0.1623  0.1438
  514MOL0     C67757   6.464   1.030   8.996  0.0348 -0.7835 -0.3706
  514MOL0     C67758   6.438   0.906   9.082 -0.1621  0.6324 -0.4327
  514MOL0     C67759   6.467   0.926   9.228  0.2579  0.0040 -0.3045
  514MOL0    Cl67760   6.428   0.770   9.318  0.0667  0.1664  0.5217
  514MOL0     C67761   6.916   1.304   8.814  0.2744 -0.3630  0.5143
  514MOL0     C67762   7.011   1.213   8.856 -0.4517  0.4779  0.3293
  514MOL0     O67763   7.278   1.159   8.741  0.6131 -0.2227  0.1439
  514MOL0     C67764   7.473   0.962   8.701  0.4782  0.5648  0.2897
  514MOL0     C67765   7.577   0.868   8.687  0.8045 -0.1197 -0.3446
  514MOL0     N67766   8.154   0.536   9.153  0.5841 -0.2049  0.1356
  514MOL0     N67767   8.252   0.496   9.226  0.2763 -0.5739 -0.1893
  514MOL0     C67768   7.652  -0.020   8.902  1.1291 -0.5707 -1.5413
  514MOL0     C67769   7.557   0.080   8.886  0.2667  0.2773  0.0945
  514MOL0     C67770   7.282   0.410   8.860  0.1267 -0.1975 -1.1702
  514MOL0     C67771   7.227   0.436   8.984 -0.1866  0.8104  0.1065
  514MOL0     C67772   7.116   0.519   9.002  0.3707 -0.2123  0.2626
  514MOL0     C67773   7.061   0.579   8.894  0.8260  0.6892 -0.5605
  514MOL0     O67774   6.935   0.633   8.904  0.5366 -0.0249  0.1502
  514MOL0     C67775   6.918   0.734   9.008 -0.9870  0.3655  0.3727
  514MOL0     C67776   6.785   0.702   9.086 -0.0501 -0.1004  0.3599
  514MOL0     C67777   6.813   0.602   9.195  0.5863 -0.1596 -0.0560
  514MOL0     C67778   6.706   0.565   9.294  0.1377  0.8547 -0.6560
  514MOL0     C67779   6.705   0.662   9.406 -0.0540  0.1195 -0.9814
  514MOL0     C67780   6.695   0.730   9.509 -0.7061 -0.4442 -1.2427
  514MOL0     C67781   7.114   0.554   8.765 -0.1188 -0.1166 -0.7724
  514MOL0     C67782   7.213   0.465   8.749 -0.4534  0.6676 -0.1073
  514MOL0     H67783   7.705   0.330   9.060  2.1412  1.4058 -2.8149
  514MOL0     H67784   7.882   0.148   9.080 -1.4052  0.0859  3.4844
  514MOL0     H67785   7.970  -0.038   9.120 -1.5896 -1.5630  1.2864
  514MOL0     H67786   8.025  -0.040   8.938 -1.2883  0.0960 -1.2851
  514MOL0     H67787   8.037  -0.284   8.950 -1.1458 -1.0540  0.3700
  514MOL0     H67788   8.026  -0.283   9.116 -4.1072 -1.4102 -2.5745
  514MOL0     H67789   8.254  -0.118   8.981  0.9519 -1.1555 -1.6235
  514MOL0     H67790   8.272  -0.283   8.990 -1.4931 -1.1849  0.6393
  514MOL0     H67791   8.212  -0.286   9.239 -0.2776  0.4262  1.1739
  514MOL0     H67792   8.369  -0.240   9.171 -1.6810 -2.3472 -0.0402
  514MOL0     H67793   8.284  -0.092   9.362 -0.4642 -1.8439  0.1736
  514MOL0     H67794   8.137  -0.066   9.256 -0.7441 -3.2557  2.3193
  514MOL0     H67795   8.273   0.070   9.104  0.4937 -0.4129 -0.4272
  514MOL0     H67796   8.425  -0.000   9.174  1.4155  1.6498  2.1684
  514MOL0     H67797   8.215   0.183   9.318 -1.4355  1.0964 -3.3786
  514MOL0     H67798   8.376   0.121   9.377 -1.6638 -1.7143  0.9176
  514MOL0     H67799   8.470   0.237   9.163  0.4469  0.1288 -0.5134
  514MOL0     H67800   8.446   0.336   9.310  1.1837 -1.6690 -0.1149
  514MOL0     H67801   8.228   0.271   8.999  1.4832 -0.3362  0.8259
  514MOL0     H67802   8.059   0.380   8.850  1.0908 -1.0809  1.4072
  514MOL0     H67803   8.122   0.532   8.835  1.9320 -0.7268  0.7927
  514MOL0     H67804   7.931   0.631   8.970  1.3046 -1.4668  3.1793
  514MOL0     H67805   7.897   0.469   9.022 -1.1279  1.2058  0.2884
  514MOL0     H67806   7.872   0.538   8.730  0.4920 -1.6773 -0.7742
  514MOL0     H67807   7.804   0.394   8.799  0.7305  0.5660 -1.0037
  514MOL0     H67808   7.682   0.598   8.961  0.4968 -1.5366 -0.0744
  514MOL0     H67809   7.604   0.500   8.833 -0.0279  1.2688 -1.7511
  514MOL0     H67810   7.475   0.660   8.925 -0.4153 -1.7826 -2.0839
  514MOL0     H67811   7.291   0.828   8.956 -0.4434  2.0402  0.1859
  514MOL0     H67812   6.937   0.949   8.650  0.7594 -0.5723  0.5512
  514MOL0     H67813   6.757   1.106   8.571  0.5129 -3.5605  0.0375
  514MOL0     H67814   6.578   1.224   8.684  1.2270 -0.6858 -0.1485
  514MOL0     H67815   6.555   1.351   8.556 -0.3837  2.1167  0.6529
  514MOL0     H67816   6.401   1.417   8.710 -1.2315 -0.0813  3.0301
  514MOL0     H67817   6.555   1.508   8.753  0.3816  0.5426  1.3045
  514MOL0     H67818   6.492   1.411   8.970 -5.4741  0.4276 -0.7481
  514MOL0     H67819   6.585   1.272   8.904 -0.9158 -2.3046  1.9640
  514MOL0     H67820   6.276   1.298   8.919  0.6037 -1.0774 -0.0094
  514MOL0     H67821   6.350   1.177   8.827 -1.0123 -1.1215 -0.6463
  514MOL0     H67822   6.290   1.140   9.080  0.3693 -0.8829  0.7777
  514MOL0     H67823   6.448   1.225   9.096  3.1667  1.9462 -4.3224
  514MOL0     H67824   6.572   1.046   9.001 -0.2272  0.6769  1.2445
  514MOL0     H67825   6.438   0.986   8.899  2.4716 -2.9823 -0.1386
  514MOL0     H67826   6.335   0.871   9.071  0.5141 -0.7799 -3.0716
  514MOL0     H67827   6.500   0.827   9.037 -1.9045 -1.4774  0.6620
  514MOL0     H67828   6.394   0.998   9.265 -0.5756 -1.4866  0.9926
  514MOL0     H67829   6.568   0.969   9.236 -0.7038  2.8509 -1.9163
  514MOL0     H67830   6.913   1.408   8.844 -1.0857 -0.3689  0.4886
  514MOL0     H67831   7.098   1.241   8.915  2.9212  0.2331 -4.0487
  514MOL0     H67832   7.475   1.034   8.619  1.3359 -0.2032 -0.3974
  514MOL0     H67833   7.640   0.892   8.603  0.0073  1.5823 -0.4851
  514MOL0     H67834   7.638  -0.116   8.852 -1.3620 -0.8731 -0.4356
  514MOL0     H67835   7.476   0.034   8.832  2.6532 -2.3619 -1.5226
  514MOL0     H67836   7.271   0.398   9.076 -1.3635  1.0475  0.7829
  514MOL0     H67837   7.082   0.533   9.104  2.8252 -1.8105  1.4003
  514MOL0     H67838   6.896   0.822   8.947 -3.0551 -1.1080 -1.1657
  514MOL0     H67839   7.006   0.746   9.072  0.8451  0.3755 -2.0127
  514MOL0     H67840   6.732   0.789   9.126 -4.0738 -2.2791  0.2330
  514MOL0     H67841   6.718   0.664   9.009  1.0793  2.7089 -2.2090
  514MOL0     H67842   6.899   0.630   9.257 -1.5160 -0.5441  3.2312
  514MOL0     H67843   6.838   0.511   9.140 -0.0379 -0.3953  0.0481
  514MOL0     H67844   6.602   0.558   9.263  0.3831  0.2009 -1.3753
  514MOL0     H67845   6.731   0.466   9.331 -0.3908  1.7790  2.4122
  514MOL0     H67846   6.695   0.796   9.594  2.5313  1.1692 -2.3430
  514MOL0     H67847   7.067   0.594   8.675  0.1435  0.4958 -0.6442
  514MOL0     H67848   7.244   0.433   8.650 -0.8316 -0.8935  0.2568
  515MOL0     O67849   9.757   3.512   1.733  0.1010  0.7934  0.0129
  515MOL0     C67850   9.826   3.429   1.669 -0.6479 -0.4567  0.0590
  515MOL0     O67851   9.815   3.292   1.675 -0.3480  0.0233 -0.0915
  515MOL0     C67852   9.711   3.236   1.737 -0.0820 -0.1371  0.7709
  515MOL0     C67853   9.586   3.262   1.715 -0.8325  0.1121  0.2797
  515MOL0     C67854   9.482   3.192   1.784  0.1954 -0.2240  0.2497
  515MOL0     C67855   9.506   3.092   1.882  1.1236  0.3901  0.2611
  515MOL0     O67856   9.418   3.020   1.956 -0.0119 -0.1407 -0.7500
  515MOL0     C67857   9.290   2.993   1.896 -0.2071 -0.5912  0.0635
  515MOL0     C67858   9.300   2.904   1.769 -0.5889 -0.6532  0.1464
  515MOL0     C67859   9.178   2.812   1.751  0.8803 -0.0305 -0.8541
  515MOL0     C67860   9.196   2.708   1.637  0.0881 -0.5995  0.7583
  515MOL0     C67861   9.067   2.655   1.587  0.6291 -0.7232  0.7889
  515MOL0     C67862   8.979   2.759   1.523 -0.2093 -1.6369  0.1621
  515MOL0     C67863   8.864   2.688   1.445 -0.0990  1.3460  0.2029
  515MOL0     C67864   8.733   2.745   1.422  0.1625 -0.6037 -0.1813
  515MOL0     N67865   8.656   2.745   1.548 -0.6090  0.0951 -0.3622
  515MOL0     C67866   8.600   2.636   1.596 -0.1092  0.4590  0.5598
  515MOL0     C67867   8.553   2.669   1.713  0.0245  0.1811 -0.4193
  515MOL0     C67868   8.493   2.568   1.797  0.6509 -0.1869 -0.7152
  515MOL0     C67869   8.348   2.604   1.832  0.1680  0.8644 -0.5521
  515MOL0     C67870   8.277   2.473   1.893 -0.1921 -0.3185 -0.5023
  515MOL0     C67871   8.127   2.500   1.928 -1.0312 -1.0134  0.1449
  515MOL0     O67872   8.067   2.378   1.969  0.0703  0.3872  0.1569
  515MOL0     C67873   7.933   2.358   1.992 -0.2157  0.0510  0.0288
  515MOL0     C67874   7.889   2.237   2.051  0.4231  0.5036  0.5251
  515MOL0     C67875   7.758   2.205   2.067  0.0117 -0.7081  0.9677
  515MOL0     C67876   7.661   2.302   2.043 -0.3597 -0.5430  0.7644
  515MOL0     C67877   7.513   2.273   2.060  0.6898  0.5489  0.9478
  515MOL0     O67878   7.420   2.370   2.029 -0.2258 -0.0896 -0.9773
  515MOL0     C67879   7.295   2.360   2.076 -0.3578 -0.5124 -0.1773
  515MOL0     C67880   7.205   2.289   1.994  0.1371 -0.0488 -0.8533
  515MOL0     C67881   7.067   2.295   2.033  0.0750 -0.5828 -0.0579
  515MOL0     C67882   7.029   2.356   2.154  0.2491  0.4277  0.3369
  515MOL0     O67883   6.901   2.367   2.196  0.1315  0.3075 -0.3636
  515MOL0     C67884   6.797   2.334   2.099 -0.3096 -1.0021  0.2360
  515MOL0     C67885   6.665   2.371   2.161 -0.2232  0.0023  0.3810
  515MOL0     C67886   6.549   2.323   2.067 -0.0419 -0.9052 -0.6351
  515MOL0     C67887   6.407   2.388   2.098  0.7778  0.1434  0.7888
  515MOL0     C67888   6.405   2.532   2.054  0.2144 -0.2396 -0.0250
  515MOL0     C67889   6.263   2.584   2.040 -0.0045 -0.5064 -0.7268
  515MOL0     C67890   6.179   2.579   2.174 -0.4084 -0.0480 -0.1537
  515MOL0     C67891   6.027   2.595   2.147 -0.9403  0.2066  0.8610
  515MOL0    Cl67892   5.970   2.482   2.025 -0.0613 -0.4780  0.0793
  515MOL0     C67893   7.129   2.411   2.243  0.0066 -0.4787 -0.4349
  515MOL0     C67894   7.262   2.415   2.200 -1.0383  0.5078  0.4903
  515MOL0     O67895   7.485   2.164   2.102 -0.5662 -0.1682  0.1175
  515MOL0     C67896   7.700   2.429   1.984 -0.2296 -0.0605 -0.0664
  515MOL0     C67897   7.830   2.447   1.958 -0.4181  0.3122 -1.0182
  515MOL0     N67898   8.557   2.806   1.723  0.0594 -0.3842  0.4293
  515MOL0     N67899   8.611   2.852   1.616  0.4752  0.0399  0.4714
  515MOL0     C67900   9.638   3.062   1.898 -0.4792 -0.8963  0.1977
  515MOL0     C67901   9.739   3.131   1.826 -0.6834 -0.0907  0.9681
  515MOL0     C67902   9.954   3.469   1.606  0.1709 -0.1792  0.8626
  515MOL0     C67903  10.044   3.380   1.539  0.1231  0.4029 -0.2668
  515MOL0     C67904  10.162   3.429   1.478  0.6768  0.1845  0.9731
  515MOL0     C67905  10.185   3.564   1.480  0.0225  0.2724  1.1233
  515MOL0     O67906  10.282   3.627   1.399  0.4745  0.4330  0.2012
  515MOL0     C67907  10.393   3.543   1.366  0.3557 -0.5213 -0.8703
  515MOL0     C67908  10.493   3.641   1.299 -0.7675 -0.9957  0.7731
  515MOL0     C67909  10.641   3.577   1.296  0.4719  0.6587  0.3067
  515MOL0     C67910  10.666   3.480   1.182  0.6390 -0.8739  0.7719
  515MOL0     C67911  10.682   3.550   1.061  0.1657 -0.1719  1.1058
  515MOL0     C67912  10.675   3.621   0.957 -0.1098  0.5797  0.6521
  515MOL0     C67913  10.096   3.653   1.530  0.2402 -0.2474 -0.2147
  515MOL0     C67914   9.986   3.604   1.604 -0.4460 -0.5167  0.6745
  515MOL0     H67915   9.551   3.349   1.660 -0.5000  0.4603  0.6179
  515MOL0     H67916   9.379   3.220   1.767 -0.5801 -2.2421  1.3771
  515MOL0     H67917   9.225   3.078   1.875 -1.9467 -1.7368  0.5974
  515MOL0     H67918   9.232   2.937   1.970  0.7560 -0.7980  0.6750
  515MOL0     H67919   9.397   2.856   1.756 -0.6744 -0.0697 -3.4577
  515MOL0     H67920   9.298   2.972   1.684 -1.6995 -0.1939  0.5175
  515MOL0     H67921   9.092   2.878   1.740 -0.8384 -1.9283  0.4195
  515MOL0     H67922   9.166   2.748   1.839  0.6822  2.0166  0.6723
  515MOL0     H67923   9.245   2.763   1.557 -0.6738  1.4352  1.6180
  515MOL0     H67924   9.262   2.629   1.675  2.8820  0.7922 -0.9194
  515MOL0     H67925   9.024   2.601   1.672  2.8351 -2.1843  1.0851
  515MOL0     H67926   9.087   2.570   1.521 -0.9569 -0.6018  0.1184
  515MOL0     H67927   9.025   2.842   1.469  0.7313 -2.5280 -0.4570
  515MOL0     H67928   8.920   2.811   1.598  4.4145  0.7412  2.6041
  515MOL0     H67929   8.896   2.651   1.347 -2.7932 -0.5747 -0.0768
  515MOL0     H67930   8.839   2.596   1.500  0.2127  2.2756  1.9465
  515MOL0     H67931   8.679   2.688   1.346  3.4622 -3.0506 -0.8818
  515MOL0     H67932   8.740   2.849   1.387 -1.1318 -0.5618 -0.3712
  515MOL0     H67933   8.600   2.538   1.549 -1.7323  0.3962  0.6488
  515MOL0     H67934   8.550   2.570   1.890 -0.6981  0.7485  0.1293
  515MOL0     H67935   8.496   2.468   1.752  0.8336 -0.6980  0.4072
  515MOL0     H67936   8.293   2.633   1.742 -2.0923  1.2593  0.8541
  515MOL0     H67937   8.348   2.688   1.902  1.0795  0.1391  0.3706
  515MOL0     H67938   8.292   2.393   1.821  2.5571 -1.2119  0.9297
  515MOL0     H67939   8.335   2.436   1.978  1.2194  0.9176 -0.8824
  515MOL0     H67940   8.080   2.527   1.833 -1.1285 -1.1067  0.1675
  515MOL0     H67941   8.116   2.572   2.010  5.0384  0.1461  0.4296
  515MOL0     H67942   7.951   2.156   2.087 -1.2380 -0.5614  1.0901
  515MOL0     H67943   7.739   2.107   2.111  1.0029 -1.3605  0.0089
  515MOL0     H67944   7.233   2.241   1.901  4.0960  1.1387 -0.4134
  515MOL0     H67945   6.995   2.245   1.969 -0.6158  0.5688 -0.1986
  515MOL0     H67946   6.798   2.228   2.074  1.1887 -1.3860  1.7392
  515MOL0     H67947   6.809   2.400   2.012 -1.7548 -1.1208 -0.0796
  515MOL0     H67948   6.642   2.476   2.180 -1.2911 -0.0268 -0.6275
  515MOL0     H67949   6.659   2.322   2.259 -1.2843 -1.4608 -0.3720
  515MOL0     H67950   6.546   2.216   2.088  0.0080 -0.4684  1.9823
  515MOL0     H67951   6.586   2.331   1.965 -2.1878  0.5680 -1.3659
  515MOL0     H67952   6.336   2.337   2.032  4.2733 -1.2122 -2.2498
  515MOL0     H67953   6.374   2.369   2.201  1.2272  2.5535  1.4316
  515MOL0     H67954   6.453   2.537   1.956  4.0323 -1.2875  1.5835
  515MOL0     H67955   6.455   2.601   2.123  2.1475 -0.5488 -1.0300
  515MOL0     H67956   6.217   2.528   1.958 -1.9202 -1.3980  0.8638
  515MOL0     H67957   6.267   2.688   2.006 -1.2173  0.5754  2.1039
  515MOL0     H67958   6.196   2.482   2.222  1.4311  0.6681  0.7252
  515MOL0     H67959   6.197   2.666   2.238 -1.7091  0.8720 -0.9736
  515MOL0     H67960   6.013   2.698   2.112 -0.5524 -0.1025 -0.2457
  515MOL0     H67961   5.978   2.586   2.245  0.4673 -1.2493  1.4752
  515MOL0     H67962   7.089   2.450   2.336 -0.5905  2.0899 -1.6461
  515MOL0     H67963   7.346   2.465   2.246 -0.4662 -0.5270  0.5888
  515MOL0     H67964   7.632   2.505   1.946  3.7338  3.5113 -0.8039
  515MOL0     H67965   7.863   2.542   1.917 -2.2168  1.7527  0.6714
  515MOL0     H67966   9.670   2.987   1.970  0.2987 -1.4743 -0.7226
  515MOL0     H67967   9.845   3.110   1.834 -0.3382  0.4857 -1.5191
  515MOL0     H67968  10.018   3.274   1.541  4.2792 -0.7992 -1.0161
  515MOL0     H67969  10.239   3.364   1.438  0.2248  0.1464  0.1484
  515MOL0     H67970  10.361   3.469   1.293 -0.0797 -0.6787 -0.5222
  515MOL0     H67971  10.440   3.489   1.448 -1.1819 -0.3571  0.1550
  515MOL0     H67972  10.464   3.663   1.195  3.3159 -0.9567 -0.5401
  515MOL0     H67973  10.500   3.730   1.362 -0.5618  1.0566 -1.9304
  515MOL0     H67974  10.664   3.536   1.395 -0.7034  1.6192  1.0114
  515MOL0     H67975  10.708   3.661   1.276  0.1977  1.0385  0.9283
  515MOL0     H67976  10.763   3.433   1.203  2.4915  2.0049 -0.8116
  515MOL0     H67977  10.585   3.409   1.161  0.8474 -0.6711 -0.8314
  515MOL0     H67978  10.666   3.700   0.885 -0.5561 -2.0254 -2.3741
  515MOL0     H67979  10.124   3.757   1.512  0.3106 -0.0905  0.7533
  515MOL0     H67980   9.921   3.678   1.650  0.3293  0.7713 -0.2353
  516MOL0     O67981  11.038   6.093   1.047  0.0787 -0.0146  0.1204
  516MOL0     C67982  11.085   6.186   1.110  1.0175 -0.0311  0.4695
  516MOL0     O67983  11.013   6.294   1.158 -0.0132  1.3527  0.2955
  516MOL0     C67984  10.877   6.299   1.144 -0.2513  0.6624 -0.2267
  516MOL0     C67985  10.793   6.188   1.163 -0.5969 -1.1844 -1.1242
  516MOL0     C67986  10.655   6.196   1.154  0.4210 -0.0457 -0.0407
  516MOL0     C67987  10.601   6.306   1.104  0.2960  0.2532 -0.8217
  516MOL0     O67988  10.472   6.333   1.078  0.2505  0.0693 -0.2500
  516MOL0     C67989  10.375   6.218   1.070  0.2623 -1.5481  0.1404
  516MOL0     C67990  10.312   6.190   1.210 -0.1430  0.1137  0.4088
  516MOL0     C67991  10.174   6.149   1.199  0.5397  0.6778  1.1694
  516MOL0     C67992  10.108   6.126   1.338 -0.5584 -0.0712 -0.4091
  516MOL0     C67993   9.965   6.082   1.329 -0.6288  1.0404 -0.7482
  516MOL0     C67994   9.897   6.094   1.461 -0.1661 -0.2271 -0.5533
  516MOL0     C67995   9.753   6.048   1.464 -0.1177 -0.9467 -0.3166
  516MOL0     C67996   9.727   5.915   1.541 -0.1458  0.2690  0.2768
  516MOL0     N67997   9.585   5.882   1.522 -0.3928  0.3873  0.1329
  516MOL0     C67998   9.540   5.809   1.415  0.6048  0.3037 -0.1067
  516MOL0     C67999   9.406   5.798   1.439  0.0643  0.1068  0.3600
  516MOL0     C68000   9.310   5.743   1.333 -0.1812  0.5462  0.4649
  516MOL0     C68001   9.173   5.826   1.331 -0.1442 -0.6186  0.6860
  516MOL0     C68002   9.065   5.772   1.226 -1.0573 -0.5159 -0.0712
  516MOL0     C68003   9.011   5.645   1.281  0.0178  1.1598  0.1666
  516MOL0     O68004   8.890   5.610   1.210 -0.3280 -0.2787 -0.0087
  516MOL0     C68005   8.771   5.656   1.272 -0.2977 -0.3276  0.5909
  516MOL0     C68006   8.749   5.766   1.357  0.3231  0.2732  0.0587
  516MOL0     C68007   8.631   5.811   1.396 -0.7327  0.4960 -0.1824
  516MOL0     C68008   8.519   5.738   1.360  0.8100  0.2927 -1.0747
  516MOL0     C68009   8.381   5.787   1.396  1.1166 -0.7536 -0.6988
  516MOL0     O68010   8.372   5.926   1.407 -0.3443 -0.1459  0.5522
  516MOL0     C68011   8.253   5.993   1.405 -0.2183  0.6993  0.6648
  516MOL0     C68012   8.151   5.970   1.309  0.3481 -0.2240  1.1257
  516MOL0     C68013   8.045   6.057   1.299  0.0346  0.9281 -0.5069
  516MOL0     C68014   8.024   6.158   1.395  0.1055 -0.4897  0.5609
  516MOL0     O68015   7.906   6.231   1.384 -0.0542  0.3522  0.5646
  516MOL0     C68016   7.897   6.361   1.443 -0.1245 -0.3081  0.6575
  516MOL0     C68017   7.852   6.355   1.580  0.3091 -0.3795 -0.0211
  516MOL0     C68018   7.903   6.478   1.659  0.1915  0.4658  0.4030
  516MOL0     C68019   7.867   6.487   1.803  0.1954  0.5882  0.3050
  516MOL0     C68020   7.937   6.589   1.899  0.4180 -0.3887  0.6207
  516MOL0     C68021   8.008   6.708   1.844  1.3127  0.1201  0.4996
  516MOL0     C68022   8.065   6.783   1.970  0.1067 -0.2511  0.6691
  516MOL0     C68023   8.169   6.891   1.928  0.4952 -0.9053 -0.3217
  516MOL0    Cl68024   8.215   6.989   2.071 -0.2442  0.0896  0.1437
  516MOL0     C68025   8.129   6.180   1.493 -1.0450  0.2293  0.5682
  516MOL0     C68026   8.242   6.098   1.489 -0.3751  0.6899 -0.1590
  516MOL0     O68027   8.288   5.714   1.408 -0.1822  0.0637  0.4682
  516MOL0     C68028   8.533   5.612   1.292  0.2800 -0.6769  0.7633
  516MOL0     C68029   8.658   5.575   1.238  0.1671 -0.4854  0.1322
  516MOL0     N68030   9.378   5.847   1.575 -0.1656 -0.0134  0.3084
  516MOL0     N68031   9.491   5.902   1.615 -0.6502  0.2691  0.1262
  516MOL0     C68032  10.672   6.416   1.087  0.5412 -0.3771 -0.0171
  516MOL0     C68033  10.812   6.417   1.105 -0.3051 -0.2774 -0.4062
  516MOL0     C68034  11.229   6.182   1.126 -0.9555  0.5927  0.9508
  516MOL0     C68035  11.299   6.306   1.124 -0.2888 -0.2232 -1.6083
  516MOL0     C68036  11.436   6.306   1.133  0.4445  0.1195 -0.2158
  516MOL0     C68037  11.507   6.186   1.118 -0.1292 -0.4044 -0.6273
  516MOL0     O68038  11.641   6.198   1.121 -0.8139  0.1386 -0.8389
  516MOL0     C68039  11.720   6.090   1.162 -0.0647 -0.3208 -0.2140
  516MOL0     C68040  11.726   6.065   1.315  0.3264 -0.1975  0.2889
  516MOL0     C68041  11.761   5.918   1.358 -0.0387 -0.7052 -0.0350
  516MOL0     C68042  11.726   5.888   1.501 -0.7448  0.2398  0.5426
  516MOL0     C68043  11.587   5.912   1.534 -0.3589  0.5428  0.1031
  516MOL0     C68044  11.476   5.934   1.566 -0.6810  0.2258 -1.1205
  516MOL0     C68045  11.439   6.060   1.109  1.1608  0.0210 -0.4621
  516MOL0     C68046  11.300   6.058   1.114 -0.9284  0.8707  0.6621
  516MOL0     H68047  10.842   6.097   1.196  2.0974  1.1596  2.0237
  516MOL0     H68048  10.600   6.112   1.195 -0.6398  0.9746  0.6558
  516MOL0     H68049  10.428   6.131   1.031 -1.1001 -3.9153  3.0825
  516MOL0     H68050  10.291   6.242   1.004 -2.1619  0.5904  3.6377
  516MOL0     H68051  10.317   6.276   1.277 -3.3112  0.3279  0.5036
  516MOL0     H68052  10.370   6.106   1.251 -0.5180 -1.5118 -2.1523
  516MOL0     H68053  10.177   6.055   1.143  1.0694  1.3302  0.0682
  516MOL0     H68054  10.118   6.223   1.141  2.1984  0.3991 -0.9427
  516MOL0     H68055  10.158   6.041   1.386  3.8858  0.3408 -3.6949
  516MOL0     H68056  10.117   6.207   1.411 -2.2923 -1.4186  1.4475
  516MOL0     H68057   9.953   5.988   1.274 -0.0188  1.8291 -2.3107
  516MOL0     H68058   9.917   6.153   1.261 -0.9978  1.3144 -0.2049
  516MOL0     H68059   9.909   6.200   1.484  2.2081 -0.2758 -1.2529
  516MOL0     H68060   9.949   6.039   1.541 -0.5360  2.9005  2.0251
  516MOL0     H68061   9.705   6.124   1.525 -2.1354 -2.1093 -0.3596
  516MOL0     H68062   9.706   6.054   1.365 -1.0997 -3.7726 -0.1150
  516MOL0     H68063   9.746   5.928   1.648  1.6575  1.4219 -0.1454
  516MOL0     H68064   9.799   5.840   1.508 -2.9713 -3.8944  2.6692
  516MOL0     H68065   9.603   5.773   1.335  1.3553  0.2754  0.4870
  516MOL0     H68066   9.296   5.638   1.362 -0.8111  0.4999  0.0033
  516MOL0     H68067   9.348   5.756   1.231  1.9109 -0.6253  1.0246
  516MOL0     H68068   9.204   5.930   1.313 -1.2791  0.0319  2.2016
  516MOL0     H68069   9.120   5.830   1.427  0.0796 -2.9292  0.9459
  516MOL0     H68070   8.981   5.841   1.213 -0.2004  0.4787 -0.5166
  516MOL0     H68071   9.118   5.772   1.130 -1.1507  4.4568 -0.3605
  516MOL0     H68072   8.993   5.660   1.388 -1.4679  0.4066  0.0552
  516MOL0     H68073   9.079   5.559   1.271 -1.4478  0.0719 -0.9529
  516MOL0     H68074   8.825   5.842   1.368 -0.4853  1.0128  0.6567
  516MOL0     H68075   8.631   5.907   1.448 -3.4429 -1.2820  3.5238
  516MOL0     H68076   8.161   5.892   1.234 -0.7625  0.1388  0.5775
  516MOL0     H68077   7.972   6.019   1.228  1.2081 -4.3478  0.6337
  516MOL0     H68078   7.829   6.422   1.383  0.4566 -1.3148 -1.0782
  516MOL0     H68079   7.987   6.421   1.428 -0.0192 -0.2967  1.2954
  516MOL0     H68080   7.885   6.266   1.635 -0.6324  1.0316  3.0272
  516MOL0     H68081   7.743   6.347   1.578  0.4005 -1.9806 -2.2472
  516MOL0     H68082   7.872   6.570   1.607 -0.9512  0.4951  1.1228
  516MOL0     H68083   8.012   6.471   1.654  0.0572 -2.5567  0.3816
  516MOL0     H68084   7.759   6.502   1.806 -0.3796 -2.7848  1.2420
  516MOL0     H68085   7.884   6.399   1.866 -0.2503  2.3429  3.0165
  516MOL0     H68086   8.000   6.528   1.964 -1.5642 -2.9244  0.3176
  516MOL0     H68087   7.859   6.622   1.967 -1.6154 -1.3002 -1.1561
  516MOL0     H68088   7.941   6.781   1.798  1.8975 -0.4350 -1.3210
  516MOL0     H68089   8.090   6.673   1.780 -0.1258 -3.7582  0.5263
  516MOL0     H68090   7.983   6.831   2.024 -0.9549 -0.6591 -0.5423
  516MOL0     H68091   8.113   6.715   2.042  0.8203  0.8601  1.2831
  516MOL0     H68092   8.128   6.956   1.850  2.2027  2.1611  1.1634
  516MOL0     H68093   8.255   6.833   1.893 -0.3718 -2.0669 -0.6129
  516MOL0     H68094   8.115   6.256   1.569  2.0147  1.6061 -0.0824
  516MOL0     H68095   8.315   6.109   1.568  0.0881 -3.1471  0.1689
  516MOL0     H68096   8.454   5.548   1.255  0.0192  1.1506 -2.1827
  516MOL0     H68097   8.667   5.490   1.171 -3.0862 -2.7794  2.3102
  516MOL0     H68098  10.631   6.510   1.051  0.2828  0.0958  1.4375
  516MOL0     H68099  10.880   6.498   1.081 -2.1826  1.2034 -1.0124
  516MOL0     H68100  11.237   6.395   1.123 -3.1252 -2.0328  0.0305
  516MOL0     H68101  11.484   6.404   1.136  2.1902 -0.7014  2.9586
  516MOL0     H68102  11.824   6.108   1.132  0.9117 -1.1567  2.3737
  516MOL0     H68103  11.687   6.002   1.106 -1.9503  1.2745 -1.7540
  516MOL0     H68104  11.793   6.136   1.365  0.4789  1.6602 -2.3355
  516MOL0     H68105  11.625   6.086   1.353 -0.3546  0.0469 -1.5447
  516MOL0     H68106  11.864   5.894   1.331 -0.1407 -0.6281 -0.5083
  516MOL0     H68107  11.717   5.844   1.290  3.7818 -3.2838  0.0294
  516MOL0     H68108  11.740   5.780   1.508  2.4207  0.4354 -0.7616
  516MOL0     H68109  11.803   5.929   1.568  0.8855 -4.0990  1.6466
  516MOL0     H68110  11.374   5.958   1.588 -0.9660 -0.1402 -2.0137
  516MOL0     H68111  11.493   5.967   1.120  2.0061  0.7541  2.1992
  516MOL0     H68112  11.252   5.961   1.106  0.6628  0.0181  0.8930
  517MOL0     O68113   1.364   6.316   2.317 -0.5115  0.4702 -0.1759
  517MOL0     C68114   1.336   6.338   2.438 -0.3136  0.5626 -0.2862
  517MOL0     O68115   1.214   6.339   2.499  0.7265 -0.0925  0.2265
  517MOL0     C68116   1.103   6.340   2.412 -0.3252 -0.2556 -0.6212
  517MOL0     C68117   1.078   6.235   2.324  0.3754 -0.8011 -1.1731
  517MOL0     C68118   0.972   6.256   2.235 -0.0748  0.0231 -0.4707
  517MOL0     C68119   0.888   6.374   2.240 -0.5415 -0.6812  0.5507
  517MOL0     O68120   0.784   6.397   2.153 -0.0908  0.6813  0.5053
  517MOL0     C68121   0.716   6.305   2.071 -0.2259 -0.1559  0.7367
  517MOL0     C68122   0.579   6.226   2.125 -1.0882 -0.8421 -0.8196
  517MOL0     C68123   0.621   6.123   2.222  0.2777 -0.0615 -0.1778
  517MOL0     C68124   0.511   6.023   2.255  0.0268 -0.1254  0.4233
  517MOL0     C68125   0.546   5.937   2.381  0.0812 -1.0126  0.5006
  517MOL0     C68126   0.462   5.807   2.390  0.5133  0.3433 -0.2528
  517MOL0     C68127   0.500   5.703   2.507 -0.3113 -0.2602  0.2363
  517MOL0     C68128   0.524   5.559   2.470  0.4242 -0.4351 -0.4469
  517MOL0     N68129   0.381   5.514   2.438 -0.0965  0.1629 -0.0437
  517MOL0     C68130   0.277   5.498   2.523  1.3224  0.0040 -0.0868
  517MOL0     C68131   0.179   5.443   2.448 -0.2570 -0.0908 -0.7332
  517MOL0     C68132   0.034   5.400   2.479  0.4914  0.2866 -0.5409
  517MOL0     C68133   0.001   5.252   2.486 -0.5579 -0.7164  0.2273
  517MOL0     C68134  -0.004   5.185   2.335  0.1353 -0.4501  0.1252
  517MOL0     C68135  -0.051   5.042   2.351 -0.5411 -0.6003  0.0881
  517MOL0     O68136  -0.190   5.039   2.374 -0.2600  0.4031 -0.1335
  517MOL0     C68137  -0.270   5.043   2.267  0.5108 -0.9788 -0.4101
  517MOL0     C68138  -0.407   5.055   2.292 -0.1798  0.0811  0.2370
  517MOL0     C68139  -0.496   5.072   2.190 -1.0642 -0.5253 -0.4250
  517MOL0     C68140  -0.466   5.041   2.058 -0.1554 -0.3913 -0.0515
  517MOL0     C68141  -0.553   5.038   1.944  0.3480 -0.3820 -0.6310
  517MOL0     O68142  -0.690   5.052   1.973  0.0124  0.3226 -0.5936
  517MOL0     C68143  -0.793   4.990   1.910  0.0666  0.4269 -0.2398
  517MOL0     C68144  -0.778   4.874   1.828 -1.2324  0.1317 -0.5499
  517MOL0     C68145  -0.895   4.837   1.760 -0.8549  0.5327  0.9260
  517MOL0     C68146  -1.020   4.886   1.788  0.2359  0.0771 -0.7472
  517MOL0     O68147  -1.121   4.819   1.737  0.1419  0.2351 -0.1073
  517MOL0     C68148  -1.256   4.870   1.732 -0.7195 -0.2695  0.1016
  517MOL0     C68149  -1.344   4.817   1.626 -0.1159 -0.1087  0.3684
  517MOL0     C68150  -1.489   4.798   1.671  0.5845 -0.6691  0.1636
  517MOL0     C68151  -1.580   4.742   1.557 -0.2774 -1.1374 -0.7480
  517MOL0     C68152  -1.734   4.743   1.590 -0.5084 -0.2427 -0.2938
  517MOL0     C68153  -1.804   4.624   1.543  0.7861  0.0037 -0.1294
  517MOL0     C68154  -1.956   4.640   1.575 -0.0458 -0.5093 -0.4043
  517MOL0     C68155  -1.987   4.607   1.717 -0.4687 -0.0360 -0.5598
  517MOL0    Cl68156  -2.160   4.567   1.743  0.1909 -0.1842  0.0871
  517MOL0     C68157  -1.031   4.996   1.877  0.0452 -0.2615  0.0550
  517MOL0     C68158  -0.916   5.050   1.934  0.1322  0.3063 -0.6322
  517MOL0     O68159  -0.517   5.010   1.832  0.0406  0.3834 -0.0417
  517MOL0     C68160  -0.331   5.027   2.029 -0.3408  0.3103  0.1345
  517MOL0     C68161  -0.231   5.037   2.126 -0.0853  0.4792 -0.3310
  517MOL0     N68162   0.228   5.424   2.319 -0.4869  0.1668 -0.0263
  517MOL0     N68163   0.346   5.479   2.314  0.3883  0.4972  0.1411
  517MOL0     C68164   0.915   6.470   2.336 -0.3191 -0.6364 -0.3842
  517MOL0     C68165   1.026   6.455   2.418 -0.5303  1.0489  0.3792
  517MOL0     C68166   1.444   6.341   2.531 -0.0531 -0.2732  0.3850
  517MOL0     C68167   1.568   6.276   2.505 -0.0782 -0.2804 -0.7168
  517MOL0     C68168   1.666   6.270   2.600  0.1604 -0.4559  0.0911
  517MOL0     C68169   1.653   6.350   2.717 -0.4131 -0.0235  1.3097
  517MOL0     O68170   1.752   6.359   2.805  0.9365 -0.4576 -0.1233
  517MOL0     C68171   1.868   6.416   2.757  0.4307 -0.3698 -0.6549
  517MOL0     C68172   1.980   6.393   2.854  0.1569 -0.8153 -0.2939
  517MOL0     C68173   2.018   6.251   2.839 -0.5155  0.6007  0.9746
  517MOL0     C68174   2.162   6.220   2.888  0.2910 -0.0326  0.0452
  517MOL0     C68175   2.271   6.287   2.810  0.8682 -0.2734  0.7992
  517MOL0     C68176   2.343   6.368   2.760  0.3107  0.4510 -0.1952
  517MOL0     C68177   1.539   6.422   2.740  0.1243  0.2075 -0.6762
  517MOL0     C68178   1.429   6.414   2.648  0.0413 -0.7826  0.4008
  517MOL0     H68179   1.150   6.154   2.314 -1.3707 -2.3661 -1.4828
  517MOL0     H68180   0.957   6.185   2.155  1.2963  1.1568 -1.8038
  517MOL0     H68181   0.790   6.233   2.035 -2.3884 -2.1297 -0.0862
  517MOL0     H68182   0.683   6.365   1.986  1.9383  0.9794  0.6497
  517MOL0     H68183   0.521   6.185   2.042 -0.5119 -2.1489 -0.6026
  517MOL0     H68184   0.514   6.299   2.174  0.5832 -0.9670  1.7714
  517MOL0     H68185   0.640   6.165   2.321 -4.0948  0.9782  0.4269
  517MOL0     H68186   0.709   6.069   2.186 -0.8955 -3.4162  1.5970
  517MOL0     H68187   0.416   6.075   2.273 -0.1572 -0.5573  0.7046
  517MOL0     H68188   0.515   5.968   2.160  1.5304 -1.0414  0.9925
  517MOL0     H68189   0.524   6.001   2.467 -0.6464 -0.4160 -0.1169
  517MOL0     H68190   0.646   5.892   2.384 -0.7158 -2.9856 -0.5389
  517MOL0     H68191   0.461   5.759   2.291  1.9027  1.1657 -0.6881
  517MOL0     H68192   0.355   5.826   2.406  0.2492 -1.0696 -0.2492
  517MOL0     H68193   0.601   5.732   2.536 -0.6576 -0.2350  1.4689
  517MOL0     H68194   0.432   5.722   2.591  0.1643 -1.1261  0.8302
  517MOL0     H68195   0.577   5.510   2.551 -0.6662 -0.3980  0.3163
  517MOL0     H68196   0.582   5.557   2.378 -0.8970  0.1733 -1.3359
  517MOL0     H68197   0.276   5.524   2.628 -0.0549  1.2901 -0.3758
  517MOL0     H68198  -0.035   5.437   2.403  0.0287 -1.6268 -1.1007
  517MOL0     H68199   0.007   5.451   2.571 -0.2701 -2.6804  1.0168
  517MOL0     H68200  -0.093   5.230   2.537 -0.9919 -0.6125 -0.5208
  517MOL0     H68201   0.079   5.202   2.545 -1.5903  0.6068  2.8648
  517MOL0     H68202  -0.079   5.243   2.281  1.0404  1.9084  1.2463
  517MOL0     H68203   0.096   5.190   2.291  1.5817 -4.1393  2.4869
  517MOL0     H68204   0.008   5.002   2.434  1.0540  0.7951 -0.3034
  517MOL0     H68205  -0.030   4.975   2.268 -2.3054 -0.0518 -0.8460
  517MOL0     H68206  -0.448   5.058   2.392  2.2725  1.0353  1.3189
  517MOL0     H68207  -0.601   5.088   2.210 -0.1845  2.3131  3.0150
  517MOL0     H68208  -0.678   4.837   1.811 -0.5408  1.2894  0.7807
  517MOL0     H68209  -0.885   4.756   1.689  0.3816  2.5083 -1.3116
  517MOL0     H68210  -1.246   4.978   1.730  3.1604 -0.5173 -0.2138
  517MOL0     H68211  -1.297   4.845   1.830 -3.5198  3.2570  0.0167
  517MOL0     H68212  -1.307   4.719   1.596  0.5656  1.5852 -5.7092
  517MOL0     H68213  -1.341   4.881   1.537  0.4501 -1.2384 -0.4538
  517MOL0     H68214  -1.532   4.891   1.710 -1.3412 -2.1362  1.7583
  517MOL0     H68215  -1.502   4.730   1.756 -2.6779  0.7338  0.9372
  517MOL0     H68216  -1.551   4.795   1.466  1.4695  2.2110  1.5259
  517MOL0     H68217  -1.550   4.640   1.533  2.1206 -0.9733  1.1208
  517MOL0     H68218  -1.770   4.831   1.537  0.1739  0.4250  0.3252
  517MOL0     H68219  -1.748   4.767   1.695  2.0821 -1.0642  0.3167
  517MOL0     H68220  -1.773   4.527   1.582  2.8268 -0.3977 -2.5274
  517MOL0     H68221  -1.797   4.621   1.434  0.5235 -1.3748 -0.1244
  517MOL0     H68222  -1.983   4.743   1.552 -3.1763 -0.6566  1.9001
  517MOL0     H68223  -2.001   4.574   1.501 -0.8287 -1.2947  0.7508
  517MOL0     H68224  -1.958   4.685   1.788  0.1308 -0.4044 -0.3933
  517MOL0     H68225  -1.926   4.519   1.740 -2.0032 -1.3101 -1.1559
  517MOL0     H68226  -1.127   5.031   1.913  1.0061  0.7981  1.7371
  517MOL0     H68227  -0.907   5.132   2.004  1.3963 -1.6718  1.6752
  517MOL0     H68228  -0.293   5.003   1.930  0.6945 -2.7515  1.1662
  517MOL0     H68229  -0.131   5.033   2.086  0.4873 -0.2057  1.1088
  517MOL0     H68230   0.855   6.559   2.344 -1.8993 -1.7784  1.5307
  517MOL0     H68231   1.061   6.542   2.472 -1.4221  0.5891  1.7666
  517MOL0     H68232   1.587   6.225   2.412  0.4683  3.1197 -2.6442
  517MOL0     H68233   1.748   6.203   2.578 -0.3593 -0.9755 -0.3235
  517MOL0     H68234   1.861   6.525   2.752  0.5829 -0.3193  0.1216
  517MOL0     H68235   1.901   6.380   2.659  1.4988 -0.0615 -0.4219
  517MOL0     H68236   2.066   6.453   2.823 -1.2708  1.0370 -0.8144
  517MOL0     H68237   1.946   6.418   2.955 -0.7187  0.5468 -0.8930
  517MOL0     H68238   2.015   6.207   2.739 -0.8017 -0.0651  1.2770
  517MOL0     H68239   1.956   6.186   2.900  0.5937 -3.3406 -1.7085
  517MOL0     H68240   2.172   6.251   2.992 -1.0000  0.7200 -0.0483
  517MOL0     H68241   2.174   6.111   2.887 -2.3523 -0.4944  2.8363
  517MOL0     H68242   2.417   6.421   2.704 -0.7718  0.5899 -1.5642
  517MOL0     H68243   1.540   6.484   2.829  1.1015 -0.1020 -0.4640
  517MOL0     H68244   1.343   6.473   2.678  0.8057 -0.7214  2.6717
  518MOL0     O68245   7.395   7.072   3.097 -0.8198 -0.0207  0.0922
  518MOL0     C68246   7.331   7.175   3.126 -0.2754 -0.0422  0.1936
  518MOL0     O68247   7.357   7.307   3.079  1.0682 -0.3889 -0.3716
  518MOL0     C68248   7.455   7.340   2.997 -0.8289  0.2961  0.1683
  518MOL0     C68249   7.559   7.264   2.952  0.1062  0.4431 -0.4224
  518MOL0     C68250   7.648   7.316   2.862 -0.5579  0.1286 -0.1859
  518MOL0     C68251   7.652   7.455   2.831 -0.2366  0.0090 -0.0831
  518MOL0     O68252   7.742   7.515   2.746  0.1322  0.3982 -0.5223
  518MOL0     C68253   7.853   7.443   2.692 -0.4085  0.9564  0.3849
  518MOL0     C68254   7.799   7.344   2.585 -0.1016 -0.3984  0.2045
  518MOL0     C68255   7.896   7.222   2.564  0.6199  0.0838  0.2454
  518MOL0     C68256   8.047   7.252   2.550 -0.0682 -0.3519 -0.3426
  518MOL0     C68257   8.142   7.126   2.566  0.1418 -0.4130  0.8655
  518MOL0     C68258   8.116   7.026   2.457 -0.2005  0.8309 -0.1083
  518MOL0     C68259   8.199   6.898   2.469  0.3452  0.2104 -0.8211
  518MOL0     C68260   8.184   6.828   2.608  0.8512 -0.0231  0.4736
  518MOL0     N68261   8.040   6.786   2.630 -0.3167  0.0894 -0.5784
  518MOL0     C68262   7.963   6.858   2.721 -0.2386  0.3028 -0.3283
  518MOL0     C68263   7.836   6.820   2.693 -0.1297 -0.7714 -0.8428
  518MOL0     C68264   7.713   6.890   2.755  0.8052  0.7446 -0.0607
  518MOL0     C68265   7.619   6.777   2.801  0.4339  0.3904 -0.7058
  518MOL0     C68266   7.479   6.838   2.837 -0.2219 -0.3597  0.2491
  518MOL0     C68267   7.402   6.746   2.933  0.0354  0.0229  0.0036
  518MOL0     O68268   7.322   6.642   2.868  0.2174 -0.4597 -0.7791
  518MOL0     C68269   7.252   6.569   2.964 -0.6701  0.2232 -0.2161
  518MOL0     C68270   7.156   6.630   3.042  0.3101 -0.4604  0.2590
  518MOL0     C68271   7.057   6.564   3.115 -0.5078  0.8017  0.1997
  518MOL0     C68272   7.069   6.421   3.111  0.2054  0.6218 -0.0358
  518MOL0     C68273   6.968   6.341   3.184 -0.5223  0.4714 -0.2206
  518MOL0     O68274   6.840   6.406   3.223 -0.7568 -0.6794  0.2035
  518MOL0     C68275   6.730   6.335   3.244 -0.5732 -0.0889 -0.6158
  518MOL0     C68276   6.697   6.206   3.190  0.5968 -0.2870 -0.2965
  518MOL0     C68277   6.576   6.143   3.243 -0.1797  0.6910 -0.1150
  518MOL0     C68278   6.492   6.208   3.336 -0.7756 -0.1201  0.4801
  518MOL0     O68279   6.391   6.130   3.388  0.4496  0.0912 -0.1383
  518MOL0     C68280   6.290   6.106   3.286  0.0891 -0.3640 -0.0451
  518MOL0     C68281   6.262   5.964   3.258  0.6673 -0.1635  0.2336
  518MOL0     C68282   6.195   5.902   3.383 -0.2600 -0.1111  0.8565
  518MOL0     C68283   6.051   5.956   3.424 -0.1967  0.3829 -0.6738
  518MOL0     C68284   5.993   5.854   3.520 -0.2705 -0.6742 -0.4659
  518MOL0     C68285   5.855   5.889   3.572  0.4577  0.0100 -0.1568
  518MOL0     C68286   5.792   5.757   3.624 -0.1949  1.3601  0.1553
  518MOL0     C68287   5.648   5.777   3.681 -0.6304 -0.7725 -0.7181
  518MOL0    Cl68288   5.659   5.870   3.842 -0.0643 -0.1054 -0.4603
  518MOL0     C68289   6.533   6.329   3.396 -0.0272 -0.7674  0.1215
  518MOL0     C68290   6.647   6.391   3.342  1.4484  0.0514 -0.1265
  518MOL0     O68291   7.003   6.228   3.218 -0.1155 -0.5647  0.0741
  518MOL0     C68292   7.170   6.366   3.044 -0.3868  0.1087 -0.0907
  518MOL0     C68293   7.260   6.436   2.962 -0.0193 -0.2110 -0.6095
  518MOL0     N68294   7.838   6.730   2.592 -0.0349 -0.6481 -0.4732
  518MOL0     N68295   7.957   6.707   2.555  0.1130  0.6106  0.0266
  518MOL0     C68296   7.547   7.539   2.886 -0.4623  0.3999 -0.5972
  518MOL0     C68297   7.449   7.474   2.965 -0.2625 -0.9273  0.1862
  518MOL0     C68298   7.215   7.167   3.216 -0.3493  0.1662 -0.4509
  518MOL0     C68299   7.180   7.037   3.257  0.1317 -0.1651 -0.1356
  518MOL0     C68300   7.085   7.025   3.356 -0.7453  0.1907  0.2775
  518MOL0     C68301   7.022   7.134   3.420  0.3416  0.8644 -1.1882
  518MOL0     O68302   6.932   7.119   3.525 -0.3479  0.4666 -0.1355
  518MOL0     C68303   6.919   6.993   3.591  0.3852  0.6481 -0.3657
  518MOL0     C68304   6.840   7.006   3.724 -0.3167 -0.2138 -0.1837
  518MOL0     C68305   6.906   7.100   3.822 -0.2640 -0.1196 -0.5638
  518MOL0     C68306   6.812   7.126   3.942 -0.9378 -0.9572  1.2660
  518MOL0     C68307   6.887   7.198   4.047  0.5259 -0.0486  0.4019
  518MOL0     C68308   6.953   7.249   4.131  0.3673 -0.0625 -0.1258
  518MOL0     C68309   7.045   7.262   3.372  0.5565 -0.4065  0.2529
  518MOL0     C68310   7.147   7.280   3.276  0.4487 -0.3329 -0.0994
  518MOL0     H68311   7.567   7.156   2.958 -0.5844  0.1679 -3.1182
  518MOL0     H68312   7.728   7.249   2.832  0.7451  1.4456  0.2127
  518MOL0     H68313   7.894   7.387   2.776 -2.5323 -0.4784  0.5554
  518MOL0     H68314   7.932   7.509   2.657  0.8867  0.3109  1.9733
  518MOL0     H68315   7.804   7.406   2.495 -0.3639  0.1835  0.5851
  518MOL0     H68316   7.695   7.310   2.597 -0.4601 -0.2154 -2.0121
  518MOL0     H68317   7.855   7.166   2.480 -1.3729  1.5458  0.1622
  518MOL0     H68318   7.887   7.151   2.647 -1.6292 -0.4532 -0.3930
  518MOL0     H68319   8.069   7.305   2.457 -2.0264  2.6348  0.7311
  518MOL0     H68320   8.075   7.340   2.609  0.7665  1.7989 -3.6991
  518MOL0     H68321   8.123   7.088   2.667 -0.4507 -0.7869  0.6200
  518MOL0     H68322   8.249   7.151   2.562  0.5982 -1.9493  2.1278
  518MOL0     H68323   8.136   7.078   2.363  0.2631  0.0912 -0.4251
  518MOL0     H68324   8.010   7.002   2.442 -1.1777  3.4573  1.7315
  518MOL0     H68325   8.185   6.825   2.390  1.5078 -2.2393  1.0871
  518MOL0     H68326   8.300   6.934   2.446 -0.0224  1.2272 -0.9007
  518MOL0     H68327   8.200   6.900   2.688  2.4686  1.5484 -1.1755
  518MOL0     H68328   8.260   6.752   2.632  0.9446  0.4057  1.6189
  518MOL0     H68329   7.995   6.931   2.795 -1.4863 -1.4281  2.0691
  518MOL0     H68330   7.667   6.962   2.686 -0.3788 -0.5108 -0.6271
  518MOL0     H68331   7.736   6.956   2.840 -0.5532  2.4442 -0.9318
  518MOL0     H68332   7.660   6.712   2.878  1.5057  0.9105 -0.8271
  518MOL0     H68333   7.611   6.714   2.712 -0.0807  0.2225 -0.5447
  518MOL0     H68334   7.499   6.934   2.884  0.0023 -0.7667  1.0162
  518MOL0     H68335   7.426   6.855   2.743 -2.2284  1.4081  1.6208
  518MOL0     H68336   7.336   6.812   2.991 -0.1600  0.8225 -1.0979
  518MOL0     H68337   7.474   6.708   3.006  1.7936  2.4648 -0.3232
  518MOL0     H68338   7.139   6.737   3.032  0.0342 -0.3452  1.7178
  518MOL0     H68339   6.978   6.610   3.172  1.8861  4.6250  0.7448
  518MOL0     H68340   6.753   6.147   3.118  1.6495 -1.7733  1.6408
  518MOL0     H68341   6.547   6.046   3.202 -2.6658  1.0008  0.7455
  518MOL0     H68342   6.306   6.158   3.192  2.7211  1.7891  1.4220
  518MOL0     H68343   6.199   6.160   3.313 -0.0927 -0.5572 -0.2653
  518MOL0     H68344   6.351   5.903   3.241  0.7760  0.5736 -2.1375
  518MOL0     H68345   6.189   5.960   3.177 -0.4265 -0.0408  1.1782
  518MOL0     H68346   6.265   5.921   3.465 -0.7123  1.6604  0.8900
  518MOL0     H68347   6.181   5.794   3.371 -2.4002  0.1450  0.6823
  518MOL0     H68348   6.066   6.056   3.465 -1.3047  0.2679  0.0586
  518MOL0     H68349   5.995   5.966   3.330 -1.0811  0.6774 -0.1295
  518MOL0     H68350   6.054   5.832   3.608  1.7047  2.5958 -0.8394
  518MOL0     H68351   5.987   5.762   3.461  0.6143 -1.2385  0.2936
  518MOL0     H68352   5.797   5.921   3.485 -0.6604  0.7224  0.8208
  518MOL0     H68353   5.847   5.957   3.657  1.8321 -2.2046  1.8932
  518MOL0     H68354   5.782   5.677   3.550  4.1509  0.1115  0.6447
  518MOL0     H68355   5.851   5.719   3.708 -2.2016  0.1381  1.1020
  518MOL0     H68356   5.602   5.682   3.710  1.6708 -1.1608  2.1710
  518MOL0     H68357   5.585   5.824   3.606 -1.0727 -0.7510 -0.3367
  518MOL0     H68358   6.474   6.375   3.475 -3.4954 -3.2677 -0.8139
  518MOL0     H68359   6.679   6.481   3.392  3.3311 -0.4291 -0.3773
  518MOL0     H68360   7.171   6.258   3.037  0.2536  0.1033  0.0922
  518MOL0     H68361   7.335   6.381   2.905  0.6942 -1.9576  1.8074
  518MOL0     H68362   7.541   7.647   2.874 -2.7760  0.7083  2.2852
  518MOL0     H68363   7.361   7.530   2.995  0.9693  0.5809  1.1184
  518MOL0     H68364   7.226   6.945   3.221  0.0069 -0.6018  0.7894
  518MOL0     H68365   7.060   6.921   3.376 -4.4131  0.6206 -1.2704
  518MOL0     H68366   7.015   6.943   3.607 -0.8729 -2.0471 -0.6141
  518MOL0     H68367   6.859   6.943   3.515  3.0104 -0.4474 -1.8652
  518MOL0     H68368   6.744   7.047   3.693 -1.1812 -2.5933 -0.9001
  518MOL0     H68369   6.829   6.906   3.768 -3.0609 -0.4151 -1.1583
  518MOL0     H68370   6.921   7.203   3.787 -0.2272  0.3122  0.6467
  518MOL0     H68371   7.001   7.065   3.864 -1.0730 -0.2193  1.2920
  518MOL0     H68372   6.730   7.192   3.914  0.1613  0.9856  2.4036
  518MOL0     H68373   6.766   7.033   3.975 -1.2730 -0.7369  1.4218
  518MOL0     H68374   7.010   7.298   4.207 -1.6693  0.3308  1.2373
  518MOL0     H68375   7.010   7.347   3.429 -0.0174 -0.8270  0.5439
  518MOL0     H68376   7.178   7.382   3.254  0.4418 -0.4763 -0.7770
  519MOL0     O68377   1.195   8.550   3.264 -0.0005  0.2102  0.6403
  519MOL0     C68378   1.164   8.509   3.372 -0.2159  0.9839  0.5226
  519MOL0     O68379   1.054   8.557   3.435 -0.1860  0.1363  0.0552
  519MOL0     C68380   0.976   8.653   3.383 -0.2786  0.3204  0.2705
  519MOL0     C68381   1.023   8.781   3.372 -0.1898  0.3274 -1.2169
  519MOL0     C68382   0.935   8.884   3.333 -0.1562 -0.0222  0.6020
  519MOL0     C68383   0.804   8.855   3.292  0.3546 -0.9724 -0.1916
  519MOL0     O68384   0.719   8.958   3.256 -0.0843  0.0361 -0.8693
  519MOL0     C68385   0.754   9.046   3.146  0.4172  0.6466 -0.0088
  519MOL0     C68386   0.633   9.136   3.121  0.1804  0.4247  0.5761
  519MOL0     C68387   0.650   9.257   3.021  0.3182 -1.1363 -0.1322
  519MOL0     C68388   0.709   9.216   2.892  0.1689  0.8745  0.2136
  519MOL0     C68389   0.689   9.302   2.771  0.5589  0.0154  0.0759
  519MOL0     C68390   0.716   9.446   2.803  0.1590 -0.2563 -0.1822
  519MOL0     C68391   0.712   9.532   2.679 -1.0854  0.2632 -0.7877
  519MOL0     C68392   0.719   9.690   2.690 -0.0619 -0.4147  0.1431
  519MOL0     N68393   0.643   9.748   2.796  0.0967 -0.3757 -0.1688
  519MOL0     C68394   0.688   9.774   2.929 -0.8243  0.0654  0.1330
  519MOL0     C68395   0.571   9.800   2.987  0.2828 -0.8298 -0.3374
  519MOL0     C68396   0.548   9.810   3.135  0.0869  0.6359 -0.1952
  519MOL0     C68397   0.640   9.901   3.216 -0.4571 -0.8496  1.0240
  519MOL0     C68398   0.591   9.919   3.356  0.7828  0.4168  0.5962
  519MOL0     C68399   0.638   9.804   3.449 -0.0129 -0.0605 -0.3361
  519MOL0     O68400   0.780   9.790   3.453 -0.6539 -0.0691  0.4469
  519MOL0     C68401   0.842   9.710   3.528 -0.0732  0.8105 -0.2031
  519MOL0     C68402   0.977   9.690   3.515  0.1959  0.0891 -0.7458
  519MOL0     C68403   1.050   9.603   3.597 -0.7234 -0.2124  0.2338
  519MOL0     C68404   0.983   9.538   3.694  0.1232  0.2633 -0.5757
  519MOL0     C68405   1.058   9.451   3.785  0.0459  0.7945 -1.0580
  519MOL0     O68406   0.973   9.365   3.855 -0.0294 -0.1890 -0.9652
  519MOL0     C68407   1.024   9.266   3.943 -0.9458 -0.0884 -1.4766
  519MOL0     C68408   0.971   9.136   3.945  0.2764  0.1500 -0.4432
  519MOL0     C68409   1.017   9.038   4.028 -0.5055 -0.0790 -0.0876
  519MOL0     C68410   1.126   9.056   4.112  0.6267  0.5761  0.1341
  519MOL0     O68411   1.166   8.953   4.200  0.4808  0.0966  0.7040
  519MOL0     C68412   1.303   8.947   4.241  0.7939 -0.5462  0.4054
  519MOL0     C68413   1.310   8.972   4.399 -0.5168 -0.4427 -0.8559
  519MOL0     C68414   1.454   8.932   4.448 -0.0827 -1.4430  0.3179
  519MOL0     C68415   1.465   8.936   4.601 -0.3816 -0.3713 -0.5170
  519MOL0     C68416   1.609   8.974   4.646 -0.3035  1.0472  0.5811
  519MOL0     C68417   1.723   8.879   4.594  0.0784 -0.3591 -0.0543
  519MOL0     C68418   1.860   8.894   4.664  1.1260 -0.2512  1.4494
  519MOL0     C68419   1.954   8.779   4.609  0.1358 -1.1160  0.7516
  519MOL0    Cl68420   2.021   8.811   4.449  0.1842 -0.6011  0.0406
  519MOL0     C68421   1.177   9.187   4.116  0.2658 -0.3663 -0.4345
  519MOL0     C68422   1.135   9.292   4.031  0.6720 -0.1201  1.0151
  519MOL0     O68423   1.181   9.448   3.791  0.1455  0.1913 -0.4193
  519MOL0     C68424   0.848   9.569   3.716  0.5895  0.2085 -1.1617
  519MOL0     C68425   0.771   9.655   3.636 -0.3760  0.3209 -0.3197
  519MOL0     N68426   0.460   9.791   2.906  0.1973 -0.0784  0.5872
  519MOL0     N68427   0.506   9.770   2.784  0.3189  0.8923 -0.2758
  519MOL0     C68428   0.767   8.722   3.284  0.8054 -0.2996 -0.4742
  519MOL0     C68429   0.848   8.629   3.341  0.4976  0.5326  0.7825
  519MOL0     C68430   1.244   8.403   3.435  0.1395 -0.1605 -0.8657
  519MOL0     C68431   1.190   8.339   3.553 -0.5735 -0.7319  0.4027
  519MOL0     C68432   1.262   8.249   3.617 -0.1538 -0.5748 -1.1547
  519MOL0     C68433   1.390   8.218   3.579 -0.4121 -0.0814  0.1652
  519MOL0     O68434   1.461   8.129   3.654  0.1277  0.0318  0.0052
  519MOL0     C68435   1.464   7.995   3.593 -0.5989 -0.1458 -1.3109
  519MOL0     C68436   1.534   7.899   3.687 -0.1379 -0.4165  1.1169
  519MOL0     C68437   1.687   7.924   3.688  0.5424 -0.0888  0.1911
  519MOL0     C68438   1.750   7.909   3.547 -0.0568 -0.2183  0.5492
  519MOL0     C68439   1.720   7.767   3.509  0.1653  0.2180 -0.5239
  519MOL0     C68440   1.687   7.653   3.492 -0.3254 -0.3454  0.0612
  519MOL0     C68441   1.438   8.269   3.454 -0.7249  0.4603 -1.0508
  519MOL0     C68442   1.356   8.351   3.375  0.1806  0.1133  0.8988
  519MOL0     H68443   1.123   8.812   3.401  0.2344 -0.5000 -1.7498
  519MOL0     H68444   0.970   8.987   3.335 -1.6165  0.4890  2.4885
  519MOL0     H68445   0.787   8.982   3.064 -1.4501 -3.8584  2.4185
  519MOL0     H68446   0.838   9.106   3.182  1.1468 -0.7736  0.7732
  519MOL0     H68447   0.608   9.166   3.224  2.3951 -3.1222  2.3535
  519MOL0     H68448   0.553   9.068   3.092 -1.8553  3.4490 -1.5298
  519MOL0     H68449   0.693   9.348   3.064 -1.5479  0.6893 -1.9015
  519MOL0     H68450   0.551   9.297   2.997  1.3843  0.9587 -1.2412
  519MOL0     H68451   0.811   9.190   2.920  0.0098  2.4542  2.5365
  519MOL0     H68452   0.674   9.114   2.874  1.1782 -0.1132  3.1609
  519MOL0     H68453   0.586   9.303   2.736  1.7540 -1.7194 -4.1524
  519MOL0     H68454   0.747   9.258   2.689 -0.6702 -6.4575  2.1358
  519MOL0     H68455   0.811   9.454   2.857  0.4275 -0.1997 -0.6512
  519MOL0     H68456   0.637   9.487   2.866 -2.1156 -2.2948 -1.5485
  519MOL0     H68457   0.781   9.497   2.602  0.8577  0.2009  0.9037
  519MOL0     H68458   0.607   9.520   2.648 -1.4911  0.6472  0.3674
  519MOL0     H68459   0.700   9.731   2.590  1.1136 -2.0925 -0.8273
  519MOL0     H68460   0.822   9.724   2.698 -0.8559  1.9028  1.3826
  519MOL0     H68461   0.790   9.785   2.966 -1.3860 -1.9238  2.5523
  519MOL0     H68462   0.539   9.706   3.167  0.7372  0.4643 -0.5733
  519MOL0     H68463   0.448   9.851   3.151  0.5989  2.0517 -0.4977
  519MOL0     H68464   0.634  10.002   3.175 -2.1714 -1.3686 -0.1520
  519MOL0     H68465   0.744   9.867   3.213 -0.1859 -0.1166  1.8716
  519MOL0     H68466   0.630  10.017   3.388  2.3421 -0.0630  0.2540
  519MOL0     H68467   0.485   9.945   3.358  1.5561  4.5537 -1.1219
  519MOL0     H68468   0.593   9.705   3.432  0.4996 -0.3220 -0.1893
  519MOL0     H68469   0.610   9.831   3.551 -3.1310  1.8394 -1.5476
  519MOL0     H68470   1.020   9.742   3.430 -0.5705 -0.0403 -1.2181
  519MOL0     H68471   1.157   9.598   3.578 -0.9649 -1.3188 -0.9112
  519MOL0     H68472   0.883   9.146   3.882 -1.0022  4.5060  1.6436
  519MOL0     H68473   0.975   8.938   4.041 -1.8578  0.6564  1.6201
  519MOL0     H68474   1.367   9.022   4.195  0.2681  0.4755  1.2911
  519MOL0     H68475   1.357   8.854   4.222  1.1001 -0.1097 -0.9297
  519MOL0     H68476   1.228   8.921   4.451 -1.7341  2.7356  0.5691
  519MOL0     H68477   1.298   9.075   4.431  0.4834 -1.2304  2.3453
  519MOL0     H68478   1.525   9.004   4.406 -3.9339  1.2094 -2.1998
  519MOL0     H68479   1.488   8.836   4.408  0.5954 -0.8183 -0.6630
  519MOL0     H68480   1.398   9.009   4.646  2.5115  1.4216  1.1728
  519MOL0     H68481   1.439   8.838   4.642 -0.6349  0.0135  0.2491
  519MOL0     H68482   1.600   8.961   4.754  1.0486 -0.3745  0.5494
  519MOL0     H68483   1.642   9.076   4.628 -0.5151  1.3496  1.8070
  519MOL0     H68484   1.734   8.884   4.485  2.4527 -6.5722 -0.4611
  519MOL0     H68485   1.693   8.774   4.600  0.4960 -0.5859 -1.5927
  519MOL0     H68486   1.909   8.985   4.628  2.6031 -1.4213  0.3402
  519MOL0     H68487   1.854   8.895   4.773  1.1666  1.7194  1.4749
  519MOL0     H68488   1.894   8.688   4.605  2.1983 -2.4897 -0.6123
  519MOL0     H68489   2.038   8.769   4.679 -0.4231 -0.4992  1.5370
  519MOL0     H68490   1.260   9.200   4.184 -2.3425  0.4534  2.8590
  519MOL0     H68491   1.180   9.388   4.053 -0.8872 -0.0163  4.4575
  519MOL0     H68492   0.801   9.523   3.802  0.3376  0.2231 -1.2903
  519MOL0     H68493   0.664   9.668   3.649 -0.2259  3.1262 -1.1714
  519MOL0     H68494   0.673   8.694   3.237  2.0882 -1.8351 -2.2942
  519MOL0     H68495   0.814   8.526   3.344 -0.8552  0.8216 -1.5001
  519MOL0     H68496   1.091   8.359   3.592  1.4382  1.2771  5.3133
  519MOL0     H68497   1.236   8.203   3.712  0.2761  2.2713  0.4473
  519MOL0     H68498   1.504   7.996   3.491 -1.0975 -0.5345 -1.5100
  519MOL0     H68499   1.359   7.967   3.591 -1.6014  2.8888  1.0047
  519MOL0     H68500   1.505   7.897   3.793  1.1216  1.6132  1.5687
  519MOL0     H68501   1.510   7.794   3.669 -0.6890 -0.4817  2.1038
  519MOL0     H68502   1.737   7.856   3.758 -1.1527 -2.0795 -0.4466
  519MOL0     H68503   1.695   8.027   3.725  1.4611 -0.8846  2.3612
  519MOL0     H68504   1.707   7.979   3.474  1.6533 -0.1345 -0.4247
  519MOL0     H68505   1.857   7.933   3.553 -0.2151  0.7576 -0.2457
  519MOL0     H68506   1.672   7.549   3.469  2.2902 -0.7133 -0.2247
  519MOL0     H68507   1.539   8.244   3.425  0.6344  0.9894  2.6685
  519MOL0     H68508   1.382   8.388   3.277 -1.1720 -0.0120  0.4745
  520MOL0     O68509   1.104   4.856   2.143  0.7105 -0.0510  0.3116
  520MOL0     C68510   1.124   4.890   2.028 -0.3525  0.6738 -0.1462
  520MOL0     O68511   1.248   4.899   1.969 -0.2485 -0.2041 -0.0558
  520MOL0     C68512   1.363   4.883   2.047 -0.3026  0.0711 -0.2508
  520MOL0     C68513   1.382   4.820   2.171  0.2263  0.6233  0.2259
  520MOL0     C68514   1.502   4.821   2.236 -0.3518  0.3360  0.7129
  520MOL0     C68515   1.610   4.897   2.179 -0.0553  0.5670 -1.0226
  520MOL0     O68516   1.716   4.906   2.266  0.0049 -0.5920  0.0853
  520MOL0     C68517   1.822   4.991   2.214  0.5345  1.0041  0.1901
  520MOL0     C68518   1.916   5.010   2.332 -0.2483 -0.0589 -0.9684
  520MOL0     C68519   2.043   5.083   2.293 -0.5590 -0.2638  0.3044
  520MOL0     C68520   2.110   5.110   2.420 -0.7910  0.4713 -1.5655
  520MOL0     C68521   2.175   4.988   2.491  0.0992 -0.2454  0.5982
  520MOL0     C68522   2.255   5.038   2.604  0.2768  0.3636 -0.4840
  520MOL0     C68523   2.175   5.031   2.730  0.0003 -0.2091  0.5723
  520MOL0     C68524   2.252   5.071   2.861  0.1267 -0.1976  0.3800
  520MOL0     N68525   2.302   4.967   2.938  0.0568  0.0293 -0.9132
  520MOL0     C68526   2.266   4.940   3.066 -0.8286  0.5241 -0.2181
  520MOL0     C68527   2.354   4.849   3.114  0.0031 -0.2536 -0.2998
  520MOL0     C68528   2.351   4.795   3.252 -0.2586 -0.8093  0.4563
  520MOL0     C68529   2.462   4.855   3.325  0.4443 -0.6469 -0.2736
  520MOL0     C68530   2.484   4.783   3.461 -0.3422  0.1945 -0.0680
  520MOL0     C68531   2.614   4.828   3.524 -1.8040 -0.5681 -0.0316
  520MOL0     O68532   2.732   4.776   3.463  0.6927  0.7054 -0.7370
  520MOL0     C68533   2.844   4.857   3.463  0.4064 -0.7133 -0.8538
  520MOL0     C68534   2.919   4.875   3.348  1.5687  0.4778  0.0888
  520MOL0     C68535   3.039   4.927   3.348  0.4198 -0.4212 -0.0161
  520MOL0     C68536   3.091   4.982   3.467  0.3545 -0.5146 -0.0968
  520MOL0     C68537   3.226   5.041   3.465 -0.7702  0.1366 -0.0119
  520MOL0     O68538   3.283   5.051   3.342 -0.1626 -0.3268 -0.0894
  520MOL0     C68539   3.399   5.130   3.327 -0.2112 -0.4105 -0.6768
  520MOL0     C68540   3.513   5.087   3.397  0.6015 -0.5782 -0.0006
  520MOL0     C68541   3.634   5.147   3.392  0.6839 -0.1314  0.0711
  520MOL0     C68542   3.647   5.266   3.311 -0.3616  0.3866 -0.0319
  520MOL0     O68543   3.764   5.334   3.292  0.5549  0.1785 -0.6284
  520MOL0     C68544   3.845   5.353   3.405  1.0035 -0.4261  0.2806
  520MOL0     C68545   3.967   5.455   3.355  1.3751  0.1050 -0.5764
  520MOL0     C68546   4.054   5.476   3.471 -0.0186  0.9159  0.0688
  520MOL0     C68547   4.188   5.540   3.427  0.5997 -0.4539 -0.1941
  520MOL0     C68548   4.294   5.565   3.539 -0.2973 -0.4214 -0.2754
  520MOL0     C68549   4.417   5.476   3.515  0.1991  0.7302 -0.0794
  520MOL0     C68550   4.514   5.513   3.636  0.1616  0.3039  0.6714
  520MOL0     C68551   4.670   5.487   3.621  0.1307 -0.8911  0.8103
  520MOL0    Cl68552   4.693   5.309   3.616 -0.0785  0.0639  0.4068
  520MOL0     C68553   3.537   5.313   3.239  0.7198  0.6464  0.4148
  520MOL0     C68554   3.416   5.245   3.248 -0.5237 -0.5456 -0.3501
  520MOL0     O68555   3.281   5.078   3.573  0.6120 -0.2655 -0.4515
  520MOL0     C68556   3.018   4.979   3.581  0.6726 -0.8064 -0.9672
  520MOL0     C68557   2.892   4.923   3.584 -0.5382  0.6481 -0.8811
  520MOL0     N68558   2.442   4.815   3.009  0.5045 -0.6700 -0.6752
  520MOL0     N68559   2.415   4.890   2.910  0.0084 -0.6040  1.0590
  520MOL0     C68560   1.594   4.950   2.049 -0.1046 -0.6910 -0.7091
  520MOL0     C68561   1.472   4.947   1.988  0.0051 -0.5237  0.2291
  520MOL0     C68562   1.009   4.890   1.945  0.2999  0.0122 -0.3926
  520MOL0     C68563   1.017   4.932   1.807 -0.4899  0.1627  0.2054
  520MOL0     C68564   0.904   4.933   1.726 -0.0049 -0.0205  0.0876
  520MOL0     C68565   0.776   4.900   1.783 -0.6775 -0.0631 -0.8813
  520MOL0     O68566   0.674   4.921   1.699 -0.1318 -0.1676  0.7582
  520MOL0     C68567   0.545   4.877   1.743  0.0250 -0.2940 -0.4301
  520MOL0     C68568   0.480   4.797   1.637  0.3002 -0.8861 -0.2793
  520MOL0     C68569   0.332   4.772   1.669 -1.1535 -0.8390 -0.1608
  520MOL0     C68570   0.265   4.687   1.561  0.5957 -0.0682 -0.3902
  520MOL0     C68571   0.120   4.704   1.581 -0.4441 -0.0212  0.3242
  520MOL0     C68572   0.000   4.707   1.596 -0.0609  0.2164 -0.3587
  520MOL0     C68573   0.771   4.872   1.915  0.4652 -0.7373 -0.0216
  520MOL0     C68574   0.882   4.874   2.001 -0.3539  0.3656  0.4837
  520MOL0     H68575   1.298   4.760   2.207 -1.8345  1.8837 -2.1557
  520MOL0     H68576   1.518   4.775   2.332  0.6240  0.5035  0.6438
  520MOL0     H68577   1.788   5.083   2.166 -1.6048 -0.1177 -0.5735
  520MOL0     H68578   1.865   4.933   2.132 -0.8825 -0.6753  0.5652
  520MOL0     H68579   1.941   4.918   2.386 -1.3004  0.1303 -0.1203
  520MOL0     H68580   1.855   5.069   2.401 -0.3582 -1.2995  0.0398
  520MOL0     H68581   2.014   5.171   2.235  1.1238 -0.9302 -1.7003
  520MOL0     H68582   2.110   5.018   2.235  2.5696  1.5873  1.5617
  520MOL0     H68583   2.191   5.178   2.392 -1.4477  1.1816 -1.7501
  520MOL0     H68584   2.042   5.144   2.498 -0.8161 -3.6567  0.4928
  520MOL0     H68585   2.243   4.937   2.422 -1.0816 -0.4528 -0.4588
  520MOL0     H68586   2.100   4.913   2.520  1.6265 -2.5832 -1.1028
  520MOL0     H68587   2.289   5.140   2.586  2.9534  0.2778  3.0018
  520MOL0     H68588   2.334   4.962   2.607 -1.0289 -1.2090 -2.8898
  520MOL0     H68589   2.087   5.096   2.724 -1.9755 -2.4088  3.0667
  520MOL0     H68590   2.135   4.933   2.758 -0.5516 -1.0395 -2.7064
  520MOL0     H68591   2.202   5.145   2.924  2.6221  2.5471 -0.6156
  520MOL0     H68592   2.338   5.130   2.826 -1.0843  1.6585  0.4177
  520MOL0     H68593   2.190   4.989   3.127 -0.3938  1.0962 -0.1224
  520MOL0     H68594   2.359   4.686   3.246 -0.8680 -0.8452 -5.3033
  520MOL0     H68595   2.260   4.823   3.306  1.4713  0.5330  2.8846
  520MOL0     H68596   2.417   4.954   3.341  0.4603 -0.9806  2.2583
  520MOL0     H68597   2.556   4.861   3.269 -0.2589  2.8729 -1.3493
  520MOL0     H68598   2.405   4.811   3.531  1.6347 -1.3011  2.9625
  520MOL0     H68599   2.496   4.676   3.446  0.4456  0.4258 -1.2074
  520MOL0     H68600   2.610   4.797   3.629 -2.3371  0.1294  0.1599
  520MOL0     H68601   2.621   4.937   3.534  0.2694 -0.5548 -0.9305
  520MOL0     H68602   2.896   4.830   3.252  0.4431 -1.8620  1.3555
  520MOL0     H68603   3.104   4.939   3.262 -0.0866 -2.0242 -0.6400
  520MOL0     H68604   3.512   4.992   3.448 -1.5767 -1.8058 -2.1190
  520MOL0     H68605   3.714   5.093   3.440 -1.6052 -1.1531  3.0361
  520MOL0     H68606   3.891   5.258   3.433 -1.6893 -0.8086  4.1764
  520MOL0     H68607   3.793   5.400   3.489  2.4327 -0.4477  1.2234
  520MOL0     H68608   3.926   5.549   3.318 -0.2904  0.4703  1.9629
  520MOL0     H68609   4.022   5.400   3.277  2.0958 -0.1279  0.0786
  520MOL0     H68610   4.078   5.377   3.509  0.7686  0.7970 -0.7105
  520MOL0     H68611   4.016   5.544   3.548 -0.5252  0.7676 -0.0467
  520MOL0     H68612   4.236   5.483   3.346  0.2387 -3.2978  1.4306
  520MOL0     H68613   4.165   5.640   3.391  0.1681 -0.3843  0.2647
  520MOL0     H68614   4.243   5.558   3.635 -2.2119  2.5384 -0.9390
  520MOL0     H68615   4.325   5.668   3.520 -0.2414 -0.3529  0.1851
  520MOL0     H68616   4.471   5.483   3.421  2.1696 -1.6401  0.7560
  520MOL0     H68617   4.376   5.375   3.524  0.7985  0.4078 -0.8469
  520MOL0     H68618   4.503   5.621   3.654 -1.7872  0.5757 -1.6579
  520MOL0     H68619   4.479   5.467   3.729 -1.5061 -3.1033 -1.4744
  520MOL0     H68620   4.733   5.532   3.699  0.2502  2.2074 -0.8850
  520MOL0     H68621   4.706   5.530   3.527 -0.8809 -0.4584  0.6103
  520MOL0     H68622   3.565   5.394   3.173 -2.6740  1.3499 -0.3828
  520MOL0     H68623   3.334   5.273   3.182  0.3310 -1.4684 -1.8427
  520MOL0     H68624   3.050   5.021   3.676  1.5395 -0.1223 -1.5471
  520MOL0     H68625   2.838   4.925   3.678 -2.0166 -1.1433 -1.6484
  520MOL0     H68626   1.678   4.997   1.999  1.8172 -4.4318 -1.4123
  520MOL0     H68627   1.460   4.980   1.885 -0.2878 -0.1374  0.3853
  520MOL0     H68628   1.115   4.946   1.763 -0.2771 -1.8285 -0.0506
  520MOL0     H68629   0.922   4.948   1.620  0.1333  2.6391  0.4383
  520MOL0     H68630   0.477   4.961   1.762 -0.9179 -1.1389  0.0365
  520MOL0     H68631   0.537   4.820   1.836  0.1537  0.3002 -0.0444
  520MOL0     H68632   0.491   4.856   1.545 -0.7251  0.2849  0.3201
  520MOL0     H68633   0.531   4.700   1.632  0.1968 -1.0733  1.4905
  520MOL0     H68634   0.291   4.872   1.689  0.5395 -0.1697  0.1437
  520MOL0     H68635   0.327   4.713   1.760  3.1843 -0.4537  0.5595
  520MOL0     H68636   0.288   4.713   1.457  0.1390  0.2684 -0.4134
  520MOL0     H68637   0.313   4.589   1.560  2.1965  0.6904 -1.2347
  520MOL0     H68638  -0.104   4.694   1.620  0.2982  1.6941  2.4333
  520MOL0     H68639   0.677   4.857   1.967  0.3921  0.7966  0.3336
  520MOL0     H68640   0.866   4.839   2.103  2.2860  1.3001  1.2946
  521MOL0     O68641  10.983   2.701   3.029 -0.3290  0.1914 -0.0925
  521MOL0     C68642  10.972   2.805   2.970  0.5417 -0.4025  0.1663
  521MOL0     O68643  11.065   2.899   2.962  0.0670 -0.1330 -0.5084
  521MOL0     C68644  11.178   2.889   3.043 -0.1221  0.1262  0.0326
  521MOL0     C68645  11.268   2.775   3.038  0.2056 -0.5244  0.0167
  521MOL0     C68646  11.390   2.786   3.110  0.2528 -0.1436  0.2894
  521MOL0     C68647  11.427   2.902   3.180  0.4041  0.6631  1.0964
  521MOL0     O68648  11.539   2.913   3.244 -0.1708 -0.2368 -0.2539
  521MOL0     C68649  11.633   2.799   3.256 -0.4618 -0.9173  0.1825
  521MOL0     C68650  11.764   2.847   3.319 -0.3244 -0.1316  0.3576
  521MOL0     C68651  11.872   2.740   3.310  0.2076 -0.1327 -0.4437
  521MOL0     C68652  11.983   2.770   3.404 -0.7876 -0.2505 -0.6566
  521MOL0     C68653  12.099   2.667   3.406  1.0575 -0.3701  0.4754
  521MOL0     C68654  12.043   2.528   3.436  0.3722  0.4054 -0.7352
  521MOL0     C68655  12.168   2.440   3.478 -0.0759  0.5748  0.1013
  521MOL0     C68656  12.134   2.288   3.487  0.7505  0.1123  0.4963
  521MOL0     N68657  12.085   2.241   3.355 -0.3713 -0.6871  0.9185
  521MOL0     C68658  11.978   2.159   3.344 -0.5962  1.0013 -0.6361
  521MOL0     C68659  11.990   2.098   3.224 -0.0769 -0.1331  1.0038
  521MOL0     C68660  11.911   1.981   3.172 -0.0354  0.0132 -0.5543
  521MOL0     C68661  11.787   2.021   3.099 -0.5235 -0.3258  0.8585
  521MOL0     C68662  11.718   1.902   3.039 -0.4975 -1.2055 -0.8788
  521MOL0     C68663  11.593   1.920   2.964  0.5660 -0.6934 -0.5424
  521MOL0     O68664  11.569   1.805   2.889  1.3097  0.1350  0.1597
  521MOL0     C68665  11.449   1.808   2.823 -0.2895  0.8505 -0.2051
  521MOL0     C68666  11.428   1.698   2.734  0.4233 -0.0755  0.1688
  521MOL0     C68667  11.310   1.680   2.668 -0.0014  0.4043 -0.6883
  521MOL0     C68668  11.202   1.767   2.696  0.8610  0.4468 -0.0677
  521MOL0     C68669  11.067   1.751   2.643 -0.3805 -0.0684 -0.8167
  521MOL0     O68670  10.968   1.845   2.666  0.7793  0.1092 -0.7077
  521MOL0     C68671  10.837   1.840   2.610 -0.5178 -0.3696 -0.5827
  521MOL0     C68672  10.766   1.949   2.648 -0.4618  0.0116 -0.1421
  521MOL0     C68673  10.626   1.957   2.634  0.0267  0.7930  0.4692
  521MOL0     C68674  10.562   1.855   2.556  0.6119  0.0745  0.4087
  521MOL0     O68675  10.426   1.846   2.525 -0.1393 -0.5450 -0.3070
  521MOL0     C68676  10.343   1.966   2.534 -0.5500  0.3992  0.4824
  521MOL0     C68677  10.213   1.950   2.460 -0.1954  0.5227  0.5611
  521MOL0     C68678  10.133   2.083   2.465  1.3316  0.0347 -0.6212
  521MOL0     C68679   9.992   2.054   2.396 -0.6447  0.1603  0.4400
  521MOL0     C68680   9.951   2.172   2.309 -1.1801  0.2795 -0.0451
  521MOL0     C68681   9.934   2.299   2.394  0.5470 -0.0406  0.5923
  521MOL0     C68682   9.858   2.410   2.314 -0.0848 -0.0972 -0.4024
  521MOL0     C68683   9.807   2.534   2.397 -0.8066  0.7926  0.8248
  521MOL0    Cl68684   9.681   2.500   2.527  0.3167  0.2118 -0.2597
  521MOL0     C68685  10.636   1.747   2.511 -1.5198  0.3327  0.7919
  521MOL0     C68686  10.773   1.738   2.534 -0.2406  0.4830 -0.3985
  521MOL0     O68687  11.062   1.664   2.564  0.7537 -0.5150  0.5500
  521MOL0     C68688  11.225   1.879   2.777  0.5609  0.2487  1.1837
  521MOL0     C68689  11.345   1.900   2.848  0.4358 -0.0619 -0.6231
  521MOL0     N68690  12.092   2.164   3.154 -0.6543 -0.5266  0.4317
  521MOL0     N68691  12.148   2.247   3.233  0.7241 -0.6046  0.2326
  521MOL0     C68692  11.336   3.004   3.187 -0.5139  0.0728  0.3424
  521MOL0     C68693  11.213   3.004   3.120 -0.2117 -0.3638 -0.1272
  521MOL0     C68694  10.850   2.838   2.891  0.5956 -0.4374 -0.2768
  521MOL0     C68695  10.754   2.741   2.859 -0.3736  0.1873  0.3800
  521MOL0     C68696  10.631   2.781   2.811  0.0956  0.2862  0.2483
  521MOL0     C68697  10.600   2.912   2.791 -1.4526 -0.2730 -0.2186
  521MOL0     O68698  10.479   2.951   2.743 -0.8258  0.0494 -0.5657
  521MOL0     C68699  10.442   2.896   2.611 -0.4448  0.8027  0.5351
  521MOL0     C68700  10.488   2.970   2.487  0.7110 -0.6140 -0.9262
  521MOL0     C68701  10.511   3.115   2.523 -0.1288 -0.1366  0.0815
  521MOL0     C68702  10.487   3.203   2.404 -0.2400 -0.0312 -0.2922
  521MOL0     C68703  10.597   3.186   2.312  0.1213  0.2201 -0.1604
  521MOL0     C68704  10.692   3.151   2.245  0.5043 -1.0258  0.4157
  521MOL0     C68705  10.703   3.011   2.822  0.6193 -0.7234 -0.6297
  521MOL0     C68706  10.824   2.974   2.855 -0.0938 -0.7008 -0.6664
  521MOL0     H68707  11.251   2.684   2.982 -2.4965  0.2762 -0.5759
  521MOL0     H68708  11.458   2.707   3.081 -0.4285 -0.2263 -1.1852
  521MOL0     H68709  11.664   2.765   3.157  0.4585  0.2964  0.0336
  521MOL0     H68710  11.580   2.719   3.310 -1.8722  0.1337  0.4336
  521MOL0     H68711  11.749   2.865   3.426 -1.8027 -1.7510  0.4647
  521MOL0     H68712  11.790   2.935   3.260 -4.0269 -0.5483 -2.2050
  521MOL0     H68713  11.911   2.730   3.208  1.6317 -0.2326  0.0849
  521MOL0     H68714  11.828   2.643   3.332  0.3598 -0.0288  0.3377
  521MOL0     H68715  12.035   2.861   3.373 -0.6296  1.8707  4.7956
  521MOL0     H68716  11.947   2.811   3.498 -0.7943  1.5901 -1.4146
  521MOL0     H68717  12.170   2.709   3.478  0.4812 -2.3714  2.3590
  521MOL0     H68718  12.153   2.667   3.312 -0.1425 -1.7751 -0.2563
  521MOL0     H68719  11.988   2.486   3.351  0.8427 -0.3393 -0.6777
  521MOL0     H68720  11.975   2.532   3.522  2.5059  1.6588  0.9971
  521MOL0     H68721  12.251   2.465   3.411  0.3009  2.4520  1.1972
  521MOL0     H68722  12.206   2.468   3.577  1.1090 -0.3512 -0.0564
  521MOL0     H68723  12.049   2.266   3.553 -0.4603 -1.1992 -1.4203
  521MOL0     H68724  12.215   2.221   3.517 -1.2469 -1.2238  3.4907
  521MOL0     H68725  11.916   2.129   3.428  4.6453 -2.2829  2.6209
  521MOL0     H68726  11.907   1.908   3.253 -0.9694  1.1431  0.4551
  521MOL0     H68727  11.965   1.925   3.095 -3.7169 -0.6252 -2.9598
  521MOL0     H68728  11.811   2.092   3.020 -2.2541 -1.8472 -1.1248
  521MOL0     H68729  11.720   2.058   3.177 -3.5482 -1.5657 -0.9832
  521MOL0     H68730  11.790   1.852   2.974  0.9812 -0.7237  0.3170
  521MOL0     H68731  11.707   1.828   3.118  3.1549  0.9191  1.9556
  521MOL0     H68732  11.586   1.997   2.886 -1.2822  0.6619  0.8757
  521MOL0     H68733  11.521   1.957   3.037  2.2854  1.9202 -0.0447
  521MOL0     H68734  11.515   1.638   2.711  2.7471  3.2520 -0.5075
  521MOL0     H68735  11.310   1.604   2.590 -2.2653 -0.4131  0.0463
  521MOL0     H68736  10.820   2.018   2.713  0.7556 -0.9542 -0.0901
  521MOL0     H68737  10.575   2.039   2.684 -1.1782  1.0175 -1.0422
  521MOL0     H68738  10.403   2.044   2.485  2.4236 -1.6785  0.5427
  521MOL0     H68739  10.320   2.000   2.635 -2.7144  2.7601 -0.6589
  521MOL0     H68740  10.157   1.868   2.506  1.3379 -0.7399  0.2594
  521MOL0     H68741  10.229   1.927   2.354 -1.0578 -0.7497  0.6891
  521MOL0     H68742  10.183   2.163   2.409  0.1815  0.9922 -0.3175
  521MOL0     H68743  10.120   2.112   2.569  0.1343 -2.7212  0.0988
  521MOL0     H68744   9.996   1.968   2.329  1.6632  0.6333 -0.0977
  521MOL0     H68745   9.910   2.045   2.468  0.1623 -0.6169  1.2792
  521MOL0     H68746   9.859   2.147   2.255 -0.4899  1.3098 -1.7951
  521MOL0     H68747  10.032   2.187   2.236  1.9456 -1.1125  2.8710
  521MOL0     H68748  10.038   2.325   2.416  0.2678 -1.4729  4.0999
  521MOL0     H68749   9.868   2.275   2.477 -2.2711  0.2691 -1.4003
  521MOL0     H68750   9.926   2.436   2.233  0.8424  0.3296  0.4986
  521MOL0     H68751   9.772   2.368   2.261  1.7903 -1.7434 -2.2855
  521MOL0     H68752   9.777   2.609   2.323  0.0214  0.2034 -0.1415
  521MOL0     H68753   9.894   2.583   2.443  0.6551 -1.6705  0.8942
  521MOL0     H68754  10.588   1.659   2.470 -0.1405  0.5965 -1.6315
  521MOL0     H68755  10.827   1.645   2.517  1.9016  1.4035  0.9680
  521MOL0     H68756  11.144   1.950   2.789  0.4268 -0.1957  3.1649
  521MOL0     H68757  11.341   1.976   2.924 -0.6267  0.9481 -1.6429
  521MOL0     H68758  11.364   3.097   3.236  0.8939 -0.3791  0.4380
  521MOL0     H68759  11.147   3.090   3.127 -2.9183 -2.2833 -0.2109
  521MOL0     H68760  10.777   2.635   2.865 -1.3745 -0.1815 -1.4994
  521MOL0     H68761  10.548   2.712   2.795  1.2245 -0.5770 -2.2835
  521MOL0     H68762  10.333   2.911   2.610 -0.9918 -2.2162 -1.5182
  521MOL0     H68763  10.472   2.791   2.608 -1.8752  0.2519  2.8234
  521MOL0     H68764  10.574   2.927   2.435  3.5973  3.6286 -0.1816
  521MOL0     H68765  10.402   2.958   2.420  0.4355  3.6766 -1.6106
  521MOL0     H68766  10.618   3.122   2.546  0.0040 -0.0344 -0.5639
  521MOL0     H68767  10.438   3.139   2.600 -2.1093 -1.7139 -1.2255
  521MOL0     H68768  10.394   3.173   2.356 -1.2979  0.1401  1.5698
  521MOL0     H68769  10.497   3.308   2.432  2.2648  1.0126 -4.1865
  521MOL0     H68770  10.765   3.109   2.179  1.2302  0.9493 -0.1286
  521MOL0     H68771  10.680   3.117   2.829 -1.9018 -1.1889 -0.8164
  521MOL0     H68772  10.907   3.041   2.878 -0.7229  0.4477 -1.6036
  522MOL0     O68773   0.717  10.634   9.342  0.7835 -0.0876 -0.2386
  522MOL0     C68774   0.670  10.518   9.347 -0.3153  0.1509  0.3000
  522MOL0     O68775   0.729  10.429   9.431  0.0535 -0.3351  0.4144
  522MOL0     C68776   0.832  10.461   9.508 -0.7150  0.8637  0.5639
  522MOL0     C68777   0.824  10.412   9.638 -0.8166  0.3642 -0.2115
  522MOL0     C68778   0.931  10.434   9.730  0.5495  0.5717 -0.0288
  522MOL0     C68779   1.056  10.476   9.684  0.5099 -0.7328  0.3118
  522MOL0     O68780   1.175  10.474   9.756  0.5035 -0.0776 -0.4609
  522MOL0     C68781   1.160  10.462   9.896 -0.3665 -0.0037 -0.5090
  522MOL0     C68782   1.267  10.548   9.970 -0.1152 -0.4312 -0.3935
  522MOL0     C68783   1.406  10.472   9.979 -0.1247  0.3892 -0.3567
  522MOL0     C68784   1.498  10.549  10.070 -0.0256  0.9466  1.1397
  522MOL0     C68785   1.629  10.475  10.095  0.3095  0.3015  0.5865
  522MOL0     C68786   1.714  10.552  10.195  0.4459  0.6776 -0.1360
  522MOL0     C68787   1.862  10.488  10.215  0.5528  0.2765  0.8753
  522MOL0     C68788   1.964  10.551  10.118 -0.7562  0.0456 -1.1074
  522MOL0     N68789   1.949  10.506   9.981 -1.0896  0.0799 -0.2456
  522MOL0     C68790   1.869  10.570   9.887 -0.0929  0.2021  0.0167
  522MOL0     C68791   1.865  10.483   9.778 -0.3467  0.4423  0.3179
  522MOL0     C68792   1.785  10.488   9.652  0.2141  0.3706  0.2889
  522MOL0     C68793   1.656  10.561   9.671 -0.3345 -0.4153 -0.2092
  522MOL0     C68794   1.567  10.569   9.541  0.2366 -0.8898  0.1879
  522MOL0     C68795   1.615  10.676   9.442 -0.1608  0.1972 -0.7313
  522MOL0     O68796   1.550  10.678   9.313 -0.2115 -0.6567 -1.1229
  522MOL0     C68797   1.417  10.726   9.303 -0.5374  0.3063  0.4503
  522MOL0     C68798   1.350  10.794   9.403  0.6337 -0.5015  0.1015
  522MOL0     C68799   1.217  10.844   9.385 -0.0047  0.4639  0.8173
  522MOL0     C68800   1.160  10.820   9.259 -0.8899 -1.1900  0.0188
  522MOL0     C68801   1.021  10.876   9.235 -0.0964  0.3857  0.1505
  522MOL0     O68802   0.965  10.861   9.113 -0.1189  0.2102 -0.0379
  522MOL0     C68803   0.844  10.913   9.080 -0.2597  0.4472  0.3159
  522MOL0     C68804   0.729  10.903   9.159  0.3541  0.1662  0.2378
  522MOL0     C68805   0.620  10.986   9.123  0.2690 -0.2297 -0.1990
  522MOL0     C68806   0.621  11.077   9.017  0.2053 -0.2720 -0.3423
  522MOL0     O68807   0.511  11.167   8.989 -0.1509  0.3298  0.2315
  522MOL0     C68808   0.407  11.189   9.085  0.4357 -0.3833 -0.6721
  522MOL0     C68809   0.283  11.083   9.079  0.5088 -0.6664 -0.1023
  522MOL0     C68810   0.181  11.133   9.174  0.6388 -0.4828 -0.0628
  522MOL0     C68811   0.054  11.052   9.159  0.7110 -0.4747 -0.7151
  522MOL0     C68812  -0.049  11.088   9.266  0.5891 -0.6910  0.5510
  522MOL0     C68813  -0.159  10.983   9.263 -0.1847 -0.2210 -0.1149
  522MOL0     C68814  -0.288  11.026   9.350 -0.6972  0.0721  0.1685
  522MOL0     C68815  -0.398  10.922   9.331 -0.5862 -1.9828 -0.2749
  522MOL0    Cl68816  -0.335  10.770   9.395  0.6005  0.1835 -0.1727
  522MOL0     C68817   0.741  11.083   8.940  0.0763 -0.2029  0.3594
  522MOL0     C68818   0.844  10.987   8.969  0.0352 -0.8705 -0.0380
  522MOL0     O68819   0.973  10.937   9.327  1.0843  0.2169 -0.9139
  522MOL0     C68820   1.230  10.748   9.162  0.4340 -0.0201 -0.0607
  522MOL0     C68821   1.358  10.702   9.180 -0.0014 -0.2591  0.0906
  522MOL0     N68822   1.938  10.368   9.807 -0.0809  0.2208  0.2414
  522MOL0     N68823   1.993  10.391   9.923 -0.8067  0.2093 -0.1847
  522MOL0     C68824   1.065  10.530   9.555 -0.5270  0.0853 -0.0938
  522MOL0     C68825   0.955  10.522   9.466  0.7277  0.6300  0.0603
  522MOL0     C68826   0.544  10.480   9.272 -0.1101 -0.7424 -0.2644
  522MOL0     C68827   0.492  10.346   9.301 -1.0240 -0.5985  0.7489
  522MOL0     C68828   0.382  10.298   9.229 -0.9620 -0.4319  0.0318
  522MOL0     C68829   0.318  10.380   9.143  0.1054 -0.0295 -0.5735
  522MOL0     O68830   0.206  10.339   9.070 -0.5724 -0.7707  0.1933
  522MOL0     C68831   0.119  10.233   9.110  0.2885  0.6563  0.2703
  522MOL0     C68832   0.035  10.259   9.238 -0.0312 -0.5294 -0.1746
  522MOL0     C68833  -0.080  10.354   9.216 -0.0098 -0.0136  0.1594
  522MOL0     C68834  -0.071  10.472   9.313 -0.7997 -0.5383  0.2405
  522MOL0     C68835  -0.091  10.429   9.451  0.5822 -1.3533  0.0702
  522MOL0     C68836  -0.103  10.416   9.577 -0.3267 -0.4797 -0.3607
  522MOL0     C68837   0.370  10.502   9.111  0.3091 -0.3004  0.0985
  522MOL0     C68838   0.484  10.563   9.171  0.2376 -0.4797 -0.1706
  522MOL0     H68839   0.733  10.356   9.655 -0.6070  0.2883  0.6955
  522MOL0     H68840   0.927  10.386   9.827  2.4018  0.8746  0.2380
  522MOL0     H68841   1.164  10.360   9.935 -3.3908  0.3206  0.9579
  522MOL0     H68842   1.067  10.507   9.933  1.0756 -0.2511  4.1078
  522MOL0     H68843   1.216  10.560  10.067  0.6779 -2.4230  0.3094
  522MOL0     H68844   1.283  10.643   9.918  2.1660 -1.3355 -1.4267
  522MOL0     H68845   1.448  10.464   9.878  0.7669 -2.1809  0.1454
  522MOL0     H68846   1.399  10.374  10.026  2.9857  2.4181  5.4944
  522MOL0     H68847   1.508  10.649  10.028 -0.4640 -0.2076 -1.9197
  522MOL0     H68848   1.459  10.574  10.170  1.0999  2.8380  1.1672
  522MOL0     H68849   1.679  10.471   9.997  1.3406 -0.8891  1.1369
  522MOL0     H68850   1.598  10.376  10.127 -0.7194  0.5530  0.3978
  522MOL0     H68851   1.651  10.543  10.284  1.2928 -1.3064  0.3045
  522MOL0     H68852   1.715  10.660  10.179  1.9380  1.0092  1.8105
  522MOL0     H68853   1.892  10.518  10.316 -1.1204  3.2343  0.6245
  522MOL0     H68854   1.860  10.379  10.218 -1.4332  0.2652  0.7442
  522MOL0     H68855   2.065  10.516  10.139  0.0376  0.7490 -3.3876
  522MOL0     H68856   1.963  10.661  10.115 -2.8711  0.0652 -1.3479
  522MOL0     H68857   1.819  10.665   9.900  1.0474  1.1414 -2.0061
  522MOL0     H68858   1.762  10.385   9.624 -1.7371  1.1186 -1.0978
  522MOL0     H68859   1.862  10.529   9.585  3.0700  0.7794  3.5374
  522MOL0     H68860   1.696  10.661   9.691  2.2406 -0.4696 -4.0415
  522MOL0     H68861   1.611  10.522   9.762 -2.0943 -0.9785 -1.2621
  522MOL0     H68862   1.547  10.478   9.485 -1.2492 -0.9135  0.7258
  522MOL0     H68863   1.467  10.602   9.569  0.7318  0.8002  0.1053
  522MOL0     H68864   1.724  10.670   9.434 -0.2260  0.8257 -2.3654
  522MOL0     H68865   1.595  10.772   9.491 -3.3800 -1.2133  0.9612
  522MOL0     H68866   1.391  10.818   9.501  0.6508 -3.3179  0.8813
  522MOL0     H68867   1.178  10.907   9.465 -0.9900  3.6397 -1.9210
  522MOL0     H68868   0.730  10.849   9.252  0.9242 -0.3932 -0.0858
  522MOL0     H68869   0.526  10.966   9.173  0.5371  2.0137  1.3515
  522MOL0     H68870   0.358  11.284   9.062  0.2926 -0.2048  0.3192
  522MOL0     H68871   0.445  11.192   9.187  0.1064  2.4989 -0.5611
  522MOL0     H68872   0.309  10.980   9.102 -1.1035 -1.1423 -0.2923
  522MOL0     H68873   0.240  11.075   8.979  0.3281  0.6540 -0.1478
  522MOL0     H68874   0.162  11.234   9.139 -1.5733 -1.2738 -1.3201
  522MOL0     H68875   0.212  11.135   9.279 -1.8478 -0.4107  0.7194
  522MOL0     H68876   0.016  11.056   9.057 -0.0069 -1.2613 -0.4912
  522MOL0     H68877   0.084  10.947   9.168 -0.5235 -1.1889 -3.7904
  522MOL0     H68878  -0.093  11.188   9.258  0.0035 -0.8918  1.1802
  522MOL0     H68879  -0.000  11.093   9.363  0.0141 -2.9881  0.9989
  522MOL0     H68880  -0.126  10.881   9.287 -0.0663  0.2025  1.6395
  522MOL0     H68881  -0.187  10.972   9.158 -0.3055  1.6277 -0.2965
  522MOL0     H68882  -0.267  11.047   9.455 -0.4793 -1.6791  0.5083
  522MOL0     H68883  -0.313  11.122   9.305  0.4865  0.8501  1.1329
  522MOL0     H68884  -0.423  10.921   9.224 -0.9734 -1.6125 -0.1941
  522MOL0     H68885  -0.486  10.957   9.387  0.7504  0.3307  0.5177
  522MOL0     H68886   0.750  11.161   8.864 -0.5609  0.0203  0.5070
  522MOL0     H68887   0.929  10.993   8.902 -0.1304 -1.1579 -0.2816
  522MOL0     H68888   1.185  10.727   9.066  1.7984 -1.6250 -0.3992
  522MOL0     H68889   1.411  10.664   9.093  1.5329  3.8352 -1.0216
  522MOL0     H68890   1.165  10.561   9.527 -0.8052  0.4190 -0.7416
  522MOL0     H68891   0.974  10.551   9.363  3.4785  0.7957  0.5272
  522MOL0     H68892   0.537  10.276   9.370 -0.3701 -1.0478 -0.1124
  522MOL0     H68893   0.371  10.190   9.227 -1.4348 -0.3826 -0.5817
  522MOL0     H68894   0.177  10.143   9.133 -0.3953  0.1889  0.2169
  522MOL0     H68895   0.050  10.206   9.029 -0.9521  1.2353  1.0963
  522MOL0     H68896  -0.014  10.166   9.269 -0.9069  0.6046  2.1109
  522MOL0     H68897   0.110  10.302   9.305  0.5321  1.5027 -1.9950
  522MOL0     H68898  -0.178  10.306   9.211 -1.9072  3.5193  0.8573
  522MOL0     H68899  -0.057  10.401   9.119 -1.8788  4.0086  1.4627
  522MOL0     H68900   0.025  10.523   9.297 -1.0257 -0.6923 -1.8738
  522MOL0     H68901  -0.154  10.540   9.296 -0.8356 -0.8328 -0.8529
  522MOL0     H68902  -0.125  10.414   9.682 -2.7738  0.4086 -0.7966
  522MOL0     H68903   0.330  10.565   9.032 -0.8038 -3.3797 -1.9898
  522MOL0     H68904   0.518  10.662   9.143  1.2742 -1.8842 -4.8287
  523MOL0     O68905   4.349   7.678   3.407  0.1193 -0.2200  0.1488
  523MOL0     C68906   4.330   7.614   3.308  1.0049 -0.3274  0.5404
  523MOL0     O68907   4.213   7.550   3.280  0.0976  0.9839 -0.2484
  523MOL0     C68908   4.107   7.555   3.361  0.3730  0.1707  0.3914
  523MOL0     C68909   4.107   7.521   3.496 -0.0065  0.6594 -0.2774
  523MOL0     C68910   4.000   7.527   3.581  1.1008 -0.2707  0.3574
  523MOL0     C68911   3.874   7.556   3.523 -0.5613 -0.2313 -0.4072
  523MOL0     O68912   3.761   7.559   3.602  0.6353  0.5462  0.5845
  523MOL0     C68913   3.725   7.428   3.664 -0.2824  0.2579 -0.2578
  523MOL0     C68914   3.572   7.387   3.667 -0.1092 -0.0720  0.1507
  523MOL0     C68915   3.519   7.382   3.524  0.2208  0.0513  0.3156
  523MOL0     C68916   3.366   7.362   3.520 -0.0474 -1.1239 -0.4295
  523MOL0     C68917   3.318   7.228   3.479 -0.7907 -0.3653 -0.1260
  523MOL0     C68918   3.359   7.119   3.582 -0.9819  0.1896  0.7260
  523MOL0     C68919   3.305   6.979   3.533 -0.0105  0.6456  1.1923
  523MOL0     C68920   3.183   6.914   3.616 -0.9475 -0.1556 -0.3566
  523MOL0     N68921   3.073   7.018   3.606  0.1627 -0.0459  0.6759
  523MOL0     C68922   3.001   7.049   3.487 -0.2532 -0.5484  0.0398
  523MOL0     C68923   2.930   7.162   3.522 -0.4066  1.2199  0.9947
  523MOL0     C68924   2.819   7.218   3.431 -0.2685 -0.5757 -0.2878
  523MOL0     C68925   2.673   7.209   3.479 -1.1488 -1.1464 -0.0732
  523MOL0     C68926   2.638   7.321   3.579  0.4425  0.1424  0.3892
  523MOL0     C68927   2.483   7.339   3.595 -0.4227  0.2924 -0.4751
  523MOL0     O68928   2.429   7.219   3.658  0.2836 -0.0512  0.0126
  523MOL0     C68929   2.399   7.227   3.797  0.5974  0.6553  0.9224
  523MOL0     C68930   2.271   7.201   3.824 -0.1169  0.1405  0.2971
  523MOL0     C68931   2.216   7.201   3.950  0.3586  0.5227  0.1687
  523MOL0     C68932   2.298   7.244   4.055  0.4323  0.3142 -0.3804
  523MOL0     C68933   2.252   7.256   4.193  1.0599  0.4160  0.1593
  523MOL0     O68934   2.332   7.318   4.283  0.2205 -0.4847  0.2886
  523MOL0     C68935   2.289   7.316   4.411 -0.2195 -0.3602 -0.6527
  523MOL0     C68936   2.168   7.382   4.450  0.3770  0.1849 -0.3417
  523MOL0     C68937   2.126   7.384   4.590 -0.0086 -0.1341  0.3934
  523MOL0     C68938   2.198   7.303   4.687 -0.4757  0.3778  0.2770
  523MOL0     O68939   2.161   7.291   4.820  0.2218  1.1103 -0.1167
  523MOL0     C68940   2.022   7.301   4.862 -0.8963 -0.3459  0.3974
  523MOL0     C68941   1.996   7.279   5.015  0.0149  0.8055 -0.4337
  523MOL0     C68942   2.121   7.280   5.105  0.3333  0.3358 -0.5491
  523MOL0     C68943   2.102   7.232   5.238  1.0910 -0.0266 -0.5080
  523MOL0     C68944   2.234   7.222   5.322  0.3778  0.0001 -0.4470
  523MOL0     C68945   2.228   7.142   5.451 -0.1341 -0.3173  0.0100
  523MOL0     C68946   2.360   7.165   5.539 -0.5508 -0.1556 -0.4268
  523MOL0     C68947   2.348   7.129   5.685 -0.1031 -0.3741 -0.4185
  523MOL0    Cl68948   2.300   6.959   5.715 -0.5467 -0.2611 -0.3903
  523MOL0     C68949   2.306   7.230   4.641 -0.7933 -0.3182  0.4028
  523MOL0     C68950   2.356   7.242   4.510  0.8426  0.2984 -0.0651
  523MOL0     O68951   2.142   7.205   4.219 -0.4133 -0.2426 -0.2616
  523MOL0     C68952   2.434   7.271   4.026 -0.1592  0.5512  0.2302
  523MOL0     C68953   2.487   7.261   3.901 -1.0516 -0.2757  0.5369
  523MOL0     N68954   2.971   7.202   3.646  0.4730 -0.7848 -0.7243
  523MOL0     N68955   3.052   7.109   3.699  0.3493  0.3805 -0.3491
  523MOL0     C68956   3.868   7.591   3.386  0.5555  0.5834  0.0578
  523MOL0     C68957   3.982   7.590   3.306  0.0138 -0.6707  0.1946
  523MOL0     C68958   4.445   7.589   3.215 -0.3265 -0.2901 -0.0774
  523MOL0     C68959   4.435   7.496   3.112  0.3352 -0.9689  0.5662
  523MOL0     C68960   4.551   7.451   3.041 -0.4896 -0.1644 -0.1806
  523MOL0     C68961   4.673   7.517   3.061 -0.5560 -0.8364 -0.3416
  523MOL0     O68962   4.781   7.476   2.984 -0.4402  0.2278 -0.0181
  523MOL0     C68963   4.802   7.537   2.851  1.0147  0.5818 -0.2489
  523MOL0     C68964   4.777   7.425   2.744 -0.3033  0.3013 -0.0637
  523MOL0     C68965   4.801   7.274   2.793  0.1252  0.5954  0.5092
  523MOL0     C68966   4.946   7.236   2.810  0.9052 -0.2468 -0.5311
  523MOL0     C68967   5.021   7.209   2.689  0.4491 -0.0534 -0.1845
  523MOL0     C68968   5.065   7.190   2.576 -0.3208  0.2725  0.1150
  523MOL0     C68969   4.673   7.623   3.148 -0.0561  0.5556  0.0219
  523MOL0     C68970   4.569   7.652   3.232 -0.0052 -0.1664  0.7622
  523MOL0     H68971   4.202   7.497   3.543  1.2217  0.2416 -2.8065
  523MOL0     H68972   4.011   7.496   3.684 -0.3616 -1.8317  0.0856
  523MOL0     H68973   3.750   7.421   3.770 -3.2806  0.0253  0.5168
  523MOL0     H68974   3.776   7.345   3.613  1.3969  0.1321  1.4985
  523MOL0     H68975   3.513   7.465   3.717 -0.2629 -0.7194  1.0058
  523MOL0     H68976   3.561   7.297   3.728  1.7092 -0.8361 -0.5590
  523MOL0     H68977   3.571   7.303   3.469  1.3822  0.0486  1.3832
  523MOL0     H68978   3.540   7.473   3.467  0.8898  0.2035  0.7970
  523MOL0     H68979   3.313   7.382   3.614 -0.2916 -1.6084 -0.4570
  523MOL0     H68980   3.330   7.440   3.453 -0.0115  2.3443  3.1807
  523MOL0     H68981   3.363   7.204   3.382  1.2250 -1.1867  0.9551
  523MOL0     H68982   3.210   7.232   3.462 -0.5287  3.4124 -2.0279
  523MOL0     H68983   3.326   7.147   3.683 -1.9724 -3.4772  1.5672
  523MOL0     H68984   3.467   7.107   3.573 -0.9416 -0.1230  1.5578
  523MOL0     H68985   3.262   6.994   3.434 -3.5319 -2.9883  1.8985
  523MOL0     H68986   3.381   6.905   3.508  0.8066  1.4433  1.2509
  523MOL0     H68987   3.218   6.888   3.716 -0.7062 -1.8743 -0.8611
  523MOL0     H68988   3.142   6.824   3.569  1.1033 -1.0882 -0.4784
  523MOL0     H68989   2.997   6.994   3.393 -0.7957  0.4304 -0.5286
  523MOL0     H68990   2.826   7.176   3.330 -1.3840 -1.0916 -0.1603
  523MOL0     H68991   2.833   7.327   3.426 -2.2326 -0.1179  2.5149
  523MOL0     H68992   2.674   7.109   3.523 -0.3790 -1.3326 -0.4878
  523MOL0     H68993   2.598   7.221   3.400 -1.8254  1.2267  0.8372
  523MOL0     H68994   2.681   7.306   3.679  0.6386 -2.6993 -0.0411
  523MOL0     H68995   2.674   7.419   3.545 -1.3204  1.2346  1.5101
  523MOL0     H68996   2.432   7.357   3.500 -0.8999 -4.2285 -1.3191
  523MOL0     H68997   2.467   7.421   3.666  1.2878 -0.2543  0.6129
  523MOL0     H68998   2.207   7.175   3.740 -1.5328  0.4872  1.2263
  523MOL0     H68999   2.115   7.174   3.977  0.6750 -0.6072  0.2436
  523MOL0     H69000   2.093   7.427   4.387  2.7048  3.4719 -1.0187
  523MOL0     H69001   2.042   7.439   4.632  2.1556  2.0387  2.2059
  523MOL0     H69002   1.956   7.232   4.808 -0.1770  2.0033 -4.0276
  523MOL0     H69003   2.008   7.404   4.827  0.5649 -0.4728 -0.6816
  523MOL0     H69004   1.937   7.188   5.035 -0.2131  0.1269 -3.6389
  523MOL0     H69005   1.931   7.362   5.042 -0.4900  0.0332  0.8338
  523MOL0     H69006   2.170   7.378   5.097  2.5670 -0.7627 -1.0622
  523MOL0     H69007   2.186   7.212   5.048 -0.8981  1.3276 -3.3215
  523MOL0     H69008   2.025   7.294   5.287  0.5447 -1.6249  0.7636
  523MOL0     H69009   2.063   7.130   5.235 -1.8571  1.0061 -1.3827
  523MOL0     H69010   2.262   7.325   5.349  1.3886 -0.1720 -0.7922
  523MOL0     H69011   2.321   7.187   5.265  1.7139  0.7794  1.0438
  523MOL0     H69012   2.235   7.036   5.423  1.4128 -0.3554  0.4713
  523MOL0     H69013   2.138   7.163   5.509 -1.0033 -1.0451 -1.0285
  523MOL0     H69014   2.446   7.123   5.485 -2.3673  0.5027 -4.1864
  523MOL0     H69015   2.366   7.274   5.544 -0.7580 -0.1781  0.5054
  523MOL0     H69016   2.274   7.199   5.725  3.3655  1.2414  3.9685
  523MOL0     H69017   2.446   7.146   5.731 -0.5921  0.2343  0.4307
  523MOL0     H69018   2.347   7.155   4.708 -1.7414 -0.5199  0.7747
  523MOL0     H69019   2.432   7.176   4.469 -1.0685 -3.2002  1.5563
  523MOL0     H69020   2.506   7.286   4.105  0.4287  0.2999 -0.2503
  523MOL0     H69021   2.594   7.278   3.892 -0.6561 -1.9083  1.6844
  523MOL0     H69022   3.772   7.614   3.339 -0.5612  0.7461  2.2697
  523MOL0     H69023   3.974   7.607   3.199  2.1894 -1.4565 -0.1561
  523MOL0     H69024   4.339   7.463   3.072 -0.3805  1.5681  0.0527
  523MOL0     H69025   4.536   7.382   2.959 -2.6593 -2.1705  1.7464
  523MOL0     H69026   4.903   7.577   2.841  1.1934  1.0770  2.7048
  523MOL0     H69027   4.722   7.610   2.839 -2.2663 -2.8984 -1.9068
  523MOL0     H69028   4.674   7.440   2.712  0.3163  1.2871 -1.6773
  523MOL0     H69029   4.838   7.448   2.656 -0.3808 -0.4335 -0.3197
  523MOL0     H69030   4.775   7.196   2.721  3.8782 -0.3381 -0.0472
  523MOL0     H69031   4.746   7.256   2.886  1.7852  3.0525  2.0660
  523MOL0     H69032   5.000   7.315   2.864 -0.3963  0.5144 -0.3069
  523MOL0     H69033   4.940   7.149   2.875 -1.7060 -0.1112 -0.5052
  523MOL0     H69034   5.119   7.185   2.484  0.8438  1.8400  0.6601
  523MOL0     H69035   4.755   7.689   3.174 -1.8334  2.6584  0.6635
  523MOL0     H69036   4.573   7.715   3.321  0.1105 -2.1416  2.2340
  524MOL0     O69037   3.080   6.772   6.207  0.9665  0.0570 -0.2069
  524MOL0     C69038   3.076   6.836   6.306  0.0278 -1.0205 -0.7216
  524MOL0     O69039   2.965   6.886   6.367 -0.3070 -0.0314  0.3992
  524MOL0     C69040   2.831   6.869   6.314  1.1771 -0.4685 -0.6313
  524MOL0     C69041   2.791   6.779   6.214  0.3246 -0.9452 -0.0419
  524MOL0     C69042   2.657   6.775   6.183 -0.0566  0.8095 -0.6797
  524MOL0     C69043   2.564   6.855   6.248  0.1117 -0.6042 -1.3544
  524MOL0     O69044   2.427   6.851   6.223  0.6901 -0.8660 -0.0085
  524MOL0     C69045   2.368   6.721   6.241  0.3297 -0.8829  0.9296
  524MOL0     C69046   2.235   6.711   6.176  1.5293 -0.3642  0.2425
  524MOL0     C69047   2.154   6.588   6.222 -0.5965  1.0474 -0.0248
  524MOL0     C69048   2.031   6.556   6.144  1.0187 -0.0654 -0.2429
  524MOL0     C69049   2.073   6.487   6.007  0.2581 -0.6839  0.8035
  524MOL0     C69050   1.963   6.434   5.924 -0.0261  0.4160 -0.7030
  524MOL0     C69051   2.026   6.391   5.794 -0.3897 -0.2259 -0.4017
  524MOL0     C69052   1.935   6.286   5.718 -0.5256 -0.1866 -0.4953
  524MOL0     N69053   1.808   6.339   5.679 -0.1790  0.3006  0.7316
  524MOL0     C69054   1.771   6.381   5.552 -0.5500  0.3488 -1.3760
  524MOL0     C69055   1.641   6.412   5.557 -0.6411  0.8005  0.0116
  524MOL0     C69056   1.548   6.442   5.438  0.4816  0.3096 -0.7484
  524MOL0     C69057   1.423   6.521   5.473 -0.0457  0.1481 -0.4993
  524MOL0     C69058   1.411   6.662   5.429  0.4967  0.4217  0.4689
  524MOL0     C69059   1.271   6.720   5.461 -0.7506 -0.2821 -0.1980
  524MOL0     O69060   1.229   6.710   5.597 -0.5799  0.6402  0.1644
  524MOL0     C69061   1.104   6.758   5.628  0.5471 -1.3699  0.2606
  524MOL0     C69062   1.068   6.746   5.767  0.1602 -0.2308  0.2971
  524MOL0     C69063   0.940   6.782   5.811  0.3892  0.1690  0.3387
  524MOL0     C69064   0.845   6.844   5.723  0.2440  0.2935 -1.3410
  524MOL0     C69065   0.706   6.871   5.762 -0.7725  0.9875 -0.2719
  524MOL0     O69066   0.618   6.872   5.662  0.1864 -0.1638  0.0154
  524MOL0     C69067   0.480   6.873   5.694 -0.0572 -0.7203  0.2966
  524MOL0     C69068   0.411   6.993   5.681 -0.2756 -0.1560 -0.3990
  524MOL0     C69069   0.280   7.016   5.712 -0.0017  0.1967  0.3915
  524MOL0     C69070   0.196   6.910   5.762 -0.1475 -0.1128 -0.8985
  524MOL0     O69071   0.063   6.934   5.801  0.1163  0.6894 -0.8817
  524MOL0     C69072  -0.041   6.852   5.762 -0.3789  0.5720  0.1399
  524MOL0     C69073  -0.150   6.870   5.865 -0.1192 -0.5275 -0.3869
  524MOL0     C69074  -0.255   6.772   5.832 -0.4352 -0.2632  0.5748
  524MOL0     C69075  -0.368   6.785   5.928  1.4349 -0.5222  0.6280
  524MOL0     C69076  -0.487   6.691   5.893  1.4190  0.2838 -0.4250
  524MOL0     C69077  -0.611   6.736   5.975  0.2491 -0.5013  0.0856
  524MOL0     C69078  -0.725   6.652   5.919  0.5934 -0.7430 -0.8913
  524MOL0     C69079  -0.864   6.714   5.968  0.3647  0.0993 -0.2017
  524MOL0    Cl69080  -0.872   6.768   6.135  0.2483 -0.7265  0.4469
  524MOL0     C69081   0.259   6.783   5.772 -0.6538  0.6500 -0.1397
  524MOL0     C69082   0.402   6.768   5.754 -1.3434  0.2089  0.6316
  524MOL0     O69083   0.679   6.873   5.886 -0.4341 -0.2096 -0.2484
  524MOL0     C69084   0.888   6.856   5.588 -0.1504 -1.1859  0.1705
  524MOL0     C69085   1.017   6.817   5.540 -0.2161  0.6638  0.0299
  524MOL0     N69086   1.604   6.400   5.685 -0.7493  0.4972 -0.7205
  524MOL0     N69087   1.704   6.374   5.763 -0.2218  0.1579 -0.2663
  524MOL0     C69088   2.614   6.949   6.345  0.1628 -0.6099  0.1477
  524MOL0     C69089   2.742   6.944   6.385 -0.8949  0.2736 -0.3496
  524MOL0     C69090   3.210   6.854   6.373  0.3966 -0.2857 -0.9171
  524MOL0     C69091   3.206   6.902   6.506  0.0956  0.7307 -0.2110
  524MOL0     C69092   3.319   6.936   6.573  0.2945 -0.2283 -0.1882
  524MOL0     C69093   3.442   6.905   6.528  0.1511  0.4889 -0.1290
  524MOL0     O69094   3.563   6.933   6.594  0.7539  0.9806  0.0159
  524MOL0     C69095   3.583   7.049   6.661 -0.3864  0.0516 -0.3745
  524MOL0     C69096   3.572   7.019   6.812 -0.6387 -1.4975  0.1701
  524MOL0     C69097   3.692   7.065   6.901 -0.1072  0.3857  0.1092
  524MOL0     C69098   3.645   7.074   7.048 -0.3076 -0.3556  0.4843
  524MOL0     C69099   3.757   7.092   7.143 -1.2038 -0.0661 -0.4910
  524MOL0     C69100   3.857   7.106   7.217  0.8534 -0.0588  0.5195
  524MOL0     C69101   3.451   6.841   6.397  0.3402  0.6622 -0.4778
  524MOL0     C69102   3.339   6.819   6.319 -0.0584 -0.0638  0.7701
  524MOL0     H69103   2.858   6.711   6.164  0.5388 -0.3292 -0.6024
  524MOL0     H69104   2.626   6.708   6.104 -0.2996 -0.2599  0.2998
  524MOL0     H69105   2.356   6.712   6.350  1.6353  0.6815  1.2397
  524MOL0     H69106   2.424   6.631   6.212 -1.6074 -2.0382  0.5862
  524MOL0     H69107   2.243   6.714   6.067  1.1918  0.7458  0.2359
  524MOL0     H69108   2.174   6.797   6.205  2.6900  1.5566 -2.5955
  524MOL0     H69109   2.108   6.611   6.318 -1.0588 -2.7572  0.8169
  524MOL0     H69110   2.225   6.505   6.211 -2.3287 -0.2798 -2.0714
  524MOL0     H69111   1.965   6.499   6.210 -0.8496  0.2513 -1.7781
  524MOL0     H69112   1.980   6.651   6.125 -1.3506 -0.8871  1.5355
  524MOL0     H69113   2.148   6.407   6.005  0.7205 -0.2760 -1.7591
  524MOL0     H69114   2.117   6.576   5.960 -0.0318 -1.2635 -0.6302
  524MOL0     H69115   1.877   6.501   5.915  0.3263  0.8006 -1.2088
  524MOL0     H69116   1.935   6.344   5.980  0.1112  1.5964  1.3676
  524MOL0     H69117   2.045   6.472   5.723 -0.3946 -2.6377 -3.3533
  524MOL0     H69118   2.130   6.354   5.794  0.2542  1.4064 -2.3740
  524MOL0     H69119   1.922   6.197   5.780  0.2761 -1.2201 -1.7747
  524MOL0     H69120   1.994   6.253   5.632  1.9601  1.9127  0.2930
  524MOL0     H69121   1.832   6.398   5.463  1.3501 -3.0880 -0.9390
  524MOL0     H69122   1.522   6.342   5.402  0.8765  0.3636 -1.1794
  524MOL0     H69123   1.602   6.502   5.365 -1.0152  2.9650  0.1676
  524MOL0     H69124   1.424   6.520   5.582  1.4384  0.2484 -0.4955
  524MOL0     H69125   1.335   6.465   5.440 -0.5397 -0.8285  2.2011
  524MOL0     H69126   1.489   6.723   5.474  0.1266 -0.3411  2.2430
  524MOL0     H69127   1.415   6.672   5.321 -2.0266  1.2398  0.3698
  524MOL0     H69128   1.192   6.671   5.403 -0.6417 -0.5740 -0.1014
  524MOL0     H69129   1.285   6.825   5.431  2.2223 -0.0856  1.4716
  524MOL0     H69130   1.140   6.696   5.831  0.3343  1.5540  1.5880
  524MOL0     H69131   0.914   6.779   5.916  2.1838  3.7319  1.0526
  524MOL0     H69132   0.486   7.069   5.663  0.3277 -1.0498 -1.7632
  524MOL0     H69133   0.244   7.118   5.710  2.5362  1.2474  2.3319
  524MOL0     H69134  -0.015   6.746   5.753 -4.0610 -0.3174 -2.5481
  524MOL0     H69135  -0.073   6.870   5.659  1.1499  2.0938 -0.1016
  524MOL0     H69136  -0.180   6.975   5.864 -0.3013 -0.5822 -0.8931
  524MOL0     H69137  -0.112   6.847   5.965  0.2463 -2.0404 -0.8455
  524MOL0     H69138  -0.211   6.672   5.827 -2.1635 -1.1693  2.2584
  524MOL0     H69139  -0.293   6.788   5.730  2.7054 -1.6175 -0.9529
  524MOL0     H69140  -0.335   6.770   6.031  0.4272  3.0594  1.6491
  524MOL0     H69141  -0.413   6.885   5.928  0.8666 -0.5278 -4.2918
  524MOL0     H69142  -0.443   6.595   5.920  3.0066  1.9659  3.7923
  524MOL0     H69143  -0.508   6.689   5.786 -1.4889  0.9185  0.0322
  524MOL0     H69144  -0.629   6.843   5.959 -1.8338 -0.3651  2.6687
  524MOL0     H69145  -0.593   6.717   6.081  0.9173  0.4037  0.1492
  524MOL0     H69146  -0.734   6.651   5.810  2.7096  1.2420 -1.1623
  524MOL0     H69147  -0.723   6.545   5.941 -1.2978 -0.8254 -0.9987
  524MOL0     H69148  -0.944   6.644   5.943 -0.4466  1.0051 -0.1742
  524MOL0     H69149  -0.886   6.802   5.907 -0.9851  1.3485  1.9671
  524MOL0     H69150   0.213   6.694   5.815 -4.4436  3.2663  1.8016
  524MOL0     H69151   0.445   6.669   5.772  0.9185  1.0596  0.3182
  524MOL0     H69152   0.821   6.889   5.509  0.8007 -0.7949 -0.4991
  524MOL0     H69153   1.029   6.809   5.432 -0.6075 -1.2185  0.1090
  524MOL0     H69154   2.537   7.006   6.395 -0.2427 -1.3339  0.3788
  524MOL0     H69155   2.780   7.008   6.464 -1.4837 -0.9948  1.0077
  524MOL0     H69156   3.106   6.915   6.546 -1.6017 -0.9902 -3.4622
  524MOL0     H69157   3.305   6.983   6.670  3.8583  4.6539 -1.6456
  524MOL0     H69158   3.507   7.125   6.642 -0.8187  0.0017  0.9798
  524MOL0     H69159   3.682   7.090   6.642 -0.6881  0.7160 -0.5603
  524MOL0     H69160   3.493   7.078   6.860 -0.0335 -1.3993  1.0791
  524MOL0     H69161   3.543   6.914   6.827 -2.4614 -0.8139  1.9302
  524MOL0     H69162   3.735   7.162   6.872 -1.5495  0.5342 -1.7070
  524MOL0     H69163   3.770   6.988   6.900 -0.9241 -0.5612  2.5861
  524MOL0     H69164   3.570   7.153   7.060  0.3955  0.2415  1.0842
  524MOL0     H69165   3.617   6.971   7.074  0.2462 -0.4321  0.7926
  524MOL0     H69166   3.938   7.134   7.281  1.6530  1.0020 -0.8832
  524MOL0     H69167   3.546   6.804   6.358 -0.2357  0.8775 -2.1733
  524MOL0     H69168   3.321   6.783   6.218 -1.2548 -0.6183  1.1670
  525MOL0     O69169   4.435   4.009   8.472  0.0620 -0.2106 -0.1075
  525MOL0     C69170   4.481   4.109   8.529  0.7234  0.4856  0.0342
  525MOL0     O69171   4.420   4.218   8.581 -0.4196 -0.0739  0.1091
  525MOL0     C69172   4.283   4.233   8.566 -1.3191 -0.7591  0.5606
  525MOL0     C69173   4.229   4.276   8.444  0.9177 -0.6067  0.2293
  525MOL0     C69174   4.096   4.308   8.427 -0.4243  1.3219 -0.0557
  525MOL0     C69175   4.006   4.276   8.538  0.0856  0.0044  0.0661
  525MOL0     O69176   3.872   4.281   8.511  0.0471  0.7058 -0.1708
  525MOL0     C69177   3.816   4.412   8.508  0.4529 -0.3218 -0.6924
  525MOL0     C69178   3.683   4.405   8.583 -0.1949 -0.3728  0.9871
  525MOL0     C69179   3.564   4.359   8.488  0.3208  0.4313 -0.1933
  525MOL0     C69180   3.426   4.397   8.549 -0.3136  0.0141  0.4455
  525MOL0     C69181   3.311   4.329   8.469 -0.2331 -0.6963 -0.9176
  525MOL0     C69182   3.192   4.416   8.441  0.6114  0.4549 -0.2329
  525MOL0     C69183   3.075   4.319   8.417 -0.4047 -0.3048 -0.1732
  525MOL0     C69184   2.947   4.387   8.375 -0.8526 -0.1224  0.1303
  525MOL0     N69185   2.837   4.289   8.385 -0.1805 -0.0955  0.1048
  525MOL0     C69186   2.766   4.269   8.499 -0.0956  0.8336 -0.1060
  525MOL0     C69187   2.661   4.197   8.451  0.3930  0.7903  0.0644
  525MOL0     C69188   2.560   4.132   8.547  0.0445  0.8988  0.7960
  525MOL0     C69189   2.437   4.233   8.568 -1.1790  0.2542 -0.1592
  525MOL0     C69190   2.343   4.165   8.671  0.5922 -0.6781 -0.2397
  525MOL0     C69191   2.290   4.024   8.670 -0.6440  0.6810  0.0818
  525MOL0     O69192   2.228   3.988   8.542 -0.3221 -0.4749 -0.4499
  525MOL0     C69193   2.092   3.976   8.541 -0.3038  0.2943  0.1523
  525MOL0     C69194   2.031   3.877   8.458 -0.7011  0.1733 -0.0437
  525MOL0     C69195   1.898   3.857   8.463  0.5090 -0.1260  0.0774
  525MOL0     C69196   1.805   3.924   8.551  0.0021 -0.0171 -0.1732
  525MOL0     C69197   1.664   3.902   8.560 -0.2558 -0.2316  0.4860
  525MOL0     O69198   1.595   3.981   8.645  0.3948  0.1748  0.1643
  525MOL0     C69199   1.460   3.973   8.647  0.2482 -0.6946 -0.7468
  525MOL0     C69200   1.394   3.935   8.757 -0.1938 -0.1588 -0.0533
  525MOL0     C69201   1.253   3.937   8.770 -0.3496  0.5504 -0.1486
  525MOL0     C69202   1.169   4.003   8.677 -0.5013  0.6220 -0.1528
  525MOL0     O69203   1.036   4.014   8.704 -0.7922 -0.2342 -0.8196
  525MOL0     C69204   0.947   4.070   8.607 -0.3803 -0.6455 -0.5280
  525MOL0     C69205   0.801   4.057   8.663  0.5369  0.4638 -0.3869
  525MOL0     C69206   0.765   3.911   8.713  0.4579 -0.0664 -0.0455
  525MOL0     C69207   0.767   3.791   8.616 -0.8575 -0.9764 -0.0094
  525MOL0     C69208   0.708   3.670   8.687  0.2454 -0.6823  0.4798
  525MOL0     C69209   0.565   3.682   8.756 -0.3765  0.5023  0.0839
  525MOL0     C69210   0.461   3.737   8.662  0.3632  0.0639 -0.0187
  525MOL0     C69211   0.324   3.739   8.731 -0.3506 -0.4616 -0.1712
  525MOL0    Cl69212   0.321   3.863   8.863 -0.0751  0.0712  0.6522
  525MOL0     C69213   1.244   4.065   8.564  0.2720 -0.4902  0.1412
  525MOL0     C69214   1.379   4.047   8.554  0.0625  0.2505 -0.0821
  525MOL0     O69215   1.616   3.825   8.480 -0.1896  0.8098  0.5028
  525MOL0     C69216   1.863   4.036   8.614  0.0458  0.0169  0.0496
  525MOL0     C69217   2.001   4.058   8.609 -0.6740 -0.0487 -1.2792
  525MOL0     N69218   2.664   4.179   8.320  0.2104  0.7903  0.0183
  525MOL0     N69219   2.772   4.223   8.280  0.0365 -0.8681  0.2788
  525MOL0     C69220   4.063   4.245   8.666  0.1900 -0.6245 -0.3058
  525MOL0     C69221   4.203   4.221   8.672 -0.0445  1.1471  0.1929
  525MOL0     C69222   4.634   4.116   8.550  1.1679 -0.0617  0.1383
  525MOL0     C69223   4.731   4.056   8.473 -1.1812  0.5531 -0.3518
  525MOL0     C69224   4.860   4.073   8.513 -0.3558 -0.0483 -0.6233
  525MOL0     C69225   4.903   4.146   8.625 -0.3970  0.5887  0.2085
  525MOL0     O69226   5.035   4.151   8.657  0.4806 -0.2146 -1.0325
  525MOL0     C69227   5.092   4.279   8.700  0.5830 -0.1568  0.4318
  525MOL0     C69228   5.060   4.395   8.601  0.2689  0.9402  0.2933
  525MOL0     C69229   5.153   4.383   8.479  0.0823 -1.1662 -0.6716
  525MOL0     C69230   5.148   4.258   8.401 -0.6013 -0.0740  0.2442
  525MOL0     C69231   5.221   4.272   8.275 -0.3810  0.0647 -0.1673
  525MOL0     C69232   5.276   4.248   8.175 -0.9443 -0.1857  0.3038
  525MOL0     C69233   4.804   4.197   8.713 -0.1206  0.1560  0.5469
  525MOL0     C69234   4.677   4.183   8.670 -0.0784  0.5367  0.4189
  525MOL0     H69235   4.297   4.308   8.366 -0.4324  1.8813 -0.0484
  525MOL0     H69236   4.060   4.342   8.330 -0.4722  1.2686 -0.0561
  525MOL0     H69237   3.816   4.456   8.408  0.5513  1.6043  0.1122
  525MOL0     H69238   3.871   4.480   8.575 -0.1757  0.5807 -1.0683
  525MOL0     H69239   3.665   4.508   8.617  2.5618 -0.4855  3.1299
  525MOL0     H69240   3.694   4.344   8.673  1.7175 -1.0340  0.3590
  525MOL0     H69241   3.561   4.254   8.458  0.3319  0.2873  0.3040
  525MOL0     H69242   3.560   4.405   8.389 -0.8923  0.4792 -0.1392
  525MOL0     H69243   3.415   4.378   8.656 -0.6910  2.8687  0.9890
  525MOL0     H69244   3.415   4.506   8.543 -0.3762  0.1601  2.5590
  525MOL0     H69245   3.277   4.244   8.530 -0.0826  0.5435  0.9643
  525MOL0     H69246   3.324   4.284   8.370 -0.7410  2.9328 -2.8140
  525MOL0     H69247   3.217   4.473   8.351  0.1616  1.1937  0.1002
  525MOL0     H69248   3.173   4.477   8.530  2.0872  1.1575 -0.3595
  525MOL0     H69249   3.085   4.237   8.346  3.4233 -0.6261  0.5486
  525MOL0     H69250   3.047   4.264   8.507 -0.3918 -0.7183 -0.4186
  525MOL0     H69251   2.949   4.438   8.278 -1.2394  2.7756  1.5397
  525MOL0     H69252   2.927   4.470   8.444 -1.2590  0.8483 -1.1175
  525MOL0     H69253   2.798   4.300   8.598  2.8172 -0.5015 -0.5219
  525MOL0     H69254   2.601   4.124   8.648  0.6678  1.1666  0.5631
  525MOL0     H69255   2.523   4.039   8.501 -0.3624  1.6465 -0.4338
  525MOL0     H69256   2.392   4.255   8.471 -1.5102 -3.3539 -0.9714
  525MOL0     H69257   2.470   4.330   8.605  0.7359 -0.7943  1.0261
  525MOL0     H69258   2.391   4.186   8.767  1.0339  2.7516 -1.0824
  525MOL0     H69259   2.256   4.230   8.661  0.5113 -0.6730  0.4422
  525MOL0     H69260   2.214   4.012   8.748 -0.2358  1.8648  0.6797
  525MOL0     H69261   2.372   3.959   8.702 -0.2095  2.4529  2.9670
  525MOL0     H69262   2.100   3.829   8.389  0.3269  3.0345 -1.2013
  525MOL0     H69263   1.860   3.775   8.403 -3.1218  0.3154  1.5475
  525MOL0     H69264   1.456   3.893   8.836  0.2851  0.3152 -0.1740
  525MOL0     H69265   1.201   3.887   8.851  1.1819 -0.5244  0.2184
  525MOL0     H69266   0.936   4.008   8.517 -4.4932 -0.0184 -0.6688
  525MOL0     H69267   0.973   4.173   8.581 -0.7819 -0.0518  1.2782
  525MOL0     H69268   0.723   4.076   8.589 -0.4495  1.2171  0.7932
  525MOL0     H69269   0.788   4.133   8.741  2.2790  1.6161 -1.1689
  525MOL0     H69270   0.675   3.926   8.774 -0.5399 -1.8448 -0.9898
  525MOL0     H69271   0.842   3.884   8.786  1.7195 -3.9871 -2.5516
  525MOL0     H69272   0.715   3.820   8.525 -1.7180  3.3074  1.6288
  525MOL0     H69273   0.872   3.771   8.589 -0.4826  0.5406  0.2459
  525MOL0     H69274   0.782   3.640   8.762  1.4616 -0.8516 -0.7457
  525MOL0     H69275   0.691   3.583   8.623  3.7387 -2.2509  1.4325
  525MOL0     H69276   0.572   3.755   8.838  0.5640 -0.9146  1.3490
  525MOL0     H69277   0.542   3.579   8.785  0.4999  0.4690  0.7210
  525MOL0     H69278   0.490   3.833   8.619  0.1436  0.8179  1.4463
  525MOL0     H69279   0.464   3.674   8.573  0.6400 -0.2827  0.2301
  525MOL0     H69280   0.293   3.640   8.767 -0.3530 -0.5773 -0.4876
  525MOL0     H69281   0.251   3.758   8.651  0.3812 -1.7995 -1.2028
  525MOL0     H69282   1.191   4.136   8.502  2.5650 -1.1114 -2.7889
  525MOL0     H69283   1.422   4.104   8.473 -1.3879  0.3664 -0.8041
  525MOL0     H69284   1.809   4.117   8.663 -2.3883 -1.7087  0.3831
  525MOL0     H69285   2.040   4.134   8.676 -0.6293  1.4973 -3.0030
  525MOL0     H69286   4.003   4.243   8.757 -1.0692  1.7623 -0.9913
  525MOL0     H69287   4.257   4.198   8.763  0.0353 -1.2585 -0.3887
  525MOL0     H69288   4.721   4.013   8.373 -2.1832  2.4280 -1.1161
  525MOL0     H69289   4.935   4.013   8.462  0.0076 -0.3033  0.2031
  525MOL0     H69290   5.198   4.274   8.726  0.3349  0.0620  1.5434
  525MOL0     H69291   5.038   4.302   8.793  1.9475  2.9392  0.5684
  525MOL0     H69292   4.954   4.388   8.574  0.0229 -2.8859  1.6994
  525MOL0     H69293   5.079   4.490   8.653 -2.0711  2.4641 -1.4082
  525MOL0     H69294   5.255   4.414   8.505 -1.5016  4.0177  0.6289
  525MOL0     H69295   5.110   4.464   8.419 -0.1881 -1.7341 -1.2520
  525MOL0     H69296   5.181   4.173   8.461 -0.8858 -0.4398 -0.1180
  525MOL0     H69297   5.042   4.243   8.379 -0.5562 -1.3358  0.7849
  525MOL0     H69298   5.314   4.225   8.078  0.3267  1.3854  0.3815
  525MOL0     H69299   4.832   4.250   8.803  1.8771 -1.5926  1.0444
  525MOL0     H69300   4.600   4.218   8.737 -3.6006 -2.7587 -1.5351
  526MOL0     O69301   2.763   2.717   4.704 -0.1735 -0.0878  0.1993
  526MOL0     C69302   2.822   2.742   4.599  0.5565 -1.0497 -0.3237
  526MOL0     O69303   2.758   2.766   4.477  0.1227 -0.3124 -0.5152
  526MOL0     C69304   2.624   2.746   4.456  0.0140  0.1587  0.2409
  526MOL0     C69305   2.594   2.690   4.335 -0.0114  0.7349 -0.1613
  526MOL0     C69306   2.461   2.657   4.300 -0.4547  0.1014  0.1129
  526MOL0     C69307   2.348   2.677   4.385  0.7878 -0.1357 -0.6880
  526MOL0     O69308   2.221   2.649   4.352  0.6122  0.1105 -0.4910
  526MOL0     C69309   2.183   2.656   4.211 -0.1946  0.6548  0.4661
  526MOL0     C69310   2.032   2.662   4.198 -0.1266 -0.4481  0.0809
  526MOL0     C69311   1.961   2.542   4.259  0.5140 -0.5540  0.2407
  526MOL0     C69312   2.027   2.410   4.220 -0.6876 -0.9416 -0.3772
  526MOL0     C69313   1.938   2.285   4.210  0.1737 -0.0387 -0.7591
  526MOL0     C69314   1.863   2.269   4.343 -1.0207  0.1374  0.0416
  526MOL0     C69315   1.822   2.121   4.351  0.1067  1.3277  0.2851
  526MOL0     C69316   1.705   2.097   4.257  0.2474 -1.3539  0.7573
  526MOL0     N69317   1.672   1.954   4.262 -0.3862 -0.1868  0.4046
  526MOL0     C69318   1.654   1.879   4.151 -0.6193  0.5191 -0.3453
  526MOL0     C69319   1.599   1.757   4.200 -0.5289  0.1787 -0.1231
  526MOL0     C69320   1.550   1.640   4.121 -0.8238 -1.2896  0.1778
  526MOL0     C69321   1.430   1.674   4.054 -0.1433 -0.0758 -0.1954
  526MOL0     C69322   1.329   1.732   4.146 -0.5041  0.4609 -0.5141
  526MOL0     C69323   1.199   1.734   4.054  0.9969 -0.5472  0.8661
  526MOL0     O69324   1.193   1.833   3.949 -0.2866 -0.7867 -0.3684
  526MOL0     C69325   1.063   1.845   3.896  0.2070  0.0563  0.0899
  526MOL0     C69326   0.973   1.735   3.880 -0.3982 -0.3399 -0.5405
  526MOL0     C69327   0.851   1.755   3.805  0.0819  0.0341  0.6836
  526MOL0     C69328   0.813   1.886   3.763 -1.0254  0.0091 -0.1137
  526MOL0     C69329   0.691   1.908   3.687 -0.5054 -0.5027 -0.5459
  526MOL0     O69330   0.586   1.829   3.704  0.4572  0.3063  0.0376
  526MOL0     C69331   0.477   1.844   3.619  0.4538 -0.2386  0.8515
  526MOL0     C69332   0.397   1.958   3.629  0.0853  0.4693  0.4768
  526MOL0     C69333   0.289   1.976   3.542 -0.0441 -0.4646  0.2327
  526MOL0     C69334   0.261   1.881   3.447 -0.0271  0.4311  0.5053
  526MOL0     O69335   0.161   1.904   3.357 -0.3143  0.0428  0.3704
  526MOL0     C69336   0.045   1.832   3.396 -0.6084 -0.2369  0.8685
  526MOL0     C69337  -0.056   1.886   3.295 -0.2960 -0.0341  0.2107
  526MOL0     C69338  -0.188   1.817   3.308  0.1555  0.2994 -0.0091
  526MOL0     C69339  -0.282   1.893   3.223  0.8395 -0.0747 -0.1616
  526MOL0     C69340  -0.420   1.835   3.243  0.0858 -0.3435  0.1450
  526MOL0     C69341  -0.518   1.901   3.142 -0.4863  0.2057  0.0679
  526MOL0     C69342  -0.655   1.837   3.159  0.2563 -0.7289  0.9366
  526MOL0     C69343  -0.763   1.933   3.131  0.2386 -0.0517  0.1194
  526MOL0    Cl69344  -0.750   1.994   2.958  0.3270  0.5001 -0.2707
  526MOL0     C69345   0.348   1.774   3.423 -0.3265  0.4665  0.6252
  526MOL0     C69346   0.442   1.740   3.525 -0.1872  0.4847 -0.0986
  526MOL0     O69347   0.696   2.005   3.614 -0.2086 -0.5462 -0.1482
  526MOL0     C69348   0.907   1.993   3.785  0.9077  0.1981 -0.1136
  526MOL0     C69349   1.021   1.973   3.858  0.4229 -0.6778 -1.0007
  526MOL0     N69350   1.604   1.776   4.334  0.2395  0.2815  0.0850
  526MOL0     N69351   1.647   1.881   4.373 -0.1209 -0.3643 -0.4699
  526MOL0     C69352   2.386   2.713   4.512  0.0980 -0.5756  0.0141
  526MOL0     C69353   2.523   2.749   4.553  0.3732 -0.6280  0.4727
  526MOL0     C69354   2.964   2.775   4.609 -0.0605  0.0892  0.1497
  526MOL0     C69355   3.042   2.784   4.490  0.5952 -0.6151  0.0192
  526MOL0     C69356   3.176   2.818   4.487 -0.0410  0.6590  0.1954
  526MOL0     C69357   3.240   2.837   4.609  0.5882  0.2132 -0.4123
  526MOL0     O69358   3.373   2.859   4.606 -0.6260 -0.0647  0.0737
  526MOL0     C69359   3.423   2.975   4.684  0.3144  0.6118 -0.0316
  526MOL0     C69360   3.557   2.957   4.749  0.7896  0.2804 -0.0956
  526MOL0     C69361   3.550   2.873   4.878  0.7342 -0.1319 -0.4486
  526MOL0     C69362   3.696   2.851   4.905 -0.3710 -0.0452  0.4425
  526MOL0     C69363   3.728   2.778   5.030  0.1316  0.1676 -0.3919
  526MOL0     C69364   3.777   2.735   5.135  0.2617 -0.3990 -0.0882
  526MOL0     C69365   3.180   2.818   4.730  0.9355 -0.6015  0.5730
  526MOL0     C69366   3.033   2.795   4.731 -1.3412  0.0960 -0.4067
  526MOL0     H69367   2.665   2.674   4.255 -2.0235 -2.8322 -1.4896
  526MOL0     H69368   2.452   2.614   4.201 -3.8759 -1.4062  0.9430
  526MOL0     H69369   2.232   2.581   4.148 -0.0099 -0.5681  1.9975
  526MOL0     H69370   2.211   2.753   4.170  2.6797 -0.3092 -0.0805
  526MOL0     H69371   2.008   2.680   4.093  0.7362  2.3883  0.2758
  526MOL0     H69372   2.002   2.750   4.256 -2.3826 -0.1409 -1.4641
  526MOL0     H69373   1.860   2.542   4.218  0.3023  1.2028  0.6845
  526MOL0     H69374   1.966   2.564   4.366  0.9969 -0.6709  0.2476
  526MOL0     H69375   2.068   2.420   4.119  0.9831 -3.1870 -0.0018
  526MOL0     H69376   2.115   2.387   4.281 -0.0144 -0.2346 -1.0533
  526MOL0     H69377   2.005   2.204   4.180 -1.4132 -1.0357 -1.7798
  526MOL0     H69378   1.861   2.294   4.133  0.7025 -0.1842 -1.3091
  526MOL0     H69379   1.783   2.341   4.362  0.7438  1.8733  1.2336
  526MOL0     H69380   1.933   2.277   4.426 -0.0299 -0.3556 -0.7171
  526MOL0     H69381   1.904   2.052   4.330 -0.3230  1.0574 -0.5472
  526MOL0     H69382   1.788   2.095   4.452 -0.3383  1.3019  0.1325
  526MOL0     H69383   1.737   2.120   4.155  0.7236 -0.2336  1.1493
  526MOL0     H69384   1.624   2.160   4.294  3.0378  2.4876  0.8600
  526MOL0     H69385   1.674   1.907   4.048  1.5401  1.6430  0.3283
  526MOL0     H69386   1.522   1.560   4.189 -0.0093 -0.1013  1.9671
  526MOL0     H69387   1.637   1.613   4.061  0.0964  2.3404 -0.3531
  526MOL0     H69388   1.403   1.580   4.006  1.5738 -0.2458 -0.8956
  526MOL0     H69389   1.438   1.746   3.972 -0.0279 -2.0142 -1.9587
  526MOL0     H69390   1.310   1.684   4.242  3.2399  0.3038  0.2800
  526MOL0     H69391   1.356   1.836   4.163  0.6866  1.2026 -5.3181
  526MOL0     H69392   1.110   1.749   4.116  0.3531 -1.6963  0.2719
  526MOL0     H69393   1.191   1.635   4.008  1.2882 -1.6454  3.0483
  526MOL0     H69394   0.994   1.632   3.906 -2.9317 -1.2963 -1.9054
  526MOL0     H69395   0.783   1.673   3.783  2.0422 -1.7463  0.9356
  526MOL0     H69396   0.432   2.034   3.699  2.3501  0.4467 -0.5564
  526MOL0     H69397   0.239   2.071   3.553  2.5534  1.3091 -2.0683
  526MOL0     H69398   0.006   1.862   3.494  0.9857  0.4822  1.3200
  526MOL0     H69399   0.051   1.723   3.393  2.1235 -0.1231  0.1303
  526MOL0     H69400  -0.005   1.876   3.198  2.3476  1.3132  1.3386
  526MOL0     H69401  -0.077   1.991   3.318 -1.5219  0.2935 -2.0673
  526MOL0     H69402  -0.223   1.815   3.411  2.4748  0.4406  0.8422
  526MOL0     H69403  -0.189   1.712   3.279  0.2077  0.4324 -0.4989
  526MOL0     H69404  -0.280   1.997   3.256  3.8439 -0.1194  0.1204
  526MOL0     H69405  -0.245   1.875   3.121  3.5373 -0.1187  0.7532
  526MOL0     H69406  -0.467   1.866   3.336 -1.0255 -1.5438  0.0161
  526MOL0     H69407  -0.418   1.726   3.231 -1.3150 -0.5250  1.3133
  526MOL0     H69408  -0.491   1.867   3.041 -1.9230 -0.8984  0.0195
  526MOL0     H69409  -0.515   2.010   3.152  0.8361  0.1618  0.3762
  526MOL0     H69410  -0.654   1.743   3.102 -0.7711 -0.8911  1.1803
  526MOL0     H69411  -0.669   1.813   3.264  1.8137  3.4234  2.2958
  526MOL0     H69412  -0.755   2.015   3.203  2.0923  0.0861 -0.1902
  526MOL0     H69413  -0.862   1.888   3.130  0.0937  0.2113 -1.5106
  526MOL0     H69414   0.336   1.716   3.332  1.7313  1.1552 -0.1428
  526MOL0     H69415   0.507   1.654   3.511  0.3315  0.9905 -0.9156
  526MOL0     H69416   0.892   2.095   3.750  1.4186  1.1825  2.3518
  526MOL0     H69417   1.077   2.065   3.874 -0.2218 -0.2977 -0.9116
  526MOL0     H69418   2.313   2.722   4.592  2.3054 -1.5467  2.2459
  526MOL0     H69419   2.544   2.784   4.653  0.7855  0.1510  0.1265
  526MOL0     H69420   2.989   2.770   4.396  0.4587 -0.0564  0.0075
  526MOL0     H69421   3.236   2.816   4.397 -1.9270 -1.2313 -1.1414
  526MOL0     H69422   3.353   3.018   4.756 -1.2018  0.5862 -1.4212
  526MOL0     H69423   3.442   3.049   4.605 -1.2127 -0.7002 -1.7117
  526MOL0     H69424   3.623   2.910   4.676 -0.9768  3.1478 -3.8574
  526MOL0     H69425   3.590   3.059   4.774 -3.0514  1.1930  2.1387
  526MOL0     H69426   3.501   2.777   4.861  0.2029  0.1868 -0.7519
  526MOL0     H69427   3.496   2.940   4.946 -2.5587 -2.1286 -0.8768
  526MOL0     H69428   3.741   2.791   4.826  0.7991  1.7456 -0.3086
  526MOL0     H69429   3.753   2.944   4.900 -1.7345  0.7547 -1.1792
  526MOL0     H69430   3.822   2.707   5.228  0.2681 -0.5325 -0.1314
  526MOL0     H69431   3.229   2.832   4.826  0.1884 -1.3836  1.0906
  526MOL0     H69432   2.963   2.780   4.813  0.2688 -1.3135  0.7597
  527MOL0     O69433   6.739   0.648  10.006 -1.0024  0.0165 -0.0086
  527MOL0     C69434   6.748   0.526   9.992 -0.5150 -0.2252  0.8949
  527MOL0     O69435   6.643   0.449   9.957  0.0680 -0.5009  0.2931
  527MOL0     C69436   6.523   0.516   9.932 -0.3360  0.0526  0.7007
  527MOL0     C69437   6.501   0.581   9.816  0.2547 -1.1737 -0.0166
  527MOL0     C69438   6.380   0.648   9.794  0.2725 -0.3520  0.4203
  527MOL0     C69439   6.271   0.640   9.886 -0.3569 -0.0330  0.4712
  527MOL0     O69440   6.147   0.695   9.863 -0.1719  0.3692 -0.3520
  527MOL0     C69441   6.128   0.799   9.760  0.0447  0.7714 -0.1203
  527MOL0     C69442   6.062   0.733   9.641  0.4125  0.3141  0.0037
  527MOL0     C69443   5.997   0.816   9.530  0.3022  0.1938 -0.5242
  527MOL0     C69444   6.103   0.897   9.458 -1.0018 -0.2333  0.4969
  527MOL0     C69445   6.071   0.897   9.308 -0.4383  0.6257  0.0446
  527MOL0     C69446   5.954   0.988   9.273 -0.2703 -0.1672  0.9414
  527MOL0     C69447   5.882   0.933   9.147 -0.3093  0.0563  0.2079
  527MOL0     C69448   5.745   0.992   9.114 -0.8776  0.7348  0.9958
  527MOL0     N69449   5.645   1.003   9.228  0.1381 -0.0064 -0.3555
  527MOL0     C69450   5.568   0.895   9.270  0.1358  0.2178 -1.1461
  527MOL0     C69451   5.486   0.951   9.364  0.4317  0.4991 -0.5644
  527MOL0     C69452   5.391   0.887   9.451 -0.7293  1.4745  0.6250
  527MOL0     C69453   5.261   0.852   9.381 -0.5111 -0.1177 -0.2763
  527MOL0     C69454   5.177   0.759   9.473 -0.5291  0.2700 -0.3503
  527MOL0     C69455   5.033   0.747   9.421 -0.3840  0.3621  0.1647
  527MOL0     O69456   4.963   0.645   9.496 -0.2024  0.0930 -0.4154
  527MOL0     C69457   4.863   0.577   9.441 -0.3845  0.2609 -0.1886
  527MOL0     C69458   4.769   0.638   9.367  0.2146 -0.8455  0.1448
  527MOL0     C69459   4.670   0.569   9.318  0.7248  0.6597 -0.3913
  527MOL0     C69460   4.654   0.427   9.352 -0.6880 -0.0645 -0.1047
  527MOL0     C69461   4.538   0.355   9.302  0.5793  0.4300  0.2107
  527MOL0     O69462   4.539   0.223   9.342  0.6008  0.4688 -0.5087
  527MOL0     C69463   4.427   0.149   9.309 -0.6586  0.2304  0.9861
  527MOL0     C69464   4.446   0.022   9.258 -0.3117 -0.3321  0.2894
  527MOL0     C69465   4.348  -0.067   9.223  0.4980  0.9764 -0.4115
  527MOL0     C69466   4.212  -0.026   9.242 -0.4189  0.0043  0.5950
  527MOL0     O69467   4.109  -0.092   9.195  1.2262  0.2312  0.1041
  527MOL0     C69468   4.099  -0.092   9.050 -0.0606  0.4730  0.0814
  527MOL0     C69469   3.997   0.018   9.006  0.5780  0.1375  0.1056
  527MOL0     C69470   3.990   0.024   8.858  0.0373 -0.1948 -0.1383
  527MOL0     C69471   3.885   0.128   8.807 -0.4908  0.5951  0.0156
  527MOL0     C69472   3.841   0.113   8.662 -0.9658 -0.3147 -0.2652
  527MOL0     C69473   3.743  -0.001   8.630 -0.1934  0.0588  0.7459
  527MOL0     C69474   3.687   0.000   8.490 -0.4763 -0.3501  0.6040
  527MOL0     C69475   3.708  -0.136   8.425  0.1687  0.3026  0.3785
  527MOL0    Cl69476   3.871  -0.197   8.413 -0.1848  0.2648  0.1092
  527MOL0     C69477   4.191   0.096   9.305  0.3015  0.3261 -0.2502
  527MOL0     C69478   4.293   0.183   9.334 -0.7028  0.1149 -0.7118
  527MOL0     O69479   4.447   0.411   9.238  0.3040  0.0621 -0.1801
  527MOL0     C69480   4.747   0.368   9.438  0.5338 -0.7872 -0.7525
  527MOL0     C69481   4.856   0.439   9.479  0.9864 -0.4273 -0.8777
  527MOL0     N69482   5.506   1.090   9.364 -0.1075  0.2136  0.0002
  527MOL0     N69483   5.617   1.112   9.297  0.1093 -0.9064 -1.0188
  527MOL0     C69484   6.304   0.567  10.006 -0.2168  0.1006 -0.1512
  527MOL0     C69485   6.428   0.503  10.027  0.2847 -0.2246  0.3791
  527MOL0     C69486   6.889   0.481   9.977  1.0038 -0.9268 -0.2788
  527MOL0     C69487   7.000   0.567   9.959 -0.2620 -0.0573  0.2991
  527MOL0     C69488   7.131   0.521   9.965 -0.1054  0.2466  0.6450
  527MOL0     C69489   7.156   0.393   9.990  0.3261 -0.0445 -0.7063
  527MOL0     O69490   7.287   0.350  10.004 -0.1339 -0.3103 -0.9207
  527MOL0     C69491   7.390   0.446  10.054 -0.2259 -0.3754 -0.2933
  527MOL0     C69492   7.359   0.475  10.203  0.8027 -0.1336  0.0281
  527MOL0     C69493   7.366   0.342  10.276 -0.0480 -0.4468 -0.1183
  527MOL0     C69494   7.500   0.277  10.296 -0.5767  0.1429  0.4929
  527MOL0     C69495   7.608   0.373  10.335  0.0768 -0.4566 -0.1411
  527MOL0     C69496   7.694   0.452  10.371 -0.1595  0.5009 -0.8611
  527MOL0     C69497   7.048   0.303   9.988 -0.7271  0.6087  0.3663
  527MOL0     C69498   6.920   0.343   9.966  0.2229 -0.3817  0.0243
  527MOL0     H69499   6.570   0.588   9.733 -2.9373  0.8100 -2.7720
  527MOL0     H69500   6.363   0.705   9.702  1.9082  1.9206  1.4225
  527MOL0     H69501   6.215   0.853   9.722  2.5338 -1.1218  2.4611
  527MOL0     H69502   6.061   0.875   9.800 -1.1189 -0.6870  0.8479
  527MOL0     H69503   5.987   0.658   9.668  1.6251 -2.2829 -3.1304
  527MOL0     H69504   6.145   0.679   9.594  0.7276 -0.5886  1.5398
  527MOL0     H69505   5.916   0.885   9.558  0.5190 -0.2573  1.3387
  527MOL0     H69506   5.952   0.743   9.462  1.7245 -0.2570 -0.9966
  527MOL0     H69507   6.114   1.000   9.494  1.5929  0.0005 -0.6794
  527MOL0     H69508   6.202   0.856   9.481 -1.9196 -1.7711  1.9855
  527MOL0     H69509   6.050   0.796   9.273 -0.9705  0.3657  1.0926
  527MOL0     H69510   6.160   0.923   9.249 -0.2535 -2.3944 -1.1861
  527MOL0     H69511   5.993   1.089   9.255  0.7459 -0.4472  1.5366
  527MOL0     H69512   5.892   0.982   9.364 -1.5393 -1.7989  0.0344
  527MOL0     H69513   5.943   0.949   9.057 -0.4761 -2.5953 -0.4431
  527MOL0     H69514   5.868   0.825   9.158  0.6784  0.0770  2.1160
  527MOL0     H69515   5.696   0.938   9.032  0.4319  2.8897 -1.3391
  527MOL0     H69516   5.761   1.090   9.069  2.7987 -0.7407 -1.3795
  527MOL0     H69517   5.575   0.789   9.249  0.2155  0.1848 -0.9519
  527MOL0     H69518   5.381   0.960   9.532 -3.8390  2.3582 -0.4312
  527MOL0     H69519   5.443   0.805   9.501  1.3811  3.4294  1.8247
  527MOL0     H69520   5.288   0.803   9.286  0.6691  3.7682 -2.1611
  527MOL0     H69521   5.210   0.945   9.356  1.2175  1.2761  1.0547
  527MOL0     H69522   5.217   0.657   9.467 -2.1351 -0.5114  1.0920
  527MOL0     H69523   5.174   0.789   9.578  0.3981 -0.9381  0.0532
  527MOL0     H69524   5.040   0.729   9.313  0.7128  0.1470  0.2603
  527MOL0     H69525   4.984   0.843   9.436  0.3186  0.6854  0.4153
  527MOL0     H69526   4.786   0.744   9.345 -1.2548  0.1190  3.1952
  527MOL0     H69527   4.586   0.619   9.269 -0.9595 -0.2660  1.4130
  527MOL0     H69528   4.549   0.002   9.232 -0.2001  0.7787 -0.1651
  527MOL0     H69529   4.362  -0.165   9.181  2.0388  0.3437  1.4273
  527MOL0     H69530   4.062  -0.190   9.017  1.8847 -0.1556 -0.3575
  527MOL0     H69531   4.188  -0.079   8.988 -0.2976  3.3572  0.2115
  527MOL0     H69532   4.033   0.117   9.033 -0.2659  0.3612  0.4326
  527MOL0     H69533   3.900  -0.009   9.050 -2.2767 -0.8729 -5.7938
  527MOL0     H69534   3.966  -0.079   8.828 -3.6800  0.1883  0.9377
  527MOL0     H69535   4.091   0.045   8.824  1.4072 -2.7377  2.0345
  527MOL0     H69536   3.798   0.110   8.871  0.6668 -2.7323  0.8945
  527MOL0     H69537   3.923   0.229   8.821  3.1836 -0.7799  1.3387
  527MOL0     H69538   3.935   0.108   8.606 -0.4321 -0.7478  0.6430
  527MOL0     H69539   3.788   0.203   8.631 -0.8056 -0.8893 -2.4149
  527MOL0     H69540   3.655  -0.001   8.695 -2.6887  2.7681 -2.2883
  527MOL0     H69541   3.803  -0.091   8.647 -0.0929  0.3843  2.2989
  527MOL0     H69542   3.582   0.030   8.483  0.0133  0.9496 -2.6926
  527MOL0     H69543   3.740   0.070   8.425  1.5981 -0.9412  1.5787
  527MOL0     H69544   3.659  -0.124   8.328 -2.5435  2.7991  1.9081
  527MOL0     H69545   3.656  -0.207   8.491 -1.1226  2.2901  1.6000
  527MOL0     H69546   4.094   0.126   9.343  1.0871  0.4596  1.7901
  527MOL0     H69547   4.270   0.280   9.377 -1.1419  0.8256 -2.4629
  527MOL0     H69548   4.741   0.264   9.472 -0.0190 -1.7642 -3.5714
  527MOL0     H69549   4.926   0.393   9.549 -0.0893  0.7658  1.0917
  527MOL0     H69550   6.233   0.557  10.087  0.7465 -1.1792  0.5676
  527MOL0     H69551   6.450   0.443  10.114 -0.6433 -1.0782  0.0393
  527MOL0     H69552   6.990   0.674   9.948  1.0168 -0.0551 -1.1585
  527MOL0     H69553   7.202   0.603   9.962 -0.0261  0.3295  3.0809
  527MOL0     H69554   7.394   0.541  10.000  3.0561 -0.2734 -0.0956
  527MOL0     H69555   7.492   0.405  10.049 -0.5319 -1.5753  2.0358
  527MOL0     H69556   7.413   0.556  10.253 -1.9433  0.9555  1.4492
  527MOL0     H69557   7.259   0.516  10.216  1.1983  0.8940 -0.0779
  527MOL0     H69558   7.310   0.262  10.226  0.6960 -1.2460  0.3002
  527MOL0     H69559   7.317   0.341  10.374  1.2646 -1.7428  0.5629
  527MOL0     H69560   7.506   0.187  10.358  0.9174  0.5608  1.0091
  527MOL0     H69561   7.530   0.248  10.195  0.4854  1.0515  0.5289
  527MOL0     H69562   7.774   0.503  10.422  0.5564 -2.1477  0.8748
  527MOL0     H69563   7.075   0.198   9.990 -0.4762  0.5070 -3.1881
  527MOL0     H69564   6.840   0.269   9.970  0.6694 -0.8977 -0.3802
  528MOL0     O69565   9.818   5.841   2.026 -0.4750 -0.0392 -0.1822
  528MOL0     C69566   9.845   5.951   1.984 -0.4981  0.5700 -0.2947
  528MOL0     O69567   9.779   6.069   1.995  0.6083  0.0235  0.8510
  528MOL0     C69568   9.640   6.049   2.028 -0.5524 -0.1996  0.1472
  528MOL0     C69569   9.590   5.995   2.148 -1.1683 -0.7194  0.9559
  528MOL0     C69570   9.457   5.964   2.154  0.2297  0.5989 -0.5371
  528MOL0     C69571   9.370   5.982   2.047  0.4758 -0.5493 -0.1672
  528MOL0     O69572   9.242   5.942   2.086 -0.1210 -0.2760  0.2958
  528MOL0     C69573   9.131   6.015   2.029  0.1821 -0.5107  0.8336
  528MOL0     C69574   9.007   5.982   2.098  0.3537  1.0506 -0.7333
  528MOL0     C69575   8.886   6.071   2.065  0.1045  0.1281 -0.6095
  528MOL0     C69576   8.755   6.001   2.123  0.0477 -0.6616  0.1419
  528MOL0     C69577   8.732   6.025   2.277  0.8023  0.4045 -0.1910
  528MOL0     C69578   8.626   5.927   2.333 -0.0353  0.4149 -0.3493
  528MOL0     C69579   8.642   5.887   2.480  0.2065 -0.2529 -1.3174
  528MOL0     C69580   8.528   5.816   2.540 -0.3763 -0.1682 -0.7692
  528MOL0     N69581   8.412   5.905   2.543  0.8080 -0.8431  0.1331
  528MOL0     C69582   8.388   6.035   2.596 -0.2247 -0.0308  0.0512
  528MOL0     C69583   8.257   6.047   2.592  0.1111 -0.2352 -0.4420
  528MOL0     C69584   8.195   6.170   2.670 -0.0234 -0.1346 -0.5446
  528MOL0     C69585   8.082   6.246   2.604 -0.1543 -0.8230 -0.3936
  528MOL0     C69586   8.052   6.386   2.666 -0.0587  0.6246  0.0617
  528MOL0     C69587   7.902   6.402   2.709 -0.2192  0.6250  0.8465
  528MOL0     O69588   7.894   6.412   2.852 -0.1877  0.0432  0.7155
  528MOL0     C69589   7.823   6.321   2.924  0.5602  0.7491  0.2376
  528MOL0     C69590   7.863   6.187   2.932 -0.6492 -0.0903  0.0323
  528MOL0     C69591   7.784   6.095   2.992  0.7426 -0.1766 -0.9572
  528MOL0     C69592   7.656   6.126   3.046  0.0367 -0.1335  0.4236
  528MOL0     C69593   7.576   6.010   3.090  0.5254  0.0768 -0.1275
  528MOL0     O69594   7.466   6.052   3.158 -0.6583  0.3612  0.6435
  528MOL0     C69595   7.364   5.968   3.193  0.2575 -0.2138 -0.6735
  528MOL0     C69596   7.378   5.872   3.298  0.0903  1.6168  0.2044
  528MOL0     C69597   7.267   5.810   3.342 -0.5383 -0.2077 -0.3458
  528MOL0     C69598   7.139   5.835   3.295 -0.6133  0.6786  1.0055
  528MOL0     O69599   7.041   5.755   3.352  1.0150  0.5882  0.2533
  528MOL0     C69600   6.948   5.705   3.255 -0.4751  0.1328  0.0822
  528MOL0     C69601   6.872   5.596   3.322  0.9612 -0.2018  0.0477
  528MOL0     C69602   6.776   5.646   3.436  0.3552  1.2589 -0.5489
  528MOL0     C69603   6.691   5.539   3.497  0.5057  0.1991 -0.1576
  528MOL0     C69604   6.618   5.577   3.620 -0.6823  0.1861 -0.2959
  528MOL0     C69605   6.514   5.679   3.592 -0.0994  0.7159 -0.5956
  528MOL0     C69606   6.418   5.701   3.708 -0.6224 -0.6874  0.8023
  528MOL0     C69607   6.344   5.575   3.753  0.2428  0.5862 -0.9396
  528MOL0    Cl69608   6.221   5.615   3.877 -0.1230 -0.1797  0.8088
  528MOL0     C69609   7.128   5.912   3.176  0.1467 -0.1358  0.0563
  528MOL0     C69610   7.237   5.979   3.132 -1.3061 -0.7100 -0.1529
  528MOL0     O69611   7.600   5.892   3.060  0.3850  0.1233 -0.1860
  528MOL0     C69612   7.616   6.265   3.034 -0.1468 -0.1440  0.0111
  528MOL0     C69613   7.693   6.355   2.967  0.7344  0.2829 -0.0421
  528MOL0     N69614   8.199   5.947   2.521  0.3942 -0.1292 -0.1858
  528MOL0     N69615   8.287   5.857   2.505  0.6748 -0.4639 -0.9355
  528MOL0     C69616   9.410   6.056   1.931 -0.3848  0.0012  0.1584
  528MOL0     C69617   9.551   6.083   1.920 -0.0493 -0.0196  0.1888
  528MOL0     C69618   9.973   5.963   1.918  0.2742 -0.3731  0.0689
  528MOL0     C69619  10.075   5.873   1.945 -0.2742  0.4950  0.6477
  528MOL0     C69620  10.200   5.891   1.889 -0.4745  0.7972  0.8260
  528MOL0     C69621  10.234   5.999   1.810  1.0384 -0.7485  1.1353
  528MOL0     O69622  10.365   6.016   1.780  0.0223 -0.5851 -0.1519
  528MOL0     C69623  10.469   6.031   1.880  0.2232  0.4896 -0.6434
  528MOL0     C69624  10.534   6.165   1.872  0.9239 -0.2284  0.2576
  528MOL0     C69625  10.615   6.206   1.991 -0.0749  0.0579 -0.4917
  528MOL0     C69626  10.686   6.339   1.987  0.0251  0.2080  0.1117
  528MOL0     C69627  10.754   6.353   2.116 -0.5427  0.0214 -0.2932
  528MOL0     C69628  10.831   6.353   2.213  0.3783 -0.8819 -0.2470
  528MOL0     C69629  10.135   6.085   1.761 -0.0202 -0.3260 -0.0996
  528MOL0     C69630  10.005   6.063   1.815  0.7101  0.2478 -0.9757
  528MOL0     H69631   9.652   5.972   2.233 -0.8609  0.8942  1.2149
  528MOL0     H69632   9.413   5.920   2.243 -0.3807  2.4845  0.1364
  528MOL0     H69633   9.119   5.996   1.922  1.0739  2.4418  0.1223
  528MOL0     H69634   9.144   6.123   2.034 -2.8423 -0.1462  2.9584
  528MOL0     H69635   9.018   5.987   2.207 -2.4541  1.3054 -0.3743
  528MOL0     H69636   8.987   5.876   2.077  0.6884  0.4881  1.4955
  528MOL0     H69637   8.879   6.072   1.956  2.4017  1.4177 -0.8162
  528MOL0     H69638   8.904   6.169   2.110  0.9782  1.7121 -4.1319
  528MOL0     H69639   8.663   6.043   2.080 -1.5665 -2.9828  1.1648
  528MOL0     H69640   8.754   5.896   2.094  0.8044 -0.3090 -1.2851
  528MOL0     H69641   8.698   6.127   2.296  0.1960  0.9110 -3.4794
  528MOL0     H69642   8.827   6.005   2.327  0.7370 -1.4727 -0.7204
  528MOL0     H69643   8.638   5.834   2.277  4.0666 -0.4409  1.5663
  528MOL0     H69644   8.530   5.978   2.316  0.1202  1.1521  0.8074
  528MOL0     H69645   8.730   5.826   2.501 -0.0916 -0.0337  0.8334
  528MOL0     H69646   8.669   5.982   2.529 -1.2408  1.0566 -2.9120
  528MOL0     H69647   8.551   5.794   2.644  0.6691  1.5569 -0.5913
  528MOL0     H69648   8.510   5.724   2.483 -1.9131 -2.3949  2.9706
  528MOL0     H69649   8.463   6.108   2.626 -1.6994  1.5516  0.0285
  528MOL0     H69650   8.276   6.242   2.683  0.1081  0.1383 -2.5325
  528MOL0     H69651   8.158   6.140   2.768 -1.8112  1.4326 -0.6795
  528MOL0     H69652   7.997   6.178   2.600 -0.1547 -0.7817 -1.2456
  528MOL0     H69653   8.125   6.267   2.505  0.0297  0.5385 -0.0546
  528MOL0     H69654   8.119   6.415   2.748 -1.5297  0.1804  1.4639
  528MOL0     H69655   8.058   6.462   2.587 -0.7575  0.7239  0.1017
  528MOL0     H69656   7.841   6.318   2.674  1.4741 -1.5600  2.8101
  528MOL0     H69657   7.876   6.488   2.646  2.3215 -0.7524 -2.4222
  528MOL0     H69658   7.958   6.169   2.883 -1.8686 -1.0171 -2.0840
  528MOL0     H69659   7.824   5.995   2.983  0.3427 -0.3825 -0.4438
  528MOL0     H69660   7.478   5.856   3.338 -0.4551 -2.0456  0.3874
  528MOL0     H69661   7.279   5.744   3.427  4.0170  0.9904  0.2082
  528MOL0     H69662   6.992   5.675   3.159 -2.1225 -1.8601 -0.1007
  528MOL0     H69663   6.866   5.775   3.236  0.0039  1.4629  2.4861
  528MOL0     H69664   6.941   5.519   3.357  0.9936 -1.0761 -1.8023
  528MOL0     H69665   6.805   5.553   3.246  1.7755  0.4943 -1.1026
  528MOL0     H69666   6.709   5.729   3.409 -2.2999 -0.2938  0.8811
  528MOL0     H69667   6.837   5.686   3.518  3.0505 -3.2077 -0.0454
  528MOL0     H69668   6.609   5.508   3.432 -3.2827  2.4998  3.0928
  528MOL0     H69669   6.747   5.448   3.519 -3.2186 -2.2935  0.0027
  528MOL0     H69670   6.690   5.627   3.685 -2.5024 -0.3449  2.2907
  528MOL0     H69671   6.587   5.486   3.673  0.9947 -1.2005 -1.5866
  528MOL0     H69672   6.449   5.651   3.509 -0.8963  2.1974 -0.5018
  528MOL0     H69673   6.564   5.775   3.576  3.0550 -0.7025 -0.0074
  528MOL0     H69674   6.472   5.746   3.792  0.1304  1.2547 -0.6308
  528MOL0     H69675   6.342   5.773   3.675  1.4867  2.6062  2.6285
  528MOL0     H69676   6.410   5.506   3.805  0.0471 -1.8257 -3.6579
  528MOL0     H69677   6.299   5.521   3.669  1.9091 -1.5507 -0.5222
  528MOL0     H69678   7.033   5.938   3.130  1.3974 -0.8699 -3.2152
  528MOL0     H69679   7.219   6.046   3.049  1.7602 -0.7488 -0.9612
  528MOL0     H69680   7.523   6.298   3.078 -0.5992  0.1015 -1.0976
  528MOL0     H69681   7.661   6.457   2.947 -2.5253 -0.8181 -1.1099
  528MOL0     H69682   9.343   6.077   1.849  1.4866  3.7962 -0.6414
  528MOL0     H69683   9.593   6.102   1.822 -0.0077  1.4636  0.4765
  528MOL0     H69684  10.065   5.786   2.009  0.4642  0.1272  0.2645
  528MOL0     H69685  10.272   5.819   1.926 -1.1945  0.9793  2.6761
  528MOL0     H69686  10.555   5.967   1.863  1.6617  2.4603 -1.0832
  528MOL0     H69687  10.422   6.033   1.979 -1.8037 -2.3962 -1.3895
  528MOL0     H69688  10.600   6.183   1.787  0.9506  0.0083  0.3267
  528MOL0     H69689  10.455   6.238   1.852  0.6861 -1.3295 -3.5985
  528MOL0     H69690  10.695   6.132   1.990 -1.1437 -1.2371 -3.5523
  528MOL0     H69691  10.552   6.196   2.080 -0.4337 -0.0709 -0.7567
  528MOL0     H69692  10.761   6.329   1.908 -0.1199  1.7323 -0.2609
  528MOL0     H69693  10.620   6.426   1.980 -0.9579 -0.1652  3.1099
  528MOL0     H69694  10.896   6.353   2.298 -1.8910  0.6334  1.6025
  528MOL0     H69695  10.160   6.174   1.704 -0.4353  0.0819  0.3503
  528MOL0     H69696   9.920   6.126   1.791 -0.3056 -1.0739 -0.9873
  529MOL0     O69697   4.520   6.875   1.847  0.0133 -0.7115 -0.7156
  529MOL0     C69698   4.461   6.962   1.786 -0.8105  0.2274 -0.5624
  529MOL0     O69699   4.359   7.037   1.834  0.6084  0.0746  0.6482
  529MOL0     C69700   4.267   7.004   1.927  0.2614 -0.6252  0.0015
  529MOL0     C69701   4.264   6.878   1.992 -1.0104 -0.0104 -0.6075
  529MOL0     C69702   4.180   6.858   2.109  0.4786 -0.2623  0.7356
  529MOL0     C69703   4.098   6.961   2.145 -0.4404 -0.6950 -0.1153
  529MOL0     O69704   4.016   6.941   2.251 -0.4542  0.7564  0.5446
  529MOL0     C69705   4.052   7.004   2.376  0.0610 -1.0597 -0.6064
  529MOL0     C69706   3.989   6.963   2.504  0.1996  0.5229  0.0715
  529MOL0     C69707   3.842   6.986   2.522  0.1694 -0.0934 -0.2160
  529MOL0     C69708   3.774   6.899   2.619  0.4440 -0.0540  0.1217
  529MOL0     C69709   3.803   6.960   2.761  0.8416  0.5609 -1.2460
  529MOL0     C69710   3.738   6.876   2.874 -0.4594 -0.3607 -0.8332
  529MOL0     C69711   3.744   6.954   3.006 -0.0207 -0.0266  0.4659
  529MOL0     C69712   3.698   6.885   3.133  0.0389 -0.2491 -0.1325
  529MOL0     N69713   3.748   6.944   3.254 -0.0875  0.2571  0.0616
  529MOL0     C69714   3.881   6.982   3.278  0.5638  0.4153  1.0030
  529MOL0     C69715   3.875   7.031   3.405 -0.3830  0.3819  0.2444
  529MOL0     C69716   3.988   7.090   3.492 -0.3074 -0.1468 -0.1916
  529MOL0     C69717   4.132   7.089   3.430 -0.1925  0.4545 -0.3628
  529MOL0     C69718   4.160   7.213   3.343  0.5611  0.2560 -0.3675
  529MOL0     C69719   4.243   7.171   3.220 -0.6065 -0.0302 -0.1866
  529MOL0     O69720   4.376   7.139   3.273 -0.7669 -0.4764 -0.7380
  529MOL0     C69721   4.472   7.101   3.177  0.4987 -0.6638 -0.2964
  529MOL0     C69722   4.613   7.127   3.207  0.5937  0.4364 -0.5615
  529MOL0     C69723   4.718   7.079   3.129 -0.4626 -0.0331 -0.6870
  529MOL0     C69724   4.692   6.997   3.014  0.5206 -0.3240 -0.5671
  529MOL0     C69725   4.799   6.941   2.936 -0.7323  0.7650  0.4654
  529MOL0     O69726   4.769   6.915   2.801  0.5187  0.1473 -0.2438
  529MOL0     C69727   4.846   6.851   2.706  0.3711 -0.2048 -0.2527
  529MOL0     C69728   4.978   6.809   2.724 -0.6408 -0.4294  0.3174
  529MOL0     C69729   5.038   6.741   2.625 -0.3669  0.2463  0.5394
  529MOL0     C69730   4.975   6.717   2.505 -0.5030  0.2856  0.1217
  529MOL0     O69731   5.032   6.638   2.407  0.5341 -0.0780  0.0833
  529MOL0     C69732   5.115   6.528   2.438  0.6902 -0.5498  0.0074
  529MOL0     C69733   5.052   6.445   2.550  0.4409 -0.2618  0.1591
  529MOL0     C69734   5.121   6.306   2.559  0.4169 -0.2112  0.2232
  529MOL0     C69735   5.073   6.209   2.666 -0.5219  0.9452  0.2304
  529MOL0     C69736   5.148   6.082   2.680 -0.2214 -0.2610 -0.6340
  529MOL0     C69737   5.181   6.010   2.546  0.5032 -0.0652  0.5002
  529MOL0     C69738   5.178   5.865   2.571  0.0740  0.0339 -0.1867
  529MOL0     C69739   5.195   5.793   2.440 -0.5688  0.1526  0.1312
  529MOL0    Cl69740   5.185   5.612   2.476  0.6587 -0.0403 -0.2613
  529MOL0     C69741   4.852   6.762   2.482 -0.1423  1.3525  0.5757
  529MOL0     C69742   4.784   6.825   2.586  0.1856  1.0627 -0.0010
  529MOL0     O69743   4.906   6.910   2.990 -0.1592  0.2689 -0.1381
  529MOL0     C69744   4.556   6.977   2.982  0.4093  0.0119  0.6893
  529MOL0     C69745   4.448   7.016   3.064  0.0225  0.3463 -0.2460
  529MOL0     N69746   3.743   7.024   3.463 -0.0948  0.2168  0.9328
  529MOL0     N69747   3.671   6.971   3.366  0.1587 -0.5223 -0.1302
  529MOL0     C69748   4.096   7.076   2.073  0.0354 -0.1617  0.7257
  529MOL0     C69749   4.177   7.102   1.959  0.2743  0.4080 -0.5055
  529MOL0     C69750   4.524   6.997   1.651  0.8919  0.5791 -0.8148
  529MOL0     C69751   4.609   6.905   1.593 -0.0724  0.0503  0.0991
  529MOL0     C69752   4.656   6.933   1.462 -0.2299 -0.0449  0.3293
  529MOL0     C69753   4.618   7.050   1.384  0.9000  0.3508 -0.3774
  529MOL0     O69754   4.642   7.074   1.249  0.1936  0.5625  0.0971
  529MOL0     C69755   4.612   6.978   1.145  0.3942 -0.0023 -0.3343
  529MOL0     C69756   4.510   7.022   1.045  0.2270 -0.4751  0.0169
  529MOL0     C69757   4.372   7.049   1.109 -0.0775  0.0639 -0.1546
  529MOL0     C69758   4.286   6.924   1.132 -0.6274 -0.4568 -0.0513
  529MOL0     C69759   4.330   6.855   1.257 -0.4951 -0.1079 -0.3164
  529MOL0     C69760   4.367   6.789   1.352 -0.2419 -0.4662  0.0243
  529MOL0     C69761   4.543   7.142   1.457 -0.3513  0.0766  0.1794
  529MOL0     C69762   4.487   7.116   1.584 -0.2515  0.8078 -0.7327
  529MOL0     H69763   4.333   6.801   1.959 -0.2895 -0.1861  1.1930
  529MOL0     H69764   4.192   6.763   2.159 -2.3760 -1.9106 -1.4102
  529MOL0     H69765   4.040   7.112   2.376  0.8816 -0.9626 -1.3626
  529MOL0     H69766   4.158   6.981   2.391  0.8290  1.6514 -1.3848
  529MOL0     H69767   4.036   7.023   2.583 -0.4421  0.2862  0.6425
  529MOL0     H69768   4.004   6.855   2.508  0.5282  0.5079 -1.1959
  529MOL0     H69769   3.801   6.950   2.427  0.8124 -1.1528 -0.0967
  529MOL0     H69770   3.810   7.091   2.530 -3.3591 -0.8041 -2.6651
  529MOL0     H69771   3.667   6.908   2.597  0.4048  2.6688  1.1199
  529MOL0     H69772   3.807   6.794   2.617  0.2862 -0.1390 -3.1944
  529MOL0     H69773   3.758   7.059   2.764  2.4516  1.3769 -2.2168
  529MOL0     H69774   3.910   6.970   2.781  0.3735  1.4376  1.0068
  529MOL0     H69775   3.797   6.786   2.890 -0.7428 -0.2838  0.8200
  529MOL0     H69776   3.636   6.843   2.853 -1.6296  0.6518  2.5823
  529MOL0     H69777   3.849   6.987   3.005  0.1646 -0.5313  1.6866
  529MOL0     H69778   3.700   7.053   2.999 -0.1649 -0.0877  0.4939
  529MOL0     H69779   3.711   6.777   3.137 -1.1954 -0.3935  0.8764
  529MOL0     H69780   3.590   6.902   3.138 -0.3343 -2.6072  1.2055
  529MOL0     H69781   3.972   6.982   3.219 -0.0107 -1.0532  0.0703
  529MOL0     H69782   3.972   7.041   3.588  2.0695 -1.0789 -0.2141
  529MOL0     H69783   3.971   7.198   3.499  3.0866  0.6571 -1.8770
  529MOL0     H69784   4.144   6.998   3.370  1.9019  0.4818 -0.0507
  529MOL0     H69785   4.209   7.073   3.506 -0.2433 -0.8450 -0.5649
  529MOL0     H69786   4.065   7.245   3.300  1.7106  2.4926 -1.3998
  529MOL0     H69787   4.197   7.301   3.397  1.3186  0.1982 -0.7860
  529MOL0     H69788   4.245   7.252   3.148 -2.3791 -0.8110 -1.1500
  529MOL0     H69789   4.197   7.091   3.162 -1.1923  0.0809  0.1161
  529MOL0     H69790   4.627   7.184   3.298  3.4547 -3.5471  1.7839
  529MOL0     H69791   4.820   7.098   3.160 -1.3783 -1.2327  3.6385
  529MOL0     H69792   5.037   6.807   2.815  0.4291 -2.3761 -0.3375
  529MOL0     H69793   5.140   6.705   2.640 -0.9273 -1.0587  1.3413
  529MOL0     H69794   5.215   6.566   2.463 -0.1071  2.8317 -1.2954
  529MOL0     H69795   5.130   6.470   2.347  3.2704 -0.2828  0.1874
  529MOL0     H69796   4.943   6.442   2.540  0.4129  1.0536 -0.0941
  529MOL0     H69797   5.067   6.496   2.646 -1.2149  1.0273 -0.2267
  529MOL0     H69798   5.223   6.334   2.585 -0.3387  0.1074  3.2739
  529MOL0     H69799   5.111   6.250   2.466  2.3539 -1.2385  0.6009
  529MOL0     H69800   5.067   6.249   2.767  4.0439 -2.9069  2.4448
  529MOL0     H69801   4.978   6.167   2.632  1.0260 -0.1609 -3.1622
  529MOL0     H69802   5.080   6.015   2.734  0.1629 -0.7729 -0.7894
  529MOL0     H69803   5.244   6.101   2.728 -0.2813  1.8860 -1.2620
  529MOL0     H69804   5.283   6.035   2.515  0.3261 -1.9988 -1.8974
  529MOL0     H69805   5.104   6.027   2.470  1.6223  0.6009 -0.5166
  529MOL0     H69806   5.262   5.839   2.636 -0.0115  0.3860  0.0675
  529MOL0     H69807   5.082   5.831   2.611 -0.7493  1.2270 -1.0682
  529MOL0     H69808   5.296   5.822   2.412  0.7967 -3.6808  0.5334
  529MOL0     H69809   5.120   5.815   2.363  0.4256 -3.3282 -2.0759
  529MOL0     H69810   4.806   6.753   2.384 -1.4971  0.2706  1.2765
  529MOL0     H69811   4.684   6.854   2.556 -1.2234 -2.7537  0.4399
  529MOL0     H69812   4.540   6.920   2.892 -1.1645 -0.2804  1.1351
  529MOL0     H69813   4.346   6.990   3.038  0.4188 -0.6722 -0.8704
  529MOL0     H69814   4.037   7.157   2.114  1.1353  1.7968 -1.3603
  529MOL0     H69815   4.153   7.190   1.900 -3.5480  0.2360  0.5573
  529MOL0     H69816   4.658   6.823   1.645  1.2178  0.3047 -0.6621
  529MOL0     H69817   4.729   6.865   1.419  0.4734  0.3217  0.9338
  529MOL0     H69818   4.584   6.883   1.192  2.9175 -1.1644 -1.0271
  529MOL0     H69819   4.708   6.964   1.095  1.2555 -0.5414  1.3858
  529MOL0     H69820   4.543   7.112   0.992  0.5118 -1.1003 -0.9103
  529MOL0     H69821   4.504   6.943   0.969  0.2640  0.6521 -1.1998
  529MOL0     H69822   4.324   7.118   1.039 -1.1208  2.1602  2.4585
  529MOL0     H69823   4.368   7.111   1.199  0.6614  2.2915 -1.5681
  529MOL0     H69824   4.181   6.948   1.153 -0.2963 -0.7218  2.1582
  529MOL0     H69825   4.301   6.860   1.045 -0.4660 -0.2205 -0.1952
  529MOL0     H69826   4.413   6.732   1.430 -0.3803 -0.2784  0.2441
  529MOL0     H69827   4.518   7.236   1.409  2.4369  0.5609 -0.5243
  529MOL0     H69828   4.424   7.188   1.636 -0.9833  1.0591 -1.9380
  530MOL0     O69829  10.169   7.333   2.323 -0.5257 -0.0010 -0.0454
  530MOL0     C69830  10.094   7.344   2.418  0.6463  0.0626  0.6527
  530MOL0     O69831   9.995   7.257   2.459  0.0564  0.2530  0.3888
  530MOL0     C69832   9.930   7.174   2.365 -0.5828 -0.1701 -0.0901
  530MOL0     C69833   9.844   7.081   2.424  0.7047 -0.4595  0.4752
  530MOL0     C69834   9.778   6.987   2.349  0.1373  0.6558  0.4042
  530MOL0     C69835   9.771   7.005   2.212 -0.1094 -0.3711  0.0600
  530MOL0     O69836   9.699   6.913   2.137  0.8027  0.1915  0.0959
  530MOL0     C69837   9.764   6.819   2.058 -0.0383  0.5999  0.0691
  530MOL0     C69838   9.652   6.718   2.004  0.4832  0.4502 -1.3441
  530MOL0     C69839   9.587   6.631   2.118 -0.2691  0.2506 -0.1186
  530MOL0     C69840   9.499   6.511   2.080 -0.3707  0.3784  0.5940
  530MOL0     C69841   9.442   6.458   2.215 -0.5966 -0.5639  0.4459
  530MOL0     C69842   9.344   6.347   2.180 -0.6115  0.1819  0.3956
  530MOL0     C69843   9.276   6.284   2.297 -0.2758 -0.6198 -0.5545
  530MOL0     C69844   9.139   6.359   2.340 -0.2301 -0.1974  0.5075
  530MOL0     N69845   9.078   6.282   2.445  0.6429  0.2276  0.7066
  530MOL0     C69846   9.143   6.238   2.558  0.4685 -0.2310  0.9992
  530MOL0     C69847   9.051   6.158   2.616  0.3525  0.4104  0.0074
  530MOL0     C69848   9.057   6.105   2.756 -1.3244  0.3829  1.0859
  530MOL0     C69849   8.980   6.204   2.839 -0.4318  0.2256 -0.7130
  530MOL0     C69850   9.067   6.324   2.885  0.7576  0.1625  0.7736
  530MOL0     C69851   8.984   6.420   2.976  1.2202  0.7730  0.4274
  530MOL0     O69852   8.873   6.485   2.910 -0.4817  0.2142 -0.1764
  530MOL0     C69853   8.836   6.616   2.950  0.3194 -1.2587  0.1136
  530MOL0     C69854   8.757   6.687   2.864 -0.5118 -0.3498 -0.3166
  530MOL0     C69855   8.690   6.797   2.913 -0.3435 -0.3550 -0.2299
  530MOL0     C69856   8.715   6.853   3.036  0.4283 -0.3049 -0.1460
  530MOL0     C69857   8.650   6.985   3.065 -0.1975  0.3139 -0.0043
  530MOL0     O69858   8.709   7.060   3.162  0.0486  1.2995 -0.2662
  530MOL0     C69859   8.682   7.186   3.205  0.1227  0.7781 -0.8837
  530MOL0     C69860   8.558   7.249   3.177 -0.2636  0.3043 -0.1089
  530MOL0     C69861   8.515   7.368   3.233  0.0669  0.5261  0.5423
  530MOL0     C69862   8.601   7.431   3.320  0.8890 -0.4090  0.4395
  530MOL0     O69863   8.572   7.549   3.378 -1.0408  0.4638  0.1773
  530MOL0     C69864   8.456   7.622   3.332 -0.6609 -0.7899 -0.2711
  530MOL0     C69865   8.327   7.570   3.395 -0.2234 -0.8806  0.8350
  530MOL0     C69866   8.204   7.639   3.329  0.8115 -0.0616  0.0974
  530MOL0     C69867   8.193   7.789   3.369 -0.4019 -0.8743  0.6822
  530MOL0     C69868   8.145   7.813   3.509  0.5317 -0.2956 -0.0225
  530MOL0     C69869   7.995   7.768   3.532 -0.7414 -1.0178  0.9004
  530MOL0     C69870   7.970   7.778   3.685 -1.5529 -0.8011 -0.1519
  530MOL0     C69871   7.860   7.689   3.732  0.5211  0.0636  0.6520
  530MOL0    Cl69872   7.774   7.767   3.860  0.3067  0.1639 -0.4912
  530MOL0     C69873   8.729   7.373   3.353  1.2109 -0.4259 -0.1392
  530MOL0     C69874   8.776   7.259   3.290  0.3788 -0.2465  1.0025
  530MOL0     O69875   8.554   7.015   2.997  0.1957 -0.1840 -0.0408
  530MOL0     C69876   8.800   6.784   3.115  0.4759 -0.0838  0.0385
  530MOL0     C69877   8.852   6.663   3.073  0.4282  0.8336 -0.1129
  530MOL0     N69878   8.938   6.148   2.538  0.0108 -0.7673 -0.1731
  530MOL0     N69879   8.953   6.223   2.437 -0.5434  0.2269  0.3419
  530MOL0     C69880   9.852   7.095   2.145 -0.0292 -0.2093  0.3249
  530MOL0     C69881   9.920   7.183   2.224 -0.3307  0.6475  1.1277
  530MOL0     C69882  10.097   7.472   2.497 -0.7890  0.3293  0.7548
  530MOL0     C69883  10.217   7.549   2.500 -0.0477  0.9409 -0.1559
  530MOL0     C69884  10.227   7.656   2.585 -0.8346 -0.2479 -0.0833
  530MOL0     C69885  10.124   7.687   2.667  0.7600  0.2727  0.2251
  530MOL0     O69886  10.122   7.793   2.753 -0.0199 -0.2891  0.7686
  530MOL0     C69887  10.221   7.902   2.742 -0.1668  1.0640  0.2052
  530MOL0     C69888  10.199   7.991   2.613  0.0930  0.3110  0.0057
  530MOL0     C69889  10.111   8.112   2.639  0.4007 -0.3906 -0.2267
  530MOL0     C69890  10.092   8.193   2.508  0.3104 -0.5555  0.1441
  530MOL0     C69891   9.975   8.277   2.495 -0.4557 -0.1626 -1.0432
  530MOL0     C69892   9.870   8.341   2.497  0.3861 -0.2380  0.6997
  530MOL0     C69893  10.010   7.614   2.671 -0.8230  0.1611 -0.5849
  530MOL0     C69894   9.997   7.503   2.584  1.0531 -0.1856  0.1319
  530MOL0     H69895   9.842   7.072   2.533  1.4380 -0.3341  0.5025
  530MOL0     H69896   9.708   6.926   2.405 -1.8996  2.2756 -0.2736
  530MOL0     H69897   9.835   6.765   2.121  0.8870  0.7669 -0.8084
  530MOL0     H69898   9.811   6.875   1.976 -2.5621  1.1645 -1.0733
  530MOL0     H69899   9.689   6.645   1.932 -3.3899 -1.9138 -1.2205
  530MOL0     H69900   9.571   6.776   1.958 -1.4355  0.4918  1.8089
  530MOL0     H69901   9.534   6.695   2.188 -0.2879 -0.1464  0.2307
  530MOL0     H69902   9.672   6.595   2.177  0.4943  3.2562  0.7511
  530MOL0     H69903   9.422   6.554   2.016  0.7174  0.9053 -0.4112
  530MOL0     H69904   9.553   6.425   2.038 -0.7282  0.4526 -0.0262
  530MOL0     H69905   9.392   6.542   2.265  0.0828  0.3970 -0.4560
  530MOL0     H69906   9.519   6.417   2.281  0.5610 -1.1841 -1.2335
  530MOL0     H69907   9.398   6.262   2.136 -1.0413  0.5582 -0.8957
  530MOL0     H69908   9.267   6.379   2.110  0.7986  0.9543 -0.8782
  530MOL0     H69909   9.250   6.178   2.287  0.1389 -1.0081  1.9750
  530MOL0     H69910   9.337   6.278   2.387 -2.8439 -1.1183  1.2853
  530MOL0     H69911   9.076   6.373   2.252  3.4137  0.7079 -2.2237
  530MOL0     H69912   9.161   6.461   2.375  1.1700 -0.3717  0.2118
  530MOL0     H69913   9.241   6.260   2.599  0.2016 -0.8941  2.0191
  530MOL0     H69914   9.162   6.091   2.782  0.0615  1.5264 -3.1867
  530MOL0     H69915   9.008   6.007   2.764 -0.8071 -0.0823 -1.0094
  530MOL0     H69916   8.935   6.156   2.926 -0.9732  1.6839 -0.1593
  530MOL0     H69917   8.892   6.237   2.784 -1.6542 -0.7373  0.6086
  530MOL0     H69918   9.156   6.284   2.935  0.4217 -1.6964 -0.0590
  530MOL0     H69919   9.101   6.369   2.791 -0.5191  7.0394  2.9959
  530MOL0     H69920   9.053   6.493   3.019  2.5028  0.4165 -0.9216
  530MOL0     H69921   8.944   6.373   3.066 -2.7276  1.5613 -0.7319
  530MOL0     H69922   8.755   6.645   2.764  3.0445 -0.4267 -0.5015
  530MOL0     H69923   8.622   6.852   2.848 -0.5730  2.4534  2.1593
  530MOL0     H69924   8.487   7.190   3.120 -0.7459 -0.2407  1.0179
  530MOL0     H69925   8.417   7.405   3.205 -2.5542 -2.8040  4.1672
  530MOL0     H69926   8.448   7.630   3.223 -2.2459  1.2543 -0.0665
  530MOL0     H69927   8.466   7.723   3.373 -0.5085 -0.3877 -1.2723
  530MOL0     H69928   8.329   7.600   3.501 -5.3868 -0.8442  1.2135
  530MOL0     H69929   8.308   7.463   3.392 -2.2618 -0.5416 -0.6691
  530MOL0     H69930   8.119   7.576   3.355  2.5404 -3.1101 -1.0893
  530MOL0     H69931   8.223   7.632   3.222 -0.4740  0.7567 -0.2079
  530MOL0     H69932   8.285   7.847   3.352 -1.3361 -0.1242 -2.5405
  530MOL0     H69933   8.126   7.833   3.295 -1.2975  1.5473  2.7887
  530MOL0     H69934   8.156   7.916   3.544 -2.7685  0.7212 -1.5175
  530MOL0     H69935   8.198   7.750   3.581  0.4298 -0.0470  0.2709
  530MOL0     H69936   7.972   7.670   3.490 -1.6572 -0.1398 -0.7668
  530MOL0     H69937   7.933   7.838   3.474  1.5899 -1.2757 -2.1282
  530MOL0     H69938   8.059   7.740   3.736  0.2279  0.6405 -2.0318
  530MOL0     H69939   7.951   7.879   3.723  1.8393 -0.4714  0.9661
  530MOL0     H69940   7.900   7.591   3.760  2.5680  0.5907 -0.2435
  530MOL0     H69941   7.800   7.670   3.643 -1.0573  1.2917  1.4062
  530MOL0     H69942   8.788   7.422   3.430  2.4734 -0.5590 -1.0064
  530MOL0     H69943   8.877   7.230   3.319 -0.1373 -1.4628  1.6891
  530MOL0     H69944   8.818   6.822   3.216 -1.0194 -0.7214  0.5664
  530MOL0     H69945   8.918   6.621   3.148  1.0688  1.6922 -0.1793
  530MOL0     H69946   9.842   7.106   2.038 -0.0106  0.6185  0.3964
  530MOL0     H69947   9.965   7.255   2.155  0.3179 -1.4562 -0.7874
  530MOL0     H69948  10.304   7.507   2.452 -1.1439 -0.8754 -0.6672
  530MOL0     H69949  10.324   7.703   2.583 -0.7993 -0.2491  0.9817
  530MOL0     H69950  10.323   7.867   2.724 -0.1021  0.8890  0.8866
  530MOL0     H69951  10.232   7.966   2.830  1.2787  2.5649 -1.0019
  530MOL0     H69952  10.303   8.016   2.593  0.0121  0.0652 -0.7312
  530MOL0     H69953  10.146   7.941   2.532  0.1660 -1.4550  1.0120
  530MOL0     H69954  10.141   8.175   2.724 -0.7262  1.1758 -0.9421
  530MOL0     H69955  10.010   8.084   2.670  1.2348 -1.3711  1.7928
  530MOL0     H69956  10.176   8.263   2.501  0.6549 -0.7965  1.5035
  530MOL0     H69957  10.089   8.123   2.425 -0.5838 -0.7926  0.3592
  530MOL0     H69958   9.780   8.399   2.489  1.4363  1.4315  0.6539
  530MOL0     H69959   9.933   7.617   2.748 -1.0547 -2.6415 -0.5971
  530MOL0     H69960   9.906   7.443   2.591  1.5639 -1.0363 -0.3955
  531MOL0     O69961   1.186  11.068   5.372  0.5554  0.6120  0.6930
  531MOL0     C69962   1.251  11.151   5.440  0.7161 -0.2854  0.3813
  531MOL0     O69963   1.193  11.235   5.536 -0.0755  0.4697  0.1545
  531MOL0     C69964   1.055  11.254   5.534 -0.5187  0.0554 -0.2325
  531MOL0     C69965   0.991  11.304   5.423  0.4342 -0.4396 -1.1467
  531MOL0     C69966   0.859  11.285   5.416  1.1897  0.8048 -0.0348
  531MOL0     C69967   0.779  11.249   5.526  0.9938 -0.3297  0.4906
  531MOL0     O69968   0.643  11.247   5.511  0.1429  0.2283 -0.1990
  531MOL0     C69969   0.571  11.364   5.571  0.8289 -0.2529  0.7880
  531MOL0     C69970   0.431  11.366   5.499  0.9097  1.1134 -0.9602
  531MOL0     C69971   0.432  11.472   5.388  0.3582 -0.0169 -0.1886
  531MOL0     C69972   0.410  11.623   5.446 -0.7033 -0.4903  0.7684
  531MOL0     C69973   0.276  11.689   5.381 -0.6181 -0.4625 -0.0621
  531MOL0     C69974   0.140  11.612   5.382  0.0041  0.2446 -0.2762
  531MOL0     C69975   0.095  11.574   5.521 -0.1928  0.5705  0.6698
  531MOL0     C69976  -0.048  11.534   5.535  0.2793 -0.6588  0.7867
  531MOL0     N69977  -0.066  11.402   5.473  0.4705 -0.4752 -0.2812
  531MOL0     C69978  -0.118  11.363   5.347  0.0215 -0.6070 -1.2636
  531MOL0     C69979  -0.077  11.234   5.338 -0.6264 -0.0129  0.3795
  531MOL0     C69980  -0.120  11.147   5.222  0.6985  0.3962 -0.0804
  531MOL0     C69981  -0.214  11.028   5.272  0.1673  0.4912  0.0199
  531MOL0     C69982  -0.346  11.083   5.309  1.1823 -0.0389 -0.6854
  531MOL0     C69983  -0.427  11.147   5.197  0.3714  1.1290  0.5966
  531MOL0     O69984  -0.413  11.080   5.069  0.1997  0.2383 -0.5835
  531MOL0     C69985  -0.501  11.142   4.987 -0.6784  0.3365  0.9951
  531MOL0     C69986  -0.547  11.053   4.886 -0.2073 -0.3122  0.5880
  531MOL0     C69987  -0.639  11.096   4.782  0.3930 -0.8270  0.1868
  531MOL0     C69988  -0.675  11.231   4.782  0.3373  0.1263 -0.8841
  531MOL0     C69989  -0.765  11.304   4.687 -0.0828 -0.3303  0.5815
  531MOL0     O69990  -0.824  11.418   4.728 -0.2956 -0.1977  0.2086
  531MOL0     C69991  -0.902  11.494   4.652  0.4104 -0.2068  0.3482
  531MOL0     C69992  -1.021  11.448   4.578  0.6139  0.8574  0.4279
  531MOL0     C69993  -1.098  11.550   4.511 -0.0487 -0.5062 -0.0776
  531MOL0     C69994  -1.060  11.680   4.512 -0.1732  0.9224  0.9299
  531MOL0     O69995  -1.135  11.774   4.453  0.2437 -0.3310  0.2720
  531MOL0     C69996  -1.263  11.785   4.517  1.1892 -0.8410 -0.0974
  531MOL0     C69997  -1.313  11.920   4.480 -0.4749  0.0715 -0.3897
  531MOL0     C69998  -1.250  12.030   4.573  0.2018  0.8412 -0.2989
  531MOL0     C69999  -1.322  12.171   4.578 -0.4988 -0.6184 -0.2084
  531MOL0     C70000  -1.439  12.168   4.681  0.0924  0.2894 -0.2252
  531MOL0     C70001  -1.540  12.284   4.674  1.2440  0.0468 -0.9990
  531MOL0     C70002  -1.465  12.420   4.699 -0.7812  0.7466 -1.2148
  531MOL0     C70003  -1.557  12.534   4.678  0.1484  1.0828  0.9603
  531MOL0    Cl70004  -1.567  12.564   4.493 -0.4630 -0.1871 -0.3716
  531MOL0     C70005  -0.949  11.721   4.582 -1.2156  0.5137  0.1503
  531MOL0     C70006  -0.866  11.629   4.648  0.2019  0.1459  0.3718
  531MOL0     O70007  -0.786  11.256   4.578  0.6420  0.0929  0.5940
  531MOL0     C70008  -0.615  11.317   4.871 -1.0449 -0.2750 -0.6698
  531MOL0     C70009  -0.536  11.279   4.974 -0.9748  0.3085  0.2962
  531MOL0     N70010  -0.007  11.185   5.451 -0.1231 -0.3441  0.0622
  531MOL0     N70011  -0.001  11.294   5.527 -0.1077  0.3394 -0.0213
  531MOL0     C70012   0.844  11.213   5.640  0.0851 -0.6058 -0.2917
  531MOL0     C70013   0.982  11.216   5.647  0.6558  0.3381 -0.2695
  531MOL0     C70014   1.400  11.162   5.420 -0.8628 -1.3247  0.1338
  531MOL0     C70015   1.462  11.107   5.300  0.1478  0.5009  0.2625
  531MOL0     C70016   1.608  11.098   5.303  0.0182  0.9905  0.5317
  531MOL0     C70017   1.691  11.155   5.400 -1.1651  0.4625  0.2346
  531MOL0     O70018   1.827  11.163   5.392 -0.1414 -0.4407  0.3683
  531MOL0     C70019   1.904  11.094   5.289 -0.0072 -0.4775 -1.1858
  531MOL0     C70020   1.949  11.194   5.180  0.6686  0.5906 -0.0256
  531MOL0     C70021   2.065  11.134   5.084  0.7739 -0.4284  0.4308
  531MOL0     C70022   2.160  11.235   5.017  0.6457 -0.0437  0.3556
  531MOL0     C70023   2.254  11.294   5.109  0.9568 -0.5062 -0.3932
  531MOL0     C70024   2.338  11.345   5.186  0.3063  1.4042 -0.2436
  531MOL0     C70025   1.626  11.222   5.499  0.6099 -0.5263 -0.3183
  531MOL0     C70026   1.488  11.213   5.512  1.1840 -0.0686 -0.3505
  531MOL0     H70027   1.053  11.338   5.340 -0.9206 -2.1710 -2.9766
  531MOL0     H70028   0.813  11.312   5.321 -1.4245 -0.1813  0.8888
  531MOL0     H70029   0.633  11.450   5.546 -0.5053 -0.6624 -5.6849
  531MOL0     H70030   0.551  11.349   5.677 -1.6632 -0.6053  0.3423
  531MOL0     H70031   0.354  11.384   5.576  2.0220 -2.3056  1.1589
  531MOL0     H70032   0.407  11.267   5.460 -0.7456  1.5273 -1.0660
  531MOL0     H70033   0.360  11.452   5.309  0.5448  1.4004 -0.7405
  531MOL0     H70034   0.527  11.453   5.338 -1.0578 -0.0871 -3.0434
  531MOL0     H70035   0.408  11.621   5.556 -0.3606 -0.0498  0.7866
  531MOL0     H70036   0.493  11.689   5.421 -1.0289 -1.2625 -2.9648
  531MOL0     H70037   0.296  11.699   5.274  1.9748  1.0780  0.4850
  531MOL0     H70038   0.251  11.790   5.415 -1.3092 -0.0527 -1.6990
  531MOL0     H70039   0.160  11.521   5.326  1.0248 -1.1631  2.2146
  531MOL0     H70040   0.066  11.677   5.334  1.1098 -0.4877 -3.1938
  531MOL0     H70041   0.165  11.505   5.570  0.0476  0.8159  0.6729
  531MOL0     H70042   0.094  11.667   5.579  1.9470  1.0236  0.0625
  531MOL0     H70043  -0.107  11.606   5.478  0.6866 -1.3050 -0.4885
  531MOL0     H70044  -0.085  11.527   5.637 -1.3187 -0.5880  0.2400
  531MOL0     H70045  -0.183  11.415   5.277  0.9429 -1.3469 -2.7272
  531MOL0     H70046  -0.031  11.101   5.178 -0.9233 -2.5370 -0.5055
  531MOL0     H70047  -0.171  11.211   5.149  0.8356 -2.0098 -2.4450
  531MOL0     H70048  -0.181  10.981   5.365 -0.5594  1.7771  0.9466
  531MOL0     H70049  -0.227  10.949   5.197 -3.7571 -1.4698  2.4312
  531MOL0     H70050  -0.406  11.003   5.354 -2.0158  3.9427  3.0860
  531MOL0     H70051  -0.340  11.161   5.386  0.6900  1.0210 -1.6982
  531MOL0     H70052  -0.389  11.250   5.203  1.0335  0.9896 -0.7083
  531MOL0     H70053  -0.533  11.156   5.219 -0.0294  0.7959 -1.0484
  531MOL0     H70054  -0.526  10.947   4.885 -0.8817 -0.4933 -1.8257
  531MOL0     H70055  -0.707  11.037   4.721 -2.6454  0.5684  1.9887
  531MOL0     H70056  -1.048  11.345   4.596  1.9168  0.5104  0.4412
  531MOL0     H70057  -1.192  11.529   4.461  0.0526  1.1286 -1.0242
  531MOL0     H70058  -1.260  11.779   4.626  0.6901  0.8185  0.0334
  531MOL0     H70059  -1.336  11.711   4.484  0.3175  0.8525 -2.2038
  531MOL0     H70060  -1.420  11.917   4.501  0.0367  0.9931  3.0191
  531MOL0     H70061  -1.283  11.947   4.378 -0.2960  1.6870  0.0633
  531MOL0     H70062  -1.151  12.045   4.531  1.2862 -0.7015  1.5181
  531MOL0     H70063  -1.235  11.991   4.675  2.1310  5.2325  1.3431
  531MOL0     H70064  -1.245  12.232   4.626  0.4239 -1.8915 -0.0050
  531MOL0     H70065  -1.346  12.217   4.482  3.6808 -0.5890 -1.4435
  531MOL0     H70066  -1.405  12.159   4.784  2.2927  1.7132 -0.7586
  531MOL0     H70067  -1.497  12.076   4.668  0.5607  0.1408 -1.3942
  531MOL0     H70068  -1.617  12.268   4.751  0.6826 -0.6377 -1.6883
  531MOL0     H70069  -1.591  12.292   4.577 -1.5240 -0.8902  0.2659
  531MOL0     H70070  -1.418  12.418   4.797  0.6998 -0.6821 -1.8939
  531MOL0     H70071  -1.371  12.426   4.643 -0.0095  2.4297  0.1690
  531MOL0     H70072  -1.507  12.615   4.732  2.8591 -1.7250  2.9972
  531MOL0     H70073  -1.656  12.518   4.721 -0.2915 -1.6188 -0.8080
  531MOL0     H70074  -0.931  11.827   4.567 -3.0065  0.8331  0.1084
  531MOL0     H70075  -0.772  11.652   4.699 -1.1952 -0.1276  3.2782
  531MOL0     H70076  -0.635  11.424   4.865  3.1848  0.6952 -0.6969
  531MOL0     H70077  -0.492  11.353   5.040  0.7411  1.7650 -2.3469
  531MOL0     H70078   0.777  11.168   5.712 -0.3093 -0.8151 -0.7789
  531MOL0     H70079   1.045  11.172   5.723 -2.5074  0.4045  2.6263
  531MOL0     H70080   1.410  11.039   5.234  2.6808 -2.0369  0.6786
  531MOL0     H70081   1.652  11.035   5.227  1.7167  1.6913  0.8770
  531MOL0     H70082   1.842  11.013   5.249 -3.6615  0.8911  1.1916
  531MOL0     H70083   1.993  11.056   5.340  0.8937  3.8267  0.9235
  531MOL0     H70084   1.870  11.230   5.114  2.1862 -1.4029 -3.2283
  531MOL0     H70085   1.992  11.277   5.236  0.7910  0.5189 -0.0112
  531MOL0     H70086   2.008  11.089   5.002  0.4419  3.7507 -1.9227
  531MOL0     H70087   2.115  11.068   5.155  0.7385 -0.1788  0.6897
  531MOL0     H70088   2.221  11.180   4.944 -3.2189 -4.7646  0.2154
  531MOL0     H70089   2.108  11.317   4.967  1.0838  0.3014  0.4557
  531MOL0     H70090   2.412  11.397   5.244 -0.4809  1.5056  0.7048
  531MOL0     H70091   1.700  11.253   5.571  0.2334  1.5813 -0.7758
  531MOL0     H70092   1.452  11.240   5.610 -1.2388  2.4253 -1.7669
  532MOL0     O70093   1.123  10.563   8.350  0.7463  0.0275 -0.5225
  532MOL0     C70094   1.221  10.622   8.321  0.2223 -1.0363  0.3499
  532MOL0     O70095   1.219  10.728   8.237 -0.6301  0.2480  0.5547
  532MOL0     C70096   1.117  10.726   8.143 -0.4041 -0.1072 -0.6598
  532MOL0     C70097   0.992  10.781   8.179 -0.6993 -0.1388  0.3221
  532MOL0     C70098   0.895  10.790   8.083  0.7393 -0.0906 -0.7252
  532MOL0     C70099   0.919  10.734   7.954  0.2703 -0.7822 -1.0402
  532MOL0     O70100   0.812  10.738   7.867  0.1867  0.1141 -0.8996
  532MOL0     C70101   0.813  10.656   7.742  0.1746  0.1612 -0.7605
  532MOL0     C70102   0.660  10.637   7.708  0.5139  0.5686  0.1135
  532MOL0     C70103   0.572  10.579   7.817 -0.1015 -0.3323 -1.0357
  532MOL0     C70104   0.428  10.582   7.781 -0.3051  0.8358  0.8462
  532MOL0     C70105   0.335  10.532   7.877 -0.1964  0.3482  0.7681
  532MOL0     C70106   0.202  10.585   7.829 -0.4209 -0.1756 -0.8977
  532MOL0     C70107   0.077  10.527   7.901 -0.2553  0.0186  0.0317
  532MOL0     C70108  -0.048  10.575   7.824 -0.4142  0.2386  0.0848
  532MOL0     N70109  -0.179  10.517   7.875  0.0503 -0.1126  0.0093
  532MOL0     C70110  -0.267  10.580   7.963  0.8115 -0.0919 -0.6165
  532MOL0     C70111  -0.369  10.498   7.984 -0.0273  0.3011 -1.1869
  532MOL0     C70112  -0.489  10.522   8.079 -0.6838  0.2615 -0.4934
  532MOL0     C70113  -0.608  10.453   8.022  0.6840  0.2701  0.4938
  532MOL0     C70114  -0.735  10.486   8.090 -0.5503  0.5509  0.7110
  532MOL0     C70115  -0.753  10.381   8.201 -0.3300  0.1501  0.2789
  532MOL0     O70116  -0.818  10.259   8.160  0.4405 -0.0900  0.2676
  532MOL0     C70117  -0.954  10.269   8.122 -0.2750 -0.5563  0.1530
  532MOL0     C70118  -1.036  10.386   8.118 -0.4296 -0.4055 -0.0488
  532MOL0     C70119  -1.166  10.382   8.071 -0.1395  0.4944  0.8656
  532MOL0     C70120  -1.215  10.254   8.024  0.5544  0.9832  0.9034
  532MOL0     C70121  -1.366  10.252   7.985  0.4430  1.3912 -0.6306
  532MOL0     O70122  -1.431  10.363   7.950 -0.1862 -0.0967  0.0467
  532MOL0     C70123  -1.564  10.388   7.969 -0.3991  0.0070  0.0568
  532MOL0     C70124  -1.634  10.457   7.869 -0.3765 -0.1976 -0.8648
  532MOL0     C70125  -1.774  10.487   7.881 -0.3692 -0.6700  0.1303
  532MOL0     C70126  -1.847  10.429   7.987  0.3470 -0.8925 -0.4185
  532MOL0     O70127  -1.982  10.452   7.992  0.2884  0.0134 -0.2196
  532MOL0     C70128  -2.020  10.513   8.125 -0.2943 -0.1659 -0.0386
  532MOL0     C70129  -2.148  10.600   8.100  0.2013  0.0179  0.3370
  532MOL0     C70130  -2.104  10.723   8.017  0.1476 -0.3797 -0.3458
  532MOL0     C70131  -2.226  10.808   7.962 -0.0762 -0.1053  0.3715
  532MOL0     C70132  -2.171  10.940   7.921 -0.3709 -0.0601 -0.4439
  532MOL0     C70133  -2.290  11.029   7.897  0.0548 -0.7605 -0.3586
  532MOL0     C70134  -2.245  11.168   7.844 -0.1255 -0.9188 -0.3601
  532MOL0     C70135  -2.363  11.249   7.799 -0.1777 -0.0720  0.1752
  532MOL0    Cl70136  -2.446  11.310   7.944 -0.4530  0.0060 -0.0636
  532MOL0     C70137  -1.781  10.354   8.087 -1.1401 -1.0679 -0.5882
  532MOL0     C70138  -1.637  10.328   8.074 -0.0689  0.9382  0.1382
  532MOL0     O70139  -1.420  10.142   7.997  1.1179  0.0416 -0.5725
  532MOL0     C70140  -1.136  10.141   8.040  0.1213  0.2431  0.2843
  532MOL0     C70141  -1.004  10.148   8.089 -0.1699 -0.4825  1.0071
  532MOL0     N70142  -0.343  10.382   7.914 -0.0745  0.2449 -0.5889
  532MOL0     N70143  -0.228  10.394   7.855  1.1268  0.2180  0.6934
  532MOL0     C70144   1.042  10.678   7.920 -0.7146  0.2482  0.2115
  532MOL0     C70145   1.143  10.681   8.009  0.2938 -0.3442 -0.2762
  532MOL0     C70146   1.350  10.573   8.381  0.7585 -0.7774 -0.0139
  532MOL0     C70147   1.466  10.613   8.323  0.2315 -0.4376 -0.5337
  532MOL0     C70148   1.591  10.588   8.373 -0.3896 -0.0922 -0.6926
  532MOL0     C70149   1.602  10.499   8.480  0.1816  0.3904  0.0493
  532MOL0     O70150   1.729  10.452   8.505 -0.7706  1.1521 -0.3070
  532MOL0     C70151   1.769  10.469   8.640  0.4552 -0.5860 -0.3938
  532MOL0     C70152   1.906  10.410   8.681 -0.6793 -0.5624  0.2935
  532MOL0     C70153   1.908  10.258   8.650 -0.4721 -0.2091 -0.2369
  532MOL0     C70154   1.882  10.167   8.774  1.2634  0.6300  0.1989
  532MOL0     C70155   1.986  10.167   8.881  0.1853  0.8720  0.5020
  532MOL0     C70156   2.053  10.161   8.978 -0.5530 -0.6466 -0.6659
  532MOL0     C70157   1.484  10.459   8.546 -0.3716  1.3626 -0.5816
  532MOL0     C70158   1.359  10.498   8.499 -0.0467  0.5258 -0.0874
  532MOL0     H70159   0.967  10.829   8.273 -0.3983  1.6449 -0.4762
  532MOL0     H70160   0.791  10.812   8.103  0.1812 -3.3237  0.5893
  532MOL0     H70161   0.850  10.555   7.763 -0.1952  0.1847  0.0553
  532MOL0     H70162   0.881  10.700   7.669  1.1810  0.7763  0.5220
  532MOL0     H70163   0.650  10.562   7.628 -1.5119 -0.4012  1.1983
  532MOL0     H70164   0.606  10.728   7.681 -0.4439  0.0347  0.1966
  532MOL0     H70165   0.573  10.652   7.899  0.4494  1.2639 -2.3948
  532MOL0     H70166   0.596  10.478   7.852  2.9928  0.4305 -0.6911
  532MOL0     H70167   0.403  10.688   7.773 -1.4157  0.4417 -1.8640
  532MOL0     H70168   0.400  10.539   7.685  2.4379 -2.2556  1.2587
  532MOL0     H70169   0.369  10.573   7.973  2.2101  1.3691 -0.4537
  532MOL0     H70170   0.348  10.423   7.877  1.7153  0.5454  0.1497
  532MOL0     H70171   0.185  10.560   7.724  0.2665  1.6255 -1.4707
  532MOL0     H70172   0.205  10.693   7.843  3.5750 -0.5112  3.2016
  532MOL0     H70173   0.085  10.419   7.891  0.0563  0.0337  0.1185
  532MOL0     H70174   0.071  10.560   8.006  3.1775  0.3247  0.2434
  532MOL0     H70175  -0.046  10.548   7.718 -3.4164 -0.5202  0.1424
  532MOL0     H70176  -0.042  10.685   7.826  4.9382  0.2251 -1.2049
  532MOL0     H70177  -0.260  10.677   8.012  3.5281 -0.9961  0.9890
  532MOL0     H70178  -0.493  10.631   8.089  4.2194  0.8202 -2.0977
  532MOL0     H70179  -0.470  10.470   8.174 -4.1235 -1.1106 -0.4315
  532MOL0     H70180  -0.592  10.346   8.002  1.1192 -0.2971  3.4527
  532MOL0     H70181  -0.625  10.499   7.924 -0.9851 -0.8456  0.2164
  532MOL0     H70182  -0.726  10.585   8.136 -0.5548  0.4674  0.8918
  532MOL0     H70183  -0.820  10.492   8.021  0.4696  1.3667 -0.5317
  532MOL0     H70184  -0.800  10.425   8.289 -0.1879  0.6813  0.0910
  532MOL0     H70185  -0.661  10.349   8.251 -0.0730  0.0700 -0.2379
  532MOL0     H70186  -0.987  10.470   8.167 -1.3914 -1.1503  2.3374
  532MOL0     H70187  -1.222  10.474   8.075 -0.5367  0.3865 -1.1040
  532MOL0     H70188  -1.580  10.490   7.780  3.1531 -2.8096  0.0613
  532MOL0     H70189  -1.824  10.530   7.795 -0.2554 -3.0004 -1.1634
  532MOL0     H70190  -1.945  10.587   8.156 -0.0911  0.8399 -2.7494
  532MOL0     H70191  -2.044  10.446   8.209 -1.1123 -0.2484 -0.3389
  532MOL0     H70192  -2.186  10.626   8.199 -2.4100 -0.9112 -0.3473
  532MOL0     H70193  -2.217  10.525   8.059 -0.5538  0.5443  0.6288
  532MOL0     H70194  -2.044  10.701   7.928 -0.0320  1.9823 -1.1370
  532MOL0     H70195  -2.033  10.782   8.076 -0.9861  0.3665  0.3036
  532MOL0     H70196  -2.271  10.755   7.878  1.5536 -0.6404 -0.1980
  532MOL0     H70197  -2.302  10.809   8.041 -0.0304  0.5886  0.4113
  532MOL0     H70198  -2.101  10.920   7.840  0.8752  1.0540  0.3046
  532MOL0     H70199  -2.120  10.982   8.008 -2.2202 -0.1774  0.7489
  532MOL0     H70200  -2.347  11.041   7.990 -1.0423 -1.1977 -0.9558
  532MOL0     H70201  -2.358  10.985   7.823  0.9346  0.6670 -2.1041
  532MOL0     H70202  -2.186  11.231   7.911 -1.0777  0.1738 -0.5105
  532MOL0     H70203  -2.177  11.153   7.760  1.8449  2.0193  0.5612
  532MOL0     H70204  -2.441  11.195   7.746  0.5552 -1.0129  0.0364
  532MOL0     H70205  -2.329  11.340   7.748  0.2811  0.5145  1.4817
  532MOL0     H70206  -1.840  10.298   8.158  0.4245 -1.0400  0.8062
  532MOL0     H70207  -1.589  10.271   8.153 -0.8777  0.0885  0.0406
  532MOL0     H70208  -1.175  10.045   8.006 -1.2607  0.7255  0.4231
  532MOL0     H70209  -0.932  10.067   8.092  1.4795  0.8837 -0.0627
  532MOL0     H70210   1.066  10.649   7.818  2.7972  2.7918  0.1141
  532MOL0     H70211   1.246  10.649   8.000  0.0479 -1.2786  0.1120
  532MOL0     H70212   1.455  10.686   8.244 -0.0811  1.6648  1.3698
  532MOL0     H70213   1.681  10.620   8.321  2.2695 -0.8157  3.0899
  532MOL0     H70214   1.699  10.421   8.708 -3.3020  0.5743 -3.1199
  532MOL0     H70215   1.770  10.576   8.660 -0.0987 -0.7170  0.3463
  532MOL0     H70216   1.978  10.464   8.620  0.8185 -1.3482  1.2933
  532MOL0     H70217   1.917  10.415   8.789 -2.0499 -1.7310  0.5215
  532MOL0     H70218   1.997  10.221   8.599 -1.1906 -1.7089 -0.4575
  532MOL0     H70219   1.823  10.231   8.586  1.1607  0.2268 -2.7142
  532MOL0     H70220   1.792  10.211   8.819  0.2200 -0.5277 -0.6910
  532MOL0     H70221   1.855  10.071   8.729 -2.0553  1.0098  1.0936
  532MOL0     H70222   2.119  10.155   9.062  0.2777  1.1020 -1.1556
  532MOL0     H70223   1.491  10.401   8.637  0.8822  0.1070 -1.4154
  532MOL0     H70224   1.272  10.463   8.554 -1.6703  2.1731 -1.4668
  533MOL0     O70225   3.463   8.780   0.612  0.2140 -0.0299 -0.1169
  533MOL0     C70226   3.474   8.885   0.670 -0.0454 -0.2770 -0.9242
  533MOL0     O70227   3.394   8.932   0.770  0.0912 -0.1134  1.3243
  533MOL0     C70228   3.268   8.895   0.800  0.5201 -0.1296  0.1613
  533MOL0     C70229   3.210   8.967   0.907 -0.4554 -0.1856 -0.5966
  533MOL0     C70230   3.087   8.937   0.960  0.1202 -0.3550 -0.3063
  533MOL0     C70231   3.008   8.835   0.905 -1.4330 -0.4247 -0.7613
  533MOL0     O70232   2.885   8.823   0.949  0.3447  0.1123 -0.2774
  533MOL0     C70233   2.780   8.855   0.851  0.3399 -0.6671  0.1685
  533MOL0     C70234   2.681   8.732   0.855  0.3258 -0.9031 -0.0110
  533MOL0     C70235   2.603   8.730   0.986  1.2755 -0.6806 -0.1578
  533MOL0     C70236   2.476   8.646   0.962  0.6011  0.9778  0.3256
  533MOL0     C70237   2.411   8.616   1.098  0.7135 -0.3354 -0.6054
  533MOL0     C70238   2.507   8.554   1.204 -1.0600 -0.1412 -0.3317
  533MOL0     C70239   2.421   8.484   1.308 -0.5456  0.2458  0.2397
  533MOL0     C70240   2.494   8.464   1.439  0.2122  0.4005  0.6505
  533MOL0     N70241   2.389   8.408   1.531  0.4249 -0.7742 -0.1754
  533MOL0     C70242   2.326   8.281   1.521 -0.2849 -0.9721  0.4096
  533MOL0     C70243   2.213   8.290   1.589 -0.5352 -0.2071 -0.0824
  533MOL0     C70244   2.115   8.175   1.611  0.3417  0.1977 -0.1336
  533MOL0     C70245   2.004   8.196   1.721  0.3777 -0.7351  0.3780
  533MOL0     C70246   1.926   8.062   1.741  0.2308 -0.7492 -0.0393
  533MOL0     C70247   1.800   8.101   1.830 -0.3415  0.4678 -0.6877
  533MOL0     O70248   1.826   8.103   1.979  0.1328 -0.4105 -0.0142
  533MOL0     C70249   1.813   7.985   2.043 -0.2293 -0.6927  0.1525
  533MOL0     C70250   1.796   7.991   2.175 -0.0363 -0.1913 -0.2213
  533MOL0     C70251   1.776   7.873   2.250  0.2797  0.3435  0.1264
  533MOL0     C70252   1.768   7.738   2.194 -0.2383  0.2295  0.0534
  533MOL0     C70253   1.737   7.616   2.270  0.0717  0.1657 -0.7310
  533MOL0     O70254   1.709   7.508   2.195  0.8380 -0.2994  0.2893
  533MOL0     C70255   1.644   7.390   2.243  0.5622  0.2171  0.9409
  533MOL0     C70256   1.695   7.328   2.357 -0.1422  0.4236  0.7272
  533MOL0     C70257   1.624   7.219   2.414 -0.3158  0.3260  0.5177
  533MOL0     C70258   1.510   7.168   2.348 -0.6675 -1.1758  0.1771
  533MOL0     O70259   1.458   7.050   2.388  0.8531  0.2600 -1.1063
  533MOL0     C70260   1.338   7.064   2.464 -0.4785 -0.0780  0.3199
  533MOL0     C70261   1.214   7.011   2.394  0.6907  0.1134 -0.5711
  533MOL0     C70262   1.244   6.866   2.351  0.5296 -0.5825  0.1710
  533MOL0     C70263   1.107   6.789   2.325  0.5554  0.5115 -0.1587
  533MOL0     C70264   1.017   6.842   2.206 -0.7616  0.7819 -0.4783
  533MOL0     C70265   1.090   6.858   2.073 -0.8907 -0.8688  0.5254
  533MOL0     C70266   1.005   6.838   1.951 -0.0341 -0.4784 -0.1098
  533MOL0     C70267   0.976   6.691   1.934  0.6432 -0.9077  0.0568
  533MOL0    Cl70268   0.816   6.672   1.864 -0.3356 -0.0105  0.5171
  533MOL0     C70269   1.458   7.238   2.235  0.2850 -0.5916 -0.6650
  533MOL0     C70270   1.524   7.351   2.183  0.0034 -0.0270  0.2150
  533MOL0     O70271   1.719   7.623   2.392 -0.0036 -0.6345  0.8610
  533MOL0     C70272   1.790   7.730   2.056  0.1172 -0.1154  0.2297
  533MOL0     C70273   1.815   7.856   1.983 -0.0806  0.2708  0.5822
  533MOL0     N70274   2.201   8.418   1.647 -0.0863 -0.8373 -0.3278
  533MOL0     N70275   2.308   8.486   1.609  1.0123 -0.0649  0.7300
  533MOL0     C70276   3.055   8.765   0.790 -0.3956  0.0532 -0.4907
  533MOL0     C70277   3.183   8.797   0.741 -0.5614 -0.3721  1.0109
  533MOL0     C70278   3.594   8.961   0.636  0.2699 -0.4822  0.2839
  533MOL0     C70279   3.708   8.891   0.600 -0.0375 -0.4478  0.5222
  533MOL0     C70280   3.825   8.962   0.559 -0.1967  0.1494  0.1373
  533MOL0     C70281   3.826   9.107   0.563 -0.1890  0.1893 -0.2131
  533MOL0     O70282   3.936   9.178   0.528 -0.3011 -0.6361 -0.9365
  533MOL0     C70283   3.988   9.144   0.395  0.2879  0.0911  0.4224
  533MOL0     C70284   4.115   9.225   0.372 -0.0815 -0.2514  0.5485
  533MOL0     C70285   4.184   9.202   0.243  0.4345 -0.0018 -0.3678
  533MOL0     C70286   4.113   9.240   0.109 -0.2994  0.4305 -0.2489
  533MOL0     C70287   4.169   9.196  -0.015 -0.7388 -0.2154 -0.5334
  533MOL0     C70288   4.223   9.146  -0.105  0.2955  0.2845  0.4646
  533MOL0     C70289   3.709   9.174   0.601  0.6825  0.9033 -0.1474
  533MOL0     C70290   3.591   9.103   0.636  0.1156  0.0029 -0.9176
  533MOL0     H70291   3.263   9.049   0.955 -0.2330  0.5416 -2.0338
  533MOL0     H70292   3.053   9.008   1.035  3.2210 -0.8844  1.7851
  533MOL0     H70293   2.822   8.878   0.752 -1.1030 -0.0452 -0.3353
  533MOL0     H70294   2.733   8.948   0.885  1.2832  0.5525 -1.6663
  533MOL0     H70295   2.742   8.644   0.832 -1.5184 -2.2832  0.1630
  533MOL0     H70296   2.609   8.733   0.773 -1.0645  1.5740  1.1262
  533MOL0     H70297   2.576   8.832   1.017  1.8159 -0.8297  0.8524
  533MOL0     H70298   2.673   8.690   1.060  1.4283 -0.5042 -0.2071
  533MOL0     H70299   2.408   8.700   0.896  0.2971  1.4553  1.0209
  533MOL0     H70300   2.492   8.546   0.920 -1.5938  0.1566  1.2938
  533MOL0     H70301   2.325   8.549   1.091  0.1983  0.0794  1.1980
  533MOL0     H70302   2.361   8.705   1.139  3.2069  0.7286  0.3362
  533MOL0     H70303   2.581   8.624   1.246  1.7053 -1.6543 -2.3163
  533MOL0     H70304   2.568   8.478   1.153 -2.7566  0.8692 -4.2662
  533MOL0     H70305   2.327   8.534   1.330 -1.0769 -0.6690  0.0768
  533MOL0     H70306   2.410   8.388   1.259  0.6959  0.8683 -1.3696
  533MOL0     H70307   2.519   8.558   1.487 -1.9817  1.0721  0.5710
  533MOL0     H70308   2.577   8.394   1.425 -0.3052 -0.1231  0.1241
  533MOL0     H70309   2.360   8.201   1.456 -0.0316 -1.0502  0.6349
  533MOL0     H70310   2.172   8.094   1.657 -2.0169 -0.9322  0.9899
  533MOL0     H70311   2.077   8.142   1.514 -0.3436  0.9018 -0.1123
  533MOL0     H70312   1.935   8.267   1.675  1.8467  1.4954  1.4302
  533MOL0     H70313   2.037   8.243   1.814 -3.2605  1.2119  0.8675
  533MOL0     H70314   1.891   8.020   1.647 -0.7369 -1.8020  0.7721
  533MOL0     H70315   1.988   7.989   1.794 -0.5250 -0.5417  1.1783
  533MOL0     H70316   1.725   8.029   1.797 -1.0303 -0.7572  3.0821
  533MOL0     H70317   1.766   8.204   1.813 -0.7432  1.2329  3.5249
  533MOL0     H70318   1.790   8.089   2.221 -1.9108 -0.3378 -0.1013
  533MOL0     H70319   1.775   7.887   2.358 -2.2336  0.5392  0.1226
  533MOL0     H70320   1.777   7.376   2.410 -0.6354  0.4557  1.4771
  533MOL0     H70321   1.679   7.173   2.495  1.0784 -0.7413 -0.9801
  533MOL0     H70322   1.319   7.170   2.485  1.6026  0.1251  1.4532
  533MOL0     H70323   1.361   7.015   2.559  3.0559  2.1728  0.8602
  533MOL0     H70324   1.182   7.066   2.305 -1.9877 -0.1869  0.1170
  533MOL0     H70325   1.132   7.004   2.467 -0.3166 -4.3020 -1.8347
  533MOL0     H70326   1.293   6.806   2.428 -1.1304 -1.3163  0.7001
  533MOL0     H70327   1.301   6.874   2.258  0.4024 -2.7760 -0.1550
  533MOL0     H70328   1.144   6.688   2.310  1.2399 -0.1242  4.3202
  533MOL0     H70329   1.045   6.790   2.416 -0.1490 -0.2012 -0.6216
  533MOL0     H70330   0.958   6.933   2.227  0.4003  1.7347 -1.2209
  533MOL0     H70331   0.933   6.774   2.193 -0.2817  0.5057 -2.4363
  533MOL0     H70332   1.178   6.794   2.075 -0.3479 -0.1425  0.3346
  533MOL0     H70333   1.133   6.959   2.080  0.6449 -1.3342 -1.4340
  533MOL0     H70334   0.913   6.897   1.950 -0.5994 -1.1831  2.4398
  533MOL0     H70335   1.064   6.865   1.863 -0.0648  1.6672  0.4764
  533MOL0     H70336   0.977   6.646   2.033 -0.7396 -2.0097 -0.3890
  533MOL0     H70337   1.056   6.641   1.879  1.1006  1.2573 -1.3946
  533MOL0     H70338   1.364   7.208   2.190 -1.1892  0.3738  1.5806
  533MOL0     H70339   1.476   7.402   2.101 -1.3780 -0.9498  0.4197
  533MOL0     H70340   1.780   7.639   1.999 -1.0728  0.9231 -1.2961
  533MOL0     H70341   1.832   7.842   1.877 -3.3218 -0.0842  0.0274
  533MOL0     H70342   3.001   8.698   0.724 -3.2704  3.1557 -1.5637
  533MOL0     H70343   3.222   8.741   0.657  4.1005  1.4831  1.6130
  533MOL0     H70344   3.710   8.783   0.612  2.1323 -0.2473  2.9762
  533MOL0     H70345   3.921   8.917   0.538  0.0035  1.1915 -1.3406
  533MOL0     H70346   3.914   9.159   0.316 -0.4948  0.6500  1.2468
  533MOL0     H70347   4.016   9.039   0.390 -1.3254 -0.4547  1.8848
  533MOL0     H70348   4.093   9.331   0.388  2.2792  0.3261  0.2661
  533MOL0     H70349   4.182   9.194   0.453 -1.6056  1.2735  2.4825
  533MOL0     H70350   4.216   9.097   0.249 -0.2606 -0.2476 -0.8686
  533MOL0     H70351   4.280   9.254   0.242 -0.4344  1.6926  0.6221
  533MOL0     H70352   4.010   9.206   0.114  0.5667 -2.5387 -0.8946
  533MOL0     H70353   4.123   9.348   0.095 -1.3139  0.6904  0.8568
  533MOL0     H70354   4.258   9.091  -0.189  0.6940 -2.0735  2.0754
  533MOL0     H70355   3.706   9.282   0.602 -2.1641  0.9289 -0.8461
  533MOL0     H70356   3.505   9.160   0.670  0.6879  0.7353 -0.6722
  534MOL0     O70357   3.081   0.330   0.354  0.0269  0.9666  0.0171
  534MOL0     C70358   3.079   0.284   0.467 -0.2088 -0.8104 -0.1068
  534MOL0     O70359   2.983   0.306   0.554  0.2242 -0.1938 -0.1263
  534MOL0     C70360   2.872   0.362   0.495  0.1023 -0.1983  0.9351
  534MOL0     C70361   2.765   0.291   0.441 -0.0452 -0.7895  0.3363
  534MOL0     C70362   2.668   0.349   0.362 -0.0934  0.5032 -0.3733
  534MOL0     C70363   2.673   0.485   0.339 -0.0569  0.5375  0.4514
  534MOL0     O70364   2.571   0.544   0.264  0.4039  0.0786 -0.4407
  534MOL0     C70365   2.444   0.575   0.324 -0.7650  0.0267 -0.0851
  534MOL0     C70366   2.364   0.448   0.376  1.1220 -0.1900  0.1587
  534MOL0     C70367   2.224   0.497   0.404 -0.1701  0.0345  0.4715
  534MOL0     C70368   2.169   0.382   0.494  0.0784  0.0827  0.1562
  534MOL0     C70369   2.016   0.371   0.506  0.4286  0.3736 -0.3169
  534MOL0     C70370   1.968   0.235   0.560 -1.1149 -0.1372 -0.2538
  534MOL0     C70371   1.986   0.223   0.717  0.3046 -0.8031  0.2720
  534MOL0     C70372   1.897   0.114   0.765 -0.0359 -0.8813 -0.4812
  534MOL0     N70373   1.756   0.138   0.746 -0.4283  0.0499 -0.2152
  534MOL0     C70374   1.692   0.252   0.788 -0.8352  0.0795 -0.0606
  534MOL0     C70375   1.565   0.233   0.733  0.5457  0.2949 -0.3837
  534MOL0     C70376   1.450   0.325   0.725  0.2045  1.0020 -1.6902
  534MOL0     C70377   1.477   0.462   0.666  0.1861 -0.0424  1.3588
  534MOL0     C70378   1.518   0.464   0.515  0.4901 -0.0443  0.8834
  534MOL0     C70379   1.442   0.369   0.433  0.1743 -0.3752 -0.3645
  534MOL0     O70380   1.480   0.381   0.296  0.2553 -0.3337  0.0772
  534MOL0     C70381   1.402   0.306   0.214  0.6846 -0.1219 -0.4095
  534MOL0     C70382   1.450   0.275   0.084 -0.6383 -0.0544  1.1970
  534MOL0     C70383   1.382   0.195  -0.006 -0.6615  0.1563 -0.7922
  534MOL0     C70384   1.261   0.128   0.029  0.4960 -0.0199  1.0429
  534MOL0     C70385   1.204   0.027  -0.070  0.1152 -0.6077 -0.1589
  534MOL0     O70386   1.073   0.001  -0.069  0.2444 -0.4815 -0.5380
  534MOL0     C70387   1.016  -0.117  -0.121  0.0489  0.6719  0.6534
  534MOL0     C70388   0.971  -0.223  -0.043  0.5503  0.4762 -0.3470
  534MOL0     C70389   0.889  -0.322  -0.091 -0.4228  0.3722  0.7445
  534MOL0     C70390   0.863  -0.333  -0.228 -0.2105 -0.4998 -0.0125
  534MOL0     O70391   0.794  -0.439  -0.269 -0.0615 -0.0460 -0.0194
  534MOL0     C70392   0.699  -0.411  -0.370  0.0511  0.0076 -0.0098
  534MOL0     C70393   0.576  -0.504  -0.358  0.2459  0.2140  0.3599
  534MOL0     C70394   0.472  -0.480  -0.476 -0.8790  0.1903 -0.3579
  534MOL0     C70395   0.360  -0.579  -0.491 -0.4521 -0.0141 -0.5807
  534MOL0     C70396   0.244  -0.556  -0.593  0.6277  0.1952  0.2301
  534MOL0     C70397   0.173  -0.686  -0.633  0.2697 -0.0101  0.5529
  534MOL0     C70398   0.066  -0.651  -0.737  0.8111  0.3758  0.0091
  534MOL0     C70399  -0.021  -0.771  -0.767  0.3167 -0.7073 -0.1445
  534MOL0    Cl70400   0.092  -0.899  -0.826  0.0858 -0.2507  0.2828
  534MOL0     C70401   0.913  -0.231  -0.309  0.7530 -0.1252 -0.5245
  534MOL0     C70402   0.988  -0.126  -0.252 -0.2020 -0.0582  0.1598
  534MOL0     O70403   1.281  -0.038  -0.135  0.3912 -0.5067  0.0557
  534MOL0     C70404   1.201   0.165   0.150  0.7548  0.5299 -0.0723
  534MOL0     C70405   1.275   0.237   0.243 -0.3941 -0.0277 -0.6097
  534MOL0     N70406   1.558   0.102   0.678 -0.4653 -0.5377 -0.4914
  534MOL0     N70407   1.669   0.043   0.692 -0.1762 -1.5509  0.0739
  534MOL0     C70408   2.774   0.562   0.398  0.0636 -0.0129  0.3669
  534MOL0     C70409   2.872   0.502   0.467  1.1620  0.3602  0.2426
  534MOL0     C70410   3.193   0.207   0.505  0.4368 -0.9840  0.2269
  534MOL0     C70411   3.318   0.219   0.428 -0.3784  0.2615  0.4006
  534MOL0     C70412   3.432   0.137   0.451  0.4011  0.4343 -1.0087
  534MOL0     C70413   3.437   0.066   0.565 -0.1583  0.3001 -0.1034
  534MOL0     O70414   3.553   0.003   0.619  0.0321 -0.7522  0.0122
  534MOL0     C70415   3.681   0.050   0.568  0.4928  0.3021 -0.1438
  534MOL0     C70416   3.786  -0.019   0.658 -0.6343  0.5241 -0.5226
  534MOL0     C70417   3.920   0.049   0.643  0.2191 -0.1789  0.1494
  534MOL0     C70418   4.018  -0.024   0.744 -0.0621 -0.6880 -0.0198
  534MOL0     C70419   4.157   0.020   0.726  0.3574  0.0568  0.4618
  534MOL0     C70420   4.275   0.049   0.725 -0.1599  0.9364  0.3622
  534MOL0     C70421   3.322   0.062   0.640 -0.0650 -0.1839 -0.9094
  534MOL0     C70422   3.201   0.126   0.616  0.3005 -0.6964 -0.2422
  534MOL0     H70423   2.768   0.188   0.476 -1.1905 -0.7261  0.6742
  534MOL0     H70424   2.578   0.294   0.335 -0.3381  0.4622  0.5041
  534MOL0     H70425   2.385   0.632   0.251 -1.0499 -0.0537  0.0837
  534MOL0     H70426   2.461   0.642   0.408 -0.8951 -1.7877  1.4367
  534MOL0     H70427   2.413   0.412   0.466 -0.6718 -1.3989  0.7047
  534MOL0     H70428   2.366   0.380   0.290 -1.3066  0.3014 -0.3489
  534MOL0     H70429   2.175   0.527   0.311  0.7264  1.1051  0.3267
  534MOL0     H70430   2.226   0.585   0.469 -3.3929 -1.7047  3.2760
  534MOL0     H70431   2.209   0.287   0.456  2.8138  1.3173 -0.2581
  534MOL0     H70432   2.206   0.398   0.595  2.9480  1.3443 -0.9900
  534MOL0     H70433   1.965   0.385   0.411  0.3695  0.1608 -0.3168
  534MOL0     H70434   1.973   0.444   0.575 -0.3736 -0.3794 -0.0101
  534MOL0     H70435   2.034   0.156   0.521 -0.8744 -1.1830  2.0708
  534MOL0     H70436   1.861   0.221   0.541 -1.4978 -0.0387  1.5812
  534MOL0     H70437   2.085   0.187   0.746  1.5669  1.0877 -1.4126
  534MOL0     H70438   1.980   0.322   0.763  1.4457 -0.7074  0.2615
  534MOL0     H70439   1.909   0.102   0.873  0.0161  0.8198 -0.2762
  534MOL0     H70440   1.923   0.019   0.716 -1.8199 -1.6995  0.0562
  534MOL0     H70441   1.726   0.342   0.838  1.8598  0.4208 -2.2533
  534MOL0     H70442   1.401   0.338   0.822 -0.6250 -1.6699 -1.6868
  534MOL0     H70443   1.377   0.272   0.663  1.7677  0.4190 -3.0987
  534MOL0     H70444   1.547   0.517   0.731 -0.6953  2.0692  0.6059
  534MOL0     H70445   1.390   0.525   0.684 -0.1591 -0.3641  0.8256
  534MOL0     H70446   1.504   0.563   0.471  1.5721 -1.0240 -1.8749
  534MOL0     H70447   1.623   0.437   0.503  0.0756 -0.8070 -1.4972
  534MOL0     H70448   1.337   0.395   0.445 -0.1196 -1.8988  0.5928
  534MOL0     H70449   1.464   0.270   0.473 -3.4782 -0.7950  0.9583
  534MOL0     H70450   1.527   0.342   0.048 -0.5591  1.6509  4.1695
  534MOL0     H70451   1.410   0.178  -0.109  4.0188  0.3953  0.2257
  534MOL0     H70452   0.988  -0.211   0.064 -0.9376  3.2195 -0.3130
  534MOL0     H70453   0.840  -0.394  -0.026 -1.0992 -0.8743 -1.0769
  534MOL0     H70454   0.739  -0.415  -0.472  2.1103  1.3617  0.6909
  534MOL0     H70455   0.647  -0.317  -0.345  0.4102  0.9642 -2.5506
  534MOL0     H70456   0.509  -0.476  -0.275 -0.7448  2.0758 -1.0047
  534MOL0     H70457   0.590  -0.613  -0.361 -2.5167 -0.2005 -0.6116
  534MOL0     H70458   0.531  -0.468  -0.568 -0.6561  0.5050 -0.1783
  534MOL0     H70459   0.428  -0.384  -0.447 -1.3492 -0.7868  2.5057
  534MOL0     H70460   0.411  -0.674  -0.511  0.2170  0.1368  0.3547
  534MOL0     H70461   0.316  -0.587  -0.391 -1.4657 -1.4924 -1.1017
  534MOL0     H70462   0.291  -0.511  -0.681  0.1365  0.1453 -0.0644
  534MOL0     H70463   0.177  -0.478  -0.555  1.8122  2.9172 -2.8218
  534MOL0     H70464   0.137  -0.730  -0.540 -3.6348  1.9438  0.1785
  534MOL0     H70465   0.241  -0.756  -0.683  0.2573  0.6997 -0.4928
  534MOL0     H70466  -0.005  -0.574  -0.707 -0.7524 -2.0015  2.9160
  534MOL0     H70467   0.118  -0.635  -0.832  1.1953 -0.4267  0.0781
  534MOL0     H70468  -0.093  -0.748  -0.847 -0.5124 -1.0332  0.4857
  534MOL0     H70469  -0.071  -0.813  -0.679  1.8588 -0.9078  0.6761
  534MOL0     H70470   0.894  -0.232  -0.416  1.4663  1.2286 -0.6900
  534MOL0     H70471   1.016  -0.047  -0.322 -1.1727 -1.7126 -2.2466
  534MOL0     H70472   1.111   0.111   0.181  0.1332  0.9128 -1.1318
  534MOL0     H70473   1.236   0.248   0.343 -1.9646 -0.0750 -1.1788
  534MOL0     H70474   2.769   0.668   0.377 -0.4048 -0.2247 -0.6704
  534MOL0     H70475   2.958   0.560   0.498  0.3656  1.2807  0.7964
  534MOL0     H70476   3.308   0.291   0.347 -1.3998  0.8093  0.9888
  534MOL0     H70477   3.528   0.147   0.400  1.1390 -1.1407 -0.0197
  534MOL0     H70478   3.688   0.159   0.575 -0.0061  0.3882 -0.8306
  534MOL0     H70479   3.687   0.023   0.462  3.4254  2.2890 -0.6063
  534MOL0     H70480   3.742  -0.021   0.758 -1.0099  0.1973 -0.6905
  534MOL0     H70481   3.793  -0.122   0.623 -1.6393  0.0312  0.6444
  534MOL0     H70482   3.916   0.156   0.664  1.8064 -0.2491  1.0105
  534MOL0     H70483   3.950   0.033   0.539 -3.0214 -0.5328 -0.8328
  534MOL0     H70484   3.980   0.003   0.843  0.7860 -0.7828  0.3340
  534MOL0     H70485   4.015  -0.131   0.723 -0.6003 -0.5803 -0.5302
  534MOL0     H70486   4.376   0.082   0.719  0.0084  0.4205  0.3401
  534MOL0     H70487   3.321   0.006   0.733 -0.0710  2.1719  0.5817
  534MOL0     H70488   3.115   0.120   0.682 -0.1487 -1.1619 -0.8555
  535MOL0     O70489   5.953   2.200   4.838  0.3715  0.1066  0.0268
  535MOL0     C70490   5.956   2.096   4.907  0.0866 -0.2140 -0.7639
  535MOL0     O70491   5.853   2.031   4.959  0.6809 -0.3694  0.5969
  535MOL0     C70492   5.723   2.092   4.938 -0.5377 -0.1278 -0.2634
  535MOL0     C70493   5.642   2.138   5.049 -0.2334 -0.6048  0.0631
  535MOL0     C70494   5.510   2.179   5.026  0.5836  0.4079 -0.2792
  535MOL0     C70495   5.448   2.161   4.904 -0.0795  0.4934  0.1084
  535MOL0     O70496   5.321   2.205   4.878  0.2145 -0.7081 -1.2818
  535MOL0     C70497   5.253   2.286   4.974  0.3851  0.1817  0.0466
  535MOL0     C70498   5.133   2.352   4.912 -0.2094 -0.5471  0.4351
  535MOL0     C70499   5.174   2.453   4.804  0.2883  0.0956 -0.4951
  535MOL0     C70500   5.076   2.562   4.769  0.1931 -0.7394 -0.5574
  535MOL0     C70501   5.149   2.652   4.670  0.0675 -0.4060 -0.3234
  535MOL0     C70502   5.197   2.598   4.532  0.2784  0.4933 -0.4241
  535MOL0     C70503   5.077   2.539   4.455  0.0557  0.3904  0.2097
  535MOL0     C70504   4.968   2.634   4.417 -0.2434  0.0965  0.0411
  535MOL0     N70505   4.840   2.612   4.495 -0.6368 -0.2521  0.1406
  535MOL0     C70506   4.766   2.708   4.571 -0.2907  0.4063  0.0348
  535MOL0     C70507   4.646   2.657   4.592  0.1479 -0.1356 -0.8717
  535MOL0     C70508   4.532   2.727   4.658 -0.6387  0.2970 -0.0544
  535MOL0     C70509   4.415   2.744   4.566  0.3855  0.1354 -0.3092
  535MOL0     C70510   4.297   2.815   4.643 -0.3958  0.1576 -0.4386
  535MOL0     C70511   4.164   2.804   4.564 -0.1689  0.5811 -0.1435
  535MOL0     O70512   4.068   2.888   4.627  0.0305  0.3528  0.4055
  535MOL0     C70513   3.942   2.874   4.560 -0.8708 -0.3406 -0.0686
  535MOL0     C70514   3.885   2.753   4.529  0.3732  0.4068 -0.0469
  535MOL0     C70515   3.767   2.746   4.452 -0.0810  0.4463  0.3016
  535MOL0     C70516   3.708   2.863   4.403  0.1000 -0.2138  0.1692
  535MOL0     C70517   3.578   2.852   4.334  0.3805 -0.5359 -0.6825
  535MOL0     O70518   3.539   2.726   4.297 -0.7543  0.5155 -0.4753
  535MOL0     C70519   3.435   2.694   4.225 -0.1553  0.1892  0.4571
  535MOL0     C70520   3.373   2.565   4.226  0.1884  0.4160 -0.1566
  535MOL0     C70521   3.249   2.532   4.179 -0.3070 -0.1673  0.5087
  535MOL0     C70522   3.186   2.624   4.100  0.2469 -0.3692 -1.0358
  535MOL0     O70523   3.065   2.592   4.051 -0.4896 -0.0494  0.3250
  535MOL0     C70524   3.006   2.461   4.081  0.7924  0.3425  0.5894
  535MOL0     C70525   2.871   2.479   4.012 -0.3433  0.1317  0.0677
  535MOL0     C70526   2.777   2.380   4.063 -0.1544  0.0269 -0.6086
  535MOL0     C70527   2.633   2.406   3.999 -0.5963 -0.3640 -0.4877
  535MOL0     C70528   2.533   2.293   4.042  0.5773 -0.1932 -0.2291
  535MOL0     C70529   2.387   2.331   3.974  0.7847 -1.0619  0.2074
  535MOL0     C70530   2.290   2.228   4.008  0.8965 -0.0996  0.9795
  535MOL0     C70531   2.316   2.095   3.936  0.2761 -0.4361  0.3832
  535MOL0    Cl70532   2.284   2.109   3.758  0.2307  0.2134  0.4683
  535MOL0     C70533   3.243   2.746   4.077 -0.8699 -1.0073 -0.1034
  535MOL0     C70534   3.366   2.781   4.140  0.4753  0.5262 -0.2404
  535MOL0     O70535   3.505   2.951   4.317 -0.4341 -0.2741 -0.4071
  535MOL0     C70536   3.775   2.983   4.432  0.4909  0.0664 -0.2259
  535MOL0     C70537   3.892   2.990   4.508 -0.7343 -0.4506  0.1347
  535MOL0     N70538   4.639   2.529   4.534  0.3373 -0.3284  0.4304
  535MOL0     N70539   4.752   2.515   4.473  0.4104  0.6801 -0.3792
  535MOL0     C70540   5.517   2.113   4.795  0.4933  0.4436  0.4615
  535MOL0     C70541   5.656   2.079   4.811  0.1002 -0.1512  0.4665
  535MOL0     C70542   6.098   2.034   4.912  0.3654 -0.1006  0.1176
  535MOL0     C70543   6.119   1.902   4.947  0.3889  0.1152 -0.5509
  535MOL0     C70544   6.247   1.849   4.959  0.4551  0.1529 -0.2297
  535MOL0     C70545   6.355   1.924   4.907 -0.4802 -0.0182 -0.3397
  535MOL0     O70546   6.481   1.881   4.915 -0.4260 -0.4418  0.5222
  535MOL0     C70547   6.522   1.746   4.937 -0.3693 -0.6422 -0.3882
  535MOL0     C70548   6.675   1.720   4.908 -0.5320 -0.8876  0.4822
  535MOL0     C70549   6.767   1.832   4.967  0.5880 -0.4948  0.9328
  535MOL0     C70550   6.889   1.868   4.878  0.1149  0.6704 -0.0942
  535MOL0     C70551   6.996   1.954   4.933 -1.0492 -0.5289  0.3268
  535MOL0     C70552   7.085   2.004   4.998  0.2323  1.4463  0.0077
  535MOL0     C70553   6.330   2.051   4.859  0.1853 -0.8809 -0.5198
  535MOL0     C70554   6.205   2.109   4.861 -0.8350 -0.2097 -0.4025
  535MOL0     H70555   5.684   2.131   5.149  1.8944  0.8677 -0.6551
  535MOL0     H70556   5.453   2.198   5.117 -0.1337 -1.7228 -0.2264
  535MOL0     H70557   5.323   2.359   5.015 -2.9749  4.0886 -0.5367
  535MOL0     H70558   5.208   2.216   5.046  0.1237  1.5021  1.2066
  535MOL0     H70559   5.064   2.400   4.983  0.2209  2.0339 -0.7850
  535MOL0     H70560   5.076   2.278   4.854  2.0441 -0.4974 -1.9936
  535MOL0     H70561   5.195   2.399   4.711 -1.1003  0.3493 -0.9864
  535MOL0     H70562   5.259   2.505   4.847 -1.1175  0.7184  1.6885
  535MOL0     H70563   4.979   2.520   4.741  0.3576 -0.7884 -1.0786
  535MOL0     H70564   5.048   2.631   4.848 -0.3932 -0.5558 -0.9208
  535MOL0     H70565   5.234   2.705   4.715  1.1743 -1.8195 -0.6700
  535MOL0     H70566   5.074   2.729   4.649 -1.3098  0.0264  4.9655
  535MOL0     H70567   5.277   2.524   4.543  1.3140  0.0051 -7.1886
  535MOL0     H70568   5.249   2.679   4.481  0.4845  0.1258 -0.8025
  535MOL0     H70569   5.123   2.504   4.362 -0.8993 -0.6853  0.1014
  535MOL0     H70570   5.037   2.442   4.488 -1.2520  0.1973 -1.7522
  535MOL0     H70571   4.937   2.627   4.313 -0.3340 -2.9943  0.2034
  535MOL0     H70572   4.996   2.739   4.436  3.0091 -0.8500  1.2022
  535MOL0     H70573   4.805   2.803   4.607  1.0497 -1.0728  2.7758
  535MOL0     H70574   4.557   2.822   4.707  0.1864  0.1376 -0.1606
  535MOL0     H70575   4.509   2.656   4.737  0.1430 -0.5778 -0.5963
  535MOL0     H70576   4.379   2.642   4.549  3.2107 -0.8396 -1.0963
  535MOL0     H70577   4.445   2.788   4.471  0.6144 -1.3135 -0.9391
  535MOL0     H70578   4.283   2.777   4.744 -1.9823  0.4853 -0.5123
  535MOL0     H70579   4.319   2.922   4.652  0.8947  0.1814 -2.9676
  535MOL0     H70580   4.131   2.700   4.560  1.7917 -0.0328 -1.8855
  535MOL0     H70581   4.176   2.837   4.461  2.1499 -1.8172 -0.7267
  535MOL0     H70582   3.913   2.655   4.568  2.4272  0.2818 -1.6679
  535MOL0     H70583   3.734   2.645   4.434  2.3496 -0.2453 -0.6724
  535MOL0     H70584   3.430   2.501   4.293 -0.8205  0.5855  0.8883
  535MOL0     H70585   3.206   2.432   4.187 -0.9003 -0.2094 -2.1281
  535MOL0     H70586   2.980   2.440   4.185 -3.3942  0.3414 -0.3052
  535MOL0     H70587   3.062   2.377   4.038  2.2239  0.5355  1.9941
  535MOL0     H70588   2.887   2.474   3.904 -2.8993 -1.7643 -0.3173
  535MOL0     H70589   2.820   2.573   4.034  0.6798  0.6049  0.4773
  535MOL0     H70590   2.772   2.396   4.171  0.2494  3.1455 -0.9585
  535MOL0     H70591   2.824   2.283   4.045  0.2252  0.0261  0.3249
  535MOL0     H70592   2.594   2.507   4.014  0.4870 -0.0914  0.6482
  535MOL0     H70593   2.632   2.403   3.890 -1.3818  0.4306 -0.5186
  535MOL0     H70594   2.520   2.294   4.150 -0.3990 -0.2847 -0.3395
  535MOL0     H70595   2.577   2.199   4.008 -2.4587 -1.1046 -2.0367
  535MOL0     H70596   2.401   2.347   3.866  1.6464 -2.6093  0.0596
  535MOL0     H70597   2.354   2.423   4.021 -0.1204 -3.1178  4.0379
  535MOL0     H70598   2.277   2.206   4.114  1.3256  1.9126  1.4937
  535MOL0     H70599   2.195   2.273   3.977  1.1052 -1.0130 -1.1675
  535MOL0     H70600   2.244   2.026   3.979 -0.4842 -0.0289 -0.2152
  535MOL0     H70601   2.415   2.058   3.964  0.3884  0.3131  1.0136
  535MOL0     H70602   3.201   2.821   4.010  0.2940 -2.4738 -2.6025
  535MOL0     H70603   3.387   2.887   4.124 -0.6490  0.3602 -3.5885
  535MOL0     H70604   3.722   3.073   4.404  2.5438  1.9789  1.6318
  535MOL0     H70605   3.948   3.082   4.520  0.5745 -1.0254 -1.2702
  535MOL0     H70606   5.459   2.107   4.704  0.5107 -1.7074  0.5302
  535MOL0     H70607   5.716   2.033   4.732  0.7532 -0.2558  1.0211
  535MOL0     H70608   6.040   1.841   4.990  0.6969 -1.9986 -2.7387
  535MOL0     H70609   6.259   1.753   5.008  2.5734  0.0388 -0.8474
  535MOL0     H70610   6.454   1.673   4.893 -0.2253 -3.2618  3.2992
  535MOL0     H70611   6.513   1.727   5.044  3.1568  1.5927  0.4614
  535MOL0     H70612   6.704   1.617   4.932  3.4157 -0.1353 -0.4124
  535MOL0     H70613   6.684   1.727   4.799 -1.4289 -3.3811  0.1758
  535MOL0     H70614   6.789   1.793   5.067 -2.6003 -2.1176  1.1586
  535MOL0     H70615   6.710   1.924   4.985  0.3651 -0.5617  0.5737
  535MOL0     H70616   6.926   1.768   4.855 -1.6043 -0.2177  0.8091
  535MOL0     H70617   6.861   1.908   4.780 -0.0277  0.4585 -0.1410
  535MOL0     H70618   7.164   2.038   5.061  0.6848 -1.5859  1.2875
  535MOL0     H70619   6.414   2.101   4.813 -0.1167 -0.5322 -0.6958
  535MOL0     H70620   6.197   2.216   4.845  1.8331  0.2672  0.8466
  536MOL0     O70621   9.183   5.919   3.523  0.1781  0.4392  0.3358
  536MOL0     C70622   9.258   5.978   3.599 -0.6540  0.2013 -0.9439
  536MOL0     O70623   9.232   6.038   3.723  0.8736  0.1338  0.3213
  536MOL0     C70624   9.120   5.984   3.787  0.1135  1.1767  0.0845
  536MOL0     C70625   9.100   5.847   3.802 -0.0504  0.2514  0.1352
  536MOL0     C70626   8.986   5.800   3.872  0.5182 -0.2761  0.9901
  536MOL0     C70627   8.882   5.889   3.915 -0.5995  0.6184 -0.1064
  536MOL0     O70628   8.775   5.843   3.992  0.1272  0.2818 -0.0992
  536MOL0     C70629   8.645   5.863   3.927 -0.9809 -0.0807 -0.3266
  536MOL0     C70630   8.554   5.923   4.040  0.1166 -0.3155  1.0001
  536MOL0     C70631   8.423   5.842   4.061 -0.0915 -0.2743 -0.1308
  536MOL0     C70632   8.440   5.691   4.117 -0.1586  0.0277 -0.4916
  536MOL0     C70633   8.307   5.621   4.138  1.3124  0.4871  0.0309
  536MOL0     C70634   8.210   5.643   4.017 -0.0358 -0.7548 -0.3915
  536MOL0     C70635   8.078   5.562   4.016  0.0737  0.6688 -0.4436
  536MOL0     C70636   7.998   5.584   4.147 -0.7287  0.0505  0.7007
  536MOL0     N70637   7.852   5.547   4.137 -0.3636  0.1812  0.6300
  536MOL0     C70638   7.799   5.424   4.173 -0.2230  0.2581  1.1445
  536MOL0     C70639   7.666   5.444   4.204  0.4975  0.4457 -0.6155
  536MOL0     C70640   7.574   5.334   4.252 -0.0450 -0.6150 -0.7470
  536MOL0     C70641   7.442   5.346   4.171 -0.3004 -0.7093 -1.2452
  536MOL0     C70642   7.368   5.207   4.192  1.2526 -0.3938  0.1913
  536MOL0     C70643   7.222   5.248   4.145  0.0526  0.5905 -0.1734
  536MOL0     O70644   7.142   5.126   4.147  0.2063 -0.1155 -0.0337
  536MOL0     C70645   7.007   5.139   4.157  0.3470  0.1550  0.3086
  536MOL0     C70646   6.934   5.025   4.174  0.2750 -0.7073  0.7495
  536MOL0     C70647   6.801   5.025   4.178 -0.3528  0.0905  0.2107
  536MOL0     C70648   6.724   5.136   4.163 -0.5216  0.2830  0.1282
  536MOL0     C70649   6.577   5.127   4.159  0.5225  0.2329 -0.4725
  536MOL0     O70650   6.505   5.242   4.183 -0.0986 -0.3729  0.5942
  536MOL0     C70651   6.373   5.241   4.171  0.1244  0.5542 -0.7032
  536MOL0     C70652   6.300   5.273   4.054 -0.3031  0.4422  0.1378
  536MOL0     C70653   6.162   5.261   4.059  0.0049 -0.4466  0.7202
  536MOL0     C70654   6.087   5.215   4.170 -1.2836 -0.7913 -0.9179
  536MOL0     O70655   5.951   5.218   4.180  0.1184  0.9094 -0.6250
  536MOL0     C70656   5.887   5.346   4.182 -0.6326  0.3213  0.6786
  536MOL0     C70657   5.865   5.400   4.036  0.4962  0.1945  0.5640
  536MOL0     C70658   5.773   5.521   4.038 -0.2849  0.4175  1.2798
  536MOL0     C70659   5.629   5.492   4.098  0.6018  0.1193 -0.3741
  536MOL0     C70660   5.512   5.557   4.027  0.5294  0.8281  0.3545
  536MOL0     C70661   5.375   5.472   4.046  0.0456 -0.4094 -0.5871
  536MOL0     C70662   5.325   5.454   4.191 -0.3301  1.2053 -0.9262
  536MOL0     C70663   5.185   5.385   4.185 -0.4470  0.3530  0.2944
  536MOL0    Cl70664   5.055   5.497   4.138 -0.1750 -0.0886 -0.3096
  536MOL0     C70665   6.154   5.171   4.280 -0.3875  0.7904  0.9036
  536MOL0     C70666   6.296   5.181   4.274  0.4709  0.4162  0.7080
  536MOL0     O70667   6.529   5.014   4.144  0.1362  0.0352  0.1935
  536MOL0     C70668   6.793   5.255   4.129  0.1865 -0.5077 -0.3392
  536MOL0     C70669   6.929   5.260   4.134  0.2800 -0.1156 -0.2665
  536MOL0     N70670   7.638   5.575   4.168  0.4568  0.5751 -0.3918
  536MOL0     N70671   7.750   5.631   4.127  0.1608  0.6937 -0.0700
  536MOL0     C70672   8.907   6.024   3.897  1.1903 -0.6421  0.6096
  536MOL0     C70673   9.010   6.067   3.825  0.0055  0.8019  0.3975
  536MOL0     C70674   9.405   5.983   3.558  0.5619  0.2484  0.9715
  536MOL0     C70675   9.500   6.054   3.631 -0.4336 -0.7474 -0.2058
  536MOL0     C70676   9.627   6.048   3.584 -0.3743  0.0823 -0.2789
  536MOL0     C70677   9.660   5.988   3.457 -0.7820  0.0650 -1.0962
  536MOL0     O70678   9.787   5.992   3.403  0.7530 -0.2824  0.4169
  536MOL0     C70679   9.887   6.073   3.464 -0.1282 -1.2454 -0.4595
  536MOL0     C70680  10.029   6.052   3.422  1.1816 -0.0685 -0.7383
  536MOL0     C70681  10.138   6.143   3.493  0.5431  0.2065  0.3844
  536MOL0     C70682  10.135   6.279   3.440 -1.2377  0.3678  0.1050
  536MOL0     C70683  10.211   6.295   3.315  0.2701 -0.6414  0.1955
  536MOL0     C70684  10.274   6.305   3.215 -0.0869  0.5532  0.1900
  536MOL0     C70685   9.561   5.921   3.381  0.4705  1.4208 -0.3179
  536MOL0     C70686   9.429   5.920   3.431 -0.9305 -0.0098 -0.1977
  536MOL0     H70687   9.165   5.776   3.751  0.8704  2.1506 -1.4787
  536MOL0     H70688   8.981   5.692   3.871 -0.0086 -0.2495 -0.1373
  536MOL0     H70689   8.615   5.767   3.884  0.2315 -0.7704  0.3057
  536MOL0     H70690   8.646   5.936   3.846  0.3138 -0.3735 -0.6056
  536MOL0     H70691   8.539   6.029   4.017 -0.2436  0.0554  2.8355
  536MOL0     H70692   8.610   5.919   4.134  0.0369 -0.3183  1.0473
  536MOL0     H70693   8.368   5.851   3.966 -1.2306  2.8523  0.7153
  536MOL0     H70694   8.369   5.893   4.141  0.6113 -1.9892  1.5174
  536MOL0     H70695   8.508   5.651   4.042 -0.0337 -0.0657 -0.3289
  536MOL0     H70696   8.498   5.689   4.210 -1.7691 -1.7099  0.5562
  536MOL0     H70697   8.272   5.659   4.235  0.3312 -0.5235  0.0952
  536MOL0     H70698   8.320   5.516   4.165  2.2274  0.8592  1.1625
  536MOL0     H70699   8.265   5.625   3.924 -1.3275 -2.9220 -0.7749
  536MOL0     H70700   8.198   5.752   4.012  3.6535 -0.2596 -1.3350
  536MOL0     H70701   8.015   5.597   3.934  0.9175  0.6934 -1.0876
  536MOL0     H70702   8.111   5.458   4.002 -0.5618  0.3492  0.3111
  536MOL0     H70703   8.008   5.692   4.163 -0.6676 -0.0836  1.6597
  536MOL0     H70704   8.050   5.539   4.233 -1.1839  0.5647  1.2583
  536MOL0     H70705   7.870   5.349   4.207  1.8845  1.9683  0.7990
  536MOL0     H70706   7.535   5.355   4.353 -1.6480  1.4021 -1.7179
  536MOL0     H70707   7.622   5.239   4.231 -0.6592 -0.5198 -2.7928
  536MOL0     H70708   7.471   5.348   4.065 -1.0191 -1.5331 -1.4621
  536MOL0     H70709   7.392   5.437   4.205 -0.9257 -1.2356 -0.7388
  536MOL0     H70710   7.399   5.122   4.132  0.2907 -1.0061  0.5403
  536MOL0     H70711   7.369   5.177   4.297 -2.2113  0.9390  0.7363
  536MOL0     H70712   7.233   5.295   4.047  3.8785  1.2847  0.4277
  536MOL0     H70713   7.182   5.331   4.204  4.3299  2.4178  0.5507
  536MOL0     H70714   6.985   4.929   4.184  2.9048  0.6201  0.9647
  536MOL0     H70715   6.752   4.928   4.174  1.2953 -0.7335 -1.4622
  536MOL0     H70716   6.344   5.301   3.959  0.7224 -3.7762 -0.8135
  536MOL0     H70717   6.111   5.294   3.970 -1.1365  1.2760  1.9382
  536MOL0     H70718   5.941   5.419   4.243  0.0403  2.1104 -1.8631
  536MOL0     H70719   5.789   5.342   4.231 -0.7146  2.0757  0.7402
  536MOL0     H70720   5.831   5.323   3.967  1.7800 -0.2477  0.3881
  536MOL0     H70721   5.957   5.442   3.994  1.0115  0.8111  2.1996
  536MOL0     H70722   5.751   5.547   3.934 -0.9744 -1.7118  0.8449
  536MOL0     H70723   5.808   5.613   4.085 -3.1842  2.0386  0.5069
  536MOL0     H70724   5.621   5.383   4.091  2.4118 -0.1423  0.8674
  536MOL0     H70725   5.637   5.523   4.202  0.1617 -0.6657 -0.0985
  536MOL0     H70726   5.541   5.571   3.923  1.2547  1.4305  0.6238
  536MOL0     H70727   5.490   5.654   4.074  1.3625  0.3470  1.8025
  536MOL0     H70728   5.393   5.371   4.008 -5.0952 -1.8028 -0.0056
  536MOL0     H70729   5.299   5.524   3.987 -0.9725 -0.8822  0.2823
  536MOL0     H70730   5.395   5.390   4.246 -0.5491  1.7686  0.0409
  536MOL0     H70731   5.311   5.551   4.241 -0.0799  0.9589 -0.3618
  536MOL0     H70732   5.155   5.354   4.285  2.1013  0.8299  1.2809
  536MOL0     H70733   5.189   5.301   4.116 -0.3670  3.1417 -3.4213
  536MOL0     H70734   6.098   5.152   4.370  1.0010  2.4891  2.2129
  536MOL0     H70735   6.342   5.160   4.370 -0.8047 -2.7251  0.7528
  536MOL0     H70736   6.737   5.344   4.102 -0.8782 -1.1720 -0.3683
  536MOL0     H70737   6.975   5.355   4.109 -1.4455  1.1513  1.1214
  536MOL0     H70738   8.834   6.093   3.938  0.7841 -2.1229  2.4970
  536MOL0     H70739   9.016   6.175   3.811 -0.1806  1.4050  4.0347
  536MOL0     H70740   9.473   6.097   3.727  3.1966  0.0147  0.6377
  536MOL0     H70741   9.704   6.092   3.647 -1.2825 -0.8034  1.5001
  536MOL0     H70742   9.885   6.064   3.573 -0.1872 -0.5581 -0.3961
  536MOL0     H70743   9.862   6.179   3.455 -1.2937 -1.3413  1.2303
  536MOL0     H70744  10.051   5.961   3.479  0.1959  1.8602  3.0805
  536MOL0     H70745  10.035   6.050   3.313 -0.8432  2.5322 -0.9784
  536MOL0     H70746  10.233   6.089   3.487 -0.3651 -1.2894 -2.0324
  536MOL0     H70747  10.108   6.145   3.598 -2.1213  0.8430 -0.3147
  536MOL0     H70748  10.029   6.307   3.441 -0.9187  1.7111  1.8599
  536MOL0     H70749  10.184   6.340   3.516 -0.0421  0.8158 -0.9952
  536MOL0     H70750  10.328   6.316   3.123 -1.6716  3.6369 -0.4971
  536MOL0     H70751   9.598   5.896   3.282 -2.8480  0.0235 -1.3578
  536MOL0     H70752   9.356   5.867   3.371 -3.3543  0.9810  1.7029
  537MOL0     O70753   5.850   0.862   3.174 -0.5783  0.5973 -0.9258
  537MOL0     C70754   5.759   0.929   3.126 -0.3721  0.1488  0.0778
  537MOL0     O70755   5.629   0.906   3.149 -0.3592 -0.1461 -0.2771
  537MOL0     C70756   5.596   0.792   3.218  0.4280 -0.3443 -0.5955
  537MOL0     C70757   5.609   0.796   3.360 -0.6215  0.2290  0.3413
  537MOL0     C70758   5.565   0.684   3.438 -0.4643 -0.5746  0.3290
  537MOL0     C70759   5.518   0.567   3.379  0.3205 -0.1067  0.4741
  537MOL0     O70760   5.482   0.462   3.456  0.9427 -0.1315  0.7469
  537MOL0     C70761   5.441   0.337   3.394  0.6832  0.3368  1.2122
  537MOL0     C70762   5.283   0.337   3.374  0.2058 -0.2644 -0.0514
  537MOL0     C70763   5.234   0.189   3.370  0.0736 -0.0434  0.2331
  537MOL0     C70764   5.089   0.179   3.342  0.6083 -0.5265 -0.4604
  537MOL0     C70765   5.051   0.034   3.351  0.7969  1.3624  0.6795
  537MOL0     C70766   4.906   0.014   3.394  0.7968 -0.4709  0.6086
  537MOL0     C70767   4.803   0.058   3.289 -0.2761  0.1369 -0.4883
  537MOL0     C70768   4.659   0.038   3.327 -0.1195 -0.3600 -0.0526
  537MOL0     N70769   4.582   0.129   3.242  0.1641  0.6779  0.1940
  537MOL0     C70770   4.580   0.266   3.255  0.9653 -0.0682 -0.3320
  537MOL0     C70771   4.516   0.309   3.149 -0.0126 -0.0442 -0.3399
  537MOL0     C70772   4.518   0.442   3.086  1.0311 -0.7820 -0.7255
  537MOL0     C70773   4.488   0.557   3.185 -0.4951  0.7813  0.6195
  537MOL0     C70774   4.341   0.539   3.244 -0.3863 -0.0305  0.4902
  537MOL0     C70775   4.274   0.675   3.282 -0.7765 -0.5304 -0.3713
  537MOL0     O70776   4.268   0.752   3.168  0.1039 -0.6239  0.4929
  537MOL0     C70777   4.154   0.744   3.086  0.1378 -0.5977  0.5073
  537MOL0     C70778   4.046   0.835   3.128  0.6982  0.7994  0.0492
  537MOL0     C70779   3.924   0.839   3.064  0.2416 -0.8030  0.6537
  537MOL0     C70780   3.904   0.751   2.949  0.1518 -0.0773 -0.2233
  537MOL0     C70781   3.777   0.753   2.874 -1.1896 -0.2503 -0.6021
  537MOL0     O70782   3.759   0.651   2.786  0.1369 -1.3449  0.2283
  537MOL0     C70783   3.653   0.649   2.696  0.1799  0.3003 -0.5211
  537MOL0     C70784   3.581   0.763   2.647 -1.2210 -0.0566 -1.0750
  537MOL0     C70785   3.477   0.740   2.554  0.4547 -0.2056  0.4543
  537MOL0     C70786   3.446   0.608   2.513  0.8698 -0.5411  0.5235
  537MOL0     O70787   3.362   0.579   2.410  0.4598 -0.9025 -0.0260
  537MOL0     C70788   3.228   0.574   2.447  0.2943  0.8007 -0.0914
  537MOL0     C70789   3.150   0.500   2.355 -0.7689 -0.1498 -1.0494
  537MOL0     C70790   3.128   0.552   2.212  0.2486 -0.2831 -0.1316
  537MOL0     C70791   3.029   0.456   2.153  0.0497 -0.1869  0.8827
  537MOL0     C70792   2.992   0.510   2.015 -0.1733  0.3179  0.2865
  537MOL0     C70793   2.941   0.408   1.923 -0.3143  0.2636 -0.2465
  537MOL0     C70794   2.944   0.460   1.776  0.1324  0.4165 -0.2757
  537MOL0     C70795   2.808   0.505   1.724 -0.5861 -0.0921 -0.0511
  537MOL0    Cl70796   2.772   0.659   1.798  0.4020 -0.6919  0.1922
  537MOL0     C70797   3.515   0.494   2.560 -1.3087  0.2491 -0.8221
  537MOL0     C70798   3.614   0.518   2.658  0.2569 -0.4863 -0.0637
  537MOL0     O70799   3.689   0.828   2.917  0.0717 -0.5618 -0.4505
  537MOL0     C70800   4.014   0.672   2.905  0.6451  0.8310 -0.6179
  537MOL0     C70801   4.134   0.656   2.979  0.3985  0.5324 -0.1289
  537MOL0     N70802   4.481   0.205   3.069 -0.2731  0.7630  0.3833
  537MOL0     N70803   4.518   0.093   3.134  0.0722 -0.0613  0.9518
  537MOL0     C70804   5.504   0.566   3.236 -0.4076 -0.7059  0.5779
  537MOL0     C70805   5.533   0.679   3.161 -0.1877 -0.3367  0.2368
  537MOL0     C70806   5.791   1.024   3.026 -1.0682  0.1305 -0.3886
  537MOL0     C70807   5.919   1.042   2.953 -0.9251 -0.5837 -1.1925
  537MOL0     C70808   5.940   1.141   2.856  1.3246  0.7103  0.2910
  537MOL0     C70809   5.837   1.210   2.807 -0.0151 -0.4174  0.9604
  537MOL0     O70810   5.826   1.289   2.691 -0.9062  0.5206  0.0923
  537MOL0     C70811   5.925   1.272   2.591 -0.1286 -1.0667 -0.3784
  537MOL0     C70812   6.053   1.358   2.615 -0.1493  0.2316 -0.2356
  537MOL0     C70813   6.165   1.296   2.531 -0.1764 -0.4568  1.0126
  537MOL0     C70814   6.198   1.367   2.403 -0.2547 -0.1022 -0.4840
  537MOL0     C70815   6.316   1.316   2.343  0.1956  0.8635 -0.2302
  537MOL0     C70816   6.396   1.255   2.276  0.1796  0.1950 -0.0839
  537MOL0     C70817   5.725   1.225   2.889 -0.0168  0.0154  0.9107
  537MOL0     C70818   5.703   1.134   2.996 -1.0116  0.0176 -0.2119
  537MOL0     H70819   5.646   0.880   3.419 -2.8560  0.0323  2.1695
  537MOL0     H70820   5.574   0.676   3.546 -0.8366  0.8260  0.4875
  537MOL0     H70821   5.460   0.259   3.468  1.2149 -0.0360  0.6882
  537MOL0     H70822   5.490   0.300   3.304 -1.2349  0.5424  0.0306
  537MOL0     H70823   5.249   0.392   3.286 -0.6408 -2.5076 -1.2183
  537MOL0     H70824   5.237   0.391   3.457  0.8659 -1.7738  1.3560
  537MOL0     H70825   5.278   0.136   3.456  4.2906  0.6145 -1.2560
  537MOL0     H70826   5.292   0.144   3.288 -0.2494 -0.1639  0.0721
  537MOL0     H70827   5.042   0.247   3.414  2.2910  0.2687 -0.0627
  537MOL0     H70828   5.060   0.231   3.250  0.9771  2.0111  0.7442
  537MOL0     H70829   5.112  -0.020   3.425 -0.2020  3.3670  3.0925
  537MOL0     H70830   5.073  -0.007   3.252 -3.1171 -2.1433  0.9803
  537MOL0     H70831   4.885   0.069   3.486 -1.1832 -2.2701  1.3477
  537MOL0     H70832   4.893  -0.094   3.408  0.6216 -0.7545 -1.3637
  537MOL0     H70833   4.828   0.161   3.261  2.8229 -0.0803  1.0525
  537MOL0     H70834   4.810   0.010   3.191 -2.4342  0.6635 -0.9564
  537MOL0     H70835   4.629   0.074   3.425  2.0736 -2.8743  1.6690
  537MOL0     H70836   4.624  -0.065   3.320  1.1262 -0.7054 -3.3369
  537MOL0     H70837   4.643   0.318   3.326  2.4852  0.1394 -1.7958
  537MOL0     H70838   4.447   0.458   3.004  0.1053 -1.2433 -0.0365
  537MOL0     H70839   4.623   0.461   3.066  1.1608  3.3375  2.4958
  537MOL0     H70840   4.497   0.655   3.136  1.5257  0.0913 -0.4889
  537MOL0     H70841   4.570   0.554   3.257 -1.4441 -0.4924  1.7034
  537MOL0     H70842   4.284   0.499   3.159 -0.0979 -1.1178  0.7967
  537MOL0     H70843   4.337   0.470   3.328 -0.6521  0.2684  0.7205
  537MOL0     H70844   4.336   0.740   3.344  1.8397 -0.0782 -3.2255
  537MOL0     H70845   4.173   0.652   3.316  1.0965 -1.8599  5.3273
  537MOL0     H70846   4.053   0.913   3.204  0.3751  1.4457 -0.5762
  537MOL0     H70847   3.848   0.909   3.097  0.6996  0.8274 -1.5218
  537MOL0     H70848   3.624   0.860   2.670  1.0246 -0.5424 -2.8489
  537MOL0     H70849   3.420   0.824   2.515  4.0829  1.0080 -2.8952
  537MOL0     H70850   3.192   0.677   2.447  1.3580  1.1823  0.6589
  537MOL0     H70851   3.200   0.546   2.549 -1.4745 -1.5769 -1.1110
  537MOL0     H70852   3.054   0.486   2.407  0.3165  0.7093  1.2952
  537MOL0     H70853   3.205   0.406   2.353 -0.0058  0.2054  1.2043
  537MOL0     H70854   3.217   0.544   2.150 -0.1853 -0.6071 -0.7254
  537MOL0     H70855   3.085   0.652   2.204 -0.3775 -0.4187  1.1991
  537MOL0     H70856   3.071   0.356   2.144 -1.5818 -0.9541  1.3911
  537MOL0     H70857   2.943   0.444   2.220  0.3107 -1.9579  0.9291
  537MOL0     H70858   3.086   0.548   1.974 -0.6192  1.5085  0.3160
  537MOL0     H70859   2.921   0.592   2.034 -1.6872 -1.2137  1.5103
  537MOL0     H70860   2.837   0.383   1.946  0.2656 -2.4564 -0.2267
  537MOL0     H70861   3.001   0.317   1.933 -0.2396  0.1864 -1.2945
  537MOL0     H70862   3.004   0.551   1.764 -0.3833  0.8999  0.7228
  537MOL0     H70863   2.990   0.383   1.713  0.1853 -3.7929  4.2325
  537MOL0     H70864   2.726   0.439   1.752 -0.7829  0.7581  1.5167
  537MOL0     H70865   2.809   0.508   1.614 -1.0637 -0.8076 -0.0775
  537MOL0     H70866   3.474   0.401   2.521  0.5471 -1.8047  1.7821
  537MOL0     H70867   3.664   0.441   2.716  3.6400  1.1952 -0.4773
  537MOL0     H70868   4.006   0.607   2.818 -1.0886  1.2038 -0.7802
  537MOL0     H70869   4.208   0.582   2.948 -0.2096  0.0170 -0.3717
  537MOL0     H70870   5.461   0.476   3.192 -1.9050  0.7786 -1.1253
  537MOL0     H70871   5.507   0.665   3.056 -1.8479 -1.4500  0.7667
  537MOL0     H70872   5.999   0.973   2.978 -0.5150 -0.2816 -1.6648
  537MOL0     H70873   6.035   1.144   2.803  2.6206  1.4736  2.5504
  537MOL0     H70874   5.879   1.316   2.502  0.7519  1.4299  0.3151
  537MOL0     H70875   5.957   1.167   2.586  1.6165 -0.6936  1.4614
  537MOL0     H70876   6.037   1.459   2.576 -2.2515 -0.1944 -0.6483
  537MOL0     H70877   6.085   1.366   2.719  0.7515 -2.8510 -0.1717
  537MOL0     H70878   6.135   1.194   2.507 -1.3148  0.0602  0.1491
  537MOL0     H70879   6.258   1.277   2.586  0.5184  1.6622  0.6564
  537MOL0     H70880   6.118   1.362   2.329  0.8318 -2.3112 -1.6098
  537MOL0     H70881   6.210   1.470   2.438 -1.2422 -0.3758  0.7251
  537MOL0     H70882   6.470   1.205   2.218  1.1960  0.2757  1.1010
  537MOL0     H70883   5.637   1.284   2.865 -0.3129 -1.1016 -1.0096
  537MOL0     H70884   5.611   1.160   3.047 -0.8026 -1.4444  0.9785
  538MOL0     O70885   6.109   2.083   2.932  0.2493  0.2974 -0.0914
  538MOL0     C70886   6.081   2.132   3.039 -0.2944 -0.4081 -0.1029
  538MOL0     O70887   5.964   2.200   3.077 -0.1994  0.2821  0.5555
  538MOL0     C70888   5.864   2.210   2.980  0.4002 -0.8221  0.9499
  538MOL0     C70889   5.819   2.339   2.961 -0.6704  0.7553 -0.1773
  538MOL0     C70890   5.698   2.358   2.883  0.2706 -0.9709  0.4860
  538MOL0     C70891   5.638   2.254   2.813  0.0755  0.1696 -0.1379
  538MOL0     O70892   5.521   2.256   2.743 -0.1126  0.4694 -0.7600
  538MOL0     C70893   5.478   2.378   2.692  0.6316 -0.4386  0.4691
  538MOL0     C70894   5.342   2.376   2.618 -0.0048  0.3301 -0.4206
  538MOL0     C70895   5.337   2.306   2.483 -0.5969 -0.1511  0.2982
  538MOL0     C70896   5.206   2.361   2.415  0.8729  0.0178  0.7325
  538MOL0     C70897   5.208   2.311   2.268  0.5423 -0.4657  0.4520
  538MOL0     C70898   5.064   2.328   2.210  0.2988 -0.4129  0.2044
  538MOL0     C70899   5.053   2.298   2.056  0.4407  0.5585 -0.6530
  538MOL0     C70900   4.911   2.335   1.998 -0.7468  0.2014 -0.2366
  538MOL0     N70901   4.811   2.246   2.053 -0.3128  0.0407 -1.1263
  538MOL0     C70902   4.827   2.116   2.081  0.2377 -0.1512 -0.5356
  538MOL0     C70903   4.710   2.078   2.127 -0.9233 -0.8576 -0.5231
  538MOL0     C70904   4.672   1.938   2.173  0.5694  0.1810  0.0357
  538MOL0     C70905   4.542   1.926   2.243  0.7583 -0.3083  0.0081
  538MOL0     C70906   4.423   1.911   2.152  0.5266 -0.0238 -0.5711
  538MOL0     C70907   4.295   1.890   2.224  0.9859 -0.0652 -0.3050
  538MOL0     O70908   4.247   2.017   2.290  0.9136  0.3589  0.3442
  538MOL0     C70909   4.150   2.019   2.387 -0.3794  0.7990  0.3004
  538MOL0     C70910   4.173   2.096   2.498 -0.6832 -0.0507 -0.1498
  538MOL0     C70911   4.080   2.122   2.601 -0.1728 -0.2210  0.1635
  538MOL0     C70912   3.954   2.062   2.592 -0.1727  0.1358  0.1393
  538MOL0     C70913   3.852   2.091   2.695 -0.0392  0.4290  0.4108
  538MOL0     O70914   3.877   2.162   2.804  0.0847  0.4245 -0.5418
  538MOL0     C70915   3.779   2.180   2.899  0.7116  0.2451 -0.7526
  538MOL0     C70916   3.765   2.313   2.938  0.4404 -0.7408 -0.5818
  538MOL0     C70917   3.665   2.354   3.023  0.1114  0.5802  0.3900
  538MOL0     C70918   3.581   2.253   3.084 -0.0697  0.2579  0.2346
  538MOL0     O70919   3.470   2.298   3.156 -0.1167 -0.1717  0.2789
  538MOL0     C70920   3.392   2.199   3.223  0.3439 -0.7447 -0.0131
  538MOL0     C70921   3.464   2.136   3.346 -0.1376  0.5227 -0.2575
  538MOL0     C70922   3.371   2.049   3.429 -0.3812 -0.5050 -0.7111
  538MOL0     C70923   3.268   2.136   3.498 -0.1061 -0.1225 -0.7070
  538MOL0     C70924   3.148   2.063   3.550  0.4610  1.4646  0.9642
  538MOL0     C70925   3.035   2.155   3.593 -0.6261  0.0882 -0.0039
  538MOL0     C70926   2.925   2.070   3.635  0.3741 -0.0797  0.1327
  538MOL0     C70927   2.809   2.154   3.690 -0.2125  0.4762  1.0161
  538MOL0    Cl70928   2.657   2.083   3.731  0.0543 -0.0509  0.1487
  538MOL0     C70929   3.617   2.121   3.066 -0.9903  0.1155  0.4459
  538MOL0     C70930   3.700   2.084   2.963 -0.3395  0.2664 -0.4633
  538MOL0     O70931   3.738   2.045   2.673  0.8985 -0.0623  0.2194
  538MOL0     C70932   3.933   1.969   2.484 -0.3173  0.8094 -0.6089
  538MOL0     C70933   4.032   1.942   2.393 -0.7629  0.0449  1.5247
  538MOL0     N70934   4.621   2.183   2.131 -0.2959 -1.0700  0.0826
  538MOL0     N70935   4.692   2.284   2.101 -0.6128 -0.3651  1.0796
  538MOL0     C70936   5.699   2.126   2.812 -0.3782 -0.6914 -0.9565
  538MOL0     C70937   5.805   2.106   2.901 -0.2692 -0.4457 -0.4566
  538MOL0     C70938   6.175   2.120   3.157  0.2326 -0.3392 -0.4475
  538MOL0     C70939   6.153   2.171   3.288 -0.3126  0.4396  0.4332
  538MOL0     C70940   6.244   2.157   3.387  0.3395  0.0428 -0.1065
  538MOL0     C70941   6.365   2.090   3.369 -0.2295 -0.3395  0.6552
  538MOL0     O70942   6.452   2.065   3.476 -0.0674 -0.6804  0.2937
  538MOL0     C70943   6.404   2.023   3.599 -0.2124 -0.6979  0.3498
  538MOL0     C70944   6.516   2.013   3.715 -0.7226 -0.1047  0.2888
  538MOL0     C70945   6.452   2.000   3.857  0.3547  0.6896  0.0774
  538MOL0     C70946   6.564   1.971   3.963  0.4922  0.7747  0.4983
  538MOL0     C70947   6.675   2.061   3.949 -0.2806  0.9114  1.5059
  538MOL0     C70948   6.780   2.119   3.924  0.5618 -0.0482 -1.0427
  538MOL0     C70949   6.397   2.047   3.243 -0.3348  0.3242 -0.2391
  538MOL0     C70950   6.298   2.060   3.139 -0.1081 -0.1644 -0.5183
  538MOL0     H70951   5.868   2.423   3.009  0.0955 -0.2880  0.9086
  538MOL0     H70952   5.649   2.453   2.895  0.6692 -0.5453 -1.0307
  538MOL0     H70953   5.553   2.415   2.622 -1.0279 -0.8928 -1.6599
  538MOL0     H70954   5.460   2.452   2.771  1.5188 -0.1246  0.3839
  538MOL0     H70955   5.321   2.483   2.609 -2.8208 -0.2413 -1.4958
  538MOL0     H70956   5.269   2.333   2.688  1.0523  2.1226  1.9392
  538MOL0     H70957   5.325   2.198   2.491 -4.2752  0.1610  0.7092
  538MOL0     H70958   5.426   2.324   2.422 -1.4013 -0.7059 -1.0853
  538MOL0     H70959   5.121   2.309   2.459  0.4084 -2.3747 -2.5771
  538MOL0     H70960   5.197   2.470   2.421 -2.0495 -0.0224 -0.9941
  538MOL0     H70961   5.249   2.210   2.264 -0.8007 -1.0068 -0.2890
  538MOL0     H70962   5.281   2.375   2.217  1.1247 -0.8049  0.8456
  538MOL0     H70963   5.018   2.422   2.241  0.8206 -0.4484  1.1032
  538MOL0     H70964   5.010   2.247   2.260  1.2552 -0.7571  0.7078
  538MOL0     H70965   5.129   2.353   2.000 -0.9444 -0.0763 -3.3060
  538MOL0     H70966   5.067   2.192   2.034 -2.6723  0.0875 -0.8025
  538MOL0     H70967   4.926   2.319   1.891 -1.0337 -1.5526 -0.0450
  538MOL0     H70968   4.890   2.441   2.011  0.5109  0.5202 -0.6272
  538MOL0     H70969   4.919   2.058   2.078  1.5761  1.9021 -2.1626
  538MOL0     H70970   4.748   1.908   2.246 -0.5949 -4.1190 -0.2254
  538MOL0     H70971   4.669   1.865   2.091 -0.2032  0.6728 -0.3781
  538MOL0     H70972   4.528   2.010   2.313 -2.1208  0.2342 -1.0476
  538MOL0     H70973   4.543   1.835   2.303 -1.1227  0.8607  2.0086
  538MOL0     H70974   4.398   2.002   2.095  0.5848 -0.1106 -0.7336
  538MOL0     H70975   4.454   1.831   2.085  3.9848  0.6451  0.0665
  538MOL0     H70976   4.287   1.805   2.293  0.1316 -0.8609 -1.3590
  538MOL0     H70977   4.218   1.862   2.153 -1.5441  0.7478  1.9563
  538MOL0     H70978   4.269   2.146   2.511 -1.4921  1.7787 -0.8939
  538MOL0     H70979   4.095   2.183   2.690  1.5779 -1.2008  0.5927
  538MOL0     H70980   3.817   2.397   2.894  3.8676 -1.5492  1.5814
  538MOL0     H70981   3.649   2.458   3.049  2.5470  0.8443  1.0166
  538MOL0     H70982   3.352   2.124   3.154  0.2098 -1.3013  0.6688
  538MOL0     H70983   3.308   2.265   3.246  2.2604  1.7875  0.2819
  538MOL0     H70984   3.522   2.209   3.403 -1.1447  1.8426 -0.8765
  538MOL0     H70985   3.534   2.061   3.307 -2.3208 -2.6573  1.4544
  538MOL0     H70986   3.429   1.985   3.497 -4.0947 -1.6484  1.7094
  538MOL0     H70987   3.322   1.980   3.360 -1.3938  1.6191 -2.2328
  538MOL0     H70988   3.313   2.184   3.585 -3.5706 -0.8112  1.6706
  538MOL0     H70989   3.230   2.214   3.432 -3.5612 -0.9288  0.1587
  538MOL0     H70990   3.180   2.003   3.635  0.2905 -0.5968 -0.3673
  538MOL0     H70991   3.105   2.006   3.467  0.0257  2.0011  0.8168
  538MOL0     H70992   3.008   2.214   3.506  0.8308  0.1385 -0.4437
  538MOL0     H70993   3.072   2.208   3.681 -1.7471 -1.3217  1.3875
  538MOL0     H70994   2.891   2.007   3.553  0.4324 -2.1554  1.6226
  538MOL0     H70995   2.955   1.998   3.711  0.1768  1.9971  2.2985
  538MOL0     H70996   2.779   2.228   3.616  0.8649  1.5543  1.6282
  538MOL0     H70997   2.835   2.216   3.776  2.6975  1.8180 -0.6710
  538MOL0     H70998   3.562   2.036   3.106 -2.3437 -0.0535 -1.6124
  538MOL0     H70999   3.716   1.980   2.937 -1.0366  0.3969 -1.4776
  538MOL0     H71000   3.838   1.917   2.487 -2.4736  4.2248 -3.1113
  538MOL0     H71001   4.014   1.865   2.319 -0.0564  0.2818  1.1027
  538MOL0     H71002   5.650   2.044   2.759  0.2214 -2.3468  0.9223
  538MOL0     H71003   5.848   2.007   2.914 -0.9110 -0.6006  0.7164
  538MOL0     H71004   6.057   2.217   3.312 -1.1622 -0.3063 -1.3491
  538MOL0     H71005   6.213   2.203   3.480 -0.0326  1.3094 -0.8354
  538MOL0     H71006   6.370   1.920   3.583  0.0066 -0.7697  0.3419
  538MOL0     H71007   6.325   2.093   3.627 -0.3769 -0.3592 -0.8949
  538MOL0     H71008   6.568   1.917   3.699  3.0819  1.5060  1.6784
  538MOL0     H71009   6.589   2.094   3.711 -0.5386 -0.2394  0.7699
  538MOL0     H71010   6.376   1.922   3.861  1.9476 -0.9499  0.0522
  538MOL0     H71011   6.404   2.095   3.879 -1.2778 -0.3387  1.1128
  538MOL0     H71012   6.510   1.975   4.058 -0.5839  1.6170 -0.1155
  538MOL0     H71013   6.612   1.874   3.945  2.3292  2.1741 -3.2444
  538MOL0     H71014   6.869   2.171   3.897  0.2096  1.7972  1.0842
  538MOL0     H71015   6.498   2.009   3.242 -0.3708  0.1690  0.7057
  538MOL0     H71016   6.333   2.023   3.043  4.6251  0.9766  0.4906
  539MOL0     O71017   5.926   9.206   8.149  0.1701 -0.3601  0.5982
  539MOL0     C71018   6.049   9.197   8.143  0.3668  0.5148  0.1894
  539MOL0     O71019   6.132   9.197   8.031  0.0417  0.5022  0.4839
  539MOL0     C71020   6.065   9.215   7.912 -0.4445  0.2856 -0.7194
  539MOL0     C71021   6.092   9.128   7.810  0.2100 -1.0904 -0.3174
  539MOL0     C71022   6.037   9.139   7.679 -0.1019 -0.2385 -0.4832
  539MOL0     C71023   5.964   9.250   7.645 -0.0513  0.3785 -0.7667
  539MOL0     O71024   5.927   9.255   7.511  0.1945  0.1387  0.3242
  539MOL0     C71025   5.865   9.378   7.464 -0.4952 -0.0709 -0.6633
  539MOL0     C71026   5.951   9.497   7.443  0.0521  0.6220 -0.5588
  539MOL0     C71027   5.867   9.613   7.376 -0.1126  0.0991  0.4375
  539MOL0     C71028   5.872   9.591   7.216 -0.0013  0.1704 -0.5826
  539MOL0     C71029   5.753   9.658   7.144 -0.1365 -0.2879  1.4306
  539MOL0     C71030   5.627   9.563   7.165 -0.6720 -0.3768  0.1876
  539MOL0     C71031   5.650   9.426   7.112  0.6325 -0.5109 -0.0221
  539MOL0     C71032   5.513   9.357   7.092 -0.8285 -0.3221  0.4293
  539MOL0     N71033   5.415   9.383   7.202  0.5570 -0.0006 -0.3676
  539MOL0     C71034   5.286   9.410   7.194  0.2333 -0.8801 -0.6814
  539MOL0     C71035   5.229   9.407   7.315 -0.1692  0.0533  0.1197
  539MOL0     C71036   5.085   9.432   7.335 -1.0564 -0.3919  0.0047
  539MOL0     C71037   5.001   9.301   7.345 -0.6710 -0.1999  0.4219
  539MOL0     C71038   5.055   9.192   7.441  0.7686  0.3817 -0.3361
  539MOL0     C71039   5.035   9.235   7.577 -0.9201 -0.6763 -0.3897
  539MOL0     O71040   4.899   9.237   7.610  0.5722 -0.1236 -0.6001
  539MOL0     C71041   4.850   9.259   7.736 -0.7701  0.6139 -0.2129
  539MOL0     C71042   4.713   9.252   7.759  0.1552 -0.4068  0.8399
  539MOL0     C71043   4.663   9.274   7.887  0.3618  0.8805  0.3426
  539MOL0     C71044   4.744   9.304   7.997  0.7811  0.0401  0.0188
  539MOL0     C71045   4.691   9.342   8.124 -0.4140  0.0762 -0.0102
  539MOL0     O71046   4.558   9.333   8.146 -0.3703  0.0645 -0.0199
  539MOL0     C71047   4.500   9.383   8.259  0.6717  0.8341 -0.1206
  539MOL0     C71048   4.465   9.291   8.365  0.3343 -0.1089  1.2546
  539MOL0     C71049   4.391   9.335   8.473  0.0810  0.2546  0.1287
  539MOL0     C71050   4.348   9.473   8.484  0.1167  0.4697 -0.4429
  539MOL0     O71051   4.262   9.500   8.594 -0.2277 -0.4535 -0.1416
  539MOL0     C71052   4.199   9.624   8.600 -0.3159  0.8528  0.4425
  539MOL0     C71053   4.095   9.630   8.714 -0.2148  0.5588  0.1890
  539MOL0     C71054   4.158   9.605   8.855  0.0411  0.0436  0.2282
  539MOL0     C71055   4.058   9.668   8.952  0.0383  0.5969  0.1661
  539MOL0     C71056   3.938   9.562   8.971  0.1214 -0.1928 -0.3992
  539MOL0     C71057   3.843   9.616   9.075 -0.1106  0.6018  0.1808
  539MOL0     C71058   3.704   9.567   9.064 -0.3054 -0.5831 -0.2109
  539MOL0     C71059   3.617   9.653   8.973 -0.7859  0.7842  1.1375
  539MOL0    Cl71060   3.555   9.801   9.041 -0.4352  0.1921  0.4226
  539MOL0     C71061   4.396   9.570   8.390  0.0426 -0.0326 -0.3995
  539MOL0     C71062   4.462   9.519   8.275  0.0810  0.0370 -0.4824
  539MOL0     O71063   4.770   9.390   8.199 -0.5395 -0.1392 -0.0580
  539MOL0     C71064   4.885   9.307   7.976  0.4517  0.1764  0.5037
  539MOL0     C71065   4.933   9.277   7.852  0.0997 -0.2545  0.1430
  539MOL0     N71066   5.335   9.385   7.407 -0.2637  0.1659 -0.6883
  539MOL0     N71067   5.440   9.362   7.338 -0.2931 -0.6692  0.6600
  539MOL0     C71068   5.926   9.340   7.748  0.4715  0.5248  0.1040
  539MOL0     C71069   5.976   9.321   7.881  0.1586 -0.6584  1.0879
  539MOL0     C71070   6.110   9.157   8.283 -0.4947 -0.3909 -1.5322
  539MOL0     C71071   6.040   9.142   8.402  1.0750 -0.4760  0.1356
  539MOL0     C71072   6.099   9.126   8.525  1.1788 -0.2091 -0.4049
  539MOL0     C71073   6.235   9.095   8.528 -0.2068  0.7931  0.6400
  539MOL0     O71074   6.281   9.060   8.655 -0.0511 -0.8099  0.5257
  539MOL0     C71075   6.420   9.056   8.697  0.0619 -0.2862 -0.8357
  539MOL0     C71076   6.489   9.199   8.690  0.1926 -0.0924 -0.3090
  539MOL0     C71077   6.628   9.178   8.768  0.2224 -0.3668  0.7900
  539MOL0     C71078   6.718   9.294   8.718  0.6648  0.3460 -0.2931
  539MOL0     C71079   6.857   9.291   8.767 -0.1957 -0.8471  0.3265
  539MOL0     C71080   6.965   9.301   8.832  0.0479 -0.4856 -0.0364
  539MOL0     C71081   6.313   9.083   8.417  0.2321 -0.1898 -0.6377
  539MOL0     C71082   6.251   9.123   8.296  0.9341  0.5769 -0.5744
  539MOL0     H71083   6.158   9.050   7.845 -0.0688 -1.7317 -1.1810
  539MOL0     H71084   6.049   9.057   7.609 -4.6573 -1.4853 -0.1203
  539MOL0     H71085   5.785   9.394   7.537 -1.0015 -0.2992 -1.1673
  539MOL0     H71086   5.813   9.358   7.370 -0.0505 -0.7479 -0.7735
  539MOL0     H71087   6.043   9.464   7.395 -1.3974 -1.8120 -1.8586
  539MOL0     H71088   5.988   9.526   7.542  1.6244 -3.7150  0.3219
  539MOL0     H71089   5.922   9.706   7.393  0.5099 -0.3810  1.1201
  539MOL0     H71090   5.766   9.619   7.416 -0.2417 -1.4447  0.4081
  539MOL0     H71091   5.967   9.630   7.180 -0.9289  1.8490 -1.3276
  539MOL0     H71092   5.886   9.482   7.210  0.2739 -0.0685  2.6208
  539MOL0     H71093   5.781   9.674   7.039  1.1313 -0.2037  1.7572
  539MOL0     H71094   5.731   9.756   7.187  2.0984  2.1369 -2.3540
  539MOL0     H71095   5.542   9.599   7.106 -1.0799  0.4378  1.2250
  539MOL0     H71096   5.598   9.564   7.271 -1.8544  1.1794 -0.1082
  539MOL0     H71097   5.696   9.432   7.013 -1.4121  1.4708 -0.9370
  539MOL0     H71098   5.720   9.366   7.170 -0.3680 -0.9324  0.7815
  539MOL0     H71099   5.543   9.252   7.084 -0.2043 -0.1893  0.9053
  539MOL0     H71100   5.466   9.375   6.995 -2.6278 -1.8843  0.9650
  539MOL0     H71101   5.221   9.440   7.112 -1.4009 -1.0480  0.5001
  539MOL0     H71102   5.054   9.505   7.259 -0.5643  0.2162  0.3785
  539MOL0     H71103   5.083   9.481   7.433  2.0032 -0.3062  0.1075
  539MOL0     H71104   4.990   9.262   7.243 -0.0966  2.3058 -0.6778
  539MOL0     H71105   4.900   9.331   7.374 -1.5928 -0.4825 -2.2492
  539MOL0     H71106   4.995   9.102   7.426  0.2472  0.5422  0.6977
  539MOL0     H71107   5.159   9.160   7.428 -0.1366 -3.5057  0.7923
  539MOL0     H71108   5.075   9.336   7.591  0.7809 -1.1413 -1.5737
  539MOL0     H71109   5.092   9.182   7.653 -3.3981 -0.2575  1.8829
  539MOL0     H71110   4.645   9.246   7.674  1.3866  0.1566 -0.2119
  539MOL0     H71111   4.556   9.256   7.892  0.5742 -0.1387  2.1049
  539MOL0     H71112   4.498   9.189   8.349 -0.6234 -0.1132 -1.0582
  539MOL0     H71113   4.350   9.278   8.555  1.5426 -0.5266  0.3568
  539MOL0     H71114   4.133   9.648   8.517 -2.1830 -0.9348  1.3183
  539MOL0     H71115   4.276   9.698   8.621 -0.7147  1.3264  0.2526
  539MOL0     H71116   4.015   9.556   8.699 -0.9197  1.1770  0.7878
  539MOL0     H71117   4.064   9.734   8.721 -0.5664  0.3473  4.7482
  539MOL0     H71118   4.251   9.662   8.856 -1.4601  2.6972 -0.3125
  539MOL0     H71119   4.180   9.499   8.868 -2.6471 -0.6679 -0.3014
  539MOL0     H71120   4.109   9.672   9.049 -1.9682  0.0202  1.3233
  539MOL0     H71121   4.029   9.771   8.929 -0.4555  0.6528  0.9512
  539MOL0     H71122   3.982   9.465   8.995  2.6720  0.9648 -0.1179
  539MOL0     H71123   3.880   9.560   8.878 -3.2527  2.8446  1.3858
  539MOL0     H71124   3.832   9.723   9.056 -0.4437  0.7773  1.3209
  539MOL0     H71125   3.877   9.597   9.177 -0.1346  0.8490  0.2345
  539MOL0     H71126   3.708   9.470   9.013 -1.4561  0.0309 -1.5350
  539MOL0     H71127   3.650   9.557   9.159 -0.7039  3.8451  0.2256
  539MOL0     H71128   3.526   9.592   8.962  0.4426 -0.8670 -0.6383
  539MOL0     H71129   3.656   9.677   8.874 -0.2524  1.2271  1.4532
  539MOL0     H71130   4.362   9.670   8.412 -4.7204 -1.4914 -0.1067
  539MOL0     H71131   4.495   9.577   8.189 -0.3553 -0.8076 -1.2470
  539MOL0     H71132   4.958   9.345   8.047 -1.3113  5.0410  0.0951
  539MOL0     H71133   5.040   9.273   7.838 -0.0147  0.8078 -1.2119
  539MOL0     H71134   5.856   9.420   7.728 -2.8465 -1.5536  2.3539
  539MOL0     H71135   5.945   9.392   7.957 -3.7265  2.5569 -2.9831
  539MOL0     H71136   5.933   9.138   8.385  1.0810 -1.7862  0.3322
  539MOL0     H71137   6.059   9.122   8.626  1.1336  1.0091 -0.3553
  539MOL0     H71138   6.490   8.993   8.643  2.6300  1.8116 -0.1872
  539MOL0     H71139   6.423   9.008   8.795  0.7990 -1.6721 -1.5135
  539MOL0     H71140   6.512   9.234   8.589  1.2839 -3.3790 -1.3346
  539MOL0     H71141   6.430   9.275   8.742 -0.9824 -0.9247 -0.3810
  539MOL0     H71142   6.678   9.081   8.764  0.8651 -0.0374  0.6368
  539MOL0     H71143   6.612   9.188   8.876 -0.3347  0.0752  0.6738
  539MOL0     H71144   6.726   9.292   8.609 -1.4106 -3.5593 -0.5338
  539MOL0     H71145   6.670   9.389   8.742 -0.0067 -0.0739  0.0346
  539MOL0     H71146   7.063   9.312   8.875  1.7048 -2.0748 -3.0618
  539MOL0     H71147   6.419   9.061   8.419  0.3061 -0.0199 -1.9083
  539MOL0     H71148   6.299   9.107   8.200 -1.3760  0.6783 -1.8190
  540MOL0     O71149   0.595  11.078   5.881  0.4399  0.6142  0.6782
  540MOL0     C71150   0.561  10.963   5.869 -0.4099 -0.5693 -1.0056
  540MOL0     O71151   0.634  10.853   5.915 -0.0662  0.8283 -0.2803
  540MOL0     C71152   0.765  10.890   5.924  0.6906  0.3947  1.7962
  540MOL0     C71153   0.832  10.921   6.040  0.7557 -0.1827 -0.7690
  540MOL0     C71154   0.962  10.954   6.045  0.3034  0.1779 -0.0380
  540MOL0     C71155   1.042  10.948   5.929 -0.1962  0.2053  0.9905
  540MOL0     O71156   1.165  11.003   5.925 -0.5218  0.7193 -0.4495
  540MOL0     C71157   1.266  10.950   5.846  0.2699  0.4708 -0.1486
  540MOL0     C71158   1.391  11.024   5.875  0.4759  0.4569  0.3874
  540MOL0     C71159   1.517  10.957   5.815  0.6076 -0.5225 -0.6086
  540MOL0     C71160   1.622  11.073   5.801  0.3751 -1.0337 -0.0168
  540MOL0     C71161   1.726  11.064   5.921  0.4066 -0.6215  0.0187
  540MOL0     C71162   1.822  11.171   5.884  0.2062  0.2467 -0.3903
  540MOL0     C71163   1.955  11.154   5.962  0.2336 -0.5877 -0.7667
  540MOL0     C71164   2.052  11.047   5.889 -0.6861 -0.6477 -0.2429
  540MOL0     N71165   2.159  11.110   5.806  0.2696 -0.7738 -0.4105
  540MOL0     C71166   2.159  11.135   5.671  0.4130 -0.3103 -0.2684
  540MOL0     C71167   2.274  11.200   5.644 -0.2015 -1.0927  0.2392
  540MOL0     C71168   2.330  11.231   5.507  0.3185 -0.5481  0.3252
  540MOL0     C71169   2.411  11.112   5.459  0.7349  0.4951 -0.7952
  540MOL0     C71170   2.542  11.089   5.539  0.0108 -0.1099  0.1766
  540MOL0     C71171   2.637  11.210   5.524  0.0944 -1.0350 -0.3715
  540MOL0     O71172   2.769  11.159   5.550  0.7065 -0.4224 -0.2477
  540MOL0     C71173   2.814  11.170   5.677 -0.9384  0.2291 -0.5739
  540MOL0     C71174   2.739  11.196   5.796  0.2340 -0.7043 -0.3069
  540MOL0     C71175   2.800  11.210   5.920  0.2333  0.1534 -0.0153
  540MOL0     C71176   2.934  11.170   5.944  0.2865 -0.5379  0.1470
  540MOL0     C71177   2.990  11.162   6.082 -0.0005  0.7317  0.1065
  540MOL0     O71178   3.118  11.121   6.110  0.2929 -0.2241 -0.8429
  540MOL0     C71179   3.152  11.105   6.245  0.0546  0.0445  0.4961
  540MOL0     C71180   3.274  11.148   6.286 -0.8326 -0.5890  0.7245
  540MOL0     C71181   3.323  11.123   6.412 -0.4377  0.3798 -0.0603
  540MOL0     C71182   3.256  11.035   6.494  0.9021 -0.0660 -0.1265
  540MOL0     O71183   3.303  10.976   6.601  0.2586  0.2958  0.0878
  540MOL0     C71184   3.443  10.953   6.620  0.2380 -1.5425 -1.0919
  540MOL0     C71185   3.486  10.891   6.755  0.3422  0.4711  0.1199
  540MOL0     C71186   3.467  10.741   6.736  0.8633  0.1076  0.1922
  540MOL0     C71187   3.540  10.679   6.627 -0.1620  0.6591 -0.2941
  540MOL0     C71188   3.688  10.705   6.607 -0.6481 -0.5989  0.1003
  540MOL0     C71189   3.737  10.611   6.489  0.9071  0.0457  0.1093
  540MOL0     C71190   3.885  10.616   6.462 -1.7645  0.4195  0.9814
  540MOL0     C71191   3.920  10.548   6.328 -0.7413  0.4703  0.3275
  540MOL0    Cl71192   3.907  10.365   6.355  0.3318 -0.7863 -0.5232
  540MOL0     C71193   3.122  11.009   6.467 -0.4663  0.5113 -0.3253
  540MOL0     C71194   3.069  11.045   6.342  0.2446 -0.1211 -0.0150
  540MOL0     O71195   2.916  11.197   6.167 -0.2071  0.1383 -1.0123
  540MOL0     C71196   3.001  11.120   5.833 -0.0649 -0.2090  0.6100
  540MOL0     C71197   2.945  11.131   5.696 -0.6546  0.3590 -0.5255
  540MOL0     N71198   2.345  11.208   5.761 -0.5483  0.0597 -0.2442
  540MOL0     N71199   2.281  11.151   5.855 -1.5298  0.3157 -0.6154
  540MOL0     C71200   0.985  10.907   5.808  0.2613  1.2110 -0.1287
  540MOL0     C71201   0.847  10.892   5.808 -0.2944  0.4038  0.7037
  540MOL0     C71202   0.428  10.931   5.824  0.8765 -0.8064  0.3259
  540MOL0     C71203   0.362  10.814   5.878  0.2382  0.2513  0.2746
  540MOL0     C71204   0.228  10.789   5.831  0.4773  0.5095 -0.5988
  540MOL0     C71205   0.154  10.884   5.764  0.2827  0.1554  0.5412
  540MOL0     O71206   0.025  10.836   5.744 -0.2944  0.2698  0.4581
  540MOL0     C71207  -0.053  10.921   5.653  0.6068  0.0321  0.3177
  540MOL0     C71208  -0.201  10.870   5.654 -0.2727  0.3088  0.5040
  540MOL0     C71209  -0.205  10.729   5.597 -0.1905  0.0689 -0.6993
  540MOL0     C71210  -0.343  10.726   5.529  0.5234  0.6157  0.0972
  540MOL0     C71211  -0.389  10.596   5.472 -0.5474  0.1265 -0.4559
  540MOL0     C71212  -0.428  10.485   5.455 -1.1513 -0.0815  0.5616
  540MOL0     C71213   0.223  10.999   5.725 -0.6389 -0.8719  0.4305
  540MOL0     C71214   0.357  11.028   5.752  0.6727  0.3289  0.1295
  540MOL0     H71215   0.771  10.932   6.129  0.3229  3.9333 -1.3715
  540MOL0     H71216   1.011  11.001   6.130  0.6026  0.9880 -0.6446
  540MOL0     H71217   1.241  10.956   5.739 -3.4094  0.1876  0.5651
  540MOL0     H71218   1.280  10.849   5.886 -0.2199 -0.6909 -2.6815
  540MOL0     H71219   1.410  11.040   5.982  5.4392  1.0357 -0.3368
  540MOL0     H71220   1.378  11.128   5.843  1.2460  0.6322  0.6227
  540MOL0     H71221   1.505  10.908   5.719  0.9934  0.5575 -1.2295
  540MOL0     H71222   1.546  10.889   5.896 -2.4936  0.4324  1.5222
  540MOL0     H71223   1.682  11.060   5.710  1.8717 -2.5607  1.1291
  540MOL0     H71224   1.575  11.172   5.801  0.0292 -1.0549  3.6088
  540MOL0     H71225   1.776  10.967   5.924  3.1757  0.6826  3.2192
  540MOL0     H71226   1.677  11.080   6.018  0.5385  1.8572 -0.2550
  540MOL0     H71227   1.797  11.273   5.915  0.7944  0.6343 -1.1462
  540MOL0     H71228   1.838  11.169   5.776 -0.8105  1.5313 -0.5917
  540MOL0     H71229   2.013  11.247   5.961 -0.5489 -0.0884 -0.3031
  540MOL0     H71230   1.939  11.123   6.065  1.6914  0.1400 -0.2975
  540MOL0     H71231   1.987  10.996   5.817  0.8051 -1.3742 -1.1214
  540MOL0     H71232   2.104  10.981   5.959 -2.1623 -2.4139 -0.7349
  540MOL0     H71233   2.091  11.098   5.595 -0.5336  4.4046 -2.0099
  540MOL0     H71234   2.368  11.333   5.519 -3.3727  0.7209  3.3470
  540MOL0     H71235   2.241  11.246   5.445  0.1121  1.3574  1.0041
  540MOL0     H71236   2.432  11.128   5.353  1.6120 -2.2136 -1.1016
  540MOL0     H71237   2.341  11.029   5.464  0.1453  1.0319  0.3025
  540MOL0     H71238   2.513  11.067   5.642 -0.3318  2.8741  0.8089
  540MOL0     H71239   2.582  10.998   5.493  1.7348 -1.3384  3.7479
  540MOL0     H71240   2.608  11.296   5.586  1.9386 -0.5932 -0.0420
  540MOL0     H71241   2.638  11.247   5.421  0.3737 -1.8384 -0.6631
  540MOL0     H71242   2.636  11.231   5.792  1.0133  2.5222  3.1070
  540MOL0     H71243   2.741  11.245   6.004 -1.7569 -1.3930 -0.6907
  540MOL0     H71244   3.327  11.218   6.222 -0.7719 -1.6594 -0.4172
  540MOL0     H71245   3.422  11.155   6.443 -0.1338 -2.0728  1.8180
  540MOL0     H71246   3.487  11.054   6.621  1.9386 -2.2459 -1.3067
  540MOL0     H71247   3.478  10.907   6.527 -3.1245 -0.9320 -2.8172
  540MOL0     H71248   3.440  10.925   6.848  1.7157  1.0854  0.6028
  540MOL0     H71249   3.593  10.915   6.754  1.7161 -4.5044  0.0260
  540MOL0     H71250   3.361  10.717   6.724  0.8710 -0.1897  0.6684
  540MOL0     H71251   3.491  10.687   6.829  1.4029  0.0446  0.0197
  540MOL0     H71252   3.523  10.573   6.647 -0.5815  0.7280 -0.2711
  540MOL0     H71253   3.484  10.690   6.533  0.9776  0.6465 -0.9989
  540MOL0     H71254   3.741  10.681   6.700 -2.0278  1.6075  1.5471
  540MOL0     H71255   3.707  10.807   6.574  2.3117 -2.0818 -3.5260
  540MOL0     H71256   3.685  10.641   6.398 -0.9639  1.8248  1.6544
  540MOL0     H71257   3.714  10.507   6.513 -2.8354  1.2736  2.9144
  540MOL0     H71258   3.920  10.720   6.465  0.0338 -0.1844  2.4744
  540MOL0     H71259   3.926  10.573   6.553 -4.9347 -1.5966  1.6110
  540MOL0     H71260   4.023  10.575   6.302  0.0665  0.6278  3.3521
  540MOL0     H71261   3.850  10.583   6.252 -1.2804  1.0312  1.0748
  540MOL0     H71262   3.065  10.954   6.541  1.2434 -0.0806  0.5846
  540MOL0     H71263   2.971  11.012   6.307  0.5856 -0.0039 -1.1334
  540MOL0     H71264   3.099  11.073   5.842  0.0834 -0.6792 -2.3658
  540MOL0     H71265   3.001  11.099   5.609 -1.2959 -1.0254 -0.4709
  540MOL0     H71266   1.047  10.890   5.720  1.7145 -4.0096  1.5133
  540MOL0     H71267   0.785  10.872   5.721 -1.5969  2.1521  1.1771
  540MOL0     H71268   0.418  10.739   5.933 -1.6626 -1.2288  0.3037
  540MOL0     H71269   0.181  10.704   5.879  0.2614  0.7375 -0.4012
  540MOL0     H71270  -0.002  10.924   5.556  4.1860  0.7892  2.0869
  540MOL0     H71271  -0.052  11.024   5.689  0.6039  0.5289 -1.0503
  540MOL0     H71272  -0.243  10.877   5.754 -1.8019  0.1233 -0.0893
  540MOL0     H71273  -0.256  10.933   5.583 -1.0981 -2.2941 -1.3331
  540MOL0     H71274  -0.205  10.656   5.678 -0.1677 -0.6901 -1.3668
  540MOL0     H71275  -0.122  10.710   5.528 -2.0835  1.9613 -3.7613
  540MOL0     H71276  -0.410  10.759   5.608 -1.0322 -0.5862 -0.6675
  540MOL0     H71277  -0.344  10.798   5.446 -0.4633 -0.7522 -1.1361
  540MOL0     H71278  -0.459  10.383   5.445 -1.7428  0.2201 -1.0568
  540MOL0     H71279   0.167  11.077   5.674  0.4292  0.5908  1.4114
  540MOL0     H71280   0.382  11.133   5.739 -3.8383  1.5623 -0.1801
  541MOL0     O71281   4.245   7.635   2.466 -0.2477  0.3188  0.9256
  541MOL0     C71282   4.342   7.703   2.497  0.4795  0.8734  0.5870
  541MOL0     O71283   4.347   7.789   2.603  0.1022  1.2769  0.2612
  541MOL0     C71284   4.245   7.800   2.697  0.0097 -0.3958 -0.5855
  541MOL0     C71285   4.289   7.817   2.827  0.9737  0.0154 -0.0126
  541MOL0     C71286   4.187   7.819   2.929  0.4506 -0.0653  0.3138
  541MOL0     C71287   4.048   7.814   2.900  0.2187  0.4811  0.0132
  541MOL0     O71288   3.950   7.819   3.002  0.2393  0.5773  0.2479
  541MOL0     C71289   3.970   7.916   3.107  0.3595 -0.1417 -0.4230
  541MOL0     C71290   3.849   7.948   3.193  0.1072  0.1522 -0.4436
  541MOL0     C71291   3.718   7.965   3.122  0.1200 -0.1499  0.5205
  541MOL0     C71292   3.608   7.978   3.224 -0.6731 -0.4087  0.3622
  541MOL0     C71293   3.487   8.054   3.175  0.7640  0.1326  0.2422
  541MOL0     C71294   3.410   7.987   3.058 -0.7995  0.7470  0.4704
  541MOL0     C71295   3.263   8.039   3.070 -1.0859  0.3308 -0.0430
  541MOL0     C71296   3.182   7.995   2.947 -0.6579  0.4942  0.3876
  541MOL0     N71297   3.049   7.941   2.975  0.4541 -0.0243 -0.5279
  541MOL0     C71298   3.023   7.818   3.007  0.2792  0.5353 -0.5088
  541MOL0     C71299   2.905   7.795   2.972  0.6353  0.1838 -0.0546
  541MOL0     C71300   2.827   7.665   2.978  0.1605  0.0958 -0.3691
  541MOL0     C71301   2.914   7.541   2.954 -0.6646  0.7127  0.1989
  541MOL0     C71302   2.846   7.411   3.000  0.4685 -0.2248  0.9000
  541MOL0     C71303   2.935   7.298   2.976 -0.1234  0.1515  0.3238
  541MOL0     O71304   2.900   7.215   2.858 -0.6788  0.2179  0.0403
  541MOL0     C71305   2.797   7.127   2.863  0.0146  0.0539  0.6766
  541MOL0     C71306   2.683   7.151   2.782  0.0693 -0.5273 -0.3598
  541MOL0     C71307   2.571   7.074   2.797 -0.4530  0.0990  0.7280
  541MOL0     C71308   2.570   6.965   2.890  0.0485 -1.2389 -0.9802
  541MOL0     C71309   2.450   6.883   2.911 -0.1801 -0.7390  0.4720
  541MOL0     O71310   2.329   6.929   2.851 -0.0939 -0.6595 -0.3599
  541MOL0     C71311   2.202   6.884   2.864 -0.0511  0.1629 -0.1353
  541MOL0     C71312   2.108   6.961   2.803  0.6748 -0.1821 -0.1826
  541MOL0     C71313   1.970   6.932   2.803  0.7839  0.0541 -0.2906
  541MOL0     C71314   1.931   6.824   2.877 -0.4769  0.9630  0.5424
  541MOL0     O71315   1.787   6.812   2.890 -0.2863 -1.0257 -0.4487
  541MOL0     C71316   1.737   6.761   3.014 -0.1682 -0.0539 -0.0262
  541MOL0     C71317   1.584   6.773   3.014 -0.8524  0.4578 -0.3178
  541MOL0     C71318   1.513   6.716   3.142 -0.9684  0.6455  0.1473
  541MOL0     C71319   1.375   6.771   3.157  0.7419 -0.2817 -0.5917
  541MOL0     C71320   1.290   6.724   3.036  0.2850  0.3454  0.2999
  541MOL0     C71321   1.153   6.783   3.018  0.5126 -0.3914 -0.3069
  541MOL0     C71322   1.074   6.693   2.917 -0.3518  0.6831 -0.2631
  541MOL0     C71323   1.070   6.751   2.774 -0.5473  1.0508  0.5753
  541MOL0    Cl71324   1.236   6.791   2.705  0.4625 -0.4980  0.0858
  541MOL0     C71325   2.025   6.742   2.939  0.2820  0.3431  1.0373
  541MOL0     C71326   2.161   6.766   2.937  0.2609  0.2437 -0.0413
  541MOL0     O71327   2.466   6.789   2.981 -0.1502  0.1987 -1.0000
  541MOL0     C71328   2.675   6.955   2.974 -0.2533 -0.2221 -0.3018
  541MOL0     C71329   2.795   7.033   2.955  0.3783  0.3734 -0.2323
  541MOL0     N71330   2.849   7.911   2.922  0.0233  0.1285 -0.2875
  541MOL0     N71331   2.940   8.000   2.910  0.2027 -0.2265  0.1936
  541MOL0     C71332   4.001   7.808   2.773 -0.9318  0.0287 -0.3144
  541MOL0     C71333   4.102   7.792   2.669  0.1493 -0.1096 -0.2362
  541MOL0     C71334   4.461   7.684   2.406  0.5529 -0.0812 -1.3918
  541MOL0     C71335   4.440   7.667   2.264 -0.2263 -0.2451  0.0660
  541MOL0     C71336   4.554   7.640   2.189 -0.8375 -0.3722 -0.1706
  541MOL0     C71337   4.673   7.632   2.247  0.2758 -0.0178  0.2450
  541MOL0     O71338   4.775   7.592   2.153 -0.6721  0.1437 -0.3473
  541MOL0     C71339   4.912   7.603   2.203  0.5550 -0.7682  0.4095
  541MOL0     C71340   4.974   7.741   2.203  0.4053 -0.4843  0.3761
  541MOL0     C71341   4.933   7.825   2.073 -0.0002  0.0967 -0.8609
  541MOL0     C71342   4.941   7.764   1.931  1.3380  0.1374  0.1344
  541MOL0     C71343   4.896   7.860   1.830 -0.0799  0.6146 -0.0021
  541MOL0     C71344   4.867   7.927   1.734  0.7220  1.1752 -0.8669
  541MOL0     C71345   4.691   7.650   2.387  0.2836 -0.0602 -0.1316
  541MOL0     C71346   4.586   7.686   2.466  0.1504 -1.0599  0.1017
  541MOL0     H71347   4.393   7.824   2.855  0.2932  1.4955  2.4539
  541MOL0     H71348   4.224   7.815   3.031  3.7655  1.6250 -0.6889
  541MOL0     H71349   3.995   8.009   3.055 -1.5132  1.8982  2.0553
  541MOL0     H71350   4.053   7.872   3.163 -1.4206 -2.5375  0.4974
  541MOL0     H71351   3.867   8.049   3.230 -2.6559  0.4570  0.3328
  541MOL0     H71352   3.835   7.874   3.273  2.0559  0.6177  0.3804
  541MOL0     H71353   3.702   7.885   3.050 -2.7220 -0.7044  1.6476
  541MOL0     H71354   3.710   8.055   3.060 -3.5792 -1.7459 -1.6358
  541MOL0     H71355   3.576   7.879   3.256  0.2041 -0.7416  0.2543
  541MOL0     H71356   3.655   8.037   3.304 -2.3317  0.9542  0.3866
  541MOL0     H71357   3.518   8.152   3.137  1.7864  0.4037  1.7037
  541MOL0     H71358   3.419   8.075   3.258  0.5474  0.8722 -0.1196
  541MOL0     H71359   3.413   7.878   3.061 -0.8257  0.6678 -1.1596
  541MOL0     H71360   3.454   8.014   2.961 -1.3663  0.9308  0.2581
  541MOL0     H71361   3.210   7.990   3.152  1.4725 -0.6226  1.1470
  541MOL0     H71362   3.263   8.148   3.076 -0.2083  0.4666 -1.7599
  541MOL0     H71363   3.232   7.910   2.899 -2.4244 -1.0249  1.1207
  541MOL0     H71364   3.172   8.072   2.871 -0.7823  0.6915  0.6046
  541MOL0     H71365   3.085   7.741   3.053 -0.5488  1.5371  2.4823
  541MOL0     H71366   2.748   7.671   2.903  0.2116 -1.8977 -0.6517
  541MOL0     H71367   2.770   7.660   3.071 -0.8855 -0.7427 -1.0415
  541MOL0     H71368   3.005   7.542   3.014 -0.1741 -2.6855 -0.2829
  541MOL0     H71369   2.949   7.524   2.852 -0.4334 -1.9349  0.6451
  541MOL0     H71370   2.840   7.421   3.108 -1.4706  0.6562  0.7487
  541MOL0     H71371   2.742   7.396   2.969  0.7968 -0.8701  0.0663
  541MOL0     H71372   2.941   7.237   3.067  0.7593  2.8022  2.1733
  541MOL0     H71373   3.034   7.342   2.962 -1.2503  2.3177 -1.3558
  541MOL0     H71374   2.687   7.241   2.721 -1.9319 -0.4437 -0.4254
  541MOL0     H71375   2.475   7.103   2.755 -2.1567 -0.7412  3.6549
  541MOL0     H71376   2.152   7.042   2.746  4.0631 -1.8385 -0.2362
  541MOL0     H71377   1.909   6.990   2.734 -0.2109  0.5226  0.9549
  541MOL0     H71378   1.790   6.802   3.101 -0.5983 -1.7277  1.0638
  541MOL0     H71379   1.756   6.653   3.019 -2.8348 -0.6368 -1.0675
  541MOL0     H71380   1.565   6.722   2.918  2.1535 -0.5213 -0.4817
  541MOL0     H71381   1.556   6.878   3.006 -2.2005  0.0023 -2.2093
  541MOL0     H71382   1.573   6.751   3.226  2.2704 -2.8229 -0.4791
  541MOL0     H71383   1.522   6.608   3.156 -1.7698  0.4788 -0.5408
  541MOL0     H71384   1.316   6.743   3.245  0.6939  0.8861 -0.2425
  541MOL0     H71385   1.380   6.880   3.158  1.8627 -0.2035 -3.8405
  541MOL0     H71386   1.283   6.616   3.050 -1.7692  0.5472  1.0961
  541MOL0     H71387   1.340   6.747   2.941  2.6429 -1.6502  0.9502
  541MOL0     H71388   1.155   6.882   2.972 -0.7476 -0.7209 -1.1090
  541MOL0     H71389   1.091   6.776   3.108  0.5269 -3.1174 -0.4037
  541MOL0     H71390   1.097   6.586   2.925 -1.0938  0.4207 -1.4266
  541MOL0     H71391   0.967   6.698   2.936 -0.5299 -2.0503 -0.1234
  541MOL0     H71392   1.022   6.849   2.765  2.3847  2.5785  0.6648
  541MOL0     H71393   1.011   6.690   2.705  1.3298  0.7784 -0.8484
  541MOL0     H71394   1.997   6.663   3.007 -0.6622 -0.2315  0.0264
  541MOL0     H71395   2.231   6.693   2.977 -1.5273 -1.4354  0.1600
  541MOL0     H71396   2.661   6.877   3.048 -0.8176  0.6255  0.5188
  541MOL0     H71397   2.881   7.024   3.019 -1.1312  2.2397  2.2094
  541MOL0     H71398   3.895   7.799   2.753 -1.0135  0.5107 -0.1149
  541MOL0     H71399   4.077   7.781   2.564  2.5642  4.0637 -1.4966
  541MOL0     H71400   4.345   7.696   2.220  0.1607  0.3675 -0.3767
  541MOL0     H71401   4.557   7.640   2.081 -0.0087  0.2154 -0.1567
  541MOL0     H71402   4.969   7.540   2.134  3.2781 -0.4174  2.1983
  541MOL0     H71403   4.939   7.556   2.298  1.9234  0.9575  0.9306
  541MOL0     H71404   4.933   7.796   2.288 -1.0794  3.1299 -2.4124
  541MOL0     H71405   5.083   7.747   2.212  0.3572  3.8298  0.2754
  541MOL0     H71406   5.003   7.909   2.074 -0.5912  0.6130  1.1600
  541MOL0     H71407   4.837   7.876   2.091 -0.9688 -1.4318 -1.4702
  541MOL0     H71408   5.043   7.728   1.916  1.0483 -0.6432 -0.0198
  541MOL0     H71409   4.874   7.679   1.919  0.8765  0.6815 -1.3387
  541MOL0     H71410   4.839   7.992   1.653 -0.0374  2.9016  0.7102
  541MOL0     H71411   4.788   7.630   2.431  1.3242  0.9308 -1.8689
  541MOL0     H71412   4.612   7.705   2.570  2.6863 -0.5494 -0.5711
  542MOL0     O71413   4.621   6.921   7.739  0.2604 -0.1990 -0.9032
  542MOL0     C71414   4.642   6.980   7.847 -0.5372  1.0525 -0.0901
  542MOL0     O71415   4.558   6.975   7.958 -0.6147 -0.2975  0.2248
  542MOL0     C71416   4.447   6.904   7.943 -0.6666 -0.1110  0.4246
  542MOL0     C71417   4.328   6.971   7.966 -0.0286 -0.1008  0.2989
  542MOL0     C71418   4.209   6.893   7.964  0.4918 -0.1027 -0.0869
  542MOL0     C71419   4.213   6.758   7.941 -0.5710 -0.0470 -0.7774
  542MOL0     O71420   4.093   6.685   7.924 -0.4648  0.3767  0.1506
  542MOL0     C71421   3.962   6.737   7.907 -0.6843 -0.4830 -0.3426
  542MOL0     C71422   3.902   6.772   8.044  0.3510 -0.4833 -0.4411
  542MOL0     C71423   3.749   6.777   8.042 -0.8494 -0.7782  0.2225
  542MOL0     C71424   3.669   6.790   8.171 -0.9203 -0.6918 -0.6210
  542MOL0     C71425   3.520   6.768   8.136 -0.9570 -0.2996 -0.3055
  542MOL0     C71426   3.436   6.794   8.259 -0.1465 -0.6326  0.1279
  542MOL0     C71427   3.290   6.752   8.239  0.7517 -0.3980 -0.1509
  542MOL0     C71428   3.209   6.773   8.375  0.3623 -0.3867  0.3277
  542MOL0     N71429   3.069   6.735   8.365  0.6626  0.0065  0.3424
  542MOL0     C71430   3.027   6.611   8.336  1.0755 -0.3876 -0.2255
  542MOL0     C71431   2.895   6.609   8.333  0.1604  0.3419  0.2023
  542MOL0     C71432   2.794   6.496   8.303  0.1763 -0.3450 -0.5376
  542MOL0     C71433   2.824   6.426   8.173 -0.0137  0.6008 -0.1845
  542MOL0     C71434   2.735   6.307   8.160 -0.4253  0.5149  0.6466
  542MOL0     C71435   2.721   6.285   8.007  0.4528 -0.2363 -0.0470
  542MOL0     O71436   2.631   6.377   7.932 -1.1574  0.1520  0.2074
  542MOL0     C71437   2.499   6.326   7.929 -0.3139 -0.0632 -0.4983
  542MOL0     C71438   2.444   6.207   7.984 -0.6580 -0.6214  0.1608
  542MOL0     C71439   2.311   6.166   7.959 -0.0250  1.0175  0.4096
  542MOL0     C71440   2.226   6.252   7.895  0.0139 -0.0840  0.0097
  542MOL0     C71441   2.088   6.224   7.873  0.7190  0.3464 -0.5778
  542MOL0     O71442   2.032   6.124   7.961  0.1954 -0.8437 -0.4481
  542MOL0     C71443   1.902   6.098   7.933 -0.0334 -0.6465 -0.4451
  542MOL0     C71444   1.798   6.121   8.028  0.2712 -0.7156  1.5822
  542MOL0     C71445   1.664   6.094   7.995 -0.7483 -0.5965 -0.3000
  542MOL0     C71446   1.626   6.037   7.876  0.2381  0.1101 -0.0833
  542MOL0     O71447   1.488   6.015   7.848  0.2601  0.4238  0.4007
  542MOL0     C71448   1.460   5.930   7.730  0.5608 -0.2690  1.3813
  542MOL0     C71449   1.321   5.864   7.760  1.0767  0.4688 -0.5509
  542MOL0     C71450   1.206   5.959   7.785  0.9100  0.8842  0.2413
  542MOL0     C71451   1.082   5.879   7.837  0.1471  0.6320 -0.1773
  542MOL0     C71452   0.950   5.969   7.835 -0.2037  0.3231 -0.2008
  542MOL0     C71453   0.827   5.932   7.934  0.4623 -0.4258  0.0890
  542MOL0     C71454   0.781   5.782   7.934  0.0536  0.4435  0.8372
  542MOL0     C71455   0.739   5.735   7.792 -0.2965 -0.4452 -1.0831
  542MOL0    Cl71456   0.695   5.569   7.795 -0.2948 -0.2309 -0.7272
  542MOL0     C71457   1.727   6.008   7.784  0.1250 -0.2929  0.2028
  542MOL0     C71458   1.858   6.043   7.807 -0.3461  0.2639 -0.1701
  542MOL0     O71459   2.032   6.283   7.775  0.4429  0.8273  0.1882
  542MOL0     C71460   2.275   6.377   7.845 -0.1315 -0.7851 -0.2111
  542MOL0     C71461   2.412   6.404   7.865 -0.5634 -0.1418  0.0629
  542MOL0     N71462   2.854   6.740   8.353  0.1248 -0.0400 -1.3885
  542MOL0     N71463   2.960   6.813   8.377  0.8739  0.0700  1.0605
  542MOL0     C71464   4.331   6.692   7.922  0.2118  0.3431 -0.5380
  542MOL0     C71465   4.455   6.771   7.918  0.0384  0.8877  0.2905
  542MOL0     C71466   4.785   7.037   7.870 -0.3862  0.3820  0.1770
  542MOL0     C71467   4.828   7.099   7.986 -0.0740 -0.1762 -0.0197
  542MOL0     C71468   4.963   7.134   7.998 -0.3908  0.4171 -0.3452
  542MOL0     C71469   5.065   7.108   7.898  0.4220 -0.6674 -0.0915
  542MOL0     O71470   5.197   7.143   7.899 -1.0207  0.5580  0.1637
  542MOL0     C71471   5.268   7.147   8.022 -0.3377  0.5566  0.8746
  542MOL0     C71472   5.414   7.131   7.987 -0.3412  0.9998  0.3329
  542MOL0     C71473   5.492   7.257   7.947 -0.4135 -0.4099  0.0744
  542MOL0     C71474   5.637   7.249   7.916 -0.2851  0.0273 -0.0490
  542MOL0     C71475   5.704   7.119   7.942 -0.5542  0.3085 -0.3377
  542MOL0     C71476   5.767   7.015   7.974 -0.2099  0.1450  0.1832
  542MOL0     C71477   5.023   7.042   7.785  0.8145 -0.2679  0.6720
  542MOL0     C71478   4.888   7.009   7.772 -0.0400 -0.0911  0.8605
  542MOL0     H71479   4.334   7.078   7.983  0.4269 -0.2073  0.8421
  542MOL0     H71480   4.117   6.948   7.978 -0.2640 -1.1292 -0.8579
  542MOL0     H71481   3.907   6.656   7.858  0.3669 -4.4194  4.3260
  542MOL0     H71482   3.969   6.822   7.838 -1.1517 -0.7162 -0.6862
  542MOL0     H71483   3.934   6.870   8.080 -1.5203  0.6113 -1.5988
  542MOL0     H71484   3.924   6.697   8.120  0.0218 -0.2652 -0.1235
  542MOL0     H71485   3.729   6.680   7.996  0.0447 -1.3267  0.9628
  542MOL0     H71486   3.714   6.860   7.980 -1.7237 -0.0754  1.6099
  542MOL0     H71487   3.698   6.721   8.251 -3.7308  0.9354  2.0395
  542MOL0     H71488   3.683   6.889   8.216 -0.8820 -0.2397 -1.6044
  542MOL0     H71489   3.505   6.667   8.097  1.8404 -0.0350 -2.3437
  542MOL0     H71490   3.486   6.832   8.054  3.1188  2.9141  0.2118
  542MOL0     H71491   3.435   6.897   8.296  0.5688 -0.7356  0.4397
  542MOL0     H71492   3.473   6.742   8.347  0.1336  1.2448  1.1805
  542MOL0     H71493   3.253   6.806   8.151  0.5371 -3.3879 -2.0437
  542MOL0     H71494   3.288   6.648   8.205 -0.2754 -0.1930 -0.7921
  542MOL0     H71495   3.222   6.877   8.407 -1.5771  0.1298 -0.4135
  542MOL0     H71496   3.243   6.712   8.459 -0.8573  0.7525  1.7168
  542MOL0     H71497   3.086   6.521   8.318  1.3090 -0.2331 -0.2353
  542MOL0     H71498   2.689   6.527   8.294 -0.6391 -3.0891 -1.4805
  542MOL0     H71499   2.798   6.425   8.386 -0.0453  0.0255 -0.2039
  542MOL0     H71500   2.930   6.398   8.163  0.1166  1.4310 -1.1452
  542MOL0     H71501   2.790   6.493   8.094 -0.6112 -1.2394 -1.5602
  542MOL0     H71502   2.781   6.226   8.218  2.1142  1.8773  0.6861
  542MOL0     H71503   2.633   6.321   8.197 -1.6590  3.0044 -3.0777
  542MOL0     H71504   2.704   6.177   8.001 -1.1897 -0.0139  0.1887
  542MOL0     H71505   2.823   6.295   7.967  0.3382  2.0581  0.1285
  542MOL0     H71506   2.508   6.132   8.028 -2.3326 -2.4535 -0.3960
  542MOL0     H71507   2.279   6.070   7.999 -5.0688  1.4162 -1.8783
  542MOL0     H71508   1.835   6.145   8.127 -0.4365 -0.1768  1.7252
  542MOL0     H71509   1.587   6.101   8.072  0.0058 -1.3647  0.5519
  542MOL0     H71510   1.527   5.845   7.715  0.2532 -0.2054 -0.7026
  542MOL0     H71511   1.454   5.985   7.635  0.3666 -0.0467  1.5202
  542MOL0     H71512   1.337   5.818   7.858  0.2425 -0.4281 -0.8171
  542MOL0     H71513   1.296   5.787   7.687 -0.6732  0.6603 -0.1848
  542MOL0     H71514   1.190   6.003   7.686  2.7692 -0.5185 -0.7387
  542MOL0     H71515   1.231   6.036   7.859 -0.5011 -1.1678  3.0782
  542MOL0     H71516   1.061   5.790   7.775 -2.0450  2.6052 -2.5046
  542MOL0     H71517   1.105   5.857   7.941  2.8969 -0.6427 -0.9629
  542MOL0     H71518   0.914   5.987   7.733 -0.0864  2.1396  0.0491
  542MOL0     H71519   0.985   6.068   7.863 -0.6044 -0.1860  2.3341
  542MOL0     H71520   0.745   6.002   7.914  1.0757  0.4177  0.4605
  542MOL0     H71521   0.854   5.952   8.038 -1.0038 -0.2672  0.4473
  542MOL0     H71522   0.859   5.714   7.969  0.4430  0.7232  0.5277
  542MOL0     H71523   0.686   5.766   7.985 -0.9188  0.9646 -0.7429
  542MOL0     H71524   0.827   5.737   7.727  0.4209 -0.7133 -0.1361
  542MOL0     H71525   0.667   5.796   7.736 -1.1298 -0.3744  0.0343
  542MOL0     H71526   1.708   5.979   7.681 -1.3322 -0.9197  0.6374
  542MOL0     H71527   1.924   6.031   7.722  2.8540  2.2128  1.8068
  542MOL0     H71528   2.214   6.447   7.788 -1.5690 -1.6280  0.2463
  542MOL0     H71529   2.461   6.492   7.826 -0.8688  0.2613  0.5715
  542MOL0     H71530   4.318   6.586   7.905 -0.4328  0.3080  0.1478
  542MOL0     H71531   4.546   6.714   7.901 -1.4950 -0.9999 -2.3639
  542MOL0     H71532   4.761   7.115   8.071  2.2538  1.5281  1.6386
  542MOL0     H71533   5.002   7.171   8.093  0.7835  0.8967 -0.9900
  542MOL0     H71534   5.224   7.072   8.087  1.6940 -1.1280  0.4133
  542MOL0     H71535   5.262   7.243   8.076 -4.3876  0.2133  1.3359
  542MOL0     H71536   5.463   7.070   8.064 -0.2051 -0.6664 -1.0220
  542MOL0     H71537   5.420   7.056   7.907 -2.4865 -2.6394  3.1965
  542MOL0     H71538   5.483   7.324   8.033  0.9639 -0.7036  0.4629
  542MOL0     H71539   5.446   7.305   7.860  0.8265 -1.1034 -0.9961
  542MOL0     H71540   5.652   7.282   7.813 -2.5147  0.2087 -0.3700
  542MOL0     H71541   5.695   7.323   7.971  3.1697 -2.1283 -0.4824
  542MOL0     H71542   5.818   6.927   8.008  0.7246  0.5585 -0.1020
  542MOL0     H71543   5.096   7.022   7.707 -1.3180  2.8664 -2.4206
  542MOL0     H71544   4.850   6.944   7.694 -3.3186 -0.3829  2.5403
  543MOL0     O71545   8.590  10.525   5.192 -0.4182 -0.0151  0.4576
  543MOL0     C71546   8.642  10.436   5.267  0.1118 -0.4309 -0.9322
  543MOL0     O71547   8.569  10.342   5.324 -0.9068  0.4551 -0.6561
  543MOL0     C71548   8.443  10.341   5.281  0.3856  0.8237 -0.6577
  543MOL0     C71549   8.392  10.298   5.152 -0.8622  0.1596 -0.0795
  543MOL0     C71550   8.259  10.271   5.122 -0.0162 -0.1022 -0.1145
  543MOL0     C71551   8.166  10.285   5.225 -0.1608 -0.7952 -0.2799
  543MOL0     O71552   8.034  10.256   5.195  0.5454 -0.0479 -0.7535
  543MOL0     C71553   7.931  10.251   5.289  0.1778  0.3591  0.1865
  543MOL0     C71554   7.814  10.191   5.211 -1.1011  0.8742 -0.2410
  543MOL0     C71555   7.701  10.131   5.294  0.5380  0.0280 -0.5675
  543MOL0     C71556   7.559  10.105   5.223  0.6119 -0.4473 -0.6849
  543MOL0     C71557   7.451  10.062   5.310  0.1967  0.0818 -0.0016
  543MOL0     C71558   7.403  10.163   5.410 -0.5157 -0.1465 -0.0314
  543MOL0     C71559   7.379  10.297   5.345  0.3944 -0.6960 -0.1314
  543MOL0     C71560   7.326  10.386   5.454 -0.1060 -0.4563 -0.5905
  543MOL0     N71561   7.199  10.343   5.506  0.9131 -0.1148  0.7152
  543MOL0     C71562   7.182  10.330   5.636  0.1593  0.1023 -0.1640
  543MOL0     C71563   7.048  10.329   5.650 -0.2595  0.1835 -0.0117
  543MOL0     C71564   6.982  10.312   5.784  0.3278  0.4261  0.3518
  543MOL0     C71565   6.976  10.161   5.824 -1.1923  1.1819 -0.0745
  543MOL0     C71566   6.899  10.153   5.952  0.0101 -0.5686 -0.9528
  543MOL0     C71567   6.751  10.153   5.926 -0.8156 -0.8395  0.1141
  543MOL0     O71568   6.681  10.118   6.041  0.3106 -0.2308 -0.2212
  543MOL0     C71569   6.541  10.098   6.040  0.0146  0.6070  0.5871
  543MOL0     C71570   6.484  10.039   6.150 -0.3087  0.2958 -0.4199
  543MOL0     C71571   6.351   9.988   6.151  0.7068 -0.4181 -0.5226
  543MOL0     C71572   6.258  10.018   6.050 -0.3970  0.9144 -0.5103
  543MOL0     C71573   6.120   9.967   6.048 -0.5964  0.5575 -0.1787
  543MOL0     O71574   6.093   9.839   6.095 -0.8692  0.1637  0.1036
  543MOL0     C71575   5.978   9.763   6.074 -0.4819 -0.3203 -0.5568
  543MOL0     C71576   5.855   9.815   6.046 -0.4509 -0.5797 -0.9594
  543MOL0     C71577   5.743   9.728   6.013  0.4626 -0.3955  0.4970
  543MOL0     C71578   5.762   9.589   6.010 -0.2596 -0.4274 -0.0786
  543MOL0     O71579   5.679   9.492   5.979 -0.1643  0.1270  0.3253
  543MOL0     C71580   5.543   9.522   5.936  0.3150 -0.4318 -0.2496
  543MOL0     C71581   5.448   9.500   6.055 -0.4340 -0.1149 -0.4022
  543MOL0     C71582   5.309   9.561   6.018  0.2948  0.7843  0.2188
  543MOL0     C71583   5.188   9.484   6.072  0.1686 -0.0214  0.0411
  543MOL0     C71584   5.055   9.542   6.031  0.8438 -0.1477 -0.0751
  543MOL0     C71585   4.944   9.462   6.118  0.0115 -0.0134 -0.0637
  543MOL0     C71586   4.806   9.527   6.091 -0.2627 -0.1079  0.0155
  543MOL0     C71587   4.697   9.443   6.166 -0.5814  0.2321  1.1052
  543MOL0    Cl71588   4.717   9.465   6.336 -0.1626  0.0611  0.1549
  543MOL0     C71589   5.896   9.543   6.025 -0.2721  0.6235 -1.0040
  543MOL0     C71590   6.006   9.628   6.048 -0.1201  0.0201  0.5345
  543MOL0     O71591   6.043  10.032   5.980 -0.1998  0.3051 -0.0213
  543MOL0     C71592   6.312  10.084   5.940 -0.3588  0.3387  0.7384
  543MOL0     C71593   6.445  10.122   5.938  0.0975  0.3388  0.2363
  543MOL0     N71594   6.991  10.325   5.527 -1.2818 -0.0310  0.1791
  543MOL0     N71595   7.085  10.314   5.433  0.1266 -1.5201 -0.1699
  543MOL0     C71596   8.211  10.322   5.351  1.1117  0.7951 -0.4863
  543MOL0     C71597   8.347  10.350   5.378  0.2561 -0.1912 -0.4545
  543MOL0     C71598   8.793  10.434   5.282 -0.0602  0.5968 -1.0925
  543MOL0     C71599   8.870  10.536   5.224  0.2228  0.1723  0.3186
  543MOL0     C71600   9.003  10.522   5.210 -0.0449 -0.1175 -0.0053
  543MOL0     C71601   9.063  10.415   5.260  0.2664  0.7713 -0.0931
  543MOL0     O71602   9.198  10.400   5.247 -0.6642 -0.2702  0.5558
  543MOL0     C71603   9.266  10.278   5.243 -0.5641 -0.3030 -0.1493
  543MOL0     C71604   9.405  10.310   5.187  0.3115 -0.0725  0.2945
  543MOL0     C71605   9.479  10.413   5.275  0.6319 -1.4599 -0.1878
  543MOL0     C71606   9.605  10.468   5.208  0.6911  0.6311 -0.0741
  543MOL0     C71607   9.720  10.375   5.213  0.6663 -0.0251  0.6163
  543MOL0     C71608   9.809  10.296   5.241 -0.2337 -0.1506  0.0363
  543MOL0     C71609   8.995  10.313   5.332 -0.1982 -0.0041 -1.0314
  543MOL0     C71610   8.856  10.319   5.336 -0.3866 -0.0216 -0.8383
  543MOL0     H71611   8.467  10.275   5.077  1.4078 -2.9425  2.8056
  543MOL0     H71612   8.231  10.242   5.021  0.3681  0.7331 -0.4772
  543MOL0     H71613   7.915  10.357   5.311 -0.7650 -0.1913  2.3327
  543MOL0     H71614   7.964  10.195   5.376  3.2467  1.2817 -0.2339
  543MOL0     H71615   7.850  10.105   5.155 -1.4377  0.1778  0.6044
  543MOL0     H71616   7.775  10.258   5.133 -2.5170 -0.5883 -0.8378
  543MOL0     H71617   7.700  10.191   5.385  1.4066 -0.1284 -0.4499
  543MOL0     H71618   7.733  10.032   5.328  1.1837  0.2466 -0.5301
  543MOL0     H71619   7.526  10.193   5.169 -1.2450 -1.4352 -1.2288
  543MOL0     H71620   7.570  10.031   5.144  2.1687 -1.0358  0.0334
  543MOL0     H71621   7.487   9.973   5.364  2.5793 -0.1746 -1.8528
  543MOL0     H71622   7.363  10.031   5.253  1.2119  0.5874 -1.9012
  543MOL0     H71623   7.478  10.186   5.486  2.1555  2.2193 -3.0575
  543MOL0     H71624   7.311  10.117   5.446 -2.0015  0.5196 -2.6746
  543MOL0     H71625   7.466  10.352   5.309 -0.7023  2.1871  1.2589
  543MOL0     H71626   7.304  10.294   5.266 -0.3751  0.9599  0.4972
  543MOL0     H71627   7.317  10.488   5.417 -0.3229 -0.1622  0.2379
  543MOL0     H71628   7.403  10.403   5.529  0.8522  0.3080 -1.7172
  543MOL0     H71629   7.257  10.325   5.715  1.2851 -1.5443 -1.2532
  543MOL0     H71630   6.877  10.342   5.779  0.5355  1.0473 -0.4679
  543MOL0     H71631   7.038  10.374   5.855 -3.9202  1.1723  3.4480
  543MOL0     H71632   7.076  10.122   5.845 -3.2248 -3.0196  3.3908
  543MOL0     H71633   6.941  10.108   5.734 -0.6877  1.2470 -0.3132
  543MOL0     H71634   6.924  10.055   5.994  1.7791 -0.0679 -0.7567
  543MOL0     H71635   6.919  10.234   6.023  0.9075 -0.1327 -1.6787
  543MOL0     H71636   6.726  10.076   5.853 -1.4556 -0.6315  0.1083
  543MOL0     H71637   6.721  10.250   5.885 -0.1869 -0.1982  1.1121
  543MOL0     H71638   6.545  10.026   6.238  4.0378 -1.5431 -3.3695
  543MOL0     H71639   6.329   9.920   6.232  0.3067 -0.9213 -1.0429
  543MOL0     H71640   5.831   9.920   6.059 -3.8500 -1.5298  1.5424
  543MOL0     H71641   5.650   9.779   5.991  0.3118  0.4456  2.7737
  543MOL0     H71642   5.525   9.450   5.855 -0.0720  2.1925 -2.6733
  543MOL0     H71643   5.530   9.618   5.884  0.4144  1.3859  2.8626
  543MOL0     H71644   5.490   9.540   6.148 -1.9576  1.6840 -0.4213
  543MOL0     H71645   5.446   9.391   6.061 -1.8165 -0.0565  0.8021
  543MOL0     H71646   5.293   9.555   5.910  1.6079 -3.3514  0.0864
  543MOL0     H71647   5.309   9.667   6.043 -1.4123  0.5451  1.4258
  543MOL0     H71648   5.189   9.377   6.049 -4.5539 -0.3265  0.1462
  543MOL0     H71649   5.203   9.484   6.180  3.1070 -1.4618 -0.2873
  543MOL0     H71650   5.039   9.520   5.925  0.0792  0.7790 -0.1674
  543MOL0     H71651   5.054   9.651   6.044  0.1502  0.2945 -3.0626
  543MOL0     H71652   4.974   9.461   6.223  1.8242 -1.1171 -0.5340
  543MOL0     H71653   4.952   9.358   6.084  2.4192  0.4775 -1.2558
  543MOL0     H71654   4.795   9.629   6.128  1.5962 -0.3739  1.4450
  543MOL0     H71655   4.802   9.523   5.982  2.6756  1.5781 -0.2755
  543MOL0     H71656   4.703   9.338   6.135  0.9812  0.0714  1.8599
  543MOL0     H71657   4.597   9.485   6.148  0.6382  3.4686  1.2552
  543MOL0     H71658   5.936   9.442   6.024  1.9941  1.2692  2.9600
  543MOL0     H71659   6.105   9.585   6.060 -0.5399 -1.2626 -0.4154
  543MOL0     H71660   6.255  10.094   5.848  0.2270  0.4076  0.3784
  543MOL0     H71661   6.481  10.153   5.840  0.2205 -0.4821  0.0099
  543MOL0     H71662   8.135  10.358   5.419  0.0260  1.2453 -1.8904
  543MOL0     H71663   8.372  10.392   5.475  0.5920  0.1531 -0.6861
  543MOL0     H71664   8.833  10.624   5.172 -0.2646  0.1146  0.5676
  543MOL0     H71665   9.060  10.593   5.151 -0.5702  2.4158  2.2987
  543MOL0     H71666   9.228  10.198   5.179  3.0212 -1.5828 -0.8736
  543MOL0     H71667   9.268  10.242   5.346 -2.3447 -0.9492 -0.3006
  543MOL0     H71668   9.473  10.224   5.188  1.3106  0.7040  1.4172
  543MOL0     H71669   9.380  10.348   5.088  0.3386  2.3150  1.1359
  543MOL0     H71670   9.510  10.368   5.370 -0.8417 -1.1266  0.4804
  543MOL0     H71671   9.413  10.492   5.312  1.0902 -2.5761  3.3461
  543MOL0     H71672   9.575  10.491   5.105  2.2897 -2.9128 -1.4925
  543MOL0     H71673   9.630  10.565   5.252  0.0105  2.0170 -2.5047
  543MOL0     H71674   9.886  10.221   5.249 -0.7871 -0.7366 -0.0529
  543MOL0     H71675   9.052  10.226   5.361  0.5223  1.1910  1.4317
  543MOL0     H71676   8.797  10.240   5.381  3.6299 -2.6783  0.2789
  544MOL0     O71677   6.412   2.227   7.583 -0.0610 -0.1176 -0.2368
  544MOL0     C71678   6.460   2.324   7.519  0.8954 -0.2181  0.6495
  544MOL0     O71679   6.394   2.385   7.413  0.4005 -0.1150  0.3354
  544MOL0     C71680   6.256   2.373   7.395 -0.2159  0.6900  0.1127
  544MOL0     C71681   6.192   2.486   7.339  0.0203 -0.4910 -0.7802
  544MOL0     C71682   6.065   2.497   7.303 -0.6931  0.4510  0.2984
  544MOL0     C71683   5.983   2.384   7.323  0.0676 -0.3958 -0.1371
  544MOL0     O71684   5.847   2.396   7.289 -0.9494 -0.5480 -0.0682
  544MOL0     C71685   5.757   2.372   7.398  0.1331  0.0892  0.2805
  544MOL0     C71686   5.615   2.426   7.371 -0.0511 -0.2636 -0.5333
  544MOL0     C71687   5.614   2.577   7.338 -0.9147  0.2291  0.2776
  544MOL0     C71688   5.492   2.635   7.284 -0.0202  0.6716 -0.1496
  544MOL0     C71689   5.380   2.634   7.397  0.1476 -0.5722  0.0693
  544MOL0     C71690   5.256   2.700   7.334 -0.5582 -0.1425  0.9016
  544MOL0     C71691   5.124   2.702   7.416  0.3123 -0.4121 -0.8247
  544MOL0     C71692   5.021   2.777   7.332  0.3973 -0.8108  0.1369
  544MOL0     N71693   4.891   2.756   7.387  0.9523 -0.3035 -0.0486
  544MOL0     C71694   4.784   2.711   7.318 -0.1285 -0.1141  0.4170
  544MOL0     C71695   4.697   2.668   7.409  0.0711  0.0329 -0.3126
  544MOL0     C71696   4.565   2.600   7.390 -0.2026  1.1320  0.1211
  544MOL0     C71697   4.444   2.691   7.388 -0.0113  0.1701 -0.4216
  544MOL0     C71698   4.435   2.799   7.279  1.0042 -0.7538  0.3000
  544MOL0     C71699   4.289   2.863   7.262 -0.2237  0.5755 -0.2410
  544MOL0     O71700   4.205   2.765   7.197 -0.0059 -0.2971 -0.6716
  544MOL0     C71701   4.077   2.763   7.229  0.0494  0.7317 -0.1609
  544MOL0     C71702   4.019   2.639   7.255 -0.2098  0.2102  0.4104
  544MOL0     C71703   3.887   2.628   7.298 -0.1922 -0.5243 -0.4037
  544MOL0     C71704   3.804   2.740   7.298 -0.5427 -0.4708 -0.9444
  544MOL0     C71705   3.659   2.728   7.321 -0.5191 -0.6755  0.4597
  544MOL0     O71706   3.577   2.844   7.283 -0.2708  0.0131 -0.4923
  544MOL0     C71707   3.447   2.847   7.325 -0.2523  1.3387 -0.5295
  544MOL0     C71708   3.402   2.814   7.457 -0.0446 -0.6274  0.2189
  544MOL0     C71709   3.266   2.837   7.496 -0.4100 -0.2924 -0.1265
  544MOL0     C71710   3.176   2.888   7.409 -0.5838  0.3211 -0.4199
  544MOL0     O71711   3.046   2.912   7.433  0.8413  0.9553  0.4497
  544MOL0     C71712   2.990   2.901   7.560  0.8129 -0.3188  0.0479
  544MOL0     C71713   2.839   2.924   7.579 -0.5505 -0.2450  0.1636
  544MOL0     C71714   2.806   2.895   7.729  0.3031  0.5403  0.1090
  544MOL0     C71715   2.691   2.969   7.786 -0.0908  0.1864 -0.3926
  544MOL0     C71716   2.656   2.940   7.933  0.7692 -0.1105  0.3295
  544MOL0     C71717   2.566   2.812   7.943 -0.8235  0.2932 -0.0397
  544MOL0     C71718   2.518   2.782   8.082 -0.7660 -0.1152 -0.0760
  544MOL0     C71719   2.405   2.680   8.077  0.3364 -0.0959 -0.7576
  544MOL0    Cl71720   2.258   2.739   7.988  0.1743  0.2369 -0.2347
  544MOL0     C71721   3.220   2.916   7.278  0.1137  0.2998 -0.2367
  544MOL0     C71722   3.359   2.909   7.238  0.9649  0.9191 -1.0064
  544MOL0     O71723   3.621   2.623   7.375  0.1586 -0.1002  0.7946
  544MOL0     C71724   3.867   2.859   7.285 -0.4864  0.0563 -0.2579
  544MOL0     C71725   4.001   2.879   7.242 -0.0310 -0.3783 -0.3767
  544MOL0     N71726   4.747   2.702   7.539  0.5438 -0.0008 -0.7379
  544MOL0     N71727   4.864   2.755   7.520 -0.0035  0.4797  0.4725
  544MOL0     C71728   6.032   2.272   7.391 -0.9926 -1.1811 -0.1086
  544MOL0     C71729   6.173   2.264   7.425 -0.0918 -0.0931  0.6250
  544MOL0     C71730   6.594   2.368   7.547 -0.1253  0.0730 -0.4251
  544MOL0     C71731   6.685   2.266   7.598 -0.9757  0.0301  0.5327
  544MOL0     C71732   6.818   2.301   7.619  0.3520  0.0778  0.1448
  544MOL0     C71733   6.866   2.433   7.612 -0.2594  0.1625 -0.5444
  544MOL0     O71734   6.998   2.450   7.642  0.0054 -0.5802 -0.1478
  544MOL0     C71735   7.014   2.522   7.762  0.3057 -1.0393 -0.6902
  544MOL0     C71736   7.165   2.534   7.785 -0.5395  0.4083 -0.5790
  544MOL0     C71737   7.236   2.601   7.666 -0.2294  0.4103  0.4760
  544MOL0     C71738   7.385   2.633   7.696  0.5015  0.5013 -0.2070
  544MOL0     C71739   7.439   2.734   7.604 -0.0113 -0.0538  0.0839
  544MOL0     C71740   7.496   2.821   7.544 -0.4262  0.8063 -0.4995
  544MOL0     C71741   6.775   2.532   7.558 -0.3663  0.0006 -0.2228
  544MOL0     C71742   6.641   2.503   7.518 -0.2479  0.9068 -0.4551
  544MOL0     H71743   6.263   2.566   7.323  1.1125 -1.3087 -0.2154
  544MOL0     H71744   6.023   2.590   7.267 -1.9111 -0.1085  0.2346
  544MOL0     H71745   5.801   2.427   7.481 -1.4391  2.5473 -0.4324
  544MOL0     H71746   5.745   2.269   7.434  0.4981  0.6629  2.1158
  544MOL0     H71747   5.550   2.383   7.447  0.4128  0.4771  0.3029
  544MOL0     H71748   5.588   2.378   7.276  1.2027  2.6566 -2.5249
  544MOL0     H71749   5.681   2.591   7.252 -0.1211 -3.0896  0.2202
  544MOL0     H71750   5.655   2.624   7.428  0.7876  1.4548 -1.0635
  544MOL0     H71751   5.506   2.739   7.253  0.9402  1.3148  2.2882
  544MOL0     H71752   5.454   2.583   7.195 -0.3921  1.8208 -0.6813
  544MOL0     H71753   5.417   2.699   7.477  1.4665  0.0151 -0.9922
  544MOL0     H71754   5.356   2.535   7.439  0.0391 -0.2870  0.6858
  544MOL0     H71755   5.245   2.644   7.241  2.9956  0.6790 -0.1680
  544MOL0     H71756   5.281   2.803   7.309 -0.0984 -0.7410 -1.2613
  544MOL0     H71757   5.088   2.601   7.436 -1.7380 -0.0344 -2.2910
  544MOL0     H71758   5.129   2.745   7.517  1.1971 -0.0210 -1.0166
  544MOL0     H71759   5.017   2.745   7.228  1.2438  2.3959 -1.0006
  544MOL0     H71760   5.043   2.883   7.315  0.4576 -0.8530 -0.0448
  544MOL0     H71761   4.791   2.691   7.211  0.1635  3.4411 -0.3349
  544MOL0     H71762   4.573   2.525   7.469  4.6224  0.1702 -1.0086
  544MOL0     H71763   4.563   2.538   7.301 -0.0530  1.3250 -0.0178
  544MOL0     H71764   4.443   2.760   7.473  0.1535  1.3908 -1.3700
  544MOL0     H71765   4.358   2.625   7.373  0.7574 -0.1481 -4.5681
  544MOL0     H71766   4.503   2.877   7.314 -1.5083  1.2161  1.1228
  544MOL0     H71767   4.471   2.753   7.187  1.0538 -1.6402  0.7538
  544MOL0     H71768   4.298   2.955   7.204 -0.7034 -0.3565 -1.8847
  544MOL0     H71769   4.239   2.887   7.356 -1.7101 -0.3978 -0.7474
  544MOL0     H71770   4.080   2.550   7.252 -1.0394 -0.3427 -1.2405
  544MOL0     H71771   3.842   2.534   7.330 -0.5510 -0.4844 -0.7858
  544MOL0     H71772   3.475   2.768   7.523 -2.5024 -1.2997  2.6800
  544MOL0     H71773   3.243   2.815   7.600  1.7559 -3.0328 -0.1357
  544MOL0     H71774   3.046   2.968   7.627  2.4203 -1.4883 -0.0761
  544MOL0     H71775   3.002   2.799   7.597  1.0118 -0.8182 -1.3434
  544MOL0     H71776   2.793   2.850   7.513 -1.0619  0.9641 -0.8583
  544MOL0     H71777   2.819   3.028   7.552  1.7062  0.0970 -0.3573
  544MOL0     H71778   2.896   2.940   7.774 -0.0808  1.1221  0.3045
  544MOL0     H71779   2.818   2.791   7.760  1.6718  0.7020  0.1879
  544MOL0     H71780   2.710   3.077   7.789 -0.6897  0.4598 -3.2485
  544MOL0     H71781   2.600   2.956   7.727 -1.7251 -0.8164  2.1635
  544MOL0     H71782   2.588   3.019   7.966 -0.4992 -1.1168  0.1792
  544MOL0     H71783   2.743   2.948   8.000  1.6621 -0.0667 -0.8001
  544MOL0     H71784   2.595   2.720   7.893 -0.8333 -1.5005  2.9846
  544MOL0     H71785   2.479   2.847   7.886 -0.0038  1.7527 -0.4488
  544MOL0     H71786   2.603   2.751   8.145 -1.5072  0.0789  1.0447
  544MOL0     H71787   2.477   2.879   8.112  1.1517  0.7260 -0.0225
  544MOL0     H71788   2.382   2.678   8.184 -1.0006  2.4787 -0.9190
  544MOL0     H71789   2.434   2.579   8.046 -1.0353 -0.2456 -1.6778
  544MOL0     H71790   3.142   2.959   7.216  0.3142 -0.9714 -1.3956
  544MOL0     H71791   3.396   2.945   7.143  0.2504  5.1058  0.0833
  544MOL0     H71792   3.810   2.950   7.302 -1.0363 -0.1112 -1.1331
  544MOL0     H71793   4.056   2.972   7.227 -0.2830 -0.3316 -1.0463
  544MOL0     H71794   5.959   2.192   7.392 -1.9383 -0.3453  1.3145
  544MOL0     H71795   6.216   2.168   7.452  2.5350  0.7455 -0.3460
  544MOL0     H71796   6.650   2.164   7.609  0.7771 -0.8817 -1.5866
  544MOL0     H71797   6.885   2.219   7.641 -2.4792 -1.7966  2.5393
  544MOL0     H71798   6.968   2.469   7.846  3.8303 -2.3163  0.6254
  544MOL0     H71799   6.961   2.617   7.749  2.2784 -0.1908 -3.2319
  544MOL0     H71800   7.195   2.590   7.874  0.9328  0.8449 -1.3251
  544MOL0     H71801   7.211   2.436   7.791 -1.7175 -0.1372 -0.1804
  544MOL0     H71802   7.186   2.697   7.653 -2.4383 -0.6376  0.7141
  544MOL0     H71803   7.236   2.542   7.573 -0.7801  0.7340  0.2654
  544MOL0     H71804   7.395   2.661   7.802 -2.3371 -0.7127  0.4747
  544MOL0     H71805   7.434   2.535   7.695 -1.7280 -0.6650 -0.4881
  544MOL0     H71806   7.564   2.884   7.490  0.7118  0.1247  0.0833
  544MOL0     H71807   6.820   2.629   7.542  2.1907 -1.1586 -0.6191
  544MOL0     H71808   6.576   2.579   7.474 -1.6795 -0.0398 -0.0242
  545MOL0     O71809   8.552   0.097   3.439  0.1646  0.3998  0.2517
  545MOL0     C71810   8.518   0.173   3.529 -0.4563  0.6438  0.7748
  545MOL0     O71811   8.414   0.157   3.610  0.7522  0.4080  0.1846
  545MOL0     C71812   8.324   0.057   3.582 -0.7194  0.5886  0.2224
  545MOL0     C71813   8.215   0.079   3.500 -0.0258  0.1883 -0.3838
  545MOL0     C71814   8.125  -0.027   3.487 -1.0145 -0.3293 -0.1368
  545MOL0     C71815   8.158  -0.156   3.517  0.9795  0.0316  0.4657
  545MOL0     O71816   8.060  -0.245   3.481  0.9552 -1.0787  0.5294
  545MOL0     C71817   8.071  -0.385   3.493 -0.0014  0.5459  0.3446
  545MOL0     C71818   7.947  -0.431   3.562  0.0388 -0.3713  0.5133
  545MOL0     C71819   7.817  -0.421   3.472  0.1225  0.2294 -0.4554
  545MOL0     C71820   7.690  -0.446   3.562 -0.0406 -0.1029 -0.0950
  545MOL0     C71821   7.692  -0.587   3.632  0.9804  0.1117  0.5075
  545MOL0     C71822   7.584  -0.610   3.742  0.0393  0.9116  0.7125
  545MOL0     C71823   7.441  -0.573   3.687  0.0608  0.1091 -0.1454
  545MOL0     C71824   7.396  -0.662   3.570  0.2940 -0.5324 -0.0722
  545MOL0     N71825   7.361  -0.786   3.625 -0.1527  0.2204  0.7110
  545MOL0     C71826   7.242  -0.812   3.699 -0.4874  0.7758  0.7698
  545MOL0     C71827   7.248  -0.940   3.742  0.3967 -0.1318 -0.1370
  545MOL0     C71828   7.155  -1.025   3.831  0.4124 -0.7759  0.0346
  545MOL0     C71829   7.036  -0.958   3.879  0.4029 -1.2611 -0.2714
  545MOL0     C71830   6.934  -0.927   3.764 -0.5665  0.4416  0.0092
  545MOL0     C71831   6.853  -1.050   3.734  0.4875  0.1486 -0.0477
  545MOL0     O71832   6.728  -1.014   3.667  0.2099 -0.2528 -0.2434
  545MOL0     C71833   6.640  -1.114   3.642  0.3792  0.6952  0.1315
  545MOL0     C71834   6.654  -1.242   3.704 -0.3964  0.7673  0.4242
  545MOL0     C71835   6.559  -1.348   3.675 -0.3909 -0.2914  0.6313
  545MOL0     C71836   6.442  -1.320   3.597  0.2620 -0.0141  0.1720
  545MOL0     C71837   6.337  -1.422   3.567 -0.2066  0.1505 -0.7510
  545MOL0     O71838   6.244  -1.387   3.468  0.3012 -0.4874 -0.9324
  545MOL0     C71839   6.113  -1.432   3.458 -0.0335 -0.6738 -0.3863
  545MOL0     C71840   6.030  -1.362   3.369  0.6227 -0.0420 -0.1194
  545MOL0     C71841   5.886  -1.374   3.368  1.1703 -0.0403  0.1081
  545MOL0     C71842   5.832  -1.476   3.446 -0.8973 -0.0720  0.0443
  545MOL0     O71843   5.697  -1.492   3.434  0.2266 -0.2636 -0.1495
  545MOL0     C71844   5.624  -1.567   3.529  0.1122  1.4506  0.2894
  545MOL0     C71845   5.476  -1.540   3.518 -0.0181  0.7533  0.1768
  545MOL0     C71846   5.442  -1.397   3.556  0.2943  0.6409 -0.0746
  545MOL0     C71847   5.287  -1.372   3.516 -1.0362 -1.2759  0.1129
  545MOL0     C71848   5.254  -1.226   3.555 -0.5485  0.1132 -0.4815
  545MOL0     C71849   5.105  -1.189   3.533  1.1110 -0.9210  0.6063
  545MOL0     C71850   5.082  -1.042   3.580  0.7283 -0.5541  0.3288
  545MOL0     C71851   5.046  -1.033   3.729 -0.1889  0.5127 -0.1287
  545MOL0    Cl71852   4.883  -1.107   3.765  0.5180  0.2054 -0.1333
  545MOL0     C71853   5.913  -1.551   3.534 -1.3641  0.3370  1.1700
  545MOL0     C71854   6.047  -1.518   3.545  0.4586 -0.8673  0.0456
  545MOL0     O71855   6.338  -1.522   3.636 -0.4920  0.4614 -0.5963
  545MOL0     C71856   6.432  -1.193   3.541  0.1159  0.0495  0.0995
  545MOL0     C71857   6.530  -1.091   3.566  0.8087  0.4048 -0.2027
  545MOL0     N71858   7.366  -0.989   3.701 -0.6400 -0.0712  0.1156
  545MOL0     N71859   7.434  -0.906   3.625  0.1739  0.5645 -0.2434
  545MOL0     C71860   8.272  -0.179   3.587 -0.2652  0.4703  0.7065
  545MOL0     C71861   8.359  -0.072   3.611  0.9531  0.5488 -0.4900
  545MOL0     C71862   8.604   0.282   3.575 -0.4409  0.5935  0.7457
  545MOL0     C71863   8.739   0.254   3.584 -0.5525  0.4390  0.4123
  545MOL0     C71864   8.845   0.354   3.611 -0.7683 -0.0266 -0.0308
  545MOL0     C71865   8.795   0.480   3.652 -0.6688 -0.5262  1.0289
  545MOL0     O71866   8.891   0.572   3.675 -0.2094  0.5140 -0.2528
  545MOL0     C71867   8.960   0.625   3.555 -0.1643  0.4369 -0.7838
  545MOL0     C71868   9.082   0.716   3.582  0.9979  0.3014 -0.1229
  545MOL0     C71869   9.204   0.634   3.623  0.2981  0.0218  0.5390
  545MOL0     C71870   9.316   0.719   3.645 -0.1234  0.4411 -0.7238
  545MOL0     C71871   9.429   0.638   3.689 -0.2948 -0.8859  0.6037
  545MOL0     C71872   9.527   0.578   3.722  0.8686  0.1743  0.3206
  545MOL0     C71873   8.653   0.504   3.653  0.7263  0.6663 -0.4759
  545MOL0     C71874   8.559   0.400   3.625  0.6155  0.0991  0.2305
  545MOL0     H71875   8.191   0.176   3.458 -1.9818 -0.8495 -1.8131
  545MOL0     H71876   8.029  -0.005   3.440 -2.3992 -2.8199  1.3050
  545MOL0     H71877   8.158  -0.430   3.541 -0.4329  0.7623  1.3474
  545MOL0     H71878   8.084  -0.425   3.391 -2.3597  1.7454 -0.4848
  545MOL0     H71879   7.947  -0.359   3.644 -2.2651  1.4334 -0.9521
  545MOL0     H71880   7.969  -0.535   3.590 -0.6306 -1.9124 -3.9155
  545MOL0     H71881   7.829  -0.497   3.395  0.9629  0.1245 -0.2240
  545MOL0     H71882   7.808  -0.322   3.426 -1.7381 -0.7132 -2.3249
  545MOL0     H71883   7.681  -0.359   3.628  0.0518 -1.4322  1.7621
  545MOL0     H71884   7.601  -0.443   3.498 -1.9109 -3.9487  1.9785
  545MOL0     H71885   7.792  -0.597   3.675  1.3437  0.6931 -0.1845
  545MOL0     H71886   7.690  -0.671   3.562 -3.2025 -1.0597  1.6941
  545MOL0     H71887   7.615  -0.555   3.832  3.2748 -2.2037  1.7315
  545MOL0     H71888   7.575  -0.714   3.775 -3.1988  2.1047  4.3608
  545MOL0     H71889   7.375  -0.591   3.772  4.5316 -2.6140  3.2204
  545MOL0     H71890   7.435  -0.470   3.649 -1.7276 -0.1078 -0.5345
  545MOL0     H71891   7.485  -0.668   3.506  0.8404 -2.0320  0.7776
  545MOL0     H71892   7.318  -0.613   3.512  1.0989  3.0821  1.6396
  545MOL0     H71893   7.158  -0.753   3.733 -0.4845  2.8649 -2.4479
  545MOL0     H71894   7.211  -1.061   3.918  0.7294 -0.8115 -0.1824
  545MOL0     H71895   7.126  -1.111   3.770 -1.2577  1.0367 -1.9257
  545MOL0     H71896   7.062  -0.857   3.913 -3.4663 -1.3993  4.0334
  545MOL0     H71897   6.993  -1.005   3.967  0.0328  0.9471  0.7751
  545MOL0     H71898   6.862  -0.855   3.804 -0.5077  0.0842  0.7753
  545MOL0     H71899   6.970  -0.872   3.676 -2.8924  2.3837  0.1741
  545MOL0     H71900   6.831  -1.107   3.825  1.6075 -1.0902 -0.5117
  545MOL0     H71901   6.912  -1.112   3.666  1.1203  3.1550 -2.4207
  545MOL0     H71902   6.732  -1.286   3.765 -1.5411 -5.1874 -1.7808
  545MOL0     H71903   6.573  -1.444   3.723  2.2747  0.9423  2.6410
  545MOL0     H71904   6.080  -1.283   3.313  0.4865  1.9430  2.4172
  545MOL0     H71905   5.829  -1.319   3.294 -1.9343 -1.6532  1.1728
  545MOL0     H71906   5.653  -1.539   3.631  0.4187 -0.5675  0.8025
  545MOL0     H71907   5.644  -1.674   3.529  0.6565  1.5446  0.9100
  545MOL0     H71908   5.421  -1.605   3.587 -1.7598  0.3249 -1.5199
  545MOL0     H71909   5.445  -1.560   3.414  0.0865  0.0997  0.2636
  545MOL0     H71910   5.501  -1.326   3.497 -2.2793  1.1481 -2.2405
  545MOL0     H71911   5.447  -1.383   3.664  1.3688 -0.8491  0.0974
  545MOL0     H71912   5.265  -1.378   3.409 -2.1564 -2.2633  0.3771
  545MOL0     H71913   5.231  -1.446   3.574  0.8038 -1.1645  2.1045
  545MOL0     H71914   5.332  -1.162   3.514  2.3386  0.6799  4.9180
  545MOL0     H71915   5.274  -1.208   3.661 -1.7469  3.3546 -0.7164
  545MOL0     H71916   5.028  -1.255   3.575 -2.4103  2.7096  0.4081
  545MOL0     H71917   5.094  -1.198   3.425 -4.5950 -2.6481  0.9582
  545MOL0     H71918   5.165  -0.977   3.552  0.1957  0.4439  1.0195
  545MOL0     H71919   4.993  -1.006   3.527  0.3622 -2.5007 -0.4863
  545MOL0     H71920   5.039  -0.930   3.767 -3.0114  0.3903 -0.1180
  545MOL0     H71921   5.123  -1.087   3.784  0.8205  0.1104 -1.8645
  545MOL0     H71922   5.892  -1.645   3.585 -1.5346 -1.5487 -2.0593
  545MOL0     H71923   6.104  -1.579   3.614 -2.5737 -1.5121  2.2171
  545MOL0     H71924   6.348  -1.181   3.474 -0.9329 -1.1344  1.1618
  545MOL0     H71925   6.506  -0.997   3.517 -1.3798  0.7492  1.3985
  545MOL0     H71926   8.311  -0.273   3.623  1.6864  1.0519  0.2405
  545MOL0     H71927   8.453  -0.094   3.660  0.6802  2.3513  0.9497
  545MOL0     H71928   8.781   0.157   3.559 -0.4580  1.3381 -3.5679
  545MOL0     H71929   8.948   0.320   3.615 -1.1879 -1.2531  1.1496
  545MOL0     H71930   8.888   0.686   3.500  1.1080  2.0456 -0.7175
  545MOL0     H71931   8.997   0.554   3.480 -0.1250 -2.4959  1.7679
  545MOL0     H71932   9.106   0.769   3.489  1.3417  1.0942  0.4017
  545MOL0     H71933   9.045   0.787   3.657 -0.2163 -0.6494  0.1939
  545MOL0     H71934   9.220   0.550   3.554 -2.0644 -3.4939  3.8560
  545MOL0     H71935   9.178   0.582   3.716 -1.7841 -1.9769 -1.0203
  545MOL0     H71936   9.336   0.762   3.546 -2.5017 -1.3758 -2.0990
  545MOL0     H71937   9.284   0.798   3.714 -1.6105 -0.2331 -0.5902
  545MOL0     H71938   9.603   0.517   3.766 -1.9617 -0.9920  4.0277
  545MOL0     H71939   8.610   0.592   3.699 -2.3680 -1.5214  1.1327
  545MOL0     H71940   8.455   0.430   3.635 -0.4571 -2.8631 -0.8577
  546MOL0     O71941  11.172   7.640   1.670  0.2177  0.3239 -0.3983
  546MOL0     C71942  11.226   7.698   1.764  0.6632 -0.5808  0.3049
  546MOL0     O71943  11.169   7.716   1.888  0.1819  0.4796  0.1198
  546MOL0     C71944  11.060   7.640   1.918  0.4032 -0.5328  0.3760
  546MOL0     C71945  11.057   7.496   1.903  0.3274  0.6194  0.0250
  546MOL0     C71946  10.943   7.420   1.927 -1.6346  0.5044  0.1982
  546MOL0     C71947  10.824   7.483   1.967 -0.7850 -0.0813  0.2432
  546MOL0     O71948  10.712   7.411   1.980 -0.7536  0.0820 -0.5064
  546MOL0     C71949  10.671   7.381   2.112  0.0160  0.4710  0.0693
  546MOL0     C71950  10.618   7.234   2.103 -0.6190  0.4657 -0.2299
  546MOL0     C71951  10.508   7.201   2.199 -0.0884  0.4983  0.1016
  546MOL0     C71952  10.452   7.061   2.177  0.0401 -1.3572 -0.7572
  546MOL0     C71953  10.323   7.032   2.262  0.1509 -0.0605  0.3906
  546MOL0     C71954  10.270   6.894   2.208 -0.2138 -0.5302  0.0172
  546MOL0     C71955  10.144   6.861   2.279 -0.1790  0.4701  0.0523
  546MOL0     C71956  10.166   6.785   2.404 -0.0852  0.6139 -0.4524
  546MOL0     N71957  10.047   6.761   2.485  0.1630  0.9948 -0.2176
  546MOL0     C71958   9.931   6.703   2.435 -0.9078  0.3377  0.6663
  546MOL0     C71959   9.838   6.718   2.525 -0.5017 -0.6500 -0.3537
  546MOL0     C71960   9.702   6.674   2.516  0.1931  0.0373  0.5469
  546MOL0     C71961   9.626   6.769   2.617  1.0038 -0.2280  0.3375
  546MOL0     C71962   9.490   6.808   2.561  0.2531 -0.1307 -0.4736
  546MOL0     C71963   9.410   6.885   2.658  0.0179  0.1021 -0.1414
  546MOL0     O71964   9.270   6.922   2.626  0.3517 -0.5284  0.5085
  546MOL0     C71965   9.179   6.842   2.570  0.4559  0.2913  0.2285
  546MOL0     C71966   9.106   6.882   2.453 -0.0337  0.2133  0.0401
  546MOL0     C71967   8.999   6.800   2.397 -0.4511 -1.0750  0.9676
  546MOL0     C71968   8.972   6.678   2.464 -0.8804 -0.2414  0.2385
  546MOL0     C71969   8.864   6.596   2.414  0.1275  0.4485  0.0614
  546MOL0     O71970   8.786   6.527   2.506 -0.1679  0.2235  0.0582
  546MOL0     C71971   8.659   6.484   2.468 -0.3418 -0.3187 -0.1361
  546MOL0     C71972   8.629   6.350   2.456  0.0501  0.5011 -0.3974
  546MOL0     C71973   8.508   6.304   2.399 -0.3580  0.8353 -0.2615
  546MOL0     C71974   8.418   6.395   2.363 -0.2142  0.2864  0.1430
  546MOL0     O71975   8.308   6.338   2.308  0.1928  0.5398 -0.0230
  546MOL0     C71976   8.187   6.426   2.289  0.6302 -0.2392  0.2635
  546MOL0     C71977   8.071   6.341   2.239  0.1131  0.1175  0.2523
  546MOL0     C71978   7.936   6.406   2.263 -0.2769 -0.6024  0.5447
  546MOL0     C71979   7.824   6.312   2.218 -0.4473  0.0697  0.0089
  546MOL0     C71980   7.699   6.391   2.188  0.1081  1.1839  0.1803
  546MOL0     C71981   7.662   6.491   2.301  0.7127 -0.6207 -1.2107
  546MOL0     C71982   7.636   6.423   2.440  0.0512  0.7514 -0.2569
  546MOL0     C71983   7.564   6.518   2.527  0.3466  1.1171 -0.2791
  546MOL0    Cl71984   7.528   6.446   2.681 -0.1124 -0.3683 -0.1365
  546MOL0     C71985   8.441   6.536   2.387  0.2034  0.9344  0.4349
  546MOL0     C71986   8.557   6.574   2.444 -1.1578  0.3031 -0.4259
  546MOL0     O71987   8.845   6.599   2.292 -0.4793  0.6335  0.6981
  546MOL0     C71988   9.056   6.640   2.579  0.1580  0.2295 -0.1063
  546MOL0     C71989   9.150   6.720   2.629  0.9881 -0.3363 -0.2149
  546MOL0     N71990   9.907   6.769   2.636  0.3368 -1.2593 -0.5633
  546MOL0     N71991  10.026   6.803   2.608  1.1063 -0.6589 -0.5512
  546MOL0     C71992  10.822   7.621   2.000  1.1713 -0.3827  0.6909
  546MOL0     C71993  10.938   7.688   1.969 -0.5273  0.1693 -0.4575
  546MOL0     C71994  11.357   7.761   1.742  0.9035  0.4467  0.3914
  546MOL0     C71995  11.404   7.779   1.615 -0.3849  1.1981 -0.7163
  546MOL0     C71996  11.531   7.832   1.585  0.1294  1.4190  0.4992
  546MOL0     C71997  11.613   7.866   1.691 -1.0086  0.3721 -0.2992
  546MOL0     O71998  11.744   7.904   1.673 -0.1771 -0.1145  0.0321
  546MOL0     C71999  11.804   7.914   1.545 -0.2735 -1.1118  0.1322
  546MOL0     C72000  11.955   7.937   1.575 -0.2648  0.3155  0.6196
  546MOL0     C72001  12.015   7.809   1.638 -0.4300 -0.9087  0.0401
  546MOL0     C72002  12.175   7.804   1.643  0.5370 -0.3132 -0.3595
  546MOL0     C72003  12.220   7.787   1.781  1.3308 -0.8992  0.1315
  546MOL0     C72004  12.274   7.773   1.879 -0.5436 -0.3019 -0.4530
  546MOL0     C72005  11.560   7.871   1.820  0.3827  0.1761 -0.0129
  546MOL0     C72006  11.433   7.815   1.848  0.2150  0.4033 -0.6112
  546MOL0     H72007  11.142   7.431   1.882 -2.1197 -3.4821  1.6198
  546MOL0     H72008  10.941   7.312   1.924 -1.8204  0.5281 -1.3243
  546MOL0     H72009  10.590   7.443   2.151 -0.7563  0.9861 -2.1732
  546MOL0     H72010  10.759   7.376   2.176 -0.9236 -0.4793  1.3275
  546MOL0     H72011  10.701   7.163   2.109  0.5955  1.8387  0.0371
  546MOL0     H72012  10.562   7.224   2.009 -0.4784  1.0570 -0.3864
  546MOL0     H72013  10.433   7.273   2.166  0.9216  0.0626 -3.6870
  546MOL0     H72014  10.528   7.209   2.306  1.4728 -0.2414 -0.0994
  546MOL0     H72015  10.422   7.046   2.072 -3.5590 -1.5460  0.1867
  546MOL0     H72016  10.538   6.995   2.195  2.3959  2.2158  2.6968
  546MOL0     H72017  10.249   7.110   2.245  0.4168 -0.1555 -1.3377
  546MOL0     H72018  10.344   7.031   2.369 -1.5583  0.6062  0.7638
  546MOL0     H72019  10.346   6.816   2.214 -0.9049 -1.2216 -0.1166
  546MOL0     H72020  10.242   6.905   2.103  2.0510  2.0630 -0.4402
  546MOL0     H72021  10.088   6.951   2.306  1.4667  0.9670  2.0517
  546MOL0     H72022  10.090   6.794   2.212  0.9430  3.5255 -4.3172
  546MOL0     H72023  10.235   6.833   2.474 -1.8670 -0.0502  1.8945
  546MOL0     H72024  10.207   6.686   2.383 -0.6662  0.1397  0.5553
  546MOL0     H72025   9.920   6.660   2.336 -5.2775  2.3136  0.0660
  546MOL0     H72026   9.698   6.572   2.555  2.4795  0.6401  2.6239
  546MOL0     H72027   9.669   6.683   2.412  0.9519 -1.9913  0.0941
  546MOL0     H72028   9.676   6.863   2.643 -1.1033  0.9966  0.1866
  546MOL0     H72029   9.621   6.713   2.711 -0.6276 -0.9154 -0.1357
  546MOL0     H72030   9.492   6.862   2.466  0.5760 -0.9127 -0.9277
  546MOL0     H72031   9.431   6.717   2.547 -1.4552  1.1913 -2.5926
  546MOL0     H72032   9.477   6.970   2.674  1.2422 -0.8523 -0.1563
  546MOL0     H72033   9.412   6.831   2.753  0.5928  0.4462  0.0473
  546MOL0     H72034   9.135   6.976   2.409  4.7566 -1.6070 -1.3278
  546MOL0     H72035   8.933   6.842   2.322 -1.5332  2.0259  3.4223
  546MOL0     H72036   8.714   6.284   2.473 -0.7224  0.1103  2.3962
  546MOL0     H72037   8.480   6.199   2.392  1.9741  0.0335  1.3076
  546MOL0     H72038   8.223   6.500   2.217 -0.6474  1.2345  1.0705
  546MOL0     H72039   8.157   6.476   2.381 -2.6559 -1.1233 -0.2125
  546MOL0     H72040   8.067   6.246   2.292 -1.0812 -1.7733 -2.9561
  546MOL0     H72041   8.090   6.322   2.133  0.9923  1.2604  0.1914
  546MOL0     H72042   7.939   6.499   2.205 -0.5078 -1.2534 -0.5461
  546MOL0     H72043   7.930   6.426   2.370  0.8954 -2.0046  0.9040
  546MOL0     H72044   7.852   6.257   2.127 -1.8699 -0.9923  0.1812
  546MOL0     H72045   7.803   6.234   2.292 -0.5695 -0.6748 -0.7865
  546MOL0     H72046   7.617   6.319   2.180 -0.7814  2.2313 -0.2600
  546MOL0     H72047   7.716   6.444   2.094  1.0400  0.8845  0.1636
  546MOL0     H72048   7.579   6.547   2.258  2.5476  1.5249 -2.1307
  546MOL0     H72049   7.730   6.573   2.325 -0.2912 -0.3302  0.9054
  546MOL0     H72050   7.583   6.327   2.440 -0.0344  0.7462  1.7943
  546MOL0     H72051   7.734   6.406   2.484  0.2937 -1.8873 -1.5822
  546MOL0     H72052   7.469   6.531   2.475 -1.7706 -3.5994  1.8234
  546MOL0     H72053   7.611   6.614   2.550  0.8201  0.3538  2.3018
  546MOL0     H72054   8.360   6.603   2.360 -0.9026 -0.2447  0.6581
  546MOL0     H72055   8.579   6.680   2.455 -0.2786  0.1544 -0.6583
  546MOL0     H72056   9.039   6.548   2.633  1.8690  0.0039  0.0930
  546MOL0     H72057   9.202   6.690   2.720  0.6257 -1.4508 -0.3598
  546MOL0     H72058  10.734   7.673   2.037 -0.6528 -3.8681  1.7012
  546MOL0     H72059  10.933   7.796   1.982  2.4460  0.4763 -1.1170
  546MOL0     H72060  11.339   7.742   1.537 -0.1040 -3.0851  0.7940
  546MOL0     H72061  11.578   7.828   1.488 -2.7428 -0.9893 -0.9589
  546MOL0     H72062  11.775   8.005   1.491  3.3807 -0.6394 -1.3425
  546MOL0     H72063  11.787   7.820   1.491  0.8205 -0.4684 -1.4133
  546MOL0     H72064  11.999   7.952   1.476 -0.6637 -1.0805  0.2120
  546MOL0     H72065  11.972   8.026   1.637  2.1971  0.2760  0.1223
  546MOL0     H72066  11.976   7.719   1.590 -2.0941 -0.3306  0.2248
  546MOL0     H72067  11.982   7.813   1.742 -0.0217  2.0180  0.1381
  546MOL0     H72068  12.215   7.733   1.570  2.6881  1.0400 -0.5498
  546MOL0     H72069  12.212   7.902   1.614 -0.0679  0.4988  1.4917
  546MOL0     H72070  12.310   7.769   1.980 -2.9743  0.0918  0.5098
  546MOL0     H72071  11.618   7.908   1.904 -1.9423 -1.3450  2.4543
  546MOL0     H72072  11.390   7.804   1.948 -2.0687 -3.5639 -1.8080
  547MOL0     O72073   8.082  10.086   9.374 -0.2977  0.3566  0.5126
  547MOL0     C72074   8.097  10.184   9.300 -0.1945 -0.6079 -0.2905
  547MOL0     O72075   7.996  10.271   9.249  0.4861  0.5592  0.9341
  547MOL0     C72076   7.871  10.232   9.289  0.0474  1.0840  0.5552
  547MOL0     C72077   7.808  10.131   9.220  0.5642 -0.4616  0.1688
  547MOL0     C72078   7.687  10.082   9.250  0.5265 -0.1582 -0.2937
  547MOL0     C72079   7.613  10.156   9.348  0.1771  0.0646  0.5139
  547MOL0     O72080   7.483  10.109   9.374  0.4222  0.3009  0.3999
  547MOL0     C72081   7.400  10.181   9.460  0.8397 -0.8611  0.1923
  547MOL0     C72082   7.360  10.314   9.394 -0.4500 -0.5128  0.0536
  547MOL0     C72083   7.339  10.423   9.494 -0.4628  0.7902  0.0903
  547MOL0     C72084   7.279  10.538   9.420  0.0508 -0.5700  0.5101
  547MOL0     C72085   7.123  10.523   9.414 -0.7087 -0.0690  1.3536
  547MOL0     C72086   7.030  10.564   9.526 -0.5052  0.1265  1.3041
  547MOL0     C72087   6.885  10.516   9.506  0.2778  0.0249 -0.0013
  547MOL0     C72088   6.794  10.525   9.635 -0.0988 -0.1214 -1.2764
  547MOL0     N72089   6.657  10.482   9.627  1.0814  0.6700 -0.5591
  547MOL0     C72090   6.605  10.377   9.548 -0.3346 -0.4502 -0.2411
  547MOL0     C72091   6.469  10.391   9.553  0.5577 -0.1238  0.1343
  547MOL0     C72092   6.356  10.311   9.480  0.3292  0.3990 -0.2777
  547MOL0     C72093   6.222  10.301   9.559  0.0785 -0.3858  0.0433
  547MOL0     C72094   6.108  10.250   9.480 -0.3123  0.5779 -0.2256
  547MOL0     C72095   5.982  10.280   9.561  0.8171  0.6840 -0.3032
  547MOL0     O72096   5.963  10.422   9.584  0.0985  0.6439 -0.8038
  547MOL0     C72097   5.864  10.498   9.521 -1.1295  0.0173  0.1062
  547MOL0     C72098   5.876  10.636   9.544  0.7253  0.0493  0.2800
  547MOL0     C72099   5.795  10.726   9.463  0.8924 -0.2366 -0.6563
  547MOL0     C72100   5.711  10.675   9.360  0.5513 -0.2613 -0.9443
  547MOL0     C72101   5.636  10.769   9.272  0.4821  1.4052  0.6619
  547MOL0     O72102   5.572  10.717   9.164  0.2079 -0.0827 -0.0438
  547MOL0     C72103   5.493  10.794   9.081  0.6095  0.0398 -0.6688
  547MOL0     C72104   5.505  10.779   8.941  0.2153 -0.1840 -0.0959
  547MOL0     C72105   5.428  10.858   8.864  0.3353 -0.3313  0.0323
  547MOL0     C72106   5.335  10.950   8.912 -0.4997 -0.2921  0.2042
  547MOL0     O72107   5.253  11.014   8.827 -0.0520  0.3049 -0.1282
  547MOL0     C72108   5.188  10.933   8.729 -0.2321  1.0188  0.5160
  547MOL0     C72109   5.069  11.000   8.682 -1.0141  0.6650  0.1513
  547MOL0     C72110   4.957  10.980   8.783 -0.1933  0.3635  0.3559
  547MOL0     C72111   4.836  11.071   8.734 -0.0808  0.2374 -0.5893
  547MOL0     C72112   4.740  10.998   8.644 -1.1468  0.5063  1.0923
  547MOL0     C72113   4.638  11.097   8.587  0.9562 -0.3750  0.3145
  547MOL0     C72114   4.570  11.020   8.474  0.1210 -0.6073 -0.6119
  547MOL0     C72115   4.474  11.129   8.420 -0.3193  1.1890  0.2476
  547MOL0    Cl72116   4.355  11.066   8.298 -0.2225  0.1377 -0.7176
  547MOL0     C72117   5.332  10.978   9.050 -0.0966  0.8186  0.0613
  547MOL0     C72118   5.415  10.901   9.133 -0.0743 -0.5068 -0.1653
  547MOL0     O72119   5.641  10.886   9.288 -0.1887 -0.1480 -0.2321
  547MOL0     C72120   5.690  10.540   9.346 -1.6128  0.7953 -0.3410
  547MOL0     C72121   5.769  10.452   9.426 -1.0513  0.6199  0.9605
  547MOL0     N72122   6.446  10.506   9.621 -0.1309 -0.2427 -0.6190
  547MOL0     N72123   6.552  10.559   9.670 -0.0701 -0.2119  0.4016
  547MOL0     C72124   7.679  10.253   9.422  0.5853 -0.2452  0.0153
  547MOL0     C72125   7.811  10.284   9.398  0.3416 -0.0677 -0.3032
  547MOL0     C72126   8.240  10.221   9.259  1.2613  0.0638 -1.1846
  547MOL0     C72127   8.268  10.333   9.173 -0.2608 -0.4837 -0.3320
  547MOL0     C72128   8.404  10.366   9.143  0.8528 -0.2873  0.5872
  547MOL0     C72129   8.512  10.289   9.193 -0.0719 -0.7834  0.8270
  547MOL0     O72130   8.640  10.341   9.169  0.7825  1.1938 -0.1791
  547MOL0     C72131   8.756  10.259   9.217  0.0132 -0.8962 -0.0322
  547MOL0     C72132   8.854  10.213   9.103 -1.1028  0.2389  0.8520
  547MOL0     C72133   8.788  10.157   8.981 -0.4262  0.2880  0.2860
  547MOL0     C72134   8.883  10.119   8.873 -1.0090 -0.2305  0.1389
  547MOL0     C72135   8.804  10.095   8.755 -0.1338 -0.3835  0.1840
  547MOL0     C72136   8.751  10.086   8.648  0.3158 -0.2453  0.0091
  547MOL0     C72137   8.479  10.178   9.274  0.1886 -0.0899  0.1111
  547MOL0     C72138   8.350  10.147   9.305 -0.0142 -0.9884  0.1982
  547MOL0     H72139   7.867  10.081   9.144 -1.6209 -0.5593 -1.5789
  547MOL0     H72140   7.645  10.010   9.180 -0.1055  0.4423 -0.5487
  547MOL0     H72141   7.449  10.210   9.553 -1.5112  2.2686  0.6303
  547MOL0     H72142   7.310  10.122   9.481  0.0834  0.7424  1.7205
  547MOL0     H72143   7.264  10.278   9.357 -1.4206  0.7493  1.2637
  547MOL0     H72144   7.433  10.340   9.316 -0.8100  1.9637  0.4731
  547MOL0     H72145   7.435  10.437   9.545 -0.2845  2.7114 -0.7121
  547MOL0     H72146   7.264  10.384   9.564  0.0995  0.8059  0.7207
  547MOL0     H72147   7.299  10.634   9.469 -0.7004  0.5169 -1.1982
  547MOL0     H72148   7.327  10.544   9.322  0.4438  0.7983  0.7679
  547MOL0     H72149   7.100  10.420   9.386  3.7935 -0.5502 -1.5853
  547MOL0     H72150   7.092  10.583   9.328  0.3585 -0.4977  0.6396
  547MOL0     H72151   7.038  10.670   9.551  1.3528  0.4322 -0.3050
  547MOL0     H72152   7.067  10.504   9.609  0.2448 -3.1338 -1.1815
  547MOL0     H72153   6.838  10.583   9.433 -1.0596  1.4266  2.0561
  547MOL0     H72154   6.877  10.415   9.463 -1.1248 -2.0113  4.4353
  547MOL0     H72155   6.773  10.626   9.671 -0.3453  0.2331 -2.3778
  547MOL0     H72156   6.835  10.470   9.720 -1.8756 -0.9545 -0.9173
  547MOL0     H72157   6.674  10.304   9.505  1.8902  1.0270  0.6200
  547MOL0     H72158   6.394  10.212   9.455 -0.3878 -0.1555  0.7678
  547MOL0     H72159   6.323  10.369   9.393 -0.0890  4.4619  2.3331
  547MOL0     H72160   6.190  10.399   9.597 -2.1329 -0.8429 -0.4956
  547MOL0     H72161   6.249  10.236   9.642  4.1373  2.0265  0.8797
  547MOL0     H72162   6.091  10.300   9.385 -0.2756  1.2529  0.1179
  547MOL0     H72163   6.127  10.145   9.458  2.6045  0.9887  0.0386
  547MOL0     H72164   5.994  10.235   9.661  5.0132  0.2234 -0.8597
  547MOL0     H72165   5.899  10.231   9.509  3.9057 -1.9384 -3.1983
  547MOL0     H72166   5.948  10.675   9.615  0.8315  1.1643 -0.3983
  547MOL0     H72167   5.816  10.828   9.495 -0.5851 -0.5716  1.6051
  547MOL0     H72168   5.574  10.707   8.897  0.8427  0.0722  0.4547
  547MOL0     H72169   5.443  10.851   8.756  1.2497 -0.2842  0.1511
  547MOL0     H72170   5.159  10.836   8.771 -2.8546  0.0348 -3.1344
  547MOL0     H72171   5.248  10.919   8.639  0.2802 -2.1866  1.2191
  547MOL0     H72172   5.046  10.959   8.583  3.6438  1.1766 -1.3774
  547MOL0     H72173   5.094  11.107   8.680  2.3228 -0.0256 -0.0824
  547MOL0     H72174   4.979  11.009   8.886 -0.0512  0.8686  0.1898
  547MOL0     H72175   4.930  10.874   8.780 -1.1846  0.6225 -1.2330
  547MOL0     H72176   4.784  11.105   8.824  1.2916  2.7780 -0.6706
  547MOL0     H72177   4.886  11.156   8.686  2.1067  0.2873  1.5288
  547MOL0     H72178   4.695  10.910   8.692 -0.2855 -0.1586  0.7192
  547MOL0     H72179   4.798  10.969   8.556  2.4944 -0.2513  3.5001
  547MOL0     H72180   4.694  11.184   8.553  1.7474  0.2815  3.0441
  547MOL0     H72181   4.563  11.125   8.662  0.7026 -1.2063  0.3819
  547MOL0     H72182   4.642  11.008   8.392 -0.3960  3.0951 -1.8063
  547MOL0     H72183   4.532  10.927   8.517 -0.7540 -0.1179 -0.3216
  547MOL0     H72184   4.519  11.215   8.369 -0.5392  2.2613  1.7888
  547MOL0     H72185   4.414  11.167   8.504 -3.5803 -2.0848 -0.3843
  547MOL0     H72186   5.272  11.057   9.093 -1.4231 -0.6040  0.9303
  547MOL0     H72187   5.414  10.929   9.238  1.1152  0.7433 -0.4636
  547MOL0     H72188   5.627  10.499   9.268 -2.3929  0.7728  0.2959
  547MOL0     H72189   5.761  10.345   9.414 -0.0540  0.5247  1.0314
  547MOL0     H72190   7.638  10.319   9.499  1.4437 -0.1981  0.4387
  547MOL0     H72191   7.860  10.363   9.455  0.3648  0.6166 -1.2378
  547MOL0     H72192   8.192  10.402   9.137  1.9115  2.5773  0.4965
  547MOL0     H72193   8.424  10.448   9.075 -0.3261 -1.9176 -1.8771
  547MOL0     H72194   8.743  10.178   9.289  1.9905  0.2559  1.7204
  547MOL0     H72195   8.819  10.334   9.267 -1.4939  4.0410 -4.5395
  547MOL0     H72196   8.898  10.303   9.060 -0.6146 -0.4037 -0.0518
  547MOL0     H72197   8.925  10.141   9.146  0.5478  2.5441  2.1948
  547MOL0     H72198   8.713  10.228   8.943 -1.9030 -0.7627  1.1642
  547MOL0     H72199   8.726  10.077   9.021  1.3748 -1.4627 -0.2811
  547MOL0     H72200   8.957  10.199   8.863 -0.4166 -0.7418  0.3485
  547MOL0     H72201   8.948  10.036   8.903  0.6729  0.9987  0.0111
  547MOL0     H72202   8.708  10.091   8.550 -2.1048 -1.8925  0.8713
  547MOL0     H72203   8.553  10.126   9.334 -0.3060 -1.9754 -0.8239
  547MOL0     H72204   8.331  10.068   9.378 -3.0111 -0.1948  0.4025
  548MOL0     O72205  10.962   9.639  10.505 -0.1691  0.5930 -0.1775
  548MOL0     C72206  11.068   9.627  10.441  0.8459  0.8358 -0.5389
  548MOL0     O72207  11.087   9.672  10.311 -0.4246  0.1285  0.3693
  548MOL0     C72208  10.975   9.677  10.233  0.0806 -1.1063  0.7059
  548MOL0     C72209  10.955   9.800  10.166 -0.1983  0.5102  0.4143
  548MOL0     C72210  10.858   9.805  10.075  0.5016 -0.3256 -0.2976
  548MOL0     C72211  10.785   9.691  10.031 -0.3641  0.6510  0.0760
  548MOL0     O72212  10.697   9.677   9.937  0.3880 -0.6051  0.4273
  548MOL0     C72213  10.638   9.798   9.872 -0.1375  0.0650 -0.3918
  548MOL0     C72214  10.719   9.810   9.740  0.3920  0.5488  0.9695
  548MOL0     C72215  10.643   9.924   9.665  0.3841  0.3053  0.7371
  548MOL0     C72216  10.730  10.047   9.651 -0.5389  1.6446 -0.2588
  548MOL0     C72217  10.671  10.134   9.540 -0.2906  0.1386  0.7549
  548MOL0     C72218  10.740  10.262   9.538  0.2045 -0.4064 -0.6581
  548MOL0     C72219  10.896  10.265   9.541  0.3082 -0.0693 -0.1805
  548MOL0     C72220  10.963  10.204   9.416 -0.5986  0.3972  0.5216
  548MOL0     N72221  10.901  10.272   9.295  0.5264 -0.2659 -0.2724
  548MOL0     C72222  10.908  10.413   9.284  0.1606  0.5128  0.3756
  548MOL0     C72223  10.885  10.435   9.158  1.2663 -0.5732  0.7688
  548MOL0     C72224  10.876  10.570   9.083 -0.3414  0.1115 -0.6067
  548MOL0     C72225  10.943  10.549   8.943  0.0863 -0.2305 -0.4157
  548MOL0     C72226  10.977  10.682   8.881  0.3420  0.1897 -0.4560
  548MOL0     C72227  10.873  10.772   8.832 -0.0491 -0.5478  1.0532
  548MOL0     O72228  10.779  10.700   8.757  0.0964 -0.2797  0.3611
  548MOL0     C72229  10.646  10.705   8.781  0.4408  0.7912 -0.7129
  548MOL0     C72230  10.587  10.591   8.843  0.8175 -0.4404 -0.7867
  548MOL0     C72231  10.451  10.602   8.877  0.2469  0.5278 -0.7494
  548MOL0     C72232  10.374  10.718   8.855 -0.7835 -0.3267 -0.7581
  548MOL0     C72233  10.233  10.728   8.907  0.0653  1.1338 -0.7954
  548MOL0     O72234  10.163  10.834   8.861 -0.8818  1.2111 -0.4040
  548MOL0     C72235  10.046  10.867   8.929 -0.3569  1.3939  0.7403
  548MOL0     C72236  10.039  10.985   8.996  0.3407  0.2228 -0.3386
  548MOL0     C72237   9.923  11.000   9.082 -0.7711  0.6373  0.2070
  548MOL0     C72238   9.809  10.918   9.066 -0.8277 -0.1664  0.2112
  548MOL0     O72239   9.711  10.971   9.144  0.1253  0.3356  0.4898
  548MOL0     C72240   9.590  10.895   9.125 -0.3228  0.4671  0.1002
  548MOL0     C72241   9.482  10.957   9.197  0.0310  0.0592 -1.5401
  548MOL0     C72242   9.359  10.869   9.195 -0.5537 -0.1538 -0.2137
  548MOL0     C72243   9.247  10.935   9.258  0.6484 -0.2934 -0.5482
  548MOL0     C72244   9.123  10.845   9.255  0.0202  0.2616 -0.4814
  548MOL0     C72245   9.130  10.730   9.358 -0.1564  0.0886  0.4926
  548MOL0     C72246   9.008  10.634   9.353  0.0484 -0.6593 -0.4075
  548MOL0     C72247   9.027  10.497   9.420  0.1052 -0.7954 -0.3378
  548MOL0    Cl72248   9.148  10.393   9.344  0.2454  0.5139 -0.0728
  548MOL0     C72249   9.820  10.799   8.994  0.5532  0.3241  0.4189
  548MOL0     C72250   9.941  10.776   8.923  0.3771  0.2491  0.1906
  548MOL0     O72251  10.194  10.643   8.986 -0.4121 -0.2647  0.1131
  548MOL0     C72252  10.436  10.832   8.795 -0.4089 -0.4707 -0.9681
  548MOL0     C72253  10.573  10.825   8.758  0.0440 -0.2107  0.1332
  548MOL0     N72254  10.848  10.307   9.093 -0.5978 -0.4010 -0.5972
  548MOL0     N72255  10.859  10.211   9.181  0.1882  0.1690  0.4841
  548MOL0     C72256  10.789   9.579  10.114 -0.2936  0.1828 -0.4665
  548MOL0     C72257  10.880   9.579  10.216 -0.2748  1.3688  0.0206
  548MOL0     C72258  11.193   9.601  10.521  0.3338  0.1938  0.3190
  548MOL0     C72259  11.182   9.564  10.654 -0.1864 -0.1251  0.0638
  548MOL0     C72260  11.286   9.523  10.730  0.1917 -0.9945 -0.4506
  548MOL0     C72261  11.419   9.531  10.676  0.2881 -0.1341  0.8244
  548MOL0     O72262  11.513   9.491  10.768  1.0404 -0.5339  0.2127
  548MOL0     C72263  11.645   9.472  10.723 -0.3258 -0.1920  0.5961
  548MOL0     C72264  11.748   9.430  10.832  0.4426  0.7975 -1.0127
  548MOL0     C72265  11.772   9.547  10.926 -0.2627 -0.3370 -0.3497
  548MOL0     C72266  11.907   9.528  11.000  0.5332 -1.5757  0.3123
  548MOL0     C72267  12.019   9.568  10.909 -0.0838 -0.3307 -0.7334
  548MOL0     C72268  12.116   9.600  10.847 -0.1114 -0.0060  0.1658
  548MOL0     C72269  11.436   9.561  10.542  0.0274  0.1415  0.0195
  548MOL0     C72270  11.328   9.597  10.466 -0.3387 -0.1705  0.4979
  548MOL0     H72271  11.029   9.876  10.188  0.9631 -0.7742  1.1314
  548MOL0     H72272  10.860   9.894  10.012 -1.4467  1.1005  1.4947
  548MOL0     H72273  10.638   9.885   9.939  2.7230  0.5824 -0.9265
  548MOL0     H72274  10.536   9.772   9.841  0.2209  2.3814 -4.0805
  548MOL0     H72275  10.706   9.717   9.682 -3.0501  2.3323 -1.4473
  548MOL0     H72276  10.824   9.829   9.765  0.2673 -2.5089  4.7858
  548MOL0     H72277  10.545   9.962   9.695 -1.9955 -0.3051 -4.9006
  548MOL0     H72278  10.636   9.884   9.563  1.6916 -1.5481  1.3299
  548MOL0     H72279  10.738  10.090   9.752  0.7158  0.5576  0.1340
  548MOL0     H72280  10.831  10.009   9.632 -0.8215 -1.1721  2.9477
  548MOL0     H72281  10.565  10.157   9.554 -0.5744 -0.7621  0.1934
  548MOL0     H72282  10.693  10.082   9.447  1.9978 -1.3470  2.0393
  548MOL0     H72283  10.715  10.305   9.635  1.0676  2.5450 -1.6395
  548MOL0     H72284  10.711  10.332   9.460 -0.6380  1.2320  1.0486
  548MOL0     H72285  10.923  10.369   9.563 -2.5813  0.8293 -0.4782
  548MOL0     H72286  10.934  10.220   9.633  1.6258  0.7480 -0.2862
  548MOL0     H72287  10.934  10.099   9.403 -1.4839  0.9395 -2.4577
  548MOL0     H72288  11.070  10.223   9.428 -0.1863 -0.8790 -0.8838
  548MOL0     H72289  10.924  10.489   9.359 -4.4012  0.9604  1.1498
  548MOL0     H72290  10.936  10.647   9.132  2.4760 -0.7265 -2.5524
  548MOL0     H72291  10.773  10.609   9.079  0.2438  2.1218  1.5846
  548MOL0     H72292  10.895  10.483   8.871  0.1829 -0.9735  0.1848
  548MOL0     H72293  11.040  10.501   8.961 -0.3357 -1.6708 -1.7562
  548MOL0     H72294  11.044  10.734   8.950 -0.4144 -1.8450  1.9774
  548MOL0     H72295  11.024  10.647   8.788  0.6966  1.4735 -0.7722
  548MOL0     H72296  10.912  10.846   8.762 -2.2436 -3.4762 -3.7934
  548MOL0     H72297  10.830  10.825   8.918 -1.7554  0.1395 -0.1638
  548MOL0     H72298  10.650  10.504   8.857 -0.9764 -1.5853  0.6002
  548MOL0     H72299  10.406  10.510   8.914 -0.3651  0.2564 -2.1199
  548MOL0     H72300  10.111  11.065   9.009 -0.4863  0.8007  0.8784
  548MOL0     H72301   9.924  11.088   9.146 -1.3800  0.5242  0.3771
  548MOL0     H72302   9.605  10.791   9.156 -0.0397  0.1821 -0.9393
  548MOL0     H72303   9.557  10.878   9.022 -3.5832 -0.0427  1.0982
  548MOL0     H72304   9.455  11.052   9.151  0.9338  1.7264  1.1711
  548MOL0     H72305   9.503  10.977   9.302 -0.7716  0.0012 -1.3620
  548MOL0     H72306   9.380  10.776   9.249  0.3678  0.4507  0.4992
  548MOL0     H72307   9.335  10.849   9.090  2.0713 -1.2345 -0.6792
  548MOL0     H72308   9.280  10.946   9.362 -1.7498 -0.6845  0.3267
  548MOL0     H72309   9.221  11.038   9.230  0.9971 -0.8089 -2.9483
  548MOL0     H72310   9.102  10.798   9.159 -1.5374 -1.4461  0.6273
  548MOL0     H72311   9.039  10.906   9.288 -0.3331  0.2705 -1.3917
  548MOL0     H72312   9.145  10.775   9.457 -0.1483  0.2716  0.4083
  548MOL0     H72313   9.211  10.664   9.325  1.1655  2.3379 -1.0307
  548MOL0     H72314   8.927  10.689   9.402  0.0750 -1.1620  0.2131
  548MOL0     H72315   8.964  10.627   9.254  0.8695 -0.2799 -0.8157
  548MOL0     H72316   8.934  10.439   9.419  0.3941 -1.2733 -0.1867
  548MOL0     H72317   9.058  10.508   9.524  6.0358  2.5686 -1.9761
  548MOL0     H72318   9.741  10.726   8.980 -0.0027  0.4868  2.4743
  548MOL0     H72319   9.944  10.684   8.866 -0.3906  0.5919 -0.4255
  548MOL0     H72320  10.373  10.918   8.772 -3.0119 -1.8976  0.4051
  548MOL0     H72321  10.622  10.920   8.739 -0.2988  0.3099  1.6405
  548MOL0     H72322  10.727   9.493  10.092  1.9663 -1.2900 -1.5102
  548MOL0     H72323  10.888   9.482  10.263 -1.0285 -0.5409 -3.4550
  548MOL0     H72324  11.082   9.569  10.696 -0.9375 -3.3017 -1.0761
  548MOL0     H72325  11.265   9.506  10.836  0.5792 -1.2451 -0.4102
  548MOL0     H72326  11.670   9.565  10.671 -1.8898 -0.2459 -0.3389
  548MOL0     H72327  11.652   9.397  10.644  1.6463  0.7867 -0.2224
  548MOL0     H72328  11.726   9.339  10.889  2.1848  1.3229  0.6078
  548MOL0     H72329  11.834   9.405  10.769  1.1189 -0.9916  0.5113
  548MOL0     H72330  11.684   9.560  10.989 -0.7414 -0.9599 -0.8716
  548MOL0     H72331  11.771   9.637  10.864 -1.0503 -0.5037 -0.5900
  548MOL0     H72332  11.905   9.584  11.094 -0.5259 -2.1692  0.6589
  548MOL0     H72333  11.914   9.423  11.029  1.5737 -1.3254  1.0319
  548MOL0     H72334  12.199   9.615  10.781 -0.0622  2.4921  0.6763
  548MOL0     H72335  11.538   9.541  10.511 -0.2733 -1.7555  0.1752
  548MOL0     H72336  11.348   9.628  10.364  1.5308  0.6615  1.0644
  549MOL0     O72337   1.096   5.605   6.806  0.2752 -0.2258 -0.1639
  549MOL0     C72338   1.171   5.631   6.712 -0.4278 -1.5254 -1.4790
  549MOL0     O72339   1.215   5.544   6.615 -0.1688  0.2982 -0.1565
  549MOL0     C72340   1.145   5.427   6.596  0.2135  1.0010 -0.2391
  549MOL0     C72341   1.005   5.399   6.612 -0.6823 -0.1317 -0.3466
  549MOL0     C72342   0.937   5.285   6.556 -0.4495  0.9235 -0.5518
  549MOL0     C72343   1.016   5.192   6.486  0.0417  0.1700 -0.8466
  549MOL0     O72344   0.959   5.077   6.434  0.4252 -0.0193 -0.2528
  549MOL0     C72345   0.829   5.032   6.496 -0.9134 -1.1163 -0.3758
  549MOL0     C72346   0.774   4.910   6.427  0.1177 -0.0448  0.3537
  549MOL0     C72347   0.627   4.902   6.448 -0.3476  0.2273 -0.4037
  549MOL0     C72348   0.583   4.757   6.433 -0.5714 -0.0156  0.0492
  549MOL0     C72349   0.427   4.751   6.443 -1.2283 -0.7149  0.5918
  549MOL0     C72350   0.373   4.619   6.390  0.5856 -0.6467  0.8733
  549MOL0     C72351   0.218   4.623   6.397 -0.4486  0.7234 -0.4663
  549MOL0     C72352   0.173   4.620   6.546  0.0945 -0.4406 -0.4675
  549MOL0     N72353   0.046   4.556   6.555 -0.2705  0.3856  0.5402
  549MOL0     C72354   0.026   4.435   6.512 -0.0038  1.0049  0.5551
  549MOL0     C72355  -0.109   4.419   6.507  0.6955 -0.0798  0.5542
  549MOL0     C72356  -0.187   4.290   6.468  0.3352 -0.6325  1.0158
  549MOL0     C72357  -0.156   4.263   6.320 -0.0659  0.1976  0.2420
  549MOL0     C72358  -0.188   4.382   6.236 -0.6361  0.4971  0.2673
  549MOL0     C72359  -0.185   4.382   6.084  0.4002  0.6429  0.1879
  549MOL0     O72360  -0.060   4.354   6.035 -1.4919  0.1976  0.3803
  549MOL0     C72361   0.046   4.456   6.032  1.6603 -0.7640  0.2786
  549MOL0     C72362   0.178   4.408   6.006 -0.5759  0.0053 -0.2416
  549MOL0     C72363   0.290   4.505   6.011  0.6453  0.2678 -0.1198
  549MOL0     C72364   0.266   4.641   6.024  0.5565  0.0941 -0.5824
  549MOL0     C72365   0.375   4.739   6.017  0.4508  0.6914  0.0878
  549MOL0     O72366   0.347   4.872   6.039 -0.1862  0.1926  1.2213
  549MOL0     C72367   0.444   4.969   6.061 -0.6401  0.2679 -0.4625
  549MOL0     C72368   0.399   5.080   6.126  0.8108  0.0988  0.5067
  549MOL0     C72369   0.480   5.183   6.150 -0.4235 -0.1932  0.9986
  549MOL0     C72370   0.615   5.182   6.097 -0.4181 -0.9034  0.1095
  549MOL0     O72371   0.678   5.302   6.109 -0.2584  0.1206 -0.6116
  549MOL0     C72372   0.768   5.349   6.009  0.8559 -0.8272  0.0013
  549MOL0     C72373   0.685   5.413   5.897 -0.1636 -0.9223  0.4282
  549MOL0     C72374   0.599   5.525   5.970 -0.3931 -0.3043  0.0479
  549MOL0     C72375   0.507   5.612   5.875  0.6446 -0.3193  0.2110
  549MOL0     C72376   0.403   5.696   5.953  0.3398 -0.2577 -0.1312
  549MOL0     C72377   0.312   5.772   5.863 -0.3712  0.0462  0.1146
  549MOL0     C72378   0.192   5.837   5.933 -0.1239  0.7812  0.0276
  549MOL0     C72379   0.227   5.955   6.025  0.2624 -0.5818  0.7246
  549MOL0    Cl72380   0.075   6.013   6.099 -0.2257 -0.4368 -0.2577
  549MOL0     C72381   0.655   5.074   6.026 -0.9097 -0.2202  0.0723
  549MOL0     C72382   0.575   4.965   6.008  0.2205 -0.3199  0.2358
  549MOL0     O72383   0.485   4.690   5.987 -0.0133 -0.6877  0.2276
  549MOL0     C72384   0.128   4.674   6.060 -0.3579 -0.0158  1.2107
  549MOL0     C72385   0.021   4.588   6.061  1.6421 -0.9423  0.0666
  549MOL0     N72386  -0.167   4.533   6.537  0.4892 -0.8653 -0.5542
  549MOL0     N72387  -0.074   4.622   6.566 -0.6425 -0.7487  0.0409
  549MOL0     C72388   1.152   5.215   6.471  0.3498 -0.0346  0.0797
  549MOL0     C72389   1.210   5.328   6.522  0.3802  0.7876 -0.9428
  549MOL0     C72390   1.238   5.763   6.709  0.1783 -0.4729  0.1096
  549MOL0     C72391   1.351   5.791   6.635 -0.1256  0.6334 -0.4792
  549MOL0     C72392   1.406   5.921   6.628 -0.2984  0.5637  0.4730
  549MOL0     C72393   1.336   6.026   6.678 -0.0439  0.3464 -0.1957
  549MOL0     O72394   1.371   6.156   6.642 -0.1120  0.1372 -0.2097
  549MOL0     C72395   1.310   6.174   6.504 -0.1872  0.4537  0.2392
  549MOL0     C72396   1.414   6.182   6.408 -0.5496  0.6565 -0.2092
  549MOL0     C72397   1.498   6.312   6.433 -0.0104 -0.5712  0.7345
  549MOL0     C72398   1.627   6.297   6.356  0.2754 -0.1779 -0.6763
  549MOL0     C72399   1.604   6.281   6.213 -0.7809  0.0724 -0.0212
  549MOL0     C72400   1.602   6.275   6.088 -0.3693  0.9858 -0.4198
  549MOL0     C72401   1.220   5.999   6.761 -0.5829 -0.3960  1.0434
  549MOL0     C72402   1.176   5.870   6.775 -0.1462  0.5011  0.7057
  549MOL0     H72403   0.947   5.488   6.637  1.4827  1.0299  0.8463
  549MOL0     H72404   0.829   5.288   6.558 -0.4732  0.0263  1.4544
  549MOL0     H72405   0.759   5.115   6.482 -2.5169 -2.6100 -1.6525
  549MOL0     H72406   0.843   5.016   6.603 -0.7079 -1.4163 -0.4461
  549MOL0     H72407   0.811   4.814   6.466  1.5882  0.5719  0.5454
  549MOL0     H72408   0.804   4.923   6.322 -1.9210  1.5542 -0.0959
  549MOL0     H72409   0.576   4.970   6.379 -0.7658 -1.3831 -1.7425
  549MOL0     H72410   0.597   4.933   6.549  1.4007  1.9421 -0.3518
  549MOL0     H72411   0.618   4.718   6.337 -3.0402  1.2342 -1.4678
  549MOL0     H72412   0.624   4.689   6.509  3.1807  0.2680 -1.5529
  549MOL0     H72413   0.384   4.830   6.380 -1.9828 -2.2278 -0.8694
  549MOL0     H72414   0.395   4.766   6.546  1.0332 -1.9873  1.5518
  549MOL0     H72415   0.411   4.544   6.460  4.9798  2.2888  2.0332
  549MOL0     H72416   0.402   4.601   6.286  1.8031 -0.9263  1.2439
  549MOL0     H72417   0.170   4.710   6.351  1.4664  2.4512  0.6173
  549MOL0     H72418   0.181   4.537   6.341 -2.4616  1.0008  0.3543
  549MOL0     H72419   0.161   4.718   6.595  2.2646 -1.0644  1.4783
  549MOL0     H72420   0.249   4.576   6.611  1.6026  1.0078 -1.1498
  549MOL0     H72421   0.098   4.357   6.489 -2.0894 -1.7476  2.5537
  549MOL0     H72422  -0.291   4.321   6.477  0.6473 -0.0274  2.9160
  549MOL0     H72423  -0.159   4.202   6.527  4.3064 -1.1496 -1.2871
  549MOL0     H72424  -0.218   4.183   6.278  0.4989  0.3362 -0.8894
  549MOL0     H72425  -0.052   4.236   6.301  0.3081  0.8120  1.3542
  549MOL0     H72426  -0.288   4.418   6.259 -2.8923 -1.6290 -4.8115
  549MOL0     H72427  -0.117   4.464   6.250  1.1598 -0.4582 -2.4188
  549MOL0     H72428  -0.223   4.477   6.046  1.4717  0.7181 -0.7693
  549MOL0     H72429  -0.272   4.321   6.057 -0.7210  1.3546  2.0001
  549MOL0     H72430   0.186   4.304   5.978  0.1891  0.0857 -0.3402
  549MOL0     H72431   0.393   4.472   6.023  0.5441  0.0580  0.1779
  549MOL0     H72432   0.297   5.082   6.162  0.8244 -1.5765  0.7181
  549MOL0     H72433   0.439   5.266   6.207  0.0992  1.6568 -1.1592
  549MOL0     H72434   0.843   5.276   5.977  1.4421 -0.0728 -0.4119
  549MOL0     H72435   0.818   5.436   6.054  0.7950 -0.8639  0.1397
  549MOL0     H72436   0.613   5.343   5.855 -1.6714  1.5026 -1.2803
  549MOL0     H72437   0.741   5.463   5.817 -1.8319 -1.1606 -0.9313
  549MOL0     H72438   0.665   5.591   6.028 -0.8057 -2.8003  3.6529
  549MOL0     H72439   0.529   5.479   6.040 -0.7344  0.0300 -0.0726
  549MOL0     H72440   0.563   5.683   5.813  0.9484 -2.0072 -1.5499
  549MOL0     H72441   0.446   5.543   5.815  0.9271 -0.3306 -0.0644
  549MOL0     H72442   0.455   5.757   6.029 -0.1791 -0.3848  0.3332
  549MOL0     H72443   0.337   5.639   6.019 -0.3684  1.1653  0.4323
  549MOL0     H72444   0.273   5.701   5.790  2.1456 -1.7894  0.4229
  549MOL0     H72445   0.373   5.848   5.813  1.3163  0.8315  3.1321
  549MOL0     H72446   0.118   5.856   5.854 -1.6194 -0.5124  1.0534
  549MOL0     H72447   0.155   5.756   5.996  2.7566 -0.9181 -0.2445
  549MOL0     H72448   0.274   6.037   5.970  1.0458  0.9021  3.4273
  549MOL0     H72449   0.290   5.927   6.110 -3.1574 -2.4771  2.8692
  549MOL0     H72450   0.748   5.071   5.970 -1.6604 -2.2554 -1.1912
  549MOL0     H72451   0.596   4.884   5.940 -2.5925  0.0431 -1.2167
  549MOL0     H72452   0.100   4.773   6.097 -3.2826 -0.4555  0.4195
  549MOL0     H72453  -0.080   4.622   6.082  2.3329  2.4978 -1.5364
  549MOL0     H72454   1.212   5.139   6.421 -1.3013 -0.5917 -1.1407
  549MOL0     H72455   1.317   5.328   6.505  0.6350  1.2801  0.4809
  549MOL0     H72456   1.395   5.703   6.589 -1.0131 -0.2136  0.2683
  549MOL0     H72457   1.496   5.953   6.576 -0.8352  1.7151  0.2268
  549MOL0     H72458   1.244   6.261   6.508 -0.5630  0.3547 -2.2467
  549MOL0     H72459   1.248   6.090   6.473 -0.3773 -0.2619  2.3528
  549MOL0     H72460   1.466   6.086   6.411  1.0077  1.4763  0.1071
  549MOL0     H72461   1.370   6.183   6.308 -0.2224 -2.3963 -0.4743
  549MOL0     H72462   1.534   6.308   6.536  2.0422 -1.7313  0.0524
  549MOL0     H72463   1.430   6.393   6.407 -0.6978 -0.2253  3.3999
  549MOL0     H72464   1.682   6.387   6.386  1.5371 -1.7856  2.3771
  549MOL0     H72465   1.685   6.214   6.399 -0.4343 -0.8712 -1.0251
  549MOL0     H72466   1.605   6.256   5.982  1.9428 -0.0851 -0.2232
  549MOL0     H72467   1.172   6.089   6.797 -0.3577 -0.8384  2.5285
  549MOL0     H72468   1.103   5.840   6.849 -0.8608  0.5635  0.0400
  550MOL0     O72469   1.072   0.777   0.269 -0.3067 -0.1338 -0.9423
  550MOL0     C72470   1.031   0.867   0.339 -0.1773  0.5185 -0.8724
  550MOL0     O72471   0.910   0.862   0.405  0.6802 -0.5157 -0.1102
  550MOL0     C72472   0.816   0.764   0.370  0.7493  0.9708 -1.1848
  550MOL0     C72473   0.775   0.761   0.239 -0.4037 -0.8288 -0.0121
  550MOL0     C72474   0.656   0.687   0.211  0.2130 -1.6950  0.0456
  550MOL0     C72475   0.588   0.629   0.308  0.3530  0.3748  0.6258
  550MOL0     O72476   0.476   0.570   0.266  0.5113  0.1498 -0.0529
  550MOL0     C72477   0.373   0.519   0.354 -0.9568 -0.7534  0.0119
  550MOL0     C72478   0.279   0.443   0.258  0.1637 -0.0115  0.7194
  550MOL0     C72479   0.183   0.529   0.179  0.3254 -0.3468 -0.1000
  550MOL0     C72480   0.061   0.574   0.256  0.1289 -0.6689 -0.1802
  550MOL0     C72481  -0.066   0.610   0.170 -0.1813  0.3255 -0.4445
  550MOL0     C72482  -0.035   0.715   0.070 -0.8294 -0.6996  0.4373
  550MOL0     C72483  -0.161   0.770   0.007  0.1028 -0.5201 -0.6928
  550MOL0     C72484  -0.224   0.676  -0.094  0.4427  0.7920 -0.2343
  550MOL0     N72485  -0.283   0.755  -0.199 -0.0788  0.4327 -0.4869
  550MOL0     C72486  -0.246   0.759  -0.329  0.2755  1.1865 -0.7903
  550MOL0     C72487  -0.301   0.864  -0.382  0.7495 -0.1117 -0.5773
  550MOL0     C72488  -0.263   0.930  -0.511 -0.1173  0.7673  0.2024
  550MOL0     C72489  -0.370   0.957  -0.621 -0.2115 -0.1713  0.1462
  550MOL0     C72490  -0.354   0.854  -0.728  0.3169  0.3255 -0.1561
  550MOL0     C72491  -0.453   0.892  -0.835  0.3200 -0.0531 -0.4568
  550MOL0     O72492  -0.427   0.832  -0.965 -0.4416  0.3647 -0.7528
  550MOL0     C72493  -0.528   0.843  -1.060  0.2410 -0.3362 -0.4811
  550MOL0     C72494  -0.523   0.764  -1.175 -0.5750 -0.7158 -0.1742
  550MOL0     C72495  -0.617   0.752  -1.274  0.8566  0.0974  0.3643
  550MOL0     C72496  -0.741   0.808  -1.259 -0.0884 -0.8726 -0.2742
  550MOL0     C72497  -0.853   0.780  -1.346 -0.0197  0.5062 -0.4431
  550MOL0     O72498  -0.828   0.686  -1.455 -0.4447 -0.0622 -0.2326
  550MOL0     C72499  -0.931   0.642  -1.531 -0.1310  0.5035  0.8483
  550MOL0     C72500  -1.038   0.721  -1.575  0.4560 -0.7912 -0.1353
  550MOL0     C72501  -1.139   0.660  -1.660 -0.1498  0.0341 -0.4217
  550MOL0     C72502  -1.124   0.531  -1.713 -0.4247  0.6957 -0.2882
  550MOL0     O72503  -1.207   0.479  -1.808 -0.7960  0.4495 -0.6965
  550MOL0     C72504  -1.344   0.501  -1.811  0.1504  0.4153 -0.0556
  550MOL0     C72505  -1.413   0.425  -1.931  1.2299  0.8315 -0.6388
  550MOL0     C72506  -1.567   0.440  -1.918  0.5643 -1.0992  0.2788
  550MOL0     C72507  -1.626   0.378  -2.037 -0.1576  0.5960  1.0802
  550MOL0     C72508  -1.777   0.373  -2.029 -0.8562 -0.5275 -0.1557
  550MOL0     C72509  -1.822   0.298  -2.144 -0.3692 -0.0362  1.0439
  550MOL0     C72510  -1.968   0.265  -2.130 -0.5846 -0.2663  0.6761
  550MOL0     C72511  -2.011   0.166  -2.238  0.2504 -0.6257  0.5396
  550MOL0    Cl72512  -2.137   0.238  -2.345  0.2620  0.3763  0.5057
  550MOL0     C72513  -1.007   0.472  -1.683  0.3083 -0.4230 -0.8083
  550MOL0     C72514  -0.911   0.521  -1.584  0.3153  0.3379  0.8106
  550MOL0     O72515  -0.962   0.831  -1.314  0.4548  0.6418  0.2798
  550MOL0     C72516  -0.755   0.905  -1.147  0.7011  0.4517 -0.1233
  550MOL0     C72517  -0.644   0.923  -1.050  0.3873  0.6836  0.3520
  550MOL0     N72518  -0.370   0.918  -0.282  0.9523 -0.2820 -0.4305
  550MOL0     N72519  -0.373   0.852  -0.180 -0.2875 -0.2120 -0.8597
  550MOL0     C72520   0.635   0.619   0.442 -0.1487  0.3670  0.3345
  550MOL0     C72521   0.750   0.696   0.463 -0.0449  1.0912 -0.3418
  550MOL0     C72522   1.116   0.977   0.362 -0.4659 -0.0857  0.0121
  550MOL0     C72523   1.236   0.996   0.292 -0.1223  0.3324  0.0838
  550MOL0     C72524   1.331   1.094   0.312 -1.1081 -1.0533 -0.0352
  550MOL0     C72525   1.293   1.202   0.399  0.5499  0.6705 -0.5345
  550MOL0     O72526   1.364   1.321   0.412  0.1568  0.7423 -0.1650
  550MOL0     C72527   1.506   1.323   0.398 -0.0624  0.1274  0.1880
  550MOL0     C72528   1.579   1.251   0.509  0.0436  0.6728  0.7067
  550MOL0     C72529   1.533   1.276   0.646 -0.1094  0.4866  0.1386
  550MOL0     C72530   1.539   1.418   0.706 -1.1849 -0.6316 -0.8055
  550MOL0     C72531   1.666   1.488   0.676  0.5495 -0.4962 -0.0395
  550MOL0     C72532   1.771   1.556   0.659  0.5511  0.1624  0.3500
  550MOL0     C72533   1.165   1.195   0.462  0.7423 -0.4771 -0.1001
  550MOL0     C72534   1.090   1.080   0.449  0.5422 -0.4000 -0.4563
  550MOL0     H72535   0.831   0.820   0.168  0.6005 -0.9939  0.6147
  550MOL0     H72536   0.602   0.683   0.118 -0.8914 -2.5834  0.7030
  550MOL0     H72537   0.327   0.597   0.414  2.3712 -0.8779  3.0429
  550MOL0     H72538   0.422   0.453   0.426  0.9693 -0.0209 -0.5442
  550MOL0     H72539   0.215   0.376   0.316 -1.7111  0.8755 -0.2459
  550MOL0     H72540   0.326   0.367   0.195 -2.0582 -2.2330  1.5621
  550MOL0     H72541   0.155   0.478   0.086  0.4077 -0.5475 -0.0133
  550MOL0     H72542   0.233   0.619   0.142 -1.4339  0.1932 -1.3151
  550MOL0     H72543   0.029   0.495   0.325  2.1267 -1.0630  0.3633
  550MOL0     H72544   0.092   0.662   0.314 -1.6029 -0.7493  0.9473
  550MOL0     H72545  -0.155   0.622   0.233 -0.3833 -1.4060 -0.3565
  550MOL0     H72546  -0.091   0.521   0.113  0.1655 -0.0895  0.0366
  550MOL0     H72547   0.032   0.668  -0.003  0.0357 -0.4652  1.0725
  550MOL0     H72548   0.017   0.794   0.124 -0.1604  0.1259 -1.3146
  550MOL0     H72549  -0.233   0.781   0.088  1.4995 -4.2710  1.3147
  550MOL0     H72550  -0.150   0.870  -0.036 -1.1636 -0.2574 -0.4259
  550MOL0     H72551  -0.300   0.618  -0.040  2.4707 -0.8373  0.9968
  550MOL0     H72552  -0.155   0.609  -0.146 -2.3930  0.8965 -4.6612
  550MOL0     H72553  -0.158   0.708  -0.367  0.9189  2.1736 -0.6583
  550MOL0     H72554  -0.181   0.874  -0.556 -0.4998  0.1055  0.3219
  550MOL0     H72555  -0.226   1.030  -0.486 -0.1862  0.7052  0.5522
  550MOL0     H72556  -0.347   1.053  -0.667 -1.9571  0.5681  0.7303
  550MOL0     H72557  -0.464   0.969  -0.567 -0.1660  1.3259 -0.0793
  550MOL0     H72558  -0.255   0.846  -0.774  2.1217  1.2197  3.2714
  550MOL0     H72559  -0.386   0.758  -0.686  0.6923 -0.3352 -1.3248
  550MOL0     H72560  -0.465   0.998  -0.857 -2.4473 -0.7644 -3.1677
  550MOL0     H72561  -0.550   0.859  -0.796  0.7393  0.3479  1.0137
  550MOL0     H72562  -0.445   0.691  -1.195  2.7959  2.6445 -0.3605
  550MOL0     H72563  -0.594   0.689  -1.359  0.7632 -0.9190  1.0816
  550MOL0     H72564  -1.044   0.822  -1.537  1.8808 -0.7746  0.0938
  550MOL0     H72565  -1.228   0.715  -1.688 -0.7873 -0.6163  0.2937
  550MOL0     H72566  -1.372   0.605  -1.823 -0.6419  0.2826  0.5599
  550MOL0     H72567  -1.387   0.469  -1.715 -0.3118  0.6714 -0.1746
  550MOL0     H72568  -1.389   0.319  -1.926 -1.3909  0.2142  2.0761
  550MOL0     H72569  -1.381   0.461  -2.029  0.6051 -1.2294 -1.6640
  550MOL0     H72570  -1.610   0.539  -1.928  0.6060 -1.2847 -2.3834
  550MOL0     H72571  -1.601   0.403  -1.821  2.6082  0.7689  1.7872
  550MOL0     H72572  -1.597   0.427  -2.130 -2.1770 -3.2843 -1.8632
  550MOL0     H72573  -1.585   0.277  -2.047  2.2675  1.5054  0.9531
  550MOL0     H72574  -1.815   0.476  -2.026 -0.7330 -0.5070  1.2629
  550MOL0     H72575  -1.798   0.327  -1.933 -1.0863  3.1819  1.7766
  550MOL0     H72576  -1.757   0.213  -2.168  0.1357  0.6894 -0.2859
  550MOL0     H72577  -1.807   0.365  -2.229  0.6856 -1.0739  0.3725
  550MOL0     H72578  -1.988   0.220  -2.033 -1.3821  1.2702  1.2523
  550MOL0     H72579  -2.027   0.358  -2.131  0.8754  0.6977 -0.2912
  550MOL0     H72580  -2.043   0.069  -2.198 -2.7153  1.3607  3.5393
  550MOL0     H72581  -1.927   0.145  -2.305  0.5314 -0.8630  0.9601
  550MOL0     H72582  -0.976   0.373  -1.716  4.1090  0.2834  0.1408
  550MOL0     H72583  -0.835   0.449  -1.556  0.6512 -0.3240 -1.6002
  550MOL0     H72584  -0.853   0.950  -1.134  1.1785  0.5505  4.6101
  550MOL0     H72585  -0.670   0.995  -0.973  2.1790  1.5217  0.2253
  550MOL0     H72586   0.582   0.555   0.512  0.2158 -1.3117 -0.8885
  550MOL0     H72587   0.784   0.687   0.566  0.0076 -1.1291 -0.4894
  550MOL0     H72588   1.264   0.921   0.218 -3.0860 -1.2186  0.3770
  550MOL0     H72589   1.427   1.104   0.262 -0.4500 -3.4322  0.6112
  550MOL0     H72590   1.538   1.428   0.404 -0.3272  0.3206 -1.4047
  550MOL0     H72591   1.537   1.281   0.302 -0.5212  0.1667  0.0160
  550MOL0     H72592   1.561   1.145   0.489 -3.9610  1.3022  0.1015
  550MOL0     H72593   1.686   1.273   0.508 -0.4584  3.7243  1.3765
  550MOL0     H72594   1.582   1.198   0.705  1.6868 -2.8535 -5.0039
  550MOL0     H72595   1.431   1.242   0.666 -0.4288 -0.6593 -2.8762
  550MOL0     H72596   1.454   1.476   0.670 -0.6476 -1.1885 -3.1854
  550MOL0     H72597   1.533   1.406   0.814 -0.2758 -3.1312 -0.9729
  550MOL0     H72598   1.860   1.616   0.659 -0.2681  1.5130 -1.5973
  550MOL0     H72599   1.149   1.273   0.537 -3.9029 -0.1176 -1.1680
  550MOL0     H72600   0.997   1.087   0.503 -0.4334 -0.5209 -2.0501
  551MOL0     O72601   6.776   9.498  10.945 -0.6092 -0.0820 -0.0809
  551MOL0     C72602   6.882   9.524  10.900  0.6000 -0.5060  0.1533
  551MOL0     O72603   6.908   9.590  10.782  0.5945 -0.2614 -0.3732
  551MOL0     C72604   6.809   9.630  10.704  0.1121 -0.1608  1.0181
  551MOL0     C72605   6.703   9.549  10.650  0.4147 -0.3595  0.1761
  551MOL0     C72606   6.610   9.583  10.545 -0.7344 -0.0099 -0.0533
  551MOL0     C72607   6.604   9.719  10.504 -1.0031  0.1290 -1.1766
  551MOL0     O72608   6.516   9.763  10.409 -0.0647  0.3244  0.1369
  551MOL0     C72609   6.378   9.751  10.427  0.1350  0.6340 -0.0914
  551MOL0     C72610   6.321   9.721  10.291 -0.2954  0.9078 -0.1109
  551MOL0     C72611   6.170   9.733  10.298  0.5613 -0.5446  0.2428
  551MOL0     C72612   6.110   9.870  10.343 -0.0140 -0.3834  0.3892
  551MOL0     C72613   5.951   9.868  10.358  0.6638  0.7124 -1.2148
  551MOL0     C72614   5.878   9.826  10.228  0.4342 -0.4624 -0.4879
  551MOL0     C72615   5.728   9.857  10.234 -0.3395  0.8604  0.0610
  551MOL0     C72616   5.669   9.822  10.100  0.3776 -0.4575 -1.5777
  551MOL0     N72617   5.667   9.683  10.064 -1.4560 -0.2526  0.0237
  551MOL0     C72618   5.586   9.582  10.105  0.1508  0.0604  0.4120
  551MOL0     C72619   5.635   9.467  10.039 -0.2159  1.5291  0.5659
  551MOL0     C72620   5.607   9.324  10.059  0.3783  0.4542 -0.0256
  551MOL0     C72621   5.574   9.241   9.931  1.1077  0.0257  0.2731
  551MOL0     C72622   5.704   9.224   9.844  0.0673  0.9917  0.3450
  551MOL0     C72623   5.821   9.150   9.910  0.5277 -0.1304  0.7313
  551MOL0     O72624   5.783   9.015   9.939 -0.7485  0.8285  0.5268
  551MOL0     C72625   5.885   8.935   9.991 -0.3430 -0.6450  0.6013
  551MOL0     C72626   5.853   8.804  10.043 -0.5685 -1.0958 -0.2715
  551MOL0     C72627   5.951   8.729  10.114  0.5920 -0.3882 -0.8219
  551MOL0     C72628   6.072   8.780  10.143 -0.5176  1.2952 -0.2749
  551MOL0     C72629   6.165   8.685  10.221 -0.1733 -0.1140 -0.9874
  551MOL0     O72630   6.263   8.760  10.269 -0.4555 -0.2842 -0.3478
  551MOL0     C72631   6.361   8.709  10.346  0.2903  0.9103 -0.0314
  551MOL0     C72632   6.497   8.755  10.312  0.2732 -0.0628  0.3430
  551MOL0     C72633   6.609   8.701  10.381  0.2108  0.0395 -0.1762
  551MOL0     C72634   6.587   8.631  10.509  0.1648  0.0387  0.0902
  551MOL0     O72635   6.679   8.583  10.591 -0.2114  0.8902 -0.5773
  551MOL0     C72636   6.817   8.621  10.568 -0.5962  0.2423  0.1153
  551MOL0     C72637   6.913   8.592  10.688  0.3883 -0.1073  0.4890
  551MOL0     C72638   7.056   8.638  10.662 -0.4780 -0.6822 -0.0036
  551MOL0     C72639   7.059   8.789  10.688 -0.3405 -1.2311 -0.6079
  551MOL0     C72640   7.209   8.833  10.677 -0.5028 -0.0036  0.7068
  551MOL0     C72641   7.288   8.829  10.808  0.0147  0.0673  0.1918
  551MOL0     C72642   7.222   8.904  10.925 -0.3792 -1.5234  0.1164
  551MOL0     C72643   7.298   8.890  11.056  0.5707 -0.3469  0.6776
  551MOL0    Cl72644   7.290   8.731  11.112 -0.7282 -0.3624 -0.0517
  551MOL0     C72645   6.453   8.620  10.549 -1.0065 -0.0022 -0.5685
  551MOL0     C72646   6.343   8.649  10.470 -0.4346 -0.2600  0.3132
  551MOL0     O72647   6.143   8.565  10.244  0.1035  0.6933  0.1158
  551MOL0     C72648   6.117   8.899  10.083  0.2084 -0.0657  0.0733
  551MOL0     C72649   6.019   8.973  10.008  0.2910 -0.6584 -0.9653
  551MOL0     N72650   5.738   9.516   9.951  0.0391 -0.4411 -0.7338
  551MOL0     N72651   5.754   9.634   9.975  0.4221 -0.8163  0.1841
  551MOL0     C72652   6.703   9.800  10.554  0.8826 -0.0310  0.4554
  551MOL0     C72653   6.801   9.761  10.653 -0.3651 -0.6163  0.9087
  551MOL0     C72654   7.008   9.464  10.957  0.1881 -0.6545 -0.0195
  551MOL0     C72655   7.133   9.491  10.896  0.7658 -0.5297 -0.3238
  551MOL0     C72656   7.255   9.455  10.947 -0.3859  0.6334 -1.1192
  551MOL0     C72657   7.255   9.376  11.066  0.4353  0.1339 -0.1869
  551MOL0     O72658   7.358   9.320  11.143 -0.1471 -0.6615 -0.4456
  551MOL0     C72659   7.486   9.315  11.070  0.0353  0.6168 -0.8286
  551MOL0     C72660   7.491   9.182  10.995  0.0426  1.1120 -0.7875
  551MOL0     C72661   7.615   9.175  10.907 -0.2231 -0.5718  0.5590
  551MOL0     C72662   7.610   9.057  10.810 -0.3938  0.1854  0.0506
  551MOL0     C72663   7.647   8.940  10.896 -0.2528  0.3535  0.2919
  551MOL0     C72664   7.675   8.852  10.970 -0.1216 -0.4796 -0.6159
  551MOL0     C72665   7.135   9.348  11.132  0.0036  0.4478 -0.4423
  551MOL0     C72666   7.010   9.392  11.081 -0.2422 -1.5722 -0.4674
  551MOL0     H72667   6.688   9.446  10.683  0.4926 -0.3963  0.1007
  551MOL0     H72668   6.549   9.499  10.514 -0.9199  0.0222  0.2184
  551MOL0     H72669   6.337   9.845  10.464 -0.9793  0.7088 -1.4606
  551MOL0     H72670   6.347   9.679  10.502 -0.9957 -0.1865 -1.3030
  551MOL0     H72671   6.355   9.620  10.267  0.0625  0.9057  0.3854
  551MOL0     H72672   6.362   9.791  10.218 -1.2578  0.2550 -1.3229
  551MOL0     H72673   6.130   9.652  10.360  0.2926 -0.9158 -0.3966
  551MOL0     H72674   6.121   9.721  10.201 -0.1803  3.6065 -0.0841
  551MOL0     H72675   6.150   9.900  10.440  1.8198 -0.4049 -0.3162
  551MOL0     H72676   6.144   9.938  10.264  0.7029 -0.4666  0.6208
  551MOL0     H72677   5.919   9.965  10.397  2.8123  0.9837  0.0437
  551MOL0     H72678   5.927   9.794  10.435  1.8669  1.2194 -0.3281
  551MOL0     H72679   5.885   9.717  10.217  0.8207 -0.5968  0.9326
  551MOL0     H72680   5.913   9.881  10.140 -1.3261  2.5694  0.5745
  551MOL0     H72681   5.685   9.787  10.306  1.9338  1.7910  2.4734
  551MOL0     H72682   5.699   9.959  10.259  0.7610  0.4294  3.7385
  551MOL0     H72683   5.732   9.880  10.032  0.5349 -0.1685 -1.1866
  551MOL0     H72684   5.564   9.852  10.099  0.1871 -0.8967  0.7976
  551MOL0     H72685   5.506   9.585  10.178  1.1183 -0.2216  1.5203
  551MOL0     H72686   5.513   9.319  10.115  0.8445  0.4790  0.7665
  551MOL0     H72687   5.696   9.284  10.108  0.6452 -0.9864 -1.5698
  551MOL0     H72688   5.503   9.302   9.875  0.6240 -1.9074 -1.3176
  551MOL0     H72689   5.532   9.141   9.945  0.6504  0.3021  0.9254
  551MOL0     H72690   5.681   9.181   9.746 -1.5408 -0.6674  1.3691
  551MOL0     H72691   5.741   9.323   9.817  1.5064  0.1767 -0.8535
  551MOL0     H72692   5.866   9.193  10.000  1.9363  0.2588 -0.1250
  551MOL0     H72693   5.895   9.160   9.830 -2.1130  1.7804 -1.6772
  551MOL0     H72694   5.750   8.770  10.045 -0.7589 -0.5260  0.0018
  551MOL0     H72695   5.921   8.629  10.145 -2.6935  0.6438 -0.3692
  551MOL0     H72696   6.510   8.817  10.223  2.7585 -1.1989 -0.1587
  551MOL0     H72697   6.709   8.722  10.344  0.7464 -0.0436  1.1908
  551MOL0     H72698   6.828   8.725  10.538 -1.1394  0.2915  0.0670
  551MOL0     H72699   6.851   8.564  10.481 -3.3118  1.0835 -1.6108
  551MOL0     H72700   6.906   8.484  10.703 -1.6060 -0.1836 -0.6044
  551MOL0     H72701   6.864   8.631  10.778 -1.9499  0.2969 -0.8565
  551MOL0     H72702   7.096   8.613  10.563  1.5494  0.4534  0.4748
  551MOL0     H72703   7.113   8.582  10.737  0.4231  0.7520  0.4209
  551MOL0     H72704   7.003   8.846  10.614 -2.0307  0.1029  1.5735
  551MOL0     H72705   7.009   8.813  10.783 -0.9448 -0.8441 -1.0156
  551MOL0     H72706   7.200   8.939  10.650 -0.5295  0.4231  2.3023
  551MOL0     H72707   7.258   8.787  10.590 -2.8868 -0.3118 -0.5683
  551MOL0     H72708   7.389   8.867  10.793  0.0665 -0.2587 -0.3048
  551MOL0     H72709   7.287   8.725  10.844  0.2441  0.6471  1.9832
  551MOL0     H72710   7.227   9.011  10.902  1.9877 -1.4890  0.5352
  551MOL0     H72711   7.118   8.874  10.941 -1.5984  1.4428 -1.4763
  551MOL0     H72712   7.267   8.959  11.135  2.4421 -2.1595  3.2091
  551MOL0     H72713   7.402   8.914  11.033  0.7525 -0.3381  1.4767
  551MOL0     H72714   6.440   8.568  10.644 -1.8552 -2.8606 -2.1199
  551MOL0     H72715   6.247   8.639  10.520 -0.8993 -1.0760 -0.7057
  551MOL0     H72716   6.217   8.937  10.099  0.1091 -0.5938  2.3006
  551MOL0     H72717   6.052   9.065   9.961 -1.2677 -0.8380 -2.4993
  551MOL0     H72718   6.725   9.901  10.521  1.6467 -0.4084 -0.2295
  551MOL0     H72719   6.872   9.839  10.679 -1.6921  1.7436 -1.9335
  551MOL0     H72720   7.141   9.547  10.804  2.5289  0.7154  0.5353
  551MOL0     H72721   7.350   9.478  10.899  1.5394 -2.5400  0.7839
  551MOL0     H72722   7.571   9.334  11.136  0.3251 -4.1290  0.4949
  551MOL0     H72723   7.500   9.388  10.990  0.5042 -0.9508 -2.2261
  551MOL0     H72724   7.480   9.095  11.061 -2.8617 -0.3666 -2.9787
  551MOL0     H72725   7.402   9.190  10.932 -0.9622  3.4078  0.7622
  551MOL0     H72726   7.710   9.174  10.961 -0.2683  2.1390  0.8336
  551MOL0     H72727   7.620   9.269  10.851 -0.8473  0.8688  2.8042
  551MOL0     H72728   7.512   9.039  10.765 -1.6147  1.1743  2.1524
  551MOL0     H72729   7.686   9.069  10.733  2.5222 -0.1736  2.6418
  551MOL0     H72730   7.687   8.773  11.042 -2.3879 -4.4724 -4.1403
  551MOL0     H72731   7.122   9.304  11.230 -1.9549 -1.4933 -1.4918
  551MOL0     H72732   6.913   9.387  11.129  0.4401 -0.0154  1.1773
  552MOL0     O72733   7.981   4.412   3.307  0.6670  1.2204 -0.6709
  552MOL0     C72734   7.922   4.496   3.244  0.4580 -1.0496  0.3074
  552MOL0     O72735   7.975   4.570   3.140  0.3964 -0.6581 -0.5203
  552MOL0     C72736   8.102   4.543   3.098 -0.3529 -0.0276  0.9475
  552MOL0     C72737   8.128   4.469   2.982  0.1419 -0.5416 -1.2672
  552MOL0     C72738   8.265   4.445   2.946 -0.2457 -0.5950 -0.0308
  552MOL0     C72739   8.366   4.516   3.009  0.5105 -0.0073  0.2398
  552MOL0     O72740   8.493   4.490   2.967  1.0790 -0.2149  0.3415
  552MOL0     C72741   8.596   4.585   2.974  0.8764 -0.6774 -0.3973
  552MOL0     C72742   8.566   4.720   2.895 -1.1173  0.0252  0.5583
  552MOL0     C72743   8.683   4.818   2.911 -0.2538 -0.7338  0.5044
  552MOL0     C72744   8.813   4.761   2.847 -0.7536 -0.4224  0.5294
  552MOL0     C72745   8.917   4.875   2.816 -0.4135  0.1788 -0.1551
  552MOL0     C72746   9.025   4.829   2.719  1.0195  0.4161 -0.0613
  552MOL0     C72747   9.113   4.715   2.778  0.8736  0.7645 -0.0364
  552MOL0     C72748   9.188   4.654   2.659 -0.0096  0.2503 -0.9213
  552MOL0     N72749   9.089   4.569   2.588 -0.6466 -0.2474 -0.4751
  552MOL0     C72750   9.014   4.468   2.650  0.3630 -0.0309  0.6086
  552MOL0     C72751   8.927   4.444   2.547 -0.3422  0.6586  0.0114
  552MOL0     C72752   8.846   4.312   2.556  0.1751  0.8768 -0.4497
  552MOL0     C72753   8.730   4.315   2.656  0.5592 -0.8574 -0.0012
  552MOL0     C72754   8.620   4.415   2.616  0.7146  0.4563  0.7066
  552MOL0     C72755   8.539   4.381   2.493  0.4721  0.1975  0.0564
  552MOL0     O72756   8.479   4.250   2.477  0.1647 -0.6224 -0.3651
  552MOL0     C72757   8.362   4.214   2.548  0.1835 -0.0165  0.0066
  552MOL0     C72758   8.267   4.315   2.596 -0.5520 -0.2751 -0.3976
  552MOL0     C72759   8.140   4.273   2.648  0.1149  0.3232  0.5637
  552MOL0     C72760   8.107   4.141   2.663 -0.3387 -0.1417 -0.9903
  552MOL0     C72761   7.973   4.105   2.711  0.3405  0.7875  0.7115
  552MOL0     O72762   7.907   4.192   2.790 -0.3375 -0.1480  0.0923
  552MOL0     C72763   7.791   4.166   2.857  0.0653  0.1381  0.9946
  552MOL0     C72764   7.696   4.078   2.806  0.3208  0.2939  0.0467
  552MOL0     C72765   7.562   4.083   2.862 -0.2909  0.4547  0.9913
  552MOL0     C72766   7.540   4.155   2.978  0.0674 -0.8673 -0.2844
  552MOL0     O72767   7.426   4.161   3.053  0.1991 -0.4708  0.3416
  552MOL0     C72768   7.322   4.063   3.039  1.0592 -0.2276  0.2565
  552MOL0     C72769   7.186   4.118   3.100 -0.0272  0.2432  0.0323
  552MOL0     C72770   7.098   4.182   2.995  0.3937 -0.0152  0.3096
  552MOL0     C72771   7.001   4.077   2.924 -0.8590 -0.1021  0.3035
  552MOL0     C72772   6.900   4.024   3.019 -0.1306  0.2504 -0.2782
  552MOL0     C72773   6.809   4.130   3.092  0.9590 -0.6004 -0.0737
  552MOL0     C72774   6.682   4.057   3.143 -0.4666 -0.4888  0.1409
  552MOL0     C72775   6.592   4.149   3.227  0.1708  0.4179 -0.7114
  552MOL0    Cl72776   6.428   4.074   3.241 -0.2622  0.2863 -0.3600
  552MOL0     C72777   7.639   4.233   3.033 -0.8200  0.1767  0.3769
  552MOL0     C72778   7.769   4.242   2.975  0.1219 -0.0962 -0.6805
  552MOL0     O72779   7.938   3.986   2.687  0.7380 -0.3200 -0.1641
  552MOL0     C72780   8.204   4.045   2.633  0.4568 -0.6158 -0.2015
  552MOL0     C72781   8.326   4.080   2.571 -0.0871 -0.5613  0.6459
  552MOL0     N72782   8.930   4.537   2.449  0.1481 -0.1769 -0.6211
  552MOL0     N72783   9.034   4.605   2.475  1.1626  0.6069  0.4160
  552MOL0     C72784   8.339   4.602   3.117 -0.2559  0.6246  0.3894
  552MOL0     C72785   8.203   4.608   3.166 -0.4279 -0.5390 -0.9757
  552MOL0     C72786   7.772   4.498   3.271  0.8227 -1.0605  0.1360
  552MOL0     C72787   7.708   4.420   3.375 -0.9893  1.0106 -0.0003
  552MOL0     C72788   7.572   4.413   3.391 -0.4776 -0.4888 -0.0347
  552MOL0     C72789   7.484   4.483   3.302 -0.7858 -0.1862  0.3237
  552MOL0     O72790   7.348   4.464   3.306  0.7140  0.2104 -0.2103
  552MOL0     C72791   7.252   4.560   3.261 -0.1374 -0.7004  0.5596
  552MOL0     C72792   7.170   4.516   3.148  0.5741 -0.2593 -0.4097
  552MOL0     C72793   7.110   4.634   3.066 -0.0035  0.0522  0.0826
  552MOL0     C72794   7.005   4.584   2.960  0.8521  0.1394 -0.0018
  552MOL0     C72795   6.888   4.528   3.036 -0.2462 -0.2604 -0.3392
  552MOL0     C72796   6.780   4.508   3.088  0.8949  0.0796 -0.0254
  552MOL0     C72797   7.550   4.558   3.199  0.4197  0.2893  0.3165
  552MOL0     C72798   7.685   4.566   3.188 -0.6070 -0.3503  0.8717
  552MOL0     H72799   8.049   4.414   2.931 -1.5111 -0.3550  0.9357
  552MOL0     H72800   8.293   4.374   2.869 -0.6245  0.0086 -0.7415
  552MOL0     H72801   8.690   4.550   2.930  1.6043  0.3939  0.2657
  552MOL0     H72802   8.607   4.614   3.079  1.2750 -1.3993 -0.2324
  552MOL0     H72803   8.475   4.776   2.918  0.8250  3.6447  0.2066
  552MOL0     H72804   8.552   4.703   2.788 -0.0765  2.5945 -0.0591
  552MOL0     H72805   8.701   4.848   3.014  3.7023  1.0965 -0.5480
  552MOL0     H72806   8.650   4.909   2.861  1.3348  1.0166  2.5102
  552MOL0     H72807   8.870   4.691   2.908  1.1495  1.5753  1.1907
  552MOL0     H72808   8.788   4.715   2.751 -2.3989 -0.6467  1.0424
  552MOL0     H72809   8.963   4.895   2.913 -1.7999  0.7056  0.4114
  552MOL0     H72810   8.863   4.966   2.792 -2.5622  1.2944  6.7516
  552MOL0     H72811   9.095   4.912   2.706  2.5183 -0.2771  2.6912
  552MOL0     H72812   8.979   4.795   2.626 -1.3577 -1.2949  1.6159
  552MOL0     H72813   9.172   4.766   2.854  0.3181  3.0371 -1.0467
  552MOL0     H72814   9.059   4.640   2.837  3.0689 -0.7086  0.2039
  552MOL0     H72815   9.274   4.594   2.689 -0.9292  0.1522  1.7550
  552MOL0     H72816   9.220   4.738   2.597 -1.7768  3.1630  1.8078
  552MOL0     H72817   9.024   4.392   2.727 -3.5142 -0.9308  0.4543
  552MOL0     H72818   8.918   4.237   2.590  0.9815  1.6703 -0.3808
  552MOL0     H72819   8.810   4.291   2.455  4.6430  2.2629 -2.5920
  552MOL0     H72820   8.761   4.351   2.754 -2.7550  2.8779 -0.0783
  552MOL0     H72821   8.695   4.213   2.666 -0.0538 -0.6639 -0.1344
  552MOL0     H72822   8.550   4.413   2.700  0.4715  0.5509  0.5087
  552MOL0     H72823   8.657   4.518   2.618  1.5219  0.6105 -4.7924
  552MOL0     H72824   8.610   4.402   2.412  0.8271 -1.5098 -0.1162
  552MOL0     H72825   8.462   4.458   2.483 -0.3655 -0.6479 -0.0723
  552MOL0     H72826   8.285   4.420   2.577  1.0869 -0.9282 -2.9308
  552MOL0     H72827   8.060   4.343   2.668 -2.6382 -2.1715 -0.8413
  552MOL0     H72828   7.713   4.011   2.722  0.2134 -1.9849  1.7308
  552MOL0     H72829   7.488   4.021   2.814  0.9219 -0.4382  0.2081
  552MOL0     H72830   7.345   3.970   3.092  0.4045 -0.5674 -0.0493
  552MOL0     H72831   7.302   4.041   2.934  0.3052 -1.1690  0.5849
  552MOL0     H72832   7.197   4.189   3.183 -0.9817  2.7901 -1.8865
  552MOL0     H72833   7.139   4.032   3.149 -2.8284  1.0624 -1.0744
  552MOL0     H72834   7.158   4.239   2.924 -0.6864 -0.6142 -1.1410
  552MOL0     H72835   7.029   4.252   3.042 -1.4111 -1.3124 -0.3188
  552MOL0     H72836   6.952   4.118   2.835 -0.1298  2.5546  1.0360
  552MOL0     H72837   7.074   4.004   2.889  0.4315  1.4636 -0.3915
  552MOL0     H72838   6.939   3.965   3.102 -0.9048 -0.8561 -0.6767
  552MOL0     H72839   6.840   3.956   2.959 -0.7117 -0.6763  1.2866
  552MOL0     H72840   6.776   4.208   3.023 -1.2386 -0.2010  1.3260
  552MOL0     H72841   6.869   4.184   3.165  2.9449 -0.3116 -1.8263
  552MOL0     H72842   6.624   4.032   3.054 -1.6722  3.6972 -0.4629
  552MOL0     H72843   6.710   3.961   3.187 -1.3207  0.5547  3.2445
  552MOL0     H72844   6.578   4.242   3.171 -0.0573  0.6517 -0.2656
  552MOL0     H72845   6.642   4.169   3.322 -1.3072  4.4175 -0.5588
  552MOL0     H72846   7.624   4.266   3.135 -1.6962 -2.8550  1.3418
  552MOL0     H72847   7.847   4.311   3.004  0.2111  0.5911 -2.4418
  552MOL0     H72848   8.187   3.938   2.640  0.3742 -0.7797 -2.3037
  552MOL0     H72849   8.386   4.001   2.529  0.3402  1.4073 -2.8373
  552MOL0     H72850   8.415   4.667   3.157 -0.4198 -0.9312  3.5084
  552MOL0     H72851   8.168   4.677   3.242 -1.4944  0.2915 -2.1836
  552MOL0     H72852   7.774   4.360   3.437 -3.7873 -0.1854  2.0939
  552MOL0     H72853   7.535   4.358   3.477  0.6677 -3.3602 -1.2565
  552MOL0     H72854   7.300   4.652   3.226 -0.6778 -1.2166 -1.6724
  552MOL0     H72855   7.187   4.595   3.342 -0.5026 -0.3168  0.1070
  552MOL0     H72856   7.239   4.480   3.071  1.3917  2.9599 -1.3192
  552MOL0     H72857   7.100   4.439   3.183  0.6686  0.7789  2.2261
  552MOL0     H72858   7.192   4.687   3.017 -1.3246  1.5493 -0.5919
  552MOL0     H72859   7.067   4.717   3.123 -0.5915 -1.2748  1.6741
  552MOL0     H72860   6.971   4.668   2.899  1.4890 -0.4385 -1.1997
  552MOL0     H72861   7.048   4.506   2.896  0.7866  0.2911 -0.2324
  552MOL0     H72862   6.677   4.492   3.115  0.6266  1.1847 -0.3379
  552MOL0     H72863   7.489   4.606   3.123 -1.2843 -2.0204  0.1113
  552MOL0     H72864   7.731   4.621   3.106 -1.7953 -0.2717  0.2330
  553MOL0     O72865   2.906   0.418   5.868  0.1915 -0.1582 -0.4524
  553MOL0     C72866   2.912   0.355   5.765  0.3260  0.0593  0.2945
  553MOL0     O72867   2.847   0.381   5.642  1.1615 -0.2667 -1.3777
  553MOL0     C72868   2.786   0.509   5.630 -0.9930 -0.2308 -0.8086
  553MOL0     C72869   2.868   0.620   5.650 -0.0831  0.7400  1.5120
  553MOL0     C72870   2.811   0.746   5.633  0.2022  0.2646  0.2136
  553MOL0     C72871   2.681   0.771   5.583  0.8077 -0.2656 -1.1290
  553MOL0     O72872   2.628   0.894   5.559  0.0659  0.0020 -0.1976
  553MOL0     C72873   2.719   1.010   5.553  0.6141  0.5600  0.4736
  553MOL0     C72874   2.652   1.125   5.487  1.1994  0.2831  0.0823
  553MOL0     C72875   2.511   1.151   5.550  1.0726 -0.3027 -0.1087
  553MOL0     C72876   2.452   1.282   5.502  0.1373  0.1110 -0.4003
  553MOL0     C72877   2.351   1.338   5.601 -0.7197 -0.0979  0.2838
  553MOL0     C72878   2.221   1.264   5.597  0.4273  0.4332 -0.3901
  553MOL0     C72879   2.124   1.332   5.691  0.6624  0.0345 -0.3288
  553MOL0     C72880   1.984   1.278   5.669  1.0728  0.1245  0.0383
  553MOL0     N72881   1.932   1.329   5.547 -0.1849  0.6508 -0.0275
  553MOL0     C72882   1.911   1.257   5.436  0.0225  0.0339 -1.7065
  553MOL0     C72883   1.827   1.325   5.361 -0.1517 -0.0581  0.3339
  553MOL0     C72884   1.754   1.267   5.241 -0.6733  0.0202 -0.3289
  553MOL0     C72885   1.650   1.376   5.197 -0.0868  0.5319  0.2500
  553MOL0     C72886   1.589   1.335   5.060 -0.0147 -0.0234 -0.1121
  553MOL0     C72887   1.527   1.465   5.004  0.3059 -0.0710  0.6312
  553MOL0     O72888   1.487   1.451   4.864  0.2592 -0.8018 -0.5008
  553MOL0     C72889   1.376   1.526   4.820 -1.4719 -1.4060  0.5254
  553MOL0     C72890   1.370   1.534   4.680  1.1417 -0.5204  0.8975
  553MOL0     C72891   1.262   1.599   4.608  0.0035  0.0585 -1.0982
  553MOL0     C72892   1.149   1.640   4.682  0.1646  0.3305 -0.4956
  553MOL0     C72893   1.018   1.689   4.630  0.7504 -0.5687  0.6785
  553MOL0     O72894   1.021   1.703   4.496 -0.2150  0.3789 -0.9670
  553MOL0     C72895   0.902   1.722   4.422 -0.9069 -0.1371  0.4680
  553MOL0     C72896   0.913   1.674   4.294  0.8902  0.0407  0.4389
  553MOL0     C72897   0.804   1.680   4.195  0.4665 -0.4540 -0.2533
  553MOL0     C72898   0.680   1.744   4.239  0.8350 -0.3055 -0.3634
  553MOL0     O72899   0.558   1.743   4.172  0.2306 -0.7133 -0.1510
  553MOL0     C72900   0.552   1.707   4.031 -0.2415 -0.0300 -0.8591
  553MOL0     C72901   0.407   1.689   3.991 -0.4227 -0.5803 -0.2157
  553MOL0     C72902   0.340   1.823   3.957 -0.7866  0.4747 -0.3447
  553MOL0     C72903   0.204   1.808   3.894 -0.3734 -0.1489  0.2296
  553MOL0     C72904   0.110   1.738   3.991  0.1249 -0.2776  0.2323
  553MOL0     C72905  -0.039   1.745   3.944  0.0801  0.3434 -0.2886
  553MOL0     C72906  -0.068   1.671   3.804 -0.4140  0.0492 -0.4815
  553MOL0     C72907  -0.190   1.717   3.738  0.0256  0.2860 -0.4880
  553MOL0    Cl72908  -0.332   1.655   3.828 -0.0238 -0.4277 -0.6701
  553MOL0     C72909   0.666   1.779   4.376 -0.1505 -0.3345 -0.2890
  553MOL0     C72910   0.785   1.785   4.457  0.1585 -0.4387  0.4597
  553MOL0     O72911   0.916   1.688   4.704 -0.4456 -0.1938  0.4331
  553MOL0     C72912   1.152   1.640   4.822 -0.5389  0.4663  0.6864
  553MOL0     C72913   1.262   1.583   4.890  0.7203  0.0101  0.6229
  553MOL0     N72914   1.809   1.449   5.423 -0.4191  0.2110 -0.2990
  553MOL0     N72915   1.874   1.450   5.531  0.2527  0.7233  0.0459
  553MOL0     C72916   2.605   0.656   5.571  0.3720  0.1043 -0.0739
  553MOL0     C72917   2.654   0.522   5.590  0.1725 -0.0152 -0.7938
  553MOL0     C72918   3.009   0.243   5.764  0.4585 -0.6096  0.1328
  553MOL0     C72919   3.027   0.166   5.648 -0.2601  0.0339 -0.4803
  553MOL0     C72920   3.125   0.058   5.650 -0.3609  0.9505 -1.0207
  553MOL0     C72921   3.202   0.036   5.754 -0.8171  0.4319  0.0834
  553MOL0     O72922   3.294  -0.066   5.746 -0.6070 -0.1808  0.5148
  553MOL0     C72923   3.390  -0.091   5.853 -0.0711 -0.2247  0.0575
  553MOL0     C72924   3.440  -0.229   5.820 -0.9037 -0.2580  0.1890
  553MOL0     C72925   3.490  -0.295   5.939 -0.2749  0.1596 -0.4156
  553MOL0     C72926   3.406  -0.411   5.975  0.2634 -0.0302 -0.0890
  553MOL0     C72927   3.445  -0.483   6.101  0.0199 -1.0632 -0.1747
  553MOL0     C72928   3.452  -0.526   6.211 -0.3479 -1.1890  0.6095
  553MOL0     C72929   3.186   0.125   5.863  0.0108 -0.0313  0.0320
  553MOL0     C72930   3.092   0.225   5.870  0.1714  0.3928  0.4556
  553MOL0     H72931   2.969   0.611   5.688  0.2872 -3.5302  0.0585
  553MOL0     H72932   2.873   0.832   5.657  2.3834 -0.6855 -1.6344
  553MOL0     H72933   2.814   0.986   5.503  1.3746  1.8613  1.2364
  553MOL0     H72934   2.735   1.056   5.651 -1.0399  3.8437 -0.6460
  553MOL0     H72935   2.639   1.110   5.379 -0.5961  1.5319  0.0725
  553MOL0     H72936   2.716   1.213   5.494 -0.7666  1.7980 -0.1797
  553MOL0     H72937   2.521   1.161   5.659 -1.5748  0.3684  0.1382
  553MOL0     H72938   2.451   1.061   5.531  1.5358 -0.4566 -0.9005
  553MOL0     H72939   2.538   1.349   5.500  1.5658 -1.6824 -1.3890
  553MOL0     H72940   2.405   1.272   5.404  1.2144  0.4301 -0.9561
  553MOL0     H72941   2.337   1.446   5.591  0.8042  0.4021  2.7200
  553MOL0     H72942   2.392   1.333   5.702  2.4715  0.3270 -0.8672
  553MOL0     H72943   2.246   1.159   5.616  4.8009  0.6813 -3.2381
  553MOL0     H72944   2.189   1.269   5.492  1.2676  1.3361 -0.6225
  553MOL0     H72945   2.163   1.327   5.793  2.8671  0.0144 -1.0962
  553MOL0     H72946   2.121   1.438   5.665  0.9352  0.1548  0.1134
  553MOL0     H72947   1.914   1.308   5.747  2.1767  0.7611  0.8110
  553MOL0     H72948   1.991   1.169   5.671  4.5447  0.2308  1.2897
  553MOL0     H72949   1.943   1.154   5.433  0.7272  0.2405 -1.3488
  553MOL0     H72950   1.710   1.170   5.265 -4.1784  1.5729  0.0751
  553MOL0     H72951   1.817   1.257   5.152  0.0660  3.0900 -0.2783
  553MOL0     H72952   1.699   1.473   5.191 -1.4608  1.2143 -0.2402
  553MOL0     H72953   1.574   1.403   5.270  0.2740  1.3298  0.3386
  553MOL0     H72954   1.674   1.302   4.999  0.7457 -1.3368  1.5604
  553MOL0     H72955   1.513   1.257   5.066 -1.4377  1.2977 -0.3886
  553MOL0     H72956   1.588   1.555   5.009  0.7056  0.0229 -3.0040
  553MOL0     H72957   1.443   1.473   5.073 -1.3667 -0.7588 -1.2235
  553MOL0     H72958   1.455   1.496   4.625  0.6014 -1.3259  0.6154
  553MOL0     H72959   1.269   1.621   4.502 -2.3620  2.2353 -0.8939
  553MOL0     H72960   0.999   1.616   4.261 -0.6387 -2.6145  0.7646
  553MOL0     H72961   0.827   1.646   4.094  1.0943  0.0339 -0.2815
  553MOL0     H72962   0.606   1.617   3.999  1.9466 -0.2170  2.7869
  553MOL0     H72963   0.602   1.783   3.970  2.5984 -0.4618  0.7441
  553MOL0     H72964   0.354   1.632   4.069  1.2458 -0.0071  1.4187
  553MOL0     H72965   0.400   1.621   3.906  0.3466  0.2466 -0.9624
  553MOL0     H72966   0.402   1.871   3.881  0.8757  0.2954  0.8287
  553MOL0     H72967   0.332   1.898   4.037  2.3126  0.8576 -0.2726
  553MOL0     H72968   0.161   1.906   3.872  1.9781  1.2101  1.2448
  553MOL0     H72969   0.222   1.749   3.804  0.4183  0.5793 -0.1025
  553MOL0     H72970   0.117   1.783   4.091  2.3887  1.5249 -0.6532
  553MOL0     H72971   0.135   1.632   3.992 -3.7098 -1.3538 -0.9624
  553MOL0     H72972  -0.066   1.851   3.940 -3.7206 -0.4634  0.0202
  553MOL0     H72973  -0.108   1.702   4.017  0.2630 -2.3568 -1.5924
  553MOL0     H72974   0.021   1.657   3.742  0.7443 -3.3650  1.6047
  553MOL0     H72975  -0.083   1.565   3.830 -0.0653  0.0762 -0.1531
  553MOL0     H72976  -0.206   1.681   3.635 -0.9243 -0.7868  0.0147
  553MOL0     H72977  -0.190   1.826   3.746  1.7467  0.1772  2.0810
  553MOL0     H72978   0.579   1.828   4.417  1.1103  1.0251  0.8818
  553MOL0     H72979   0.781   1.835   4.553  0.3309 -1.4776  1.0288
  553MOL0     H72980   1.070   1.670   4.887 -2.6608  0.2277 -1.6934
  553MOL0     H72981   1.252   1.571   4.997  1.7911  1.7443  0.9635
  553MOL0     H72982   2.497   0.661   5.559  0.4197  3.8209 -0.1262
  553MOL0     H72983   2.583   0.441   5.584 -1.2647  1.2310 -1.2449
  553MOL0     H72984   2.972   0.187   5.557  0.8143  0.3084 -1.0820
  553MOL0     H72985   3.155  -0.006   5.567  2.0234  0.0409  0.4260
  553MOL0     H72986   3.342  -0.090   5.951  0.6839 -1.0226  0.4435
  553MOL0     H72987   3.471  -0.018   5.850  0.5984 -0.9895 -1.0512
  553MOL0     H72988   3.371  -0.285   5.757 -1.3384  0.1856  0.2625
  553MOL0     H72989   3.530  -0.231   5.758 -1.9099 -2.8501 -1.3698
  553MOL0     H72990   3.498  -0.224   6.023 -0.0119  0.1487 -0.4297
  553MOL0     H72991   3.593  -0.329   5.924 -0.8372 -0.0920 -4.7858
  553MOL0     H72992   3.299  -0.387   5.973 -0.0297 -1.2724 -0.2190
  553MOL0     H72993   3.403  -0.484   5.893 -5.5337 -0.3702 -0.0061
  553MOL0     H72994   3.458  -0.571   6.309 -0.5719 -2.1842  0.1835
  553MOL0     H72995   3.255   0.119   5.946 -0.7634 -2.8053  0.5735
  553MOL0     H72996   3.090   0.288   5.959 -2.1717  0.8460  0.1385
  554MOL0     O72997   1.131   7.283   2.785  0.6279  0.5528 -0.1698
  554MOL0     C72998   1.011   7.282   2.752  0.7844 -0.1896 -0.8003
  554MOL0     O72999   0.960   7.363   2.664 -0.5241 -0.7442  0.0818
  554MOL0     C73000   1.025   7.473   2.606  0.1338 -0.5187  0.3852
  554MOL0     C73001   1.166   7.466   2.584 -0.2149 -0.1725  0.1742
  554MOL0     C73002   1.224   7.567   2.504 -0.0641 -0.2940  0.0536
  554MOL0     C73003   1.156   7.675   2.452  0.9651 -0.5498  0.3826
  554MOL0     O73004   1.221   7.775   2.381 -0.9555 -0.5904  0.0266
  554MOL0     C73005   1.363   7.794   2.407 -0.1223 -0.0299 -0.2088
  554MOL0     C73006   1.396   7.850   2.546 -0.4514 -0.6449 -0.4920
  554MOL0     C73007   1.538   7.897   2.561 -0.6099  1.0522  0.8780
  554MOL0     C73008   1.563   7.958   2.708  0.9940 -0.8229  0.1282
  554MOL0     C73009   1.707   8.013   2.709 -0.8747 -0.9247  0.0411
  554MOL0     C73010   1.821   7.915   2.694 -0.4600  0.2602 -0.0671
  554MOL0     C73011   1.960   7.978   2.732  0.7163  0.1414  0.1677
  554MOL0     C73012   2.060   7.869   2.734  0.3593  0.0185  0.7192
  554MOL0     N73013   2.112   7.836   2.599  0.4114  0.1825 -0.2583
  554MOL0     C73014   2.086   7.720   2.524 -0.2273  0.4275 -0.3953
  554MOL0     C73015   2.167   7.730   2.422  0.3410  0.4812  0.6767
  554MOL0     C73016   2.197   7.630   2.313  0.2786 -0.1029  0.3396
  554MOL0     C73017   2.086   7.632   2.205  0.3861 -0.2062 -0.2736
  554MOL0     C73018   2.114   7.570   2.073 -0.4445  0.6681  0.6100
  554MOL0     C73019   2.166   7.425   2.096 -0.4375 -0.5632  0.3085
  554MOL0     O73020   2.193   7.378   1.963 -0.4142  0.3324 -0.5665
  554MOL0     C73021   2.311   7.410   1.908 -0.1757 -1.2448 -0.0953
  554MOL0     C73022   2.332   7.356   1.784 -0.5197  0.7653  0.2267
  554MOL0     C73023   2.447   7.382   1.710 -0.9554 -0.2531  0.3550
  554MOL0     C73024   2.542   7.471   1.767 -0.0878 -0.2263 -0.1671
  554MOL0     C73025   2.675   7.486   1.691 -0.0164  0.4696  0.0938
  554MOL0     O73026   2.755   7.594   1.741 -0.5853  0.0911 -0.0452
  554MOL0     C73027   2.842   7.634   1.647  0.1512  0.7168  0.2520
  554MOL0     C73028   2.978   7.627   1.665  0.7360  0.2596 -0.2309
  554MOL0     C73029   3.062   7.684   1.573 -0.1060 -0.3729  0.0321
  554MOL0     C73030   3.013   7.752   1.462 -0.4769  0.5750  1.1296
  554MOL0     O73031   3.093   7.810   1.363 -0.2263  0.4848  0.8204
  554MOL0     C73032   3.235   7.826   1.393 -1.0470 -0.5848 -0.5889
  554MOL0     C73033   3.307   7.850   1.250 -0.5609 -0.5075  0.0641
  554MOL0     C73034   3.295   8.001   1.237 -0.3739  0.2606  0.6140
  554MOL0     C73035   3.381   8.058   1.119  0.3963  0.0537 -0.0383
  554MOL0     C73036   3.327   8.207   1.111 -0.1307 -0.8199  0.6797
  554MOL0     C73037   3.400   8.304   1.017 -0.7028  0.2988  0.2576
  554MOL0     C73038   3.354   8.447   1.038  0.3473  0.1078 -0.1391
  554MOL0     C73039   3.444   8.539   0.963  0.0649  0.0475 -0.5815
  554MOL0    Cl73040   3.575   8.569   1.066 -0.3558  0.3676  0.0378
  554MOL0     C73041   2.874   7.750   1.438  0.4229 -0.1306  0.0448
  554MOL0     C73042   2.791   7.685   1.535  0.4413 -0.5757 -0.6775
  554MOL0     O73043   2.692   7.407   1.595 -0.5945 -0.4109 -0.6170
  554MOL0     C73044   2.532   7.525   1.896 -0.2093  0.1525 -0.2652
  554MOL0     C73045   2.413   7.499   1.963  0.0959  0.4821  0.2528
  554MOL0     N73046   2.231   7.850   2.426 -1.0715 -0.3257 -0.0666
  554MOL0     N73047   2.201   7.908   2.533 -0.4222 -0.1872 -0.0811
  554MOL0     C73048   1.017   7.683   2.478  1.6098 -0.1489 -0.4580
  554MOL0     C73049   0.955   7.575   2.549  0.9058  0.5702  1.3014
  554MOL0     C73050   0.909   7.214   2.827  0.2434 -0.8069  0.9209
  554MOL0     C73051   0.948   7.138   2.944  0.6980 -0.2588 -0.3943
  554MOL0     C73052   0.850   7.065   3.015 -0.4788 -0.1320  0.2257
  554MOL0     C73053   0.718   7.056   2.968 -0.0952  0.8944 -0.0068
  554MOL0     O73054   0.612   6.998   3.036  0.2019  0.1827 -0.5748
  554MOL0     C73055   0.643   6.895   3.136 -0.6678 -0.0888  0.7791
  554MOL0     C73056   0.692   6.946   3.278 -0.9156  0.6816  1.0832
  554MOL0     C73057   0.612   7.061   3.334 -0.2049  0.0203 -0.1947
  554MOL0     C73058   0.666   7.115   3.477 -0.1293  0.0426 -0.1286
  554MOL0     C73059   0.623   7.250   3.505  1.4637  0.0556  0.4538
  554MOL0     C73060   0.558   7.345   3.527  0.1303 -0.4264 -0.5518
  554MOL0     C73061   0.679   7.128   2.857  0.5377 -0.4141 -0.2832
  554MOL0     C73062   0.765   7.224   2.793 -0.6351  0.1366 -0.0164
  554MOL0     H73063   1.228   7.387   2.623  0.8481  0.3411 -0.4509
  554MOL0     H73064   1.326   7.537   2.483  0.2840 -2.7698  4.1700
  554MOL0     H73065   1.393   7.873   2.337  3.1660  0.3935  1.4941
  554MOL0     H73066   1.414   7.703   2.374 -0.3126  0.0518 -0.7421
  554MOL0     H73067   1.374   7.764   2.611  4.4242 -1.7741  0.0164
  554MOL0     H73068   1.324   7.930   2.565  0.1579 -0.0467 -0.6860
  554MOL0     H73069   1.557   7.976   2.488  1.8162 -0.2865 -0.0428
  554MOL0     H73070   1.605   7.812   2.549 -0.3616  1.1523  1.5216
  554MOL0     H73071   1.494   8.042   2.720  0.2970 -1.4264  0.4130
  554MOL0     H73072   1.542   7.878   2.780  0.9506 -0.6247  0.3352
  554MOL0     H73073   1.724   8.054   2.809  0.2419  0.9968 -0.8812
  554MOL0     H73074   1.716   8.093   2.635  1.4031 -0.0503  1.1497
  554MOL0     H73075   1.827   7.878   2.591  1.1810  4.6149 -1.7860
  554MOL0     H73076   1.817   7.825   2.756  1.5015 -0.7933 -1.3618
  554MOL0     H73077   1.992   8.063   2.672  0.4079 -0.9861 -1.6558
  554MOL0     H73078   1.943   8.020   2.832 -0.7818 -2.6112  1.2026
  554MOL0     H73079   2.029   7.782   2.793 -0.2571 -0.4873 -0.3268
  554MOL0     H73080   2.146   7.901   2.794  0.7425 -2.6655  1.7432
  554MOL0     H73081   2.024   7.639   2.561  0.3811  0.1667  0.0753
  554MOL0     H73082   2.184   7.527   2.349 -1.0740 -0.4223 -0.9569
  554MOL0     H73083   2.301   7.630   2.279 -0.4160 -0.2585 -1.9859
  554MOL0     H73084   2.050   7.735   2.195 -3.6514 -1.1783  1.8941
  554MOL0     H73085   2.002   7.586   2.258  0.1721 -1.4181 -1.5867
  554MOL0     H73086   2.019   7.559   2.019 -0.7725 -2.3057  1.6101
  554MOL0     H73087   2.186   7.631   2.018  0.3857 -0.1007  0.8204
  554MOL0     H73088   2.073   7.372   2.121 -0.8556 -0.5639 -1.1249
  554MOL0     H73089   2.249   7.410   2.165  0.9892 -1.6690 -1.5511
  554MOL0     H73090   2.260   7.291   1.735 -0.3998 -0.6063  1.7735
  554MOL0     H73091   2.461   7.331   1.616 -4.6426  0.0313 -0.5083
  554MOL0     H73092   3.019   7.590   1.759 -0.1209 -2.7385 -0.9433
  554MOL0     H73093   3.167   7.681   1.598  0.5229  5.6622 -0.3933
  554MOL0     H73094   3.271   7.729   1.430 -4.4274 -1.1547  1.6692
  554MOL0     H73095   3.262   7.898   1.471 -2.9559  0.1976 -0.6078
  554MOL0     H73096   3.265   7.795   1.165 -0.0203 -2.7116  1.1515
  554MOL0     H73097   3.410   7.817   1.265 -0.3910  0.1672  0.4033
  554MOL0     H73098   3.324   8.046   1.332 -1.2844  0.4729  0.7954
  554MOL0     H73099   3.191   8.027   1.216 -1.2727 -2.6013  1.0517
  554MOL0     H73100   3.485   8.058   1.153  0.0770 -2.0965  1.1345
  554MOL0     H73101   3.382   7.996   1.028 -0.2748  0.1206 -0.0941
  554MOL0     H73102   3.341   8.244   1.213 -0.6895 -2.6271  1.4402
  554MOL0     H73103   3.223   8.203   1.079 -0.8350 -0.0606  2.7125
  554MOL0     H73104   3.371   8.269   0.917 -2.3891 -1.1717  1.1922
  554MOL0     H73105   3.509   8.296   1.021 -0.7086  0.1601  0.1592
  554MOL0     H73106   3.257   8.453   0.989  0.3507 -1.7013 -0.4597
  554MOL0     H73107   3.346   8.474   1.144  2.1389 -1.9592  0.6153
  554MOL0     H73108   3.395   8.634   0.938  0.8938 -0.0824 -2.8590
  554MOL0     H73109   3.470   8.492   0.868  2.2811 -1.0097  0.4794
  554MOL0     H73110   2.823   7.797   1.354  1.2206 -0.5914 -0.7109
  554MOL0     H73111   2.683   7.699   1.537  0.7301  3.4757 -2.2268
  554MOL0     H73112   2.600   7.580   1.961 -1.1570  1.1056 -0.0466
  554MOL0     H73113   2.401   7.541   2.062 -0.0371 -1.4178  1.0974
  554MOL0     H73114   0.949   7.761   2.443  0.9757 -1.0318 -1.2561
  554MOL0     H73115   0.849   7.594   2.559  0.9285  3.6910 -2.2521
  554MOL0     H73116   1.052   7.147   2.975  1.0186 -0.7678 -1.2605
  554MOL0     H73117   0.888   6.999   3.092  2.5435  0.1788 -0.8901
  554MOL0     H73118   0.706   6.819   3.089 -1.8809  0.9394 -2.7478
  554MOL0     H73119   0.548   6.849   3.164  0.4695 -2.0927  1.6081
  554MOL0     H73120   0.681   6.867   3.353 -2.9152 -1.1315 -0.9601
  554MOL0     H73121   0.794   6.984   3.270 -0.9804  1.1762  2.3188
  554MOL0     H73122   0.508   7.031   3.325  0.2531 -1.4506 -0.8437
  554MOL0     H73123   0.619   7.142   3.261  1.9043  0.1496  0.0716
  554MOL0     H73124   0.637   7.039   3.551 -2.3590 -0.5769 -1.5364
  554MOL0     H73125   0.773   7.136   3.472 -0.2734  0.5168 -2.6546
  554MOL0     H73126   0.494   7.430   3.538  2.4828  1.5478 -1.3380
  554MOL0     H73127   0.572   7.139   2.845 -0.1114 -0.1275  4.1247
  554MOL0     H73128   0.724   7.293   2.720  0.3738  3.5001  2.3447
  555MOL0     O73129   0.261   3.382   9.929 -1.2985  0.3050  0.0499
  555MOL0     C73130   0.209   3.361   9.815 -0.2322 -0.3748  0.4057
  555MOL0     O73131   0.077   3.335   9.786  0.3374 -0.1088 -0.1644
  555MOL0     C73132  -0.005   3.282   9.891 -0.7972 -0.3863  0.2700
  555MOL0     C73133  -0.065   3.357   9.989 -0.3744 -0.4992  0.2918
  555MOL0     C73134  -0.156   3.312  10.078 -0.4960 -0.2419 -0.0392
  555MOL0     C73135  -0.182   3.180  10.089 -0.0458  0.2554 -0.2965
  555MOL0     O73136  -0.265   3.132  10.186 -0.0081  0.3040  0.0332
  555MOL0     C73137  -0.407   3.120  10.145  0.3147 -0.8120  0.2050
  555MOL0     C73138  -0.489   3.227  10.220  0.1560 -0.3756  0.2816
  555MOL0     C73139  -0.439   3.264  10.363 -0.3245  0.7400 -0.2095
  555MOL0     C73140  -0.542   3.341  10.443 -0.0496  0.9261 -0.3151
  555MOL0     C73141  -0.615   3.446  10.359 -0.1279 -0.0893  0.1095
  555MOL0     C73142  -0.707   3.528  10.448 -0.6553 -0.0475 -1.4437
  555MOL0     C73143  -0.777   3.638  10.367 -0.4368 -0.2066  0.0598
  555MOL0     C73144  -0.911   3.584  10.300  0.2906 -0.1335 -0.0897
  555MOL0     N73145  -1.013   3.539  10.403 -0.1097  0.8518 -0.1793
  555MOL0     C73146  -1.093   3.426  10.376 -0.1793  0.7568 -0.2615
  555MOL0     C73147  -1.165   3.408  10.486 -0.2400  0.1289 -0.5475
  555MOL0     C73148  -1.247   3.287  10.501 -0.2819  0.6617 -0.7131
  555MOL0     C73149  -1.393   3.319  10.552 -0.3787  0.1889  0.2509
  555MOL0     C73150  -1.476   3.197  10.554  0.5101  1.0000  0.0821
  555MOL0     C73151  -1.625   3.247  10.564 -0.3598  1.1630  1.5194
  555MOL0     O73152  -1.706   3.151  10.634 -0.3211 -0.3424 -0.3612
  555MOL0     C73153  -1.831   3.187  10.657 -0.0869  0.6539 -0.0228
  555MOL0     C73154  -1.922   3.184  10.542 -1.0903 -0.0209 -0.4850
  555MOL0     C73155  -2.055   3.205  10.571  0.0949 -0.4671  0.2744
  555MOL0     C73156  -2.102   3.219  10.705 -0.4997 -0.3146  0.1496
  555MOL0     C73157  -2.239   3.236  10.730 -0.1777 -0.1099  0.2050
  555MOL0     O73158  -2.276   3.228  10.859  0.4600  0.7742 -0.4272
  555MOL0     C73159  -2.403   3.187  10.878 -0.0883  0.0695  0.4581
  555MOL0     C73160  -2.474   3.242  10.991 -0.2733 -0.6482 -0.7200
  555MOL0     C73161  -2.606   3.211  11.026 -0.2264 -0.4649 -0.2858
  555MOL0     C73162  -2.679   3.113  10.951 -0.8537  1.1758 -0.0502
  555MOL0     O73163  -2.804   3.080  11.003 -0.4041 -0.2416 -0.2421
  555MOL0     C73164  -2.875   2.965  10.960 -0.3512  0.0506 -0.0515
  555MOL0     C73165  -2.834   2.853  11.056 -0.0009 -0.4819 -0.7062
  555MOL0     C73166  -2.870   2.874  11.211  0.1674  0.6278 -0.3232
  555MOL0     C73167  -2.837   2.747  11.289  0.6193  0.4959  0.0419
  555MOL0     C73168  -2.685   2.714  11.291 -0.0450 -0.0563  0.2489
  555MOL0     C73169  -2.646   2.637  11.415 -1.0174 -0.0277 -0.1897
  555MOL0     C73170  -2.690   2.488  11.394 -0.3409  0.9191  0.0118
  555MOL0     C73171  -2.644   2.394  11.503  0.3790 -0.8106  0.1341
  555MOL0    Cl73172  -2.769   2.379  11.637 -0.7729 -0.0397 -0.0490
  555MOL0     C73173  -2.603   3.042  10.847  1.1912 -0.7026 -0.1160
  555MOL0     C73174  -2.474   3.085  10.808  0.2947 -0.3788 -0.3180
  555MOL0     O73175  -2.317   3.252  10.629 -0.4014 -0.2722 -0.1401
  555MOL0     C73176  -2.004   3.229  10.809  0.6591  0.3760  0.5592
  555MOL0     C73177  -1.867   3.211  10.785  0.4459 -0.6343 -0.4764
  555MOL0     N73178  -1.140   3.511  10.575 -0.1386  0.2823  0.7979
  555MOL0     N73179  -1.054   3.586  10.517  0.3604  0.3581  0.1847
  555MOL0     C73180  -0.122   3.095   9.995 -0.2476 -0.1042 -1.2210
  555MOL0     C73181  -0.027   3.148   9.901 -0.6675 -0.2851  0.3309
  555MOL0     C73182   0.296   3.390   9.694  0.3972 -0.1505 -0.0758
  555MOL0     C73183   0.240   3.384   9.565  0.5055 -0.7484  0.3235
  555MOL0     C73184   0.315   3.435   9.463  0.1995  0.1682  0.0149
  555MOL0     C73185   0.445   3.489   9.486  0.0074 -0.0746  0.3000
  555MOL0     O73186   0.505   3.529   9.370  0.3915 -0.0131 -0.2371
  555MOL0     C73187   0.629   3.602   9.376 -0.3443 -0.9718  0.7107
  555MOL0     C73188   0.704   3.613   9.243  0.1947  0.3329 -0.0655
  555MOL0     C73189   0.774   3.481   9.206  0.2115  0.5178  0.2551
  555MOL0     C73190   0.826   3.475   9.063 -0.0674  0.2890 -0.3057
  555MOL0     C73191   0.910   3.591   9.029 -0.3685  0.5445 -0.2363
  555MOL0     C73192   0.985   3.680   9.005 -0.0466 -0.7459  0.1189
  555MOL0     C73193   0.506   3.487   9.612  0.5673  0.2181 -0.1899
  555MOL0     C73194   0.432   3.425   9.709 -0.7654  0.3107  0.0343
  555MOL0     H73195  -0.048   3.464   9.997 -1.8320 -0.1379 -0.9738
  555MOL0     H73196  -0.187   3.384  10.152 -0.0596 -0.4210  0.3208
  555MOL0     H73197  -0.435   3.024  10.190  0.4276 -0.4316  1.1223
  555MOL0     H73198  -0.417   3.120  10.037 -0.3286 -1.1077  0.2616
  555MOL0     H73199  -0.591   3.189  10.226  0.0792 -0.3320 -0.5763
  555MOL0     H73200  -0.495   3.316  10.157 -1.3895 -1.3347 -1.0057
  555MOL0     H73201  -0.350   3.327  10.359 -0.0166  0.3151 -0.0582
  555MOL0     H73202  -0.419   3.176  10.426 -0.8451  1.2596  0.7082
  555MOL0     H73203  -0.607   3.263  10.482 -1.3619  2.0007 -0.2476
  555MOL0     H73204  -0.482   3.391  10.520  0.4391 -0.8865  0.5330
  555MOL0     H73205  -0.675   3.391  10.286  0.5041 -0.4545 -0.1461
  555MOL0     H73206  -0.543   3.514  10.312 -1.7643 -0.1741 -2.7664
  555MOL0     H73207  -0.643   3.569  10.527  0.9978 -1.1389 -2.1485
  555MOL0     H73208  -0.789   3.470  10.490  0.9534 -0.9962  0.5317
  555MOL0     H73209  -0.821   3.716  10.430 -1.8539 -0.4832 -0.5482
  555MOL0     H73210  -0.710   3.686  10.295 -1.6956 -1.0982 -1.7709
  555MOL0     H73211  -0.885   3.493  10.245  1.1841 -2.5765  3.9509
  555MOL0     H73212  -0.960   3.655  10.233 -0.9808 -1.4967 -0.6656
  555MOL0     H73213  -1.091   3.380  10.278 -0.3117 -0.1676  0.1651
  555MOL0     H73214  -1.203   3.207  10.562 -0.7828 -2.1889 -3.8044
  555MOL0     H73215  -1.254   3.235  10.405  0.3704  0.6500 -0.7604
  555MOL0     H73216  -1.423   3.399  10.484  4.7486  1.1346 -1.3123
  555MOL0     H73217  -1.397   3.371  10.648 -0.8975 -3.0224  2.1201
  555MOL0     H73218  -1.473   3.125  10.472 -1.1225  2.9110 -1.7539
  555MOL0     H73219  -1.451   3.132  10.639 -1.1036 -0.9621 -0.8570
  555MOL0     H73220  -1.675   3.252  10.467  2.2704  0.3537  0.0204
  555MOL0     H73221  -1.628   3.348  10.606  2.0528  1.5256  0.9992
  555MOL0     H73222  -1.890   3.187  10.439  0.3828  0.5764 -0.0395
  555MOL0     H73223  -2.131   3.220  10.495  1.2272  2.0003 -0.4574
  555MOL0     H73224  -2.419   3.316  11.049 -0.5756 -0.9815  0.0050
  555MOL0     H73225  -2.660   3.258  11.108  0.3832  0.4988 -0.4289
  555MOL0     H73226  -2.847   2.926  10.862 -0.8954 -0.5449  0.0208
  555MOL0     H73227  -2.982   2.979  10.946 -0.6580 -3.4142 -2.4214
  555MOL0     H73228  -2.730   2.824  11.035  1.8127  3.1819  1.9797
  555MOL0     H73229  -2.905   2.775  11.031 -0.6312 -0.3795  0.6890
  555MOL0     H73230  -2.973   2.908  11.221  0.2480  0.7820 -0.0189
  555MOL0     H73231  -2.810   2.954  11.255 -0.1173  0.6908 -0.0526
  555MOL0     H73232  -2.875   2.769  11.390 -3.6149 -1.2639 -0.9277
  555MOL0     H73233  -2.901   2.665  11.254  1.8193  0.6592 -2.7626
  555MOL0     H73234  -2.636   2.811  11.280 -1.6280  0.9223  1.3661
  555MOL0     H73235  -2.671   2.652  11.202 -2.0883 -2.0713  1.2399
  555MOL0     H73236  -2.682   2.688  11.505  1.1645 -2.5975  2.3147
  555MOL0     H73237  -2.537   2.633  11.416 -1.0029  0.2745 -0.4397
  555MOL0     H73238  -2.798   2.484  11.382 -0.2097  0.8312 -1.4148
  555MOL0     H73239  -2.641   2.458  11.300 -2.0516 -0.0931 -0.6033
  555MOL0     H73240  -2.545   2.416  11.544  1.4074  0.5785 -2.8323
  555MOL0     H73241  -2.632   2.299  11.451 -0.6213 -1.2917  0.7418
  555MOL0     H73242  -2.647   2.964  10.786 -1.6628  1.4178 -1.0071
  555MOL0     H73243  -2.418   3.042  10.725  0.4712  0.3838 -0.6114
  555MOL0     H73244  -2.034   3.262  10.908 -2.4899 -0.1848 -0.1004
  555MOL0     H73245  -1.793   3.226  10.864 -0.7624  0.7062  0.4435
  555MOL0     H73246  -0.161   2.994   9.984  1.5893 -0.6307 -3.8025
  555MOL0     H73247   0.021   3.088   9.824  2.8289 -1.5030  3.1881
  555MOL0     H73248   0.136   3.355   9.557  0.7227 -1.2699 -0.8103
  555MOL0     H73249   0.273   3.439   9.363  0.9222 -0.2664 -0.3199
  555MOL0     H73250   0.701   3.554   9.443 -1.0173 -0.7462  1.6155
  555MOL0     H73251   0.612   3.708   9.398 -0.3433 -0.5435 -1.1585
  555MOL0     H73252   0.635   3.663   9.174 -1.9456 -1.4272  0.6599
  555MOL0     H73253   0.780   3.689   9.260  1.2176 -1.1885  2.9678
  555MOL0     H73254   0.705   3.399   9.228  0.8707  0.3714  1.9181
  555MOL0     H73255   0.850   3.450   9.279 -2.6214 -3.4979  1.9093
  555MOL0     H73256   0.880   3.380   9.059  0.0599  0.3466  0.0179
  555MOL0     H73257   0.744   3.469   8.991  0.7843  1.8818 -1.4615
  555MOL0     H73258   1.055   3.757   8.978 -1.2494 -0.0165 -1.0359
  555MOL0     H73259   0.606   3.522   9.635  0.3246 -0.0194  1.3533
  555MOL0     H73260   0.481   3.422   9.807 -3.1607  1.5444  1.3648
  556MOL0     O73261   9.193   4.472   9.799 -0.2984  0.4681 -0.0774
  556MOL0     C73262   9.292   4.406   9.775 -0.2953  0.0647  0.2062
  556MOL0     O73263   9.375   4.357   9.862  0.3596  0.2282  0.7531
  556MOL0     C73264   9.375   4.421   9.978 -0.1530 -0.0120 -1.0710
  556MOL0     C73265   9.493   4.470  10.036 -0.8258  0.1400  0.2119
  556MOL0     C73266   9.490   4.545  10.158  0.2207  0.0948  0.0485
  556MOL0     C73267   9.382   4.541  10.247  0.4908 -0.6097  0.0767
  556MOL0     O73268   9.390   4.597  10.369 -0.2653  0.0954 -0.7755
  556MOL0     C73269   9.457   4.520  10.457 -0.5112  0.0795 -0.4272
  556MOL0     C73270   9.479   4.600  10.579 -0.0755 -0.8674 -0.4477
  556MOL0     C73271   9.568   4.727  10.562  0.8255  0.0906  0.5926
  556MOL0     C73272   9.560   4.814  10.689  0.3499  0.0650  0.3120
  556MOL0     C73273   9.638   4.942  10.691 -0.4002 -0.1408 -0.1601
  556MOL0     C73274   9.786   4.934  10.643  0.6105  0.1948  0.2568
  556MOL0     C73275   9.866   5.072  10.660  0.1720  0.6348  0.9002
  556MOL0     C73276   9.990   5.066  10.564  0.2568 -0.6983  0.0796
  556MOL0     N73277  10.099   5.160  10.602  0.4321  0.3816  0.4859
  556MOL0     C73278  10.170   5.128  10.714 -0.6405 -0.0416  0.3081
  556MOL0     C73279  10.272   5.217  10.716 -0.3592 -0.3046  0.8886
  556MOL0     C73280  10.383   5.216  10.821 -0.0927 -0.4109  0.3693
  556MOL0     C73281  10.426   5.075  10.852 -0.6636  0.3061 -0.3438
  556MOL0     C73282  10.563   5.059  10.909 -0.1634 -1.0796 -0.5626
  556MOL0     C73283  10.619   4.922  10.894  0.5937  0.1989 -0.5028
  556MOL0     O73284  10.728   4.892  10.980  0.1913  0.0601  0.1224
  556MOL0     C73285  10.808   4.799  10.937 -0.5488  0.3193 -0.0928
  556MOL0     C73286  10.775   4.689  10.846  0.2365  0.1429  0.6925
  556MOL0     C73287  10.861   4.587  10.819  0.4181 -0.1578 -0.4238
  556MOL0     C73288  10.982   4.584  10.879 -1.6940  0.1953  0.8893
  556MOL0     C73289  11.067   4.466  10.859 -0.8687  0.8675 -1.3795
  556MOL0     O73290  11.016   4.363  10.786  0.0175  0.4793  0.3163
  556MOL0     C73291  11.103   4.261  10.749 -0.1433  0.6522  0.3706
  556MOL0     C73292  11.072   4.124  10.763 -0.2228 -0.5719  0.1193
  556MOL0     C73293  11.156   4.020  10.722  0.3585 -0.1752  0.1213
  556MOL0     C73294  11.290   4.048  10.670  0.4978 -0.2089 -0.0099
  556MOL0     O73295  11.373   3.942  10.633 -0.4877 -0.0303  0.1088
  556MOL0     C73296  11.410   3.936  10.495 -0.1393 -0.0896  0.3184
  556MOL0     C73297  11.523   3.833  10.493  0.3582 -0.1040 -0.5713
  556MOL0     C73298  11.649   3.879  10.572 -0.0803 -0.7018 -0.7346
  556MOL0     C73299  11.750   3.954  10.486  0.5758 -0.7493 -0.0267
  556MOL0     C73300  11.878   4.002  10.555  0.3702 -0.1758 -0.1083
  556MOL0     C73301  11.980   3.892  10.599  0.6456 -0.9238  0.5146
  556MOL0     C73302  12.101   3.960  10.660  0.5284  0.3090  0.2144
  556MOL0     C73303  12.223   3.865  10.627 -0.0415 -0.1231 -1.6726
  556MOL0    Cl73304  12.369   3.953  10.699  0.2709 -0.4008 -0.4580
  556MOL0     C73305  11.326   4.180  10.656  0.6838  0.0513  0.6077
  556MOL0     C73306  11.231   4.287  10.692  0.4259  0.1413  0.0462
  556MOL0     O73307  11.183   4.468  10.912  1.0218  0.2396  0.2919
  556MOL0     C73308  11.034   4.690  10.951  0.0655  0.3027 -0.1618
  556MOL0     C73309  10.943   4.795  10.978 -0.5694  0.5193  0.0640
  556MOL0     N73310  10.270   5.295  10.597 -0.3067  1.1766  0.6253
  556MOL0     N73311  10.168   5.253  10.532  0.4341 -0.0733  0.3409
  556MOL0     C73312   9.268   4.483  10.188 -0.2766  0.0115 -0.7561
  556MOL0     C73313   9.260   4.423  10.066 -0.7656 -0.2461 -0.2739
  556MOL0     C73314   9.308   4.368   9.630  0.1242  0.0599 -1.0921
  556MOL0     C73315   9.419   4.292   9.588  0.0018 -0.0415 -0.7998
  556MOL0     C73316   9.421   4.230   9.463 -0.2702 -0.7541  0.9980
  556MOL0     C73317   9.332   4.273   9.364  0.7649 -0.9255  0.4986
  556MOL0     O73318   9.338   4.240   9.233  0.1349 -0.0904 -0.1438
  556MOL0     C73319   9.408   4.118   9.195 -0.0151 -0.3616  0.7827
  556MOL0     C73320   9.396   4.079   9.052  0.7051 -0.2966  0.5720
  556MOL0     C73321   9.245   4.103   9.011  0.8854  0.5500  0.8818
  556MOL0     C73322   9.217   4.045   8.871  0.3106 -0.0245 -0.6194
  556MOL0     C73323   9.074   4.053   8.844 -0.7555 -0.1675 -0.7335
  556MOL0     C73324   8.956   4.034   8.816 -0.6679 -0.6890  0.2752
  556MOL0     C73325   9.228   4.355   9.401  0.4646  0.5963  0.5871
  556MOL0     C73326   9.215   4.400   9.533 -0.0401  0.7073 -0.5095
  556MOL0     H73327   9.584   4.453   9.980 -2.9963 -2.1684 -3.0136
  556MOL0     H73328   9.584   4.582  10.197 -0.0021  0.1095  0.5827
  556MOL0     H73329   9.548   4.478  10.413  0.2450  0.7371  0.4675
  556MOL0     H73330   9.396   4.439  10.498  0.1659  1.6092  4.1905
  556MOL0     H73331   9.519   4.534  10.655 -1.3739 -3.0342 -1.5514
  556MOL0     H73332   9.383   4.634  10.620  1.0931  0.4393  1.3629
  556MOL0     H73333   9.532   4.782  10.475 -3.1075 -2.1877  0.5809
  556MOL0     H73334   9.674   4.702  10.548  0.8201  0.1054  0.5254
  556MOL0     H73335   9.454   4.839  10.701  0.0253 -0.7557 -0.6877
  556MOL0     H73336   9.586   4.757  10.778 -0.1641  0.3430  0.6499
  556MOL0     H73337   9.633   4.992  10.788  0.9191 -1.3010  0.5427
  556MOL0     H73338   9.586   5.010  10.623 -1.0984 -2.3693 -1.9852
  556MOL0     H73339   9.791   4.894  10.541 -0.0382 -1.6592  0.9058
  556MOL0     H73340   9.844   4.857  10.696 -0.3145 -0.4974  0.2946
  556MOL0     H73341   9.803   5.161  10.647  4.8782  4.0482 -1.9551
  556MOL0     H73342   9.904   5.077  10.762 -0.8269 -0.4735  1.3512
  556MOL0     H73343   9.944   5.107  10.474 -2.3422 -2.5855  0.4388
  556MOL0     H73344  10.031   4.967  10.541 -0.6948 -0.4313 -3.2436
  556MOL0     H73345  10.159   5.054  10.792 -1.2759  0.9943  1.2173
  556MOL0     H73346  10.353   5.261  10.916  0.6422  0.6839  0.0998
  556MOL0     H73347  10.457   5.284  10.778 -0.0787 -1.5237 -1.4531
  556MOL0     H73348  10.440   5.017  10.760  0.1080 -1.7515  0.9895
  556MOL0     H73349  10.349   5.029  10.915 -1.9143 -0.7318 -2.5095
  556MOL0     H73350  10.625   5.126  10.850 -3.5048  2.3241 -0.5872
  556MOL0     H73351  10.573   5.094  11.012  3.8412  2.0558 -1.7821
  556MOL0     H73352  10.638   4.920  10.786 -0.5048  0.8928 -0.7308
  556MOL0     H73353  10.532   4.855  10.891  0.6847  0.1086 -1.4150
  556MOL0     H73354  10.673   4.675  10.811 -0.3257 -0.5453  2.5384
  556MOL0     H73355  10.818   4.509  10.757  0.1613  2.1304 -3.3218
  556MOL0     H73356  10.975   4.111  10.811 -0.7078 -0.5032 -0.8225
  556MOL0     H73357  11.119   3.922  10.749  2.1149 -0.4030  1.9718
  556MOL0     H73358  11.455   4.030  10.463 -1.4804  0.8835  1.1936
  556MOL0     H73359  11.332   3.909  10.422 -0.8723  3.0910 -0.2127
  556MOL0     H73360  11.553   3.800  10.393 -1.0297 -0.5957 -0.8454
  556MOL0     H73361  11.473   3.748  10.540  0.7293 -1.4349 -2.4942
  556MOL0     H73362  11.691   3.790  10.619  0.0945 -0.6401 -0.7742
  556MOL0     H73363  11.617   3.947  10.652 -1.7490 -0.6375 -1.4134
  556MOL0     H73364  11.785   3.891  10.404 -2.6507 -0.9823 -1.3611
  556MOL0     H73365  11.702   4.044  10.448  0.0512 -1.0696 -0.1276
  556MOL0     H73366  11.854   4.070  10.638  1.8401  0.4141 -0.1364
  556MOL0     H73367  11.935   4.057  10.481 -0.0880 -3.0605 -2.8081
  556MOL0     H73368  12.010   3.836  10.510  2.4687  1.6281 -0.6257
  556MOL0     H73369  11.935   3.826  10.673 -2.0071 -0.0871 -0.2109
  556MOL0     H73370  12.117   4.047  10.596  1.4293  0.7971  1.0588
  556MOL0     H73371  12.090   4.003  10.760 -1.9707  1.1945 -0.3713
  556MOL0     H73372  12.248   3.847  10.522  1.2103 -3.7388 -0.9282
  556MOL0     H73373  12.210   3.760  10.655  1.6813  0.0778  0.1309
  556MOL0     H73374  11.426   4.201  10.618 -0.5109  1.4882 -2.0866
  556MOL0     H73375  11.262   4.390  10.679  0.5515 -0.1768 -2.6449
  556MOL0     H73376  11.126   4.700  11.006 -1.4410  1.0147  2.4090
  556MOL0     H73377  10.981   4.874  11.042  2.4659 -0.5966 -0.1680
  556MOL0     H73378   9.179   4.489  10.251 -1.9349 -2.0601 -2.7080
  556MOL0     H73379   9.160   4.397  10.036 -0.2827 -2.6198  0.0034
  556MOL0     H73380   9.495   4.261   9.659 -1.3141  0.8919  1.1120
  556MOL0     H73381   9.496   4.155   9.442  2.4671  0.9072  4.0152
  556MOL0     H73382   9.379   4.036   9.261  3.0840 -0.7152  1.8300
  556MOL0     H73383   9.512   4.147   9.211 -0.3308  2.6348 -1.6515
  556MOL0     H73384   9.464   4.151   9.005  1.6776 -1.2943  0.4290
  556MOL0     H73385   9.418   3.975   9.028 -0.2472 -0.4018  0.0791
  556MOL0     H73386   9.221   4.210   9.011 -0.0181  0.4262 -1.6543
  556MOL0     H73387   9.182   4.054   9.086 -1.7810  3.0246  0.4653
  556MOL0     H73388   9.285   4.087   8.797 -0.8466  0.9191 -1.1786
  556MOL0     H73389   9.243   3.939   8.881 -0.4585 -0.2946 -1.3394
  556MOL0     H73390   8.865   3.982   8.794  0.0105 -2.0298  0.5589
  556MOL0     H73391   9.150   4.383   9.330  0.2161 -1.6447 -0.0784
  556MOL0     H73392   9.126   4.441   9.578 -0.0794 -1.0595  1.1668
  557MOL0     O73393   2.244   7.116   7.284 -0.3238  0.3327 -0.6755
  557MOL0     C73394   2.293   7.128   7.394 -0.3846  0.0219 -0.3597
  557MOL0     O73395   2.231   7.187   7.498  0.3867 -0.3505  0.5821
  557MOL0     C73396   2.097   7.221   7.516  0.4855 -0.0924 -0.8574
  557MOL0     C73397   2.043   7.221   7.643 -0.1800  0.0958  0.0522
  557MOL0     C73398   1.908   7.261   7.670 -0.1003 -0.1387 -0.7309
  557MOL0     C73399   1.819   7.288   7.569 -0.5896 -0.2395  0.1302
  557MOL0     O73400   1.695   7.334   7.600  0.2966 -0.3950 -0.2283
  557MOL0     C73401   1.578   7.320   7.513 -0.0411  0.6030  0.6363
  557MOL0     C73402   1.451   7.330   7.600 -0.2545 -1.2254  0.2360
  557MOL0     C73403   1.327   7.356   7.503  0.2640 -0.6723  0.2951
  557MOL0     C73404   1.205   7.348   7.582 -0.1611 -0.5264 -1.1027
  557MOL0     C73405   1.075   7.326   7.499 -0.8192 -0.0726  0.1240
  557MOL0     C73406   0.962   7.297   7.593 -0.9324  0.3593 -0.6925
  557MOL0     C73407   0.818   7.323   7.528  0.1026  0.5964  0.4714
  557MOL0     C73408   0.735   7.193   7.522 -0.6644 -0.4568 -1.0102
  557MOL0     N73409   0.599   7.216   7.481  0.2224 -0.1965 -0.0675
  557MOL0     C73410   0.507   7.122   7.474 -0.4825 -0.2713 -0.9557
  557MOL0     C73411   0.391   7.179   7.426 -0.4672 -0.0917 -0.3734
  557MOL0     C73412   0.251   7.115   7.415  0.1586  0.5308  0.0727
  557MOL0     C73413   0.167   7.162   7.302  0.5489 -0.4426  0.1317
  557MOL0     C73414   0.012   7.129   7.305 -0.4461  0.3057  0.4318
  557MOL0     C73415  -0.073   7.200   7.415  0.6155  0.0539 -0.1742
  557MOL0     O73416  -0.192   7.126   7.414 -0.6825 -0.3963  0.7941
  557MOL0     C73417  -0.288   7.142   7.514  0.0420 -0.3153  0.0318
  557MOL0     C73418  -0.324   7.269   7.563 -0.5503  0.0930 -0.5327
  557MOL0     C73419  -0.430   7.288   7.647 -0.3726  0.7930 -0.0401
  557MOL0     C73420  -0.505   7.170   7.690 -0.9978 -0.1103 -0.4609
  557MOL0     C73421  -0.617   7.184   7.791 -0.2560  0.4408 -0.2485
  557MOL0     O73422  -0.639   7.300   7.851 -0.1467  0.2515 -0.5214
  557MOL0     C73423  -0.746   7.316   7.940  0.2535 -0.4360  0.3784
  557MOL0     C73424  -0.725   7.299   8.078  0.3319  0.1718 -0.4110
  557MOL0     C73425  -0.834   7.293   8.170  0.7966 -0.5630  0.5637
  557MOL0     C73426  -0.966   7.327   8.125 -0.8908 -0.7366 -0.2080
  557MOL0     O73427  -1.077   7.342   8.195 -0.9114  0.0678 -0.3765
  557MOL0     C73428  -1.069   7.388   8.329 -0.4171 -0.0424  0.1971
  557MOL0     C73429  -1.001   7.529   8.351  0.3049 -0.0512 -0.0098
  557MOL0     C73430  -1.088   7.628   8.277 -0.5993 -0.3556 -0.2781
  557MOL0     C73431  -1.048   7.770   8.298  0.0084  0.2188 -0.0383
  557MOL0     C73432  -1.013   7.833   8.167 -0.5265 -0.0193  0.5165
  557MOL0     C73433  -0.987   7.983   8.194  0.0088  0.0681  0.4167
  557MOL0     C73434  -0.940   8.049   8.059 -0.3712  0.0272 -0.3709
  557MOL0     C73435  -1.046   8.131   7.987 -1.1089 -0.3049  0.2390
  557MOL0    Cl73436  -1.172   8.039   7.895  0.0616 -0.0964  0.2340
  557MOL0     C73437  -0.980   7.354   7.990  0.1735 -0.2508 -0.0625
  557MOL0     C73438  -0.873   7.357   7.902 -0.5048 -1.2626  0.4724
  557MOL0     O73439  -0.676   7.081   7.811 -0.1331 -0.4406 -1.1677
  557MOL0     C73440  -0.465   7.040   7.641 -0.1888 -0.8132 -0.7258
  557MOL0     C73441  -0.358   7.033   7.549  0.0161  0.9274  0.2623
  557MOL0     N73442   0.419   7.313   7.409 -0.6119 -0.1451 -0.5031
  557MOL0     N73443   0.546   7.336   7.446  1.3139  0.3572 -0.2549
  557MOL0     C73444   1.864   7.276   7.439 -0.0675  0.0601 -0.3911
  557MOL0     C73445   1.999   7.239   7.411  0.2599  0.3366  0.5610
  557MOL0     C73446   2.438   7.082   7.414  0.8609 -0.4767 -0.1612
  557MOL0     C73447   2.488   7.006   7.305  0.1461  0.6344 -0.7005
  557MOL0     C73448   2.627   6.974   7.317 -0.6452 -0.0260  1.0947
  557MOL0     C73449   2.705   7.014   7.420 -0.5639 -0.0276 -0.5208
  557MOL0     O73450   2.834   6.980   7.428 -0.5570 -0.0359 -0.0346
  557MOL0     C73451   2.923   7.080   7.386 -0.7638  0.5772 -0.8538
  557MOL0     C73452   3.066   7.035   7.403  0.6910  0.1638 -1.0538
  557MOL0     C73453   3.093   6.937   7.285  0.0747 -0.5696  0.2512
  557MOL0     C73454   3.213   6.851   7.308 -0.8010 -0.2650 -0.2376
  557MOL0     C73455   3.264   6.777   7.193  0.2736 -0.1723  0.7208
  557MOL0     C73456   3.296   6.708   7.098 -0.8836 -0.2717 -0.1158
  557MOL0     C73457   2.646   7.069   7.535 -0.3381 -0.4707 -0.1609
  557MOL0     C73458   2.511   7.109   7.529  0.3597 -0.4709 -0.3166
  557MOL0     H73459   2.104   7.200   7.731 -0.8991 -1.1566  0.2770
  557MOL0     H73460   1.873   7.272   7.772 -1.8997 -1.7011 -1.1267
  557MOL0     H73461   1.574   7.226   7.457 -3.7654  0.9258  0.1445
  557MOL0     H73462   1.576   7.402   7.441  3.2212 -0.8422 -1.3362
  557MOL0     H73463   1.469   7.409   7.674  0.4505 -2.2371  1.1964
  557MOL0     H73464   1.449   7.243   7.667 -0.5242 -0.9070  0.6482
  557MOL0     H73465   1.340   7.273   7.432  5.5599  0.7318 -0.8868
  557MOL0     H73466   1.346   7.448   7.446  1.3958 -1.8097 -1.2581
  557MOL0     H73467   1.206   7.271   7.660 -2.3731  1.5399  1.2013
  557MOL0     H73468   1.202   7.441   7.640 -1.2273  1.0725 -3.5635
  557MOL0     H73469   1.095   7.248   7.425 -2.9768 -2.4772  1.9162
  557MOL0     H73470   1.067   7.423   7.449  1.0204 -0.9734 -2.1046
  557MOL0     H73471   0.966   7.351   7.688 -0.9227 -2.1820  0.8658
  557MOL0     H73472   0.964   7.194   7.630 -0.8493  0.7303  0.4009
  557MOL0     H73473   0.764   7.401   7.583  0.6113  1.6131 -0.4364
  557MOL0     H73474   0.836   7.361   7.427 -4.3297  1.6925 -0.1282
  557MOL0     H73475   0.737   7.155   7.624  1.6956  0.4152 -0.6663
  557MOL0     H73476   0.783   7.117   7.459 -0.2982 -1.6521  0.6453
  557MOL0     H73477   0.527   7.020   7.503  0.0933  0.6677  2.3163
  557MOL0     H73478   0.200   7.128   7.512  0.6342 -1.0521  0.5644
  557MOL0     H73479   0.260   7.007   7.407 -0.4927  0.3383  1.5257
  557MOL0     H73480   0.197   7.121   7.205 -1.2725  0.7545 -1.0132
  557MOL0     H73481   0.182   7.270   7.298  3.3036 -0.5770  3.1785
  557MOL0     H73482  -0.032   7.166   7.212 -0.4178 -0.1212  0.2433
  557MOL0     H73483   0.005   7.020   7.314 -2.5776 -0.0829 -3.5036
  557MOL0     H73484  -0.094   7.304   7.391  0.5065  0.2454  0.7208
  557MOL0     H73485  -0.024   7.209   7.513  0.4828 -0.2058 -0.0810
  557MOL0     H73486  -0.271   7.359   7.533  0.8458 -0.2660  0.7424
  557MOL0     H73487  -0.446   7.394   7.667 -1.4545  0.3240  1.8417
  557MOL0     H73488  -0.624   7.286   8.116 -0.9814  0.4755  3.6259
  557MOL0     H73489  -0.813   7.267   8.273  1.6212 -0.2126  0.4921
  557MOL0     H73490  -1.022   7.312   8.391 -4.3046 -1.7317  1.3691
  557MOL0     H73491  -1.174   7.381   8.360 -0.6397  1.8244 -0.0028
  557MOL0     H73492  -0.898   7.524   8.314  0.4873 -1.6349  0.6173
  557MOL0     H73493  -1.007   7.555   8.457 -0.9004 -1.5891  0.3434
  557MOL0     H73494  -1.190   7.617   8.314 -0.3995  0.1533  0.4558
  557MOL0     H73495  -1.083   7.610   8.170  1.4136 -0.4503 -0.2192
  557MOL0     H73496  -1.129   7.822   8.349 -1.9887 -3.4054  0.7654
  557MOL0     H73497  -0.956   7.771   8.359 -0.7320  1.6795  1.1251
  557MOL0     H73498  -1.100   7.821   8.102 -0.9741  3.1805  0.3422
  557MOL0     H73499  -0.927   7.793   8.112 -0.6851  0.4433 -0.0828
  557MOL0     H73500  -0.908   7.985   8.269  0.3647 -2.4844  0.1893
  557MOL0     H73501  -1.068   8.039   8.243 -0.7727 -1.1150  0.5184
  557MOL0     H73502  -0.861   8.117   8.093 -0.8262  2.0024 -2.9763
  557MOL0     H73503  -0.906   7.972   7.990 -0.9077 -2.2365  1.7267
  557MOL0     H73504  -0.981   8.174   7.910 -2.6788 -1.3867 -1.7876
  557MOL0     H73505  -1.088   8.215   8.043 -1.4063  0.6492 -1.3685
  557MOL0     H73506  -1.084   7.361   7.960  0.5906  4.6424 -1.2567
  557MOL0     H73507  -0.881   7.375   7.795  0.7785 -0.8288  0.4298
  557MOL0     H73508  -0.509   6.949   7.680 -0.6676  0.3329  1.5916
  557MOL0     H73509  -0.344   6.935   7.504  2.8699  1.9722 -1.4365
  557MOL0     H73510   1.789   7.280   7.361 -1.7097  1.3767  1.1592
  557MOL0     H73511   2.019   7.227   7.305  0.4598 -1.4436  0.7730
  557MOL0     H73512   2.421   6.982   7.223  0.6878  2.0049 -1.6039
  557MOL0     H73513   2.668   6.927   7.228  1.3526  1.1601  1.3229
  557MOL0     H73514   2.904   7.171   7.443  1.4124  0.6273 -0.0912
  557MOL0     H73515   2.906   7.107   7.281  2.1428 -0.7335 -1.7678
  557MOL0     H73516   3.127   7.125   7.390  1.4518 -0.6896 -4.5094
  557MOL0     H73517   3.082   6.992   7.502  1.7778  0.0752 -1.2542
  557MOL0     H73518   3.115   6.996   7.196 -1.3481 -0.0460  0.2107
  557MOL0     H73519   3.007   6.872   7.266 -3.4505  4.0214 -1.5320
  557MOL0     H73520   3.295   6.918   7.337  0.6026 -1.1040 -2.0083
  557MOL0     H73521   3.206   6.773   7.385 -1.4788 -0.1244 -0.1556
  557MOL0     H73522   3.330   6.634   7.028 -0.7906  2.4722 -3.1947
  557MOL0     H73523   2.702   7.107   7.619 -3.2551 -1.8310  2.6251
  557MOL0     H73524   2.481   7.164   7.618 -0.0699  0.1729 -0.8493
  558MOL0     O73525   8.281   8.772   3.121 -0.8447 -0.2303  0.6316
  558MOL0     C73526   8.346   8.673   3.155  0.5480  0.9899  0.2678
  558MOL0     O73527   8.298   8.539   3.145  1.1300 -0.0499  0.2233
  558MOL0     C73528   8.167   8.520   3.096 -0.5929 -1.0607  0.0973
  558MOL0     C73529   8.113   8.575   2.981  0.4378 -0.6684 -0.0988
  558MOL0     C73530   7.980   8.558   2.949 -0.9474 -0.7156  0.0502
  558MOL0     C73531   7.894   8.498   3.042  0.2861  1.0191  0.3393
  558MOL0     O73532   7.756   8.488   3.010 -0.8661  0.0846  0.1693
  558MOL0     C73533   7.673   8.389   3.075 -0.0055  0.4822 -0.4511
  558MOL0     C73534   7.561   8.346   2.980  0.0600 -0.1414  0.0076
  558MOL0     C73535   7.468   8.233   3.028  0.6582  0.2375 -1.0665
  558MOL0     C73536   7.340   8.237   2.944 -1.1722 -0.1444  1.4363
  558MOL0     C73537   7.259   8.108   2.973  0.1629 -0.7920 -0.6096
  558MOL0     C73538   7.115   8.136   2.937  0.5503  0.3917 -0.2161
  558MOL0     C73539   7.029   8.012   2.980  0.1748 -0.1218  0.5580
  558MOL0     C73540   6.892   8.031   2.946 -0.4170  0.7271  0.5084
  558MOL0     N73541   6.812   7.939   3.032 -0.2979  0.9925  0.9641
  558MOL0     C73542   6.714   7.981   3.122 -0.5667  0.6591 -0.2720
  558MOL0     C73543   6.666   7.861   3.168 -0.0219 -0.2772  0.4262
  558MOL0     C73544   6.588   7.850   3.299 -0.1549 -0.7771 -0.5527
  558MOL0     C73545   6.491   7.734   3.305  0.5238  0.2355 -1.4506
  558MOL0     C73546   6.453   7.692   3.449 -0.5887 -0.3051 -0.6500
  558MOL0     C73547   6.362   7.568   3.448 -0.7295 -0.4282 -0.1096
  558MOL0     O73548   6.234   7.613   3.389  0.7463 -0.6409 -0.6469
  558MOL0     C73549   6.131   7.674   3.464 -1.0946 -0.1010  0.6015
  558MOL0     C73550   6.149   7.731   3.590 -0.0891  0.7903 -0.3554
  558MOL0     C73551   6.048   7.792   3.660  0.2667 -0.4571 -0.4655
  558MOL0     C73552   5.924   7.815   3.597  0.3443 -0.0757 -0.1039
  558MOL0     C73553   5.809   7.875   3.663 -0.6513 -0.5359 -0.9674
  558MOL0     O73554   5.703   7.911   3.589  0.7012 -0.1195 -0.6028
  558MOL0     C73555   5.598   7.976   3.639 -0.2898  1.0148 -0.5457
  558MOL0     C73556   5.480   7.919   3.695 -0.1806  0.0860  0.4135
  558MOL0     C73557   5.374   7.998   3.739 -0.0931 -0.1146  1.0493
  558MOL0     C73558   5.374   8.132   3.735  0.3995 -0.1870  0.5873
  558MOL0     O73559   5.268   8.216   3.777 -0.4202  0.0929  0.3555
  558MOL0     C73560   5.191   8.177   3.892  0.1732  0.1143 -0.5806
  558MOL0     C73561   5.088   8.281   3.947 -0.1916  0.6916  0.1385
  558MOL0     C73562   4.973   8.294   3.860 -0.8544 -0.2221 -0.0555
  558MOL0     C73563   4.885   8.415   3.905  0.4260  0.3783  1.1996
  558MOL0     C73564   4.765   8.430   3.805 -0.1055  0.1512 -0.4406
  558MOL0     C73565   4.635   8.356   3.834 -0.9122  0.0821  0.3209
  558MOL0     C73566   4.545   8.345   3.715  1.3886  0.2218  0.3491
  558MOL0     C73567   4.416   8.271   3.760  0.9508 -0.3405 -0.2462
  558MOL0    Cl73568   4.316   8.351   3.879  0.3474  0.2698 -0.1733
  558MOL0     C73569   5.489   8.193   3.678  1.0158  0.2679 -0.5616
  558MOL0     C73570   5.596   8.112   3.636  0.6966  0.3494  1.1923
  558MOL0     O73571   5.814   7.881   3.789  0.1432  0.3066 -0.0256
  558MOL0     C73572   5.909   7.758   3.467  0.2951  0.2040 -0.2570
  558MOL0     C73573   6.010   7.696   3.403 -0.4896 -0.2162 -0.0039
  558MOL0     N73574   6.735   7.762   3.111 -0.5511  0.7233  0.2140
  558MOL0     N73575   6.826   7.805   3.027  0.0322 -0.1916 -0.1316
  558MOL0     C73576   7.946   8.450   3.160 -1.4977 -0.0061 -0.6061
  558MOL0     C73577   8.086   8.460   3.190 -0.2113  1.3161  0.0035
  558MOL0     C73578   8.483   8.681   3.195  0.0523 -0.0275 -0.2757
  558MOL0     C73579   8.564   8.565   3.206  0.7386  0.4202 -0.1695
  558MOL0     C73580   8.699   8.568   3.248 -0.6393 -0.0804 -0.1796
  558MOL0     C73581   8.746   8.689   3.287  0.4530 -0.6129 -0.2426
  558MOL0     O73582   8.876   8.687   3.323  1.0506 -0.2521  0.3129
  558MOL0     C73583   8.950   8.813   3.326  0.5769 -0.1173  0.0833
  558MOL0     C73584   9.096   8.781   3.355  0.7005  0.6695  0.2932
  558MOL0     C73585   9.119   8.706   3.490  0.7188 -0.3602  0.0951
  558MOL0     C73586   9.267   8.721   3.538  0.6170 -0.1571  0.0644
  558MOL0     C73587   9.291   8.861   3.588  0.0141  0.2642  0.7486
  558MOL0     C73588   9.330   8.974   3.596 -0.6598 -0.8210 -0.3117
  558MOL0     C73589   8.663   8.804   3.283 -0.4299  0.3849  0.0860
  558MOL0     C73590   8.540   8.802   3.237  0.2569 -0.5122  0.1294
  558MOL0     H73591   8.169   8.644   2.918  0.3027  0.7784  1.2940
  558MOL0     H73592   7.947   8.595   2.853  0.3022 -1.6431 -0.7704
  558MOL0     H73593   7.640   8.425   3.173 -0.0824 -0.7101 -0.0296
  558MOL0     H73594   7.720   8.294   3.102  1.7865  1.8461  1.6202
  558MOL0     H73595   7.611   8.309   2.890 -0.8711 -1.5620  0.0331
  558MOL0     H73596   7.503   8.437   2.966 -0.1330  0.2129  2.5892
  558MOL0     H73597   7.439   8.253   3.132 -0.0818 -0.6655 -1.0883
  558MOL0     H73598   7.508   8.132   3.012 -0.8719 -0.1331 -2.8624
  558MOL0     H73599   7.282   8.325   2.975  1.1414  1.5941  1.0606
  558MOL0     H73600   7.370   8.251   2.840  1.1122  0.4546  2.1126
  558MOL0     H73601   7.267   8.072   3.076 -1.5530  2.7345  0.9589
  558MOL0     H73602   7.284   8.020   2.913 -3.3080 -0.3827 -2.9792
  558MOL0     H73603   7.102   8.158   2.831  0.5134  0.3935 -0.2109
  558MOL0     H73604   7.082   8.221   2.997  0.7136 -0.7476  1.6038
  558MOL0     H73605   7.071   7.928   2.925  0.0144  1.4121 -2.0988
  558MOL0     H73606   7.030   7.990   3.087  0.2787 -1.5836  0.2761
  558MOL0     H73607   6.877   7.997   2.843 -0.1824 -2.7422  1.5127
  558MOL0     H73608   6.860   8.135   2.951 -2.2476  0.1521  1.7314
  558MOL0     H73609   6.692   8.081   3.159 -0.7848  0.8561 -0.9351
  558MOL0     H73610   6.535   7.941   3.328  0.9104 -1.1220  2.9714
  558MOL0     H73611   6.675   7.823   3.360  1.2589  0.9134 -1.7082
  558MOL0     H73612   6.531   7.642   3.261 -0.3915  0.3272 -2.5177
  558MOL0     H73613   6.402   7.761   3.248 -1.7815 -1.8972  0.9265
  558MOL0     H73614   6.544   7.652   3.495 -0.6506  0.9555  0.6699
  558MOL0     H73615   6.411   7.771   3.511  1.8672 -0.4738  1.4036
  558MOL0     H73616   6.344   7.528   3.548 -3.1576  1.7348  0.4428
  558MOL0     H73617   6.416   7.495   3.387  2.2564 -0.6699  2.5392
  558MOL0     H73618   6.245   7.713   3.638 -0.6727  1.6426  1.2197
  558MOL0     H73619   6.073   7.828   3.760  3.3885 -0.2170 -1.2172
  558MOL0     H73620   5.467   7.812   3.695  1.4871 -0.1825 -1.6726
  558MOL0     H73621   5.280   7.952   3.768 -1.4142  0.3944 -2.0434
  558MOL0     H73622   5.254   8.143   3.975  0.4697 -0.4334 -1.0316
  558MOL0     H73623   5.134   8.093   3.853  3.2564 -2.3501 -0.1290
  558MOL0     H73624   5.134   8.380   3.947 -0.3736  0.7896  1.4670
  558MOL0     H73625   5.052   8.258   4.048  0.6895  0.3430  0.3776
  558MOL0     H73626   4.909   8.206   3.861 -0.7983 -0.2893  2.3017
  558MOL0     H73627   5.004   8.320   3.758 -1.4557  3.2663  0.5231
  558MOL0     H73628   4.841   8.397   4.003 -3.8220  3.7868  0.2358
  558MOL0     H73629   4.941   8.509   3.907  0.6356  0.3168 -0.3878
  558MOL0     H73630   4.791   8.388   3.707 -2.9808 -0.2708 -1.1027
  558MOL0     H73631   4.744   8.535   3.785 -0.4528  0.0103 -0.8417
  558MOL0     H73632   4.584   8.408   3.916 -1.7768 -0.5019  0.1611
  558MOL0     H73633   4.675   8.258   3.859  2.4948  1.3789  0.4592
  558MOL0     H73634   4.516   8.444   3.679 -0.5239 -1.1052 -2.0375
  558MOL0     H73635   4.583   8.281   3.634  0.2790 -0.0096  0.0005
  558MOL0     H73636   4.432   8.172   3.804 -1.3195 -1.8956 -2.6165
  558MOL0     H73637   4.351   8.263   3.672  0.3664  5.4653 -0.6894
  558MOL0     H73638   5.501   8.300   3.669  3.9255  0.2079  1.2910
  558MOL0     H73639   5.669   8.158   3.570  0.7435 -0.0571  0.9603
  558MOL0     H73640   5.816   7.776   3.414  0.5542 -0.7549 -1.0836
  558MOL0     H73641   6.000   7.652   3.304  2.5035 -1.5417  0.1668
  558MOL0     H73642   7.872   8.397   3.220  0.9604 -1.8122  0.9871
  558MOL0     H73643   8.113   8.417   3.286  0.4650  1.6302 -0.0383
  558MOL0     H73644   8.533   8.465   3.180  2.5982 -0.6554  1.5469
  558MOL0     H73645   8.753   8.474   3.257  1.9111  1.0194 -2.7891
  558MOL0     H73646   8.903   8.871   3.406 -0.8731 -1.5896  0.3543
  558MOL0     H73647   8.942   8.869   3.232 -0.3732  1.4282  1.0308
  558MOL0     H73648   9.149   8.725   3.277  1.3548  1.8198 -0.1145
  558MOL0     H73649   9.152   8.873   3.336  0.5652  0.2209 -2.6731
  558MOL0     H73650   9.091   8.600   3.484 -0.3218 -0.0190 -1.7588
  558MOL0     H73651   9.070   8.746   3.579  0.1580 -1.0257  0.0938
  558MOL0     H73652   9.289   8.652   3.619  0.5184  0.6512  0.7964
  558MOL0     H73653   9.349   8.696   3.470  1.2305  0.8594  0.4089
  558MOL0     H73654   9.374   9.071   3.605 -2.2720  0.4699 -4.1738
  558MOL0     H73655   8.695   8.905   3.305 -0.5896  0.8010 -1.4758
  558MOL0     H73656   8.481   8.892   3.224 -1.7467 -1.6802  0.7951
  559MOL0     O73657  10.928   2.817  10.027  0.0652  0.7374  0.4209
  559MOL0     C73658  10.908   2.695  10.030 -0.4585 -0.8677  0.1629
  559MOL0     O73659  10.813   2.628  10.109  0.2914 -0.2980  0.3956
  559MOL0     C73660  10.704   2.711  10.151  0.6609  0.8742  0.8516
  559MOL0     C73661  10.568   2.663  10.129  0.2129  0.2157  0.9323
  559MOL0     C73662  10.457   2.722  10.184  0.0209 -0.1485 -0.4952
  559MOL0     C73663  10.465   2.839  10.257  0.5180 -0.0232 -0.9443
  559MOL0     O73664  10.356   2.917  10.299 -0.0065  0.5817 -0.0974
  559MOL0     C73665  10.224   2.859  10.325 -0.2069 -0.3540 -0.2360
  559MOL0     C73666  10.219   2.756  10.436 -0.1882 -1.0800  0.0094
  559MOL0     C73667  10.281   2.805  10.572 -0.5886 -0.2970 -0.4800
  559MOL0     C73668  10.267   2.707  10.693  0.1539  0.1119 -0.4562
  559MOL0     C73669  10.301   2.771  10.823  0.6102  0.8588 -0.2479
  559MOL0     C73670  10.178   2.828  10.905  0.1630  0.7227  0.1640
  559MOL0     C73671  10.138   2.967  10.862 -0.3346 -0.4537 -0.1570
  559MOL0     C73672  10.066   3.040  10.979  0.1290 -0.4625  0.5194
  559MOL0     N73673   9.932   2.968  10.984 -0.3050  0.2462 -0.5068
  559MOL0     C73674   9.827   2.987  10.896  0.5014  0.0259 -0.1865
  559MOL0     C73675   9.736   2.890  10.921 -0.3722 -1.2924  0.1610
  559MOL0     C73676   9.610   2.875  10.842 -0.6417 -0.4328 -0.0398
  559MOL0     C73677   9.591   2.726  10.815 -0.3702 -0.0985 -0.2526
  559MOL0     C73678   9.478   2.709  10.713  0.2428 -0.2247  0.3208
  559MOL0     C73679   9.333   2.769  10.734  1.2064  0.0408 -1.3131
  559MOL0     O73680   9.243   2.734  10.631  0.2216 -0.0957 -0.6380
  559MOL0     C73681   9.109   2.711  10.650 -0.5249  1.1904  1.2367
  559MOL0     C73682   9.040   2.686  10.533 -0.4237  0.1226  0.5864
  559MOL0     C73683   8.900   2.657  10.541 -0.6035 -0.4690  0.4432
  559MOL0     C73684   8.831   2.659  10.656  0.9643  0.4020 -0.7267
  559MOL0     C73685   8.691   2.629  10.648  0.5117  1.1874  0.2075
  559MOL0     O73686   8.621   2.655  10.765 -0.2895  1.2197 -0.1155
  559MOL0     C73687   8.488   2.630  10.783  0.2463 -0.6151 -0.2553
  559MOL0     C73688   8.454   2.508  10.849 -0.8206  0.1330  0.1008
  559MOL0     C73689   8.323   2.481  10.871 -0.0305 -0.2210  0.2793
  559MOL0     C73690   8.232   2.570  10.835 -0.1639 -0.5684 -0.2772
  559MOL0     O73691   8.096   2.530  10.863  0.0883 -0.1306 -0.3033
  559MOL0     C73692   7.987   2.622  10.878 -0.5969  0.3158 -0.3750
  559MOL0     C73693   7.872   2.544  10.935 -0.9045  0.2648 -0.1940
  559MOL0     C73694   7.738   2.612  10.930  0.0298  0.3331 -0.3935
  559MOL0     C73695   7.628   2.535  11.011 -1.1592  0.0916  0.2709
  559MOL0     C73696   7.496   2.578  10.975  0.7315  0.7232  0.6503
  559MOL0     C73697   7.389   2.563  11.082 -0.5150  0.1954  0.7292
  559MOL0     C73698   7.371   2.412  11.130 -0.0527 -0.8684 -0.2507
  559MOL0     C73699   7.262   2.404  11.237 -1.1544  0.5417 -0.1967
  559MOL0    Cl73700   7.100   2.449  11.182  0.1869 -0.0928  0.4565
  559MOL0     C73701   8.265   2.697  10.776  0.2962 -0.4923 -0.3094
  559MOL0     C73702   8.395   2.717  10.737  0.1560 -0.5489  0.9725
  559MOL0     O73703   8.644   2.578  10.546  0.9719  0.1095  0.7567
  559MOL0     C73704   8.898   2.685  10.781  0.5345 -1.1797  0.1887
  559MOL0     C73705   9.040   2.710  10.772  0.4935 -1.3127 -0.1558
  559MOL0     N73706   9.787   2.819  11.031  0.8882  0.5300  0.9158
  559MOL0     N73707   9.905   2.858  11.058  0.5406  0.1040  0.0260
  559MOL0     C73708  10.597   2.892  10.279  1.3481  0.0513  0.0224
  559MOL0     C73709  10.709   2.827  10.229 -0.9922  0.4000 -0.7192
  559MOL0     C73710  11.005   2.600   9.951  0.9871  0.7953  0.0592
  559MOL0     C73711  11.125   2.652   9.897 -0.1397 -0.4377  0.2796
  559MOL0     C73712  11.197   2.566   9.811 -1.4208 -0.6049  0.3681
  559MOL0     C73713  11.153   2.442   9.767 -0.3918  0.1298  0.3443
  559MOL0     O73714  11.223   2.367   9.668 -0.0725  0.1761 -0.1058
  559MOL0     C73715  11.179   2.243   9.624  0.4780  0.3177  0.7696
  559MOL0     C73716  11.264   2.195   9.515 -1.0633 -0.2361 -0.0775
  559MOL0     C73717  11.258   2.044   9.463 -0.3307 -1.1845 -0.2110
  559MOL0     C73718  11.139   2.001   9.374  0.1782 -0.2245 -0.5569
  559MOL0     C73719  11.010   2.003   9.456 -1.1436 -0.4730  0.5967
  559MOL0     C73720  10.915   1.976   9.521 -0.2357  0.1057 -1.1610
  559MOL0     C73721  11.039   2.391   9.820  0.2652 -0.2520 -0.4698
  559MOL0     C73722  10.957   2.466   9.909 -0.3844 -0.5981  0.5539
  559MOL0     H73723  10.544   2.580  10.064 -0.4520 -0.3914  1.9312
  559MOL0     H73724  10.358   2.679  10.176  0.3969 -1.1661  0.2073
  559MOL0     H73725  10.194   2.817  10.229 -0.5006  0.0681 -0.3300
  559MOL0     H73726  10.147   2.933  10.348  0.5001  0.7061 -1.1569
  559MOL0     H73727  10.258   2.657  10.412  0.8173 -0.2671 -1.8327
  559MOL0     H73728  10.111   2.741  10.453 -1.2521  4.0937 -0.5327
  559MOL0     H73729  10.243   2.906  10.587  5.6862  2.3329  1.0414
  559MOL0     H73730  10.390   2.807  10.561 -0.4904 -1.7474 -0.0144
  559MOL0     H73731  10.165   2.670  10.704  0.4196 -0.6116 -0.4087
  559MOL0     H73732  10.325   2.615  10.678  0.6045 -0.5880  4.0671
  559MOL0     H73733  10.373   2.852  10.805  0.5958  1.6426  2.6851
  559MOL0     H73734  10.343   2.681  10.869 -2.0878  0.1806  1.0800
  559MOL0     H73735  10.214   2.831  11.008  1.0151  3.0380 -0.1491
  559MOL0     H73736  10.089   2.765  10.893 -0.5269  1.3901  1.5575
  559MOL0     H73737  10.229   3.019  10.832 -0.2179 -0.0423  0.8631
  559MOL0     H73738  10.064   2.950  10.784  0.3979  0.8101 -1.1564
  559MOL0     H73739  10.058   3.145  10.949 -3.6700 -1.1100 -1.3562
  559MOL0     H73740  10.128   3.022  11.067 -1.3080 -3.2981  1.0610
  559MOL0     H73741   9.821   3.057  10.812 -0.9528  0.4646  0.2472
  559MOL0     H73742   9.615   2.929  10.747  0.5474 -0.4258  0.0053
  559MOL0     H73743   9.527   2.920  10.896 -1.7815 -1.2341 -1.0763
  559MOL0     H73744   9.560   2.682  10.911  2.8945 -0.8229  0.6170
  559MOL0     H73745   9.690   2.685  10.789 -0.6603 -0.2994 -1.0702
  559MOL0     H73746   9.513   2.744  10.615 -2.8696  0.5159 -0.6235
  559MOL0     H73747   9.457   2.602  10.715  0.6452 -0.3988 -1.8891
  559MOL0     H73748   9.336   2.878  10.728  1.6670  0.0175 -1.5120
  559MOL0     H73749   9.304   2.734  10.834  2.7623 -0.9419 -1.1722
  559MOL0     H73750   9.096   2.687  10.440  1.0541 -0.5199  1.4457
  559MOL0     H73751   8.861   2.639  10.442 -0.4669  0.1992  0.2625
  559MOL0     H73752   8.537   2.444  10.879 -0.0785  1.3639  0.7690
  559MOL0     H73753   8.292   2.381  10.899 -3.0988  0.4748 -0.3577
  559MOL0     H73754   7.958   2.669  10.783  0.5397 -1.2004 -1.5232
  559MOL0     H73755   8.009   2.702  10.949 -0.2311  1.2566 -1.5082
  559MOL0     H73756   7.895   2.516  11.038 -1.8363  1.8672  0.4671
  559MOL0     H73757   7.871   2.453  10.873  4.0127  0.2965 -0.7870
  559MOL0     H73758   7.714   2.629  10.825 -1.5204  1.2076  0.0705
  559MOL0     H73759   7.740   2.710  10.978 -1.0067 -1.2277  3.1858
  559MOL0     H73760   7.622   2.427  10.990 -1.4232  0.5683 -2.4896
  559MOL0     H73761   7.640   2.559  11.117 -0.0934  0.1161  0.1574
  559MOL0     H73762   7.449   2.540  10.884 -1.3763  2.3779  0.9619
  559MOL0     H73763   7.504   2.685  10.953  0.9872  0.2649 -1.8560
  559MOL0     H73764   7.299   2.595  11.029 -1.6046 -1.2246  1.6633
  559MOL0     H73765   7.411   2.631  11.166 -1.5663 -0.8510  1.9052
  559MOL0     H73766   7.337   2.342  11.053 -0.7740  0.5639 -1.2940
  559MOL0     H73767   7.462   2.375  11.178 -0.1138 -1.5362 -0.6379
  559MOL0     H73768   7.294   2.464  11.323 -1.3393 -2.1817  1.8975
  559MOL0     H73769   7.262   2.301  11.273 -1.7850 -0.3677 -2.6516
  559MOL0     H73770   8.191   2.774  10.757  0.3920 -0.6051 -1.1705
  559MOL0     H73771   8.414   2.810  10.685 -0.0855 -0.0968  1.6751
  559MOL0     H73772   8.837   2.695  10.870  0.2468  5.8276 -0.1829
  559MOL0     H73773   9.088   2.739  10.865 -1.0984  0.5756  0.1441
  559MOL0     H73774  10.603   2.992  10.321 -1.0241  1.4833 -2.6668
  559MOL0     H73775  10.808   2.869  10.245 -1.2793  1.9504 -2.6787
  559MOL0     H73776  11.156   2.756   9.903 -1.9723  0.0576  3.4462
  559MOL0     H73777  11.284   2.609   9.761 -1.1492 -2.4820 -0.8614
  559MOL0     H73778  11.082   2.255   9.574  2.3556 -1.2911 -3.7775
  559MOL0     H73779  11.167   2.164   9.698 -0.8975 -1.2181 -0.9984
  559MOL0     H73780  11.255   2.255   9.423  2.9481 -1.0961 -1.2394
  559MOL0     H73781  11.366   2.209   9.551 -1.4866  1.0608  0.7288
  559MOL0     H73782  11.254   1.986   9.555  2.1901  0.4212  1.0224
  559MOL0     H73783  11.348   2.022   9.405 -1.2866 -2.0823 -1.4057
  559MOL0     H73784  11.129   2.081   9.300  1.6372 -1.1848 -1.8352
  559MOL0     H73785  11.157   1.898   9.343  2.3913 -0.7219  2.0288
  559MOL0     H73786  10.836   1.966   9.593 -0.9011  3.8642 -1.2003
  559MOL0     H73787  10.998   2.290   9.818 -1.3060  0.1559  3.1683
  559MOL0     H73788  10.859   2.430   9.940 -0.8122  3.1973  4.5636
  560MOL0     O73789   0.864   0.094   6.671  0.1173 -0.5000 -0.4646
  560MOL0     C73790   0.815  -0.016   6.700 -0.4880 -0.2011  0.3556
  560MOL0     O73791   0.683  -0.048   6.670 -0.7091  0.0441 -0.7835
  560MOL0     C73792   0.592   0.036   6.611  0.1028  0.3212 -0.5342
  560MOL0     C73793   0.507  -0.007   6.510 -0.5743  0.9315 -0.3765
  560MOL0     C73794   0.404   0.074   6.464  0.8398  0.7658  0.5923
  560MOL0     C73795   0.386   0.205   6.508 -0.1069 -0.1208 -0.5377
  560MOL0     O73796   0.292   0.292   6.457  0.4568 -0.5848  0.8298
  560MOL0     C73797   0.293   0.295   6.311 -0.0412  0.2196  0.2340
  560MOL0     C73798   0.209   0.409   6.265  0.2081 -0.0645 -1.2888
  560MOL0     C73799   0.063   0.404   6.319 -0.0727 -0.2712 -0.2665
  560MOL0     C73800  -0.003   0.545   6.339  0.3729  0.0097 -0.4934
  560MOL0     C73801  -0.149   0.531   6.387  0.0784 -0.5662  0.0120
  560MOL0     C73802  -0.235   0.485   6.268 -0.4575 -0.3718 -0.1920
  560MOL0     C73803  -0.370   0.449   6.330 -0.7110 -0.2844  0.2305
  560MOL0     C73804  -0.392   0.306   6.362  0.0720  0.5283  0.0364
  560MOL0     N73805  -0.533   0.261   6.385 -0.0186 -1.0361 -0.5597
  560MOL0     C73806  -0.628   0.247   6.283 -0.0058  0.0446  0.0081
  560MOL0     C73807  -0.732   0.182   6.342 -0.9096 -0.4502  0.5533
  560MOL0     C73808  -0.870   0.169   6.280 -0.7950 -0.0361 -0.1945
  560MOL0     C73809  -0.937   0.313   6.255 -0.0009  0.0105  0.5726
  560MOL0     C73810  -1.084   0.316   6.271  0.0338  0.7057 -0.7636
  560MOL0     C73811  -1.136   0.295   6.410 -0.4259 -0.3661  0.5814
  560MOL0     O73812  -1.195   0.161   6.416 -0.0712 -0.5971 -0.3296
  560MOL0     C73813  -1.334   0.144   6.403  0.3959 -0.4608  0.2206
  560MOL0     C73814  -1.433   0.237   6.439 -0.2238  0.0346  1.3037
  560MOL0     C73815  -1.565   0.207   6.435  0.1908  0.0324 -0.2815
  560MOL0     C73816  -1.609   0.082   6.402  0.1653  0.3094  0.5929
  560MOL0     C73817  -1.756   0.055   6.380 -0.6095 -1.0202 -0.1713
  560MOL0     O73818  -1.839   0.149   6.432  0.7968  0.3181 -0.0718
  560MOL0     C73819  -1.977   0.152   6.416 -0.9507 -0.2254 -0.2122
  560MOL0     C73820  -2.037   0.278   6.408 -0.1050  0.7161 -0.1587
  560MOL0     C73821  -2.180   0.287   6.383  0.3814 -0.2819 -0.3012
  560MOL0     C73822  -2.256   0.171   6.357  0.6258 -0.5027 -0.5747
  560MOL0     O73823  -2.388   0.192   6.325  0.4478 -0.2561  0.4242
  560MOL0     C73824  -2.478   0.079   6.303 -0.0832  0.6203 -0.8234
  560MOL0     C73825  -2.622   0.121   6.312 -0.4924  0.1237  0.1050
  560MOL0     C73826  -2.700  -0.013   6.274 -0.6139  0.8586 -0.5599
  560MOL0     C73827  -2.851  -0.001   6.288  0.2741 -0.5283 -0.2021
  560MOL0     C73828  -2.917  -0.135   6.282  0.8580  0.3152  0.2708
  560MOL0     C73829  -3.070  -0.109   6.270  0.0457  0.8728 -1.1295
  560MOL0     C73830  -3.164  -0.225   6.235  0.6751 -0.7606 -0.6653
  560MOL0     C73831  -3.157  -0.256   6.088 -0.3845  0.6774 -0.4987
  560MOL0    Cl73832  -3.279  -0.384   6.054 -0.2176  0.3989 -0.2488
  560MOL0     C73833  -2.186   0.057   6.360 -1.0968 -0.5291  0.5415
  560MOL0     C73834  -2.052   0.044   6.374 -0.3544 -0.3235 -0.5765
  560MOL0     O73835  -1.783  -0.047   6.333  0.5357 -0.2357 -0.0229
  560MOL0     C73836  -1.508  -0.020   6.369 -0.3035  0.6705  0.4082
  560MOL0     C73837  -1.371   0.014   6.368 -0.3468 -0.4086  0.5153
  560MOL0     N73838  -0.707   0.160   6.478 -0.3415 -0.2094  0.1510
  560MOL0     N73839  -0.594   0.215   6.502 -0.5556 -0.5540  1.5357
  560MOL0     C73840   0.478   0.259   6.590  0.1361  0.4257  0.1957
  560MOL0     C73841   0.574   0.171   6.645 -0.7354  0.4259  0.2964
  560MOL0     C73842   0.898  -0.113   6.767 -0.7524 -0.4774 -0.3952
  560MOL0     C73843   1.032  -0.074   6.783 -0.2005  0.5659 -0.1525
  560MOL0     C73844   1.122  -0.167   6.824  0.5950  0.6789 -0.2750
  560MOL0     C73845   1.082  -0.305   6.847  0.3971 -0.7006  0.4972
  560MOL0     O73846   1.167  -0.405   6.872  0.5170  1.0924  0.2768
  560MOL0     C73847   1.162  -0.513   6.778  0.6221 -0.2257 -0.1528
  560MOL0     C73848   1.289  -0.522   6.711  1.2871  0.4911  1.4013
  560MOL0     C73849   1.402  -0.539   6.815 -0.2280  0.0563  0.1575
  560MOL0     C73850   1.546  -0.554   6.747  0.1338 -0.3703 -1.4289
  560MOL0     C73851   1.647  -0.549   6.851 -0.1891 -0.0660 -0.6555
  560MOL0     C73852   1.726  -0.531   6.942 -0.9485  0.5176 -0.2555
  560MOL0     C73853   0.942  -0.336   6.854 -0.2416 -0.6728  1.0155
  560MOL0     C73854   0.851  -0.235   6.812  0.3515  0.5365 -0.1308
  560MOL0     H73855   0.514  -0.113   6.485 -0.8285  0.6775  0.5846
  560MOL0     H73856   0.341   0.040   6.382 -1.8823  0.2011  2.7686
  560MOL0     H73857   0.256   0.199   6.273  0.4786 -0.3165  1.0572
  560MOL0     H73858   0.396   0.309   6.279  0.3607 -1.0954  0.8995
  560MOL0     H73859   0.212   0.421   6.156  0.3170 -1.3766 -1.4461
  560MOL0     H73860   0.248   0.500   6.312 -2.2886  2.1879 -3.3090
  560MOL0     H73861   0.049   0.342   6.407  0.1295 -0.0683 -0.0917
  560MOL0     H73862   0.011   0.351   6.238  2.3315  0.5855 -2.4888
  560MOL0     H73863   0.050   0.590   6.423 -0.3709 -2.1572  1.2297
  560MOL0     H73864   0.010   0.597   6.244  1.4010 -3.1046 -2.2139
  560MOL0     H73865  -0.178   0.629   6.425 -1.3621 -1.1274  0.4551
  560MOL0     H73866  -0.150   0.458   6.469 -1.8119  1.5318  2.0453
  560MOL0     H73867  -0.183   0.393   6.243 -0.4492  0.0418 -1.8024
  560MOL0     H73868  -0.244   0.549   6.179  0.8987  1.3851  0.8602
  560MOL0     H73869  -0.418   0.516   6.403 -0.6439 -2.1653  2.0950
  560MOL0     H73870  -0.436   0.466   6.245 -2.0572 -2.5231  0.7720
  560MOL0     H73871  -0.331   0.291   6.452 -1.2536  0.7341  1.0005
  560MOL0     H73872  -0.349   0.243   6.284  0.8040  1.0697 -0.0040
  560MOL0     H73873  -0.628   0.287   6.182 -2.0032 -1.2374 -0.5480
  560MOL0     H73874  -0.931   0.107   6.347  0.9700 -1.8575 -0.1823
  560MOL0     H73875  -0.857   0.114   6.187 -0.3974  0.5042 -0.4630
  560MOL0     H73876  -0.926   0.335   6.149  1.0727  0.4418  0.7611
  560MOL0     H73877  -0.888   0.393   6.312  2.9565 -1.3700  0.1506
  560MOL0     H73878  -1.124   0.407   6.224  0.6828  0.6548 -1.4255
  560MOL0     H73879  -1.121   0.227   6.221  2.3478  0.3136 -1.9286
  560MOL0     H73880  -1.209   0.375   6.425  1.3363  1.1935  1.2926
  560MOL0     H73881  -1.051   0.301   6.479 -1.1878  0.8422  1.4426
  560MOL0     H73882  -1.414   0.336   6.478  1.1031 -0.3198  1.6234
  560MOL0     H73883  -1.645   0.273   6.467 -0.5526 -1.3517  0.8379
  560MOL0     H73884  -1.987   0.372   6.428  0.7906 -0.0916  1.7707
  560MOL0     H73885  -2.225   0.383   6.363 -1.9606 -2.0957 -5.5187
  560MOL0     H73886  -2.456   0.015   6.390  2.4733  1.5075 -0.7553
  560MOL0     H73887  -2.452   0.028   6.210 -2.3109  0.3102 -1.3454
  560MOL0     H73888  -2.653   0.204   6.248  0.6585 -0.2132 -0.9195
  560MOL0     H73889  -2.648   0.142   6.417  1.0236 -1.0467  0.7574
  560MOL0     H73890  -2.664  -0.094   6.338 -1.7950 -0.2815 -1.2879
  560MOL0     H73891  -2.682  -0.040   6.169 -0.8151  0.6225 -0.5355
  560MOL0     H73892  -2.871   0.053   6.380  0.1680  0.6428 -0.8859
  560MOL0     H73893  -2.889   0.074   6.218 -1.1308  1.7794  2.8196
  560MOL0     H73894  -2.895  -0.173   6.382  0.8769  1.0642  0.5600
  560MOL0     H73895  -2.874  -0.201   6.205  0.1875  0.7658 -0.5068
  560MOL0     H73896  -3.082  -0.026   6.199 -0.2813  2.8649  1.1315
  560MOL0     H73897  -3.106  -0.069   6.365  0.8318  1.3030 -1.0014
  560MOL0     H73898  -3.154  -0.319   6.288  0.4314 -0.2918  0.2252
  560MOL0     H73899  -3.266  -0.186   6.245  0.7237 -0.1489 -2.1834
  560MOL0     H73900  -3.054  -0.280   6.059  0.3126 -0.7384  2.7620
  560MOL0     H73901  -3.192  -0.167   6.035 -2.0893  0.5640  0.3595
  560MOL0     H73902  -2.240  -0.030   6.325  0.1864 -0.9858 -0.3816
  560MOL0     H73903  -2.008  -0.055   6.366  1.7148  0.4859  0.0166
  560MOL0     H73904  -1.541  -0.119   6.339  4.3618 -1.9134  2.7050
  560MOL0     H73905  -1.304  -0.066   6.339 -0.3140 -1.6058  3.5349
  560MOL0     H73906   0.470   0.364   6.617 -3.0454  0.0688  0.9806
  560MOL0     H73907   0.641   0.208   6.722  0.9238  0.9277 -1.3149
  560MOL0     H73908   1.066   0.026   6.754  1.6312 -0.1742 -0.7010
  560MOL0     H73909   1.225  -0.135   6.840 -0.4090  3.6747  0.9858
  560MOL0     H73910   1.084  -0.493   6.704 -2.2333  2.5015  3.2150
  560MOL0     H73911   1.126  -0.598   6.835 -1.4467  1.8355  1.8161
  560MOL0     H73912   1.285  -0.601   6.636  2.4576  1.6938 -0.0053
  560MOL0     H73913   1.297  -0.423   6.665 -1.4612  0.6304  1.1093
  560MOL0     H73914   1.395  -0.632   6.873  2.1774 -3.0726 -3.9902
  560MOL0     H73915   1.400  -0.452   6.881 -0.5201  0.8218 -0.8360
  560MOL0     H73916   1.555  -0.647   6.690  0.2844  1.2803 -4.2613
  560MOL0     H73917   1.569  -0.471   6.679  0.7972  0.0147 -0.7428
  560MOL0     H73918   1.802  -0.522   7.017  1.7259  0.5669 -2.7634
  560MOL0     H73919   0.904  -0.438   6.861  0.1786 -1.0180 -1.1212
  560MOL0     H73920   0.755  -0.279   6.786  1.3774 -2.3108  0.4829
  561MOL0     O73921   4.979   6.595   6.808  0.0195 -0.3088 -0.2043
  561MOL0     C73922   5.101   6.587   6.813  0.1859  0.3975 -0.6265
  561MOL0     O73923   5.171   6.470   6.793 -0.0729 -0.6597  1.0083
  561MOL0     C73924   5.099   6.356   6.763 -0.4659  1.0692 -0.0690
  561MOL0     C73925   5.104   6.292   6.631 -0.1931 -0.4341 -0.7440
  561MOL0     C73926   5.033   6.175   6.604  0.6193 -0.3942 -0.5941
  561MOL0     C73927   4.963   6.113   6.702  0.8816  0.3669  0.0853
  561MOL0     O73928   4.876   6.009   6.683 -1.0510  0.4563  0.2173
  561MOL0     C73929   4.827   5.965   6.549 -0.1240 -1.4442  0.0331
  561MOL0     C73930   4.767   5.825   6.559  0.8598 -0.2233 -0.4655
  561MOL0     C73931   4.722   5.767   6.425  0.9572  0.2956 -0.1003
  561MOL0     C73932   4.657   5.626   6.432  0.4259  0.2875  0.6610
  561MOL0     C73933   4.557   5.615   6.313  0.4872  0.7080  0.1148
  561MOL0     C73934   4.484   5.484   6.313 -0.0200 -0.5103 -0.1192
  561MOL0     C73935   4.363   5.480   6.224  0.6701  0.1434 -0.4857
  561MOL0     C73936   4.278   5.350   6.248 -0.0566 -0.1219 -0.1530
  561MOL0     N73937   4.140   5.375   6.202 -0.1288  0.1205 -0.8543
  561MOL0     C73938   4.033   5.410   6.286 -0.2207 -0.0852 -0.3430
  561MOL0     C73939   3.937   5.445   6.193 -0.3076 -1.2143 -0.2738
  561MOL0     C73940   3.789   5.477   6.231 -0.5729  0.2819  0.3801
  561MOL0     C73941   3.698   5.374   6.163  0.3063  0.5907  0.2033
  561MOL0     C73942   3.552   5.414   6.191  0.0820 -0.7904  0.2272
  561MOL0     C73943   3.461   5.295   6.218 -0.4921 -0.1202  0.0825
  561MOL0     O73944   3.333   5.346   6.209 -0.2423 -0.0487 -0.4748
  561MOL0     C73945   3.230   5.271   6.158  0.2013 -0.4119 -0.3553
  561MOL0     C73946   3.108   5.329   6.146  0.6284  0.1694 -0.0643
  561MOL0     C73947   2.990   5.260   6.110  0.4574 -0.5880 -0.6241
  561MOL0     C73948   3.001   5.122   6.079  0.5713 -0.7492  0.5641
  561MOL0     C73949   2.883   5.041   6.060  0.5009  0.2494  0.1320
  561MOL0     O73950   2.901   4.911   6.011  0.4216 -0.6810  0.4749
  561MOL0     C73951   2.805   4.820   6.012  0.1917 -0.1756 -0.0765
  561MOL0     C73952   2.712   4.810   6.112  1.3671  0.4746  0.0521
  561MOL0     C73953   2.605   4.710   6.100 -0.5929 -0.2678 -0.9441
  561MOL0     C73954   2.584   4.638   5.981  0.0757 -0.1051 -0.0195
  561MOL0     O73955   2.485   4.548   5.954  0.4091 -0.0846  0.5881
  561MOL0     C73956   2.364   4.545   6.036 -0.4181  0.0927 -0.5562
  561MOL0     C73957   2.293   4.409   6.027 -0.2231  0.1449 -0.2335
  561MOL0     C73958   2.153   4.435   6.070 -0.1216  0.1796  0.2370
  561MOL0     C73959   2.071   4.321   6.122 -0.1787 -0.0820 -0.1857
  561MOL0     C73960   2.069   4.190   6.035 -0.1947  0.3055  0.5790
  561MOL0     C73961   1.975   4.087   6.097  1.0371  0.4142  0.4497
  561MOL0     C73962   1.968   3.940   6.042  0.7009 -0.6582 -0.0282
  561MOL0     C73963   1.938   3.929   5.895  0.0227 -0.3511 -0.6914
  561MOL0    Cl73964   1.889   3.776   5.841  0.0647  0.0560  0.2371
  561MOL0     C73965   2.695   4.642   5.892  0.9279  0.5228  0.0843
  561MOL0     C73966   2.802   4.732   5.908 -0.3700 -0.5223 -0.7147
  561MOL0     O73967   2.766   5.091   6.085 -0.2293 -0.3318 -0.0818
  561MOL0     C73968   3.131   5.073   6.067 -0.7551 -0.3047  0.4181
  561MOL0     C73969   3.241   5.141   6.102  0.1904  0.7659 -0.2828
  561MOL0     N73970   3.979   5.417   6.066  0.6488  0.6210  0.9641
  561MOL0     N73971   4.098   5.377   6.071 -0.0667  0.0429  0.3896
  561MOL0     C73972   4.966   6.163   6.833  0.2047 -0.6361 -0.6916
  561MOL0     C73973   5.033   6.282   6.861 -0.1553 -0.2627 -0.1557
  561MOL0     C73974   5.189   6.703   6.847 -0.3246 -0.1445 -0.3027
  561MOL0     C73975   5.330   6.698   6.836 -0.0976  0.9044 -0.5366
  561MOL0     C73976   5.405   6.816   6.863 -0.2038 -0.0945  0.8203
  561MOL0     C73977   5.340   6.930   6.897  0.2882  0.4714 -0.5854
  561MOL0     O73978   5.413   7.038   6.935 -0.5345  0.0707 -0.8225
  561MOL0     C73979   5.373   7.170   6.896  0.8699  0.6047  0.4687
  561MOL0     C73980   5.493   7.265   6.897  0.4563  0.2243 -0.3954
  561MOL0     C73981   5.581   7.226   6.780  0.5009 -0.9905 -0.4611
  561MOL0     C73982   5.730   7.209   6.813  0.3120  0.2218 -0.6429
  561MOL0     C73983   5.746   7.082   6.876 -0.3266 -0.1724 -0.6492
  561MOL0     C73984   5.761   6.984   6.945 -0.0734  0.3793  0.2076
  561MOL0     C73985   5.207   6.936   6.906 -0.0084  0.1760  0.9451
  561MOL0     C73986   5.134   6.828   6.882 -0.1622 -0.1152 -0.5156
  561MOL0     H73987   5.158   6.327   6.544 -2.8844 -1.9204 -3.1635
  561MOL0     H73988   5.031   6.145   6.500  1.0226 -0.2235 -0.6519
  561MOL0     H73989   4.915   5.964   6.485  0.3815  0.5037  0.6158
  561MOL0     H73990   4.749   6.033   6.513  1.0265 -1.7941 -3.5379
  561MOL0     H73991   4.681   5.843   6.624  2.5587 -1.4223  2.2975
  561MOL0     H73992   4.840   5.753   6.599  0.1825 -1.3585 -1.2057
  561MOL0     H73993   4.798   5.765   6.346 -1.0779 -0.6570 -2.1827
  561MOL0     H73994   4.641   5.834   6.395  0.5036 -1.0928 -2.2039
  561MOL0     H73995   4.728   5.543   6.428 -3.1485 -3.0406 -2.3489
  561MOL0     H73996   4.607   5.616   6.528  0.0810 -0.7494  0.3893
  561MOL0     H73997   4.593   5.642   6.213  0.4042 -0.0492 -0.1248
  561MOL0     H73998   4.470   5.680   6.323 -1.8626 -1.8196 -2.2815
  561MOL0     H73999   4.449   5.468   6.416  0.5851  1.2733  0.4115
  561MOL0     H74000   4.555   5.404   6.295  1.0820  0.9471 -2.7119
  561MOL0     H74001   4.302   5.565   6.257  0.2232 -0.8816  1.5160
  561MOL0     H74002   4.393   5.497   6.121  0.5234  1.2367 -0.3649
  561MOL0     H74003   4.284   5.333   6.356 -1.7903  0.8815  0.1346
  561MOL0     H74004   4.320   5.263   6.196 -0.4453  0.0734 -0.8020
  561MOL0     H74005   4.025   5.420   6.393  0.4368 -1.4804 -0.1515
  561MOL0     H74006   3.769   5.577   6.190 -0.0536  1.5215  2.9182
  561MOL0     H74007   3.766   5.468   6.338 -0.1093 -3.3093  0.2777
  561MOL0     H74008   3.724   5.276   6.204  0.0431  0.0194 -0.9495
  561MOL0     H74009   3.719   5.356   6.057  1.4594 -3.7470  0.9782
  561MOL0     H74010   3.529   5.478   6.277 -0.0911 -0.7188  0.1283
  561MOL0     H74011   3.517   5.463   6.100  2.2204  1.4213  0.4917
  561MOL0     H74012   3.473   5.266   6.323 -2.0713 -1.8029 -0.1574
  561MOL0     H74013   3.482   5.211   6.151  0.5730 -1.2152  1.7002
  561MOL0     H74014   3.111   5.424   6.197 -0.0693 -1.0159  2.3029
  561MOL0     H74015   2.898   5.316   6.116  2.1821  2.4437 -0.1952
  561MOL0     H74016   2.713   4.867   6.205  1.0696 -3.3115  2.6166
  561MOL0     H74017   2.544   4.710   6.190  1.9432  0.4741  0.8842
  561MOL0     H74018   2.302   4.629   6.001  1.5319  1.6785 -0.3853
  561MOL0     H74019   2.382   4.554   6.143  2.0423  0.2925 -0.9385
  561MOL0     H74020   2.347   4.345   6.097 -1.5444 -2.3299 -1.3324
  561MOL0     H74021   2.284   4.363   5.928 -3.6454  2.3901 -1.1272
  561MOL0     H74022   2.093   4.467   5.985 -0.9021  0.4339  0.8636
  561MOL0     H74023   2.154   4.503   6.155 -1.0162  0.9252 -0.3333
  561MOL0     H74024   2.111   4.298   6.221 -3.5002  0.9372  1.5733
  561MOL0     H74025   1.974   4.370   6.138 -0.1648  0.5306 -1.8240
  561MOL0     H74026   2.170   4.149   6.030  0.0299  0.7969  1.0352
  561MOL0     H74027   2.045   4.208   5.930  1.8790 -1.0463 -0.1928
  561MOL0     H74028   1.873   4.127   6.089 -0.0697 -1.7992  2.2168
  561MOL0     H74029   2.000   4.078   6.203  3.1035 -0.2654 -0.0503
  561MOL0     H74030   2.053   3.877   6.070 -0.2765 -1.3333  1.4866
  561MOL0     H74031   1.872   3.908   6.083  1.4864 -0.1125  2.3919
  561MOL0     H74032   2.030   3.952   5.841  2.2630  1.3712  3.4475
  561MOL0     H74033   1.859   4.001   5.872  0.4929  1.7001  3.3605
  561MOL0     H74034   2.678   4.582   5.803  2.0647 -0.1095  0.2746
  561MOL0     H74035   2.891   4.721   5.847  0.2804 -2.7373  0.5119
  561MOL0     H74036   3.156   4.973   6.032  0.6734  0.8217 -2.0775
  561MOL0     H74037   3.330   5.080   6.110 -1.0173 -1.5896 -2.9499
  561MOL0     H74038   4.911   6.103   6.904  2.2220  1.1887  2.6533
  561MOL0     H74039   5.022   6.326   6.959  2.3905  0.9604 -0.3470
  561MOL0     H74040   5.377   6.605   6.809 -2.6464  0.0459 -2.4146
  561MOL0     H74041   5.512   6.816   6.846 -0.3751 -2.7873 -0.9096
  561MOL0     H74042   5.299   7.203   6.970 -1.0114  0.1540 -1.1257
  561MOL0     H74043   5.319   7.177   6.801  1.4935  0.6579  0.1120
  561MOL0     H74044   5.435   7.358   6.887 -2.7404 -1.6571 -0.6655
  561MOL0     H74045   5.546   7.259   6.993 -0.8345  0.8965  0.4014
  561MOL0     H74046   5.574   7.283   6.687  0.1932  1.5452  1.0020
  561MOL0     H74047   5.541   7.128   6.754 -2.1461  0.0710 -0.7104
  561MOL0     H74048   5.781   7.204   6.716 -1.4573  1.1733 -1.6818
  561MOL0     H74049   5.771   7.297   6.863 -1.3935  0.7552 -0.1206
  561MOL0     H74050   5.798   6.918   7.021 -4.2730  0.7174  2.8379
  561MOL0     H74051   5.156   7.026   6.940 -0.1255  0.0381  1.1370
  561MOL0     H74052   5.026   6.840   6.892 -0.2767 -1.2528 -0.2430
  562MOL0     O74053   4.565   2.359   9.822  0.4538 -0.5436 -0.0553
  562MOL0     C74054   4.619   2.267   9.759 -0.3618 -0.2799 -0.2774
  562MOL0     O74055   4.755   2.255   9.738  0.0396  0.5603  0.7436
  562MOL0     C74056   4.838   2.363   9.754  0.2061  1.6181 -0.8668
  562MOL0     C74057   4.805   2.481   9.682  0.5357 -0.6219  0.1172
  562MOL0     C74058   4.891   2.595   9.692  0.2113  0.3382  0.1096
  562MOL0     C74059   5.008   2.586   9.774  0.5876  0.5056  0.2528
  562MOL0     O74060   5.072   2.697   9.803  0.0413 -1.4345  0.6159
  562MOL0     C74061   5.161   2.737   9.694  0.5043  0.4875 -0.1423
  562MOL0     C74062   5.303   2.688   9.725 -0.4076  0.5820  0.1169
  562MOL0     C74063   5.359   2.715   9.869 -0.3979 -0.4414  0.8437
  562MOL0     C74064   5.473   2.615   9.908  0.4265 -0.0325  0.5891
  562MOL0     C74065   5.595   2.626   9.813 -1.0107  0.3876 -0.0637
  562MOL0     C74066   5.674   2.759   9.809  0.6529  0.6915  0.0350
  562MOL0     C74067   5.808   2.747   9.745 -0.7392 -1.3704 -0.4445
  562MOL0     C74068   5.926   2.693   9.833  0.0083  0.4211  0.2153
  562MOL0     N74069   5.930   2.550   9.823 -0.0376 -0.3534  0.0709
  562MOL0     C74070   5.921   2.467   9.934  0.4251  0.2962 -0.9884
  562MOL0     C74071   5.914   2.338   9.874 -0.2248 -0.3819 -0.8443
  562MOL0     C74072   5.903   2.206   9.948  0.4710  1.1437 -0.0579
  562MOL0     C74073   5.769   2.153   9.912  0.1083  1.0766 -0.7358
  562MOL0     C74074   5.737   2.017   9.970  0.5806 -0.5060  0.1968
  562MOL0     C74075   5.593   1.982   9.934 -0.4674  0.3878  0.7311
  562MOL0     O74076   5.578   1.973   9.793  0.0680  0.2757  0.6194
  562MOL0     C74077   5.470   2.028   9.734  0.0339  0.2243  0.7474
  562MOL0     C74078   5.447   1.980   9.608 -0.0328  0.3496 -0.2143
  562MOL0     C74079   5.345   2.025   9.533 -0.4025  0.2321  0.1225
  562MOL0     C74080   5.260   2.127   9.575 -0.2957 -0.0788  0.6983
  562MOL0     C74081   5.140   2.172   9.499 -0.4907  0.1629 -0.3725
  562MOL0     O74082   5.113   2.102   9.380 -0.6647  0.5337  0.1077
  562MOL0     C74083   4.988   2.102   9.324  0.0195  0.6058  0.9299
  562MOL0     C74084   4.867   2.135   9.389  0.2880 -0.8109  0.0070
  562MOL0     C74085   4.751   2.131   9.315  0.6201 -0.2167  1.2554
  562MOL0     C74086   4.740   2.075   9.179 -0.1303  0.3772 -0.3528
  562MOL0     O74087   4.624   2.074   9.100 -0.4268  0.9348 -0.9548
  562MOL0     C74088   4.506   2.035   9.169 -0.1451  0.1149 -0.2017
  562MOL0     C74089   4.407   1.980   9.064 -0.0477  0.4822 -0.1052
  562MOL0     C74090   4.374   2.069   8.947  0.3495  0.2221  0.7672
  562MOL0     C74091   4.332   1.999   8.816  0.2303 -0.5063 -0.1031
  562MOL0     C74092   4.191   1.918   8.808 -0.5355 -0.2991  0.7410
  562MOL0     C74093   4.073   1.993   8.859 -0.8057  0.9136  0.7471
  562MOL0     C74094   3.931   1.921   8.824  0.4678  0.8546  0.6543
  562MOL0     C74095   3.862   1.908   8.956  0.1773  0.0158  0.3774
  562MOL0    Cl74096   3.939   1.784   9.062  0.0239  0.1958  0.4427
  562MOL0     C74097   4.861   2.034   9.121  0.1804  0.1300 -1.1294
  562MOL0     C74098   4.983   2.052   9.187  0.4357 -0.1957 -0.4267
  562MOL0     O74099   5.079   2.270   9.541  0.1297  0.1479  0.6650
  562MOL0     C74100   5.299   2.193   9.694  0.6328  0.6811 -0.5773
  562MOL0     C74101   5.394   2.138   9.774  0.7249 -0.2391  0.2554
  562MOL0     N74102   5.928   2.346   9.738  0.5696 -0.5242 -0.3982
  562MOL0     N74103   5.939   2.472   9.711  0.5078  0.0912  0.2050
  562MOL0     C74104   5.039   2.462   9.837 -0.2755  0.1034 -0.1508
  562MOL0     C74105   4.953   2.344   9.830  0.3132  0.0080  0.3870
  562MOL0     C74106   4.539   2.157   9.710 -0.2146 -0.2285  0.2101
  562MOL0     C74107   4.397   2.157   9.713  0.1191 -0.9524 -0.0123
  562MOL0     C74108   4.326   2.063   9.649 -0.0327  0.1926  0.0599
  562MOL0     C74109   4.384   1.946   9.600 -0.4684  0.4563 -0.9257
  562MOL0     O74110   4.321   1.847   9.535 -0.2588 -0.5188 -0.2119
  562MOL0     C74111   4.214   1.901   9.455  0.6192  1.1862 -0.5999
  562MOL0     C74112   4.156   1.783   9.381  0.4966 -0.7574 -0.3675
  562MOL0     C74113   4.134   1.663   9.473 -0.9756  0.3852  0.7239
  562MOL0     C74114   4.058   1.551   9.403 -0.0327  0.5381 -0.5229
  562MOL0     C74115   3.923   1.541   9.450  0.1227  0.7166  0.4267
  562MOL0     C74116   3.810   1.534   9.484  0.6120 -0.3054  1.0585
  562MOL0     C74117   4.519   1.946   9.593  0.0687  0.1074  0.4076
  562MOL0     C74118   4.598   2.049   9.647  0.4392  0.8817 -0.2344
  562MOL0     H74119   4.720   2.501   9.618  1.8895  3.2240 -0.7650
  562MOL0     H74120   4.865   2.687   9.641  3.1420  1.3697  0.2796
  562MOL0     H74121   5.162   2.845   9.679 -1.2668  0.4398 -0.8048
  562MOL0     H74122   5.138   2.695   9.596  1.9027 -0.2969 -0.1722
  562MOL0     H74123   5.368   2.744   9.657 -0.2464  3.7629  2.6147
  562MOL0     H74124   5.307   2.580   9.710  0.5565  0.7911 -1.3468
  562MOL0     H74125   5.282   2.718   9.946  1.4395 -3.7025  3.0095
  562MOL0     H74126   5.409   2.812   9.872 -0.6487 -0.2597 -0.2308
  562MOL0     H74127   5.502   2.645  10.009 -1.6773  1.2873  0.8753
  562MOL0     H74128   5.432   2.514   9.917  0.2553 -0.3177 -2.4286
  562MOL0     H74129   5.578   2.604   9.707  0.7749  1.7686 -0.6904
  562MOL0     H74130   5.665   2.551   9.852 -1.3994 -0.4874 -1.0267
  562MOL0     H74131   5.684   2.789   9.914  2.0061 -3.9661  1.4572
  562MOL0     H74132   5.608   2.825   9.752 -0.4510 -0.8447 -0.5268
  562MOL0     H74133   5.803   2.710   9.642  0.2823  2.1775 -1.9001
  562MOL0     H74134   5.831   2.853   9.735 -3.3858 -0.3287  2.6463
  562MOL0     H74135   5.914   2.729   9.936 -0.0305  0.7654  0.0914
  562MOL0     H74136   6.019   2.744   9.804 -0.5710  2.1203  1.1666
  562MOL0     H74137   5.917   2.473  10.043  0.1707 -1.7011 -0.8447
  562MOL0     H74138   5.919   2.224  10.055 -0.7189 -1.6088  0.6632
  562MOL0     H74139   5.982   2.135   9.919  0.4787  1.6075 -1.2095
  562MOL0     H74140   5.767   2.139   9.803 -3.5547 -1.2111 -0.5370
  562MOL0     H74141   5.686   2.223   9.923 -0.2854  0.6733 -1.1017
  562MOL0     H74142   5.811   1.952   9.923  2.2307  1.1949  0.3166
  562MOL0     H74143   5.749   2.035  10.078  0.0271 -1.5633  0.4455
  562MOL0     H74144   5.534   2.064   9.975  2.3252  1.5033  2.8507
  562MOL0     H74145   5.561   1.886   9.975 -1.7535  0.9106  1.0054
  562MOL0     H74146   5.511   1.903   9.566 -0.8461 -1.1771  1.2256
  562MOL0     H74147   5.329   1.976   9.438 -0.1763  0.9626 -0.2972
  562MOL0     H74148   4.856   2.163   9.493 -2.0204  3.3959 -1.1447
  562MOL0     H74149   4.655   2.162   9.355  0.0783  0.0848 -0.2309
  562MOL0     H74150   4.458   2.114   9.228  0.0761 -0.3976  0.6793
  562MOL0     H74151   4.522   1.952   9.238 -3.8538  0.5598  1.4541
  562MOL0     H74152   4.324   1.943   9.124  0.9051  0.4508  1.2396
  562MOL0     H74153   4.459   1.891   9.029  1.2995  0.4444  1.8153
  562MOL0     H74154   4.449   2.145   8.925 -2.4818  2.1290 -3.7316
  562MOL0     H74155   4.287   2.131   8.970  1.4773  1.5994  1.3953
  562MOL0     H74156   4.320   2.078   8.741 -3.0109  1.9367  2.6684
  562MOL0     H74157   4.403   1.927   8.775  0.8242  0.1658 -0.2706
  562MOL0     H74158   4.213   1.823   8.856  1.1281  0.0049  0.6343
  562MOL0     H74159   4.170   1.898   8.703  0.9444  0.9592  0.1797
  562MOL0     H74160   4.073   2.092   8.812 -1.9798 -0.2735 -1.9777
  562MOL0     H74161   4.089   2.004   8.966  0.3339  0.8177  0.6014
  562MOL0     H74162   3.864   1.971   8.753  0.3615  2.3102  1.7401
  562MOL0     H74163   3.954   1.820   8.787 -0.9839  0.5879  0.4203
  562MOL0     H74164   3.759   1.874   8.944 -0.0406 -0.0364  2.0984
  562MOL0     H74165   3.866   1.998   9.019  1.2976  0.0405  0.2927
  562MOL0     H74166   4.860   1.974   9.030 -2.0126 -0.0564 -1.0381
  562MOL0     H74167   5.083   2.041   9.144  0.8282  3.7126 -0.9271
  562MOL0     H74168   5.247   2.282   9.727 -1.0483 -0.6445  0.5150
  562MOL0     H74169   5.425   2.204   9.855 -0.8532  0.6634  0.1775
  562MOL0     H74170   5.132   2.446   9.890 -0.1149  1.8244  0.1409
  562MOL0     H74171   4.974   2.249   9.877  0.7101  0.0994  0.3943
  562MOL0     H74172   4.349   2.240   9.762  2.1125  0.0356  0.3920
  562MOL0     H74173   4.219   2.079   9.660  0.0691 -0.3752  2.4614
  562MOL0     H74174   4.273   1.970   9.393  4.5390  0.8233  2.3539
  562MOL0     H74175   4.138   1.960   9.508 -0.6777  0.1192 -1.2305
  562MOL0     H74176   4.067   1.822   9.332  1.3055  1.9401  0.1855
  562MOL0     H74177   4.229   1.749   9.307 -0.6126  0.6936 -2.2156
  562MOL0     H74178   4.095   1.702   9.567  1.9403  0.0005  2.1712
  562MOL0     H74179   4.231   1.615   9.488 -1.4073 -0.9037 -0.3713
  562MOL0     H74180   4.050   1.584   9.299 -2.2745 -0.6511 -0.7761
  562MOL0     H74181   4.103   1.451   9.406  2.2941  1.4955 -1.2369
  562MOL0     H74182   3.710   1.535   9.523 -0.8117  0.7346 -2.3016
  562MOL0     H74183   4.578   1.864   9.553 -1.4338 -0.2377 -1.2405
  562MOL0     H74184   4.706   2.043   9.653  0.3546  0.0511  4.2881
  563MOL0     O74185   1.907   7.999   0.905 -0.0810  0.7225 -0.6968
  563MOL0     C74186   1.968   7.897   0.871 -0.0375 -0.6595 -0.4193
  563MOL0     O74187   2.007   7.873   0.747  0.4322  0.8388  0.5247
  563MOL0     C74188   2.048   7.992   0.678 -0.7010  0.4994  0.4695
  563MOL0     C74189   1.965   8.093   0.628 -0.1166  0.7920  0.1900
  563MOL0     C74190   2.024   8.201   0.559 -0.5589 -0.7525  0.2155
  563MOL0     C74191   2.162   8.210   0.528  0.2534 -1.1417  0.4363
  563MOL0     O74192   2.204   8.320   0.463 -0.5979 -0.2990  0.0796
  563MOL0     C74193   2.342   8.343   0.429 -0.3317  0.5405 -0.8685
  563MOL0     C74194   2.399   8.459   0.519  0.4926  0.0625  0.0833
  563MOL0     C74195   2.301   8.573   0.533  0.3079  0.1348 -0.0112
  563MOL0     C74196   2.210   8.577   0.655  0.2740 -1.0440  0.1916
  563MOL0     C74197   2.096   8.674   0.636  0.3094  0.3700 -0.2323
  563MOL0     C74198   1.994   8.672   0.745  0.8154 -0.0463 -0.4916
  563MOL0     C74199   1.859   8.745   0.709  0.2119  0.1423 -0.3406
  563MOL0     C74200   1.760   8.662   0.610 -0.1328 -0.0909 -0.3802
  563MOL0     N74201   1.722   8.528   0.650  0.4134 -0.2726  0.0355
  563MOL0     C74202   1.674   8.490   0.776  0.0457  0.8378 -0.1465
  563MOL0     C74203   1.635   8.360   0.757 -0.1997 -0.2741  0.1508
  563MOL0     C74204   1.551   8.278   0.849 -0.4695  0.0676  0.0219
  563MOL0     C74205   1.402   8.310   0.853  0.1998 -0.4396  0.1859
  563MOL0     C74206   1.326   8.196   0.923 -0.6633  0.1363  0.0352
  563MOL0     C74207   1.185   8.232   0.931 -0.4030 -0.5380 -0.3925
  563MOL0     O74208   1.124   8.244   0.804  0.2030  0.5647  0.4900
  563MOL0     C74209   0.984   8.244   0.799 -0.1314  0.6854  0.7158
  563MOL0     C74210   0.922   8.205   0.680  0.5713 -0.6080 -0.1205
  563MOL0     C74211   0.785   8.210   0.674 -0.1568  0.2619 -0.4329
  563MOL0     C74212   0.701   8.248   0.782  0.0659  0.3604 -0.5990
  563MOL0     C74213   0.551   8.255   0.779 -0.2958 -0.0291 -0.7197
  563MOL0     O74214   0.485   8.325   0.872 -0.8133  0.5110  0.2169
  563MOL0     C74215   0.352   8.305   0.897 -0.3273 -0.2008 -0.7608
  563MOL0     C74216   0.304   8.171   0.909  0.5096 -0.6766 -0.8484
  563MOL0     C74217   0.167   8.158   0.939 -0.1726  0.3026 -0.2647
  563MOL0     C74218   0.085   8.271   0.944 -0.3014  0.3212 -0.4258
  563MOL0     O74219  -0.051   8.277   0.952 -0.6335 -0.3894  0.0597
  563MOL0     C74220  -0.120   8.151   0.968  0.1335 -0.0945  0.2914
  563MOL0     C74221  -0.237   8.189   1.063 -0.5844 -0.7083  0.2251
  563MOL0     C74222  -0.314   8.065   1.105  0.6100 -0.4305  0.2171
  563MOL0     C74223  -0.250   7.992   1.223  0.7798 -0.4945 -0.1118
  563MOL0     C74224  -0.289   8.063   1.364  0.8455 -0.0570 -1.2648
  563MOL0     C74225  -0.446   8.057   1.395 -0.0660 -0.3528  0.2182
  563MOL0     C74226  -0.491   7.917   1.446  0.1071 -1.3948  0.4544
  563MOL0     C74227  -0.628   7.916   1.513 -0.1798 -0.4627 -0.7212
  563MOL0    Cl74228  -0.764   7.923   1.389  0.4921  0.0260 -0.2899
  563MOL0     C74229   0.126   8.400   0.934 -0.2283  1.4409 -0.2399
  563MOL0     C74230   0.267   8.418   0.909 -0.0894 -0.3209  0.1135
  563MOL0     O74231   0.496   8.185   0.693 -0.0689 -0.1804 -0.3612
  563MOL0     C74232   0.764   8.269   0.906  0.3145  0.8865  0.3579
  563MOL0     C74233   0.908   8.268   0.911  0.0136 -0.1202  0.3700
  563MOL0     N74234   1.672   8.324   0.628 -0.2768 -0.3676 -0.2334
  563MOL0     N74235   1.715   8.424   0.564 -0.9454  0.0318 -0.1062
  563MOL0     C74236   2.244   8.100   0.573  0.0264  0.0907  0.1617
  563MOL0     C74237   2.183   8.003   0.658  0.3297  0.3372  0.0368
  563MOL0     C74238   2.011   7.798   0.968 -0.1856  0.5250 -0.7777
  563MOL0     C74239   2.090   7.686   0.925  0.7753 -0.2684 -0.6117
  563MOL0     C74240   2.126   7.588   1.018 -0.3305  0.2192  0.9707
  563MOL0     C74241   2.094   7.593   1.150  0.5203  0.5457  0.2499
  563MOL0     O74242   2.136   7.497   1.239 -0.3270  0.0417 -0.1466
  563MOL0     C74243   2.082   7.367   1.214 -0.4452  0.8250  0.5733
  563MOL0     C74244   2.191   7.258   1.255 -0.3655 -0.1229  0.4373
  563MOL0     C74245   2.318   7.241   1.154  0.2349  1.1885  0.3323
  563MOL0     C74246   2.408   7.124   1.193  0.1130  0.4024  0.3756
  563MOL0     C74247   2.489   7.148   1.310 -0.4290 -0.3281 -0.4134
  563MOL0     C74248   2.571   7.167   1.397  0.2714  0.0293  0.5861
  563MOL0     C74249   2.030   7.713   1.194  0.0779  0.1106 -0.8637
  563MOL0     C74250   1.982   7.810   1.102  0.0715 -0.0335  0.0580
  563MOL0     H74251   1.857   8.090   0.632 -0.1463  2.1345  0.9791
  563MOL0     H74252   1.962   8.282   0.522  2.0654  0.6035 -1.5683
  563MOL0     H74253   2.340   8.391   0.330 -1.4243  0.0825 -1.0899
  563MOL0     H74254   2.412   8.260   0.421  0.6516  1.1344  0.9774
  563MOL0     H74255   2.484   8.504   0.467 -0.3429  3.4416  1.4078
  563MOL0     H74256   2.430   8.425   0.618 -0.6687 -0.5142  0.2697
  563MOL0     H74257   2.242   8.584   0.441  0.3430  2.4805  0.1735
  563MOL0     H74258   2.368   8.659   0.535  4.6131 -2.3983 -5.5568
  563MOL0     H74259   2.179   8.474   0.675 -0.3509 -0.8482  0.2258
  563MOL0     H74260   2.276   8.612   0.736  0.2588  1.4971 -0.8203
  563MOL0     H74261   2.051   8.645   0.540 -0.1157 -0.5769  0.2429
  563MOL0     H74262   2.138   8.774   0.623  0.4685  0.7431  2.5265
  563MOL0     H74263   2.037   8.717   0.835 -2.6309  2.7490 -0.0502
  563MOL0     H74264   1.961   8.570   0.767 -1.9961  1.0302  0.7361
  563MOL0     H74265   1.804   8.781   0.796 -2.6386  1.3219 -2.4599
  563MOL0     H74266   1.889   8.836   0.656 -2.8556  1.0841 -0.6307
  563MOL0     H74267   1.815   8.645   0.516 -0.9600  2.2130 -1.3551
  563MOL0     H74268   1.682   8.735   0.584 -0.0077  1.0328  2.1645
  563MOL0     H74269   1.661   8.559   0.859 -2.3973  0.5911 -0.2573
  563MOL0     H74270   1.589   8.272   0.951  0.9850 -1.7939 -0.5706
  563MOL0     H74271   1.562   8.174   0.819  1.8026 -0.0127  0.9399
  563MOL0     H74272   1.366   8.326   0.751 -2.3247 -1.9035  0.7455
  563MOL0     H74273   1.390   8.402   0.910  0.8271 -0.2207 -0.0257
  563MOL0     H74274   1.343   8.095   0.883 -0.4980  1.5530 -3.8762
  563MOL0     H74275   1.367   8.196   1.025 -0.8088  2.0848  0.1383
  563MOL0     H74276   1.180   8.335   0.968  0.5487 -1.5521  2.9834
  563MOL0     H74277   1.145   8.165   1.008 -0.1149  0.3796  0.5881
  563MOL0     H74278   0.982   8.174   0.595 -0.2963 -1.3541 -0.4761
  563MOL0     H74279   0.755   8.181   0.574  2.8181 -0.6359 -1.1663
  563MOL0     H74280   0.366   8.083   0.913  4.1330  1.6496  3.8454
  563MOL0     H74281   0.138   8.054   0.957 -1.5175  0.7590  0.3419
  563MOL0     H74282  -0.057   8.081   1.024 -0.1590 -1.8890 -1.5156
  563MOL0     H74283  -0.150   8.104   0.874 -3.9856  3.6029 -0.5982
  563MOL0     H74284  -0.297   8.247   0.991 -2.3718 -0.8220  1.5459
  563MOL0     H74285  -0.205   8.240   1.154 -1.7576  1.4242 -0.4842
  563MOL0     H74286  -0.312   7.996   1.020  1.9042 -0.4467  0.2505
  563MOL0     H74287  -0.422   8.079   1.117  0.4104 -1.7000 -0.0109
  563MOL0     H74288  -0.286   7.889   1.230 -1.1822  0.0488 -1.3061
  563MOL0     H74289  -0.145   7.993   1.193  0.1407  2.3263 -2.8297
  563MOL0     H74290  -0.270   8.170   1.349 -5.5264  1.8818  1.0045
  563MOL0     H74291  -0.237   8.024   1.452 -3.3952 -1.6392  0.8223
  563MOL0     H74292  -0.507   8.089   1.309  0.0602 -0.0415  0.2429
  563MOL0     H74293  -0.470   8.135   1.467  1.0336  2.7238 -2.4955
  563MOL0     H74294  -0.489   7.860   1.353 -1.1275 -3.3658  1.5770
  563MOL0     H74295  -0.416   7.872   1.511  0.6088 -0.6401  0.4135
  563MOL0     H74296  -0.639   7.998   1.584  0.4641  0.1263 -1.2842
  563MOL0     H74297  -0.633   7.823   1.570  3.1305 -1.0085 -1.1198
  563MOL0     H74298   0.057   8.483   0.938 -1.2699  0.5634  1.1403
  563MOL0     H74299   0.309   8.517   0.900 -0.4445 -0.1611  0.2118
  563MOL0     H74300   0.714   8.302   0.996  3.9403  1.4511  2.3656
  563MOL0     H74301   0.947   8.290   1.010 -0.8454 -0.3599  0.7768
  563MOL0     H74302   2.349   8.102   0.545  0.1923  1.5267  0.7922
  563MOL0     H74303   2.253   7.939   0.710  1.4805  2.3461  1.0765
  563MOL0     H74304   2.109   7.657   0.822 -2.1759 -2.2400 -0.7217
  563MOL0     H74305   2.185   7.508   0.975 -1.0657  0.7926 -1.2073
  563MOL0     H74306   2.062   7.349   1.108  1.7639  0.6030  0.1392
  563MOL0     H74307   1.994   7.342   1.275 -1.2151  0.9018 -0.4729
  563MOL0     H74308   2.222   7.286   1.356 -1.0945  0.1210  0.6054
  563MOL0     H74309   2.151   7.156   1.258  1.9749 -1.1419 -0.6842
  563MOL0     H74310   2.363   7.340   1.156 -1.5453  2.0119  1.0049
  563MOL0     H74311   2.278   7.207   1.057  0.5795 -3.8774  1.6508
  563MOL0     H74312   2.345   7.037   1.215 -2.3391  1.9647 -0.0552
  563MOL0     H74313   2.472   7.093   1.109 -0.4569  0.4670 -0.0909
  563MOL0     H74314   2.645   7.206   1.464 -1.3771 -0.6486  2.9225
  563MOL0     H74315   2.016   7.730   1.300  1.8111 -1.0921 -0.3945
  563MOL0     H74316   1.921   7.895   1.132  0.0411 -0.6903  1.9925
  564MOL0     O74317   2.161   5.500   2.478 -0.0594  0.3186 -0.3380
  564MOL0     C74318   2.137   5.468   2.592  0.3713  0.2113  0.2508
  564MOL0     O74319   2.018   5.440   2.643 -0.2682  0.2743 -0.5586
  564MOL0     C74320   1.890   5.469   2.594  0.6998 -0.0565  0.0419
  564MOL0     C74321   1.785   5.402   2.668 -0.0244  0.1337  0.1023
  564MOL0     C74322   1.655   5.401   2.623 -0.5779 -0.1230  0.2480
  564MOL0     C74323   1.633   5.455   2.505 -0.4985 -0.3472  0.4177
  564MOL0     O74324   1.503   5.458   2.461  0.5794  0.0918  0.1846
  564MOL0     C74325   1.452   5.585   2.416  0.3002  0.0428  0.6590
  564MOL0     C74326   1.305   5.594   2.446  0.5226  0.2722 -0.3084
  564MOL0     C74327   1.225   5.683   2.350 -0.0629 -0.9822 -0.3006
  564MOL0     C74328   1.076   5.663   2.392  0.0028 -0.5416  1.2240
  564MOL0     C74329   0.972   5.746   2.325 -0.5782 -0.1259 -0.8999
  564MOL0     C74330   0.956   5.702   2.182  0.4856 -1.3490 -0.1156
  564MOL0     C74331   0.834   5.772   2.128  0.6377 -0.1702  0.3780
  564MOL0     C74332   0.803   5.736   1.976 -0.4245  0.1853 -0.1120
  564MOL0     N74333   0.673   5.808   1.949  0.4019  0.7460  0.2850
  564MOL0     C74334   0.545   5.769   1.980  0.1464 -0.0731  0.4824
  564MOL0     C74335   0.466   5.863   1.914 -0.6610  0.0427 -0.3333
  564MOL0     C74336   0.322   5.873   1.890  0.7725  0.1505  0.7092
  564MOL0     C74337   0.232   5.869   2.021 -0.6122  0.3758  0.0864
  564MOL0     C74338   0.214   5.721   2.067 -0.3717 -0.3019 -0.4032
  564MOL0     C74339   0.091   5.709   2.142 -0.1610  0.3537 -0.8541
  564MOL0     O74340  -0.027   5.725   2.063 -0.1914  0.5669 -0.5977
  564MOL0     C74341  -0.152   5.736   2.122  0.4646 -0.4061 -0.0241
  564MOL0     C74342  -0.179   5.702   2.256  0.8109  0.3051 -0.5747
  564MOL0     C74343  -0.312   5.725   2.310 -0.5754 -0.3264  0.2623
  564MOL0     C74344  -0.416   5.776   2.222  0.3959  0.1129  0.1829
  564MOL0     C74345  -0.557   5.795   2.276  0.0159  0.7685  0.0743
  564MOL0     O74346  -0.643   5.866   2.204  0.1958 -0.2406  0.2510
  564MOL0     C74347  -0.780   5.850   2.234 -0.1634 -0.0153  0.3037
  564MOL0     C74348  -0.841   5.750   2.154  0.3063 -1.1237 -0.8536
  564MOL0     C74349  -0.978   5.725   2.178 -0.3520  0.5540 -0.3518
  564MOL0     C74350  -1.057   5.818   2.256 -0.2117 -0.1438  0.1895
  564MOL0     O74351  -1.200   5.817   2.250 -0.2731  0.7338  0.6931
  564MOL0     C74352  -1.257   5.842   2.380 -0.2271  0.3605 -0.6509
  564MOL0     C74353  -1.406   5.816   2.384  0.7614 -0.2357  0.5819
  564MOL0     C74354  -1.440   5.671   2.395  0.8382 -0.0100 -0.3630
  564MOL0     C74355  -1.579   5.631   2.327  0.1576 -0.2449 -0.0108
  564MOL0     C74356  -1.635   5.494   2.383 -0.3750  0.2417 -0.0139
  564MOL0     C74357  -1.755   5.457   2.287 -0.9652  0.0969  0.0749
  564MOL0     C74358  -1.805   5.308   2.311  1.1580 -0.2491 -0.7063
  564MOL0     C74359  -1.912   5.266   2.215  0.4475  0.0534  0.3949
  564MOL0    Cl74360  -1.967   5.095   2.226  0.1641  0.0147  0.0381
  564MOL0     C74361  -0.989   5.918   2.324  0.5391 -1.0501 -0.2069
  564MOL0     C74362  -0.855   5.935   2.314  0.5303  0.1624  0.5623
  564MOL0     O74363  -0.582   5.737   2.375  0.2906 -0.7373 -0.5324
  564MOL0     C74364  -0.382   5.783   2.086  0.5374  0.4960 -0.5934
  564MOL0     C74365  -0.249   5.772   2.033  0.5433  0.6147 -0.4351
  564MOL0     N74366   0.551   5.949   1.848  0.7681  0.1847  0.7176
  564MOL0     N74367   0.674   5.912   1.863 -0.1062 -0.7209  0.1911
  564MOL0     C74368   1.726   5.519   2.418 -0.4352  1.6405  0.0209
  564MOL0     C74369   1.855   5.528   2.470 -0.1592 -0.2307 -0.4435
  564MOL0     C74370   2.259   5.462   2.674  0.1119 -0.8379  0.2100
  564MOL0     C74371   2.388   5.460   2.606  0.6742  0.6168  0.4777
  564MOL0     C74372   2.509   5.456   2.679  0.5359  0.4298  0.7452
  564MOL0     C74373   2.501   5.477   2.819  0.0358 -0.1471 -0.2346
  564MOL0     O74374   2.612   5.492   2.903 -0.0176  0.2899  0.8598
  564MOL0     C74375   2.747   5.516   2.849  0.2362 -0.1138  0.2415
  564MOL0     C74376   2.823   5.593   2.950 -0.5701 -0.1815 -0.3445
  564MOL0     C74377   2.972   5.613   2.918 -0.9300 -0.9727 -0.1689
  564MOL0     C74378   3.048   5.714   3.010  0.5911  0.7348  0.1596
  564MOL0     C74379   3.166   5.656   3.076 -0.4446  0.3665  0.4037
  564MOL0     C74380   3.260   5.608   3.132 -0.0136 -0.0470 -0.8410
  564MOL0     C74381   2.375   5.476   2.888 -0.4112 -0.2821  0.2880
  564MOL0     C74382   2.260   5.471   2.812 -0.7218 -0.0409  0.3482
  564MOL0     H74383   1.801   5.354   2.765 -2.1257  0.3448  0.6094
  564MOL0     H74384   1.580   5.346   2.680 -0.2490  1.6972  2.6195
  564MOL0     H74385   1.467   5.597   2.308 -0.3568 -3.4729  0.0422
  564MOL0     H74386   1.507   5.665   2.466  2.1403 -1.0657  0.5239
  564MOL0     H74387   1.287   5.632   2.547  1.6871  2.3421 -0.8288
  564MOL0     H74388   1.266   5.492   2.453  3.2565 -0.7563  1.8230
  564MOL0     H74389   1.244   5.645   2.249 -1.1358 -1.2123 -0.4204
  564MOL0     H74390   1.254   5.787   2.366  0.7224 -1.5224  2.1856
  564MOL0     H74391   1.041   5.559   2.381 -3.2833  0.6563 -1.7414
  564MOL0     H74392   1.069   5.676   2.500 -0.0218 -0.4634  1.2131
  564MOL0     H74393   1.026   5.840   2.344 -0.4696 -0.1611 -1.0384
  564MOL0     H74394   0.880   5.738   2.384 -1.3705 -2.9538 -2.3880
  564MOL0     H74395   0.947   5.594   2.167  0.0642 -1.2096 -0.9174
  564MOL0     H74396   1.047   5.729   2.128  0.7166  0.6833  1.1823
  564MOL0     H74397   0.744   5.756   2.189  1.0753 -0.0814  1.0553
  564MOL0     H74398   0.838   5.881   2.130  0.9781 -0.0817 -1.9909
  564MOL0     H74399   0.793   5.627   1.969  1.7814 -0.2763  2.3774
  564MOL0     H74400   0.870   5.774   1.898 -0.0942 -0.9666 -0.4063
  564MOL0     H74401   0.506   5.684   2.035  0.0983 -0.9404 -0.8356
  564MOL0     H74402   0.305   5.783   1.831 -1.0544 -0.2838  1.8246
  564MOL0     H74403   0.297   5.968   1.843  0.3482 -0.3246 -0.0469
  564MOL0     H74404   0.136   5.917   2.000 -1.8456 -0.7241  2.7348
  564MOL0     H74405   0.270   5.932   2.102  0.4111  3.5647 -2.6532
  564MOL0     H74406   0.209   5.648   1.985 -1.2467 -1.9162  1.0243
  564MOL0     H74407   0.298   5.692   2.131 -0.2806 -1.2559 -0.9353
  564MOL0     H74408   0.091   5.767   2.235 -1.2129 -0.8233 -0.0942
  564MOL0     H74409   0.092   5.605   2.178  1.1080  0.9008  0.8353
  564MOL0     H74410  -0.111   5.664   2.332  0.8140  2.5065  0.6335
  564MOL0     H74411  -0.337   5.694   2.411  0.1634  3.6122  1.8401
  564MOL0     H74412  -0.775   5.700   2.083  0.5862 -0.3949 -1.1215
  564MOL0     H74413  -1.029   5.661   2.107  0.3101 -1.1092  0.6123
  564MOL0     H74414  -1.251   5.946   2.411  0.1612  0.4221 -0.9292
  564MOL0     H74415  -1.213   5.786   2.463 -2.9424  0.3361  0.9069
  564MOL0     H74416  -1.445   5.853   2.288  1.3065  2.3069  1.2609
  564MOL0     H74417  -1.451   5.871   2.468 -1.4050  1.3161 -1.4509
  564MOL0     H74418  -1.450   5.666   2.504 -2.8236 -2.3696 -0.6192
  564MOL0     H74419  -1.359   5.606   2.362 -1.2650 -2.7939 -0.3943
  564MOL0     H74420  -1.644   5.715   2.356  0.7095 -0.3801  1.7364
  564MOL0     H74421  -1.568   5.628   2.219 -1.0679  1.8583 -0.2554
  564MOL0     H74422  -1.659   5.503   2.489  0.3670 -2.1828  0.4271
  564MOL0     H74423  -1.563   5.412   2.371 -0.9131 -0.3326  0.6052
  564MOL0     H74424  -1.715   5.459   2.185 -1.1102  1.6043  0.0262
  564MOL0     H74425  -1.836   5.530   2.293 -0.4661  0.6178  0.6369
  564MOL0     H74426  -1.724   5.236   2.305  2.6491  1.4361 -2.1189
  564MOL0     H74427  -1.845   5.300   2.412  0.6168 -1.7573 -1.0146
  564MOL0     H74428  -1.865   5.280   2.117  2.6855  1.7357  1.6023
  564MOL0     H74429  -1.994   5.337   2.226  0.3981  0.2922 -1.2149
  564MOL0     H74430  -1.041   6.007   2.360 -1.0310  0.0498 -4.5319
  564MOL0     H74431  -0.809   6.021   2.362 -0.1819 -0.4333  2.4297
  564MOL0     H74432  -0.471   5.787   2.024 -0.4359  0.8297  0.7585
  564MOL0     H74433  -0.233   5.790   1.927 -1.0114 -1.7709 -1.1533
  564MOL0     H74434   1.714   5.557   2.317  2.4581 -1.9334 -1.8889
  564MOL0     H74435   1.929   5.576   2.407 -0.1245 -0.5299 -0.6274
  564MOL0     H74436   2.401   5.442   2.500 -1.8726 -0.5776  0.3125
  564MOL0     H74437   2.606   5.445   2.632  0.4897  0.9268  0.5280
  564MOL0     H74438   2.739   5.578   2.759 -1.2577 -1.1864 -0.4114
  564MOL0     H74439   2.794   5.424   2.813  1.6322  1.5577 -2.4997
  564MOL0     H74440   2.781   5.693   2.964  1.5652  1.1889 -2.9335
  564MOL0     H74441   2.808   5.553   3.051  2.7845  0.5607  0.5771
  564MOL0     H74442   2.970   5.645   2.813  0.4877 -1.9446 -0.5285
  564MOL0     H74443   3.021   5.516   2.929  2.4053  0.4927 -0.8504
  564MOL0     H74444   3.067   5.811   2.963  1.6304  0.3580 -0.2280
  564MOL0     H74445   2.977   5.740   3.090  0.0948  1.2438 -0.4411
  564MOL0     H74446   3.343   5.556   3.175 -1.5915 -1.2914  0.8732
  564MOL0     H74447   2.371   5.488   2.995  0.6508  1.3420  0.1740
  564MOL0     H74448   2.157   5.472   2.848 -1.4258 -0.9849 -1.5052
  565MOL0     O74449   0.591   1.860   8.671  0.1120 -0.0348 -0.0220
  565MOL0     C74450   0.570   1.920   8.774  0.8285 -0.8253 -0.0816
  565MOL0     O74451   0.451   1.979   8.814 -0.5190 -0.0248 -0.8029
  565MOL0     C74452   0.345   1.968   8.729 -0.2831 -0.3193 -0.5351
  565MOL0     C74453   0.264   2.080   8.720  0.5445 -0.3798 -0.5865
  565MOL0     C74454   0.143   2.085   8.651 -0.2149  0.7171 -0.1284
  565MOL0     C74455   0.102   1.970   8.587 -0.0022  0.4224 -0.1745
  565MOL0     O74456  -0.022   1.969   8.530  0.1742 -0.0844  0.3916
  565MOL0     C74457  -0.090   1.845   8.476  0.0935 -0.2081  0.9606
  565MOL0     C74458  -0.234   1.888   8.433 -0.5079  1.1537 -0.1493
  565MOL0     C74459  -0.304   1.766   8.381  0.1468 -0.3414  0.2245
  565MOL0     C74460  -0.454   1.790   8.341  0.5964 -0.7123  0.6250
  565MOL0     C74461  -0.524   1.665   8.269 -0.1250 -0.7009 -0.2000
  565MOL0     C74462  -0.537   1.541   8.358 -0.5125  0.3778 -0.4539
  565MOL0     C74463  -0.639   1.566   8.470 -0.4950 -0.1800  0.2790
  565MOL0     C74464  -0.652   1.451   8.563  0.0888  0.3247  0.2267
  565MOL0     N74465  -0.733   1.339   8.512 -0.1132  0.2413  0.1188
  565MOL0     C74466  -0.829   1.277   8.584  0.7898  0.5809  0.1611
  565MOL0     C74467  -0.863   1.171   8.512  0.1229 -0.1024  0.0743
  565MOL0     C74468  -0.974   1.076   8.541 -0.0159 -0.3801 -0.2345
  565MOL0     C74469  -1.095   1.147   8.496 -0.0835  0.3804 -0.2992
  565MOL0     C74470  -1.159   1.230   8.606  0.5926 -0.5626  0.6957
  565MOL0     C74471  -1.311   1.257   8.580 -0.1847 -0.0199 -0.4043
  565MOL0     O74472  -1.340   1.356   8.472 -0.4504 -0.9101  0.3623
  565MOL0     C74473  -1.463   1.418   8.475 -0.7941  0.4049 -0.1352
  565MOL0     C74474  -1.579   1.361   8.536 -0.6572  0.7021 -0.4996
  565MOL0     C74475  -1.704   1.427   8.537  0.9204 -0.0520 -0.2047
  565MOL0     C74476  -1.714   1.540   8.454 -0.0440  0.6926  0.1557
  565MOL0     C74477  -1.844   1.609   8.444  1.2346 -0.5493  0.3236
  565MOL0     O74478  -1.855   1.726   8.366  0.7756 -0.0341 -0.5133
  565MOL0     C74479  -1.976   1.775   8.344 -0.2885  0.3812 -0.0756
  565MOL0     C74480  -2.022   1.769   8.215 -0.0053 -0.0109 -0.0887
  565MOL0     C74481  -2.150   1.817   8.185  1.2269  0.4411 -0.3505
  565MOL0     C74482  -2.238   1.850   8.293  0.6818 -0.8565 -0.3502
  565MOL0     O74483  -2.370   1.881   8.274  0.7102  0.0332 -0.3586
  565MOL0     C74484  -2.428   1.868   8.146  0.6134 -0.5568  0.6459
  565MOL0     C74485  -2.577   1.890   8.145  0.7612  1.1818  0.4940
  565MOL0     C74486  -2.657   1.832   8.263 -0.4431 -0.4590 -0.2900
  565MOL0     C74487  -2.806   1.842   8.241  0.7047 -0.0036  0.2695
  565MOL0     C74488  -2.881   1.742   8.326  0.3035  1.5155  0.6711
  565MOL0     C74489  -3.022   1.782   8.358 -0.4169 -0.4563 -0.6405
  565MOL0     C74490  -3.104   1.807   8.238  0.3396  0.1461 -1.1764
  565MOL0     C74491  -3.244   1.794   8.267  0.1946  0.1198  0.2934
  565MOL0    Cl74492  -3.299   1.928   8.381 -0.2627 -0.6485 -0.5055
  565MOL0     C74493  -2.191   1.855   8.424 -1.0222 -1.3307  0.3461
  565MOL0     C74494  -2.059   1.813   8.451 -0.4430  0.6670 -0.6378
  565MOL0     O74495  -1.939   1.563   8.502  0.5903  1.2358  0.1598
  565MOL0     C74496  -1.602   1.594   8.390  0.6619 -0.6210 -0.0677
  565MOL0     C74497  -1.486   1.526   8.390  0.4097  0.1809  0.0832
  565MOL0     N74498  -0.788   1.162   8.397  0.1613  0.0548 -0.2129
  565MOL0     N74499  -0.704   1.256   8.408  0.2590  0.2113 -0.7386
  565MOL0     C74500   0.191   1.857   8.588  0.0780  0.1724 -0.1652
  565MOL0     C74501   0.305   1.847   8.671  0.1980  0.4644 -0.6282
  565MOL0     C74502   0.688   1.957   8.856 -0.7769  0.6218  0.1063
  565MOL0     C74503   0.687   2.037   8.973 -0.3412  0.4027  0.0744
  565MOL0     C74504   0.797   2.064   9.043  0.0973 -0.1670  0.2734
  565MOL0     C74505   0.926   2.034   8.991  0.3189  0.3015 -0.7512
  565MOL0     O74506   1.055   2.071   9.031  0.4323  0.3197 -0.3675
  565MOL0     C74507   1.089   2.206   9.027 -0.0905 -0.4181 -0.0116
  565MOL0     C74508   1.241   2.209   9.004  0.9282 -0.0188 -0.4905
  565MOL0     C74509   1.314   2.203   9.133  0.3673 -0.3579 -0.4108
  565MOL0     C74510   1.467   2.166   9.107  0.0714  0.4105  0.0885
  565MOL0     C74511   1.541   2.153   9.233 -0.2188  0.5685  0.8758
  565MOL0     C74512   1.596   2.157   9.345 -1.0102 -0.8236  0.4940
  565MOL0     C74513   0.933   1.940   8.879  0.6751 -0.5780 -0.1327
  565MOL0     C74514   0.815   1.902   8.820  0.9622  0.0347 -0.1305
  565MOL0     H74515   0.294   2.168   8.776 -0.5726 -1.5983  2.1364
  565MOL0     H74516   0.079   2.172   8.662 -0.8498  0.3550 -0.9010
  565MOL0     H74517  -0.088   1.760   8.545  0.5850 -0.5950  0.4874
  565MOL0     H74518  -0.030   1.814   8.389  0.6380  1.8708  0.5488
  565MOL0     H74519  -0.236   1.971   8.362 -0.4373  1.0310 -0.2952
  565MOL0     H74520  -0.292   1.904   8.524  1.6799 -0.7590  1.7211
  565MOL0     H74521  -0.308   1.688   8.458 -2.0798 -1.1476 -0.6410
  565MOL0     H74522  -0.253   1.739   8.288  2.8401  1.2862  1.1331
  565MOL0     H74523  -0.510   1.817   8.431 -0.3547  3.3305 -0.9411
  565MOL0     H74524  -0.458   1.869   8.265 -3.6028  0.1099  1.4354
  565MOL0     H74525  -0.459   1.645   8.184  0.1090 -0.7721 -0.0041
  565MOL0     H74526  -0.625   1.692   8.236  0.3672  1.7672  0.1243
  565MOL0     H74527  -0.441   1.521   8.405 -0.8448 -1.1720 -0.3763
  565MOL0     H74528  -0.559   1.453   8.297  3.6979 -1.5312  0.4069
  565MOL0     H74529  -0.620   1.658   8.526  1.8219  0.3359 -1.2379
  565MOL0     H74530  -0.733   1.585   8.418  1.2488  0.4282 -2.9117
  565MOL0     H74531  -0.710   1.484   8.650 -2.1809 -2.8601  0.1287
  565MOL0     H74532  -0.551   1.419   8.589  0.1259 -0.0274 -0.3291
  565MOL0     H74533  -0.873   1.323   8.672  0.1299  1.0600 -0.4052
  565MOL0     H74534  -0.974   1.052   8.648  1.9241  2.1309  0.4503
  565MOL0     H74535  -0.978   0.987   8.477 -3.6930 -1.9509  1.8772
  565MOL0     H74536  -1.167   1.072   8.463  0.2253 -0.3297  0.6201
  565MOL0     H74537  -1.077   1.207   8.406  0.9156  0.9561  0.2693
  565MOL0     H74538  -1.152   1.182   8.704  0.4545  0.9457  1.4823
  565MOL0     H74539  -1.120   1.332   8.602 -1.2890  0.1458 -2.1235
  565MOL0     H74540  -1.347   1.288   8.678 -1.9571  1.3258 -1.4271
  565MOL0     H74541  -1.363   1.166   8.548 -3.0749  1.8818 -1.5425
  565MOL0     H74542  -1.574   1.260   8.574  1.4853  0.6799 -0.7291
  565MOL0     H74543  -1.787   1.399   8.602  0.8426  1.3211  0.3154
  565MOL0     H74544  -1.953   1.743   8.135  0.4279  0.4639  0.1252
  565MOL0     H74545  -2.180   1.839   8.084  1.5572  0.2580 -0.4885
  565MOL0     H74546  -2.409   1.770   8.102 -1.9863  0.1336 -2.4355
  565MOL0     H74547  -2.384   1.929   8.066  1.8071 -2.7377 -0.4727
  565MOL0     H74548  -2.608   1.845   8.050 -3.9388 -1.6870  3.0328
  565MOL0     H74549  -2.600   1.996   8.137 -0.5774  0.7894 -4.4394
  565MOL0     H74550  -2.620   1.886   8.351 -2.9234 -1.4188  1.4622
  565MOL0     H74551  -2.631   1.726   8.269 -0.4466 -0.5703 -1.8869
  565MOL0     H74552  -2.847   1.941   8.265  0.1114 -0.2443  0.2568
  565MOL0     H74553  -2.839   1.833   8.137 -3.5451 -0.5233  1.4831
  565MOL0     H74554  -2.840   1.725   8.426 -1.3531  0.0939  1.1622
  565MOL0     H74555  -2.872   1.644   8.278  0.7767  0.9940  1.7857
  565MOL0     H74556  -3.022   1.873   8.418 -1.6892 -0.9268  0.1192
  565MOL0     H74557  -3.071   1.705   8.417 -0.5230 -0.1612 -0.3415
  565MOL0     H74558  -3.078   1.903   8.192 -1.3135 -1.0484 -5.0556
  565MOL0     H74559  -3.077   1.730   8.165  0.0296  1.4020 -2.6669
  565MOL0     H74560  -3.254   1.698   8.318  1.9423  0.9284  2.2904
  565MOL0     H74561  -3.308   1.810   8.179 -1.5278 -2.6937  0.9271
  565MOL0     H74562  -2.263   1.880   8.501 -2.2258 -1.1729 -0.7773
  565MOL0     H74563  -2.025   1.819   8.554  1.7675  1.1234 -1.3227
  565MOL0     H74564  -1.604   1.691   8.341  0.5045  0.4258  1.9120
  565MOL0     H74565  -1.402   1.568   8.337  0.7265 -2.9081 -2.1481
  565MOL0     H74566   0.157   1.779   8.521 -1.8145  1.4212 -0.7497
  565MOL0     H74567   0.346   1.746   8.677 -3.0130 -0.8838  1.0347
  565MOL0     H74568   0.590   2.076   9.001 -0.4288 -1.0874  2.0477
  565MOL0     H74569   0.777   2.106   9.141  1.8514 -0.7732  0.9331
  565MOL0     H74570   1.069   2.261   9.119 -1.9579  2.1679 -1.7995
  565MOL0     H74571   1.047   2.259   8.941  0.7528  0.7170  0.2585
  565MOL0     H74572   1.269   2.125   8.940 -2.5211 -0.5388 -1.5032
  565MOL0     H74573   1.264   2.301   8.948  0.0214 -0.5153 -1.7315
  565MOL0     H74574   1.253   2.130   9.187 -0.7853  1.1581  0.4112
  565MOL0     H74575   1.304   2.298   9.186 -1.1673 -0.7790  0.0947
  565MOL0     H74576   1.452   2.061   9.080 -1.1811  0.5668  0.0846
  565MOL0     H74577   1.511   2.224   9.026 -1.1624 -0.5388 -1.3336
  565MOL0     H74578   1.641   2.151   9.442  0.1597 -1.3527 -0.0551
  565MOL0     H74579   1.027   1.918   8.831  1.1344  1.3851 -0.2149
  565MOL0     H74580   0.814   1.836   8.734 -3.1780 -1.1914  0.5868
  566MOL0     O74581   6.877   5.035   9.735 -0.5003 -0.0283 -0.6376
  566MOL0     C74582   6.843   5.145   9.683  1.1133 -0.7438  0.5390
  566MOL0     O74583   6.748   5.161   9.578  0.1977 -0.2014 -0.9829
  566MOL0     C74584   6.681   5.057   9.528  0.5602  0.3658  0.4780
  566MOL0     C74585   6.667   5.047   9.390 -0.0147  1.1121  0.0183
  566MOL0     C74586   6.585   4.941   9.342 -0.0274 -0.2828  0.6750
  566MOL0     C74587   6.529   4.848   9.425 -0.2790  0.2658  0.1704
  566MOL0     O74588   6.459   4.738   9.387 -0.2498 -0.1638  0.1376
  566MOL0     C74589   6.431   4.714   9.253  0.3755 -0.0021  0.8344
  566MOL0     C74590   6.352   4.577   9.239  0.0981 -1.1341 -0.1535
  566MOL0     C74591   6.222   4.573   9.321 -0.7034  1.0772  0.7120
  566MOL0     C74592   6.128   4.699   9.311 -0.2919 -0.0625  0.0759
  566MOL0     C74593   6.001   4.681   9.395 -0.0704 -0.0549  0.2691
  566MOL0     C74594   5.895   4.800   9.386  0.5530 -0.2122  0.1720
  566MOL0     C74595   5.784   4.748   9.469  0.9486  0.1336 -0.5943
  566MOL0     C74596   5.641   4.755   9.421  0.5477  0.7010  0.5518
  566MOL0     N74597   5.552   4.761   9.543  0.5860 -1.0297 -0.1448
  566MOL0     C74598   5.509   4.876   9.596  0.2966 -0.4188  0.2692
  566MOL0     C74599   5.463   4.839   9.718  0.5528 -0.3781  0.3470
  566MOL0     C74600   5.415   4.930   9.829  0.4597  0.2384  0.0469
  566MOL0     C74601   5.268   4.959   9.808 -0.2031 -0.3139  0.1890
  566MOL0     C74602   5.239   5.075   9.713 -0.3480 -0.2746  0.3290
  566MOL0     C74603   5.095   5.112   9.699  0.5811  0.0916  0.6872
  566MOL0     O74604   5.020   5.016   9.623  0.0588 -0.0216  0.2252
  566MOL0     C74605   4.881   5.024   9.626 -0.2456 -0.7288  1.1463
  566MOL0     C74606   4.811   4.919   9.567  0.2282 -0.6123  0.0506
  566MOL0     C74607   4.673   4.917   9.570  0.1420 -0.0240 -0.6809
  566MOL0     C74608   4.594   5.015   9.629 -0.5336 -0.8309 -0.7872
  566MOL0     C74609   4.448   5.007   9.637  0.7229  0.0452  0.0021
  566MOL0     O74610   4.371   4.934   9.551 -0.1370 -0.2998  0.3411
  566MOL0     C74611   4.231   4.960   9.575  0.1389  0.6636  0.2128
  566MOL0     C74612   4.159   5.086   9.549 -0.3892 -0.1893  0.0937
  566MOL0     C74613   4.020   5.094   9.565 -0.6326 -0.4269  0.3240
  566MOL0     C74614   3.941   4.986   9.608  0.2319 -0.4169  0.7966
  566MOL0     O74615   3.807   4.977   9.614  0.5937  0.3796 -0.8816
  566MOL0     C74616   3.738   5.105   9.596 -0.1907  0.0993 -0.2988
  566MOL0     C74617   3.582   5.077   9.627 -0.2989  0.5197 -0.1964
  566MOL0     C74618   3.557   5.005   9.764 -0.3218 -0.4411  0.7708
  566MOL0     C74619   3.421   4.960   9.795 -0.3141 -0.3986  0.1305
  566MOL0     C74620   3.337   5.081   9.827 -0.0640  0.7575 -0.3979
  566MOL0     C74621   3.199   5.031   9.872 -0.0502  0.4289 -0.0700
  566MOL0     C74622   3.113   5.153   9.904 -0.2092 -0.4239 -1.6590
  566MOL0     C74623   2.986   5.094   9.968  0.0301  0.3268 -0.1949
  566MOL0    Cl74624   2.900   5.233  10.017 -0.3740  0.1057 -0.4209
  566MOL0     C74625   4.013   4.876   9.650  0.6660  0.2556 -0.1736
  566MOL0     C74626   4.152   4.847   9.626  0.8815  0.1646  0.0792
  566MOL0     O74627   4.401   5.082   9.726  0.1387 -0.8786 -0.1403
  566MOL0     C74628   4.665   5.119   9.694 -0.3008 -0.7463  0.4175
  566MOL0     C74629   4.808   5.125   9.685 -0.6370 -0.2807  0.9327
  566MOL0     N74630   5.462   4.702   9.729 -0.2846 -0.1546  0.3879
  566MOL0     N74631   5.530   4.664   9.633  0.4787 -0.2328  0.0991
  566MOL0     C74632   6.552   4.860   9.554 -0.1704  0.0146 -0.0870
  566MOL0     C74633   6.624   4.958   9.611  1.0936 -0.0166  0.3947
  566MOL0     C74634   6.904   5.268   9.731 -0.5910 -0.5718 -1.2742
  566MOL0     C74635   6.911   5.386   9.651  0.5105 -0.0249  0.1500
  566MOL0     C74636   6.996   5.500   9.692 -0.8689  0.8164  0.2420
  566MOL0     C74637   7.056   5.505   9.824  0.6244  0.2918 -0.0950
  566MOL0     O74638   7.113   5.615   9.871 -0.2750 -0.3112  0.1538
  566MOL0     C74639   7.157   5.636  10.008 -0.2369  0.1133 -0.2407
  566MOL0     C74640   7.219   5.774  10.017 -0.3568 -1.2437  0.2272
  566MOL0     C74641   7.336   5.809   9.920 -0.2029  0.0387 -0.5390
  566MOL0     C74642   7.470   5.735   9.956  0.8007  0.4551 -0.0550
  566MOL0     C74643   7.574   5.778   9.863 -0.0411 -0.2266 -0.4579
  566MOL0     C74644   7.668   5.786   9.783 -0.4597  0.4652 -1.4106
  566MOL0     C74645   7.045   5.387   9.905 -0.2552  0.0400  0.3092
  566MOL0     C74646   6.978   5.270   9.853  0.3536  0.0062 -1.1873
  566MOL0     H74647   6.715   5.113   9.318  3.4709 -1.4221 -0.2629
  566MOL0     H74648   6.570   4.927   9.236  1.0353  1.1570  0.2983
  566MOL0     H74649   6.520   4.714   9.189  0.0897  0.9085  0.4167
  566MOL0     H74650   6.380   4.801   9.211  1.0846  0.1262  0.2107
  566MOL0     H74651   6.411   4.501   9.289  0.5960  1.2307  3.1813
  566MOL0     H74652   6.340   4.557   9.132  2.0046  3.9799 -1.6442
  566MOL0     H74653   6.250   4.568   9.426 -0.7394 -0.8790  0.6788
  566MOL0     H74654   6.170   4.481   9.291 -0.6406  1.6184 -1.2103
  566MOL0     H74655   6.181   4.785   9.353 -0.3458 -0.8123  1.7457
  566MOL0     H74656   6.092   4.718   9.210 -2.9346  1.9451  1.2924
  566MOL0     H74657   6.040   4.680   9.498  4.0060  2.3693 -0.9891
  566MOL0     H74658   5.964   4.582   9.367 -1.9160  0.5826  0.3341
  566MOL0     H74659   5.861   4.799   9.283  3.8490 -4.0733 -1.1574
  566MOL0     H74660   5.932   4.892   9.431  0.3290 -0.7774  1.5704
  566MOL0     H74661   5.806   4.652   9.517  1.6956  0.0372 -1.1058
  566MOL0     H74662   5.789   4.818   9.554 -0.6646 -0.7469  0.2687
  566MOL0     H74663   5.619   4.663   9.365 -2.6756  3.3133 -2.9492
  566MOL0     H74664   5.626   4.829   9.342  1.0823 -1.8481 -2.1590
  566MOL0     H74665   5.499   4.968   9.541 -1.5131 -1.6189 -1.5558
  566MOL0     H74666   5.477   5.020   9.838  1.4469 -0.1393 -2.3866
  566MOL0     H74667   5.417   4.874   9.923 -3.6014  1.2674  0.9385
  566MOL0     H74668   5.242   4.998   9.907  2.1245 -1.6230  1.3912
  566MOL0     H74669   5.211   4.872   9.772 -0.9786 -0.0988  0.8487
  566MOL0     H74670   5.293   5.167   9.737  1.0618 -1.1005  0.4486
  566MOL0     H74671   5.269   5.050   9.610  3.1304 -0.5199  1.2506
  566MOL0     H74672   5.078   5.211   9.657 -3.2517  0.6084  2.9689
  566MOL0     H74673   5.050   5.120   9.798 -0.8232 -1.2939  0.2063
  566MOL0     H74674   4.855   4.840   9.506 -1.2359  0.1402 -2.0757
  566MOL0     H74675   4.621   4.840   9.515 -1.5306  0.7992 -0.3151
  566MOL0     H74676   4.211   5.178   9.522 -0.6746 -0.5524 -1.8482
  566MOL0     H74677   3.956   5.180   9.547 -0.3339 -0.5361 -1.4334
  566MOL0     H74678   3.750   5.152   9.497  4.1060  0.6119  0.2722
  566MOL0     H74679   3.778   5.177   9.668  1.6721 -0.2894 -0.8681
  566MOL0     H74680   3.547   5.016   9.544  2.5068 -0.9862 -0.4168
  566MOL0     H74681   3.529   5.172   9.615 -0.5985  0.2879 -0.7231
  566MOL0     H74682   3.587   5.069   9.847  0.9197  3.7943 -2.5727
  566MOL0     H74683   3.600   4.904   9.762 -3.5355 -1.9678  2.0226
  566MOL0     H74684   3.376   4.895   9.719 -0.8496 -1.0353  0.9701
  566MOL0     H74685   3.419   4.896   9.883 -1.5202 -0.5096  0.0375
  566MOL0     H74686   3.307   5.127   9.732  3.4663 -0.2917 -2.1723
  566MOL0     H74687   3.375   5.159   9.893 -4.0051  1.1894  1.7105
  566MOL0     H74688   3.199   4.965   9.959  0.8190 -1.1609 -1.2156
  566MOL0     H74689   3.143   4.976   9.795  1.3408 -1.8952  0.4855
  566MOL0     H74690   3.169   5.214   9.976 -0.4661 -2.1987  0.1314
  566MOL0     H74691   3.094   5.210   9.813  1.9370  2.6365 -0.3614
  566MOL0     H74692   2.994   5.022  10.050  0.1293  1.3270  0.7083
  566MOL0     H74693   2.929   5.043   9.890 -2.8700 -0.0901  2.0429
  566MOL0     H74694   3.961   4.793   9.698 -1.3022  2.2781  1.4113
  566MOL0     H74695   4.206   4.760   9.660  0.6949  0.5831  1.5276
  566MOL0     H74696   4.616   5.188   9.762 -0.4414 -1.0850  0.6622
  566MOL0     H74697   4.861   5.211   9.725  1.6839  0.4548 -3.1670
  566MOL0     H74698   6.506   4.782   9.615 -0.5710 -0.3922 -0.8828
  566MOL0     H74699   6.643   4.959   9.717  1.2158 -3.9132  0.5581
  566MOL0     H74700   6.860   5.403   9.557 -1.1992  0.2477  1.0870
  566MOL0     H74701   7.001   5.583   9.622 -0.2036 -0.0919 -0.8091
  566MOL0     H74702   7.237   5.562  10.020 -0.3493 -0.0125 -0.2603
  566MOL0     H74703   7.067   5.636  10.071  0.0627  2.8209  0.2822
  566MOL0     H74704   7.141   5.847   9.997  0.5794 -0.0587  0.7666
  566MOL0     H74705   7.249   5.784  10.122 -2.6137  0.0445  0.8034
  566MOL0     H74706   7.353   5.917   9.919 -0.3639  0.0629 -1.2898
  566MOL0     H74707   7.292   5.788   9.822 -2.3905 -1.8732  0.7561
  566MOL0     H74708   7.489   5.767  10.059 -0.2549  0.1978  0.2292
  566MOL0     H74709   7.459   5.626   9.959  0.2819  0.5158  3.1028
  566MOL0     H74710   7.754   5.793   9.721  0.1351  1.8700 -0.4748
  566MOL0     H74711   7.079   5.384  10.008 -0.4985 -2.6435  0.3768
  566MOL0     H74712   6.981   5.189   9.926 -0.5834  1.7821  0.9567
  567MOL0     O74713   7.213   3.833   5.940 -0.7020 -0.2271  0.2738
  567MOL0     C74714   7.296   3.764   5.875  0.5957  0.8865 -0.1343
  567MOL0     O74715   7.269   3.693   5.767 -0.2951 -0.1026  0.0200
  567MOL0     C74716   7.162   3.711   5.689 -0.2514  0.0229  0.2971
  567MOL0     C74717   7.112   3.838   5.659 -0.0826  0.0132  0.1315
  567MOL0     C74718   7.011   3.853   5.563  0.2579  0.6280  0.3262
  567MOL0     C74719   6.956   3.742   5.502 -0.6754  1.4110  0.8119
  567MOL0     O74720   6.868   3.764   5.395 -0.0449  0.9903 -0.6663
  567MOL0     C74721   6.830   3.653   5.309 -0.8490 -0.2082 -0.6719
  567MOL0     C74722   6.712   3.699   5.223 -0.1265  0.6182 -0.2266
  567MOL0     C74723   6.747   3.817   5.133 -0.1257  0.0505  1.0693
  567MOL0     C74724   6.620   3.860   5.056 -0.1737 -0.2026  0.1365
  567MOL0     C74725   6.532   3.949   5.144 -0.3162  0.6253 -0.3194
  567MOL0     C74726   6.411   3.988   5.054  0.8145 -0.2607 -0.2117
  567MOL0     C74727   6.321   4.095   5.120  0.2169 -0.3505  0.2120
  567MOL0     C74728   6.268   4.063   5.262  0.0933  0.7739  0.6206
  567MOL0     N74729   6.185   4.164   5.325 -0.1738 -0.1861  0.6341
  567MOL0     C74730   6.063   4.206   5.287  0.0634 -0.8427  0.0771
  567MOL0     C74731   6.033   4.316   5.358 -1.5844 -0.0341 -0.1742
  567MOL0     C74732   5.894   4.382   5.362  0.7960  0.1251  0.6230
  567MOL0     C74733   5.824   4.361   5.232  0.8438  0.2079  1.7666
  567MOL0     C74734   5.716   4.471   5.208 -0.3597  0.3631 -0.0342
  567MOL0     C74735   5.598   4.452   5.302  0.2073 -0.3172 -0.4176
  567MOL0     O74736   5.505   4.551   5.270 -0.3322  0.5104  0.1608
  567MOL0     C74737   5.372   4.531   5.311  0.0753 -0.0041 -0.5465
  567MOL0     C74738   5.281   4.636   5.278 -0.7721  0.4081 -0.0780
  567MOL0     C74739   5.143   4.624   5.282 -1.3193  0.0652  0.4723
  567MOL0     C74740   5.087   4.502   5.311  0.4615  0.1368 -0.0957
  567MOL0     C74741   4.936   4.481   5.318 -0.2254 -0.3349  0.3041
  567MOL0     O74742   4.906   4.357   5.354 -0.5597 -0.3214  0.0463
  567MOL0     C74743   4.777   4.309   5.369 -0.4858 -0.7606  0.2499
  567MOL0     C74744   4.764   4.184   5.422  0.0064  0.6337  0.3012
  567MOL0     C74745   4.648   4.102   5.424  1.0056 -0.0540 -0.4969
  567MOL0     C74746   4.518   4.167   5.386 -1.2995 -0.2158 -0.1059
  567MOL0     O74747   4.409   4.105   5.411 -0.5131  0.4885 -0.5050
  567MOL0     C74748   4.301   4.116   5.317 -0.2389  1.4289 -0.9013
  567MOL0     C74749   4.208   3.995   5.338 -0.7594 -0.3274 -0.9948
  567MOL0     C74750   4.080   3.994   5.270 -0.2424 -0.1327 -0.2830
  567MOL0     C74751   4.029   3.850   5.272 -0.2213  0.2480 -0.3888
  567MOL0     C74752   3.908   3.848   5.185 -0.1391 -0.3509  0.4392
  567MOL0     C74753   3.838   3.715   5.177  0.2087  0.0969  0.3243
  567MOL0     C74754   3.684   3.732   5.131 -0.3077  0.2028  0.4697
  567MOL0     C74755   3.669   3.803   5.001 -0.1093 -0.5767  0.4812
  567MOL0    Cl74756   3.761   3.720   4.879  0.3650 -0.0363  0.3796
  567MOL0     C74757   4.528   4.308   5.335  0.3556  0.3886 -0.3124
  567MOL0     C74758   4.659   4.368   5.318 -0.4381 -0.5941  0.5565
  567MOL0     O74759   4.858   4.569   5.309  0.1828 -0.6377  0.0854
  567MOL0     C74760   5.168   4.400   5.355  0.6728 -0.7747  0.5359
  567MOL0     C74761   5.307   4.411   5.361  0.4384 -0.6748  0.5731
  567MOL0     N74762   6.151   4.363   5.425  1.0068  0.5067  0.0117
  567MOL0     N74763   6.234   4.271   5.405  0.6725  0.8566  0.6499
  567MOL0     C74764   7.017   3.608   5.530  0.7479  0.2533  0.1662
  567MOL0     C74765   7.113   3.594   5.625 -1.3556 -0.0329 -1.0729
  567MOL0     C74766   7.436   3.754   5.921  0.2447  0.3637  1.1634
  567MOL0     C74767   7.467   3.807   6.048  1.2150 -0.3890  0.7604
  567MOL0     C74768   7.591   3.808   6.097 -0.0420  0.1987 -0.0274
  567MOL0     C74769   7.695   3.752   6.030  0.1859  0.4374  0.2121
  567MOL0     O74770   7.826   3.758   6.079  0.0785  0.0569  0.9729
  567MOL0     C74771   7.874   3.859   6.175  0.5636  0.3232  0.3985
  567MOL0     C74772   8.010   3.809   6.226 -0.9205 -0.3751 -0.1742
  567MOL0     C74773   8.062   3.886   6.355 -0.1999 -1.4751 -0.3037
  567MOL0     C74774   8.215   3.891   6.352  0.0059  1.2297  0.1437
  567MOL0     C74775   8.281   3.942   6.478 -0.3064 -1.1905  0.2916
  567MOL0     C74776   8.339   3.966   6.578 -0.7110  1.1967 -0.7218
  567MOL0     C74777   7.670   3.698   5.898  0.9761 -0.0958 -0.6008
  567MOL0     C74778   7.541   3.690   5.855  1.3184  0.3025  0.1647
  567MOL0     H74779   7.156   3.923   5.710 -3.7952  2.1244  0.2132
  567MOL0     H74780   6.982   3.953   5.534  0.6946  0.8468  0.6277
  567MOL0     H74781   6.798   3.566   5.367  0.1291 -2.6273 -3.5177
  567MOL0     H74782   6.912   3.617   5.247  2.4144 -0.8080  3.5019
  567MOL0     H74783   6.632   3.732   5.290  1.3730  0.5045  1.7150
  567MOL0     H74784   6.690   3.606   5.169  2.7600 -0.5788  0.4800
  567MOL0     H74785   6.832   3.782   5.073  0.2778  1.6980  0.6235
  567MOL0     H74786   6.792   3.898   5.192  0.8839 -1.4074  2.3575
  567MOL0     H74787   6.638   3.931   4.974  1.1924 -1.6042 -0.8269
  567MOL0     H74788   6.564   3.775   5.016  0.4744 -2.9139  4.3606
  567MOL0     H74789   6.578   4.040   5.184  0.1615  0.4898 -0.5553
  567MOL0     H74790   6.501   3.893   5.232  0.9684  1.8976  0.9947
  567MOL0     H74791   6.366   3.890   5.036 -0.4559 -0.1780  2.0648
  567MOL0     H74792   6.443   4.033   4.960 -3.9348  0.6203 -1.6691
  567MOL0     H74793   6.371   4.192   5.125 -0.0637 -0.1336 -0.8814
  567MOL0     H74794   6.233   4.084   5.056 -1.4388 -4.7078  2.7589
  567MOL0     H74795   6.347   4.051   5.337  0.6955  0.5646 -0.0392
  567MOL0     H74796   6.217   3.967   5.266  0.4378  0.6237  2.1909
  567MOL0     H74797   5.994   4.149   5.226 -0.1018 -0.4949 -0.0658
  567MOL0     H74798   5.894   4.491   5.377 -0.7808  0.0333  1.4043
  567MOL0     H74799   5.846   4.335   5.447  0.1336 -0.9087 -0.3019
  567MOL0     H74800   5.782   4.263   5.206  2.9529 -0.1702 -0.7937
  567MOL0     H74801   5.897   4.369   5.150 -1.0774 -0.1153 -0.0836
  567MOL0     H74802   5.756   4.572   5.220  0.1130  0.5284 -2.5940
  567MOL0     H74803   5.691   4.468   5.102  0.6776  0.8722 -0.3045
  567MOL0     H74804   5.638   4.469   5.403  5.1076 -0.1158 -2.1281
  567MOL0     H74805   5.562   4.349   5.297 -1.8159 -0.2180  5.0423
  567MOL0     H74806   5.328   4.728   5.245 -0.2589  0.2328  0.1472
  567MOL0     H74807   5.088   4.716   5.264  2.7983  3.1557  2.2837
  567MOL0     H74808   4.860   4.145   5.453 -0.7969 -1.2392  0.5585
  567MOL0     H74809   4.630   4.003   5.465 -1.9958  0.2260 -0.8779
  567MOL0     H74810   4.349   4.116   5.219  2.8857  0.4670  0.5144
  567MOL0     H74811   4.250   4.210   5.341 -0.7254  1.3369 -1.5493
  567MOL0     H74812   4.196   3.983   5.446  2.9907  3.1946  0.0714
  567MOL0     H74813   4.263   3.911   5.293  4.8852  3.1481 -1.4884
  567MOL0     H74814   4.092   4.009   5.163 -3.9693  2.2730 -0.5505
  567MOL0     H74815   4.024   4.069   5.329  0.0204 -0.5962  0.5750
  567MOL0     H74816   4.103   3.776   5.238  1.3637  0.9353  1.3679
  567MOL0     H74817   3.998   3.826   5.374  1.7524 -0.4307  0.1023
  567MOL0     H74818   3.929   3.887   5.085  0.6785 -0.2901  0.6285
  567MOL0     H74819   3.838   3.920   5.229  1.5432  0.3436  2.1063
  567MOL0     H74820   3.823   3.681   5.279 -0.9761 -0.1611  0.0730
  567MOL0     H74821   3.887   3.640   5.114  1.2045 -0.4365  1.6893
  567MOL0     H74822   3.639   3.632   5.135 -1.1491  0.5801  0.6392
  567MOL0     H74823   3.621   3.782   5.206 -0.3344  1.8312 -0.6021
  567MOL0     H74824   3.695   3.909   5.001  1.2019 -0.8718 -0.3185
  567MOL0     H74825   3.567   3.790   4.962 -0.1448 -0.9719  0.7002
  567MOL0     H74826   4.438   4.355   5.298 -1.0013 -1.6212  0.2419
  567MOL0     H74827   4.655   4.467   5.273 -1.1362 -0.4504  0.9268
  567MOL0     H74828   5.127   4.304   5.383  1.7688 -0.4431  3.5649
  567MOL0     H74829   5.364   4.320   5.381 -1.1046 -1.6535  0.6841
  567MOL0     H74830   6.990   3.524   5.466  0.2316  1.1096 -0.7705
  567MOL0     H74831   7.171   3.507   5.656  0.1912  2.4174  4.0488
  567MOL0     H74832   7.391   3.850   6.112  1.6118  2.3341 -0.4426
  567MOL0     H74833   7.614   3.836   6.200 -0.1206 -0.5171  0.1881
  567MOL0     H74834   7.802   3.880   6.254 -2.6670  1.4611 -2.5878
  567MOL0     H74835   7.896   3.953   6.123  0.0781 -1.6295 -3.7033
  567MOL0     H74836   8.011   3.700   6.238  1.6605 -0.2034  1.9016
  567MOL0     H74837   8.073   3.827   6.138  1.5374 -0.1305  1.5351
  567MOL0     H74838   8.028   3.845   6.450 -2.9303  0.9838 -0.0918
  567MOL0     H74839   8.031   3.990   6.366 -2.3025 -2.2634  2.3835
  567MOL0     H74840   8.231   3.783   6.347  1.4339  1.4952 -2.0958
  567MOL0     H74841   8.252   3.936   6.260  2.0270 -2.0648 -0.8396
  567MOL0     H74842   8.392   3.976   6.671  0.5962 -1.4115 -1.1146
  567MOL0     H74843   7.750   3.656   5.838 -1.3416 -0.7953 -3.4205
  567MOL0     H74844   7.513   3.659   5.754  1.7224  2.3508 -0.6166
  568MOL0     O74845   6.734   1.155   1.638 -0.0571 -0.2583  0.2637
  568MOL0     C74846   6.829   1.124   1.708 -0.3977 -1.2174  0.7845
  568MOL0     O74847   6.821   1.074   1.830 -0.3296  0.5077  0.4684
  568MOL0     C74848   6.697   1.068   1.884 -0.1773  0.4149 -0.5980
  568MOL0     C74849   6.657   0.954   1.942  1.2600  0.7007  0.8605
  568MOL0     C74850   6.521   0.942   1.991  0.0670  0.1528  0.4605
  568MOL0     C74851   6.438   1.054   1.990 -0.1728 -0.5579  0.9435
  568MOL0     O74852   6.322   1.031   2.052 -0.2029  0.3129  0.9885
  568MOL0     C74853   6.198   1.072   1.977  0.6336  0.1206 -0.4236
  568MOL0     C74854   6.098   1.119   2.083 -0.9043  0.2260  0.1101
  568MOL0     C74855   5.954   1.109   2.044  0.4020  0.9594  0.2085
  568MOL0     C74856   5.925   1.184   1.925 -0.8677  0.7705 -0.2618
  568MOL0     C74857   5.775   1.207   1.906 -0.8135 -0.1659 -0.2514
  568MOL0     C74858   5.698   1.072   1.865 -0.7766  0.0759  0.2752
  568MOL0     C74859   5.545   1.091   1.861 -0.0473  0.4184  0.9535
  568MOL0     C74860   5.487   1.149   1.985 -0.9231  0.5049 -0.3066
  568MOL0     N74861   5.339   1.154   1.994 -0.9115 -0.4005 -0.0351
  568MOL0     C74862   5.248   1.112   1.904 -0.5886  0.3168  0.4436
  568MOL0     C74863   5.126   1.131   1.964 -0.9145 -0.2877  0.3755
  568MOL0     C74864   4.995   1.117   1.896 -0.5958  0.0329  0.2894
  568MOL0     C74865   4.952   1.242   1.824 -0.0327  0.0099  0.2072
  568MOL0     C74866   4.815   1.237   1.752  0.2923  0.6864  0.3112
  568MOL0     C74867   4.681   1.239   1.835  0.9035  0.3607  0.0943
  568MOL0     O74868   4.674   1.142   1.943  0.5216 -0.1210  0.3939
  568MOL0     C74869   4.547   1.115   1.996  0.4300  0.4796 -1.1689
  568MOL0     C74870   4.541   1.010   2.084  0.1245  0.3809 -0.7190
  568MOL0     C74871   4.419   0.984   2.140  0.6921  0.0175 -0.3856
  568MOL0     C74872   4.295   1.046   2.105 -0.4998  0.0157  0.0468
  568MOL0     C74873   4.167   1.012   2.182 -0.4441 -0.1108  0.3195
  568MOL0     O74874   4.067   1.012   2.093 -0.3606  0.7883 -0.6779
  568MOL0     C74875   3.939   0.985   2.127  0.1180 -0.8316 -0.1685
  568MOL0     C74876   3.853   0.970   2.018  0.1393 -0.3677 -0.7846
  568MOL0     C74877   3.720   0.941   2.033  0.0070  0.2467  0.2924
  568MOL0     C74878   3.669   0.919   2.157  0.4341  0.8977 -0.6919
  568MOL0     O74879   3.541   0.886   2.199 -0.9790 -0.6190  0.4331
  568MOL0     C74880   3.441   0.985   2.175 -0.0079  0.2125  0.7405
  568MOL0     C74881   3.378   0.998   2.029  0.7105 -0.2073  0.7769
  568MOL0     C74882   3.299   0.867   2.007  0.6579 -0.1430 -0.0154
  568MOL0     C74883   3.223   0.857   1.873 -0.4898 -0.0764 -0.3048
  568MOL0     C74884   3.325   0.798   1.768 -0.0369 -0.2092  0.6003
  568MOL0     C74885   3.263   0.807   1.636 -0.4285 -0.1746 -0.3637
  568MOL0     C74886   3.349   0.710   1.537  0.4577 -0.1422  0.6472
  568MOL0     C74887   3.480   0.768   1.486  1.6174 -0.8834  0.3607
  568MOL0    Cl74888   3.453   0.905   1.379 -0.5900 -0.0468 -0.1978
  568MOL0     C74889   3.745   0.945   2.266 -0.3381  0.3401  0.4206
  568MOL0     C74890   3.878   0.971   2.253 -0.3719 -0.1367  0.0650
  568MOL0     O74891   4.176   0.968   2.293  0.8403 -0.4402 -0.3454
  568MOL0     C74892   4.307   1.144   2.005 -0.2694  0.7000 -0.2099
  568MOL0     C74893   4.430   1.180   1.955 -0.6239  0.4540  0.8285
  568MOL0     N74894   5.153   1.188   2.094 -0.5533  0.4712  0.3060
  568MOL0     N74895   5.280   1.198   2.112 -0.2571  0.1566 -0.8219
  568MOL0     C74896   6.484   1.179   1.939 -0.6316  0.4836 -0.9544
  568MOL0     C74897   6.615   1.184   1.889  0.4390 -0.3881  0.6286
  568MOL0     C74898   6.957   1.147   1.646  0.4882  0.0057 -0.2805
  568MOL0     C74899   7.066   1.057   1.666  0.5261 -0.7965 -0.4452
  568MOL0     C74900   7.184   1.070   1.599 -0.1826 -1.0673 -0.6566
  568MOL0     C74901   7.210   1.174   1.513  0.8740  0.2241  0.1923
  568MOL0     O74902   7.330   1.188   1.445 -0.5675  0.5628  0.3398
  568MOL0     C74903   7.439   1.098   1.481 -1.4714 -0.8492  0.3971
  568MOL0     C74904   7.548   1.127   1.381 -0.0970 -0.7524  0.0745
  568MOL0     C74905   7.677   1.041   1.391  0.5939  0.2037  0.1874
  568MOL0     C74906   7.673   0.893   1.354 -0.2092 -0.1449  0.7534
  568MOL0     C74907   7.619   0.877   1.220  0.3706 -0.2424  0.3650
  568MOL0     C74908   7.577   0.840   1.110  0.5877 -1.3208 -0.5117
  568MOL0     C74909   7.112   1.258   1.481  0.5640  0.0390  0.7061
  568MOL0     C74910   6.983   1.250   1.548 -0.0846  0.7899  0.5297
  568MOL0     H74911   6.720   0.865   1.940  1.3188  0.7589 -1.1902
  568MOL0     H74912   6.496   0.852   2.047 -1.3834 -0.3370 -0.9110
  568MOL0     H74913   6.163   0.977   1.935  1.4665 -0.7849  0.8442
  568MOL0     H74914   6.204   1.151   1.902 -0.6756 -1.0835 -1.8693
  568MOL0     H74915   6.104   1.227   2.101 -2.7865  0.5833 -1.1621
  568MOL0     H74916   6.123   1.057   2.171  1.5770 -1.0963 -1.4070
  568MOL0     H74917   5.902   1.162   2.124 -3.4227 -1.1528 -0.6072
  568MOL0     H74918   5.930   1.003   2.026  0.5595  0.8583  0.5815
  568MOL0     H74919   5.964   1.286   1.930 -1.0817  0.8597 -0.3693
  568MOL0     H74920   5.976   1.136   1.840 -2.1153  2.9527 -2.3716
  568MOL0     H74921   5.767   1.276   1.821  1.1949  1.3135  0.6635
  568MOL0     H74922   5.733   1.259   1.993  0.3912 -1.4464  1.1448
  568MOL0     H74923   5.714   0.995   1.941 -0.7876  0.9414  1.1811
  568MOL0     H74924   5.739   1.037   1.770 -0.7280 -0.5710  0.5272
  568MOL0     H74925   5.520   1.152   1.774  0.4798 -2.2513 -1.2279
  568MOL0     H74926   5.506   0.990   1.842  0.5953  0.2864  0.2893
  568MOL0     H74927   5.526   1.250   2.001 -0.9296  0.3580  0.6750
  568MOL0     H74928   5.532   1.084   2.061  0.3721 -0.3055 -1.6949
  568MOL0     H74929   5.275   1.077   1.805  1.4377 -0.1662  1.1208
  568MOL0     H74930   4.918   1.093   1.970 -1.1198 -1.2360 -0.6373
  568MOL0     H74931   5.003   1.029   1.832 -0.0762  0.0826  0.2843
  568MOL0     H74932   5.034   1.280   1.763 -2.1240  3.8767 -0.5283
  568MOL0     H74933   4.939   1.311   1.908  1.7818 -2.2997  2.5589
  568MOL0     H74934   4.814   1.325   1.688  0.8441  0.9075  0.6007
  568MOL0     H74935   4.819   1.146   1.692  1.3660 -0.1117  1.5205
  568MOL0     H74936   4.598   1.217   1.767  1.6468  4.7707 -2.6552
  568MOL0     H74937   4.677   1.335   1.888 -4.1370  0.3415  0.2271
  568MOL0     H74938   4.622   0.946   2.118 -0.2665 -1.0355 -2.3060
  568MOL0     H74939   4.413   0.904   2.213 -0.2859  0.8554  0.4820
  568MOL0     H74940   3.894   0.981   1.918 -1.3479  0.7702 -1.3102
  568MOL0     H74941   3.653   0.936   1.948 -1.2836  1.8334  1.1598
  568MOL0     H74942   3.479   1.084   2.203 -1.3682  0.8756  0.3218
  568MOL0     H74943   3.364   0.969   2.250  0.1952  2.8820  1.6314
  568MOL0     H74944   3.462   1.003   1.960 -0.8678  0.6847 -1.1477
  568MOL0     H74945   3.317   1.087   2.013  0.4240 -0.7277 -1.3259
  568MOL0     H74946   3.223   0.868   2.085  0.2507 -2.9927 -0.2691
  568MOL0     H74947   3.367   0.782   2.014 -0.5199 -0.9221  4.2511
  568MOL0     H74948   3.144   0.783   1.889  0.7608 -1.3906  0.0251
  568MOL0     H74949   3.183   0.955   1.845  0.3770  0.5542  0.6095
  568MOL0     H74950   3.342   0.696   1.805 -0.5089 -0.2812  0.6268
  568MOL0     H74951   3.413   0.862   1.782 -0.8702  0.7358  1.6522
  568MOL0     H74952   3.256   0.912   1.606 -0.9487  0.8278  2.9006
  568MOL0     H74953   3.158   0.777   1.642  0.1067 -1.8507  1.6546
  568MOL0     H74954   3.354   0.615   1.591  0.3399  0.3491  1.5622
  568MOL0     H74955   3.278   0.708   1.454  0.4083 -3.0005  0.6692
  568MOL0     H74956   3.537   0.692   1.431  0.1716 -1.4734 -0.3826
  568MOL0     H74957   3.543   0.802   1.569  0.9222  2.0352 -0.2081
  568MOL0     H74958   3.720   0.935   2.371 -1.7272 -2.5102 -0.0869
  568MOL0     H74959   3.946   0.978   2.338 -0.6670 -2.3163  0.5374
  568MOL0     H74960   4.216   1.196   1.977 -2.3194 -0.5063  3.5178
  568MOL0     H74961   4.429   1.268   1.892 -2.7982  0.9230  1.4181
  568MOL0     H74962   6.441   1.275   1.967  0.8775  0.1428  3.1452
  568MOL0     H74963   6.642   1.274   1.836 -3.6450 -0.0046 -1.1647
  568MOL0     H74964   7.077   0.967   1.725  2.9088 -1.0690 -1.1766
  568MOL0     H74965   7.259   0.994   1.623  0.5780  0.6074  2.9558
  568MOL0     H74966   7.420   0.994   1.452  1.7106 -1.1977 -0.8636
  568MOL0     H74967   7.462   1.107   1.588 -3.3302  0.1573  0.7587
  568MOL0     H74968   7.501   1.116   1.283  2.3347  4.5768 -2.0797
  568MOL0     H74969   7.579   1.230   1.364 -1.9859 -0.4104 -1.6135
  568MOL0     H74970   7.711   1.047   1.494 -0.2243 -0.7976  0.5260
  568MOL0     H74971   7.755   1.090   1.331  1.5824 -0.9540  0.5034
  568MOL0     H74972   7.770   0.848   1.380 -1.0086 -1.8177  0.9335
  568MOL0     H74973   7.607   0.841   1.423 -0.8012 -2.0133 -1.1411
  568MOL0     H74974   7.537   0.806   1.016 -0.8822  0.5340 -0.6389
  568MOL0     H74975   7.125   1.337   1.407 -0.8781 -0.9330 -0.6645
  568MOL0     H74976   6.901   1.312   1.514  0.5517  0.7209 -1.2261
  569MOL0     O74977   6.547   3.718   1.595 -0.6190 -0.5583  0.3795
  569MOL0     C74978   6.510   3.607   1.638  0.5958 -0.6645  0.4827
  569MOL0     O74979   6.593   3.504   1.679  0.3250  0.2010 -0.2060
  569MOL0     C74980   6.722   3.543   1.674  0.4615 -0.8779 -0.1969
  569MOL0     C74981   6.799   3.537   1.558 -0.2150 -1.2525 -0.1577
  569MOL0     C74982   6.935   3.571   1.561 -0.4108  0.6027  0.4466
  569MOL0     C74983   6.991   3.619   1.677 -0.1731 -0.7111 -0.0498
  569MOL0     O74984   7.122   3.663   1.692  1.1810  0.0365 -0.0638
  569MOL0     C74985   7.222   3.589   1.628  0.0426  0.7291  0.4478
  569MOL0     C74986   7.360   3.610   1.702 -0.3487  0.1102  0.3178
  569MOL0     C74987   7.371   3.561   1.852 -0.3853 -0.6447  0.2367
  569MOL0     C74988   7.497   3.610   1.922  0.2211 -0.1265 -0.1181
  569MOL0     C74989   7.629   3.552   1.868  0.0975  0.8421  0.4111
  569MOL0     C74990   7.657   3.412   1.924  0.7192 -0.3641 -0.5079
  569MOL0     C74991   7.770   3.348   1.842 -0.4127 -0.7927 -0.1793
  569MOL0     C74992   7.912   3.410   1.862 -0.4675 -0.8113  0.3046
  569MOL0     N74993   7.956   3.411   1.997  1.0257 -0.0305 -0.8054
  569MOL0     C74994   7.968   3.529   2.066 -0.1808 -0.9328 -0.3138
  569MOL0     C74995   8.070   3.511   2.146 -0.4706  1.8947 -0.3050
  569MOL0     C74996   8.143   3.605   2.221  0.0520 -0.6271  0.0695
  569MOL0     C74997   8.083   3.647   2.355  0.6216 -0.0735 -0.0099
  569MOL0     C74998   8.055   3.514   2.435 -0.4903 -0.8618  0.2545
  569MOL0     C74999   8.044   3.557   2.588 -0.6073  1.2563 -0.4732
  569MOL0     O75000   7.944   3.656   2.614  0.2696 -0.0032  0.2881
  569MOL0     C75001   7.810   3.618   2.598  1.3418 -1.2200 -0.4114
  569MOL0     C75002   7.758   3.494   2.568  0.8656 -0.2941  0.0240
  569MOL0     C75003   7.621   3.468   2.551  0.1307  0.2344 -0.2867
  569MOL0     C75004   7.527   3.568   2.586  0.6866  0.0290 -0.3073
  569MOL0     C75005   7.380   3.545   2.612 -0.5953 -0.8878 -0.0644
  569MOL0     O75006   7.327   3.457   2.526  0.0445  0.9398 -0.5581
  569MOL0     C75007   7.192   3.424   2.538  0.0239 -0.3010  0.7441
  569MOL0     C75008   7.085   3.509   2.544  0.5828  0.7506  0.5769
  569MOL0     C75009   6.953   3.457   2.529 -0.0486  0.1354  0.2472
  569MOL0     C75010   6.924   3.320   2.508 -0.5006 -0.3476  0.8394
  569MOL0     O75011   6.800   3.262   2.475  0.5071 -0.5867 -0.0201
  569MOL0     C75012   6.699   3.352   2.429 -0.1452 -0.3986 -0.1443
  569MOL0     C75013   6.580   3.282   2.366 -0.1379 -0.1198  0.3571
  569MOL0     C75014   6.494   3.388   2.292  0.2879 -0.6934 -0.3841
  569MOL0     C75015   6.353   3.334   2.279 -0.1219 -0.7464  0.1513
  569MOL0     C75016   6.277   3.435   2.193  0.7646 -0.4215 -0.2214
  569MOL0     C75017   6.147   3.377   2.146  0.0235  0.7071  0.0593
  569MOL0     C75018   6.047   3.333   2.246 -0.1143 -0.1583 -0.8010
  569MOL0     C75019   5.958   3.435   2.311 -1.2997  0.2456 -0.2770
  569MOL0    Cl75020   5.830   3.496   2.206 -0.0722 -0.0066 -0.8645
  569MOL0     C75021   7.031   3.234   2.519 -0.1997 -0.8721  0.7519
  569MOL0     C75022   7.166   3.290   2.535 -0.1989  0.2711  0.0836
  569MOL0     O75023   7.324   3.606   2.706 -0.6914 -0.3233  0.6745
  569MOL0     C75024   7.576   3.693   2.608  0.8797 -0.6785  0.1272
  569MOL0     C75025   7.709   3.719   2.615 -0.1522 -0.6523  0.2403
  569MOL0     N75026   8.119   3.383   2.130 -0.4575  0.1895 -0.3093
  569MOL0     N75027   8.044   3.317   2.045  0.4362 -0.4127 -0.6655
  569MOL0     C75028   6.902   3.638   1.788 -0.1291  0.7927 -0.3395
  569MOL0     C75029   6.770   3.588   1.798  0.2541  0.3853  0.3395
  569MOL0     C75030   6.361   3.590   1.651 -0.4525  0.6744 -1.1447
  569MOL0     C75031   6.262   3.659   1.582 -0.2797 -0.4897 -0.3679
  569MOL0     C75032   6.130   3.643   1.613 -0.0693 -0.1528 -0.9849
  569MOL0     C75033   6.089   3.548   1.705 -0.9462 -0.5890 -0.4660
  569MOL0     O75034   5.954   3.549   1.715 -0.0755  0.7780 -0.0688
  569MOL0     C75035   5.887   3.461   1.817  0.1770  0.2047  0.0115
  569MOL0     C75036   5.891   3.310   1.782  0.0368 -0.6317  0.2782
  569MOL0     C75037   5.804   3.279   1.659 -0.0078  0.3157  0.1320
  569MOL0     C75038   5.771   3.129   1.654 -0.2720  0.5233  0.3306
  569MOL0     C75039   5.877   3.035   1.614  0.8051 -0.6884 -0.6236
  569MOL0     C75040   5.962   2.957   1.581 -0.1303  0.3998 -0.3216
  569MOL0     C75041   6.180   3.486   1.786 -0.5647  0.1945 -1.1447
  569MOL0     C75042   6.319   3.504   1.757  0.2651 -0.6369  0.2070
  569MOL0     H75043   6.745   3.495   1.474  1.0494 -0.3160 -1.4787
  569MOL0     H75044   6.991   3.555   1.469 -1.7216 -0.9107 -0.1305
  569MOL0     H75045   7.232   3.607   1.520 -2.2103 -0.2740  0.0003
  569MOL0     H75046   7.187   3.486   1.637 -3.6903  1.9703  2.3828
  569MOL0     H75047   7.376   3.718   1.697 -1.4390  0.2156 -3.5645
  569MOL0     H75048   7.443   3.558   1.652 -2.0053 -3.9990  1.4815
  569MOL0     H75049   7.373   3.452   1.859  0.3477 -0.5567  1.8788
  569MOL0     H75050   7.288   3.596   1.915  1.9965  2.6044  1.8814
  569MOL0     H75051   7.501   3.717   1.899  0.9566 -0.2353 -0.5183
  569MOL0     H75052   7.473   3.597   2.028 -2.6515  0.1256 -0.6466
  569MOL0     H75053   7.715   3.616   1.886  1.2263 -1.1727  2.8417
  569MOL0     H75054   7.617   3.539   1.760 -1.6198 -2.9766  0.8977
  569MOL0     H75055   7.568   3.348   1.924  1.5244 -1.5259 -0.9222
  569MOL0     H75056   7.691   3.427   2.027 -3.0732 -0.2003  0.9045
  569MOL0     H75057   7.779   3.242   1.868 -3.3444 -1.1118 -0.1477
  569MOL0     H75058   7.740   3.343   1.737 -0.7505  0.8020 -0.1860
  569MOL0     H75059   7.907   3.512   1.823  0.8595 -1.6415 -2.2512
  569MOL0     H75060   7.977   3.354   1.794  1.7618  2.3421 -0.3305
  569MOL0     H75061   7.940   3.631   2.040  1.1579 -0.6813 -0.9051
  569MOL0     H75062   8.140   3.699   2.165 -3.1052  0.1960  1.3839
  569MOL0     H75063   8.243   3.566   2.237 -0.2007 -3.4173 -3.7192
  569MOL0     H75064   7.986   3.692   2.329 -1.4040 -3.3652  1.3272
  569MOL0     H75065   8.147   3.717   2.410  0.3960  1.0901 -1.1757
  569MOL0     H75066   7.962   3.471   2.397  0.1037 -1.2269 -0.8583
  569MOL0     H75067   8.131   3.437   2.422 -0.8406 -0.9304 -1.8328
  569MOL0     H75068   8.138   3.599   2.626 -0.6802 -0.3003  1.6743
  569MOL0     H75069   8.028   3.467   2.648  1.2482  0.4023 -1.1601
  569MOL0     H75070   7.819   3.405   2.560  0.7090 -0.9285  4.0863
  569MOL0     H75071   7.592   3.364   2.538 -1.9243  0.6389  0.6721
  569MOL0     H75072   7.100   3.615   2.526  1.1327  0.7564  1.0466
  569MOL0     H75073   6.865   3.521   2.536 -0.2982 -0.1961  0.1398
  569MOL0     H75074   6.738   3.413   2.347  0.4057 -0.7722 -0.1661
  569MOL0     H75075   6.668   3.413   2.514 -1.2658 -0.8821 -0.1888
  569MOL0     H75076   6.525   3.228   2.443  1.1509 -4.2730 -1.3641
  569MOL0     H75077   6.608   3.208   2.290 -1.1946  0.6601 -0.8272
  569MOL0     H75078   6.536   3.412   2.194  2.4485  1.6710  1.0267
  569MOL0     H75079   6.488   3.476   2.356  2.8813 -1.3973  0.9600
  569MOL0     H75080   6.342   3.233   2.240 -0.6698 -1.0349  1.0295
  569MOL0     H75081   6.305   3.340   2.377  1.8598  0.2600  1.1236
  569MOL0     H75082   6.328   3.460   2.100 -0.8155  0.7556 -0.8263
  569MOL0     H75083   6.270   3.526   2.255 -0.7998  0.7089 -1.9382
  569MOL0     H75084   6.167   3.291   2.081 -4.3273 -0.8949  0.4699
  569MOL0     H75085   6.087   3.446   2.087 -0.5655  1.5072  1.5284
  569MOL0     H75086   5.974   3.267   2.198  1.8346 -3.5377  0.5021
  569MOL0     H75087   6.091   3.275   2.328 -3.4340  2.6720  3.4388
  569MOL0     H75088   6.020   3.519   2.344 -1.6069  0.6312 -0.6610
  569MOL0     H75089   5.909   3.374   2.387 -0.2325  0.5920  0.7166
  569MOL0     H75090   7.006   3.129   2.527 -1.8945 -0.5042  0.5962
  569MOL0     H75091   7.245   3.216   2.534  0.0501  0.5020 -1.7189
  569MOL0     H75092   7.507   3.774   2.632 -3.4559 -3.0961 -2.7580
  569MOL0     H75093   7.742   3.820   2.637 -0.4064 -0.5401  0.1198
  569MOL0     H75094   6.944   3.682   1.878 -1.2612 -2.5051  2.0215
  569MOL0     H75095   6.710   3.595   1.888  0.9785  0.2858  0.8377
  569MOL0     H75096   6.294   3.720   1.498  1.6851  0.1960  0.7942
  569MOL0     H75097   6.060   3.705   1.560  0.9226  1.4360 -0.5213
  569MOL0     H75098   5.781   3.490   1.812  0.6440  1.7725 -1.7912
  569MOL0     H75099   5.926   3.473   1.918  2.6671  2.6632 -1.1077
  569MOL0     H75100   5.992   3.269   1.779  0.6435  0.6695  1.6479
  569MOL0     H75101   5.850   3.268   1.874 -1.6826 -1.6948 -0.8902
  569MOL0     H75102   5.847   3.309   1.563 -3.8046  1.3814 -1.4531
  569MOL0     H75103   5.703   3.321   1.663 -0.4020 -0.6492  0.4047
  569MOL0     H75104   5.743   3.099   1.756  0.6542  0.0854  0.4607
  569MOL0     H75105   5.690   3.118   1.582 -0.1998 -0.7309  0.4291
  569MOL0     H75106   6.032   2.889   1.536  1.5999  2.5272 -1.0395
  569MOL0     H75107   6.144   3.439   1.877 -2.3572  1.6897 -1.0193
  569MOL0     H75108   6.386   3.467   1.833  2.4862  0.4032 -1.1423
  570MOL0     O75109  11.305   7.549   0.230 -1.1366  0.0890 -0.7542
  570MOL0     C75110  11.245   7.569   0.126 -0.1428  0.2777 -0.4013
  570MOL0     O75111  11.308   7.601   0.013 -0.3612 -0.5403 -0.6854
  570MOL0     C75112  11.413   7.690   0.001 -0.6540  0.0399 -0.6674
  570MOL0     C75113  11.488   7.679  -0.111 -0.4875  0.5912 -0.2968
  570MOL0     C75114  11.601   7.775  -0.134  0.3233 -0.0007  0.8013
  570MOL0     C75115  11.633   7.867  -0.033  0.6372  0.4805  0.0814
  570MOL0     O75116  11.745   7.942  -0.062  0.3647  0.0212 -0.3730
  570MOL0     C75117  11.791   8.034   0.049  0.7050  0.7492  0.4468
  570MOL0     C75118  11.942   8.068   0.038  0.0565  0.1734  0.2063
  570MOL0     C75119  12.037   7.949   0.039 -0.0241  0.0260  0.0761
  570MOL0     C75120  12.175   7.996  -0.005 -0.5597 -0.5830  0.6468
  570MOL0     C75121  12.274   7.885  -0.025  0.8874 -0.6723  0.3495
  570MOL0     C75122  12.414   7.945  -0.045  0.6181  0.1501  0.4024
  570MOL0     C75123  12.517   7.835  -0.069 -0.7259 -0.5889 -0.5508
  570MOL0     C75124  12.473   7.738  -0.167 -0.5004  0.6865  0.0122
  570MOL0     N75125  12.573   7.664  -0.246 -0.3228 -0.1282  0.5689
  570MOL0     C75126  12.673   7.581  -0.201  0.1925 -0.0933  0.2665
  570MOL0     C75127  12.723   7.527  -0.315  0.6555 -0.7139  0.9094
  570MOL0     C75128  12.849   7.430  -0.320  0.6635 -0.1451  0.2952
  570MOL0     C75129  12.843   7.313  -0.416  0.3025  0.4488  0.1601
  570MOL0     C75130  12.753   7.205  -0.351 -0.0284  0.3953 -0.0959
  570MOL0     C75131  12.601   7.231  -0.393 -0.5639  0.0704  0.1679
  570MOL0     O75132  12.537   7.099  -0.379  0.1218 -0.6424 -0.0156
  570MOL0     C75133  12.399   7.091  -0.392  0.6832  0.2849  0.3564
  570MOL0     C75134  12.317   7.197  -0.418 -0.2645 -0.0844  0.6606
  570MOL0     C75135  12.181   7.180  -0.448  0.7288  0.6727 -0.7719
  570MOL0     C75136  12.116   7.057  -0.435  1.3823  1.4779  0.0664
  570MOL0     C75137  11.969   7.048  -0.429 -0.4287 -0.4237 -1.0711
  570MOL0     O75138  11.904   7.165  -0.449 -0.7933 -0.3102 -0.0294
  570MOL0     C75139  11.768   7.188  -0.446  0.3797  0.8823 -0.3975
  570MOL0     C75140  11.666   7.089  -0.465  0.9024  0.0042 -0.3531
  570MOL0     C75141  11.531   7.128  -0.447 -1.6464  0.4014 -0.9631
  570MOL0     C75142  11.500   7.265  -0.429 -0.6809 -0.3215 -0.5489
  570MOL0     O75143  11.372   7.295  -0.421  0.6488 -0.3819 -0.4876
  570MOL0     C75144  11.271   7.202  -0.375 -0.1556  0.1932  0.1250
  570MOL0     C75145  11.151   7.276  -0.324  0.5941 -0.3436 -0.2335
  570MOL0     C75146  11.040   7.175  -0.276 -0.4207  0.2445 -0.5817
  570MOL0     C75147  10.908   7.241  -0.239  0.6553 -0.4027 -0.1859
  570MOL0     C75148  10.821   7.139  -0.148  0.2627  0.4190 -0.0603
  570MOL0     C75149  10.707   7.216  -0.097  0.3297 -0.6340 -0.1272
  570MOL0     C75150  10.612   7.122  -0.012 -0.0485 -0.1082  0.1002
  570MOL0     C75151  10.476   7.192  -0.007  0.2216 -0.3977 -0.2897
  570MOL0    Cl75152  10.400   7.182  -0.172 -0.3350  0.0522  0.0032
  570MOL0     C75153  11.600   7.358  -0.428  0.1433  0.5340 -0.1461
  570MOL0     C75154  11.735   7.322  -0.434 -0.0625 -0.9335 -0.6544
  570MOL0     O75155  11.924   6.936  -0.401 -0.1681  0.5755  0.2649
  570MOL0     C75156  12.204   6.947  -0.413 -0.2759 -1.2570  0.0691
  570MOL0     C75157  12.344   6.965  -0.393 -0.8315 -0.6124  0.4662
  570MOL0     N75158  12.637   7.563  -0.425  0.7342  0.2088  0.2139
  570MOL0     N75159  12.540   7.638  -0.381  0.2131  0.0383 -0.9923
  570MOL0     C75160  11.558   7.868   0.079 -0.3267 -0.5661 -0.2175
  570MOL0     C75161  11.449   7.781   0.100  0.8546  0.6303 -0.0937
  570MOL0     C75162  11.106   7.550   0.126  0.4840 -0.3682 -0.1803
  570MOL0     C75163  11.032   7.497   0.229 -0.0433  0.7960 -0.7365
  570MOL0     C75164  10.891   7.515   0.225 -0.6288 -0.3423  0.6586
  570MOL0     C75165  10.817   7.573   0.126  0.7170  1.3102 -1.3019
  570MOL0     O75166  10.676   7.589   0.138  0.0615 -0.5831  0.0262
  570MOL0     C75167  10.611   7.688   0.045 -0.3892  0.4037  0.6437
  570MOL0     C75168  10.460   7.709   0.082 -1.2223  0.6361 -0.0350
  570MOL0     C75169  10.386   7.581   0.136  0.6218  1.0678  0.2207
  570MOL0     C75170  10.232   7.586   0.129 -0.1621 -0.5584 -0.6620
  570MOL0     C75171  10.180   7.696   0.213 -0.0779  0.7941 -0.1671
  570MOL0     C75172  10.128   7.789   0.267 -0.1860  0.0064  0.4271
  570MOL0     C75173  10.888   7.593   0.014 -0.5890 -0.2698  0.2506
  570MOL0     C75174  11.031   7.575   0.007 -0.4840 -0.2854  0.5968
  570MOL0     H75175  11.456   7.606  -0.185 -1.5379 -0.1856  0.8924
  570MOL0     H75176  11.653   7.774  -0.230 -0.6533  0.7300  0.2434
  570MOL0     H75177  11.765   7.985   0.143 -2.3356  0.8364 -0.2401
  570MOL0     H75178  11.727   8.122   0.035  0.0195 -0.0418 -1.7857
  570MOL0     H75179  11.968   8.136   0.120 -3.5942  3.0512 -0.7688
  570MOL0     H75180  11.964   8.125  -0.052 -0.4827 -1.4177 -0.9820
  570MOL0     H75181  12.006   7.877  -0.038 -3.3824  2.7172 -1.3593
  570MOL0     H75182  12.041   7.900   0.137  0.6310 -0.8938 -0.3930
  570MOL0     H75183  12.174   8.058  -0.095  2.4650 -0.7195  0.4189
  570MOL0     H75184  12.208   8.061   0.078  1.6315  0.4319 -0.8980
  570MOL0     H75185  12.233   7.813  -0.097  0.2666 -0.3791  0.4088
  570MOL0     H75186  12.275   7.833   0.071 -0.1066  0.2734  0.8910
  570MOL0     H75187  12.445   7.996   0.046 -0.7341 -0.5362  1.2833
  570MOL0     H75188  12.411   8.012  -0.132 -1.5650 -2.7183 -1.9473
  570MOL0     H75189  12.610   7.887  -0.093 -0.9764 -0.1934 -0.6630
  570MOL0     H75190  12.532   7.789   0.029 -0.5701 -0.8099 -0.6771
  570MOL0     H75191  12.410   7.790  -0.239 -0.1886  0.2037 -0.6189
  570MOL0     H75192  12.409   7.666  -0.115 -2.0001  1.9014 -0.0713
  570MOL0     H75193  12.709   7.568  -0.100 -1.2803 -1.5833  0.6519
  570MOL0     H75194  12.868   7.391  -0.220  0.2852  1.2870  0.9507
  570MOL0     H75195  12.937   7.483  -0.357  0.5278 -0.4528 -0.4921
  570MOL0     H75196  12.942   7.267  -0.414  0.5913  1.0264  2.9251
  570MOL0     H75197  12.821   7.350  -0.517  2.9864  0.7969 -0.3545
  570MOL0     H75198  12.787   7.104  -0.374 -0.6490  0.2623 -0.4748
  570MOL0     H75199  12.768   7.205  -0.243 -1.1498 -2.1409  0.1365
  570MOL0     H75200  12.611   7.256  -0.499 -2.0820  2.3369  0.5033
  570MOL0     H75201  12.554   7.314  -0.341 -2.1166 -1.4781  1.3269
  570MOL0     H75202  12.361   7.296  -0.421  1.5144 -0.7744  1.9981
  570MOL0     H75203  12.116   7.259  -0.486 -0.7928 -0.9565 -1.6812
  570MOL0     H75204  11.687   6.984  -0.484 -2.7474 -0.6828 -1.3169
  570MOL0     H75205  11.453   7.053  -0.451 -0.2166 -1.2913  0.8005
  570MOL0     H75206  11.319   7.159  -0.287  1.0432  2.0257  0.4422
  570MOL0     H75207  11.237   7.131  -0.450  0.0766  0.8584 -0.6312
  570MOL0     H75208  11.107   7.350  -0.392  1.4357  0.0439 -0.3658
  570MOL0     H75209  11.179   7.337  -0.238 -0.7736 -0.2772  0.1935
  570MOL0     H75210  11.074   7.129  -0.183 -0.7975  0.1316 -0.4951
  570MOL0     H75211  11.017   7.089  -0.340 -0.6359 -3.1659  3.5808
  570MOL0     H75212  10.927   7.339  -0.192  0.0345 -0.3784  0.0283
  570MOL0     H75213  10.848   7.270  -0.326 -1.6238 -0.2900  1.3134
  570MOL0     H75214  10.878   7.102  -0.063 -0.1295 -1.0354 -0.4067
  570MOL0     H75215  10.792   7.049  -0.202  0.6413 -1.8477  3.2055
  570MOL0     H75216  10.664   7.274  -0.180  2.0371  3.6999  1.7437
  570MOL0     H75217  10.749   7.295  -0.034  3.7002 -0.4019 -2.4129
  570MOL0     H75218  10.609   7.021  -0.054 -2.2602  0.1591 -0.5050
  570MOL0     H75219  10.654   7.124   0.089  2.4946  0.0118 -0.8865
  570MOL0     H75220  10.485   7.297   0.021  0.5314 -0.9861  2.0274
  570MOL0     H75221  10.406   7.142   0.061 -1.2922 -0.2890 -1.7262
  570MOL0     H75222  11.570   7.463  -0.432 -1.9949  0.0663  1.5261
  570MOL0     H75223  11.812   7.398  -0.429 -0.3504 -0.6103 -0.9788
  570MOL0     H75224  12.158   6.849  -0.409 -0.1128 -1.5400 -2.8030
  570MOL0     H75225  12.403   6.875  -0.404  0.2401  0.0859  0.3169
  570MOL0     H75226  11.572   7.939   0.159  1.8441 -3.4053  2.1533
  570MOL0     H75227  11.396   7.778   0.195  2.6641 -4.0293  1.0499
  570MOL0     H75228  11.075   7.456   0.320 -0.2951 -0.8986 -1.3482
  570MOL0     H75229  10.827   7.483   0.307 -2.7169 -1.1045 -1.1930
  570MOL0     H75230  10.625   7.644  -0.054 -2.7521 -0.3935  0.5969
  570MOL0     H75231  10.669   7.781   0.049  1.8860 -0.8657 -0.5496
  570MOL0     H75232  10.450   7.782   0.163 -1.2279  2.3582 -1.5176
  570MOL0     H75233  10.413   7.755  -0.006 -0.8239 -1.3978 -1.4035
  570MOL0     H75234  10.410   7.544   0.236 -1.9532 -0.2117  0.4687
  570MOL0     H75235  10.410   7.504   0.062 -3.0675  0.0069 -0.1051
  570MOL0     H75236  10.212   7.599   0.023  0.3373  1.2363 -0.5697
  570MOL0     H75237  10.187   7.491   0.161  1.1001 -2.1389 -3.2623
  570MOL0     H75238  10.079   7.873   0.312 -0.0320  0.7316 -0.7272
  570MOL0     H75239  10.843   7.638  -0.074  0.4515  0.2904 -0.0043
  570MOL0     H75240  11.084   7.594  -0.085  1.2386  0.1398  1.6247
  571MOL0     O75241   4.808  10.496  10.326  0.0497  0.1240 -0.5266
  571MOL0     C75242   4.777  10.461  10.445 -0.6349  0.0878 -0.4508
  571MOL0     O75243   4.856  10.479  10.557  0.0753 -0.3487  0.9078
  571MOL0     C75244   4.957  10.575  10.537 -0.7690 -0.0001  0.5187
  571MOL0     C75245   4.933  10.701  10.480 -0.3686 -0.1799  0.3467
  571MOL0     C75246   5.038  10.771  10.422  0.2675  0.4893 -0.0992
  571MOL0     C75247   5.166  10.726  10.442  0.4037  0.0175  0.2990
  571MOL0     O75248   5.257  10.812  10.379 -0.4865  0.5728  0.3449
  571MOL0     C75249   5.401  10.787  10.404 -0.5223  0.7622  0.3997
  571MOL0     C75250   5.446  10.847  10.538 -0.2378  0.5522 -0.8848
  571MOL0     C75251   5.592  10.824  10.596 -0.0075 -0.5646  0.5823
  571MOL0     C75252   5.616  10.681  10.640  0.1673 -0.2435 -0.1660
  571MOL0     C75253   5.756  10.685  10.693 -0.7915  0.4803  0.1667
  571MOL0     C75254   5.795  10.547  10.744 -0.8149  0.3516  0.1229
  571MOL0     C75255   5.953  10.538  10.768  1.3022  0.3253  0.2170
  571MOL0     C75256   6.005  10.574  10.911 -0.7609 -0.5300  0.1454
  571MOL0     N75257   5.970  10.712  10.937  0.6598  0.1460  0.6975
  571MOL0     C75258   6.023  10.825  10.873 -0.3133 -1.0386  0.2674
  571MOL0     C75259   6.003  10.937  10.955  0.8022  0.3929 -0.3306
  571MOL0     C75260   6.061  11.074  10.947  1.2248  0.1852  0.1024
  571MOL0     C75261   5.979  11.195  11.000 -0.0598  0.0310  0.0340
  571MOL0     C75262   6.067  11.322  11.032 -0.2064 -0.8108 -0.2704
  571MOL0     C75263   6.002  11.460  11.016  0.9018 -0.6760 -0.3815
  571MOL0     O75264   5.880  11.444  11.094 -0.4316 -0.3957  0.3035
  571MOL0     C75265   5.797  11.551  11.100  0.7525  0.2572  0.1180
  571MOL0     C75266   5.813  11.641  11.206  0.0834  0.7971  0.2527
  571MOL0     C75267   5.739  11.751  11.222 -0.6938 -0.4444 -1.1521
  571MOL0     C75268   5.633  11.778  11.134 -0.9874  0.4251  0.2821
  571MOL0     C75269   5.544  11.896  11.143  0.3149 -0.1843  0.8731
  571MOL0     O75270   5.430  11.905  11.066  0.4344 -0.0021  0.0423
  571MOL0     C75271   5.341  12.004  11.095  0.2864 -0.0605 -0.9256
  571MOL0     C75272   5.262  12.046  10.990 -0.3175 -0.0403  0.1142
  571MOL0     C75273   5.161  12.141  11.001 -0.2255 -0.1948 -0.5204
  571MOL0     C75274   5.146  12.207  11.129  0.5804  0.3103  0.2541
  571MOL0     O75275   5.051  12.301  11.150 -0.4191 -0.0433  0.2793
  571MOL0     C75276   4.934  12.288  11.064  0.4081  0.0903  0.3119
  571MOL0     C75277   4.841  12.178  11.122 -0.2166  0.4565 -1.2405
  571MOL0     C75278   4.772  12.215  11.257  0.7146  0.0712 -0.2122
  571MOL0     C75279   4.665  12.326  11.258  0.5834  0.9436  0.0979
  571MOL0     C75280   4.540  12.278  11.178  0.5924  0.8021  0.0804
  571MOL0     C75281   4.431  12.394  11.172  1.1090  0.4391  0.4076
  571MOL0     C75282   4.391  12.468  11.298 -0.0530 -0.6783 -0.4711
  571MOL0     C75283   4.286  12.578  11.272 -0.7007  1.1679  0.0348
  571MOL0    Cl75284   4.131  12.495  11.274  0.2640  0.3098 -0.0396
  571MOL0     C75285   5.228  12.175  11.230  0.0318 -0.0472  0.0743
  571MOL0     C75286   5.318  12.070  11.214  0.5252 -0.3946 -0.2336
  571MOL0     O75287   5.591  11.980  11.217 -0.6457  0.0096 -1.0364
  571MOL0     C75288   5.612  11.684  11.027 -0.1461  0.3144 -0.3737
  571MOL0     C75289   5.700  11.576  11.004 -0.0654  0.1274 -0.7625
  571MOL0     N75290   5.931  10.884  11.070 -0.6493 -0.2477  0.6327
  571MOL0     N75291   5.921  10.755  11.058  0.7421 -0.0704 -0.1608
  571MOL0     C75292   5.190  10.610  10.524 -0.4641 -0.2908 -1.8127
  571MOL0     C75293   5.089  10.532  10.569  0.3510  0.2219  1.0113
  571MOL0     C75294   4.647  10.388  10.473 -0.9896 -0.4250 -0.7267
  571MOL0     C75295   4.542  10.403  10.390  0.6980 -0.6344  0.2966
  571MOL0     C75296   4.418  10.351  10.416  0.5668 -0.2090 -0.0737
  571MOL0     C75297   4.387  10.290  10.531 -0.3297 -0.2859  0.5461
  571MOL0     O75298   4.259  10.237  10.544 -0.7879  0.0402  0.0389
  571MOL0     C75299   4.209  10.229  10.679  0.5953  0.4791 -0.0155
  571MOL0     C75300   4.058  10.242  10.677 -0.9192  0.0393  0.3301
  571MOL0     C75301   3.997  10.120  10.598 -0.7911 -0.5580 -1.0770
  571MOL0     C75302   3.880  10.161  10.513  0.7888 -0.0256  0.2806
  571MOL0     C75303   3.768  10.209  10.595  0.8627  0.2539  0.4857
  571MOL0     C75304   3.663  10.232  10.647  0.4429  0.7019  1.0820
  571MOL0     C75305   4.488  10.274  10.626 -0.3919 -0.2350  0.5069
  571MOL0     C75306   4.623  10.316  10.594 -0.0298  0.2569 -0.3949
  571MOL0     H75307   4.830  10.732  10.465  0.3730  1.5027 -1.8413
  571MOL0     H75308   5.011  10.871  10.390 -1.4744  0.9544  2.5268
  571MOL0     H75309   5.453  10.840  10.323 -2.4150  4.0608  1.1873
  571MOL0     H75310   5.433  10.683  10.392 -0.3351  1.0467 -2.4153
  571MOL0     H75311   5.376  10.800  10.608  0.6092 -0.1009 -0.4651
  571MOL0     H75312   5.427  10.954  10.550  3.2657  1.3851 -1.7591
  571MOL0     H75313   5.602  10.894  10.679  0.5437  1.5651 -1.1842
  571MOL0     H75314   5.670  10.843  10.521  1.1409 -0.5469  1.7518
  571MOL0     H75315   5.539  10.645  10.709  0.2639  0.8978  0.5630
  571MOL0     H75316   5.608  10.603  10.563  4.0804 -2.0797  1.0576
  571MOL0     H75317   5.771  10.757  10.774  0.1864  0.8158 -0.2986
  571MOL0     H75318   5.826  10.704  10.611  1.0153 -2.1618  0.9682
  571MOL0     H75319   5.771  10.475  10.664  0.6662  0.3220 -0.3318
  571MOL0     H75320   5.753  10.509  10.837  3.0801 -4.3372  0.4204
  571MOL0     H75321   5.986  10.436  10.746 -1.3291 -0.4932 -0.3027
  571MOL0     H75322   5.997  10.603  10.692 -0.6003  1.6893  0.2078
  571MOL0     H75323   6.114  10.572  10.922 -0.5129  1.7583 -1.2808
  571MOL0     H75324   5.978  10.508  10.994  4.2905 -2.2217  0.7840
  571MOL0     H75325   6.074  10.829  10.777 -0.1347  3.2311  0.3367
  571MOL0     H75326   6.078  11.089  10.840 -1.2712 -3.9915 -1.1334
  571MOL0     H75327   6.153  11.082  11.005 -0.8451  0.4315  3.6646
  571MOL0     H75328   5.928  11.151  11.086 -0.9205  1.2422  0.1600
  571MOL0     H75329   5.912  11.216  10.916  1.7080 -0.5551 -1.6065
  571MOL0     H75330   6.108  11.313  11.133 -1.6069  0.9247  0.5356
  571MOL0     H75331   6.150  11.328  10.962 -0.8588  1.6985 -0.9657
  571MOL0     H75332   5.990  11.485  10.910  0.1639  0.0773 -0.1301
  571MOL0     H75333   6.072  11.525  11.068 -1.0387  1.8217 -0.6834
  571MOL0     H75334   5.897  11.627  11.273 -1.3951  2.3023  2.5491
  571MOL0     H75335   5.753  11.820  11.304  0.7282 -1.0014 -0.8994
  571MOL0     H75336   5.272  11.996  10.894  0.4162 -0.4150  0.3729
  571MOL0     H75337   5.106  12.154  10.908 -0.0703  1.0693 -0.4545
  571MOL0     H75338   4.961  12.285  10.958  2.5425  0.6435  0.7936
  571MOL0     H75339   4.882  12.385  11.063 -0.0396 -0.1367 -1.6336
  571MOL0     H75340   4.905  12.091  11.139 -0.9188 -0.3615 -2.6346
  571MOL0     H75341   4.769  12.138  11.049  0.4080  0.1789 -1.7136
  571MOL0     H75342   4.850  12.246  11.327  1.3722 -1.3915 -0.2702
  571MOL0     H75343   4.732  12.129  11.311  1.5403  2.3562  4.5796
  571MOL0     H75344   4.648  12.351  11.363  1.6910 -1.1301  0.8191
  571MOL0     H75345   4.707  12.418  11.216 -0.1823 -0.2137 -3.6139
  571MOL0     H75346   4.506  12.183  11.221 -2.4769  1.9202  0.4103
  571MOL0     H75347   4.554  12.259  11.071 -0.8999  1.7769 -0.3203
  571MOL0     H75348   4.340  12.372  11.116  2.9305  2.6275 -3.9010
  571MOL0     H75349   4.483  12.469  11.112  4.0762 -0.2889  1.8675
  571MOL0     H75350   4.339  12.396  11.362 -0.8061  0.1500 -0.1404
  571MOL0     H75351   4.471  12.524  11.347  1.0018 -3.1497  0.8486
  571MOL0     H75352   4.302  12.632  11.178  3.2668 -2.2912 -1.6019
  571MOL0     H75353   4.301  12.644  11.357  3.7823 -2.3096  2.3609
  571MOL0     H75354   5.239  12.227  11.325  1.4557 -3.5445  2.0088
  571MOL0     H75355   5.381  12.040  11.297 -2.9511 -2.4551  1.8969
  571MOL0     H75356   5.523  11.690  10.966 -0.7025 -1.9159  0.1029
  571MOL0     H75357   5.684  11.509  10.920 -1.1369  0.6261 -0.9776
  571MOL0     H75358   5.293  10.576  10.514 -0.0480  0.7229 -1.1683
  571MOL0     H75359   5.111  10.433  10.608 -1.2780 -0.8626 -0.6257
  571MOL0     H75360   4.563  10.463  10.303  1.9980  0.9830  1.6430
  571MOL0     H75361   4.343  10.363  10.338  3.5633  0.9007 -2.9961
  571MOL0     H75362   4.237  10.319  10.734  1.1530  0.7260 -0.6797
  571MOL0     H75363   4.237  10.132  10.721 -0.1037  0.5103  0.5374
  571MOL0     H75364   4.035  10.253  10.783  1.0315 -1.8986  1.0379
  571MOL0     H75365   4.039  10.333  10.620 -0.8296 -1.3429 -2.0442
  571MOL0     H75366   3.958  10.054  10.677 -1.3087  1.5225  0.5226
  571MOL0     H75367   4.075  10.066  10.545 -2.1967 -3.3794 -0.5108
  571MOL0     H75368   3.909  10.221  10.426 -1.8001 -0.8425 -1.2641
  571MOL0     H75369   3.853  10.066  10.465  1.7581  1.0101 -2.5038
  571MOL0     H75370   3.560  10.247  10.675  0.4851  1.3664  0.9152
  571MOL0     H75371   4.475  10.220  10.719  3.0475  0.5159  1.5457
  571MOL0     H75372   4.699  10.283  10.664  0.5603 -0.0490 -1.1787
  572MOL0     O75373   3.875   2.606   3.793 -0.1687  0.4986  0.6737
  572MOL0     C75374   3.783   2.566   3.872 -0.3591 -0.7360  0.0123
  572MOL0     O75375   3.804   2.528   4.006 -0.2341  0.5856 -0.5744
  572MOL0     C75376   3.931   2.524   4.067 -1.4031 -0.2776 -0.0619
  572MOL0     C75377   3.938   2.563   4.196  0.2602  0.3660 -0.5631
  572MOL0     C75378   4.065   2.569   4.265 -0.0499  0.2426 -0.7410
  572MOL0     C75379   4.182   2.522   4.203  0.2446 -0.1994  0.2948
  572MOL0     O75380   4.307   2.525   4.255 -0.5165 -0.3445 -0.2616
  572MOL0     C75381   4.352   2.399   4.308 -0.1823 -0.5816 -0.7390
  572MOL0     C75382   4.453   2.324   4.220  0.7229  0.7995 -0.0952
  572MOL0     C75383   4.568   2.414   4.168  0.5885  0.1164 -0.2824
  572MOL0     C75384   4.687   2.329   4.121  1.0790 -0.6497  0.1847
  572MOL0     C75385   4.655   2.210   4.019 -0.2123 -0.7195 -0.1758
  572MOL0     C75386   4.783   2.139   3.986  0.2968  0.6632  0.0545
  572MOL0     C75387   4.752   2.026   3.884 -0.4432 -0.3900  0.3255
  572MOL0     C75388   4.877   1.963   3.816 -0.0594  0.8501  0.7980
  572MOL0     N75389   4.949   1.876   3.912  0.3920 -0.8117 -0.0797
  572MOL0     C75390   5.064   1.899   3.983  0.1171  0.0980 -0.1989
  572MOL0     C75391   5.074   1.792   4.068  0.4083  0.1318  0.4089
  572MOL0     C75392   5.185   1.773   4.158 -0.5125  0.1549  0.7716
  572MOL0     C75393   5.310   1.745   4.085  0.5206 -0.2131  1.0538
  572MOL0     C75394   5.398   1.648   4.155 -0.2197 -1.1500  0.2552
  572MOL0     C75395   5.546   1.637   4.119 -0.7449  0.1483  0.2127
  572MOL0     O75396   5.566   1.627   3.978 -0.4461  0.6095  0.4172
  572MOL0     C75397   5.695   1.592   3.932  0.1395  0.0661 -0.2481
  572MOL0     C75398   5.803   1.583   4.023  0.7532 -0.4498 -0.1869
  572MOL0     C75399   5.935   1.552   3.988 -0.2101  0.3755  0.1592
  572MOL0     C75400   5.966   1.544   3.853  0.5917  0.8239  0.1763
  572MOL0     C75401   6.098   1.522   3.803 -0.1685  0.7053  0.4126
  572MOL0     O75402   6.113   1.529   3.671 -0.3837 -0.1783  0.6996
  572MOL0     C75403   6.224   1.588   3.607  0.1585  0.1234  0.1777
  572MOL0     C75404   6.343   1.631   3.676 -0.8710 -0.7208 -0.4395
  572MOL0     C75405   6.462   1.652   3.601  0.8335  0.9757  0.1937
  572MOL0     C75406   6.458   1.651   3.463  0.5566 -0.8271  0.2222
  572MOL0     O75407   6.572   1.698   3.401 -0.1147  0.3766  0.0410
  572MOL0     C75408   6.602   1.670   3.261 -0.3407  0.3518 -0.0878
  572MOL0     C75409   6.741   1.718   3.219  0.5490  0.4858 -0.4501
  572MOL0     C75410   6.852   1.637   3.296  0.7221  0.0129  0.0115
  572MOL0     C75411   6.998   1.678   3.251  0.2051  0.1213 -0.5904
  572MOL0     C75412   7.096   1.570   3.291 -0.2254  0.7012 -0.0945
  572MOL0     C75413   7.236   1.633   3.268 -1.0360  0.1326 -0.4838
  572MOL0     C75414   7.338   1.536   3.191 -0.7668  0.3399 -0.5760
  572MOL0     C75415   7.458   1.620   3.173 -0.1081 -0.4210 -0.0671
  572MOL0    Cl75416   7.566   1.533   3.054 -0.2306  0.1645 -0.0838
  572MOL0     C75417   6.335   1.636   3.396 -0.4441  0.3775  0.4340
  572MOL0     C75418   6.213   1.603   3.464  0.1754  0.9208  0.4396
  572MOL0     O75419   6.188   1.509   3.885 -0.9243 -0.1855  0.3563
  572MOL0     C75420   5.859   1.548   3.766 -0.3760 -0.9697 -0.2201
  572MOL0     C75421   5.726   1.577   3.800  0.1394 -0.3743  0.0921
  572MOL0     N75422   4.962   1.714   4.066  0.3205 -0.1236  0.4908
  572MOL0     N75423   4.889   1.760   3.970 -0.4255 -0.4562 -0.1285
  572MOL0     C75424   4.168   2.478   4.066 -0.0548 -0.2679  0.3193
  572MOL0     C75425   4.045   2.477   4.007  0.0318 -0.3680  0.3943
  572MOL0     C75426   3.646   2.564   3.815 -0.3395 -0.7342 -0.2359
  572MOL0     C75427   3.532   2.534   3.904  0.2483 -1.3244  0.2314
  572MOL0     C75428   3.402   2.531   3.840  0.1655  0.0836 -0.6585
  572MOL0     C75429   3.383   2.530   3.705  0.3240  0.6398  0.1759
  572MOL0     O75430   3.263   2.516   3.658  1.0491 -0.1478 -0.2724
  572MOL0     C75431   3.217   2.616   3.574  0.2961 -0.2492  0.8599
  572MOL0     C75432   3.062   2.620   3.602 -0.7023  0.0390 -0.1193
  572MOL0     C75433   3.022   2.707   3.722  1.0017  0.0097  0.1785
  572MOL0     C75434   3.053   2.857   3.698  0.5673  0.7313 -0.3700
  572MOL0     C75435   2.939   2.915   3.621  0.1116  1.4537 -0.6390
  572MOL0     C75436   2.847   2.963   3.561 -0.7036  0.8146  0.2672
  572MOL0     C75437   3.491   2.536   3.627  0.1452 -0.3878 -0.9925
  572MOL0     C75438   3.620   2.566   3.675 -0.0790  0.0718 -0.3250
  572MOL0     H75439   3.857   2.620   4.241 -0.0245  1.0637 -1.9143
  572MOL0     H75440   4.063   2.609   4.366 -1.7781  1.2617 -1.1410
  572MOL0     H75441   4.266   2.336   4.332 -0.3537 -0.1837 -0.2933
  572MOL0     H75442   4.412   2.417   4.397 -1.9746  0.1222  0.3872
  572MOL0     H75443   4.404   2.270   4.139  5.0372 -2.1561 -1.0513
  572MOL0     H75444   4.484   2.235   4.275 -0.8402  1.4379  1.9666
  572MOL0     H75445   4.607   2.459   4.259 -1.7174 -0.8434  1.2896
  572MOL0     H75446   4.535   2.485   4.091  0.8227  1.0467  0.4627
  572MOL0     H75447   4.756   2.393   4.064  1.2049 -0.7920  0.1775
  572MOL0     H75448   4.748   2.302   4.208  3.7186  1.8583 -0.7031
  572MOL0     H75449   4.619   2.254   3.926  0.0173 -1.3626 -0.5792
  572MOL0     H75450   4.572   2.150   4.058 -0.9067  1.4676  1.9104
  572MOL0     H75451   4.823   2.094   4.078  0.2382  3.5594  1.6264
  572MOL0     H75452   4.852   2.213   3.944 -0.5840  2.2260  1.2404
  572MOL0     H75453   4.698   1.945   3.935 -0.7599  0.4792  1.4141
  572MOL0     H75454   4.691   2.065   3.802 -2.1788 -0.4842  1.5295
  572MOL0     H75455   4.946   2.036   3.771 -0.2057  1.2731  1.2444
  572MOL0     H75456   4.834   1.889   3.748  3.9248 -2.7867  1.7872
  572MOL0     H75457   5.140   1.974   3.963 -0.9766  1.1717 -0.4734
  572MOL0     H75458   5.169   1.694   4.232  0.7232 -0.6230  0.2444
  572MOL0     H75459   5.199   1.865   4.216 -0.8203  1.0937 -0.5870
  572MOL0     H75460   5.366   1.838   4.069  0.3042  0.2430  2.7182
  572MOL0     H75461   5.278   1.705   3.988  2.1379  4.3110 -1.6947
  572MOL0     H75462   5.391   1.685   4.258 -1.0962  1.8474 -0.7628
  572MOL0     H75463   5.354   1.549   4.161  0.9378 -1.6262  1.1871
  572MOL0     H75464   5.587   1.549   4.169 -1.0079  0.4430  0.9507
  572MOL0     H75465   5.594   1.730   4.150 -0.7607 -0.3911  1.9220
  572MOL0     H75466   5.778   1.596   4.128 -0.6617  0.8348 -0.6285
  572MOL0     H75467   6.007   1.554   4.069 -0.6315  2.8880  0.5664
  572MOL0     H75468   6.366   1.634   3.782  1.7630 -0.3841 -0.9500
  572MOL0     H75469   6.553   1.684   3.651 -1.5507  5.4393  2.3303
  572MOL0     H75470   6.527   1.716   3.196 -1.2859 -2.3783 -1.0581
  572MOL0     H75471   6.594   1.563   3.240  2.6292 -0.8040  3.4925
  572MOL0     H75472   6.742   1.825   3.239  1.5950  0.4307 -0.1487
  572MOL0     H75473   6.746   1.699   3.111 -1.6589 -0.4962 -0.4419
  572MOL0     H75474   6.844   1.532   3.268  0.6079 -1.1957  3.9011
  572MOL0     H75475   6.849   1.643   3.406 -1.0106  0.4306 -0.0331
  572MOL0     H75476   6.994   1.694   3.143  0.5637 -2.4906 -1.0355
  572MOL0     H75477   7.012   1.771   3.308 -0.4767 -0.7293  1.0331
  572MOL0     H75478   7.078   1.487   3.221 -3.9488 -0.7883  2.3212
  572MOL0     H75479   7.088   1.527   3.391 -1.0418 -0.1288 -0.4980
  572MOL0     H75480   7.281   1.658   3.364  3.7227  1.1767 -2.6756
  572MOL0     H75481   7.220   1.726   3.213 -0.7962  0.7054  0.3940
  572MOL0     H75482   7.370   1.445   3.243 -0.2317 -0.3480 -2.0598
  572MOL0     H75483   7.300   1.503   3.095 -1.2194 -0.2827 -0.1886
  572MOL0     H75484   7.513   1.633   3.267  0.5292 -0.1586 -0.4644
  572MOL0     H75485   7.425   1.717   3.134  0.5055 -0.4564 -0.7150
  572MOL0     H75486   6.326   1.664   3.292 -1.4105  3.3431  1.2084
  572MOL0     H75487   6.127   1.565   3.409  0.6632  0.3248  0.0722
  572MOL0     H75488   5.870   1.535   3.659 -0.8523  1.4351 -0.6089
  572MOL0     H75489   5.634   1.555   3.747 -1.0657 -0.7831  2.2439
  572MOL0     H75490   4.255   2.444   4.012 -0.1545  1.8219 -1.2951
  572MOL0     H75491   4.043   2.437   3.906 -3.4073  0.1330  0.1445
  572MOL0     H75492   3.561   2.527   4.008  3.3265 -3.1813 -0.6073
  572MOL0     H75493   3.320   2.523   3.912  1.7720  0.8074  1.3552
  572MOL0     H75494   3.233   2.581   3.472 -1.1724  1.1966  0.0899
  572MOL0     H75495   3.269   2.711   3.585  2.9765 -1.2943 -1.5776
  572MOL0     H75496   3.005   2.660   3.519  0.3501  0.9407 -0.4230
  572MOL0     H75497   3.035   2.516   3.624  1.0399 -0.6782 -1.1951
  572MOL0     H75498   3.087   2.675   3.804 -0.3568 -1.5772  0.6923
  572MOL0     H75499   2.919   2.681   3.749  1.4154 -2.0579 -0.0569
  572MOL0     H75500   3.048   2.923   3.785 -0.5799  2.3172 -1.5697
  572MOL0     H75501   3.142   2.876   3.637 -0.3842 -1.1097 -2.4768
  572MOL0     H75502   2.773   3.016   3.504 -1.7796 -0.3516  0.5220
  572MOL0     H75503   3.467   2.525   3.522 -1.5165 -0.9360 -0.5805
  572MOL0     H75504   3.701   2.566   3.602 -1.4132  0.2075 -1.8496
  573MOL0     O75505   0.607   1.604  10.467 -0.3945 -1.1301 -0.1064
  573MOL0     C75506   0.679   1.551  10.389 -0.3903 -0.0724 -0.5386
  573MOL0     O75507   0.651   1.474  10.281 -0.5548 -0.4845  0.0116
  573MOL0     C75508   0.521   1.468  10.252  0.5821  0.1801 -0.2856
  573MOL0     C75509   0.476   1.560  10.159 -0.0378 -0.1001  0.2329
  573MOL0     C75510   0.340   1.555  10.123 -0.8784  0.1646  0.4861
  573MOL0     C75511   0.246   1.467  10.183  0.1870 -0.5844  0.5523
  573MOL0     O75512   0.111   1.453  10.161  0.3906 -0.0778 -0.1363
  573MOL0     C75513   0.063   1.540  10.058  0.5350 -0.7739 -0.0743
  573MOL0     C75514   0.059   1.688  10.100 -0.6785  0.0011 -0.0117
  573MOL0     C75515   0.044   1.792   9.989  0.5008 -0.4751  0.5534
  573MOL0     C75516   0.139   1.784   9.875  0.9286 -0.6561 -0.0089
  573MOL0     C75517   0.142   1.906   9.782  0.7578 -0.3174  0.5055
  573MOL0     C75518   0.277   1.901   9.711 -0.9944  0.1897  0.2276
  573MOL0     C75519   0.292   1.999   9.598 -0.5430 -0.3402 -0.8011
  573MOL0     C75520   0.367   1.944   9.474  0.9459 -0.1589 -0.0316
  573MOL0     N75521   0.263   1.869   9.391 -0.1664  0.0098  1.1441
  573MOL0     C75522   0.228   1.743   9.429  0.8340 -0.3206  0.4453
  573MOL0     C75523   0.119   1.721   9.348  0.5661  0.7550 -2.0729
  573MOL0     C75524   0.031   1.598   9.342 -0.2081 -0.3125  0.4101
  573MOL0     C75525  -0.115   1.632   9.363 -0.4787  0.0628 -0.0446
  573MOL0     C75526  -0.189   1.502   9.383  0.0635  0.7445 -0.5339
  573MOL0     C75527  -0.325   1.527   9.455  0.0304 -0.7808  0.0761
  573MOL0     O75528  -0.432   1.483   9.366 -0.2500  0.2589 -0.2779
  573MOL0     C75529  -0.565   1.502   9.410  0.8269 -0.3424  0.4586
  573MOL0     C75530  -0.648   1.585   9.322 -0.8305  0.2280 -1.1748
  573MOL0     C75531  -0.783   1.588   9.349  0.6866  0.4727  0.4044
  573MOL0     C75532  -0.843   1.529   9.461 -0.9396  0.6835  0.8278
  573MOL0     C75533  -0.987   1.546   9.489  0.6342 -1.0590 -1.4714
  573MOL0     O75534  -1.064   1.619   9.404 -0.8154 -0.0557 -0.5837
  573MOL0     C75535  -1.202   1.638   9.409 -0.9431 -0.1152 -0.6510
  573MOL0     C75536  -1.242   1.767   9.364 -0.6309 -0.0164 -0.7712
  573MOL0     C75537  -1.373   1.796   9.350 -0.7671 -0.6901 -1.3698
  573MOL0     C75538  -1.470   1.705   9.389  0.0103  0.0502 -0.1932
  573MOL0     O75539  -1.603   1.735   9.401  0.5462 -0.5389  0.4195
  573MOL0     C75540  -1.652   1.871   9.394  0.2874  0.1082  0.5202
  573MOL0     C75541  -1.805   1.867   9.430 -0.0950 -0.5448 -0.3278
  573MOL0     C75542  -1.850   1.953   9.554 -0.4508  0.1837  0.9822
  573MOL0     C75543  -1.805   1.880   9.686  0.1069 -0.0218 -0.2344
  573MOL0     C75544  -1.826   1.963   9.812  0.9469  0.1487  0.1841
  573MOL0     C75545  -1.973   1.989   9.854  0.4604 -1.2778 -0.1458
  573MOL0     C75546  -1.975   2.079   9.982  0.1768  0.5644 -0.8069
  573MOL0     C75547  -2.099   2.055  10.062  0.6710 -0.5298  0.1543
  573MOL0    Cl75548  -2.237   2.110   9.973 -0.4682 -0.2393 -0.6829
  573MOL0     C75549  -1.437   1.574   9.427 -0.2815  0.6484 -0.9415
  573MOL0     C75550  -1.302   1.539   9.441 -0.1505  0.6560  0.0884
  573MOL0     O75551  -1.033   1.487   9.594 -0.6480  0.3917  0.1808
  573MOL0     C75552  -0.754   1.448   9.541  0.7678  0.1842 -0.0512
  573MOL0     C75553  -0.618   1.440   9.518  0.7284  0.6982 -0.4736
  573MOL0     N75554   0.093   1.831   9.275  0.4431 -0.5766  0.4055
  573MOL0     N75555   0.188   1.914   9.291  0.0942  0.1999  0.0585
  573MOL0     C75556   0.298   1.375  10.282 -0.0178  0.1536 -0.6345
  573MOL0     C75557   0.433   1.378  10.320  0.5716  0.1628  0.2605
  573MOL0     C75558   0.820   1.573  10.424  0.2708 -0.1015 -0.1145
  573MOL0     C75559   0.925   1.592  10.330 -0.6996 -0.2253 -0.0922
  573MOL0     C75560   1.056   1.630  10.368 -0.2887 -0.2600 -1.2116
  573MOL0     C75561   1.080   1.650  10.505 -0.0077 -0.7655  0.9656
  573MOL0     O75562   1.204   1.676  10.546  0.4074 -0.2538  0.3645
  573MOL0     C75563   1.250   1.813  10.534  0.1985 -0.4217  1.0125
  573MOL0     C75564   1.367   1.821  10.440 -1.1150  0.7780  0.1472
  573MOL0     C75565   1.504   1.804  10.519 -0.7897 -0.4725 -1.3494
  573MOL0     C75566   1.636   1.817  10.444  1.3088  0.5956  0.6216
  573MOL0     C75567   1.657   1.732  10.331 -0.3795 -0.0129  0.6861
  573MOL0     C75568   1.673   1.655  10.239 -1.5109 -0.6886  0.7099
  573MOL0     C75569   0.983   1.628  10.603 -0.8649  0.1723  0.1162
  573MOL0     C75570   0.851   1.594  10.561 -0.1983 -0.3351 -0.2836
  573MOL0     H75571   0.542   1.640  10.126  0.4888  1.0009  3.5693
  573MOL0     H75572   0.318   1.613  10.034 -0.7529  0.4788  0.6607
  573MOL0     H75573  -0.042   1.516  10.043  0.2552  0.8302 -0.8183
  573MOL0     H75574   0.111   1.516   9.963 -1.4334 -0.6281 -1.1384
  573MOL0     H75575   0.146   1.703  10.166 -0.1888 -2.6963  0.0776
  573MOL0     H75576  -0.029   1.688  10.165 -1.7826 -1.8510 -1.3791
  573MOL0     H75577   0.043   1.893  10.031 -3.4325 -0.2282  0.2198
  573MOL0     H75578  -0.058   1.777   9.951  0.6942 -1.6741  0.4581
  573MOL0     H75579   0.237   1.764   9.919  1.2311  1.1235  0.2101
  573MOL0     H75580   0.116   1.690   9.826  1.8936 -1.0772  0.3227
  573MOL0     H75581   0.141   2.000   9.838 -1.9515  1.7454 -2.6475
  573MOL0     H75582   0.062   1.917   9.709  0.6629  0.4084  0.7136
  573MOL0     H75583   0.302   1.798   9.686  3.1714  0.0456  3.8150
  573MOL0     H75584   0.359   1.928   9.779  2.6254 -0.3699 -3.4964
  573MOL0     H75585   0.193   2.036   9.570 -1.3228  0.3972  2.4924
  573MOL0     H75586   0.344   2.090   9.631 -2.0027 -0.1921  1.3710
  573MOL0     H75587   0.461   1.893   9.498 -0.1807 -1.5524  1.6223
  573MOL0     H75588   0.396   2.026   9.407 -1.1414  0.7063  0.0599
  573MOL0     H75589   0.267   1.673   9.501 -2.8139 -1.3110  1.6936
  573MOL0     H75590   0.060   1.532   9.424 -0.1821  0.1184  0.7525
  573MOL0     H75591   0.053   1.537   9.254 -1.4382  0.6975 -0.6443
  573MOL0     H75592  -0.149   1.700   9.284  0.3694  2.3764  1.4510
  573MOL0     H75593  -0.120   1.689   9.456 -2.8054 -0.5001  0.2321
  573MOL0     H75594  -0.210   1.443   9.293 -1.4795 -4.0225  2.5397
  573MOL0     H75595  -0.136   1.429   9.444 -2.4432 -1.7531 -1.1361
  573MOL0     H75596  -0.338   1.630   9.490  0.1316 -0.0717 -1.8157
  573MOL0     H75597  -0.319   1.464   9.544 -0.6989  1.8195  2.0789
  573MOL0     H75598  -0.602   1.640   9.241  0.2353 -1.6038 -1.8866
  573MOL0     H75599  -0.842   1.657   9.289  0.6905 -0.1741 -0.3660
  573MOL0     H75600  -1.163   1.834   9.330  3.0522 -2.6021  1.8334
  573MOL0     H75601  -1.397   1.895   9.312 -2.1191 -0.4167  0.1131
  573MOL0     H75602  -1.633   1.903   9.290  0.3439 -2.2048 -0.2336
  573MOL0     H75603  -1.596   1.944   9.453  0.2604  2.2575 -1.9267
  573MOL0     H75604  -1.838   1.763   9.440  0.8803 -0.7124  1.5228
  573MOL0     H75605  -1.858   1.920   9.350  1.9584  3.3678  0.6531
  573MOL0     H75606  -1.959   1.962   9.554 -0.3978  1.0013  0.1130
  573MOL0     H75607  -1.802   2.052   9.555 -0.3061  0.1304 -0.1106
  573MOL0     H75608  -1.864   1.788   9.693  0.5021 -0.1693  2.0105
  573MOL0     H75609  -1.698   1.856   9.683  0.3795  0.5644  2.1988
  573MOL0     H75610  -1.775   2.060   9.806 -2.8052  2.2751 -0.3806
  573MOL0     H75611  -1.784   1.909   9.898 -1.4462 -1.4427  0.4530
  573MOL0     H75612  -2.017   1.892   9.877  0.3968 -1.0681  0.6606
  573MOL0     H75613  -2.019   2.045   9.773 -0.2129 -0.6029  0.6802
  573MOL0     H75614  -1.897   2.046  10.051  0.2268  2.8935  0.3542
  573MOL0     H75615  -1.961   2.185   9.958  1.4754  0.7768  0.7430
  573MOL0     H75616  -2.096   2.101  10.161 -0.5109 -0.3178  0.0983
  573MOL0     H75617  -2.119   1.949  10.080  0.8877 -0.6383 -0.2263
  573MOL0     H75618  -1.498   1.489   9.454 -0.3995  2.2366  5.2176
  573MOL0     H75619  -1.274   1.436   9.460 -1.8068  0.2834  0.6533
  573MOL0     H75620  -0.791   1.381   9.618 -2.4344 -1.8944 -3.0726
  573MOL0     H75621  -0.552   1.363   9.557  2.3559  1.1090 -2.2633
  573MOL0     H75622   0.224   1.302  10.313 -1.4206  1.5245 -0.6126
  573MOL0     H75623   0.468   1.300  10.387  1.4933  1.0169  0.8150
  573MOL0     H75624   0.922   1.579  10.222 -0.3885  2.6328 -0.5234
  573MOL0     H75625   1.135   1.630  10.293  0.0389 -1.5120 -0.8940
  573MOL0     H75626   1.288   1.853  10.628  2.8196 -0.7029  0.1582
  573MOL0     H75627   1.168   1.877  10.501  1.2731  0.1005 -0.7828
  573MOL0     H75628   1.352   1.735  10.374  0.6752 -0.5483  1.3603
  573MOL0     H75629   1.363   1.920  10.393 -0.8133 -0.0116 -1.6363
  573MOL0     H75630   1.499   1.705  10.565  2.1542  0.4272  1.2333
  573MOL0     H75631   1.508   1.882  10.595  1.7958 -0.9837 -0.8759
  573MOL0     H75632   1.643   1.922  10.412 -1.2699  0.6983  0.2266
  573MOL0     H75633   1.712   1.800  10.521 -0.9651  2.4517  3.5037
  573MOL0     H75634   1.699   1.610  10.146 -1.2954  0.4129  0.2196
  573MOL0     H75635   1.015   1.629  10.706  0.5930  5.0325 -0.1045
  573MOL0     H75636   0.773   1.587  10.637  0.7612  2.2867  1.0425
  574MOL0     O75637   7.606   1.375   0.584 -0.6470  0.0734  0.1124
  574MOL0     C75638   7.663   1.265   0.560  0.2527  0.4896  0.8305
  574MOL0     O75639   7.635   1.146   0.616  0.0189 -0.0237  0.5069
  574MOL0     C75640   7.566   1.158   0.738  0.7961  0.3065  0.9506
  574MOL0     C75641   7.428   1.161   0.742 -1.1083 -0.0073  0.5123
  574MOL0     C75642   7.368   1.180   0.867  0.4316 -0.2359 -0.1703
  574MOL0     C75643   7.442   1.194   0.985 -0.4149  0.4226 -1.7956
  574MOL0     O75644   7.378   1.243   1.097 -0.0986 -0.2906 -0.3962
  574MOL0     C75645   7.423   1.357   1.169  0.1375  0.0880  0.1195
  574MOL0     C75646   7.411   1.489   1.083 -0.1481 -0.3889  0.5249
  574MOL0     C75647   7.266   1.537   1.057 -0.7318  0.3276  0.0971
  574MOL0     C75648   7.275   1.638   0.946  0.4371 -0.7697 -0.3172
  574MOL0     C75649   7.144   1.658   0.871  0.1658 -0.1726  0.2563
  574MOL0     C75650   7.027   1.725   0.947 -0.3574  0.2805 -0.5363
  574MOL0     C75651   6.926   1.758   0.840  0.4200 -0.0853  0.0341
  574MOL0     C75652   6.814   1.829   0.912  0.8418 -0.1834  0.5205
  574MOL0     N75653   6.842   1.955   0.987 -0.1278 -0.0497 -0.0432
  574MOL0     C75654   6.929   2.050   0.955 -0.6998 -0.5321  0.2782
  574MOL0     C75655   6.944   2.138   1.053 -0.6819  0.5387 -0.1084
  574MOL0     C75656   7.048   2.241   1.065 -0.2713  0.3079 -0.4016
  574MOL0     C75657   7.140   2.187   1.177 -0.0233 -0.7644 -0.1934
  574MOL0     C75658   7.249   2.283   1.226 -0.2220 -0.7499 -0.2248
  574MOL0     C75659   7.347   2.316   1.113  0.2089  0.0668  0.9190
  574MOL0     O75660   7.455   2.396   1.162  0.2109  0.7812 -0.2472
  574MOL0     C75661   7.584   2.368   1.112  0.3794 -1.0025  0.6828
  574MOL0     C75662   7.697   2.372   1.196 -0.6175 -0.3685 -0.3123
  574MOL0     C75663   7.830   2.344   1.146  1.0610 -0.7409  0.6854
  574MOL0     C75664   7.845   2.302   1.017 -0.1232  0.7484 -0.3761
  574MOL0     C75665   7.974   2.265   0.965  0.3906 -0.2464 -0.4306
  574MOL0     O75666   8.075   2.314   1.039  0.2365 -0.7817  0.5213
  574MOL0     C75667   8.204   2.275   1.010  0.5642 -0.5637 -0.2720
  574MOL0     C75668   8.283   2.327   0.906  0.3581  0.3968 -1.0539
  574MOL0     C75669   8.417   2.292   0.893  0.0795  0.5382 -0.6130
  574MOL0     C75670   8.470   2.205   0.991 -0.2240 -0.2644 -0.2134
  574MOL0     O75671   8.603   2.172   1.001  0.1125 -0.1771  0.1673
  574MOL0     C75672   8.689   2.209   0.894 -0.7440  0.2366  0.1452
  574MOL0     C75673   8.824   2.161   0.962  0.3026  0.0067  0.3314
  574MOL0     C75674   8.942   2.184   0.859 -0.0569  0.4030  0.2323
  574MOL0     C75675   8.992   2.334   0.871  0.0909 -0.2539  0.6369
  574MOL0     C75676   9.081   2.389   0.762  0.0495 -0.0467  0.5505
  574MOL0     C75677   8.999   2.416   0.631 -0.2428 -0.1693  0.0291
  574MOL0     C75678   8.890   2.524   0.646 -0.9362  0.4485  0.0694
  574MOL0     C75679   8.806   2.529   0.519 -0.4440  0.3576  0.5684
  574MOL0    Cl75680   8.894   2.597   0.389 -0.0103  0.0414 -0.2414
  574MOL0     C75681   8.385   2.159   1.096  0.3962  0.8820  0.0393
  574MOL0     C75682   8.252   2.202   1.110  0.3887  0.6053 -0.5242
  574MOL0     O75683   7.984   2.206   0.854 -0.1602 -0.2628  0.2975
  574MOL0     C75684   7.735   2.295   0.935  0.5746 -0.0790 -0.1379
  574MOL0     C75685   7.608   2.321   0.982  0.1262  0.4467 -0.2066
  574MOL0     N75686   6.841   2.103   1.137  0.4620  0.6523  0.0333
  574MOL0     N75687   6.779   1.993   1.099 -0.4546  0.4507 -0.1714
  574MOL0     C75688   7.577   1.161   0.985 -0.8436 -0.3488 -0.7128
  574MOL0     C75689   7.637   1.155   0.859  0.7435  0.0940 -0.0554
  574MOL0     C75690   7.753   1.260   0.440  0.7630 -0.4765 -0.8020
  574MOL0     C75691   7.852   1.157   0.439  0.8353  0.5538  0.9158
  574MOL0     C75692   7.944   1.151   0.335 -0.6118  1.6610 -0.1429
  574MOL0     C75693   7.947   1.237   0.223 -0.7493 -0.2140 -0.5139
  574MOL0     O75694   8.041   1.223   0.127 -0.0650 -0.1172  0.0868
  574MOL0     C75695   8.086   1.333   0.054  0.1301  0.2264  0.8126
  574MOL0     C75696   8.202   1.289  -0.032  0.1698 -0.2351  0.3280
  574MOL0     C75697   8.337   1.284   0.041 -0.1126  0.3512 -0.5372
  574MOL0     C75698   8.448   1.241  -0.056  0.7693 -0.6613 -0.1159
  574MOL0     C75699   8.574   1.281   0.012 -0.4290 -0.2207 -0.2393
  574MOL0     C75700   8.677   1.321   0.070 -0.1932  0.7552 -0.1683
  574MOL0     C75701   7.851   1.343   0.235 -0.9289 -0.0693  0.0215
  574MOL0     C75702   7.757   1.366   0.342 -0.0568 -0.4698  0.1333
  574MOL0     H75703   7.363   1.147   0.656 -0.7070  0.0813  0.1913
  574MOL0     H75704   7.260   1.183   0.881  0.2775 -2.1823 -0.6851
  574MOL0     H75705   7.527   1.351   1.203  0.1676 -1.3012 -0.1474
  574MOL0     H75706   7.369   1.372   1.263  1.2554 -1.0214  0.9747
  574MOL0     H75707   7.469   1.454   0.997  1.6934 -1.0808  1.9905
  574MOL0     H75708   7.467   1.576   1.118 -1.6976  2.0315 -2.4854
  574MOL0     H75709   7.225   1.580   1.149  2.2123 -0.6734  2.0376
  574MOL0     H75710   7.196   1.457   1.033 -2.7658  2.5192 -1.7604
  574MOL0     H75711   7.302   1.734   0.992 -2.1491  0.3614 -0.9623
  574MOL0     H75712   7.356   1.624   0.875  0.4749  0.2019 -0.4853
  574MOL0     H75713   7.114   1.558   0.837 -2.4186  0.9893 -1.1984
  574MOL0     H75714   7.158   1.722   0.783 -0.0623 -0.7897 -0.2413
  574MOL0     H75715   7.058   1.816   0.999 -2.3338  1.5576 -1.5119
  574MOL0     H75716   6.991   1.647   1.016  1.0722 -0.2801 -0.3918
  574MOL0     H75717   6.957   1.821   0.756 -0.8253  0.0198 -0.3649
  574MOL0     H75718   6.878   1.667   0.803  0.1636 -0.4722  1.2619
  574MOL0     H75719   6.773   1.760   0.987  1.6076 -1.2591 -0.0324
  574MOL0     H75720   6.739   1.852   0.835  2.0662  3.6138  0.2568
  574MOL0     H75721   6.994   2.046   0.868 -1.0013  0.3140  0.0036
  574MOL0     H75722   7.011   2.340   1.094  0.0633  0.8271 -1.6716
  574MOL0     H75723   7.109   2.247   0.974  1.4964  3.1317  0.8329
  574MOL0     H75724   7.186   2.096   1.135  1.6299 -1.0400  2.0432
  574MOL0     H75725   7.075   2.161   1.261 -1.6281  0.5124 -0.9794
  574MOL0     H75726   7.196   2.368   1.269  0.0441 -0.9163  0.4464
  574MOL0     H75727   7.307   2.243   1.310  0.9661 -0.1438 -0.7241
  574MOL0     H75728   7.301   2.371   1.030 -3.6869 -1.6862  1.6936
  574MOL0     H75729   7.384   2.226   1.063  1.6264  0.7301  0.7002
  574MOL0     H75730   7.683   2.406   1.299 -0.8450 -2.3370  0.3488
  574MOL0     H75731   7.903   2.346   1.227  1.4891  1.0730  0.3009
  574MOL0     H75732   8.237   2.395   0.835 -0.4101  2.3072  1.1580
  574MOL0     H75733   8.475   2.321   0.806  0.5444  1.9719  0.1529
  574MOL0     H75734   8.707   2.315   0.876  0.8068  0.5880  3.0637
  574MOL0     H75735   8.674   2.150   0.803  2.4673 -2.6255  1.2434
  574MOL0     H75736   8.829   2.056   0.991 -0.4185 -0.4371 -1.0184
  574MOL0     H75737   8.835   2.219   1.054 -2.4779 -0.6127  1.1406
  574MOL0     H75738   8.909   2.154   0.759  1.1951  1.5436 -0.5467
  574MOL0     H75739   9.032   2.125   0.878  2.7385  2.7680 -3.8556
  574MOL0     H75740   8.903   2.396   0.885  0.1191 -0.3840  1.4069
  574MOL0     H75741   9.044   2.336   0.967  1.9494 -3.2999 -0.1878
  574MOL0     H75742   9.165   2.320   0.747 -0.9993 -1.0224 -1.2400
  574MOL0     H75743   9.128   2.482   0.795  0.7235  0.2293 -1.0716
  574MOL0     H75744   8.943   2.326   0.605 -0.2385  0.3092 -1.7956
  574MOL0     H75745   9.075   2.438   0.556  1.1705 -1.3628  1.0624
  574MOL0     H75746   8.818   2.502   0.725 -0.8896 -0.8539 -0.2420
  574MOL0     H75747   8.936   2.618   0.678 -1.2132 -0.1528  2.3902
  574MOL0     H75748   8.717   2.592   0.532 -1.0331  0.0684 -1.7051
  574MOL0     H75749   8.782   2.424   0.504  1.0294  0.3854 -2.8228
  574MOL0     H75750   8.430   2.102   1.176 -0.2113 -0.3660 -0.4690
  574MOL0     H75751   8.190   2.182   1.198  1.5906  1.4881  0.5640
  574MOL0     H75752   7.754   2.272   0.831  0.1059 -0.6296 -0.1075
  574MOL0     H75753   7.526   2.316   0.912 -0.0215 -4.9844 -0.0718
  574MOL0     H75754   7.648   1.147   1.065 -2.5043 -0.8084  0.7409
  574MOL0     H75755   7.745   1.155   0.853  0.7120 -1.1229 -0.9614
  574MOL0     H75756   7.856   1.075   0.511 -0.1924 -3.0423 -2.7178
  574MOL0     H75757   8.010   1.065   0.338  1.5504  3.2460  0.2671
  574MOL0     H75758   8.120   1.416   0.117 -1.6391  1.0365  0.7439
  574MOL0     H75759   8.011   1.371  -0.016 -0.8560 -2.3115  0.4024
  574MOL0     H75760   8.193   1.187  -0.070  1.7149 -0.1288 -0.3796
  574MOL0     H75761   8.196   1.358  -0.117  0.2177 -1.4487 -0.6890
  574MOL0     H75762   8.343   1.219   0.128  3.1784 -0.0283 -0.9143
  574MOL0     H75763   8.356   1.387   0.073 -0.2191  1.1299 -2.7383
  574MOL0     H75764   8.439   1.133  -0.073  0.5546 -0.4838 -1.2720
  574MOL0     H75765   8.426   1.290  -0.152 -0.4599  1.9529  1.3998
  574MOL0     H75766   8.762   1.355   0.126 -1.3204 -2.0872  3.7750
  574MOL0     H75767   7.837   1.420   0.160 -1.5197 -0.1910  0.0057
  574MOL0     H75768   7.680   1.442   0.333  0.5850  0.0959 -0.7702
  575MOL0     O75769   8.286   3.884   7.588 -0.2396  0.1389  0.2556
  575MOL0     C75770   8.315   3.797   7.504 -0.0737  0.0349  0.3605
  575MOL0     O75771   8.434   3.771   7.456 -0.7651  0.5624  0.3360
  575MOL0     C75772   8.547   3.817   7.519  0.1016  0.7225  0.4236
  575MOL0     C75773   8.581   3.953   7.546 -0.2513 -0.9622 -0.5725
  575MOL0     C75774   8.695   3.978   7.619 -0.6959 -1.3294  0.3157
  575MOL0     C75775   8.772   3.873   7.670 -0.0059  0.2623 -0.4359
  575MOL0     O75776   8.889   3.909   7.738 -0.0271  0.0661 -0.6154
  575MOL0     C75777   8.998   3.815   7.746  0.2717 -0.0421 -0.1593
  575MOL0     C75778   9.102   3.882   7.836  0.6256  0.1886 -0.7636
  575MOL0     C75779   9.222   3.797   7.838 -0.1605 -0.1937 -0.5305
  575MOL0     C75780   9.309   3.865   7.935 -0.7015 -0.7095 -0.4973
  575MOL0     C75781   9.441   3.797   7.936  0.1430  0.3078 -0.3035
  575MOL0     C75782   9.540   3.875   8.025 -0.6691  0.9886 -0.4032
  575MOL0     C75783   9.668   3.800   8.056 -0.1196  0.6271  0.0115
  575MOL0     C75784   9.742   3.859   8.173  0.4682  0.3062  0.6422
  575MOL0     N75785   9.751   4.009   8.184 -0.5120 -0.1586 -0.7235
  575MOL0     C75786   9.850   4.088   8.124 -0.0714 -0.2818 -0.4423
  575MOL0     C75787   9.821   4.214   8.164  0.6868 -0.8301  0.5225
  575MOL0     C75788   9.872   4.348   8.123  0.1587  0.4620 -0.0495
  575MOL0     C75789  10.022   4.357   8.119  0.2220 -0.0453  0.0826
  575MOL0     C75790  10.070   4.389   8.257 -0.5790 -0.5201  0.4607
  575MOL0     C75791  10.225   4.374   8.266 -0.0999 -0.6864  0.3164
  575MOL0     O75792  10.246   4.234   8.244  1.0685 -0.7645  0.3643
  575MOL0     C75793  10.267   4.161   8.350 -0.1686  0.6723 -0.6091
  575MOL0     C75794  10.169   4.067   8.384 -0.0061  0.4375 -0.1314
  575MOL0     C75795  10.185   3.968   8.483 -0.5383  0.5830 -0.2611
  575MOL0     C75796  10.307   3.970   8.558  1.3343  0.4613  0.5038
  575MOL0     C75797  10.322   3.879   8.671 -0.6577  0.0467 -0.3557
  575MOL0     O75798  10.266   3.760   8.667 -0.7971  0.4136 -0.3798
  575MOL0     C75799  10.321   3.673   8.752  0.2721 -0.0428  0.4518
  575MOL0     C75800  10.284   3.675   8.889  0.0260  0.2688 -0.7431
  575MOL0     C75801  10.336   3.581   8.982 -0.0153  0.2797 -0.8803
  575MOL0     C75802  10.432   3.491   8.939  0.4370 -0.7399  0.3900
  575MOL0     O75803  10.504   3.421   9.030 -0.4662 -0.2353 -0.6811
  575MOL0     C75804  10.451   3.375   9.153 -0.0765 -0.0792 -0.3703
  575MOL0     C75805  10.557   3.298   9.231  0.0731  0.9374 -0.5628
  575MOL0     C75806  10.512   3.244   9.365  0.0982  0.2584  0.1210
  575MOL0     C75807  10.483   3.352   9.461 -0.3400  0.4789 -0.0570
  575MOL0     C75808  10.401   3.320   9.588  0.8470  0.1090 -0.3556
  575MOL0     C75809  10.433   3.434   9.691 -0.1500  0.1026  0.5366
  575MOL0     C75810  10.335   3.427   9.807  0.4052 -0.2446  0.4365
  575MOL0     C75811  10.398   3.514   9.920  0.9051  0.5063 -0.5202
  575MOL0    Cl75812  10.260   3.525  10.036  0.0941 -0.5353 -0.0635
  575MOL0     C75813  10.476   3.487   8.800 -0.0604  0.0843  0.4181
  575MOL0     C75814  10.412   3.575   8.710  0.4044 -0.6277  0.6185
  575MOL0     O75815  10.405   3.916   8.759  0.4786  0.0248  0.7123
  575MOL0     C75816  10.404   4.063   8.522  0.5503 -0.1839  0.1875
  575MOL0     C75817  10.382   4.160   8.422 -0.5820 -0.1863 -0.0629
  575MOL0     N75818   9.725   4.201   8.271 -0.5586  0.1220  0.0997
  575MOL0     N75819   9.689   4.076   8.285  0.3767  0.1851  0.1251
  575MOL0     C75820   8.742   3.738   7.642  0.5009  0.5029  0.5797
  575MOL0     C75821   8.627   3.705   7.568  0.1716  0.2763  0.1899
  575MOL0     C75822   8.196   3.723   7.451 -0.1255  0.2792  0.3351
  575MOL0     C75823   8.201   3.657   7.322  0.2940  0.5102  0.4994
  575MOL0     C75824   8.092   3.580   7.275  0.1855 -0.5280 -0.0923
  575MOL0     C75825   7.980   3.576   7.357  0.2321  0.6876  0.2890
  575MOL0     O75826   7.893   3.482   7.308 -0.8033  0.3410 -0.4420
  575MOL0     C75827   7.779   3.448   7.389 -0.1760 -0.5272  1.2742
  575MOL0     C75828   7.716   3.342   7.310  0.6806 -0.0516  0.0389
  575MOL0     C75829   7.583   3.292   7.359  0.0022  0.2519 -0.7580
  575MOL0     C75830   7.549   3.172   7.269 -0.0757  0.1498 -0.0694
  575MOL0     C75831   7.428   3.132   7.337  0.0845  0.7032  0.0069
  575MOL0     C75832   7.329   3.119   7.403 -0.0103 -0.5949  0.1710
  575MOL0     C75833   7.972   3.639   7.485 -0.4877 -0.0703  0.6386
  575MOL0     C75834   8.083   3.704   7.528 -1.0758 -1.2667  0.2671
  575MOL0     H75835   8.528   4.034   7.497 -0.6960  1.6692  3.7458
  575MOL0     H75836   8.732   4.078   7.640 -0.1148 -1.7784  1.4798
  575MOL0     H75837   9.027   3.785   7.645 -2.6805  1.1038 -1.4805
  575MOL0     H75838   8.974   3.720   7.794  2.7497 -0.2235  0.8966
  575MOL0     H75839   9.070   3.901   7.939 -4.0052  0.7812 -2.0931
  575MOL0     H75840   9.130   3.974   7.784  0.9204  0.1937 -0.6014
  575MOL0     H75841   9.270   3.797   7.739 -2.1485  1.9475 -1.6054
  575MOL0     H75842   9.190   3.696   7.861 -0.5126  0.2845  1.2161
  575MOL0     H75843   9.318   3.967   7.897 -1.2426 -0.1349  0.8413
  575MOL0     H75844   9.273   3.875   8.038  0.4980  1.3751 -0.2156
  575MOL0     H75845   9.479   3.797   7.834  0.3127 -0.1884 -0.2454
  575MOL0     H75846   9.431   3.692   7.966 -0.9262  0.6961  0.7697
  575MOL0     H75847   9.486   3.902   8.116 -0.7367  0.2493 -0.2194
  575MOL0     H75848   9.560   3.973   7.980 -0.3588  1.1865  0.1595
  575MOL0     H75849   9.647   3.695   8.081 -1.3847  0.6155 -0.9914
  575MOL0     H75850   9.732   3.799   7.967 -1.1208 -2.3487 -0.8147
  575MOL0     H75851   9.844   3.821   8.185  1.4339  3.2667  3.2053
  575MOL0     H75852   9.682   3.827   8.258 -0.2358  1.7482  0.7286
  575MOL0     H75853   9.921   4.049   8.052  0.5686 -1.9035  1.0074
  575MOL0     H75854   9.823   4.419   8.189 -2.9717 -3.7059  2.6120
  575MOL0     H75855   9.832   4.371   8.024  1.0635  0.7560 -0.3617
  575MOL0     H75856  10.055   4.440   8.055  2.5176 -2.2486 -1.7760
  575MOL0     H75857  10.063   4.268   8.072 -0.4017 -0.5476  0.4712
  575MOL0     H75858  10.040   4.491   8.285  0.3552 -0.4740  1.3449
  575MOL0     H75859  10.027   4.335   8.342  0.8279  2.4372  3.2606
  575MOL0     H75860  10.265   4.413   8.360 -1.2356 -0.3465  0.6742
  575MOL0     H75861  10.269   4.435   8.187 -0.7696  4.7531  3.6449
  575MOL0     H75862  10.078   4.058   8.327  1.9570  0.3689 -3.5005
  575MOL0     H75863  10.106   3.904   8.523  0.5959 -0.1951  0.8202
  575MOL0     H75864  10.211   3.747   8.924 -1.3090 -0.5391 -1.7548
  575MOL0     H75865  10.306   3.581   9.087  0.3465  0.5079 -0.7735
  575MOL0     H75866  10.364   3.309   9.137 -0.2640  0.3931 -1.4016
  575MOL0     H75867  10.413   3.459   9.211  1.2502 -1.3698  2.5225
  575MOL0     H75868  10.638   3.369   9.251  0.6692  0.0489  0.2692
  575MOL0     H75869  10.598   3.216   9.170 -0.1284  0.2232  0.2473
  575MOL0     H75870  10.592   3.179   9.402  1.1606  2.0927  1.1915
  575MOL0     H75871  10.417   3.191   9.353 -0.1382  0.8552 -0.7671
  575MOL0     H75872  10.576   3.398   9.495  0.5651  0.1157 -1.9083
  575MOL0     H75873  10.435   3.434   9.407 -0.2945  0.3137 -0.3511
  575MOL0     H75874  10.428   3.219   9.620  2.2356  0.6088  0.1295
  575MOL0     H75875  10.293   3.310   9.569  0.5512  2.4734 -0.2797
  575MOL0     H75876  10.428   3.533   9.644  1.8722 -0.8468 -1.8719
  575MOL0     H75877  10.536   3.425   9.726  0.1393 -1.4134 -0.6515
  575MOL0     H75878  10.241   3.477   9.781 -0.5622 -1.2410  1.8524
  575MOL0     H75879  10.313   3.326   9.843 -4.4293  0.2942 -0.2894
  575MOL0     H75880  10.432   3.610   9.880 -1.6704  1.1281 -1.3689
  575MOL0     H75881  10.479   3.456   9.967 -2.1244 -3.0513  0.7710
  575MOL0     H75882  10.559   3.424   8.771  0.8826  0.8534  1.3622
  575MOL0     H75883  10.450   3.569   8.608 -2.2347 -2.0780 -0.3905
  575MOL0     H75884  10.507   4.052   8.554  0.4065  1.2762  1.2736
  575MOL0     H75885  10.457   4.221   8.372 -1.1666  0.3530 -0.2949
  575MOL0     H75886   8.814   3.658   7.660  0.5425  0.7749  1.7446
  575MOL0     H75887   8.617   3.601   7.540 -2.6993  0.9353 -1.5978
  575MOL0     H75888   8.298   3.660   7.274 -0.5993  1.1754 -1.3880
  575MOL0     H75889   8.105   3.517   7.188  2.2084  1.9964 -1.7523
  575MOL0     H75890   7.706   3.530   7.391 -1.9317 -2.0379  1.9855
  575MOL0     H75891   7.804   3.410   7.489  2.4932 -0.6082  0.6392
  575MOL0     H75892   7.686   3.392   7.217  1.4434  2.3926  1.0304
  575MOL0     H75893   7.789   3.267   7.281  0.3241 -0.8452  1.1437
  575MOL0     H75894   7.503   3.364   7.340 -0.4053  0.2669  0.8218
  575MOL0     H75895   7.588   3.272   7.467  2.4408  2.2770 -0.3784
  575MOL0     H75896   7.536   3.181   7.161 -2.2534  0.0467  0.1475
  575MOL0     H75897   7.629   3.099   7.278  0.1495 -0.1915 -3.4039
  575MOL0     H75898   7.250   3.104   7.473  0.6064  1.2386  1.3398
  575MOL0     H75899   7.891   3.613   7.552 -0.0662  1.1163  1.6618
  575MOL0     H75900   8.082   3.742   7.630  2.6690  2.7162 -0.8833
  576MOL0     O75901   7.304   9.342   1.241  0.1126  0.9635  0.7241
  576MOL0     C75902   7.398   9.291   1.183 -0.0793 -0.2863 -1.2495
  576MOL0     O75903   7.393   9.186   1.099  0.3107  0.2548 -0.2580
  576MOL0     C75904   7.279   9.117   1.081  0.2496 -0.2817 -0.9275
  576MOL0     C75905   7.238   9.016   1.174  1.2408  0.4688  0.0163
  576MOL0     C75906   7.113   8.966   1.152  1.3543 -0.5938 -0.7531
  576MOL0     C75907   7.028   9.008   1.047  1.4305 -0.0571 -0.5653
  576MOL0     O75908   6.894   8.978   1.043  0.6680  0.4303  0.3655
  576MOL0     C75909   6.821   9.009   1.163  0.2343 -0.4598 -0.0816
  576MOL0     C75910   6.673   8.993   1.125 -0.4782 -0.2130  0.1929
  576MOL0     C75911   6.556   8.980   1.234 -1.5631 -0.6249  0.3121
  576MOL0     C75912   6.417   8.996   1.180 -0.2853  0.9066 -0.7590
  576MOL0     C75913   6.332   9.043   1.286  0.6226  0.1183 -0.3250
  576MOL0     C75914   6.209   9.112   1.220 -0.0531  0.6871  0.4741
  576MOL0     C75915   6.109   9.151   1.321 -0.9516 -0.2829 -0.6432
  576MOL0     C75916   5.989   9.232   1.265  0.1573  0.7689  0.2638
  576MOL0     N75917   5.865   9.213   1.336  1.4448  0.1382 -0.2424
  576MOL0     C75918   5.826   9.105   1.424 -0.4175 -0.4702 -0.3313
  576MOL0     C75919   5.702   9.127   1.455  0.0168 -0.5718 -0.0490
  576MOL0     C75920   5.611   9.034   1.528 -0.4297  0.6312  0.5069
  576MOL0     C75921   5.617   9.065   1.682  0.3540  0.7053  0.3244
  576MOL0     C75922   5.547   8.959   1.775  1.2847  0.3756 -0.9043
  576MOL0     C75923   5.573   8.970   1.923 -0.3076  0.4008  0.1982
  576MOL0     O75924   5.524   8.854   1.993  0.3634  0.2803  0.4844
  576MOL0     C75925   5.388   8.831   2.011  0.8150  0.0242 -0.6497
  576MOL0     C75926   5.324   8.707   2.005  0.6031  0.1010  0.4075
  576MOL0     C75927   5.187   8.689   2.034  0.0311 -0.1676  0.3150
  576MOL0     C75928   5.115   8.799   2.065 -0.6562 -0.7442  0.5001
  576MOL0     C75929   4.969   8.780   2.090  0.1245 -0.6857  0.6046
  576MOL0     O75930   4.930   8.660   2.126 -0.3096  0.0300  0.4619
  576MOL0     C75931   4.795   8.654   2.163  0.2885 -0.0179 -0.6292
  576MOL0     C75932   4.687   8.680   2.077  0.3476  0.2626  0.9367
  576MOL0     C75933   4.554   8.670   2.125  0.0346  0.0411 -0.1877
  576MOL0     C75934   4.525   8.643   2.258  0.4974 -0.3458  0.9748
  576MOL0     O75935   4.398   8.620   2.316 -0.1248  0.1298 -0.0307
  576MOL0     C75936   4.313   8.738   2.323  0.6193  0.5901  0.5680
  576MOL0     C75937   4.153   8.710   2.324 -0.7833  0.3738 -0.0706
  576MOL0     C75938   4.101   8.599   2.420 -0.3576 -0.0842  0.0175
  576MOL0     C75939   4.120   8.637   2.563 -0.5468  0.6505 -0.2180
  576MOL0     C75940   4.029   8.559   2.659  0.1214 -0.0690 -0.6560
  576MOL0     C75941   3.879   8.600   2.667 -0.3356  0.7012  0.2402
  576MOL0     C75942   3.836   8.745   2.657  0.2757 -0.2541  0.0059
  576MOL0     C75943   3.686   8.765   2.692  0.5019  0.0455  0.0739
  576MOL0    Cl75944   3.635   8.735   2.863 -0.2190  0.1449 -0.2170
  576MOL0     C75945   4.634   8.636   2.345 -0.2341  0.0419 -0.0227
  576MOL0     C75946   4.768   8.635   2.304  0.2302 -0.6710  0.7728
  576MOL0     O75947   4.894   8.884   2.086  0.8001  0.5710 -0.0518
  576MOL0     C75948   5.167   8.928   2.052 -0.1914  1.1085 -0.3057
  576MOL0     C75949   5.300   8.941   2.024  0.3970  0.4220  0.4560
  576MOL0     N75950   5.662   9.243   1.397  1.2105  0.4120  0.0097
  576MOL0     N75951   5.759   9.293   1.319 -0.2149  0.4605 -0.1183
  576MOL0     C75952   7.076   9.090   0.945  0.2371 -0.3676 -0.6914
  576MOL0     C75953   7.200   9.139   0.966  1.0109 -0.1024  0.7083
  576MOL0     C75954   7.534   9.348   1.222  0.2456  0.1117 -0.4705
  576MOL0     C75955   7.545   9.462   1.302 -0.6957 -0.1405 -0.1015
  576MOL0     C75956   7.674   9.499   1.345  0.0993 -0.0725  0.5019
  576MOL0     C75957   7.797   9.446   1.293  0.6653 -0.8445 -0.7981
  576MOL0     O75958   7.923   9.498   1.316  0.2223 -0.4744  0.2076
  576MOL0     C75959   7.931   9.624   1.388  0.5695  0.3891  0.0478
  576MOL0     C75960   8.073   9.676   1.419  0.4181 -1.1009  0.7506
  576MOL0     C75961   8.172   9.572   1.466  0.9137  0.6095  1.1950
  576MOL0     C75962   8.169   9.573   1.627 -0.0276 -0.7642  0.1718
  576MOL0     C75963   8.246   9.689   1.677 -0.2629  0.1601 -0.5122
  576MOL0     C75964   8.325   9.779   1.699 -0.7762 -1.0051  1.2507
  576MOL0     C75965   7.778   9.327   1.221  0.6717 -0.2960  0.6089
  576MOL0     C75966   7.652   9.281   1.194 -0.3725  0.5930  0.4704
  576MOL0     H75967   7.302   8.985   1.256 -0.9419  1.6248  2.3208
  576MOL0     H75968   7.082   8.893   1.225  0.6857  1.4128  1.0894
  576MOL0     H75969   6.830   9.110   1.202  0.0190  0.1521 -1.5430
  576MOL0     H75970   6.838   8.936   1.243  0.2224 -0.2574  0.1073
  576MOL0     H75971   6.664   8.905   1.060 -3.4213 -1.6900  2.3822
  576MOL0     H75972   6.652   9.084   1.068 -0.7206 -0.4466 -0.0975
  576MOL0     H75973   6.582   9.049   1.315 -1.9382 -1.0592  0.8133
  576MOL0     H75974   6.559   8.884   1.287  0.3177 -0.1507  1.1437
  576MOL0     H75975   6.403   9.057   1.091  2.2470  0.8670 -1.2502
  576MOL0     H75976   6.372   8.899   1.154  0.6439  0.2616 -0.0307
  576MOL0     H75977   6.382   9.128   1.335 -0.3065 -0.7791  2.4045
  576MOL0     H75978   6.292   8.960   1.346 -1.3654 -0.8561 -2.8376
  576MOL0     H75979   6.170   9.039   1.149 -2.2068  2.5098 -0.3347
  576MOL0     H75980   6.242   9.201   1.166  0.0241 -0.7143 -1.8892
  576MOL0     H75981   6.069   9.060   1.367  1.4477 -0.6247  0.9807
  576MOL0     H75982   6.160   9.220   1.390  1.8554 -2.5871 -0.2357
  576MOL0     H75983   5.974   9.192   1.164  3.0206  1.7031 -0.6260
  576MOL0     H75984   6.021   9.335   1.248  1.4648  0.1518 -1.2690
  576MOL0     H75985   5.890   9.028   1.466  2.0816  1.0607 -1.1238
  576MOL0     H75986   5.642   8.932   1.502  0.8489  0.8513  1.1122
  576MOL0     H75987   5.509   9.054   1.494 -0.1342 -0.8100 -1.3600
  576MOL0     H75988   5.591   9.167   1.711  0.9983 -0.2137  4.9868
  576MOL0     H75989   5.720   9.074   1.718 -0.3083  3.8543  1.7727
  576MOL0     H75990   5.442   8.966   1.747  0.9945  3.1589  0.4487
  576MOL0     H75991   5.578   8.859   1.745  3.7040 -0.4114  3.3071
  576MOL0     H75992   5.539   9.061   1.974  0.2142  1.6125 -1.5552
  576MOL0     H75993   5.679   8.975   1.947 -0.7843  1.2217  2.3459
  576MOL0     H75994   5.379   8.616   1.985  0.5890  0.1983 -0.0823
  576MOL0     H75995   5.149   8.588   2.024 -2.1931  0.6071  0.2336
  576MOL0     H75996   4.714   8.704   1.975 -1.3155 -1.3249  0.0858
  576MOL0     H75997   4.470   8.674   2.056 -0.4600  1.3072  0.4454
  576MOL0     H75998   4.336   8.815   2.249  1.2760  0.3859  0.5538
  576MOL0     H75999   4.329   8.786   2.419 -3.2935  2.7246  0.3811
  576MOL0     H76000   4.125   8.673   2.224  0.2618 -1.2399  0.1825
  576MOL0     H76001   4.083   8.786   2.358 -2.5247 -1.3699  0.4577
  576MOL0     H76002   4.170   8.516   2.398  0.8975  0.5550  1.3490
  576MOL0     H76003   3.995   8.572   2.415 -1.1538  1.7348  3.7506
  576MOL0     H76004   4.225   8.618   2.587  0.0453 -0.6106 -3.4397
  576MOL0     H76005   4.104   8.745   2.565  0.0713  0.7663 -1.1984
  576MOL0     H76006   4.065   8.560   2.762  1.3408 -2.2404 -0.9914
  576MOL0     H76007   4.025   8.454   2.628  2.1727 -0.0299 -1.1984
  576MOL0     H76008   3.849   8.566   2.766 -1.7037  3.5722  0.9113
  576MOL0     H76009   3.822   8.536   2.599 -0.7357  0.5117  0.7541
  576MOL0     H76010   3.901   8.794   2.730  0.3013 -1.3533  0.7336
  576MOL0     H76011   3.863   8.782   2.557  2.8942 -2.4676 -0.2457
  576MOL0     H76012   3.632   8.691   2.631 -0.0375  1.6738 -1.5194
  576MOL0     H76013   3.644   8.865   2.678 -0.9255 -0.8898 -3.3496
  576MOL0     H76014   4.613   8.614   2.449  0.2035 -0.4455 -0.0330
  576MOL0     H76015   4.853   8.625   2.369 -0.2279  0.8155  1.6391
  576MOL0     H76016   5.098   9.012   2.060 -0.9700  0.4542 -0.0859
  576MOL0     H76017   5.348   9.037   2.011  2.6461 -0.8272 -1.1360
  576MOL0     H76018   7.010   9.120   0.864 -1.8744  1.9524  1.7047
  576MOL0     H76019   7.256   9.210   0.906  3.1909  0.3837  3.1279
  576MOL0     H76020   7.458   9.521   1.328 -0.1224  0.5857  0.1895
  576MOL0     H76021   7.671   9.588   1.406 -2.8007 -0.4629  1.0628
  576MOL0     H76022   7.885   9.611   1.486 -0.2382 -0.5266 -0.4426
  576MOL0     H76023   7.881   9.698   1.325  0.6326  0.9900  0.6869
  576MOL0     H76024   8.113   9.706   1.322  0.8378 -1.2251  0.8808
  576MOL0     H76025   8.064   9.761   1.488  1.3688  1.7319 -2.3672
  576MOL0     H76026   8.273   9.598   1.431  0.9957 -0.4764  0.5332
  576MOL0     H76027   8.147   9.469   1.438 -1.0987  1.0994  1.1055
  576MOL0     H76028   8.069   9.575   1.672 -1.5793 -2.6429 -2.8058
  576MOL0     H76029   8.212   9.480   1.667  2.9756  0.6314  0.4539
  576MOL0     H76030   8.404   9.849   1.717 -1.1454  1.0935 -3.6471
  576MOL0     H76031   7.859   9.262   1.191  1.2324  1.3205 -1.5341
  576MOL0     H76032   7.643   9.188   1.140  2.3615  0.5819 -0.1231
  577MOL0     O76033   4.700   0.228   5.727  0.3955  1.1062 -0.6109
  577MOL0     C76034   4.735   0.150   5.815  0.0763 -0.1946 -0.4082
  577MOL0     O76035   4.679   0.026   5.843 -0.3538  0.2889  0.6587
  577MOL0     C76036   4.559  -0.014   5.785  0.8040  0.5071 -0.1434
  577MOL0     C76037   4.440  -0.037   5.864  0.0712 -0.4360  0.0468
  577MOL0     C76038   4.318  -0.067   5.805  0.4754  0.3729  0.7757
  577MOL0     C76039   4.301  -0.081   5.672 -0.3402 -0.5286  0.3131
  577MOL0     O76040   4.190  -0.117   5.598 -0.1209  0.1999 -0.7005
  577MOL0     C76041   4.056  -0.067   5.632  0.4659  0.4145  0.1000
  577MOL0     C76042   3.958  -0.138   5.531  0.2484  1.1059  0.1567
  577MOL0     C76043   3.962  -0.071   5.394  1.0192 -0.4015  0.6031
  577MOL0     C76044   3.859  -0.128   5.296  0.1816 -0.0033  0.1041
  577MOL0     C76045   3.883  -0.064   5.161  0.0280  0.2477 -0.2066
  577MOL0     C76046   3.781  -0.126   5.068 -0.0875 -0.0266 -0.6074
  577MOL0     C76047   3.813  -0.085   4.921  0.8474  0.4765  0.3472
  577MOL0     C76048   3.733  -0.178   4.814  0.0047 -0.5456 -0.1406
  577MOL0     N76049   3.619  -0.102   4.757  0.0410  0.2060  0.1613
  577MOL0     C76050   3.498  -0.070   4.821 -0.8791  1.3487 -0.0722
  577MOL0     C76051   3.434  -0.007   4.720  0.5729 -0.2764 -0.0183
  577MOL0     C76052   3.291   0.050   4.733 -0.9366 -0.6267 -0.8758
  577MOL0     C76053   3.195  -0.064   4.771  0.6905 -0.0186  0.0564
  577MOL0     C76054   3.059  -0.010   4.760 -0.0499  0.7346 -0.1853
  577MOL0     C76055   2.957  -0.131   4.797 -0.3151  0.3731 -0.0340
  577MOL0     O76056   2.820  -0.092   4.832 -0.6106  0.0188  0.2934
  577MOL0     C76057   2.733  -0.056   4.728 -0.7063 -0.3991 -0.0342
  577MOL0     C76058   2.754  -0.041   4.587  0.5154 -0.2972 -0.0709
  577MOL0     C76059   2.652  -0.011   4.496  0.6039  0.2455 -0.1662
  577MOL0     C76060   2.529   0.024   4.550  0.5252 -0.1379  0.5286
  577MOL0     C76061   2.415   0.050   4.463 -0.5266 -0.3065 -0.6195
  577MOL0     O76062   2.288   0.020   4.509  0.4676  0.8582  0.9102
  577MOL0     C76063   2.183   0.063   4.436  0.0702 -0.4958 -1.0149
  577MOL0     C76064   2.136   0.001   4.321 -0.7165 -0.2509 -0.1324
  577MOL0     C76065   2.046   0.070   4.239  0.0677 -0.0341  0.6768
  577MOL0     C76066   1.987   0.189   4.282 -0.9236  0.2357  0.8342
  577MOL0     O76067   1.903   0.275   4.217 -0.6258 -0.0817 -0.0517
  577MOL0     C76068   1.853   0.229   4.084  0.4572  0.4543  0.7500
  577MOL0     C76069   1.960   0.263   3.978 -0.3243 -0.2984  1.4726
  577MOL0     C76070   1.906   0.200   3.855 -0.1768  0.2266  1.1291
  577MOL0     C76071   1.962   0.260   3.723  0.1034  0.0311 -0.7870
  577MOL0     C76072   1.885   0.228   3.601 -0.2878  0.2139  0.2806
  577MOL0     C76073   1.944   0.308   3.487  0.0309  0.3274 -0.1413
  577MOL0     C76074   1.828   0.316   3.375 -0.9635  0.0218 -0.1979
  577MOL0     C76075   1.899   0.336   3.239  0.0623 -0.7106  0.8770
  577MOL0    Cl76076   1.761   0.301   3.117  0.2137  0.0627 -0.3650
  577MOL0     C76077   2.028   0.249   4.404 -0.0881  0.0638  0.5310
  577MOL0     C76078   2.126   0.189   4.475 -0.6511  1.6788 -0.5259
  577MOL0     O76079   2.442   0.112   4.361  0.3732  0.9973  0.5854
  577MOL0     C76080   2.502  -0.001   4.690 -0.0787 -1.4854 -0.7368
  577MOL0     C76081   2.601  -0.037   4.774  0.2485 -0.0238  0.4671
  577MOL0     N76082   3.500  -0.012   4.606  0.4732 -0.2213 -0.0461
  577MOL0     N76083   3.613  -0.064   4.620 -0.2430 -1.1256 -0.2661
  577MOL0     C76084   4.419  -0.073   5.595 -0.0035  0.4267  0.7498
  577MOL0     C76085   4.549  -0.041   5.648  0.3326 -0.4937 -0.5830
  577MOL0     C76086   4.850   0.200   5.899 -0.3552 -1.2364  0.5133
  577MOL0     C76087   4.937   0.303   5.852  0.0354  0.9418 -0.4641
  577MOL0     C76088   5.036   0.359   5.929 -0.6502 -0.8393  0.0375
  577MOL0     C76089   5.071   0.310   6.062 -0.4610  0.3651  1.0051
  577MOL0     O76090   5.173   0.369   6.128 -0.9201 -0.0673  0.6117
  577MOL0     C76091   5.212   0.338   6.264 -0.3932 -0.0297  0.1596
  577MOL0     C76092   5.361   0.380   6.284  0.6437 -0.2863  0.0153
  577MOL0     C76093   5.458   0.273   6.246 -0.5584  0.1427  0.0989
  577MOL0     C76094   5.604   0.301   6.306 -0.4679  0.4883  0.0887
  577MOL0     C76095   5.689   0.184   6.266 -0.9252  0.6299 -0.8501
  577MOL0     C76096   5.762   0.094   6.236  0.5874  0.2500  1.1529
  577MOL0     C76097   4.992   0.202   6.113  0.0868 -0.6904  0.4586
  577MOL0     C76098   4.884   0.149   6.029 -0.5259  0.5886 -0.0582
  577MOL0     H76099   4.434  -0.035   5.973 -0.9662 -4.2240  0.2223
  577MOL0     H76100   4.230  -0.079   5.867 -0.2718 -3.4110 -0.7135
  577MOL0     H76101   4.047   0.040   5.653  0.0857  0.0176  2.1493
  577MOL0     H76102   4.029  -0.121   5.722 -0.1319 -0.6916 -0.7195
  577MOL0     H76103   3.862  -0.159   5.579 -1.0989  1.9978 -2.0121
  577MOL0     H76104   3.991  -0.239   5.506 -0.4608  0.4059  1.8458
  577MOL0     H76105   4.059  -0.078   5.344  0.0036 -1.2638 -1.3632
  577MOL0     H76106   3.947   0.037   5.404 -2.2555 -0.8519  1.7814
  577MOL0     H76107   3.863  -0.237   5.288 -3.4886 -0.1345 -3.1176
  577MOL0     H76108   3.757  -0.103   5.328  0.1322  1.4435 -1.0848
  577MOL0     H76109   3.985  -0.082   5.126  1.0296 -1.1577  3.0784
  577MOL0     H76110   3.882   0.044   5.172  2.0603  0.1389  1.5393
  577MOL0     H76111   3.674  -0.109   5.086 -0.6092 -2.4646 -1.1092
  577MOL0     H76112   3.792  -0.234   5.083  1.6307  0.4628  2.9373
  577MOL0     H76113   3.797   0.020   4.896  1.0346  0.0559 -1.6886
  577MOL0     H76114   3.919  -0.105   4.905  0.7210 -0.7780  0.9166
  577MOL0     H76115   3.691  -0.264   4.867 -0.9184  0.6903  1.2086
  577MOL0     H76116   3.809  -0.212   4.743  0.3188  0.6159 -0.3704
  577MOL0     H76117   3.475  -0.100   4.923 -0.3466 -2.3839 -0.9146
  577MOL0     H76118   3.268   0.087   4.632 -1.4769 -0.1142 -0.5694
  577MOL0     H76119   3.279   0.131   4.805 -1.6273 -3.3729  2.3780
  577MOL0     H76120   3.207  -0.097   4.874  1.0580 -1.5250 -0.4463
  577MOL0     H76121   3.204  -0.149   4.703 -3.4757  1.6618 -3.1394
  577MOL0     H76122   3.044   0.075   4.827  0.6691  0.8307 -0.1428
  577MOL0     H76123   3.041   0.026   4.658  1.7930  2.2037 -0.0457
  577MOL0     H76124   2.992  -0.206   4.868 -0.0425  1.7918  1.3843
  577MOL0     H76125   2.942  -0.191   4.707 -2.9145 -1.8790  1.7386
  577MOL0     H76126   2.854  -0.071   4.559  0.4390 -1.2711  0.6177
  577MOL0     H76127   2.680  -0.011   4.392  0.2942 -2.0535 -0.2999
  577MOL0     H76128   2.179  -0.095   4.292  0.4111  0.6992 -1.7137
  577MOL0     H76129   2.028   0.022   4.143  1.0808 -1.2667  1.0660
  577MOL0     H76130   1.762   0.279   4.049 -0.3328 -0.8893  0.8418
  577MOL0     H76131   1.827   0.123   4.079  2.5834 -0.2167  2.3796
  577MOL0     H76132   2.053   0.213   4.004  2.3002  3.2773 -0.1277
  577MOL0     H76133   1.975   0.371   3.969 -1.0661 -0.3488 -2.7376
  577MOL0     H76134   1.798   0.187   3.846 -0.0119 -0.2200 -0.4619
  577MOL0     H76135   1.936   0.094   3.852 -0.1028  0.2735 -0.2268
  577MOL0     H76136   1.960   0.368   3.740 -4.2268  0.3861 -2.3719
  577MOL0     H76137   2.069   0.238   3.724  0.0101 -1.2078  3.5033
  577MOL0     H76138   1.778   0.238   3.620 -0.4738 -2.7259  1.2823
  577MOL0     H76139   1.889   0.120   3.584 -1.0395  0.1301  0.6142
  577MOL0     H76140   2.028   0.252   3.446 -0.2655 -0.6917  0.6104
  577MOL0     H76141   1.982   0.402   3.528 -1.0402 -0.5824  3.2731
  577MOL0     H76142   1.761   0.229   3.373 -1.4326  0.3512 -2.9608
  577MOL0     H76143   1.758   0.396   3.399 -0.3944  0.3933  0.2365
  577MOL0     H76144   1.989   0.278   3.217  0.9696  1.8029 -3.4210
  577MOL0     H76145   1.922   0.443   3.239 -1.8340 -0.2549  1.2868
  577MOL0     H76146   1.990   0.344   4.439  0.5421  0.2275  0.7825
  577MOL0     H76147   2.162   0.244   4.562 -2.0653  0.8447  0.6410
  577MOL0     H76148   2.416   0.041   4.740 -0.2136 -3.4115  0.7873
  577MOL0     H76149   2.589  -0.037   4.882  1.5539  0.7476  0.6450
  577MOL0     H76150   4.406  -0.063   5.488  0.1091 -0.0964  0.6825
  577MOL0     H76151   4.633  -0.038   5.579 -0.4970 -0.4822 -1.6080
  577MOL0     H76152   4.924   0.349   5.755 -1.4364  1.1712 -0.1783
  577MOL0     H76153   5.096   0.434   5.879 -1.3744  0.7276  1.4049
  577MOL0     H76154   5.205   0.231   6.289 -0.2238 -0.8876 -2.9641
  577MOL0     H76155   5.148   0.399   6.328 -0.1796  1.8372 -1.3356
  577MOL0     H76156   5.383   0.477   6.241  2.1663  1.3007  3.9468
  577MOL0     H76157   5.374   0.398   6.391 -1.4457  2.1716 -0.0457
  577MOL0     H76158   5.463   0.259   6.138 -1.6496  0.0472  0.0499
  577MOL0     H76159   5.429   0.177   6.289  0.3931 -0.7819 -1.2389
  577MOL0     H76160   5.639   0.389   6.252  1.5793 -0.2753  0.0801
  577MOL0     H76161   5.596   0.317   6.414 -0.4803 -0.6496  0.2757
  577MOL0     H76162   5.809   0.005   6.198 -0.5894  1.4999 -3.9946
  577MOL0     H76163   5.025   0.150   6.202 -0.2057 -2.1867 -0.2647
  577MOL0     H76164   4.823   0.067   6.068  2.1703 -1.8589 -0.6045
  578MOL0     O76165   2.279   9.371   1.336  0.5039  0.0081 -0.5387
  578MOL0     C76166   2.401   9.370   1.301  0.5311 -0.1033 -0.7009
  578MOL0     O76167   2.461   9.289   1.206 -0.3955  1.0416  0.2303
  578MOL0     C76168   2.395   9.227   1.111 -0.6499 -0.1590  1.8024
  578MOL0     C76169   2.276   9.283   1.051  0.3313 -0.5764 -0.0493
  578MOL0     C76170   2.214   9.218   0.942 -0.4524  0.5386  1.0305
  578MOL0     C76171   2.275   9.106   0.890 -0.2933 -0.0854  0.1154
  578MOL0     O76172   2.218   9.032   0.791  0.0671 -0.1370  0.3998
  578MOL0     C76173   2.158   9.096   0.674  0.3130 -0.1463  0.8002
  578MOL0     C76174   2.263   9.102   0.558  0.8381 -0.4047 -0.4770
  578MOL0     C76175   2.293   8.972   0.497  0.5054  0.1507  0.6668
  578MOL0     C76176   2.375   8.984   0.366  0.3423  0.0688  0.4793
  578MOL0     C76177   2.452   8.857   0.339 -0.6747  0.2965  1.3082
  578MOL0     C76178   2.515   8.852   0.197  0.3587 -0.1176  0.3242
  578MOL0     C76179   2.528   8.710   0.152 -0.5447  0.4855 -1.0312
  578MOL0     C76180   2.622   8.698   0.035  0.3219 -0.4871  0.1666
  578MOL0     N76181   2.560   8.755  -0.079  0.2820  0.3177  0.4483
  578MOL0     C76182   2.582   8.881  -0.126 -0.3158 -0.7976  0.1330
  578MOL0     C76183   2.541   8.875  -0.257  0.1893 -0.3922  1.2654
  578MOL0     C76184   2.537   8.986  -0.363 -0.0882  0.4420 -0.0109
  578MOL0     C76185   2.669   8.968  -0.452 -0.1581 -0.4748  0.6203
  578MOL0     C76186   2.681   9.072  -0.557 -0.0056 -0.4630  0.4403
  578MOL0     C76187   2.821   9.072  -0.615  0.0397 -0.1303  0.6040
  578MOL0     O76188   2.840   8.939  -0.681  0.7925 -0.8061  0.3637
  578MOL0     C76189   2.965   8.897  -0.726  0.2944 -0.0390  0.2398
  578MOL0     C76190   2.987   8.767  -0.773 -0.8667  0.4445 -0.9710
  578MOL0     C76191   3.113   8.723  -0.816 -0.0688 -0.0447 -0.6279
  578MOL0     C76192   3.225   8.806  -0.824  0.1104 -0.4743  0.5800
  578MOL0     C76193   3.350   8.759  -0.858 -0.8654  0.5493 -0.0409
  578MOL0     O76194   3.446   8.846  -0.908  0.4998  0.5233  0.7060
  578MOL0     C76195   3.571   8.801  -0.925 -0.8412  0.1223 -0.0044
  578MOL0     C76196   3.608   8.682  -0.990 -1.4327 -0.2979  0.4020
  578MOL0     C76197   3.744   8.634  -0.995  0.2232 -1.2479  0.5977
  578MOL0     C76198   3.844   8.729  -0.955  0.4206 -1.0356  0.5669
  578MOL0     O76199   3.979   8.707  -0.969 -0.4702  0.1533  0.3944
  578MOL0     C76200   4.017   8.565  -0.984  0.7563  0.6695  0.1864
  578MOL0     C76201   4.154   8.541  -0.919 -0.5225 -0.2268 -0.6236
  578MOL0     C76202   4.212   8.399  -0.942 -0.5563  0.5955 -0.3054
  578MOL0     C76203   4.125   8.297  -0.864  0.4465  0.4785 -0.3729
  578MOL0     C76204   4.181   8.151  -0.876  0.0811  0.4603  0.7103
  578MOL0     C76205   4.127   8.062  -0.767  0.6157  0.2610 -0.1855
  578MOL0     C76206   4.163   7.916  -0.790  0.5204  0.1636 -1.0585
  578MOL0     C76207   4.076   7.820  -0.703  0.0176 -0.8406  0.1953
  578MOL0    Cl76208   4.106   7.649  -0.718  0.1867 -0.2033  0.3715
  578MOL0     C76209   3.800   8.847  -0.889 -0.1098  0.1305 -0.1519
  578MOL0     C76210   3.675   8.883  -0.874  1.2003 -1.1208 -0.5269
  578MOL0     O76211   3.372   8.641  -0.836 -0.4956  0.0670 -1.1523
  578MOL0     C76212   3.208   8.940  -0.780  0.4415  0.8051 -0.5385
  578MOL0     C76213   3.076   8.979  -0.724 -0.6767  0.5392  0.4152
  578MOL0     N76214   2.488   8.743  -0.279 -0.1363 -0.4043 -0.1492
  578MOL0     N76215   2.490   8.679  -0.166  0.0136  0.0238 -0.3781
  578MOL0     C76216   2.393   9.063   0.939 -0.6358  0.1437 -0.2777
  578MOL0     C76217   2.459   9.122   1.044  0.2225  0.9846 -0.2853
  578MOL0     C76218   2.487   9.456   1.386  0.4634 -0.3548  0.4606
  578MOL0     C76219   2.429   9.534   1.483  0.5831 -0.6268  0.1847
  578MOL0     C76220   2.504   9.640   1.549  0.2971  1.0986  0.0435
  578MOL0     C76221   2.635   9.661   1.512  0.5346  0.3848 -0.5027
  578MOL0     O76222   2.720   9.750   1.573 -0.4212  0.3229  0.2246
  578MOL0     C76223   2.679   9.820   1.691 -0.0834  0.6479  0.8381
  578MOL0     C76224   2.737   9.969   1.670 -0.1912 -0.2727  0.0189
  578MOL0     C76225   2.663  10.053   1.572 -0.5763 -0.2965  1.0069
  578MOL0     C76226   2.683  10.202   1.596  0.4521  0.4409  0.0938
  578MOL0     C76227   2.821  10.250   1.597  0.5521 -0.9544 -0.7798
  578MOL0     C76228   2.934  10.279   1.591  0.2278 -0.2179  0.3475
  578MOL0     C76229   2.690   9.590   1.407  0.3464 -0.5298 -0.3674
  578MOL0     C76230   2.610   9.497   1.343 -0.2206  0.4600 -0.4376
  578MOL0     H76231   2.223   9.370   1.087 -1.2738 -2.1298  1.5237
  578MOL0     H76232   2.121   9.249   0.896  0.9192  1.1721 -1.5597
  578MOL0     H76233   2.128   9.198   0.699 -0.0898 -0.2461  0.7339
  578MOL0     H76234   2.076   9.032   0.639  2.6843 -2.5071 -0.8881
  578MOL0     H76235   2.357   9.148   0.591  1.6815 -1.5103 -1.2538
  578MOL0     H76236   2.214   9.169   0.487  0.4881  0.2710  0.3834
  578MOL0     H76237   2.200   8.917   0.479  0.9942 -1.6166  3.0189
  578MOL0     H76238   2.347   8.914   0.573 -0.7781 -0.5483  1.0718
  578MOL0     H76239   2.316   9.025   0.283  1.4992  1.1853  0.1849
  578MOL0     H76240   2.449   9.064   0.377  1.7804 -1.1520 -0.0783
  578MOL0     H76241   2.379   8.776   0.344  1.1955 -1.4356  1.7325
  578MOL0     H76242   2.521   8.827   0.418  0.7359  1.4965  0.5909
  578MOL0     H76243   2.612   8.901   0.184 -1.8307  4.5512 -0.4652
  578MOL0     H76244   2.455   8.900   0.119 -0.1441 -1.6101 -0.2387
  578MOL0     H76245   2.570   8.642   0.227 -1.8839  0.6578 -0.0878
  578MOL0     H76246   2.431   8.663   0.134 -0.3246 -1.1473  1.5550
  578MOL0     H76247   2.652   8.594   0.021 -0.9596 -0.9218  0.4683
  578MOL0     H76248   2.706   8.756   0.074 -1.4674  0.7368  2.4731
  578MOL0     H76249   2.614   8.968  -0.069 -1.0412 -1.4705  1.6288
  578MOL0     H76250   2.534   9.083  -0.313  1.8189  0.5163  0.0683
  578MOL0     H76251   2.443   8.969  -0.416  2.4437 -0.0377 -4.9276
  578MOL0     H76252   2.659   8.871  -0.501 -3.0193  0.0613 -0.0355
  578MOL0     H76253   2.763   8.971  -0.397 -0.1233  0.3672  0.5337
  578MOL0     H76254   2.602   9.057  -0.631  0.8514  1.0216 -0.8355
  578MOL0     H76255   2.659   9.169  -0.512 -1.9338 -0.3169 -0.6884
  578MOL0     H76256   2.902   9.091  -0.544  0.4229 -0.6075  0.3026
  578MOL0     H76257   2.829   9.153  -0.687  0.1771  1.3557  2.2146
  578MOL0     H76258   2.902   8.700  -0.770 -0.2859 -0.2921  1.7444
  578MOL0     H76259   3.120   8.621  -0.853  1.9807  0.6864 -2.4776
  578MOL0     H76260   3.523   8.630  -1.035 -0.6913  0.6347 -2.2737
  578MOL0     H76261   3.763   8.541  -1.047  0.4815 -1.3056  0.7927
  578MOL0     H76262   4.012   8.554  -1.093 -1.6351 -1.3550  0.3968
  578MOL0     H76263   3.933   8.507  -0.945  0.5600 -0.7572 -2.1574
  578MOL0     H76264   4.144   8.551  -0.810 -0.1479 -2.2485 -0.3498
  578MOL0     H76265   4.218   8.615  -0.967 -1.4926  0.5637 -0.7085
  578MOL0     H76266   4.315   8.408  -0.906 -0.7922  1.0749  0.2553
  578MOL0     H76267   4.221   8.375  -1.049  4.2961 -0.8774  0.1958
  578MOL0     H76268   4.121   8.323  -0.757  1.8651  0.1363 -0.2180
  578MOL0     H76269   4.023   8.299  -0.903 -0.2013  0.5266  1.2366
  578MOL0     H76270   4.290   8.161  -0.868  0.1949 -0.7552  0.7583
  578MOL0     H76271   4.148   8.101  -0.968 -0.0266 -0.6201  1.3219
  578MOL0     H76272   4.020   8.083  -0.763  0.8893  2.7579 -2.8108
  578MOL0     H76273   4.163   8.087  -0.666  0.9693 -1.5774  0.1680
  578MOL0     H76274   4.156   7.899  -0.898 -0.1600 -0.0199 -0.9897
  578MOL0     H76275   4.268   7.896  -0.765  1.4168  2.0291 -2.9874
  578MOL0     H76276   3.975   7.844  -0.737 -0.4709 -0.9217  1.5167
  578MOL0     H76277   4.086   7.857  -0.600 -2.7095  0.6784  0.0102
  578MOL0     H76278   3.881   8.908  -0.849  2.5526 -1.8300 -2.1834
  578MOL0     H76279   3.640   8.968  -0.817  1.9326 -1.8834  1.1215
  578MOL0     H76280   3.291   9.010  -0.775  3.4636 -2.1528 -4.0503
  578MOL0     H76281   3.062   9.083  -0.697 -2.9212  0.3614  0.1246
  578MOL0     H76282   2.437   8.977   0.891  0.9080  1.2444 -0.9105
  578MOL0     H76283   2.543   9.068   1.087  0.3194 -0.7407 -2.4739
  578MOL0     H76284   2.327   9.518   1.517  0.1200  1.3792 -0.1580
  578MOL0     H76285   2.448   9.697   1.623  0.6738  3.6604 -1.5429
  578MOL0     H76286   2.729   9.772   1.775  3.9942  2.4796 -0.2771
  578MOL0     H76287   2.572   9.839   1.702 -0.3157  1.0116 -1.5730
  578MOL0     H76288   2.740  10.018   1.767  1.4365 -1.4909  0.6235
  578MOL0     H76289   2.842   9.961   1.644  0.2407 -0.3391  1.6884
  578MOL0     H76290   2.556  10.031   1.576 -0.7667  0.6193  1.2184
  578MOL0     H76291   2.704  10.027   1.474 -0.9195  1.0824  0.4729
  578MOL0     H76292   2.638  10.253   1.510  0.9633 -0.0719 -0.4910
  578MOL0     H76293   2.633  10.235   1.688 -0.4161  0.0327 -0.2147
  578MOL0     H76294   3.034  10.297   1.558 -0.2987 -0.7236 -1.6865
  578MOL0     H76295   2.790   9.604   1.368  0.1473 -0.0396 -0.7118
  578MOL0     H76296   2.647   9.463   1.246  0.3937  0.8578 -0.3477
  579MOL0     O76297  10.365   5.238   9.817 -0.5519  0.5364  0.0636
  579MOL0     C76298  10.320   5.332   9.741 -0.1248  0.9904  0.0085
  579MOL0     O76299  10.372   5.463   9.732  0.6197  0.7153 -0.6577
  579MOL0     C76300  10.513   5.480   9.746  0.0930 -0.4458  0.4504
  579MOL0     C76301  10.605   5.398   9.813 -0.1996 -0.7602 -0.9141
  579MOL0     C76302  10.739   5.435   9.820  0.8564 -0.0789  0.1871
  579MOL0     C76303  10.778   5.559   9.776  0.1931  0.6542 -0.1126
  579MOL0     O76304  10.905   5.608   9.797  0.1648  0.7228  0.1933
  579MOL0     C76305  10.990   5.565   9.896  0.2930  0.6089  0.2638
  579MOL0     C76306  10.950   5.631  10.029  0.0963  0.2692  0.7188
  579MOL0     C76307  11.054   5.587  10.142  0.1668 -0.0567 -0.3835
  579MOL0     C76308  11.022   5.651  10.284  0.3790 -0.2229 -0.2859
  579MOL0     C76309  10.876   5.664  10.338  0.0446 -0.7400  0.4884
  579MOL0     C76310  10.783   5.535  10.331 -0.4733  0.8752  0.1735
  579MOL0     C76311  10.674   5.539  10.434 -0.1921  0.7067 -0.0458
  579MOL0     C76312  10.609   5.408  10.461  0.5338  0.5750 -0.3313
  579MOL0     N76313  10.703   5.307  10.521  0.4942 -0.0465 -0.2793
  579MOL0     C76314  10.782   5.305  10.634 -0.3724  0.4732 -0.1273
  579MOL0     C76315  10.848   5.184  10.620 -0.0405 -0.1937 -0.3425
  579MOL0     C76316  10.965   5.150  10.708 -0.4154 -0.3149  0.2391
  579MOL0     C76317  11.085   5.176  10.619  0.0798 -0.0950 -0.5178
  579MOL0     C76318  11.209   5.234  10.684 -0.2522 -0.0520 -0.3287
  579MOL0     C76319  11.320   5.139  10.714  0.3025  0.3546 -0.4424
  579MOL0     O76320  11.270   5.051  10.820  0.4463 -0.4126  1.0740
  579MOL0     C76321  11.363   4.962  10.854  0.4658  0.5591  0.3631
  579MOL0     C76322  11.331   4.832  10.824  0.1636  0.1533  0.1349
  579MOL0     C76323  11.408   4.727  10.857 -0.1733  0.2009  0.8421
  579MOL0     C76324  11.525   4.747  10.923  0.1766 -0.3057  0.9235
  579MOL0     C76325  11.613   4.637  10.973  0.0297 -0.0627  0.6157
  579MOL0     O76326  11.717   4.674  11.058 -1.0179 -0.0332 -0.1507
  579MOL0     C76327  11.837   4.606  11.071 -0.1593 -0.7760 -0.1576
  579MOL0     C76328  11.928   4.671  11.160  0.2918 -0.9554  0.5908
  579MOL0     C76329  12.059   4.629  11.176  0.2063  0.2277 -0.1272
  579MOL0     C76330  12.109   4.524  11.095 -0.0410 -0.4205  0.8736
  579MOL0     O76331  12.235   4.491  11.111  0.8290  0.6459 -0.4126
  579MOL0     C76332  12.295   4.407  11.009 -0.7342 -0.1060 -0.2265
  579MOL0     C76333  12.450   4.404  11.036 -0.6828  0.3436  0.3530
  579MOL0     C76334  12.522   4.313  10.938 -0.3373  0.2769 -0.5500
  579MOL0     C76335  12.596   4.184  11.008  0.4202 -0.6194 -0.4258
  579MOL0     C76336  12.707   4.141  10.912 -0.3055 -1.4260 -1.6961
  579MOL0     C76337  12.831   4.241  10.943  0.0471  0.1466 -0.1548
  579MOL0     C76338  12.941   4.219  10.844  0.4752 -0.1784 -0.5718
  579MOL0     C76339  12.911   4.250  10.699 -0.0912  0.2788 -0.1608
  579MOL0    Cl76340  13.070   4.251  10.612  0.0302  0.1420  0.6906
  579MOL0     C76341  12.016   4.460  11.005 -0.0545 -0.5136  0.1503
  579MOL0     C76342  11.888   4.504  10.992  0.0719  0.2406 -0.4886
  579MOL0     O76343  11.607   4.530  10.915 -0.5834  0.8888 -0.4947
  579MOL0     C76344  11.560   4.877  10.955 -0.0055  0.9216  0.3731
  579MOL0     C76345  11.481   4.988  10.921 -0.0630 -0.0121 -0.1095
  579MOL0     N76346  10.803   5.108  10.516 -0.1954  0.3106  0.9270
  579MOL0     N76347  10.706   5.186  10.465  0.1300 -0.1150 -0.5130
  579MOL0     C76348  10.689   5.637   9.710  0.4894 -0.0610  0.9495
  579MOL0     C76349  10.555   5.599   9.691  0.2210 -0.0250  0.6265
  579MOL0     C76350  10.186   5.303   9.693  0.5793  0.3588 -1.2848
  579MOL0     C76351  10.126   5.178   9.707  0.3896  0.3965  0.4748
  579MOL0     C76352  10.000   5.150   9.656  0.0675  0.1613  0.1713
  579MOL0     C76353   9.919   5.256   9.606 -1.3762 -0.2868  0.1916
  579MOL0     O76354   9.795   5.215   9.559  0.0247 -0.2900  0.5644
  579MOL0     C76355   9.704   5.310   9.517  0.0179 -0.6379 -0.0609
  579MOL0     C76356   9.566   5.264   9.503  0.1586  0.0114 -0.0228
  579MOL0     C76357   9.498   5.239   9.646 -0.0390 -0.0138 -0.0217
  579MOL0     C76358   9.347   5.220   9.640 -0.9200  0.1204  0.1274
  579MOL0     C76359   9.283   5.196   9.770 -0.1591 -0.5654 -0.3443
  579MOL0     C76360   9.228   5.176   9.879  0.1244  0.6676 -0.1385
  579MOL0     C76361   9.971   5.385   9.595 -0.1386 -0.5004 -0.2943
  579MOL0     C76362  10.101   5.412   9.650  0.1488  0.0131  0.9315
  579MOL0     H76363  10.575   5.309   9.868  2.7706 -1.9998 -1.0679
  579MOL0     H76364  10.806   5.366   9.871 -0.0416 -0.2911  1.0946
  579MOL0     H76365  11.093   5.597   9.877  0.7726 -2.1734 -2.7131
  579MOL0     H76366  10.989   5.456   9.895 -0.3823  0.6201 -0.8594
  579MOL0     H76367  10.847   5.610  10.059 -0.6048 -0.2632 -1.8137
  579MOL0     H76368  10.952   5.739  10.015 -1.8170  0.3156  0.6748
  579MOL0     H76369  11.159   5.597  10.114  0.6760 -0.8465  1.1936
  579MOL0     H76370  11.036   5.479  10.150  1.3278 -0.4098 -1.9798
  579MOL0     H76371  11.080   5.588  10.351  1.3585  1.8817  0.9607
  579MOL0     H76372  11.068   5.749  10.272  1.6468 -1.0512 -2.7609
  579MOL0     H76373  10.822   5.737  10.277  0.2384 -1.5064 -0.6386
  579MOL0     H76374  10.894   5.696  10.440 -2.8934  0.6710  0.6657
  579MOL0     H76375  10.847   5.450  10.357 -0.7398  0.8152  0.6462
  579MOL0     H76376  10.741   5.519  10.232 -2.1591  0.3931  0.9369
  579MOL0     H76377  10.713   5.572  10.531 -1.2830  1.0856  0.2711
  579MOL0     H76378  10.607   5.613  10.389  1.0102  1.6779 -0.2950
  579MOL0     H76379  10.560   5.357  10.378  0.5881 -2.9570  1.5831
  579MOL0     H76380  10.526   5.426  10.531 -1.1962 -0.8594 -1.8985
  579MOL0     H76381  10.787   5.382  10.710 -1.6725  1.7312 -1.2508
  579MOL0     H76382  10.958   5.048  10.746  0.4043  0.4550  2.5898
  579MOL0     H76383  10.971   5.218  10.793  0.9093  0.8956 -0.7733
  579MOL0     H76384  11.071   5.247  10.537  0.2901 -0.4278 -0.8450
  579MOL0     H76385  11.121   5.087  10.567 -1.3413 -0.3980 -1.0084
  579MOL0     H76386  11.251   5.316  10.626  2.0302 -0.6554  0.3892
  579MOL0     H76387  11.174   5.271  10.781 -0.0631 -1.8677  0.4835
  579MOL0     H76388  11.401   5.202  10.753  1.9893 -3.6295  3.3493
  579MOL0     H76389  11.365   5.088  10.628 -0.2983 -3.2148  1.1694
  579MOL0     H76390  11.240   4.822  10.766  1.0309 -2.1947 -0.9356
  579MOL0     H76391  11.378   4.627  10.827  1.2806  0.6376 -2.5486
  579MOL0     H76392  11.890   4.754  11.219 -0.7587 -0.9828 -0.0188
  579MOL0     H76393  12.129   4.676  11.243 -0.3096  1.4647 -0.4163
  579MOL0     H76394  12.277   4.449  10.910  2.6566  1.7606 -0.2371
  579MOL0     H76395  12.260   4.304  11.023 -0.3200 -0.2739 -0.4204
  579MOL0     H76396  12.467   4.369  11.138  1.1531 -0.8158 -0.2905
  579MOL0     H76397  12.486   4.508  11.035 -2.2550  1.0298  3.6232
  579MOL0     H76398  12.598   4.374  10.890  0.0681 -1.0007 -1.5943
  579MOL0     H76399  12.449   4.274  10.866 -1.6297  2.2880 -0.3921
  579MOL0     H76400  12.624   4.216  11.109  1.5047 -0.5994 -0.7181
  579MOL0     H76401  12.513   4.114  11.019 -1.5951  1.7681  0.3120
  579MOL0     H76402  12.667   4.132  10.810 -2.0328 -1.3952 -1.0560
  579MOL0     H76403  12.746   4.043  10.941  3.0195  0.3703  0.5238
  579MOL0     H76404  12.857   4.217  11.047 -1.2423 -2.2892 -0.3076
  579MOL0     H76405  12.802   4.346  10.946  2.8545  0.9708  1.5125
  579MOL0     H76406  13.023   4.283  10.875 -0.7961  0.0211  2.7353
  579MOL0     H76407  12.981   4.117  10.850  2.8623  0.7237 -0.3995
  579MOL0     H76408  12.873   4.353  10.704 -1.2642 -0.1288 -0.2139
  579MOL0     H76409  12.840   4.182  10.651 -0.3304 -0.0543  0.6540
  579MOL0     H76410  12.058   4.374  10.953  1.9656  1.5182 -1.8542
  579MOL0     H76411  11.829   4.472  10.907 -1.9191  0.3513  0.7801
  579MOL0     H76412  11.645   4.907  11.015 -2.2331  4.2674  2.2085
  579MOL0     H76413  11.483   5.095  10.940 -2.5475  0.2780 -1.0772
  579MOL0     H76414  10.719   5.731   9.665  1.5890 -2.5691 -4.3237
  579MOL0     H76415  10.495   5.652   9.618 -0.2049 -1.5311 -0.1620
  579MOL0     H76416  10.185   5.096   9.746  1.6935  0.7567 -0.6734
  579MOL0     H76417   9.961   5.051   9.677 -0.5960  0.3690 -0.0687
  579MOL0     H76418   9.732   5.350   9.419 -0.0006  0.5475  0.4023
  579MOL0     H76419   9.695   5.393   9.588 -1.1142  0.8136 -1.7685
  579MOL0     H76420   9.509   5.338   9.447  0.1714  0.0614  0.0287
  579MOL0     H76421   9.563   5.171   9.446 -0.4685  0.9047 -1.4891
  579MOL0     H76422   9.528   5.321   9.710  1.2709  3.9320 -5.0338
  579MOL0     H76423   9.532   5.147   9.695 -1.1823 -0.4886 -0.0829
  579MOL0     H76424   9.296   5.305   9.595  1.2673  0.5950 -1.6117
  579MOL0     H76425   9.315   5.141   9.571 -1.5164  1.8972 -1.7281
  579MOL0     H76426   9.152   5.167   9.953 -0.8625  2.9727 -0.7754
  579MOL0     H76427   9.913   5.465   9.550  2.2040  1.0785 -0.6639
  579MOL0     H76428  10.142   5.512   9.642 -1.3809  0.5518 -0.7788
  580MOL0     O76429   9.889   5.024   8.173 -0.3003  0.6041 -1.0448
  580MOL0     C76430   9.907   5.054   8.057  0.3316  0.7178  0.4200
  580MOL0     O76431   9.807   5.083   7.966 -0.3551 -0.2328 -0.2451
  580MOL0     C76432   9.678   5.104   8.016 -0.3028  0.7835  0.5645
  580MOL0     C76433   9.591   4.993   8.026  0.5076  0.3160  0.0029
  580MOL0     C76434   9.468   5.001   8.080 -0.9989 -0.2720 -0.0662
  580MOL0     C76435   9.425   5.122   8.130 -0.6843 -0.0457 -0.2056
  580MOL0     O76436   9.305   5.126   8.190  0.2082 -0.0008  1.0070
  580MOL0     C76437   9.243   5.251   8.236 -1.2344 -0.2525 -0.0847
  580MOL0     C76438   9.097   5.236   8.274 -0.4732 -0.9234  0.8569
  580MOL0     C76439   9.008   5.226   8.152  0.5765 -0.0864 -0.2259
  580MOL0     C76440   8.858   5.239   8.181 -0.5975  0.0625 -0.1527
  580MOL0     C76441   8.780   5.307   8.063  0.3361 -0.5396 -0.2165
  580MOL0     C76442   8.750   5.221   7.933 -0.4652 -0.3233  0.0374
  580MOL0     C76443   8.651   5.093   7.960  0.1310 -0.3257  0.3689
  580MOL0     C76444   8.508   5.127   7.960  0.3871  0.8132 -0.8845
  580MOL0     N76445   8.426   5.005   7.937 -0.2776  0.1684  0.2646
  580MOL0     C76446   8.429   4.892   8.008  0.2944  0.6432  0.8479
  580MOL0     C76447   8.330   4.811   7.959  0.7332  0.4206 -0.6623
  580MOL0     C76448   8.291   4.682   8.036 -0.8606 -0.0736 -0.1176
  580MOL0     C76449   8.145   4.648   8.032 -0.9438  0.4031  0.7130
  580MOL0     C76450   8.119   4.605   7.891 -0.3009 -0.8342  0.1107
  580MOL0     C76451   7.970   4.561   7.873  0.6017 -0.7120 -0.8018
  580MOL0     O76452   7.926   4.461   7.964 -0.0571 -0.8658 -0.0083
  580MOL0     C76453   7.786   4.443   7.965  0.6927 -0.6119 -0.5666
  580MOL0     C76454   7.714   4.434   7.848  0.1204  0.8892  0.3158
  580MOL0     C76455   7.567   4.442   7.852 -0.3589 -0.1395 -0.3828
  580MOL0     C76456   7.504   4.444   7.975  1.0850 -1.1265  0.6452
  580MOL0     C76457   7.349   4.415   7.981  0.2614  0.1194 -0.3678
  580MOL0     O76458   7.278   4.425   8.104  0.4195  0.2713  0.1709
  580MOL0     C76459   7.147   4.389   8.100 -0.9668  0.6967  0.0716
  580MOL0     C76460   7.112   4.255   8.068  0.0594  0.1429 -0.1249
  580MOL0     C76461   6.976   4.230   8.074  0.0760  0.3107  0.1437
  580MOL0     C76462   6.873   4.329   8.101 -0.0640 -0.1480  0.2274
  580MOL0     O76463   6.740   4.294   8.089 -0.6246  0.5696  0.3651
  580MOL0     C76464   6.697   4.180   8.005  0.2607  0.0285 -1.1476
  580MOL0     C76465   6.541   4.184   7.978  0.2195  0.3498  0.1854
  580MOL0     C76466   6.479   4.142   8.118  1.1521  1.5461 -0.2498
  580MOL0     C76467   6.333   4.100   8.091 -0.5139 -0.0804  0.4413
  580MOL0     C76468   6.251   4.089   8.217 -0.1411 -0.0367 -0.1350
  580MOL0     C76469   6.108   4.029   8.198 -0.0990 -0.3327  0.1973
  580MOL0     C76470   6.044   4.019   8.330 -0.0014  0.5585  1.1669
  580MOL0     C76471   5.956   3.896   8.344  0.0616  0.3064 -0.7857
  580MOL0    Cl76472   6.058   3.761   8.342  0.6081 -0.7933 -0.4181
  580MOL0     C76473   6.920   4.457   8.123  0.1656  0.8517  0.3843
  580MOL0     C76474   7.053   4.487   8.127 -0.2587  0.1792 -0.2486
  580MOL0     O76475   7.295   4.379   7.875 -0.0141 -0.5206  0.8766
  580MOL0     C76476   7.577   4.442   8.089 -0.5044  0.0151 -0.4364
  580MOL0     C76477   7.719   4.448   8.091 -0.2160  0.1707 -0.0077
  580MOL0     N76478   8.270   4.879   7.855  0.0151 -0.6724 -1.3447
  580MOL0     N76479   8.324   4.990   7.841 -0.4364 -0.6939 -0.5359
  580MOL0     C76480   9.517   5.234   8.136 -0.1715  0.3911  0.1071
  580MOL0     C76481   9.650   5.227   8.080  0.4722  0.3798 -0.0148
  580MOL0     C76482  10.045   5.060   7.998  0.3923  0.2296 -0.7964
  580MOL0     C76483  10.155   5.030   8.081 -0.0115  0.2224 -0.0005
  580MOL0     C76484  10.283   5.051   8.038 -0.6198 -1.3593 -0.2175
  580MOL0     C76485  10.307   5.104   7.906  0.3976 -0.6842  0.0952
  580MOL0     O76486  10.442   5.124   7.871 -0.1764  0.1538  0.3265
  580MOL0     C76487  10.475   5.205   7.752 -0.4427 -0.5729 -0.2233
  580MOL0     C76488  10.405   5.350   7.761 -0.0197 -0.3518 -0.4001
  580MOL0     C76489  10.404   5.420   7.623 -0.8486 -0.2897 -0.3602
  580MOL0     C76490  10.369   5.564   7.634  0.3322  0.1227 -0.0910
  580MOL0     C76491  10.406   5.650   7.530  0.3225 -0.6036 -0.4262
  580MOL0     C76492  10.450   5.726   7.445 -0.5845 -0.3991  0.4138
  580MOL0     C76493  10.203   5.122   7.817  0.3184 -0.2903 -0.2416
  580MOL0     C76494  10.078   5.100   7.869 -0.2701 -0.7370 -0.2819
  580MOL0     H76495   9.617   4.895   7.989  0.1376 -0.1452  0.9341
  580MOL0     H76496   9.408   4.911   8.071 -0.0756 -0.9191  0.0517
  580MOL0     H76497   9.250   5.329   8.159  3.9388  0.9607  1.2247
  580MOL0     H76498   9.305   5.286   8.319  0.6134 -0.6480 -1.2301
  580MOL0     H76499   9.067   5.326   8.329 -0.6815 -0.8605  0.6427
  580MOL0     H76500   9.084   5.153   8.343  2.2339 -1.6232  0.6297
  580MOL0     H76501   9.033   5.129   8.108 -1.2808 -0.9674  0.5371
  580MOL0     H76502   9.031   5.309   8.086 -0.5445 -1.3779 -2.3437
  580MOL0     H76503   8.803   5.154   8.222 -0.6291  0.3869  0.4909
  580MOL0     H76504   8.859   5.315   8.259  2.7901 -1.2938  1.3290
  580MOL0     H76505   8.818   5.404   8.030 -0.3050  0.1094  0.8585
  580MOL0     H76506   8.680   5.329   8.101 -0.3684 -1.2355 -1.6112
  580MOL0     H76507   8.845   5.185   7.892  0.9920 -0.0514  2.9386
  580MOL0     H76508   8.697   5.281   7.858  0.9891 -1.5410 -2.1021
  580MOL0     H76509   8.675   5.025   7.878  2.7994  0.1428  0.6571
  580MOL0     H76510   8.676   5.040   8.053  0.5354  0.0388  0.4720
  580MOL0     H76511   8.478   5.203   7.887 -2.3555  0.0666 -0.6444
  580MOL0     H76512   8.487   5.173   8.057  0.1948 -1.4587  0.2148
  580MOL0     H76513   8.488   4.852   8.090 -0.0010 -0.4283  0.5519
  580MOL0     H76514   8.303   4.706   8.142 -3.4776  1.6094 -0.1141
  580MOL0     H76515   8.353   4.603   7.994 -1.1161 -0.5913  0.4692
  580MOL0     H76516   8.081   4.735   8.053  0.3788  2.0644 -1.7110
  580MOL0     H76517   8.127   4.557   8.090 -0.2712 -0.4126 -0.3434
  580MOL0     H76518   8.131   4.679   7.811 -3.1209 -0.6980 -0.2921
  580MOL0     H76519   8.179   4.518   7.863 -0.5840 -0.5446 -1.5306
  580MOL0     H76520   7.963   4.527   7.770 -1.0978  1.2727 -1.4130
  580MOL0     H76521   7.903   4.647   7.877 -0.7663 -1.5635 -3.3801
  580MOL0     H76522   7.764   4.429   7.751  0.3010 -1.3804  0.4683
  580MOL0     H76523   7.510   4.447   7.760  2.3530  0.4877 -2.1461
  580MOL0     H76524   7.181   4.177   8.037 -1.1875  0.1595 -3.4147
  580MOL0     H76525   6.952   4.125   8.065  0.7925  0.1804 -0.4243
  580MOL0     H76526   6.735   4.090   8.054  3.4197 -0.2864 -3.7982
  580MOL0     H76527   6.750   4.190   7.910  2.0353 -0.8380 -0.2784
  580MOL0     H76528   6.517   4.122   7.890 -2.3975  1.0510  0.3079
  580MOL0     H76529   6.514   4.286   7.951 -3.5555 -0.4236  0.3711
  580MOL0     H76530   6.473   4.232   8.179 -1.9090  1.3040 -0.0424
  580MOL0     H76531   6.532   4.062   8.171  2.7200  2.3325 -0.5912
  580MOL0     H76532   6.288   4.181   8.033  1.9540  2.8200  2.2874
  580MOL0     H76533   6.334   4.007   8.034 -1.7259 -0.0340  0.3042
  580MOL0     H76534   6.245   4.186   8.267  0.2699  0.8683 -1.7512
  580MOL0     H76535   6.307   4.024   8.285  0.7639  0.0442 -0.7818
  580MOL0     H76536   6.126   3.935   8.144  2.0508  0.0620  0.1340
  580MOL0     H76537   6.053   4.093   8.129 -2.1431 -1.4671  0.7021
  580MOL0     H76538   6.118   4.014   8.410  0.0902  4.5146  1.5593
  580MOL0     H76539   5.992   4.114   8.348  1.1722  2.0514 -2.4235
  580MOL0     H76540   5.882   3.892   8.264 -3.2234 -1.2639  2.0329
  580MOL0     H76541   5.901   3.907   8.438 -1.7441 -0.6991 -1.6758
  580MOL0     H76542   6.838   4.528   8.126  0.2237  0.8990  1.1243
  580MOL0     H76543   7.074   4.588   8.160 -0.4397 -0.4572  2.0477
  580MOL0     H76544   7.522   4.439   8.183 -1.8629  1.4439 -1.1420
  580MOL0     H76545   7.769   4.450   8.187 -2.6078 -0.3457  1.3253
  580MOL0     H76546   9.500   5.332   8.179  0.3607  1.3397 -1.7343
  580MOL0     H76547   9.720   5.310   8.076  2.0397 -0.9225 -0.9945
  580MOL0     H76548  10.139   4.987   8.179 -1.9191  1.4529  0.2855
  580MOL0     H76549  10.367   5.028   8.103  0.2659 -0.3897 -1.0001
  580MOL0     H76550  10.451   5.146   7.663 -1.7306  0.3873 -0.5427
  580MOL0     H76551  10.582   5.222   7.739 -0.5646  0.5925  0.1971
  580MOL0     H76552  10.304   5.342   7.801 -0.6210 -0.8937 -1.9259
  580MOL0     H76553  10.465   5.415   7.826  2.4325 -0.0826 -2.7313
  580MOL0     H76554  10.351   5.362   7.547  4.8678 -1.0121 -4.3835
  580MOL0     H76555  10.505   5.409   7.582 -0.1365 -1.7762  1.6625
  580MOL0     H76556  10.260   5.574   7.643  0.0753 -2.6927  0.8648
  580MOL0     H76557  10.411   5.609   7.724 -0.8770  2.3867 -0.5762
  580MOL0     H76558  10.485   5.781   7.360 -2.2977 -0.7654 -0.5767
  580MOL0     H76559  10.211   5.139   7.710 -2.3911  0.2604 -0.4311
  580MOL0     H76560   9.998   5.119   7.797 -1.8819 -0.8837  1.3792
  581MOL0     O76561   3.638   4.770   9.994  0.0980 -0.2351  0.6579
  581MOL0     C76562   3.720   4.699  10.044  0.6602 -0.4449  0.4386
  581MOL0     O76563   3.697   4.575  10.103  0.0260 -0.1795  0.5315
  581MOL0     C76564   3.590   4.507  10.062 -0.1577 -0.1038 -0.5836
  581MOL0     C76565   3.545   4.410  10.148  0.1826  0.2941 -0.0928
  581MOL0     C76566   3.430   4.330  10.110  0.2251 -0.1064  0.3625
  581MOL0     C76567   3.361   4.335   9.992 -0.1920  0.2639  0.1181
  581MOL0     O76568   3.243   4.280   9.965  0.7577  0.1855  0.7210
  581MOL0     C76569   3.160   4.219  10.068  0.4452  0.8595  0.1862
  581MOL0     C76570   3.018   4.184  10.018 -0.5115  0.4723  0.4622
  581MOL0     C76571   2.919   4.104  10.107 -0.8998  0.1996  0.2846
  581MOL0     C76572   2.995   3.972  10.164  0.2408  0.2474 -0.6290
  581MOL0     C76573   2.888   3.873  10.205 -0.2499  0.1987 -0.2658
  581MOL0     C76574   2.940   3.753  10.276  0.4625 -0.2402  0.3056
  581MOL0     C76575   2.827   3.676  10.329 -0.2328  0.5474  0.1320
  581MOL0     C76576   2.798   3.676  10.485  0.1956 -0.1895 -0.3722
  581MOL0     N76577   2.707   3.782  10.522 -0.2930 -0.2319 -0.3987
  581MOL0     C76578   2.585   3.763  10.580  0.4195  0.8751  1.0249
  581MOL0     C76579   2.545   3.881  10.623  0.1035  0.0739  0.8956
  581MOL0     C76580   2.420   3.907  10.690 -0.2094 -0.1859  0.8018
  581MOL0     C76581   2.424   4.040  10.775  0.1761  0.3904 -0.7728
  581MOL0     C76582   2.395   4.165  10.696 -0.2280  0.6271  0.7225
  581MOL0     C76583   2.399   4.301  10.767 -0.1862  0.7672 -0.4533
  581MOL0     O76584   2.288   4.333  10.849 -0.1234 -0.2087  0.0183
  581MOL0     C76585   2.178   4.397  10.804 -0.4851 -0.2149  0.6032
  581MOL0     C76586   2.163   4.465  10.686 -0.4173 -0.2833 -0.3089
  581MOL0     C76587   2.036   4.525  10.652  0.1279 -1.6742 -0.2410
  581MOL0     C76588   1.927   4.512  10.739  0.7206 -0.3155 -0.4985
  581MOL0     C76589   1.800   4.584  10.694 -0.4590  0.5443 -0.2512
  581MOL0     O76590   1.713   4.609  10.796  0.0612  0.4224 -0.1192
  581MOL0     C76591   1.601   4.675  10.775  0.3877  0.2616 -0.4391
  581MOL0     C76592   1.492   4.629  10.848  0.1625  0.0521 -0.5174
  581MOL0     C76593   1.360   4.680  10.821 -0.4016 -0.9137 -1.1332
  581MOL0     C76594   1.339   4.785  10.734  0.8289 -0.2734 -0.1995
  581MOL0     O76595   1.217   4.851  10.723  0.0280 -1.3812  0.1384
  581MOL0     C76596   1.164   4.896  10.596  0.2796  0.5759 -0.8929
  581MOL0     C76597   1.022   4.938  10.628 -0.6370  0.0048 -0.1229
  581MOL0     C76598   0.926   4.820  10.637 -0.5000 -0.1785 -0.2034
  581MOL0     C76599   0.784   4.873  10.625  0.6135  0.3961  0.4890
  581MOL0     C76600   0.680   4.774  10.684  0.4261  0.7216 -0.3080
  581MOL0     C76601   0.656   4.806  10.829 -0.2528 -0.7431 -0.3273
  581MOL0     C76602   0.587   4.947  10.862 -0.3209 -0.3400  0.5174
  581MOL0     C76603   0.457   4.954  10.788  0.2282  0.1988 -0.5666
  581MOL0    Cl76604   0.398   5.103  10.853  0.7645  0.5700  0.2216
  581MOL0     C76605   1.453   4.840  10.670  0.1539 -0.2594  0.0498
  581MOL0     C76606   1.578   4.787  10.697  0.1117 -0.1565 -0.7983
  581MOL0     O76607   1.784   4.620  10.575  0.0644  0.5475 -0.2926
  581MOL0     C76608   1.952   4.457  10.870  0.5018  0.2701  0.2270
  581MOL0     C76609   2.077   4.402  10.894  0.0008 -0.8972  0.5965
  581MOL0     N76610   2.648   3.974  10.597  0.2335  0.1192  0.0418
  581MOL0     N76611   2.743   3.911  10.533  0.4630  0.3299  0.0018
  581MOL0     C76612   3.422   4.419   9.900  0.6113  0.5201  0.7952
  581MOL0     C76613   3.522   4.512   9.933 -0.7048 -0.4472 -0.6446
  581MOL0     C76614   3.856   4.762  10.045 -0.3237  0.0875 -0.9738
  581MOL0     C76615   3.885   4.885   9.977 -0.4532  0.6272 -0.1243
  581MOL0     C76616   4.013   4.941   9.982  0.0321  0.4363  0.3018
  581MOL0     C76617   4.122   4.883  10.049 -0.0209  0.4702 -0.0501
  581MOL0     O76618   4.241   4.942  10.082  0.1831  0.0185  0.5104
  581MOL0     C76619   4.280   5.063   9.998 -0.8750  0.2864  0.9829
  581MOL0     C76620   4.291   5.196  10.074  0.1093 -0.0518  0.3928
  581MOL0     C76621   4.159   5.267  10.088  0.0066  1.1973 -0.6034
  581MOL0     C76622   4.165   5.418  10.116 -0.6256  0.6277 -0.6485
  581MOL0     C76623   4.038   5.477  10.120 -0.1327 -0.3540  0.1129
  581MOL0     C76624   3.925   5.514  10.101  0.6215  0.4273  0.4143
  581MOL0     C76625   4.081   4.766  10.126 -0.1405 -0.2420 -0.0445
  581MOL0     C76626   3.957   4.711  10.128  0.0116  0.9676  0.6898
  581MOL0     H76627   3.594   4.386  10.242  0.7356 -3.8004 -1.2627
  581MOL0     H76628   3.390   4.253  10.176 -0.5369 -1.1048 -1.2057
  581MOL0     H76629   3.144   4.295  10.145 -1.9839 -0.1306  0.7653
  581MOL0     H76630   3.211   4.126  10.093  2.6779  1.5017 -1.6225
  581MOL0     H76631   3.023   4.120   9.930  3.1156  1.1482  0.0349
  581MOL0     H76632   2.974   4.281   9.992  0.5259  0.6559 -0.6918
  581MOL0     H76633   2.834   4.077  10.044  0.1167  0.8309 -1.4193
  581MOL0     H76634   2.884   4.148  10.201 -1.5757  0.0044  0.1285
  581MOL0     H76635   3.054   3.933  10.081  1.0229  2.2071 -1.0692
  581MOL0     H76636   3.067   3.985  10.245  0.4603 -1.2803 -0.5614
  581MOL0     H76637   2.828   3.832  10.123  0.0979  1.8540 -1.3938
  581MOL0     H76638   2.820   3.926  10.272  0.2734  1.0934 -0.4340
  581MOL0     H76639   3.002   3.778  10.362 -1.8799  1.8275  1.5503
  581MOL0     H76640   2.999   3.697  10.203  0.9747  0.3428  0.2672
  581MOL0     H76641   2.732   3.709  10.288 -0.8827  0.9271  1.8551
  581MOL0     H76642   2.825   3.577  10.283  0.6815  0.6021 -0.0475
  581MOL0     H76643   2.885   3.689  10.551 -1.7010 -0.6590  2.3896
  581MOL0     H76644   2.759   3.576  10.503  1.7476 -0.8083 -0.2940
  581MOL0     H76645   2.532   3.670  10.595  1.1552  0.4799  1.2286
  581MOL0     H76646   2.404   3.822  10.756  3.1207 -1.5612  0.0685
  581MOL0     H76647   2.335   3.899  10.622 -0.3483 -0.1933  0.9749
  581MOL0     H76648   2.514   4.048  10.836 -0.6055  2.4339  0.1953
  581MOL0     H76649   2.346   4.036  10.852  0.6333  1.8775 -0.2043
  581MOL0     H76650   2.466   4.164  10.613  1.0839 -0.8725  1.7938
  581MOL0     H76651   2.291   4.167  10.663  0.1830 -0.5123 -0.7077
  581MOL0     H76652   2.411   4.381  10.693 -1.6822 -0.8959 -2.6389
  581MOL0     H76653   2.495   4.291  10.818 -0.0661 -0.5235 -0.8873
  581MOL0     H76654   2.239   4.466  10.608 -0.7006  1.5728 -0.6044
  581MOL0     H76655   2.035   4.581  10.559 -0.0798 -1.2111  0.0379
  581MOL0     H76656   1.499   4.551  10.924 -0.2561  1.1932  0.7175
  581MOL0     H76657   1.280   4.656  10.890 -0.5704 -0.3432 -1.1274
  581MOL0     H76658   1.172   4.827  10.512  0.9388 -2.2185  1.3349
  581MOL0     H76659   1.218   4.988  10.569  0.4921  0.7367  0.0582
  581MOL0     H76660   0.990   5.006  10.549 -1.4070 -3.1519 -2.7643
  581MOL0     H76661   1.037   4.982  10.727  0.3710 -0.9177  0.1636
  581MOL0     H76662   0.932   4.759  10.727 -1.8918  1.4317  1.0611
  581MOL0     H76663   0.932   4.755  10.549  0.3656 -0.8146  0.3200
  581MOL0     H76664   0.769   4.973  10.666  1.5819  1.8452 -2.3674
  581MOL0     H76665   0.761   4.881  10.518  2.8680  0.4267 -0.0489
  581MOL0     H76666   0.709   4.669  10.671  0.2137  0.3746  1.7459
  581MOL0     H76667   0.586   4.784  10.630  0.4054 -1.5625 -0.7849
  581MOL0     H76668   0.753   4.801  10.880  0.5967 -3.8931 -2.0216
  581MOL0     H76669   0.604   4.725  10.881 -1.6565  2.3678  3.6808
  581MOL0     H76670   0.570   4.947  10.970  0.2616 -0.2866  0.6116
  581MOL0     H76671   0.644   5.037  10.839  3.1159 -2.4670 -0.0691
  581MOL0     H76672   0.397   4.866  10.815 -0.3752  0.6790 -0.3274
  581MOL0     H76673   0.463   4.958  10.679  0.4640  2.1480 -0.5041
  581MOL0     H76674   1.424   4.909  10.592 -1.3422 -1.4559 -0.5090
  581MOL0     H76675   1.661   4.815  10.633  0.9721 -0.1921  0.2716
  581MOL0     H76676   1.892   4.452  10.961  0.2213  2.9459  0.2586
  581MOL0     H76677   2.118   4.352  10.982  2.7808 -0.8930 -0.5724
  581MOL0     H76678   3.381   4.430   9.799  2.9876  0.9815 -0.1791
  581MOL0     H76679   3.554   4.578   9.854 -2.3191  0.8843 -0.2586
  581MOL0     H76680   3.816   4.946   9.920 -0.8155 -0.1106 -0.5001
  581MOL0     H76681   4.029   5.034   9.930  0.8436  0.6586  0.9226
  581MOL0     H76682   4.234   5.083   9.901  1.7376 -2.2265 -0.9301
  581MOL0     H76683   4.386   5.041   9.983 -0.9567 -0.5102  1.5421
  581MOL0     H76684   4.341   5.161  10.165 -1.8503  0.3282  1.6671
  581MOL0     H76685   4.352   5.277  10.032 -0.7294 -0.5550 -1.9650
  581MOL0     H76686   4.105   5.212  10.166 -2.6320  1.1957 -2.2972
  581MOL0     H76687   4.102   5.253   9.996 -2.6464 -3.2371  1.3876
  581MOL0     H76688   4.206   5.432  10.216 -1.2042  1.0987 -0.4735
  581MOL0     H76689   4.220   5.463  10.032 -0.7664  0.9086 -0.5916
  581MOL0     H76690   3.824   5.548  10.104 -0.1326 -1.4283 -1.1375
  581MOL0     H76691   4.161   4.735  10.193  0.4586  1.5108  0.1045
  581MOL0     H76692   3.927   4.633  10.198  0.3570  0.0878 -0.1205
  582MOL0     O76693   0.682   1.574  11.074 -0.1512 -0.2240 -0.2885
  582MOL0     C76694   0.605   1.634  11.006 -0.3312  0.1204  0.0678
  582MOL0     O76695   0.627   1.717  10.900 -0.4174 -0.4322 -0.7483
  582MOL0     C76696   0.750   1.781  10.888  1.2307  0.2318  0.5723
  582MOL0     C76697   0.857   1.803  10.975 -0.4358  0.1866 -0.5624
  582MOL0     C76698   0.972   1.859  10.935  0.0432 -0.1146  0.7527
  582MOL0     C76699   0.990   1.914  10.805 -0.3907  0.1438  0.3810
  582MOL0     O76700   1.095   1.989  10.768  0.0170 -0.2863 -0.7508
  582MOL0     C76701   1.205   2.005  10.857  0.0745  0.4434 -0.2476
  582MOL0     C76702   1.276   2.129  10.812 -0.4141  0.1664  0.1298
  582MOL0     C76703   1.383   2.183  10.912 -0.4824  0.0244  0.1095
  582MOL0     C76704   1.427   2.329  10.889  0.7202 -0.2899 -0.0331
  582MOL0     C76705   1.500   2.384  11.010 -0.8570 -0.6016  0.2103
  582MOL0     C76706   1.545   2.531  10.981  0.8665  0.1826 -0.0363
  582MOL0     C76707   1.583   2.616  11.107  0.1432  0.6719  0.7873
  582MOL0     C76708   1.467   2.643  11.196  0.1610  0.3961  0.0671
  582MOL0     N76709   1.517   2.678  11.324 -0.3095  0.3227 -0.3456
  582MOL0     C76710   1.445   2.647  11.434 -0.0267  0.4805  1.0450
  582MOL0     C76711   1.514   2.707  11.536  1.1887  0.0029  0.6555
  582MOL0     C76712   1.461   2.720  11.671  1.1532  0.0202  0.4082
  582MOL0     C76713   1.502   2.850  11.737  0.4414 -0.1673  0.4074
  582MOL0     C76714   1.420   2.970  11.674 -0.3918 -0.7678  0.4698
  582MOL0     C76715   1.461   3.098  11.738  0.0721  0.6226 -0.6035
  582MOL0     O76716   1.381   3.088  11.862  0.3237  0.5684 -0.0916
  582MOL0     C76717   1.246   3.147  11.875  0.5754  1.0045 -0.0933
  582MOL0     C76718   1.169   3.110  11.987 -0.0466 -0.2133 -0.4366
  582MOL0     C76719   1.041   3.161  11.999  0.3219 -1.0680 -0.6085
  582MOL0     C76720   0.968   3.226  11.894 -0.7323  0.5085 -0.2701
  582MOL0     C76721   0.829   3.248  11.913  0.6501 -0.1957  0.6785
  582MOL0     O76722   0.767   3.270  11.790  0.8241  0.0092  0.3022
  582MOL0     C76723   0.633   3.236  11.760  0.6928 -0.0409 -0.8371
  582MOL0     C76724   0.563   3.136  11.828 -0.4101 -0.6062 -0.1834
  582MOL0     C76725   0.430   3.115  11.800 -0.2406 -0.3143 -0.5725
  582MOL0     C76726   0.366   3.198  11.714 -0.3382  0.2315  0.4354
  582MOL0     O76727   0.243   3.165  11.673  0.9393  0.1168  0.0123
  582MOL0     C76728   0.135   3.255  11.671  0.1018 -0.5228 -1.5573
  582MOL0     C76729   0.009   3.190  11.721 -0.3154 -0.1371  0.9150
  582MOL0     C76730  -0.012   3.051  11.665  0.7223  0.6746 -0.1071
  582MOL0     C76731  -0.162   3.012  11.653 -0.8340 -0.0512 -0.4418
  582MOL0     C76732  -0.184   2.878  11.597 -0.2700  1.0598  0.3078
  582MOL0     C76733  -0.329   2.829  11.594 -0.3709  0.6996  1.5812
  582MOL0     C76734  -0.342   2.683  11.568  0.0716  0.6056 -0.2545
  582MOL0     C76735  -0.459   2.589  11.616 -0.2505 -0.1051 -1.0351
  582MOL0    Cl76736  -0.586   2.555  11.493 -0.0101 -0.1970 -0.6887
  582MOL0     C76737   0.432   3.307  11.655 -0.5563 -0.5058 -0.5306
  582MOL0     C76738   0.571   3.326  11.678 -0.9087 -0.5420  0.2386
  582MOL0     O76739   0.771   3.249  12.017 -0.6139 -0.1877 -0.6355
  582MOL0     C76740   1.041   3.252  11.776  0.3165 -0.5690  0.0605
  582MOL0     C76741   1.179   3.216  11.771 -1.2310 -0.4209 -0.2852
  582MOL0     N76742   1.628   2.760  11.487  0.0098  0.7264 -0.8524
  582MOL0     N76743   1.632   2.734  11.360  0.4601 -0.4568  0.3367
  582MOL0     C76744   0.882   1.902  10.720 -0.8479 -0.5129 -0.1101
  582MOL0     C76745   0.767   1.835  10.761  0.3079  0.1344 -0.2346
  582MOL0     C76746   0.476   1.570  11.014  0.5715 -0.1895  0.3002
  582MOL0     C76747   0.419   1.519  11.136  0.4698 -0.5184  0.5983
  582MOL0     C76748   0.305   1.440  11.140 -0.4952  0.2558  0.0370
  582MOL0     C76749   0.232   1.421  11.022  0.1787  0.0156  0.3844
  582MOL0     O76750   0.116   1.347  11.027  0.5798 -0.4773 -0.6597
  582MOL0     C76751   0.055   1.315  11.157  0.2270 -0.3819  0.4832
  582MOL0     C76752  -0.087   1.262  11.119  0.4011 -0.5801  1.0808
  582MOL0     C76753  -0.150   1.346  11.006 -0.3592  0.3643 -1.1169
  582MOL0     C76754  -0.293   1.313  10.993 -0.0411 -0.6824 -0.4497
  582MOL0     C76755  -0.356   1.375  10.868 -0.7034 -0.6364 -0.4268
  582MOL0     C76756  -0.408   1.437  10.780 -0.5355 -0.2376  0.3155
  582MOL0     C76757   0.282   1.470  10.910  0.6303 -0.1130  0.1860
  582MOL0     C76758   0.405   1.542  10.897  0.2877  0.7764  0.4346
  582MOL0     H76759   0.837   1.776  11.079 -1.7579 -3.6322 -1.6406
  582MOL0     H76760   1.044   1.875  11.015 -2.7267  1.8304  3.0475
  582MOL0     H76761   1.259   1.910  10.863 -0.8422  0.0044  2.1600
  582MOL0     H76762   1.169   2.016  10.960  0.5099 -0.5659  0.0255
  582MOL0     H76763   1.201   2.208  10.809 -1.3033 -0.5843  1.5685
  582MOL0     H76764   1.327   2.123  10.715  0.8901  2.9061  0.5367
  582MOL0     H76765   1.475   2.124  10.904 -0.9886 -0.7209 -0.4216
  582MOL0     H76766   1.353   2.166  11.015  2.8582  1.2230  1.4343
  582MOL0     H76767   1.500   2.328  10.808 -1.3106 -0.6636 -1.9341
  582MOL0     H76768   1.341   2.388  10.857  1.8469  0.3167 -2.1642
  582MOL0     H76769   1.585   2.321  11.036 -0.1375 -0.2244 -1.1170
  582MOL0     H76770   1.441   2.371  11.101  1.1406  1.1175  1.8320
  582MOL0     H76771   1.462   2.571  10.921  0.6890 -2.9449 -2.1367
  582MOL0     H76772   1.627   2.528  10.909  0.4722  0.0118 -0.4851
  582MOL0     H76773   1.669   2.565  11.152  0.8099  1.0625 -0.0146
  582MOL0     H76774   1.618   2.716  11.080 -0.5626  1.7101  3.4016
  582MOL0     H76775   1.409   2.552  11.208  0.7662  0.2871  2.8682
  582MOL0     H76776   1.402   2.724  11.161 -0.5259 -0.9806 -1.9994
  582MOL0     H76777   1.348   2.598  11.441  0.5012 -1.1474 -1.4598
  582MOL0     H76778   1.504   2.633  11.722 -2.1034 -3.2809 -1.9731
  582MOL0     H76779   1.352   2.716  11.674  1.1381 -1.0350 -0.7240
  582MOL0     H76780   1.608   2.874  11.722  1.1723 -0.1084  4.5773
  582MOL0     H76781   1.470   2.851  11.841 -3.1388  4.0487 -0.4259
  582MOL0     H76782   1.458   2.978  11.572  0.7772 -0.0621  0.9350
  582MOL0     H76783   1.314   2.946  11.674 -0.4208 -0.6970  1.5269
  582MOL0     H76784   1.441   3.187  11.678 -0.2959 -0.1877 -1.7023
  582MOL0     H76785   1.567   3.111  11.766  0.5764  0.4231 -2.3247
  582MOL0     H76786   1.209   3.052  12.071  0.0914 -1.4794 -1.3460
  582MOL0     H76787   0.997   3.145  12.097  0.3005  1.4902 -0.1315
  582MOL0     H76788   0.620   3.076  11.899  0.7527  1.6984  0.9567
  582MOL0     H76789   0.375   3.034  11.846  2.5924 -1.4957  0.9709
  582MOL0     H76790   0.115   3.291  11.569 -1.0192  0.5051 -0.9924
  582MOL0     H76791   0.158   3.341  11.734  3.6202 -3.0616  1.0178
  582MOL0     H76792  -0.078   3.252  11.697  1.4652  1.7472 -1.0851
  582MOL0     H76793   0.010   3.170  11.829  0.7542  2.4793  1.4784
  582MOL0     H76794   0.051   2.980  11.719  4.0838  1.3248 -2.7958
  582MOL0     H76795   0.037   3.028  11.570  2.7675 -3.0291  1.6274
  582MOL0     H76796  -0.209   3.026  11.751 -0.0642  1.0323 -0.2100
  582MOL0     H76797  -0.211   3.085  11.588 -1.2187  1.5471  1.5365
  582MOL0     H76798  -0.127   2.810  11.660 -0.6140  1.4413  1.0454
  582MOL0     H76799  -0.143   2.877  11.496  1.8354 -0.1105  1.1172
  582MOL0     H76800  -0.386   2.877  11.514  2.5818  1.3929 -0.2665
  582MOL0     H76801  -0.377   2.849  11.690 -2.1288  1.6463  0.5668
  582MOL0     H76802  -0.328   2.662  11.461 -0.4775 -0.3252 -0.1553
  582MOL0     H76803  -0.265   2.621  11.615  1.6976 -0.8473 -4.3571
  582MOL0     H76804  -0.496   2.609  11.716  1.4776 -3.6570  0.5091
  582MOL0     H76805  -0.425   2.485  11.628 -0.4969  0.0139  1.0110
  582MOL0     H76806   0.393   3.381  11.586 -1.0863  0.9119  1.2055
  582MOL0     H76807   0.627   3.407  11.632  0.7748 -1.2742  0.9340
  582MOL0     H76808   0.992   3.306  11.696  2.0738 -2.1428 -2.2170
  582MOL0     H76809   1.239   3.213  11.680  1.4529  0.6221  1.3148
  582MOL0     H76810   0.896   1.935  10.617  1.5818 -0.1139  0.2944
  582MOL0     H76811   0.687   1.838  10.688  0.7230  0.9837 -0.6635
  582MOL0     H76812   0.459   1.553  11.231  0.6587 -0.1027  0.3719
  582MOL0     H76813   0.269   1.410  11.239  1.5426  0.1226  0.7733
  582MOL0     H76814   0.032   1.404  11.217 -0.8421 -0.7227  0.6044
  582MOL0     H76815   0.116   1.249  11.219  2.1185  1.8075  1.0887
  582MOL0     H76816  -0.087   1.159  11.083  2.0070 -0.0422 -0.6103
  582MOL0     H76817  -0.150   1.271  11.208  0.0775  1.5171  0.6811
  582MOL0     H76818  -0.093   1.325  10.916  1.5047  2.4588 -0.5135
  582MOL0     H76819  -0.137   1.451  11.032 -2.9872  0.0329  2.5015
  582MOL0     H76820  -0.296   1.204  10.985  0.2033 -0.7871  0.6909
  582MOL0     H76821  -0.351   1.350  11.078 -0.3532 -0.1544 -0.8893
  582MOL0     H76822  -0.469   1.495  10.713  0.5212  1.3460  0.6770
  582MOL0     H76823   0.216   1.458  10.824 -0.4195 -1.9284  1.1757
  582MOL0     H76824   0.420   1.607  10.811 -1.8105  4.7495  2.7670
  583MOL0     O76825   7.257   2.066  11.147 -0.7276 -0.1445  0.0942
  583MOL0     C76826   7.193   1.996  11.066  0.0101 -0.1592 -0.4517
  583MOL0     O76827   7.247   1.910  10.979  0.1439 -0.3211  0.2650
  583MOL0     C76828   7.372   1.858  10.980 -0.3453  0.4507 -0.7043
  583MOL0     C76829   7.483   1.928  11.033 -0.1513  0.2831 -0.2461
  583MOL0     C76830   7.607   1.859  11.020  0.2314  0.5668  0.0175
  583MOL0     C76831   7.621   1.735  10.958 -0.1678  0.5637  0.1226
  583MOL0     O76832   7.737   1.660  10.938  0.7328 -0.2451 -0.1343
  583MOL0     C76833   7.853   1.740  10.901 -0.7109  0.4748 -0.2326
  583MOL0     C76834   7.973   1.662  10.954 -1.1579  0.2458 -0.2278
  583MOL0     C76835   8.048   1.590  10.840  1.1244 -0.5704  0.2579
  583MOL0     C76836   8.159   1.511  10.910  0.3047  0.1898 -0.2503
  583MOL0     C76837   8.245   1.446  10.807 -0.0479 -0.6913 -0.2584
  583MOL0     C76838   8.339   1.351  10.883  0.6286  0.9057  0.2263
  583MOL0     C76839   8.425   1.261  10.803 -1.2438  0.7966  0.0276
  583MOL0     C76840   8.564   1.311  10.760  0.9484 -0.0268  0.0730
  583MOL0     N76841   8.644   1.218  10.678  0.3675 -0.3584 -0.3357
  583MOL0     C76842   8.614   1.180  10.554  1.1420  0.2934  0.6652
  583MOL0     C76843   8.701   1.092  10.522 -0.4167 -0.4733  0.4830
  583MOL0     C76844   8.708   1.003  10.401 -0.3129  0.1182 -0.0677
  583MOL0     C76845   8.569   0.955  10.356 -0.5263 -0.9529  0.3789
  583MOL0     C76846   8.490   0.877  10.461  0.8063  0.5335 -0.0816
  583MOL0     C76847   8.355   0.844  10.397  0.1269 -0.3571  0.0264
  583MOL0     O76848   8.275   0.962  10.387  0.5019 -0.1929 -0.2748
  583MOL0     C76849   8.211   1.022  10.491 -0.7051 -0.6481 -0.5000
  583MOL0     C76850   8.200   0.968  10.619 -0.3585 -0.1425 -0.1207
  583MOL0     C76851   8.118   1.033  10.721 -1.3139  0.8566 -0.0947
  583MOL0     C76852   8.050   1.147  10.701  0.0559  0.7914  0.5873
  583MOL0     C76853   7.961   1.205  10.815  0.3148 -0.1802  0.1227
  583MOL0     O76854   7.960   1.140  10.939 -0.0884  0.4149 -0.4771
  583MOL0     C76855   7.877   1.158  11.043 -0.6997  0.1781 -0.4782
  583MOL0     C76856   7.831   1.043  11.117  0.2086  0.1573 -0.4152
  583MOL0     C76857   7.740   1.060  11.216 -0.5836  0.0366 -0.3772
  583MOL0     C76858   7.696   1.189  11.255 -0.3329 -0.2419  0.5267
  583MOL0     O76859   7.607   1.209  11.355  0.5269 -0.0697  0.3881
  583MOL0     C76860   7.606   1.124  11.468 -0.2693 -0.3487  0.4210
  583MOL0     C76861   7.501   1.173  11.576  0.5697 -0.1254 -0.1297
  583MOL0     C76862   7.362   1.140  11.523 -0.4234  0.0257  0.6308
  583MOL0     C76863   7.263   1.217  11.605  0.5681 -0.6059  0.5172
  583MOL0     C76864   7.128   1.200  11.542 -0.1207  0.0024  0.1546
  583MOL0     C76865   7.028   1.307  11.581  0.2310  0.3171 -0.2649
  583MOL0     C76866   6.892   1.277  11.518  0.5175 -0.5262  0.4404
  583MOL0     C76867   6.769   1.329  11.590  0.3062 -0.3414  0.5543
  583MOL0    Cl76868   6.614   1.293  11.499  0.3323 -0.5717  0.2579
  583MOL0     C76869   7.745   1.301  11.187  0.2249  0.5970  0.9435
  583MOL0     C76870   7.830   1.287  11.077  0.0131  0.4182 -1.1426
  583MOL0     O76871   7.878   1.288  10.781 -0.2278  0.5795  0.4057
  583MOL0     C76872   8.065   1.199  10.577  0.2222  0.3202 -0.9225
  583MOL0     C76873   8.145   1.146  10.470  0.4360 -0.6402  0.5812
  583MOL0     N76874   8.792   1.075  10.629  0.3028 -0.7106 -0.5059
  583MOL0     N76875   8.747   1.152  10.722 -0.7847 -0.8503  0.2079
  583MOL0     C76876   7.502   1.668  10.927  0.3509  0.4026 -0.9304
  583MOL0     C76877   7.384   1.731  10.933  0.9869  0.9372  0.4256
  583MOL0     C76878   7.042   1.994  11.074 -0.2473 -0.7642  0.6195
  583MOL0     C76879   6.974   2.096  11.155 -0.8683  0.1575  0.7137
  583MOL0     C76880   6.837   2.114  11.138 -0.9342 -0.3180 -1.4153
  583MOL0     C76881   6.763   2.020  11.070 -0.1747  0.7402  0.2004
  583MOL0     O76882   6.628   2.016  11.064 -0.2374 -0.3079 -0.4318
  583MOL0     C76883   6.552   2.111  11.131  0.3143 -0.2467 -0.6631
  583MOL0     C76884   6.397   2.096  11.108  0.0150  0.6793 -0.5248
  583MOL0     C76885   6.358   2.104  10.958 -0.6906 -0.9420  0.2431
  583MOL0     C76886   6.204   2.115  10.926  0.3466 -0.1446 -0.2097
  583MOL0     C76887   6.181   2.114  10.785 -0.9054  1.4979 -0.4872
  583MOL0     C76888   6.192   2.128  10.666 -0.0132  0.3966 -0.1073
  583MOL0     C76889   6.822   1.907  11.020 -0.2297 -0.3459  0.6882
  583MOL0     C76890   6.959   1.892  11.014 -0.2929  0.2244  0.3641
  583MOL0     H76891   7.483   2.030  11.071  1.9200  0.1822  0.1099
  583MOL0     H76892   7.699   1.891  11.068  0.8984  0.0654 -0.8898
  583MOL0     H76893   7.861   1.830  10.963 -0.4464 -0.7850  1.6383
  583MOL0     H76894   7.868   1.762  10.795  0.5459 -1.8388 -0.6123
  583MOL0     H76895   7.948   1.593  11.036  2.2540  0.4905  1.1584
  583MOL0     H76896   8.042   1.728  11.006  2.8360 -1.8815 -2.3895
  583MOL0     H76897   8.083   1.657  10.761  0.5126 -1.1617 -0.5242
  583MOL0     H76898   7.964   1.534  10.800 -0.4416  2.4116 -0.9824
  583MOL0     H76899   8.215   1.582  10.971  0.7104  0.0016 -0.4068
  583MOL0     H76900   8.126   1.435  10.982  1.2076  0.2680  0.2669
  583MOL0     H76901   8.316   1.520  10.769  1.6981 -2.9066 -1.5186
  583MOL0     H76902   8.189   1.399  10.726 -0.2126 -0.9427 -0.0029
  583MOL0     H76903   8.267   1.288  10.935  1.4383 -0.3421 -0.1061
  583MOL0     H76904   8.402   1.415  10.946 -2.1654  1.3247  2.8033
  583MOL0     H76905   8.437   1.174  10.868 -0.5477  0.9305  0.0829
  583MOL0     H76906   8.374   1.242  10.708  3.5474  0.0883 -2.6866
  583MOL0     H76907   8.621   1.323  10.852  0.2707 -1.1818  0.6687
  583MOL0     H76908   8.550   1.408  10.712 -2.0271  0.9549  2.5821
  583MOL0     H76909   8.530   1.211  10.494 -0.2522 -1.2371  1.7222
  583MOL0     H76910   8.764   0.911  10.421  0.0654  0.4481  0.4168
  583MOL0     H76911   8.769   1.045  10.321 -3.0389 -1.1182 -2.9929
  583MOL0     H76912   8.580   0.895  10.266  2.0080  0.4452 -0.3471
  583MOL0     H76913   8.522   1.051  10.331  1.9235  0.1176 -0.5267
  583MOL0     H76914   8.552   0.793  10.493  0.0436 -0.0702 -0.1812
  583MOL0     H76915   8.470   0.937  10.550 -0.0801  1.6950 -1.0332
  583MOL0     H76916   8.316   0.766  10.463  2.6262 -1.8060 -0.0622
  583MOL0     H76917   8.359   0.809  10.293 -1.5748  2.2079 -1.0070
  583MOL0     H76918   8.244   0.873  10.648  2.3722  0.8233 -0.8031
  583MOL0     H76919   8.108   0.996  10.823 -5.0469 -2.8456 -1.5055
  583MOL0     H76920   7.861   0.944  11.083 -1.4030 -0.3437 -0.4830
  583MOL0     H76921   7.688   0.972  11.254 -0.8284 -0.0174 -0.8373
  583MOL0     H76922   7.706   1.119  11.514 -0.5715 -3.1103  1.0071
  583MOL0     H76923   7.583   1.019  11.446 -3.3593  0.6421 -1.7227
  583MOL0     H76924   7.519   1.281  11.585 -3.3889  0.5239  2.6161
  583MOL0     H76925   7.526   1.142  11.678 -0.1930  3.8621  1.4550
  583MOL0     H76926   7.350   1.032  11.521  2.0463 -0.2893  0.2221
  583MOL0     H76927   7.344   1.180  11.422 -2.2277  1.4772  1.4589
  583MOL0     H76928   7.256   1.178  11.707 -0.2562  0.8248  1.0305
  583MOL0     H76929   7.289   1.324  11.609  0.5094 -0.6246  2.2015
  583MOL0     H76930   7.089   1.101  11.566  0.1341 -0.4360 -1.1678
  583MOL0     H76931   7.136   1.210  11.433 -2.7491 -1.7024 -0.3000
  583MOL0     H76932   7.068   1.402  11.544 -3.3054  1.7506 -0.8706
  583MOL0     H76933   7.033   1.310  11.690  4.0752  3.6291 -0.3253
  583MOL0     H76934   6.900   1.330  11.423  1.3303  3.0154  2.3190
  583MOL0     H76935   6.871   1.170  11.504 -1.4798 -0.0936 -0.2094
  583MOL0     H76936   6.766   1.438  11.599 -1.0864 -0.1884 -1.2881
  583MOL0     H76937   6.748   1.280  11.686 -0.8012 -0.8539  0.0648
  583MOL0     H76938   7.711   1.401  11.212  0.9611  1.0389  0.2314
  583MOL0     H76939   7.858   1.376  11.022 -0.4299  0.7948 -0.7637
  583MOL0     H76940   8.003   1.286  10.558  0.0540  0.4490  0.1511
  583MOL0     H76941   8.161   1.202  10.379 -1.3879 -1.2133 -0.1352
  583MOL0     H76942   7.513   1.568  10.887  2.3755  0.4094 -0.5107
  583MOL0     H76943   7.299   1.670  10.903 -0.0557  1.8074  1.4966
  583MOL0     H76944   7.034   2.177  11.195  0.5268  0.3575 -1.5739
  583MOL0     H76945   6.787   2.201  11.180  1.1458 -0.1973  1.1080
  583MOL0     H76946   6.570   2.213  11.096 -0.2552  0.0294 -0.1656
  583MOL0     H76947   6.566   2.108  11.239  0.5691 -0.1285 -0.6918
  583MOL0     H76948   6.359   2.003  11.153  1.3395  0.0684 -0.6308
  583MOL0     H76949   6.346   2.180  11.156  1.2006 -0.6867  3.5497
  583MOL0     H76950   6.395   2.020  10.900  0.5327 -1.6323  1.9311
  583MOL0     H76951   6.420   2.182  10.912 -1.8216 -0.1347  0.0489
  583MOL0     H76952   6.156   2.027  10.971 -2.2347  0.0001 -2.3847
  583MOL0     H76953   6.185   2.209  10.978  2.4496  0.8298 -1.0853
  583MOL0     H76954   6.207   2.118  10.560 -2.2170  0.9138 -0.5227
  583MOL0     H76955   6.764   1.824  10.983  2.2887 -2.0702  0.3729
  583MOL0     H76956   6.996   1.798  10.974 -3.6329 -0.7011 -0.8393
  584MOL0     O76957   6.973   3.935  10.765  0.0896  0.6108  0.6469
  584MOL0     C76958   7.025   4.015  10.686 -0.6336 -0.7441 -0.5813
  584MOL0     O76959   7.157   4.027  10.658 -0.1521 -0.1848 -0.1857
  584MOL0     C76960   7.235   3.957  10.746 -0.2146  0.1315 -0.3930
  584MOL0     C76961   7.315   4.039  10.838 -0.6569 -0.0143 -0.5473
  584MOL0     C76962   7.410   3.977  10.922  0.2666  0.3585 -0.3698
  584MOL0     C76963   7.440   3.844  10.907 -0.2346  0.3470  0.7383
  584MOL0     O76964   7.565   3.803  10.962 -0.2569  0.0995  0.2268
  584MOL0     C76965   7.618   3.672  10.913  0.1512  0.4031  0.2299
  584MOL0     C76966   7.753   3.673  10.981  0.1509 -0.3027 -0.7975
  584MOL0     C76967   7.756   3.650  11.137 -0.6887 -0.0054  0.2929
  584MOL0     C76968   7.893   3.629  11.202  0.5190 -1.0241  0.5925
  584MOL0     C76969   7.874   3.609  11.348  0.0700 -0.0968 -0.0417
  584MOL0     C76970   8.011   3.613  11.412 -0.2601 -0.8094  0.0977
  584MOL0     C76971   8.008   3.622  11.565 -0.6491 -0.0289  0.7495
  584MOL0     C76972   7.903   3.718  11.625  1.1678 -0.2436  0.8516
  584MOL0     N76973   7.770   3.652  11.658 -1.3088 -0.6674  0.3773
  584MOL0     C76974   7.757   3.571  11.768  0.5017  0.8827  0.4422
  584MOL0     C76975   7.628   3.527  11.755 -0.3003 -0.0335  0.2431
  584MOL0     C76976   7.564   3.424  11.844  0.4137 -0.0025 -0.8497
  584MOL0     C76977   7.583   3.461  11.991  0.5388  0.3835 -0.0710
  584MOL0     C76978   7.488   3.580  12.020  0.4462 -0.9343 -0.3626
  584MOL0     C76979   7.435   3.595  12.166  0.6402  0.1329 -0.7496
  584MOL0     O76980   7.411   3.727  12.211 -0.3028 -0.3779  0.4711
  584MOL0     C76981   7.304   3.800  12.177  0.0603  0.9139 -0.0995
  584MOL0     C76982   7.183   3.741  12.135 -0.0296 -0.5379  0.5340
  584MOL0     C76983   7.067   3.821  12.122 -0.2433  0.4087  0.7086
  584MOL0     C76984   7.076   3.965  12.140 -0.0894  1.3612 -1.7941
  584MOL0     C76985   6.966   4.050  12.118  0.7928  0.2934 -0.3013
  584MOL0     O76986   6.991   4.183  12.136  0.8293  0.0508  0.1386
  584MOL0     C76987   6.892   4.275  12.137  0.1277  0.1277  0.4269
  584MOL0     C76988   6.795   4.284  12.032  0.9839  0.4518  0.4337
  584MOL0     C76989   6.687   4.386  12.039  0.5706 -0.6349 -0.2973
  584MOL0     C76990   6.697   4.484  12.129  0.2620  0.0663  0.4658
  584MOL0     O76991   6.595   4.582  12.123  0.6158 -0.1809 -0.3413
  584MOL0     C76992   6.469   4.558  12.185  0.4339 -0.3674  0.3821
  584MOL0     C76993   6.436   4.694  12.245  0.2666 -0.8553  0.5261
  584MOL0     C76994   6.281   4.724  12.244  0.3109 -0.2241 -0.5569
  584MOL0     C76995   6.229   4.742  12.092 -1.0594 -1.4131  0.0652
  584MOL0     C76996   6.088   4.770  12.077  0.4477 -0.4667  0.0523
  584MOL0     C76997   6.036   4.899  12.144 -0.6864 -0.4660 -0.2229
  584MOL0     C76998   5.889   4.911  12.139  1.4711 -0.4435 -0.5275
  584MOL0     C76999   5.826   4.945  11.996  0.5631 -1.0307 -1.2728
  584MOL0    Cl77000   5.653   4.938  12.029  0.2547  0.1433 -0.4053
  584MOL0     C77001   6.804   4.491  12.215 -0.0764  0.9870 -1.0630
  584MOL0     C77002   6.898   4.383  12.224 -0.3051  0.5247  0.4111
  584MOL0     O77003   6.857   4.002  12.082 -1.2118 -0.2956  0.4282
  584MOL0     C77004   7.197   4.012  12.196  0.4017  0.1186  0.1649
  584MOL0     C77005   7.309   3.932  12.203  0.3074  0.1928 -1.3464
  584MOL0     N77006   7.560   3.591  11.648  0.0652  0.2117 -0.0081
  584MOL0     N77007   7.648   3.669  11.595  0.4468  0.3056  0.4169
  584MOL0     C77008   7.362   3.763  10.819 -0.1993 -1.0264 -0.6586
  584MOL0     C77009   7.261   3.817  10.741  0.4185 -0.5893  0.2026
  584MOL0     C77010   6.948   4.095  10.588  1.1007 -0.2512 -0.3639
  584MOL0     C77011   7.003   4.127  10.459  0.1753  1.1333  0.9401
  584MOL0     C77012   6.926   4.179  10.358 -0.2014  0.4995  0.0962
  584MOL0     C77013   6.788   4.210  10.383  0.3979 -0.5489 -0.6149
  584MOL0     O77014   6.702   4.267  10.288 -0.5425  0.0192  0.1179
  584MOL0     C77015   6.763   4.303  10.158 -0.0922  0.3127 -0.2534
  584MOL0     C77016   6.867   4.418  10.138  0.5442  0.2189  0.0982
  584MOL0     C77017   6.811   4.556  10.151  0.8205 -0.6123  0.6043
  584MOL0     C77018   6.700   4.590  10.052 -0.0123  0.7390 -0.6418
  584MOL0     C77019   6.679   4.732  10.026 -0.6395  0.0643 -0.2579
  584MOL0     C77020   6.660   4.846   9.988 -0.0902 -0.2369 -0.2026
  584MOL0     C77021   6.730   4.179  10.505 -0.2837  0.8654 -0.4297
  584MOL0     C77022   6.812   4.128  10.614 -0.1379  0.8364  0.2219
  584MOL0     H77023   7.303   4.147  10.846  3.1977  0.4882  0.7813
  584MOL0     H77024   7.456   4.035  11.001  1.7743 -0.4148 -0.6443
  584MOL0     H77025   7.620   3.671  10.804  3.0981  6.5439 -0.1929
  584MOL0     H77026   7.565   3.586  10.955  0.3045  0.3582  0.3300
  584MOL0     H77027   7.809   3.763  10.953 -2.6588  1.7963 -0.0966
  584MOL0     H77028   7.815   3.593  10.941  1.9633  0.3018  0.6191
  584MOL0     H77029   7.711   3.552  11.154  0.7047 -1.0167 -1.5310
  584MOL0     H77030   7.686   3.722  11.182 -1.8852 -1.1132  0.2579
  584MOL0     H77031   7.941   3.538  11.164 -1.3829 -1.6437 -0.4693
  584MOL0     H77032   7.957   3.716  11.185 -0.1550 -0.3295  1.5404
  584MOL0     H77033   7.814   3.520  11.370 -0.4544  0.2254 -0.1572
  584MOL0     H77034   7.823   3.698  11.384 -0.8980 -0.1758 -1.1308
  584MOL0     H77035   8.058   3.707  11.381  0.9681 -1.1121  0.9527
  584MOL0     H77036   8.070   3.527  11.379  0.5404 -0.4655  0.6042
  584MOL0     H77037   7.997   3.517  11.594 -1.8700 -0.0262  0.3562
  584MOL0     H77038   8.107   3.657  11.594 -0.0425 -1.5876  0.6724
  584MOL0     H77039   7.880   3.800  11.557 -0.2833 -0.8657  0.5475
  584MOL0     H77040   7.939   3.758  11.720  1.4216 -0.2910  0.7758
  584MOL0     H77041   7.827   3.529  11.840  0.4328  0.1931  0.1179
  584MOL0     H77042   7.598   3.321  11.830  2.5323  0.5234  0.0888
  584MOL0     H77043   7.459   3.416  11.813  1.1926 -1.2535 -3.5329
  584MOL0     H77044   7.688   3.478  12.018  0.5943  0.4974 -0.3560
  584MOL0     H77045   7.546   3.377  12.052 -0.6220  0.7510 -0.2550
  584MOL0     H77046   7.550   3.670  12.008 -3.0064  1.4208 -2.1936
  584MOL0     H77047   7.403   3.580  11.952  1.4001 -3.5899 -1.6996
  584MOL0     H77048   7.515   3.559  12.231 -0.9244  3.1053  3.2564
  584MOL0     H77049   7.349   3.528  12.179  2.1297 -1.2645  5.4597
  584MOL0     H77050   7.183   3.640  12.096  1.7216 -0.2708 -0.2434
  584MOL0     H77051   6.970   3.786  12.088 -0.6120 -0.2866  2.3913
  584MOL0     H77052   6.797   4.207  11.956 -1.0407  0.9785 -0.2076
  584MOL0     H77053   6.609   4.389  11.964  0.3253 -1.8324 -0.1173
  584MOL0     H77054   6.467   4.474  12.255 -0.6579  0.2528  1.1125
  584MOL0     H77055   6.401   4.545  12.100 -1.0165  0.3508  1.3911
  584MOL0     H77056   6.479   4.771  12.180 -0.3290 -1.8972 -1.1484
  584MOL0     H77057   6.470   4.712  12.347 -0.1226  3.1340  0.1238
  584MOL0     H77058   6.276   4.820  12.297 -0.2498 -0.6392  0.1727
  584MOL0     H77059   6.214   4.653  12.293 -0.9428  1.4746  0.3089
  584MOL0     H77060   6.292   4.817  12.043 -2.7211 -0.0145 -0.0327
  584MOL0     H77061   6.244   4.645  12.044 -0.2942 -1.6919  0.8335
  584MOL0     H77062   6.037   4.687  12.126  1.0643  0.4396  2.3463
  584MOL0     H77063   6.061   4.766  11.971 -2.7739 -0.1339  0.7490
  584MOL0     H77064   6.083   4.982  12.090 -1.3723 -1.7585 -3.0412
  584MOL0     H77065   6.065   4.900  12.249  0.7318  0.6341 -0.5904
  584MOL0     H77066   5.844   4.820  12.179 -0.8060  1.2338  1.0267
  584MOL0     H77067   5.845   4.993  12.196 -2.4347 -1.4288 -1.7648
  584MOL0     H77068   5.859   4.868  11.926 -0.4579 -0.2825 -2.6242
  584MOL0     H77069   5.854   5.044  11.958 -3.3031 -0.6569 -3.5626
  584MOL0     H77070   6.810   4.583  12.273  0.4400 -0.7621  1.8562
  584MOL0     H77071   6.975   4.386  12.300 -2.9811 -1.2519  3.4262
  584MOL0     H77072   7.197   4.116  12.226 -0.5336  0.4508 -0.8989
  584MOL0     H77073   7.403   3.976  12.234  2.3051 -4.7155  0.4705
  584MOL0     H77074   7.390   3.659  10.831  0.5789 -0.7325  0.1680
  584MOL0     H77075   7.197   3.741  10.696 -0.5603  0.5173 -0.3276
  584MOL0     H77076   7.101   4.092  10.430  0.1824  1.0327  1.0795
  584MOL0     H77077   6.969   4.201  10.261 -0.2980 -0.1141 -0.0880
  584MOL0     H77078   6.674   4.316  10.095 -2.2364  2.6742  2.9596
  584MOL0     H77079   6.811   4.214  10.115  0.1928  0.6129 -0.5576
  584MOL0     H77080   6.940   4.399  10.217  0.4118  0.1960  0.2164
  584MOL0     H77081   6.912   4.400  10.040  2.1519  1.9767  0.4607
  584MOL0     H77082   6.900   4.618  10.134  2.6424 -2.0293  4.0334
  584MOL0     H77083   6.766   4.556  10.251  3.1786 -2.9007  1.7694
  584MOL0     H77084   6.722   4.550   9.952 -1.4089 -0.4017 -0.5223
  584MOL0     H77085   6.602   4.548  10.078 -1.0014 -0.3209 -5.1115
  584MOL0     H77086   6.651   4.951   9.973  1.0360 -0.1531 -0.3700
  584MOL0     H77087   6.628   4.213  10.518 -1.3811 -1.5802 -1.9677
  584MOL0     H77088   6.753   4.100  10.701  1.4258 -0.7597  0.8421
  585MOL0     O77089   8.947   8.245   2.259 -0.5771 -0.1776  0.0489
  585MOL0     C77090   8.862   8.252   2.169  1.2112 -0.0070  0.6858
  585MOL0     O77091   8.882   8.280   2.038  0.1953 -0.1063  0.1410
  585MOL0     C77092   9.009   8.311   2.007 -0.2439 -0.5542  0.1953
  585MOL0     C77093   9.106   8.214   1.978 -0.7167 -0.0513 -0.2366
  585MOL0     C77094   9.234   8.246   1.940  0.1404 -0.0500 -0.7003
  585MOL0     C77095   9.270   8.379   1.919 -0.0856 -0.6833 -0.2457
  585MOL0     O77096   9.401   8.425   1.910 -0.1839  0.0885  0.5516
  585MOL0     C77097   9.501   8.365   1.826 -0.1597  1.2345 -0.1438
  585MOL0     C77098   9.457   8.358   1.685  0.3048 -0.9432  0.2490
  585MOL0     C77099   9.433   8.500   1.627 -0.5630  0.0066 -0.3976
  585MOL0     C77100   9.412   8.470   1.475  0.2906 -0.7390  0.1600
  585MOL0     C77101   9.399   8.605   1.398  1.0244 -0.3123 -0.7774
  585MOL0     C77102   9.349   8.592   1.252 -0.4420  0.7632 -0.5870
  585MOL0     C77103   9.266   8.714   1.206 -0.1925 -0.9483 -0.6230
  585MOL0     C77104   9.115   8.695   1.238 -0.1213 -0.5972  0.6720
  585MOL0     N77105   9.021   8.796   1.186  0.5088 -0.4054  0.8340
  585MOL0     C77106   9.061   8.913   1.116  0.2926  0.8708 -0.3826
  585MOL0     C77107   8.945   8.982   1.082  0.6702 -0.5256  0.2206
  585MOL0     C77108   8.943   9.119   1.031  0.7450  0.1247  0.4266
  585MOL0     C77109   8.803   9.163   0.996 -0.2092  0.5752  0.0987
  585MOL0     C77110   8.816   9.253   0.875  0.2989 -0.3573 -0.3812
  585MOL0     C77111   8.681   9.316   0.838 -0.7549 -0.3500 -0.2656
  585MOL0     O77112   8.709   9.443   0.769  0.3920  0.0994  0.8969
  585MOL0     C77113   8.630   9.461   0.659 -0.6346 -0.2486 -0.6589
  585MOL0     C77114   8.688   9.438   0.537  0.3940  0.5629  0.0517
  585MOL0     C77115   8.609   9.429   0.417 -0.4261 -0.6384 -0.7566
  585MOL0     C77116   8.468   9.447   0.422  0.7259  0.8852 -0.5008
  585MOL0     C77117   8.385   9.438   0.301 -0.6051  0.1169  0.1588
  585MOL0     O77118   8.253   9.420   0.315  0.9427 -0.1034 -0.2223
  585MOL0     C77119   8.163   9.416   0.207  0.1096 -0.0615  0.4041
  585MOL0     C77120   8.030   9.470   0.211  0.6877 -0.3766 -0.4136
  585MOL0     C77121   7.941   9.456   0.097  0.2131 -0.1780  0.3382
  585MOL0     C77122   7.990   9.396  -0.020 -0.5250 -0.6421  0.1074
  585MOL0     O77123   7.915   9.402  -0.134 -0.4973  0.0715 -0.0130
  585MOL0     C77124   7.886   9.532  -0.175 -0.8931 -0.9411  0.7172
  585MOL0     C77125   7.907   9.542  -0.329  0.7068  0.3963  0.7941
  585MOL0     C77126   7.787   9.588  -0.412  0.6469 -0.2998 -0.4431
  585MOL0     C77127   7.737   9.737  -0.393 -0.3888 -0.2830 -0.9359
  585MOL0     C77128   7.613   9.769  -0.470  0.2657 -0.5646 -0.1134
  585MOL0     C77129   7.571   9.919  -0.474  0.4928  0.1297 -0.4480
  585MOL0     C77130   7.471   9.974  -0.577  0.5888  0.5222 -0.1102
  585MOL0     C77131   7.343   9.887  -0.585 -0.9340 -0.5959  0.3612
  585MOL0    Cl77132   7.219   9.960  -0.686  0.2705 -0.1155 -0.0163
  585MOL0     C77133   8.115   9.347  -0.027  0.3319 -0.0543  0.0986
  585MOL0     C77134   8.200   9.348   0.082  0.4096 -1.4163 -0.5038
  585MOL0     O77135   8.453   9.452   0.198 -0.1193 -0.3143 -0.7132
  585MOL0     C77136   8.412   9.479   0.550  0.2768 -0.1279  0.0953
  585MOL0     C77137   8.498   9.487   0.663  0.3973  0.0833 -0.2910
  585MOL0     N77138   8.841   8.901   1.117  0.2741  0.5792  0.4699
  585MOL0     N77139   8.884   8.787   1.172  0.5567  0.4093  0.6690
  585MOL0     C77140   9.171   8.478   1.940 -1.1397  0.4205 -0.3243
  585MOL0     C77141   9.043   8.447   1.982 -0.2486 -0.0447 -0.2691
  585MOL0     C77142   8.725   8.225   2.202 -0.9481 -0.2140 -0.1083
  585MOL0     C77143   8.625   8.246   2.109  0.6510 -0.4432  0.0819
  585MOL0     C77144   8.492   8.212   2.132  0.7435 -0.0293  0.1859
  585MOL0     C77145   8.461   8.149   2.255  0.9267 -0.4293  0.2647
  585MOL0     O77146   8.338   8.111   2.296 -0.0170 -0.7164 -0.0341
  585MOL0     C77147   8.220   8.132   2.214 -0.4247  1.2768  0.6394
  585MOL0     C77148   8.146   8.266   2.224 -0.2215 -0.3866  0.1946
  585MOL0     C77149   8.050   8.270   2.345  0.0866  0.6794  0.9044
  585MOL0     C77150   8.118   8.255   2.479  0.0965 -0.1937 -0.1061
  585MOL0     C77151   8.022   8.298   2.577 -0.0641  0.0407  0.7093
  585MOL0     C77152   7.944   8.332   2.663 -0.0661  0.0572 -0.1435
  585MOL0     C77153   8.554   8.128   2.350 -0.1142  0.3131  0.1621
  585MOL0     C77154   8.686   8.165   2.328 -0.1235 -0.4469 -0.4063
  585MOL0     H77155   9.072   8.111   1.975 -0.4921 -0.2340  1.8142
  585MOL0     H77156   9.308   8.167   1.933 -2.5128 -2.7965  0.4320
  585MOL0     H77157   9.519   8.267   1.872  2.4396  3.1310  3.4044
  585MOL0     H77158   9.600   8.411   1.821  0.2664  0.3635  0.0506
  585MOL0     H77159   9.362   8.303   1.684  0.7428 -1.8400  2.4671
  585MOL0     H77160   9.529   8.303   1.623  0.3030  0.6880 -1.2759
  585MOL0     H77161   9.509   8.569   1.666 -2.0468 -0.6801  4.2839
  585MOL0     H77162   9.336   8.536   1.662 -1.0802 -2.1144  0.4988
  585MOL0     H77163   9.497   8.411   1.438  2.6160  1.3849  1.7283
  585MOL0     H77164   9.319   8.414   1.489  0.2366 -0.0110  3.8463
  585MOL0     H77165   9.492   8.663   1.393  1.3476 -0.6053  1.2607
  585MOL0     H77166   9.328   8.665   1.454  1.5629 -2.4259  2.3865
  585MOL0     H77167   9.280   8.509   1.233 -1.4557  1.6164 -0.6874
  585MOL0     H77168   9.436   8.593   1.185 -1.2673  1.0042 -1.6959
  585MOL0     H77169   9.313   8.795   1.262  1.3803 -2.9634  1.1741
  585MOL0     H77170   9.269   8.728   1.097 -1.8007  0.5464 -0.5100
  585MOL0     H77171   9.106   8.699   1.347  1.8839 -1.4697  0.9147
  585MOL0     H77172   9.076   8.601   1.198  1.8762 -1.1540 -0.1172
  585MOL0     H77173   9.162   8.951   1.111  0.7820 -0.5108 -1.9214
  585MOL0     H77174   9.007   9.122   0.942 -0.6380 -3.0715 -0.8218
  585MOL0     H77175   8.997   9.178   1.106  0.4060 -0.1909  0.9213
  585MOL0     H77176   8.764   9.223   1.080 -3.5142 -0.4598 -0.5336
  585MOL0     H77177   8.736   9.079   0.976  2.0272 -1.0274 -0.9897
  585MOL0     H77178   8.898   9.319   0.903  1.1966 -1.3907 -0.5211
  585MOL0     H77179   8.858   9.207   0.785  0.5829  0.0507 -0.4610
  585MOL0     H77180   8.632   9.342   0.932  1.7736  2.9907  0.3019
  585MOL0     H77181   8.618   9.245   0.783 -1.4339  0.1701 -0.1723
  585MOL0     H77182   8.795   9.419   0.536  0.6247  1.7470  0.2255
  585MOL0     H77183   8.659   9.423   0.321 -2.4025 -1.7947 -1.7856
  585MOL0     H77184   8.010   9.516   0.307  2.1806 -1.1165  0.2930
  585MOL0     H77185   7.840   9.493   0.109 -0.5030 -2.0447  0.5071
  585MOL0     H77186   7.934   9.618  -0.128 -0.1887 -1.3119  0.6820
  585MOL0     H77187   7.782   9.554  -0.148 -1.6667  0.2297 -2.6184
  585MOL0     H77188   7.933   9.444  -0.371 -2.4852  0.9892 -3.3734
  585MOL0     H77189   7.988   9.604  -0.368  3.1650 -1.5047  2.6459
  585MOL0     H77190   7.710   9.520  -0.373  2.6070 -2.5735 -0.3296
  585MOL0     H77191   7.818   9.575  -0.515  3.4426 -0.4027  0.3296
  585MOL0     H77192   7.723   9.765  -0.288  0.5679 -0.0147 -0.8672
  585MOL0     H77193   7.812   9.804  -0.437 -2.6811  3.2342  0.0904
  585MOL0     H77194   7.537   9.703  -0.427  1.1182 -1.4883 -0.0113
  585MOL0     H77195   7.628   9.754  -0.577  2.1828  0.7280 -0.0749
  585MOL0     H77196   7.660   9.980  -0.490  1.4233 -0.1147  2.9023
  585MOL0     H77197   7.541   9.948  -0.372 -0.1520 -0.2841 -0.5137
  585MOL0     H77198   7.440  10.076  -0.553  0.6206  0.6912 -0.7700
  585MOL0     H77199   7.515   9.966  -0.677 -1.1798 -1.7726 -0.7966
  585MOL0     H77200   7.288   9.866  -0.493 -1.4524  0.4478  0.3030
  585MOL0     H77201   7.370   9.794  -0.636  0.0315 -0.2442  0.2283
  585MOL0     H77202   8.163   9.300  -0.113 -0.3924 -0.5182 -0.0646
  585MOL0     H77203   8.300   9.311   0.064  0.8370 -0.4014 -0.3277
  585MOL0     H77204   8.309   9.513   0.549  0.4170  0.4999 -2.8194
  585MOL0     H77205   8.453   9.504   0.760  0.1929 -1.1166 -0.1576
  585MOL0     H77206   9.194   8.583   1.929  0.8189 -0.0768 -1.3836
  585MOL0     H77207   8.965   8.522   1.994 -0.4375 -0.4419  1.2107
  585MOL0     H77208   8.655   8.294   2.017  1.0800  2.0886  1.4366
  585MOL0     H77209   8.411   8.241   2.064  1.8258 -0.8029 -1.4970
  585MOL0     H77210   8.151   8.047   2.223  1.2582 -0.4115 -1.4098
  585MOL0     H77211   8.254   8.114   2.111  4.5391  0.4290  2.1720
  585MOL0     H77212   8.208   8.356   2.221 -1.0872  0.1952 -2.0879
  585MOL0     H77213   8.074   8.273   2.143 -0.4662 -3.7572 -0.0155
  585MOL0     H77214   7.972   8.195   2.333 -0.5790  1.1368  2.1651
  585MOL0     H77215   7.995   8.364   2.336 -1.8155 -0.5431 -0.9304
  585MOL0     H77216   8.134   8.148   2.496  0.0956 -0.5084 -1.9004
  585MOL0     H77217   8.216   8.302   2.494  1.2703 -2.4063 -0.4389
  585MOL0     H77218   7.857   8.364   2.716  0.2930 -1.4122  1.4591
  585MOL0     H77219   8.527   8.072   2.439 -0.1437 -1.7303 -1.0881
  585MOL0     H77220   8.764   8.151   2.402  0.4572  0.7685 -0.7569
  586MOL0     O77221   5.482  10.702   8.537 -0.1027  0.9612 -0.1003
  586MOL0     C77222   5.565  10.790   8.525 -0.5967  0.4246  0.0017
  586MOL0     O77223   5.534  10.911   8.469 -0.5473 -0.3745 -0.2716
  586MOL0     C77224   5.420  10.933   8.398  0.1536  0.6205  0.2176
  586MOL0     C77225   5.351  11.055   8.404  0.1136 -0.3033  0.1180
  586MOL0     C77226   5.238  11.090   8.328  0.7211  0.9449  0.0315
  586MOL0     C77227   5.176  10.989   8.255 -0.5217  0.0424 -0.1982
  586MOL0     O77228   5.070  11.016   8.176 -0.3890  0.9978  0.9125
  586MOL0     C77229   5.002  11.137   8.185  0.3057  0.0705  0.7824
  586MOL0     C77230   4.873  11.121   8.103 -1.0404 -0.7073  0.6813
  586MOL0     C77231   4.771  11.239   8.130 -0.0309  0.0141 -0.4286
  586MOL0     C77232   4.631  11.195   8.084 -1.1557 -0.8467  1.3081
  586MOL0     C77233   4.610  11.177   7.939  0.2705  0.4548  0.1796
  586MOL0     C77234   4.497  11.071   7.925  0.5979 -0.4764  0.4911
  586MOL0     C77235   4.468  11.052   7.779  0.4106 -0.2935  0.4772
  586MOL0     C77236   4.413  10.920   7.741  1.0847 -0.0081 -0.5067
  586MOL0     N77237   4.386  10.917   7.598 -0.0669  0.0745  0.4056
  586MOL0     C77238   4.468  10.977   7.504  0.3708 -1.1544  0.1176
  586MOL0     C77239   4.413  10.953   7.387  0.4575 -0.3071 -0.7552
  586MOL0     C77240   4.470  10.985   7.257 -0.7204  0.8967 -0.0014
  586MOL0     C77241   4.380  11.049   7.151 -0.0837 -0.0444 -0.2093
  586MOL0     C77242   4.479  11.070   7.030  1.0500 -0.2916  0.0922
  586MOL0     C77243   4.394  11.132   6.909  0.4372  0.6755 -0.1949
  586MOL0     O77244   4.484  11.167   6.806  0.2415 -0.7138  0.7199
  586MOL0     C77245   4.427  11.195   6.689 -0.6174 -0.6402 -0.7615
  586MOL0     C77246   4.288  11.195   6.660 -0.2599 -0.0119  1.0082
  586MOL0     C77247   4.245  11.234   6.539 -0.5999  0.2781 -0.2104
  586MOL0     C77248   4.339  11.270   6.443 -0.4335  0.4623 -1.0743
  586MOL0     C77249   4.278  11.303   6.306 -0.0327  0.0245  0.2570
  586MOL0     O77250   4.139  11.279   6.286 -0.5591  0.3014 -0.1076
  586MOL0     C77251   4.078  11.305   6.167 -0.3166  0.0924  0.5632
  586MOL0     C77252   4.066  11.433   6.115  0.2983 -1.3977  0.4271
  586MOL0     C77253   3.975  11.454   6.008  0.3571 -1.0547  0.1937
  586MOL0     C77254   3.889  11.351   5.967  0.5679  0.2328  0.9572
  586MOL0     O77255   3.803  11.363   5.864 -0.1322 -0.8042  0.5107
  586MOL0     C77256   3.755  11.482   5.801 -0.3497  0.2654 -0.3997
  586MOL0     C77257   3.733  11.454   5.651  0.5161  0.8772 -1.2639
  586MOL0     C77258   3.641  11.560   5.569 -0.4775  0.3853  0.0224
  586MOL0     C77259   3.534  11.622   5.639  0.1843  0.7007  0.2463
  586MOL0     C77260   3.422  11.667   5.551 -0.6886  0.1880 -0.0513
  586MOL0     C77261   3.317  11.752   5.622 -0.2214  0.5604  0.0677
  586MOL0     C77262   3.204  11.829   5.541 -0.1720  0.1590 -0.5103
  586MOL0     C77263   3.275  11.931   5.444 -0.3404 -0.0985  0.0296
  586MOL0    Cl77264   3.351  12.060   5.534  0.2704  0.1068 -0.3084
  586MOL0     C77265   3.893  11.228   6.015 -0.4133  0.4094  0.1446
  586MOL0     C77266   3.993  11.206   6.116  0.4400  0.0716  0.8133
  586MOL0     O77267   4.349  11.358   6.227  0.5821  0.1791 -0.3065
  586MOL0     C77268   4.477  11.268   6.469 -0.0179  0.4563  0.1608
  586MOL0     C77269   4.523  11.226   6.590  1.0389 -0.0177  0.7106
  586MOL0     N77270   4.295  10.882   7.404  0.3633  0.8144  0.3604
  586MOL0     N77271   4.281  10.855   7.532  0.5809  1.0019  0.5174
  586MOL0     C77272   5.239  10.868   8.250  0.2250  0.0841 -0.0684
  586MOL0     C77273   5.354  10.833   8.324  0.8388  0.0416  0.4260
  586MOL0     C77274   5.698  10.761   8.561 -0.0823  0.6711  0.0629
  586MOL0     C77275   5.740  10.631   8.607  0.2006  0.9638  0.1939
  586MOL0     C77276   5.872  10.610   8.646 -0.0798  0.8795 -0.3592
  586MOL0     C77277   5.965  10.708   8.637 -0.3101  0.3932 -0.6392
  586MOL0     O77278   6.086  10.665   8.693  0.8135  0.1382 -0.6797
  586MOL0     C77279   6.198  10.754   8.692 -0.7207  0.2363  1.0866
  586MOL0     C77280   6.329  10.703   8.745 -0.5195 -0.4404 -1.0591
  586MOL0     C77281   6.358  10.560   8.698  0.8030  1.0127  0.3421
  586MOL0     C77282   6.381  10.568   8.550  0.7405  0.4170  0.1334
  586MOL0     C77283   6.441  10.437   8.523 -0.8606 -0.1417 -0.6339
  586MOL0     C77284   6.507  10.337   8.510  0.9376  0.3425  0.0111
  586MOL0     C77285   5.933  10.832   8.589  0.1519 -1.1765 -0.0869
  586MOL0     C77286   5.803  10.858   8.545 -0.5722 -0.4409  0.5336
  586MOL0     H77287   5.399  11.138   8.455  1.9948 -0.6025 -1.0950
  586MOL0     H77288   5.195  11.189   8.333  0.6480  1.0492 -1.7435
  586MOL0     H77289   5.053  11.220   8.135 -2.7338  1.0109 -1.0536
  586MOL0     H77290   4.984  11.154   8.292  1.8307 -0.9724  1.2303
  586MOL0     H77291   4.839  11.022   8.134  2.6772 -3.3626 -2.7271
  586MOL0     H77292   4.903  11.123   7.998 -1.0298  2.4234  0.6502
  586MOL0     H77293   4.795  11.329   8.073  0.5366 -0.2407 -0.5953
  586MOL0     H77294   4.770  11.267   8.236 -1.4990 -1.1243 -0.1088
  586MOL0     H77295   4.605  11.112   8.151 -2.2631 -2.0658 -0.5312
  586MOL0     H77296   4.565  11.278   8.110  0.9803  1.1723  0.6482
  586MOL0     H77297   4.696  11.132   7.887 -0.8670  0.7521 -2.0906
  586MOL0     H77298   4.576  11.269   7.891  1.1253 -0.0034 -1.3700
  586MOL0     H77299   4.406  11.117   7.967  0.0442 -0.4487 -0.6856
  586MOL0     H77300   4.520  10.983   7.985 -0.1535 -0.6643  0.5164
  586MOL0     H77301   4.400  11.135   7.757 -0.1662  0.8170  5.3284
  586MOL0     H77302   4.559  11.073   7.722 -0.0157 -0.9923 -0.4716
  586MOL0     H77303   4.315  10.908   7.789  1.0453  1.0584 -0.2851
  586MOL0     H77304   4.481  10.840   7.770  1.0200  0.2496  0.3931
  586MOL0     H77305   4.556  11.033   7.532 -0.5783  0.1377  0.6307
  586MOL0     H77306   4.516  10.895   7.215 -3.1433 -0.6094  0.4030
  586MOL0     H77307   4.545  11.063   7.273  0.8846 -1.0026  2.4943
  586MOL0     H77308   4.331  11.141   7.183 -1.4978 -0.8559  0.0477
  586MOL0     H77309   4.299  10.983   7.119 -1.3174  0.0684  2.4518
  586MOL0     H77310   4.569  11.128   7.053  2.0483  0.1155 -4.0598
  586MOL0     H77311   4.509  10.972   6.994  1.7850  0.6835 -2.1464
  586MOL0     H77312   4.342  11.220   6.949 -2.1179 -0.7932 -0.0696
  586MOL0     H77313   4.314  11.062   6.886 -2.5685  3.0183  2.2448
  586MOL0     H77314   4.214  11.146   6.721 -2.0300  1.0854 -0.1841
  586MOL0     H77315   4.142  11.214   6.515 -1.0346  0.2237  1.5706
  586MOL0     H77316   4.128  11.520   6.137  1.2504 -2.3978  1.8493
  586MOL0     H77317   3.974  11.555   5.966 -0.8944 -0.3037  1.8931
  586MOL0     H77318   3.819  11.569   5.814 -0.8551  0.5631  0.1488
  586MOL0     H77319   3.657  11.507   5.843  0.4955 -1.5219  3.0771
  586MOL0     H77320   3.684  11.357   5.646  0.2324  0.9686 -0.3832
  586MOL0     H77321   3.835  11.450   5.612  1.2606 -0.4667  0.6993
  586MOL0     H77322   3.597  11.504   5.485 -0.6010 -1.0450  1.0063
  586MOL0     H77323   3.706  11.641   5.533  1.5328 -2.5847 -3.9462
  586MOL0     H77324   3.503  11.553   5.719  2.2108 -0.0371  0.4378
  586MOL0     H77325   3.570  11.714   5.687  2.1737  0.1776 -0.1540
  586MOL0     H77326   3.372  11.576   5.518  0.2564 -0.2962 -0.1731
  586MOL0     H77327   3.455  11.732   5.469 -3.8521  1.9453 -0.1249
  586MOL0     H77328   3.363  11.828   5.687 -1.0757  0.6743  0.5548
  586MOL0     H77329   3.266  11.685   5.692 -2.5816  3.0063  0.8420
  586MOL0     H77330   3.146  11.757   5.482  0.7036 -1.8447  0.9493
  586MOL0     H77331   3.143  11.883   5.613  0.7091 -0.4560  0.7388
  586MOL0     H77332   3.204  11.980   5.377  0.0763 -1.3595 -1.4073
  586MOL0     H77333   3.347  11.882   5.377  1.1420 -0.1838  1.5940
  586MOL0     H77334   3.834  11.149   5.969  1.9097 -2.1797  1.3286
  586MOL0     H77335   3.999  11.109   6.166  0.5772  0.6330  1.9088
  586MOL0     H77336   4.547  11.295   6.390 -0.1894 -1.1529 -0.5719
  586MOL0     H77337   4.631  11.214   6.602  1.3390 -0.2298 -1.7701
  586MOL0     H77338   5.194  10.782   8.200 -3.2072  2.0637 -0.7197
  586MOL0     H77339   5.391  10.731   8.331 -0.7820 -0.5225  1.4458
  586MOL0     H77340   5.672  10.548   8.623  2.4395 -0.7525  1.4292
  586MOL0     H77341   5.888  10.508   8.681 -0.5346  0.4181 -1.4590
  586MOL0     H77342   6.187  10.846   8.750 -0.3679  0.8815  0.1499
  586MOL0     H77343   6.209  10.777   8.586 -3.4793 -2.4363  0.0650
  586MOL0     H77344   6.413  10.768   8.718 -0.8010  0.1875 -0.4703
  586MOL0     H77345   6.326  10.701   8.855  1.2497  0.6860 -0.9429
  586MOL0     H77346   6.278  10.489   8.719  1.7284  0.8259  3.7405
  586MOL0     H77347   6.450  10.524   8.744  1.1368  2.2327  0.6615
  586MOL0     H77348   6.292  10.587   8.490  0.7442  1.3643  0.4092
  586MOL0     H77349   6.454  10.644   8.520  1.0048 -0.2578 -1.0048
  586MOL0     H77350   6.573  10.255   8.493 -0.5263 -0.4506 -2.3293
  586MOL0     H77351   6.010  10.909   8.593 -2.9893  2.1991  3.6323
  586MOL0     H77352   5.780  10.957   8.506  0.9338 -0.7796 -1.4202
  587MOL0     O77353   8.933   6.328   0.721  0.2607  0.1166 -0.5557
  587MOL0     C77354   8.950   6.385   0.824  0.5091 -0.3329  0.0391
  587MOL0     O77355   8.857   6.454   0.884 -0.0016 -0.1376 -0.7054
  587MOL0     C77356   8.732   6.474   0.836 -1.5592 -0.3646  0.3911
  587MOL0     C77357   8.710   6.593   0.772 -0.3657  1.4822 -0.4697
  587MOL0     C77358   8.585   6.624   0.707  0.3779  0.9781 -0.3300
  587MOL0     C77359   8.477   6.533   0.739  0.2663  0.2767 -0.6273
  587MOL0     O77360   8.345   6.552   0.699  0.6188 -0.3963 -0.2255
  587MOL0     C77361   8.297   6.682   0.721  0.2767  0.1065 -1.0117
  587MOL0     C77362   8.143   6.669   0.677 -0.8212 -0.4419  0.2091
  587MOL0     C77363   8.067   6.788   0.734 -0.0457 -0.6719  0.0524
  587MOL0     C77364   7.926   6.779   0.675  0.6184 -0.1164 -0.7104
  587MOL0     C77365   7.826   6.884   0.718  0.2120  0.3765 -0.5131
  587MOL0     C77366   7.757   6.865   0.860  0.7315 -0.3956  0.5292
  587MOL0     C77367   7.639   6.963   0.872  0.4923 -0.3081  0.0765
  587MOL0     C77368   7.596   6.984   1.019  0.6461 -1.0358  0.0943
  587MOL0     N77369   7.455   6.940   1.041 -0.3939 -0.2984 -0.0274
  587MOL0     C77370   7.417   6.810   1.066 -0.3373  0.3611  0.4373
  587MOL0     C77371   7.288   6.803   1.085  0.3880 -0.6737  0.4586
  587MOL0     C77372   7.209   6.686   1.125  0.3056 -0.1129  0.3637
  587MOL0     C77373   7.197   6.647   1.271  0.1115  0.1806 -0.3613
  587MOL0     C77374   7.189   6.777   1.371  0.1349  0.2990  0.0019
  587MOL0     C77375   7.059   6.860   1.355 -0.0523 -0.0173 -0.9578
  587MOL0     O77376   6.952   6.778   1.406  0.0192 -0.2687  0.1139
  587MOL0     C77377   6.832   6.847   1.411  0.0718 -0.4263 -0.4496
  587MOL0     C77378   6.719   6.758   1.431 -0.0721  0.8238 -0.0257
  587MOL0     C77379   6.591   6.802   1.470 -0.2859 -0.2247  0.2889
  587MOL0     C77380   6.568   6.940   1.475  0.3025  0.4980  0.8634
  587MOL0     C77381   6.431   6.999   1.502  0.1998  0.5757  1.0206
  587MOL0     O77382   6.415   7.134   1.463 -0.5708  0.1390  0.3281
  587MOL0     C77383   6.310   7.222   1.492 -0.2814  0.4348 -0.2115
  587MOL0     C77384   6.186   7.195   1.539  0.1290  0.0332 -0.4310
  587MOL0     C77385   6.087   7.294   1.531  0.7620  0.5231 -0.7381
  587MOL0     C77386   6.120   7.430   1.489  0.6537  0.0076  0.6947
  587MOL0     O77387   6.033   7.536   1.501 -1.0521  0.3600  1.0547
  587MOL0     C77388   5.956   7.542   1.629  0.4028  0.0932 -0.4709
  587MOL0     C77389   5.887   7.677   1.644  0.2135  0.5564 -0.4062
  587MOL0     C77390   5.849   7.729   1.786  0.0669  0.2451 -0.5294
  587MOL0     C77391   5.965   7.762   1.883  1.1727 -0.1877 -0.8097
  587MOL0     C77392   5.931   7.741   2.032  0.5848  1.0639 -0.3927
  587MOL0     C77393   6.041   7.809   2.114  0.6125  0.9737  0.7142
  587MOL0     C77394   6.016   7.802   2.260  0.4463  0.2250 -0.0786
  587MOL0     C77395   6.136   7.844   2.352  0.3145  0.5133  0.1201
  587MOL0    Cl77396   6.083   7.848   2.525  0.0105 -0.2681 -0.3065
  587MOL0     C77397   6.253   7.451   1.449 -0.0068 -0.2704  0.8137
  587MOL0     C77398   6.345   7.346   1.446  0.2740 -0.1541  0.1354
  587MOL0     O77399   6.342   6.928   1.556 -0.3935  0.2887 -0.1236
  587MOL0     C77400   6.669   7.034   1.456 -0.4475  0.6102 -0.4943
  587MOL0     C77401   6.799   6.983   1.418 -1.1705 -1.2327  0.6862
  587MOL0     N77402   7.242   6.936   1.070  0.7538 -0.4143  0.0374
  587MOL0     N77403   7.340   7.015   1.037  0.5009 -0.2935  0.0882
  587MOL0     C77404   8.499   6.412   0.804 -0.1223  0.2984 -0.3952
  587MOL0     C77405   8.632   6.387   0.849 -0.2781  1.0391 -0.6663
  587MOL0     C77406   9.085   6.380   0.884 -1.0099 -0.2189  0.6583
  587MOL0     C77407   9.192   6.324   0.814 -0.2054 -0.1149  0.0409
  587MOL0     C77408   9.323   6.337   0.872  0.0340 -0.2273 -0.8905
  587MOL0     C77409   9.340   6.386   1.003 -1.1881  0.5301 -0.7489
  587MOL0     O77410   9.461   6.382   1.069 -0.6524 -0.3112  1.0831
  587MOL0     C77411   9.573   6.399   0.983 -0.2612  0.3141  0.0410
  587MOL0     C77412   9.689   6.489   1.042  1.2897 -0.3539 -0.1240
  587MOL0     C77413   9.765   6.407   1.136  0.1503  0.2939 -0.1560
  587MOL0     C77414   9.906   6.467   1.143 -0.2094 -0.0438  0.8096
  587MOL0     C77415   9.909   6.603   1.190 -0.2939  0.2681 -0.1212
  587MOL0     C77416   9.916   6.718   1.228  0.4000  0.2813  0.0861
  587MOL0     C77417   9.230   6.433   1.075 -0.5004 -0.5478  0.7274
  587MOL0     C77418   9.101   6.435   1.012 -0.7057 -0.0819 -0.1721
  587MOL0     H77419   8.790   6.661   0.744  0.4604  0.8715  0.3410
  587MOL0     H77420   8.567   6.713   0.646  2.0993  0.3843 -1.7866
  587MOL0     H77421   8.342   6.767   0.668  1.7823  0.1105  0.2185
  587MOL0     H77422   8.299   6.699   0.829  0.1143  0.6495 -1.0874
  587MOL0     H77423   8.100   6.582   0.727  1.7167  0.4111  4.3703
  587MOL0     H77424   8.134   6.666   0.568 -0.5960 -0.0092  0.1738
  587MOL0     H77425   8.114   6.883   0.706  3.0273 -0.7813  3.9504
  587MOL0     H77426   8.085   6.788   0.842  0.4361  0.5168 -0.0099
  587MOL0     H77427   7.930   6.773   0.566 -0.7848 -2.9641 -0.7203
  587MOL0     H77428   7.888   6.679   0.698  1.1773 -0.0673  0.5372
  587MOL0     H77429   7.740   6.875   0.651 -0.9993 -0.5510  1.0856
  587MOL0     H77430   7.870   6.984   0.719  0.2425  0.3872 -1.6147
  587MOL0     H77431   7.836   6.884   0.934  2.5474  0.3777 -1.4884
  587MOL0     H77432   7.723   6.762   0.868  1.0021 -0.4740  0.7045
  587MOL0     H77433   7.662   7.055   0.817 -3.6486  0.1942 -1.1773
  587MOL0     H77434   7.558   6.918   0.815 -0.6508  1.5098  0.1672
  587MOL0     H77435   7.602   7.090   1.043  2.3604 -0.8909 -0.7911
  587MOL0     H77436   7.651   6.918   1.088  1.4037 -1.9627 -1.3360
  587MOL0     H77437   7.480   6.723   1.081  0.3756  1.2385  3.1739
  587MOL0     H77438   7.248   6.605   1.061  1.5779  1.4156 -0.8862
  587MOL0     H77439   7.108   6.691   1.083  1.2186 -0.6847 -2.0716
  587MOL0     H77440   7.282   6.585   1.301 -1.2012 -1.5070  0.0317
  587MOL0     H77441   7.112   6.581   1.288  1.5263 -1.1327  2.2654
  587MOL0     H77442   7.196   6.744   1.475 -1.3152  0.2949  0.1182
  587MOL0     H77443   7.280   6.831   1.346 -0.2974  0.7461 -0.6423
  587MOL0     H77444   7.045   6.901   1.255  1.0748 -0.9102 -1.5045
  587MOL0     H77445   7.076   6.949   1.415  1.4564 -0.0954 -1.2318
  587MOL0     H77446   6.748   6.653   1.437  1.9164  1.3913  1.6168
  587MOL0     H77447   6.506   6.734   1.481 -1.3935  0.5239 -2.6156
  587MOL0     H77448   6.161   7.095   1.573  0.4147 -0.7252 -2.3023
  587MOL0     H77449   5.989   7.278   1.575  1.2463  3.4776  1.7711
  587MOL0     H77450   6.031   7.526   1.707  0.9208 -0.8025 -1.1457
  587MOL0     H77451   5.882   7.462   1.635  4.2262 -3.6445  1.7035
  587MOL0     H77452   5.791   7.668   1.593 -1.4274  1.5571  2.2992
  587MOL0     H77453   5.933   7.751   1.577  2.5190 -0.6176 -0.2308
  587MOL0     H77454   5.786   7.648   1.826 -0.1157 -0.4851 -2.2225
  587MOL0     H77455   5.784   7.816   1.772 -0.9741 -0.8238 -2.7333
  587MOL0     H77456   6.060   7.707   1.878  0.2662 -2.6125  3.7071
  587MOL0     H77457   5.978   7.871   1.883 -1.9717  0.3816  2.8333
  587MOL0     H77458   5.930   7.635   2.061  3.0396  0.6525 -1.5255
  587MOL0     H77459   5.839   7.787   2.070 -0.1846 -0.5967 -0.1622
  587MOL0     H77460   6.055   7.910   2.072  0.2275 -1.0248 -5.1643
  587MOL0     H77461   6.133   7.755   2.092  1.1381  2.1253 -0.0131
  587MOL0     H77462   5.923   7.859   2.270  0.1615 -0.1931 -0.3479
  587MOL0     H77463   5.992   7.699   2.286  3.9161 -1.0634 -1.4810
  587MOL0     H77464   6.172   7.944   2.324 -2.3336  1.2230 -1.1098
  587MOL0     H77465   6.224   7.781   2.335 -1.0016 -0.9500 -1.8251
  587MOL0     H77466   6.283   7.550   1.415 -0.1616 -0.9719 -1.5078
  587MOL0     H77467   6.444   7.360   1.402  0.4686 -1.4632  0.1025
  587MOL0     H77468   6.665   7.142   1.455  1.1175  0.6898 -0.7455
  587MOL0     H77469   6.868   7.064   1.396 -3.7898  1.6785  2.3827
  587MOL0     H77470   8.403   6.362   0.812 -1.0366  2.2472  2.4499
  587MOL0     H77471   8.653   6.298   0.907 -1.6005  0.6374 -0.7744
  587MOL0     H77472   9.184   6.264   0.724  0.9781  0.0303 -0.1654
  587MOL0     H77473   9.408   6.296   0.819 -0.7323 -3.2087 -0.0462
  587MOL0     H77474   9.542   6.472   0.907 -3.2613  1.2829  1.9999
  587MOL0     H77475   9.604   6.305   0.937 -1.1726  1.2073 -2.6261
  587MOL0     H77476   9.745   6.550   0.971  0.4818  0.4479 -0.0937
  587MOL0     H77477   9.637   6.556   1.112  1.8711 -2.0723  2.0698
  587MOL0     H77478   9.764   6.299   1.124  0.3393  0.1708  0.9195
  587MOL0     H77479   9.724   6.420   1.237  2.9191 -0.2280  1.1101
  587MOL0     H77480   9.960   6.411   1.220 -1.9732 -2.5404  0.3584
  587MOL0     H77481   9.944   6.469   1.041 -0.3810  0.7114  0.7554
  587MOL0     H77482   9.932   6.820   1.256  2.0170 -0.1108  0.7248
  587MOL0     H77483   9.252   6.466   1.176 -1.7791 -0.2453  0.9327
  587MOL0     H77484   9.011   6.471   1.061  0.1292  0.6562  0.8736
  588MOL0     O77485   8.251   1.429   9.019 -0.2076  0.4315  0.3308
  588MOL0     C77486   8.328   1.454   8.921 -0.2356 -0.4930 -0.8128
  588MOL0     O77487   8.294   1.529   8.811  0.5676  0.6048 -0.2373
  588MOL0     C77488   8.161   1.555   8.788 -0.0950  0.3510  0.6004
  588MOL0     C77489   8.076   1.616   8.890 -0.2280 -0.7285  0.0360
  588MOL0     C77490   7.953   1.670   8.850  0.2569 -0.2360  0.8085
  588MOL0     C77491   7.907   1.659   8.717 -0.2802  0.5368  0.4931
  588MOL0     O77492   7.788   1.723   8.683 -0.9560 -0.1750  1.1205
  588MOL0     C77493   7.766   1.763   8.553  0.0291 -1.2266  0.2945
  588MOL0     C77494   7.647   1.866   8.572 -0.2798  1.2506 -0.8192
  588MOL0     C77495   7.604   1.931   8.442 -0.4604  0.3767  0.0591
  588MOL0     C77496   7.485   2.020   8.448  0.7881  0.4995 -0.4901
  588MOL0     C77497   7.356   1.948   8.412  0.0507 -0.1807  0.8297
  588MOL0     C77498   7.229   2.035   8.422 -0.1015 -0.0358 -0.7086
  588MOL0     C77499   7.106   1.949   8.430  0.6247 -0.6112  0.4421
  588MOL0     C77500   6.971   2.031   8.460  0.4042 -0.1608 -0.1222
  588MOL0     N77501   6.923   2.111   8.348  0.2510 -0.0111  0.3535
  588MOL0     C77502   6.864   2.070   8.230 -0.8295  0.3382 -1.3223
  588MOL0     C77503   6.857   2.182   8.158  0.5549  0.4168  0.4201
  588MOL0     C77504   6.815   2.172   8.015  0.3528  1.0155 -0.9860
  588MOL0     C77505   6.657   2.170   7.992  0.9577  0.3160  0.1616
  588MOL0     C77506   6.611   2.317   7.956  0.7445  1.2198 -0.7659
  588MOL0     C77507   6.464   2.334   7.918  0.6808  0.1767  0.3220
  588MOL0     O77508   6.456   2.474   7.867 -0.5173  0.5918  0.3080
  588MOL0     C77509   6.363   2.508   7.778  0.1052  0.6092 -0.0481
  588MOL0     C77510   6.245   2.439   7.753 -0.2119  0.9459 -0.1860
  588MOL0     C77511   6.137   2.507   7.705 -0.5588 -0.8616 -0.0081
  588MOL0     C77512   6.135   2.640   7.660 -0.4957 -0.1884 -0.6021
  588MOL0     C77513   6.020   2.705   7.594 -0.3607  0.1816  0.1089
  588MOL0     O77514   6.034   2.822   7.532 -0.3655  0.0302  0.5835
  588MOL0     C77515   5.940   2.874   7.451 -0.3575 -0.8665 -0.3001
  588MOL0     C77516   5.932   3.016   7.454 -0.7476  0.8256  0.0989
  588MOL0     C77517   5.854   3.075   7.351 -0.2079 -0.2550  0.5315
  588MOL0     C77518   5.786   2.996   7.263 -0.0550 -0.9891  0.0439
  588MOL0     O77519   5.707   3.068   7.174 -0.4198  0.2855 -0.0750
  588MOL0     C77520   5.570   3.050   7.195  0.4465 -1.0654  0.8110
  588MOL0     C77521   5.486   3.171   7.152  0.5883  0.3043 -0.4574
  588MOL0     C77522   5.329   3.138   7.162 -0.5346 -0.3457  0.4714
  588MOL0     C77523   5.268   3.279   7.163 -0.2620  0.3245  1.4051
  588MOL0     C77524   5.120   3.266   7.171 -0.5259 -0.3594 -0.2357
  588MOL0     C77525   5.058   3.401   7.140 -0.6927 -0.2844  0.4634
  588MOL0     C77526   4.899   3.401   7.138 -0.0707 -0.2401 -0.5900
  588MOL0     C77527   4.852   3.546   7.140 -0.0120  0.1667  1.2909
  588MOL0    Cl77528   4.899   3.622   7.298 -0.1330  0.1109  0.2025
  588MOL0     C77529   5.797   2.857   7.262 -0.5266 -0.6283  0.1052
  588MOL0     C77530   5.880   2.797   7.355  0.1909  1.0395 -0.0099
  588MOL0     O77531   5.915   2.641   7.601  0.3977 -0.0948  0.1427
  588MOL0     C77532   6.258   2.698   7.649 -0.3237 -0.2624  0.4178
  588MOL0     C77533   6.372   2.631   7.714  0.2541 -0.1166  0.9767
  588MOL0     N77534   6.911   2.289   8.227 -0.2404  0.2508 -0.0268
  588MOL0     N77535   6.943   2.241   8.342  0.0640 -0.2490 -0.1983
  588MOL0     C77536   7.985   1.592   8.623  0.8447  0.4910  0.1161
  588MOL0     C77537   8.115   1.537   8.654 -0.3457  0.3695 -0.6375
  588MOL0     C77538   8.467   1.411   8.932  0.2257 -0.4372  0.6372
  588MOL0     C77539   8.560   1.417   8.822  0.1880 -0.6017  0.5871
  588MOL0     C77540   8.688   1.364   8.826 -0.2297 -0.8155  0.6159
  588MOL0     C77541   8.738   1.319   8.950  0.2784 -0.3849  0.1130
  588MOL0     O77542   8.867   1.288   8.968 -0.7213 -0.1938 -0.5512
  588MOL0     C77543   8.965   1.377   8.904  0.8529  1.3465  0.1252
  588MOL0     C77544   9.108   1.354   8.937  0.0226  0.6234 -0.2220
  588MOL0     C77545   9.175   1.216   8.901  0.0222 -0.0891 -0.0993
  588MOL0     C77546   9.328   1.200   8.930 -0.0007 -0.9201 -0.5590
  588MOL0     C77547   9.344   1.204   9.080  0.1568  0.0358  0.9338
  588MOL0     C77548   9.365   1.212   9.195 -0.6748  0.4825 -1.3788
  588MOL0     C77549   8.647   1.314   9.057 -0.1052  0.4770 -0.8590
  588MOL0     C77550   8.513   1.345   9.052  0.9441  0.2477  0.2064
  588MOL0     H77551   8.104   1.620   8.995 -0.8796  0.3540  0.1797
  588MOL0     H77552   7.886   1.721   8.918 -0.4080  1.1306 -0.8076
  588MOL0     H77553   7.727   1.683   8.489 -3.0543  0.0462  0.3835
  588MOL0     H77554   7.848   1.814   8.503  0.3940 -1.7841  0.3174
  588MOL0     H77555   7.681   1.952   8.631 -1.5810  1.4832 -0.3704
  588MOL0     H77556   7.566   1.822   8.631 -1.1131 -1.9783 -4.0315
  588MOL0     H77557   7.585   1.850   8.372  1.0471 -0.4897  0.5927
  588MOL0     H77558   7.696   1.984   8.413  1.5227 -1.5004  2.4329
  588MOL0     H77559   7.472   2.061   8.549  2.1833  0.3751 -0.2310
  588MOL0     H77560   7.506   2.108   8.387  1.0278 -0.5879 -2.0202
  588MOL0     H77561   7.357   1.855   8.470  3.4253  0.3417  1.8153
  588MOL0     H77562   7.363   1.915   8.308 -0.6913 -1.2289  1.0915
  588MOL0     H77563   7.225   2.101   8.334 -1.2464 -0.0000 -0.6375
  588MOL0     H77564   7.237   2.087   8.518 -1.4773 -4.1068  1.8621
  588MOL0     H77565   7.093   1.898   8.334 -1.3795 -0.4574  0.5775
  588MOL0     H77566   7.125   1.882   8.515  2.5980  0.2698  0.7365
  588MOL0     H77567   6.978   2.097   8.547 -4.1381  0.3625  0.0979
  588MOL0     H77568   6.896   1.957   8.490 -0.0328  0.5759  0.6811
  588MOL0     H77569   6.833   1.968   8.209  0.2544 -0.8020  2.0037
  588MOL0     H77570   6.863   2.083   7.973  1.3043 -0.3983  2.7142
  588MOL0     H77571   6.856   2.247   7.947 -0.6175  0.9880 -1.6224
  588MOL0     H77572   6.597   2.137   8.077 -0.7067  1.1001 -0.6509
  588MOL0     H77573   6.633   2.105   7.907  0.0974 -0.2660  0.8447
  588MOL0     H77574   6.623   2.375   8.048  0.2387  1.4199 -0.8222
  588MOL0     H77575   6.667   2.354   7.870  1.9983  1.0369 -0.0602
  588MOL0     H77576   6.389   2.323   7.997 -0.6250 -0.5254 -0.9655
  588MOL0     H77577   6.443   2.257   7.843 -0.9879 -0.3930  1.3169
  588MOL0     H77578   6.234   2.335   7.781 -0.7355  1.0317 -0.0580
  588MOL0     H77579   6.053   2.439   7.693 -0.5772 -0.5470 -2.2185
  588MOL0     H77580   5.984   3.074   7.529 -1.9770 -0.4118  1.9932
  588MOL0     H77581   5.833   3.181   7.355 -1.7159 -0.5498  3.7809
  588MOL0     H77582   5.561   3.028   7.301  5.3549  1.1550  1.9908
  588MOL0     H77583   5.541   2.964   7.134 -0.3979  0.3706 -0.9154
  588MOL0     H77584   5.514   3.183   7.047 -1.5750  0.9953 -0.9928
  588MOL0     H77585   5.512   3.260   7.210  0.5305 -1.3685  2.3198
  588MOL0     H77586   5.316   3.094   7.261  2.3107  2.8541  2.5183
  588MOL0     H77587   5.287   3.078   7.080 -1.9564  1.3495 -0.0957
  588MOL0     H77588   5.302   3.324   7.257 -0.1525 -0.9557  1.9980
  588MOL0     H77589   5.295   3.336   7.073 -1.1611 -0.6394  0.4967
  588MOL0     H77590   5.091   3.230   7.270  1.0740  0.0520  0.4083
  588MOL0     H77591   5.082   3.202   7.090 -0.1356  0.2927 -0.9512
  588MOL0     H77592   5.078   3.429   7.036  0.2285 -3.9542 -0.4823
  588MOL0     H77593   5.094   3.474   7.213 -3.3944  1.0417  0.5867
  588MOL0     H77594   4.866   3.347   7.048 -0.1117  1.1998 -1.4712
  588MOL0     H77595   4.868   3.344   7.226 -2.2902  3.5133  1.2895
  588MOL0     H77596   4.743   3.554   7.133  0.1837  3.2033 -0.2344
  588MOL0     H77597   4.898   3.590   7.051 -1.7628 -0.2009  0.1671
  588MOL0     H77598   5.728   2.809   7.193 -1.8474 -0.1622  1.0618
  588MOL0     H77599   5.893   2.690   7.362 -2.8746  0.5893 -0.0529
  588MOL0     H77600   6.281   2.796   7.607  1.5526 -0.8003  0.0813
  588MOL0     H77601   6.469   2.679   7.730  0.1284 -0.3885  2.8149
  588MOL0     H77602   7.945   1.584   8.523  1.8996 -0.5653 -0.2405
  588MOL0     H77603   8.170   1.468   8.590  1.2039 -1.1906  2.1708
  588MOL0     H77604   8.535   1.472   8.732 -0.6110 -2.0012 -0.0862
  588MOL0     H77605   8.753   1.396   8.745  0.5040  1.2281  1.9544
  588MOL0     H77606   8.942   1.481   8.929 -0.9528  1.8968 -3.1740
  588MOL0     H77607   8.958   1.382   8.795  1.0956  0.5194  0.0634
  588MOL0     H77608   9.166   1.427   8.881  1.9876 -1.7056 -1.4350
  588MOL0     H77609   9.120   1.383   9.042 -0.3544  0.4096 -0.1170
  588MOL0     H77610   9.162   1.195   8.794  3.3539  0.6924 -0.7696
  588MOL0     H77611   9.130   1.142   8.968 -3.6306 -0.5009 -2.7210
  588MOL0     H77612   9.350   1.098   8.895  0.2439 -1.1428  0.2297
  588MOL0     H77613   9.385   1.272   8.870 -1.6352  1.1551  0.2869
  588MOL0     H77614   9.405   1.209   9.294 -1.5533 -2.6396 -1.0202
  588MOL0     H77615   8.691   1.277   9.150 -1.1129 -0.3662 -0.6994
  588MOL0     H77616   8.442   1.332   9.133  1.1965 -2.7135  0.0723
  589MOL0     O77617  10.205   6.708   0.444 -0.0843 -0.8468  1.2240
  589MOL0     C77618  10.241   6.669   0.556 -0.6152 -0.0622  0.3171
  589MOL0     O77619  10.176   6.686   0.676  0.3547  0.6959 -0.0228
  589MOL0     C77620  10.068   6.758   0.701 -0.1263 -0.5237  0.0948
  589MOL0     C77621  10.077   6.897   0.730  0.2861 -0.8109 -0.6914
  589MOL0     C77622   9.963   6.961   0.782  0.2636 -0.5545 -0.3620
  589MOL0     C77623   9.841   6.891   0.796 -0.1373  0.0333 -0.5511
  589MOL0     O77624   9.732   6.966   0.857  0.4456  0.3316  0.4498
  589MOL0     C77625   9.632   6.888   0.923  0.2580 -0.3844  0.1984
  589MOL0     C77626   9.543   6.986   1.009  1.2341 -0.6497  0.2287
  589MOL0     C77627   9.629   7.074   1.094  1.2723 -0.7897 -0.3083
  589MOL0     C77628   9.736   7.013   1.171  0.1701  0.2215 -0.6209
  589MOL0     C77629   9.800   7.115   1.266  0.1508  0.1584 -0.3619
  589MOL0     C77630   9.925   7.072   1.343 -0.1754 -0.7874  0.3022
  589MOL0     C77631   9.981   7.183   1.437 -0.1121  0.4376 -0.3614
  589MOL0     C77632  10.082   7.272   1.351 -0.0749 -0.5095  0.0631
  589MOL0     N77633  10.157   7.364   1.439  1.0500 -0.0028 -0.2023
  589MOL0     C77634  10.140   7.393   1.568  0.3850 -0.1454  0.6908
  589MOL0     C77635  10.244   7.482   1.597  0.4513 -0.2307 -0.4505
  589MOL0     C77636  10.239   7.550   1.726 -0.9513  0.0206  0.4538
  589MOL0     C77637  10.353   7.498   1.818 -0.3140 -0.6576 -1.2643
  589MOL0     C77638  10.330   7.349   1.855 -0.6286  0.0919 -0.8546
  589MOL0     C77639  10.241   7.320   1.970 -0.2061  0.1408 -0.4972
  589MOL0     O77640  10.107   7.353   1.939 -0.7160  1.2466  0.0048
  589MOL0     C77641  10.023   7.269   1.871 -0.7959 -0.1654 -0.4012
  589MOL0     C77642  10.051   7.136   1.847 -0.7869  0.9451  0.5729
  589MOL0     C77643   9.959   7.052   1.789  0.3094  0.0093  0.2265
  589MOL0     C77644   9.833   7.104   1.751 -0.1063  0.2301 -0.4390
  589MOL0     C77645   9.722   7.021   1.688 -1.0359  0.4234  0.4308
  589MOL0     O77646   9.618   7.081   1.619 -0.3434 -0.3250 -0.1345
  589MOL0     C77647   9.508   7.006   1.581 -0.8764  0.0342 -0.3371
  589MOL0     C77648   9.453   6.902   1.662  0.2135 -0.3334 -0.2414
  589MOL0     C77649   9.350   6.826   1.600  0.0635 -0.1028  0.6092
  589MOL0     C77650   9.301   6.847   1.471  2.2142 -0.2775 -0.4334
  589MOL0     O77651   9.190   6.774   1.418  0.4644 -0.2940  0.3700
  589MOL0     C77652   9.139   6.670   1.494  0.9537 -0.6991 -0.3165
  589MOL0     C77653   9.040   6.584   1.410  0.0597  0.2653  1.0294
  589MOL0     C77654   8.898   6.646   1.395 -0.2130 -0.0576  0.6130
  589MOL0     C77655   8.798   6.593   1.502  0.8612 -0.4159 -0.3938
  589MOL0     C77656   8.657   6.621   1.443 -0.1846 -0.1538  0.1079
  589MOL0     C77657   8.612   6.769   1.428  0.2224 -1.2269  0.3903
  589MOL0     C77658   8.598   6.849   1.549 -0.0904 -0.2880  0.5054
  589MOL0     C77659   8.495   6.804   1.646  0.3619 -0.1222  0.0242
  589MOL0    Cl77660   8.324   6.806   1.572 -0.3678  0.2249  0.0662
  589MOL0     C77661   9.348   6.956   1.403 -0.3397 -0.2586  0.7148
  589MOL0     C77662   9.465   7.029   1.450  0.5348  0.5739 -0.1519
  589MOL0     O77663   9.743   6.902   1.704  0.0281 -0.4071  0.5968
  589MOL0     C77664   9.809   7.231   1.784  0.5271  0.1076 -0.0298
  589MOL0     C77665   9.900   7.321   1.836  0.4413 -0.2075 -0.6715
  589MOL0     N77666  10.310   7.514   1.476 -0.3329 -0.7974  0.5011
  589MOL0     N77667  10.273   7.434   1.387  0.4062  0.5046 -0.2613
  589MOL0     C77668   9.831   6.755   0.755 -0.3437 -0.1511 -0.0852
  589MOL0     C77669   9.939   6.691   0.709 -0.4639 -0.4145  1.1063
  589MOL0     C77670  10.372   6.592   0.569  0.4907  0.2115 -0.4981
  589MOL0     C77671  10.428   6.558   0.693  0.3003  0.1965  0.9394
  589MOL0     C77672  10.545   6.483   0.713  0.4484  0.3696 -0.1651
  589MOL0     C77673  10.608   6.437   0.597 -0.4890 -0.3034 -1.1098
  589MOL0     O77674  10.730   6.378   0.594 -0.3284 -0.0163 -0.0729
  589MOL0     C77675  10.805   6.361   0.716  0.2101  0.5070 -0.7781
  589MOL0     C77676  10.950   6.336   0.684 -0.3798 -0.7010 -0.0975
  589MOL0     C77677  11.037   6.438   0.613 -0.1155 -1.0043  0.7350
  589MOL0     C77678  10.976   6.513   0.493  0.4484  1.2247 -0.0308
  589MOL0     C77679  11.084   6.552   0.401 -0.0395 -0.3299 -0.1530
  589MOL0     C77680  11.174   6.578   0.322  0.0316 -0.1736 -0.2952
  589MOL0     C77681  10.551   6.462   0.472  0.5262 -0.3764  0.2169
  589MOL0     C77682  10.434   6.544   0.450 -0.3357  0.0904 -0.5802
  589MOL0     H77683  10.178   6.937   0.726 -0.2735  1.6960  3.6101
  589MOL0     H77684   9.971   7.067   0.803  0.8923 -0.0046 -2.9906
  589MOL0     H77685   9.673   6.815   0.993  0.5009 -0.8723 -0.4425
  589MOL0     H77686   9.573   6.840   0.844 -1.6884  2.3753 -0.1704
  589MOL0     H77687   9.479   6.915   1.061  1.7126 -2.3372 -1.3754
  589MOL0     H77688   9.480   7.045   0.941  0.1581 -3.0307 -0.9623
  589MOL0     H77689   9.561   7.116   1.169  2.5135  2.8416 -1.0116
  589MOL0     H77690   9.660   7.161   1.035 -0.4723  0.5475  0.6547
  589MOL0     H77691   9.705   6.929   1.233  1.8649  0.6817  0.9627
  589MOL0     H77692   9.817   6.981   1.104  1.5142  1.0886  0.5169
  589MOL0     H77693   9.723   7.137   1.341  1.5413  0.1658  1.1075
  589MOL0     H77694   9.819   7.209   1.214 -2.1824  1.1378  0.4272
  589MOL0     H77695  10.007   7.040   1.278 -0.9473 -0.2710 -0.9627
  589MOL0     H77696   9.899   6.990   1.411 -4.7070 -1.1342 -1.5010
  589MOL0     H77697   9.893   7.235   1.476 -0.2493  0.1530 -0.2888
  589MOL0     H77698  10.042   7.146   1.520  1.9059 -0.4520 -2.1395
  589MOL0     H77699  10.032   7.341   1.283 -0.7030 -2.3940 -1.4667
  589MOL0     H77700  10.157   7.212   1.299 -0.4840 -1.0067  0.0343
  589MOL0     H77701  10.056   7.361   1.629  0.3034 -0.7934  0.2463
  589MOL0     H77702  10.143   7.540   1.776 -1.2942  0.8338 -0.0242
  589MOL0     H77703  10.260   7.655   1.703  1.5700 -0.3967  0.4774
  589MOL0     H77704  10.343   7.562   1.906 -0.2730 -2.0418 -0.2192
  589MOL0     H77705  10.453   7.516   1.779  1.7511 -0.7890  3.3528
  589MOL0     H77706  10.300   7.300   1.761  3.4870 -2.7027 -0.9557
  589MOL0     H77707  10.426   7.301   1.871 -1.9921 -2.6269 -0.2143
  589MOL0     H77708  10.261   7.392   2.049 -4.0346  2.0382 -1.0136
  589MOL0     H77709  10.257   7.217   2.003  0.7552 -0.0013 -1.3574
  589MOL0     H77710  10.147   7.088   1.865 -0.3036  2.5027  2.5878
  589MOL0     H77711   9.986   6.948   1.778  1.7485  0.4801 -0.9475
  589MOL0     H77712   9.493   6.874   1.759  0.2806 -2.5084 -0.8535
  589MOL0     H77713   9.318   6.743   1.663 -2.8123  0.8413  0.5285
  589MOL0     H77714   9.088   6.701   1.586  0.9236  1.4421 -1.0075
  589MOL0     H77715   9.213   6.598   1.528  2.0060 -1.2688 -3.5818
  589MOL0     H77716   9.039   6.482   1.449 -0.5331 -1.2886 -2.5918
  589MOL0     H77717   9.091   6.581   1.313  0.4924  0.9152  1.2290
  589MOL0     H77718   8.864   6.601   1.301  1.4706 -3.4245  1.4554
  589MOL0     H77719   8.900   6.753   1.371  2.5142 -0.6729 -2.7111
  589MOL0     H77720   8.805   6.489   1.536 -1.5965  0.8954  5.4135
  589MOL0     H77721   8.792   6.653   1.593 -1.9830 -0.9602 -0.1282
  589MOL0     H77722   8.587   6.572   1.511  1.8942 -0.6548  2.0152
  589MOL0     H77723   8.640   6.575   1.346 -1.8995  1.2838 -0.3319
  589MOL0     H77724   8.535   6.792   1.353  2.7726  2.9442 -1.2786
  589MOL0     H77725   8.700   6.816   1.383  0.1405 -2.6917 -1.4589
  589MOL0     H77726   8.698   6.836   1.592 -0.3485  1.9717  1.9606
  589MOL0     H77727   8.579   6.956   1.533 -2.0519 -0.2462  2.5099
  589MOL0     H77728   8.501   6.870   1.733  0.0544  0.4216 -0.3611
  589MOL0     H77729   8.522   6.706   1.686  1.1820  0.1866  0.2502
  589MOL0     H77730   9.309   6.978   1.305  1.3860  2.6200  0.5587
  589MOL0     H77731   9.514   7.105   1.389 -0.7616  0.7664 -0.9894
  589MOL0     H77732   9.710   7.271   1.762  0.7677 -0.2461 -1.9017
  589MOL0     H77733   9.867   7.424   1.844  1.0566 -0.0167 -0.5576
  589MOL0     H77734   9.738   6.699   0.748 -0.3822 -0.2257  0.8202
  589MOL0     H77735   9.940   6.584   0.692  2.0845 -0.5713  1.8058
  589MOL0     H77736  10.369   6.594   0.776 -3.6884  0.8676 -1.8879
  589MOL0     H77737  10.597   6.474   0.808  2.2089 -2.9465 -1.2538
  589MOL0     H77738  10.768   6.269   0.762 -2.7023  2.7554  1.9178
  589MOL0     H77739  10.803   6.445   0.786  1.0343  0.7547 -1.0421
  589MOL0     H77740  10.999   6.291   0.771  4.6066 -0.6087 -2.5400
  589MOL0     H77741  10.957   6.249   0.618 -4.1617 -2.0325  0.9990
  589MOL0     H77742  11.122   6.376   0.581 -2.5092 -2.6755 -3.1900
  589MOL0     H77743  11.078   6.514   0.680  0.1819  0.9045 -1.4760
  589MOL0     H77744  10.924   6.435   0.435  3.3172 -0.5827 -0.3861
  589MOL0     H77745  10.909   6.588   0.536 -1.0527 -0.3289  0.4835
  589MOL0     H77746  11.251   6.599   0.250  0.9629 -3.1173 -0.3056
  589MOL0     H77747  10.594   6.416   0.383 -2.3371  0.3351 -1.6695
  589MOL0     H77748  10.387   6.548   0.352 -0.6668  1.8006 -0.3808
  590MOL0     O77749   3.294   5.004   8.424 -1.0067 -0.4977  0.1568
  590MOL0     C77750   3.329   4.887   8.407 -0.4978 -0.7774  0.4435
  590MOL0     O77751   3.243   4.780   8.381 -0.6430  0.0413 -0.0533
  590MOL0     C77752   3.110   4.789   8.398  0.3589 -0.6489  0.1372
  590MOL0     C77753   3.023   4.743   8.297 -0.4089  0.7267 -0.5524
  590MOL0     C77754   2.887   4.732   8.318  0.1353 -0.1324  0.0959
  590MOL0     C77755   2.826   4.766   8.448 -0.2422  0.9730  1.3008
  590MOL0     O77756   2.691   4.766   8.470  0.2578 -0.8290 -0.3816
  590MOL0     C77757   2.599   4.678   8.394 -0.3318  0.2508  0.8238
  590MOL0     C77758   2.460   4.695   8.447 -0.0551  0.3585  0.0249
  590MOL0     C77759   2.349   4.636   8.361  0.2726  1.0071 -0.0350
  590MOL0     C77760   2.206   4.619   8.431 -0.3502 -0.2247  0.3451
  590MOL0     C77761   2.113   4.542   8.326 -0.1000 -1.1975 -0.1170
  590MOL0     C77762   2.140   4.393   8.296 -0.2324 -0.9692 -0.1711
  590MOL0     C77763   2.016   4.334   8.222 -0.3321 -0.8900  0.1398
  590MOL0     C77764   1.987   4.191   8.261  0.1830  0.4860 -0.1953
  590MOL0     N77765   2.075   4.098   8.193 -0.2321  0.7935  0.4119
  590MOL0     C77766   2.203   4.078   8.218  0.4604  0.1909 -0.0697
  590MOL0     C77767   2.250   3.990   8.131 -0.1593 -1.1263 -0.0351
  590MOL0     C77768   2.389   3.936   8.142  0.0259  0.3251  0.0989
  590MOL0     C77769   2.393   3.813   8.045  0.3064  0.1705  0.7996
  590MOL0     C77770   2.407   3.838   7.896  0.3939  0.8524 -0.6835
  590MOL0     C77771   2.511   3.931   7.856 -0.3450  1.0570  0.3434
  590MOL0     O77772   2.638   3.870   7.872 -0.1430 -0.7193 -0.2668
  590MOL0     C77773   2.756   3.944   7.869  0.4837  0.5588  0.1619
  590MOL0     C77774   2.819   3.993   7.751 -0.1836 -0.7669 -0.4048
  590MOL0     C77775   2.935   4.056   7.751 -0.5357  0.3502 -0.4632
  590MOL0     C77776   2.999   4.083   7.873 -0.2388  0.1174 -0.4875
  590MOL0     C77777   3.129   4.143   7.873 -0.7109  0.5826 -0.5960
  590MOL0     O77778   3.194   4.138   7.999 -0.1768 -0.6133  0.1028
  590MOL0     C77779   3.317   4.201   8.013  0.6785 -0.2973 -0.1848
  590MOL0     C77780   3.345   4.330   7.982  1.0759 -0.8870  0.4738
  590MOL0     C77781   3.479   4.377   8.007  0.3562  0.4187 -0.1733
  590MOL0     C77782   3.573   4.290   8.069  1.3699 -0.2435 -0.0643
  590MOL0     O77783   3.698   4.338   8.100 -0.4449 -0.2976  0.0818
  590MOL0     C77784   3.815   4.245   8.107  0.1546  0.4699  0.4449
  590MOL0     C77785   3.842   4.147   7.987 -0.0685  0.2849  0.5710
  590MOL0     C77786   3.975   4.198   7.917 -0.5787  0.3135 -0.6427
  590MOL0     C77787   4.103   4.184   8.007  0.1747 -0.3917 -0.2936
  590MOL0     C77788   4.217   4.105   7.933 -0.0627 -0.3327 -0.4870
  590MOL0     C77789   4.323   4.060   8.030 -0.8707 -0.7272  0.3726
  590MOL0     C77790   4.412   3.943   7.981  0.5868  0.6124  0.3461
  590MOL0     C77791   4.325   3.807   7.963 -0.7361  0.1364 -0.5678
  590MOL0    Cl77792   4.230   3.776   8.117 -0.1302  0.1152  0.1513
  590MOL0     C77793   3.536   4.160   8.088 -0.3619 -0.2081  0.3125
  590MOL0     C77794   3.416   4.110   8.058  0.4652  0.1643 -0.3488
  590MOL0     O77795   3.181   4.180   7.762  0.0616  0.2696 -0.0118
  590MOL0     C77796   2.927   4.048   7.998 -0.4310  0.9680  0.1559
  590MOL0     C77797   2.813   3.978   7.987  0.6554 -0.0171  0.1515
  590MOL0     N77798   2.149   3.960   8.049  0.0570  0.1632 -0.0093
  590MOL0     N77799   2.049   4.033   8.079  0.7262  0.4765 -0.2621
  590MOL0     C77800   2.908   4.819   8.543 -0.2904  0.9442 -0.1857
  590MOL0     C77801   3.052   4.818   8.526  0.4163  0.1630 -0.9060
  590MOL0     C77802   3.468   4.861   8.407 -0.3687  0.4184  0.1959
  590MOL0     C77803   3.519   4.736   8.362  0.3111  0.3371  0.3686
  590MOL0     C77804   3.653   4.710   8.346 -1.2509 -0.2957 -0.1097
  590MOL0     C77805   3.746   4.819   8.367 -0.2187 -0.1820 -0.6526
  590MOL0     O77806   3.881   4.796   8.343  0.1087 -0.1756 -0.4798
  590MOL0     C77807   3.979   4.884   8.384 -0.1310  0.8417 -0.1449
  590MOL0     C77808   4.109   4.838   8.326 -0.3359 -0.3321  0.0410
  590MOL0     C77809   4.173   4.713   8.396  0.9418  0.2822 -0.0605
  590MOL0     C77810   4.267   4.626   8.306 -0.3517 -0.1903 -0.0221
  590MOL0     C77811   4.199   4.606   8.180 -0.0110 -0.6636  0.6734
  590MOL0     C77812   4.154   4.573   8.073  0.1732  0.2422 -0.2673
  590MOL0     C77813   3.694   4.943   8.411 -0.3922  0.1367  0.8523
  590MOL0     C77814   3.561   4.962   8.430 -0.4384  0.0100 -0.2853
  590MOL0     H77815   3.070   4.698   8.210  0.2036  2.0122 -0.9075
  590MOL0     H77816   2.822   4.690   8.242  0.6157  1.8655 -1.5102
  590MOL0     H77817   2.635   4.577   8.416 -0.9621 -0.1244  0.1840
  590MOL0     H77818   2.608   4.720   8.293  3.0142  2.0521  1.7169
  590MOL0     H77819   2.435   4.801   8.444  0.4105  0.4669 -2.9171
  590MOL0     H77820   2.457   4.653   8.548 -0.3470 -1.4974 -0.7150
  590MOL0     H77821   2.390   4.541   8.324 -4.1679 -1.6351  1.0158
  590MOL0     H77822   2.310   4.698   8.280 -2.4958 -0.6931 -0.1282
  590MOL0     H77823   2.201   4.554   8.519  1.2761  1.3219  1.6544
  590MOL0     H77824   2.156   4.715   8.448  1.6159  1.2214 -1.4841
  590MOL0     H77825   2.117   4.600   8.233 -2.4155 -0.0677  0.4062
  590MOL0     H77826   2.010   4.550   8.361  1.2174  0.5639  4.0382
  590MOL0     H77827   2.169   4.333   8.383 -0.8535  0.0099  0.7349
  590MOL0     H77828   2.232   4.384   8.238  0.6269 -0.5756  1.0970
  590MOL0     H77829   1.923   4.386   8.249  0.2511  0.3260 -0.1578
  590MOL0     H77830   2.039   4.345   8.116  0.7534 -1.6354  0.2775
  590MOL0     H77831   1.886   4.184   8.219 -1.2644  1.2945  2.8626
  590MOL0     H77832   1.992   4.178   8.370 -0.9490 -2.1834 -0.3602
  590MOL0     H77833   2.258   4.116   8.303 -1.7956 -0.4521  1.7843
  590MOL0     H77834   2.412   3.893   8.240 -2.1093  2.5301  1.7030
  590MOL0     H77835   2.467   4.009   8.117  0.9646 -0.8015 -0.3593
  590MOL0     H77836   2.312   3.745   8.071 -0.4936  1.0509  0.6818
  590MOL0     H77837   2.488   3.761   8.063  0.0323 -0.3883  0.6424
  590MOL0     H77838   2.428   3.742   7.848 -1.7562 -0.7820  1.3753
  590MOL0     H77839   2.306   3.862   7.860 -0.7683 -3.5340 -1.0003
  590MOL0     H77840   2.506   4.030   7.902  1.0898  2.2927 -1.9544
  590MOL0     H77841   2.509   3.945   7.748  2.7615  0.4658  0.1076
  590MOL0     H77842   2.783   3.985   7.649  0.4628 -1.6815 -0.5767
  590MOL0     H77843   2.989   4.067   7.658  0.4787 -2.2745 -0.2729
  590MOL0     H77844   3.262   4.397   7.961  1.3673 -0.6128  0.1948
  590MOL0     H77845   3.497   4.479   7.975 -1.4341 -0.0579 -3.1067
  590MOL0     H77846   3.805   4.187   8.199  2.7376  0.2818  0.6772
  590MOL0     H77847   3.905   4.306   8.114  1.7347 -0.6273 -4.9959
  590MOL0     H77848   3.757   4.148   7.918  1.1117 -2.9088 -1.1615
  590MOL0     H77849   3.854   4.042   8.016  1.4257  0.1404 -0.4289
  590MOL0     H77850   3.969   4.306   7.902 -1.2427  0.0623 -2.4223
  590MOL0     H77851   3.995   4.136   7.828  0.8074 -0.6694  0.3015
  590MOL0     H77852   4.126   4.283   8.047 -0.5610 -0.1252 -0.5159
  590MOL0     H77853   4.086   4.124   8.097  2.0249 -1.3938 -0.5593
  590MOL0     H77854   4.253   4.178   7.859  0.3333 -1.6181 -1.6184
  590MOL0     H77855   4.181   4.021   7.873  0.6756  0.7525 -2.5728
  590MOL0     H77856   4.280   4.041   8.129 -1.3556 -0.9164  0.1325
  590MOL0     H77857   4.389   4.146   8.035 -2.5696  0.6725 -0.3603
  590MOL0     H77858   4.456   3.966   7.883 -2.2326 -0.1818 -1.2319
  590MOL0     H77859   4.488   3.918   8.055 -1.3691  0.3054  2.3544
  590MOL0     H77860   4.390   3.725   7.930 -0.5805  0.3810 -0.8799
  590MOL0     H77861   4.258   3.832   7.880 -1.6426 -0.8677 -0.1589
  590MOL0     H77862   3.616   4.100   8.130  0.5203  0.8275  0.1540
  590MOL0     H77863   3.384   4.006   8.063 -2.2899  0.9966  3.8490
  590MOL0     H77864   2.966   4.073   8.096  0.1955  0.0070  0.1597
  590MOL0     H77865   2.763   3.954   8.080 -1.1008  1.2074 -0.4202
  590MOL0     H77866   2.874   4.834   8.645 -0.0375  0.0232  0.0425
  590MOL0     H77867   3.114   4.865   8.602 -2.2536  0.5363  1.2020
  590MOL0     H77868   3.447   4.659   8.339 -0.6520  1.1064  0.7221
  590MOL0     H77869   3.682   4.618   8.296 -2.1017 -0.1160 -0.9749
  590MOL0     H77870   3.991   4.882   8.493 -2.3829  1.5419  0.1515
  590MOL0     H77871   3.953   4.982   8.344 -2.2445  0.3891 -0.0027
  590MOL0     H77872   4.090   4.818   8.220 -2.6626  1.2973  0.0905
  590MOL0     H77873   4.168   4.928   8.346 -0.1611 -0.2525 -0.7941
  590MOL0     H77874   4.085   4.651   8.418  1.0012 -1.1479 -3.2181
  590MOL0     H77875   4.224   4.755   8.482  1.4373 -0.0954 -0.1668
  590MOL0     H77876   4.358   4.684   8.287  0.7791 -0.5708  3.5435
  590MOL0     H77877   4.296   4.533   8.355 -2.7566  0.2211  2.3652
  590MOL0     H77878   4.105   4.548   7.981  0.0739 -0.4217 -0.0426
  590MOL0     H77879   3.751   5.031   8.438 -0.9262  1.3907 -1.7243
  590MOL0     H77880   3.529   5.059   8.466  1.3778  0.9597 -1.1087
  591MOL0     O77881   0.277  10.759   2.532  0.2973 -0.4715 -0.5550
  591MOL0     C77882   0.292  10.751   2.659  0.0334  0.0840 -0.0744
  591MOL0     O77883   0.215  10.809   2.758 -0.4271  0.4742 -0.2192
  591MOL0     C77884   0.086  10.848   2.752 -0.7742 -0.2936 -0.0038
  591MOL0     C77885  -0.013  10.791   2.676 -0.0048 -0.1123 -0.6088
  591MOL0     C77886  -0.150  10.818   2.697  0.3903 -0.3503 -0.0404
  591MOL0     C77887  -0.189  10.904   2.799  0.2264  0.1439 -0.5097
  591MOL0     O77888  -0.325  10.924   2.807 -0.5114 -0.4828 -0.0755
  591MOL0     C77889  -0.381  11.043   2.862 -0.9018 -0.2317 -0.2150
  591MOL0     C77890  -0.528  11.072   2.834 -0.2826  0.3174  0.1798
  591MOL0     C77891  -0.565  11.066   2.688 -0.2370 -0.7501 -0.4237
  591MOL0     C77892  -0.539  10.937   2.611 -0.2117  0.4375 -0.5268
  591MOL0     C77893  -0.608  10.935   2.471  0.3934 -0.4402 -1.0591
  591MOL0     C77894  -0.600  11.070   2.396 -0.3672  0.1237 -0.5127
  591MOL0     C77895  -0.678  11.057   2.261  0.4505 -0.1164 -0.6213
  591MOL0     C77896  -0.707  11.183   2.187 -0.8802  0.2978  0.3326
  591MOL0     N77897  -0.747  11.161   2.045 -0.5085  0.5739  0.9221
  591MOL0     C77898  -0.664  11.141   1.936 -0.5688  1.1083 -0.3545
  591MOL0     C77899  -0.746  11.127   1.828  0.5361 -0.0594 -0.2722
  591MOL0     C77900  -0.698  11.089   1.692  0.1466 -0.8230  0.2622
  591MOL0     C77901  -0.644  10.951   1.681  0.2900  0.3939 -1.0629
  591MOL0     C77902  -0.592  10.914   1.542 -0.2432  0.2871 -0.3495
  591MOL0     C77903  -0.495  10.795   1.560 -0.1785  0.7768 -0.9204
  591MOL0     O77904  -0.415  10.763   1.445  0.9580 -0.1682 -0.3148
  591MOL0     C77905  -0.336  10.651   1.441  0.5494 -0.0027 -0.5287
  591MOL0     C77906  -0.260  10.642   1.331  0.9867 -0.9948 -0.2987
  591MOL0     C77907  -0.169  10.538   1.313 -0.1389 -0.6504  0.4772
  591MOL0     C77908  -0.140  10.449   1.414 -0.5627 -0.7139 -0.4345
  591MOL0     C77909  -0.038  10.343   1.389  0.5592  0.2808  0.0563
  591MOL0     O77910   0.050  10.365   1.295  0.4817  0.3274  0.5294
  591MOL0     C77911   0.165  10.292   1.288  0.1698 -0.4139  0.2616
  591MOL0     C77912   0.256  10.280   1.391  0.4842  0.1465 -0.4975
  591MOL0     C77913   0.372  10.201   1.389  0.6752  0.8835 -0.5660
  591MOL0     C77914   0.395  10.134   1.270 -0.0998 -0.3772 -0.7702
  591MOL0     O77915   0.508  10.055   1.249 -0.5213  1.4855 -0.4063
  591MOL0     C77916   0.543   9.967   1.357 -0.1810  0.3702  0.1437
  591MOL0     C77917   0.670   9.892   1.312  0.4038 -0.0865 -0.6237
  591MOL0     C77918   0.705   9.823   1.441 -0.9921  0.0707 -0.1914
  591MOL0     C77919   0.822   9.727   1.407  1.5323  0.4078  0.4747
  591MOL0     C77920   0.903   9.676   1.530  0.0685  0.1331 -0.5413
  591MOL0     C77921   1.001   9.570   1.484 -0.1474 -0.2097  0.6255
  591MOL0     C77922   1.075   9.506   1.590  0.3949  0.6286 -0.0904
  591MOL0     C77923   1.122   9.363   1.549 -0.0454 -0.6086 -0.0280
  591MOL0    Cl77924   1.200   9.283   1.686  0.0016  0.4312  0.2803
  591MOL0     C77925   0.315  10.146   1.153  0.2238 -1.1512 -0.9143
  591MOL0     C77926   0.199  10.225   1.170 -0.7751  0.0901 -0.3566
  591MOL0     O77927  -0.043  10.241   1.457 -0.0761  0.6110  0.2297
  591MOL0     C77928  -0.232  10.453   1.524 -0.3147  0.0974  0.2073
  591MOL0     C77929  -0.316  10.557   1.538  0.1205 -0.3909 -0.1549
  591MOL0     N77930  -0.876  11.122   1.871  0.5519 -0.4901  0.2462
  591MOL0     N77931  -0.880  11.138   2.000  0.4178 -0.9064  0.2719
  591MOL0     C77932  -0.091  10.972   2.878 -0.3196 -1.1910  0.4233
  591MOL0     C77933   0.043  10.943   2.848 -0.3397  0.2642 -0.2191
  591MOL0     C77934   0.415  10.674   2.709 -0.4626  0.7351 -0.1509
  591MOL0     C77935   0.501  10.599   2.623  1.0253 -0.0013  0.2484
  591MOL0     C77936   0.628  10.547   2.663  0.1797 -0.3519 -0.1240
  591MOL0     C77937   0.667  10.559   2.795  0.9923 -0.6509 -0.2713
  591MOL0     O77938   0.783  10.514   2.844 -0.8424  0.2113  0.1581
  591MOL0     C77939   0.883  10.447   2.757 -0.9894 -0.3034 -0.1754
  591MOL0     C77940   1.003  10.419   2.855 -0.4644 -0.5186 -0.1236
  591MOL0     C77941   1.099  10.348   2.762  0.1589 -0.3012 -0.2535
  591MOL0     C77942   1.055  10.213   2.699 -0.4978 -0.1548 -0.4494
  591MOL0     C77943   1.006  10.109   2.792 -1.2791  0.1804 -1.2558
  591MOL0     C77944   0.948  10.039   2.875 -0.1438  1.0585  0.6699
  591MOL0     C77945   0.586  10.634   2.878  0.4569 -0.0671  0.2415
  591MOL0     C77946   0.465  10.691   2.845  0.3664 -0.7964 -0.0988
  591MOL0     H77947   0.028  10.718   2.608  3.8125  0.3562  0.9083
  591MOL0     H77948  -0.222  10.777   2.627 -2.2496  2.5634  0.7558
  591MOL0     H77949  -0.316  11.125   2.831  0.9203 -0.8336  1.7944
  591MOL0     H77950  -0.373  11.028   2.970  2.7694 -3.1735 -0.6646
  591MOL0     H77951  -0.532  11.174   2.873  1.8072  0.9433 -1.0564
  591MOL0     H77952  -0.599  11.002   2.878 -0.2604 -2.5008 -3.7096
  591MOL0     H77953  -0.530  11.154   2.633  1.6910 -2.7990 -2.7149
  591MOL0     H77954  -0.674  11.075   2.686 -0.3366 -1.7181  0.0303
  591MOL0     H77955  -0.433  10.923   2.589 -0.2053 -0.0132 -0.2134
  591MOL0     H77956  -0.564  10.846   2.667 -2.3187  1.9863  1.2129
  591MOL0     H77957  -0.713  10.925   2.503  1.0412 -3.3295  0.5316
  591MOL0     H77958  -0.577  10.852   2.407 -2.7864 -1.0400 -2.0349
  591MOL0     H77959  -0.495  11.093   2.378  0.1711 -1.0077  0.9829
  591MOL0     H77960  -0.652  11.151   2.449  1.9439  3.5716 -3.0985
  591MOL0     H77961  -0.619  10.987   2.201  0.8113 -0.9935  0.7078
  591MOL0     H77962  -0.772  11.001   2.274  0.2087  0.9091  3.1149
  591MOL0     H77963  -0.616  11.244   2.186 -0.5935 -0.1057  1.0401
  591MOL0     H77964  -0.786  11.246   2.229 -3.2799 -0.6461 -2.4080
  591MOL0     H77965  -0.556  11.130   1.943 -0.4188  2.0602 -0.8686
  591MOL0     H77966  -0.617  11.154   1.657 -1.7234  0.7759 -1.3470
  591MOL0     H77967  -0.780  11.088   1.620 -0.3591 -2.1592  0.8196
  591MOL0     H77968  -0.719  10.875   1.704  1.7265 -0.1306  2.5353
  591MOL0     H77969  -0.569  10.947   1.760 -0.7834  3.1736  0.2315
  591MOL0     H77970  -0.674  10.892   1.473  0.3267  0.3348 -1.0549
  591MOL0     H77971  -0.541  11.002   1.500  1.8906  1.0010  3.3148
  591MOL0     H77972  -0.549  10.703   1.582  3.2045 -1.8913 -2.7312
  591MOL0     H77973  -0.422  10.814   1.639 -1.2532 -2.5480  1.0477
  591MOL0     H77974  -0.271  10.716   1.253 -0.5656  0.2252  1.0117
  591MOL0     H77975  -0.113  10.528   1.220 -0.5200 -0.0256  0.1787
  591MOL0     H77976   0.224  10.311   1.490  1.3600  1.1887 -0.5130
  591MOL0     H77977   0.416  10.204   1.488  2.5662  2.1146 -1.3715
  591MOL0     H77978   0.468   9.889   1.375  1.5203 -2.0181 -2.3484
  591MOL0     H77979   0.566  10.033   1.440  1.9093 -3.2647  2.7312
  591MOL0     H77980   0.746   9.967   1.288 -0.5567  0.8735 -0.7735
  591MOL0     H77981   0.638   9.833   1.226 -3.1251  1.3834 -0.4831
  591MOL0     H77982   0.626   9.761   1.485  1.0303 -0.2444  3.4251
  591MOL0     H77983   0.731   9.895   1.520 -0.4086 -1.2217  0.8290
  591MOL0     H77984   0.782   9.644   1.348  2.3166 -0.1541  0.7016
  591MOL0     H77985   0.896   9.791   1.359  0.5220  2.2801  1.2841
  591MOL0     H77986   0.833   9.629   1.599  2.3307 -1.4225  0.8204
  591MOL0     H77987   0.950   9.755   1.590 -0.5207  0.6718 -0.7731
  591MOL0     H77988   1.064   9.625   1.414 -1.5785  0.4977 -0.1512
  591MOL0     H77989   0.950   9.495   1.423 -0.4587  1.4346 -1.2455
  591MOL0     H77990   1.161   9.568   1.619  2.2611 -1.5510 -0.6214
  591MOL0     H77991   1.008   9.488   1.674  1.9439  1.0022  1.2865
  591MOL0     H77992   1.190   9.360   1.464  1.6993 -0.3303  1.3146
  591MOL0     H77993   1.031   9.304   1.531  0.0653 -1.2813  1.5043
  591MOL0     H77994   0.337  10.096   1.059  3.8660 -3.2539  0.8048
  591MOL0     H77995   0.139  10.223   1.079 -0.0214 -0.0302 -0.8641
  591MOL0     H77996  -0.239  10.374   1.598  0.8206  0.3355  0.5969
  591MOL0     H77997  -0.377  10.557   1.628 -1.6502 -1.2447 -1.2972
  591MOL0     H77998  -0.119  11.040   2.958 -1.2462 -1.1772  0.0933
  591MOL0     H77999   0.106  11.009   2.907 -2.6657 -0.4294  3.3110
  591MOL0     H78000   0.481  10.609   2.517  3.6557  1.5307 -0.2052
  591MOL0     H78001   0.681  10.483   2.592  0.3995 -0.6183  0.2804
  591MOL0     H78002   0.914  10.493   2.663  0.2857 -0.1200  0.3059
  591MOL0     H78003   0.831  10.354   2.734 -2.3284 -0.3209  2.5875
  591MOL0     H78004   1.049  10.509   2.897 -0.6956 -0.0754 -0.8024
  591MOL0     H78005   0.981  10.350   2.937 -1.3396 -1.6637 -1.2872
  591MOL0     H78006   1.192  10.322   2.813  0.6989 -1.0118 -1.5403
  591MOL0     H78007   1.111  10.419   2.680 -1.0859  1.7758  1.2718
  591MOL0     H78008   0.988  10.237   2.616 -1.7459 -3.9478 -0.7691
  591MOL0     H78009   1.145  10.166   2.656  0.1782 -0.1704  0.9371
  591MOL0     H78010   0.905   9.985   2.956 -0.2970  1.4773  0.8741
  591MOL0     H78011   0.615  10.652   2.981  0.5873 -1.1608  0.4079
  591MOL0     H78012   0.413  10.753   2.917  1.9491  0.5354 -0.0477
  592MOL0     O78013   7.599   3.550   7.650  1.3112 -0.2322 -0.0982
  592MOL0     C78014   7.510   3.638   7.614 -0.7536 -0.4034  0.6324
  592MOL0     O78015   7.535   3.769   7.585 -0.3373  0.3409 -0.1502
  592MOL0     C78016   7.655   3.826   7.618  0.0712  0.3583  0.4341
  592MOL0     C78017   7.722   3.798   7.735  0.3529  0.0877 -0.5846
  592MOL0     C78018   7.841   3.863   7.772 -0.1479 -0.4069 -0.2849
  592MOL0     C78019   7.894   3.963   7.695  0.0760 -0.3939  0.7296
  592MOL0     O78020   8.001   4.033   7.748 -0.2763 -0.7841  0.2290
  592MOL0     C78021   8.057   4.142   7.672 -0.8895  0.1170  0.0244
  592MOL0     C78022   8.152   4.225   7.763  0.0260 -0.2564 -0.2755
  592MOL0     C78023   8.283   4.138   7.775  0.4474 -0.0310  0.5520
  592MOL0     C78024   8.384   4.207   7.867  0.7350  0.3105 -0.2775
  592MOL0     C78025   8.524   4.145   7.868  0.2796  0.0367 -0.0103
  592MOL0     C78026   8.609   4.214   7.971  0.2163  0.4112  0.4684
  592MOL0     C78027   8.747   4.157   7.973  0.0280  0.1172 -0.2453
  592MOL0     C78028   8.825   4.266   8.053 -0.0346  0.8596  0.7291
  592MOL0     N78029   8.971   4.240   8.079  0.6515  0.2211  0.6079
  592MOL0     C78030   9.077   4.224   8.002 -0.1326  0.2633  0.4171
  592MOL0     C78031   9.183   4.236   8.079  0.5015  0.4849  0.4590
  592MOL0     C78032   9.328   4.240   8.042  0.3105 -0.4385 -0.7660
  592MOL0     C78033   9.395   4.360   8.102 -0.0966  0.8043 -0.3690
  592MOL0     C78034   9.354   4.495   8.054 -0.9494  0.4428  0.0791
  592MOL0     C78035   9.373   4.606   8.151 -0.1092 -0.3657 -0.2441
  592MOL0     O78036   9.279   4.712   8.118  0.0956 -0.0235  0.2536
  592MOL0     C78037   9.153   4.705   8.163 -1.1394  1.2477  0.6059
  592MOL0     C78038   9.083   4.821   8.138  0.5314  0.0170  0.0479
  592MOL0     C78039   8.953   4.827   8.171 -0.1634 -0.4728 -0.7916
  592MOL0     C78040   8.887   4.706   8.230 -0.1921 -0.1749 -1.3049
  592MOL0     C78041   8.735   4.718   8.254 -0.0456 -0.1275  0.7333
  592MOL0     O78042   8.668   4.601   8.266  0.0380  0.0495 -0.2512
  592MOL0     C78043   8.556   4.583   8.351  0.7786  0.0257  0.5029
  592MOL0     C78044   8.455   4.489   8.302  0.0065 -0.0256  1.0759
  592MOL0     C78045   8.341   4.472   8.389 -0.7228  0.1711  0.5052
  592MOL0     C78046   8.329   4.531   8.516 -1.3713 -0.0763  0.0028
  592MOL0     O78047   8.222   4.525   8.594  0.3129 -0.2378 -0.9400
  592MOL0     C78048   8.111   4.440   8.554  0.7106  0.2480 -0.7216
  592MOL0     C78049   8.029   4.530   8.464  0.0868 -0.3247  0.1253
  592MOL0     C78050   7.948   4.641   8.550 -0.7913  0.0231  0.7020
  592MOL0     C78051   8.024   4.753   8.622 -0.2472  0.5275  0.3326
  592MOL0     C78052   7.931   4.840   8.714 -0.3041 -0.2520  0.7737
  592MOL0     C78053   7.781   4.861   8.676 -1.6768  0.4592 -0.2981
  592MOL0     C78054   7.706   4.966   8.764 -0.3101  0.2221  0.0720
  592MOL0     C78055   7.590   5.049   8.697  0.2086  0.0236  0.0650
  592MOL0    Cl78056   7.463   4.963   8.591  0.0646  0.0985 -0.3659
  592MOL0     C78057   8.432   4.617   8.558 -0.1803  0.5064  0.4853
  592MOL0     C78058   8.539   4.645   8.479 -0.1097  0.7063  0.1068
  592MOL0     O78059   8.698   4.836   8.281 -0.1089  0.7918  0.3877
  592MOL0     C78060   8.963   4.586   8.248  0.2014 -0.9743 -0.9409
  592MOL0     C78061   9.097   4.587   8.223  0.2890  0.3357  0.0081
  592MOL0     N78062   9.136   4.219   8.203 -0.2239 -0.2525  0.4266
  592MOL0     N78063   9.015   4.230   8.208  0.0119  0.1907 -0.1926
  592MOL0     C78064   7.824   3.989   7.576 -0.2613 -0.1684 -0.2435
  592MOL0     C78065   7.701   3.925   7.537 -0.2355 -0.1800 -0.1257
  592MOL0     C78066   7.375   3.590   7.611 -0.1457 -0.8091  0.0426
  592MOL0     C78067   7.351   3.455   7.648 -0.1273  0.4639  0.3276
  592MOL0     C78068   7.215   3.407   7.653 -0.1106 -0.2106 -0.1220
  592MOL0     C78069   7.111   3.496   7.605  0.7230  0.3404 -0.9665
  592MOL0     O78070   6.981   3.449   7.592 -0.5370 -0.8111 -0.0945
  592MOL0     C78071   6.905   3.459   7.709 -0.3783 -0.7157  0.1558
  592MOL0     C78072   6.781   3.370   7.695 -0.3237 -0.4029  0.3390
  592MOL0     C78073   6.676   3.426   7.789 -0.1175 -0.0827  0.5137
  592MOL0     C78074   6.551   3.342   7.784  0.6164 -1.0843  0.6603
  592MOL0     C78075   6.447   3.429   7.839  0.2911  0.1550 -0.0501
  592MOL0     C78076   6.357   3.497   7.867  0.8313 -0.1153  0.5016
  592MOL0     C78077   7.145   3.633   7.581 -0.0997 -0.1591  0.0516
  592MOL0     C78078   7.272   3.686   7.584  1.0128  0.1094 -1.2500
  592MOL0     H78079   7.685   3.726   7.807 -0.3559 -0.1341 -1.1653
  592MOL0     H78080   7.888   3.836   7.866  2.1070  1.6730 -0.7125
  592MOL0     H78081   7.985   4.216   7.636  2.0636  2.4145 -1.6337
  592MOL0     H78082   8.112   4.109   7.584  0.8860 -0.8473  1.4240
  592MOL0     H78083   8.113   4.235   7.865  1.8695  4.3874  0.2227
  592MOL0     H78084   8.176   4.324   7.722 -0.0201 -0.2687 -0.3312
  592MOL0     H78085   8.327   4.114   7.678 -0.3953  0.4931  0.0280
  592MOL0     H78086   8.263   4.037   7.812 -0.2398 -0.9207 -2.0498
  592MOL0     H78087   8.383   4.308   7.824 -0.6430 -0.6625 -2.8008
  592MOL0     H78088   8.340   4.210   7.966 -4.7076 -0.7961 -2.3149
  592MOL0     H78089   8.559   4.154   7.765 -2.9067 -0.9150 -1.2906
  592MOL0     H78090   8.524   4.038   7.888  2.1080 -0.5133 -2.4769
  592MOL0     H78091   8.569   4.205   8.072 -1.6494 -2.0106 -0.3783
  592MOL0     H78092   8.599   4.314   7.927  0.9212 -0.5951 -2.2004
  592MOL0     H78093   8.727   4.060   8.018 -1.4933  0.6006  0.1768
  592MOL0     H78094   8.801   4.144   7.879  0.0837 -4.1267  0.2012
  592MOL0     H78095   8.775   4.274   8.150  1.1135 -2.9333  1.8398
  592MOL0     H78096   8.816   4.360   7.999 -2.0904  0.5864  0.4905
  592MOL0     H78097   9.089   4.215   7.894  1.2257  1.6398  0.4199
  592MOL0     H78098   9.340   4.244   7.933  0.7649  3.4360 -0.7234
  592MOL0     H78099   9.380   4.151   8.078 -0.1655  0.1025  1.3856
  592MOL0     H78100   9.504   4.352   8.096  0.0944  1.9362  1.1460
  592MOL0     H78101   9.383   4.367   8.210 -1.3330  0.8327 -0.4930
  592MOL0     H78102   9.400   4.521   7.958  0.2043 -2.9393 -0.3925
  592MOL0     H78103   9.249   4.485   8.024 -1.0841  1.2297  0.2744
  592MOL0     H78104   9.472   4.649   8.133  2.1425 -4.9038  0.0655
  592MOL0     H78105   9.355   4.583   8.256  0.4435 -0.0260 -0.0722
  592MOL0     H78106   9.115   4.918   8.101 -1.1194  1.3305  1.9085
  592MOL0     H78107   8.902   4.920   8.145 -1.6476 -0.4870  1.7735
  592MOL0     H78108   8.469   4.439   8.207 -4.5831 -0.9223  0.6694
  592MOL0     H78109   8.259   4.410   8.353 -0.6934  0.7770 -0.6659
  592MOL0     H78110   8.046   4.417   8.639  0.1001  1.5010 -0.8237
  592MOL0     H78111   8.131   4.342   8.509 -2.4368 -0.8892  0.0834
  592MOL0     H78112   7.952   4.472   8.412 -1.3233  3.3701 -2.3674
  592MOL0     H78113   8.085   4.567   8.378 -0.4374  0.9762  0.3192
  592MOL0     H78114   7.896   4.587   8.630  0.3278  2.3578  3.1851
  592MOL0     H78115   7.881   4.694   8.482  0.8334  1.8771  0.4474
  592MOL0     H78116   8.113   4.723   8.678  0.8267  1.9675 -0.5223
  592MOL0     H78117   8.055   4.818   8.540  1.0306  0.8386  1.0413
  592MOL0     H78118   7.971   4.939   8.739  1.8362 -1.3992  2.2056
  592MOL0     H78119   7.941   4.801   8.815  3.7733  1.7032  1.3438
  592MOL0     H78120   7.722   4.769   8.664  0.2791 -0.9867  0.6556
  592MOL0     H78121   7.792   4.916   8.582 -1.9358  3.3357  1.2407
  592MOL0     H78122   7.660   4.920   8.852 -2.9121 -0.4414 -1.5300
  592MOL0     H78123   7.780   5.039   8.800  0.2162  0.7340 -1.9536
  592MOL0     H78124   7.642   5.115   8.628 -1.0085 -0.3338 -1.2336
  592MOL0     H78125   7.534   5.101   8.776  1.4485 -0.5474  1.3759
  592MOL0     H78126   8.403   4.660   8.654 -0.8493 -0.5295  0.7726
  592MOL0     H78127   8.609   4.721   8.513  1.2585  0.1723 -1.4627
  592MOL0     H78128   8.915   4.502   8.297 -1.3835  1.6092  2.4138
  592MOL0     H78129   9.159   4.501   8.245 -0.2172 -0.1700 -0.5062
  592MOL0     H78130   7.850   4.086   7.534 -2.1043  1.5991  2.3773
  592MOL0     H78131   7.650   3.964   7.449 -0.5372  1.5434  0.7605
  592MOL0     H78132   7.433   3.386   7.667  0.3610  0.6772 -0.9248
  592MOL0     H78133   7.184   3.305   7.671 -0.7730  0.1886  1.1455
  592MOL0     H78134   6.886   3.567   7.709 -0.2510 -0.6674  1.4869
  592MOL0     H78135   6.960   3.429   7.799  0.5801 -1.0074 -0.5100
  592MOL0     H78136   6.747   3.375   7.592 -0.4195 -2.5929  0.2168
  592MOL0     H78137   6.811   3.266   7.708 -0.1673 -0.5572 -1.0915
  592MOL0     H78138   6.644   3.519   7.741 -0.2020 -0.6909 -0.6280
  592MOL0     H78139   6.718   3.440   7.889  0.5941 -0.2415  0.2404
  592MOL0     H78140   6.529   3.312   7.682  2.1080  1.2732 -0.4385
  592MOL0     H78141   6.567   3.258   7.853 -0.8756  0.4524  3.0463
  592MOL0     H78142   6.261   3.545   7.877 -0.2609 -2.5231  2.7031
  592MOL0     H78143   7.072   3.710   7.557  1.5070  0.5047 -3.2783
  592MOL0     H78144   7.282   3.792   7.566  0.4237  0.2294 -0.8816
  593MOL0     O78145   7.920   1.642  11.361 -0.1288 -0.8420  0.6914
  593MOL0     C78146   7.905   1.687  11.475  0.0337  0.1156  0.1698
  593MOL0     O78147   8.009   1.729  11.556  0.7683  0.3490 -0.2623
  593MOL0     C78148   8.135   1.754  11.517 -0.9272  0.3686 -0.6293
  593MOL0     C78149   8.208   1.830  11.607  0.7423 -0.2801  0.9897
  593MOL0     C78150   8.333   1.869  11.570 -0.3173  1.0027 -0.0412
  593MOL0     C78151   8.398   1.834  11.452  0.6429  0.1927  0.3710
  593MOL0     O78152   8.514   1.879  11.409 -0.7447 -0.2134  0.1435
  593MOL0     C78153   8.619   1.834  11.505  0.3275  0.1106  0.7119
  593MOL0     C78154   8.757   1.850  11.426 -0.7384 -0.1106  0.3072
  593MOL0     C78155   8.757   1.827  11.275 -0.1476  0.1853 -0.5900
  593MOL0     C78156   8.907   1.831  11.241 -0.3906  0.1253 -0.0398
  593MOL0     C78157   8.925   1.830  11.094 -0.2830 -0.0951 -0.5711
  593MOL0     C78158   9.069   1.873  11.044  0.2442  0.4875 -0.7548
  593MOL0     C78159   9.139   1.993  11.095  0.5263  0.7669  0.0529
  593MOL0     C78160   9.239   1.963  11.206  0.5693 -0.8305 -0.1080
  593MOL0     N78161   9.298   2.092  11.255  0.6335  0.2304 -0.4042
  593MOL0     C78162   9.429   2.129  11.224 -0.7453 -0.1440 -0.0297
  593MOL0     C78163   9.429   2.255  11.267  0.2376 -0.2970  0.3006
  593MOL0     C78164   9.540   2.357  11.246 -0.1819 -1.3886 -0.8602
  593MOL0     C78165   9.618   2.393  11.374  0.3294 -0.4402 -0.2985
  593MOL0     C78166   9.664   2.267  11.449  0.8759  0.0922 -0.1186
  593MOL0     C78167   9.754   2.302  11.569  0.7418  0.0486 -0.0610
  593MOL0     O78168   9.794   2.186  11.642  0.7379  0.1454 -0.4201
  593MOL0     C78169   9.906   2.189  11.727  0.2451 -0.5005  0.1848
  593MOL0     C78170   9.966   2.067  11.752 -0.0625  0.4007  0.5994
  593MOL0     C78171  10.060   2.055  11.849  0.1174  0.5430  0.7631
  593MOL0     C78172  10.107   2.167  11.910 -0.4296  1.1866 -0.6393
  593MOL0     C78173  10.213   2.141  12.014  0.0459 -0.8219 -0.5413
  593MOL0     O78174  10.269   2.256  12.069 -0.6489 -0.8802  0.2370
  593MOL0     C78175  10.399   2.259  12.128 -0.7252  0.2029 -0.7628
  593MOL0     C78176  10.495   2.153  12.141 -0.5959  0.5589 -0.2053
  593MOL0     C78177  10.611   2.188  12.221  0.4514  0.4028 -0.1660
  593MOL0     C78178  10.638   2.315  12.272 -0.6257 -0.9962  0.0317
  593MOL0     O78179  10.752   2.342  12.339  0.9703  0.1725  0.2520
  593MOL0     C78180  10.881   2.287  12.301 -0.2097 -0.0228  0.3595
  593MOL0     C78181  11.007   2.350  12.370 -0.0384 -0.0562  0.6278
  593MOL0     C78182  11.124   2.270  12.351 -0.0444 -0.9646 -0.4560
  593MOL0     C78183  11.228   2.314  12.447 -0.9304 -0.2849  0.4188
  593MOL0     C78184  11.321   2.422  12.386  0.9416 -0.7286 -0.4086
  593MOL0     C78185  11.435   2.423  12.492 -0.0313  1.2158  0.7794
  593MOL0     C78186  11.530   2.541  12.466 -0.5697 -0.0659 -0.2261
  593MOL0     C78187  11.600   2.508  12.323 -0.2808  1.0101  0.4402
  593MOL0    Cl78188  11.770   2.537  12.351  0.1748 -0.4254  0.0794
  593MOL0     C78189  10.548   2.415  12.256  0.1577  0.3912  0.3081
  593MOL0     C78190  10.430   2.380  12.185 -0.3786  0.0855  0.4404
  593MOL0     O78191  10.259   2.025  12.019 -0.0017 -0.4625 -0.6171
  593MOL0     C78192  10.047   2.291  11.891 -0.8402  0.3420  0.6892
  593MOL0     C78193   9.944   2.306  11.801 -0.1770  0.0129 -0.4150
  593MOL0     N78194   9.302   2.289  11.312 -0.5309 -0.2617  0.4490
  593MOL0     N78195   9.230   2.190  11.304  0.5927  0.1201  0.1431
  593MOL0     C78196   8.325   1.752  11.366 -0.2243  0.0478  0.6917
  593MOL0     C78197   8.197   1.706  11.399 -0.7269  0.3106 -0.4940
  593MOL0     C78198   7.764   1.684  11.526 -0.0674 -0.4242  0.0433
  593MOL0     C78199   7.653   1.652  11.449  0.1140  0.1798 -0.2636
  593MOL0     C78200   7.518   1.665  11.491  0.0802  0.7168 -0.2735
  593MOL0     C78201   7.491   1.700  11.617  0.1765  0.2318 -0.9858
  593MOL0     O78202   7.355   1.710  11.654 -0.1985 -0.1647 -0.3972
  593MOL0     C78203   7.330   1.754  11.790 -0.2353  0.9543 -0.3459
  593MOL0     C78204   7.335   1.646  11.896  0.5188  1.2535 -0.1588
  593MOL0     C78205   7.211   1.561  11.889 -0.3539 -0.3186 -0.2003
  593MOL0     C78206   7.230   1.433  11.963  0.3732  0.3458  0.2458
  593MOL0     C78207   7.108   1.350  11.976 -0.2497  0.0946 -0.0915
  593MOL0     C78208   7.010   1.267  11.984  0.7234 -0.1193  0.0186
  593MOL0     C78209   7.603   1.738  11.698 -0.0963  0.0772 -0.9513
  593MOL0     C78210   7.736   1.730  11.658  0.2372 -0.8783 -0.4712
  593MOL0     H78211   8.164   1.865  11.699 -1.6785 -0.4698 -0.0394
  593MOL0     H78212   8.371   1.932  11.650  2.0259 -1.0093  0.5699
  593MOL0     H78213   8.605   1.731  11.540  2.1870  0.0266  1.3257
  593MOL0     H78214   8.614   1.896  11.595  1.2233  0.0361  0.8172
  593MOL0     H78215   8.828   1.782  11.474  2.9290  0.4574 -3.7240
  593MOL0     H78216   8.793   1.951  11.448 -1.2623 -0.0980  1.1570
  593MOL0     H78217   8.711   1.906  11.215 -1.3229  0.1795  0.2750
  593MOL0     H78218   8.717   1.726  11.261  1.6463 -0.6205 -0.1554
  593MOL0     H78219   8.958   1.923  11.272  1.0611  0.0777 -2.0281
  593MOL0     H78220   8.959   1.748  11.289 -1.0095  0.7480  1.8072
  593MOL0     H78221   8.858   1.899  11.043 -0.6911 -1.5183 -2.0724
  593MOL0     H78222   8.894   1.734  11.050  0.5605 -0.9914  0.6936
  593MOL0     H78223   9.056   1.896  10.937 -2.0486  1.9883 -0.2327
  593MOL0     H78224   9.133   1.785  11.050 -0.2009  0.0356 -2.0979
  593MOL0     H78225   9.194   2.044  11.015 -0.9365  2.5493  0.1209
  593MOL0     H78226   9.053   2.050  11.131 -2.0471 -2.3671 -0.6596
  593MOL0     H78227   9.319   1.897  11.172  1.1061  0.5052 -1.5699
  593MOL0     H78228   9.178   1.925  11.288  0.2759 -1.5114 -0.6332
  593MOL0     H78229   9.502   2.073  11.166 -1.0733  0.8148 -1.3994
  593MOL0     H78230   9.497   2.447  11.202 -0.5276 -1.5409 -0.8327
  593MOL0     H78231   9.615   2.334  11.170 -0.1759  0.0276 -1.3110
  593MOL0     H78232   9.544   2.451  11.431  0.2171 -0.5410 -0.3403
  593MOL0     H78233   9.706   2.453  11.351  0.4632 -0.7554 -0.6225
  593MOL0     H78234   9.579   2.203  11.475  1.0703 -2.3826 -4.5493
  593MOL0     H78235   9.705   2.210  11.365 -2.8872 -1.2954 -1.2524
  593MOL0     H78236   9.698   2.359  11.644  2.0813  2.9800 -1.1227
  593MOL0     H78237   9.836   2.372  11.548 -1.6301  2.5071 -1.7393
  593MOL0     H78238   9.919   1.986  11.697  2.9592 -1.5769  0.6731
  593MOL0     H78239  10.086   1.951  11.863  0.1358  0.5481  0.7677
  593MOL0     H78240  10.489   2.055  12.095  4.2200 -1.2317  2.2650
  593MOL0     H78241  10.695   2.120  12.227 -1.0438 -1.8747 -2.8275
  593MOL0     H78242  10.893   2.307  12.194 -1.3717 -2.3098 -0.2559
  593MOL0     H78243  10.880   2.179  12.316  1.5986 -0.4194 -1.8619
  593MOL0     H78244  10.979   2.358  12.476 -5.7204 -0.8399 -0.4816
  593MOL0     H78245  11.029   2.451  12.337  0.7517 -0.2552  0.5316
  593MOL0     H78246  11.178   2.266  12.256  1.7166 -1.0118  0.5034
  593MOL0     H78247  11.086   2.168  12.366  0.1464 -0.6733  2.6547
  593MOL0     H78248  11.192   2.358  12.540 -0.7590  2.5706 -0.7699
  593MOL0     H78249  11.281   2.224  12.481  0.8615 -1.9895 -5.6325
  593MOL0     H78250  11.276   2.521  12.371  1.8165 -0.1003  0.9444
  593MOL0     H78251  11.348   2.390  12.285  0.8334  0.7322 -0.9348
  593MOL0     H78252  11.493   2.333  12.512 -1.3820 -0.1893 -1.1693
  593MOL0     H78253  11.381   2.451  12.583 -2.0981  2.4588 -0.7392
  593MOL0     H78254  11.490   2.643  12.470 -0.3843  0.1058 -2.0055
  593MOL0     H78255  11.607   2.535  12.543 -0.7650 -1.0615 -0.0878
  593MOL0     H78256  11.542   2.565  12.250 -3.1462 -2.1977 -0.0613
  593MOL0     H78257  11.592   2.401  12.299  3.2061  0.8541 -0.5656
  593MOL0     H78258  10.560   2.511  12.305  1.3729 -0.5131  1.8705
  593MOL0     H78259  10.348   2.451  12.184 -0.5442  0.0557 -3.3839
  593MOL0     H78260  10.073   2.379  11.950  1.5516  0.0783  0.1525
  593MOL0     H78261   9.872   2.387  11.801 -1.1671 -0.7104  2.7762
  593MOL0     H78262   8.370   1.730  11.269  0.4708  1.1221  0.7622
  593MOL0     H78263   8.157   1.638  11.325 -0.6904 -0.9776  0.6341
  593MOL0     H78264   7.666   1.605  11.352 -0.5215 -3.3322  1.2158
  593MOL0     H78265   7.434   1.644  11.426  0.4368 -4.3004  0.4904
  593MOL0     H78266   7.225   1.780  11.775 -1.1416 -2.5049 -1.0441
  593MOL0     H78267   7.388   1.843  11.814  1.5545 -0.4376  0.7026
  593MOL0     H78268   7.424   1.583  11.887  0.0519  0.7074 -1.1034
  593MOL0     H78269   7.338   1.695  11.994  1.2951  0.9942 -0.0434
  593MOL0     H78270   7.193   1.540  11.784 -3.1824  1.4634 -0.1808
  593MOL0     H78271   7.119   1.608  11.924 -0.5523 -1.4424  0.8717
  593MOL0     H78272   7.295   1.382  11.891 -1.4780 -0.4812 -0.9037
  593MOL0     H78273   7.277   1.451  12.060  0.5548 -1.9229  0.6266
  593MOL0     H78274   6.931   1.194  11.980 -0.7297  1.2116  2.3552
  593MOL0     H78275   7.587   1.757  11.804  0.0201  0.9168 -1.0748
  593MOL0     H78276   7.819   1.749  11.725 -0.7797 -1.2482  0.9550
  594MOL0     O78277   7.523   8.895  11.328 -0.6232  0.0062 -0.2974
  594MOL0     C78278   7.604   8.808  11.359  0.7210 -1.1413  0.9012
  594MOL0     O78279   7.579   8.684  11.409  0.7533 -0.1204 -0.0087
  594MOL0     C78280   7.448   8.650  11.450  0.8696 -0.0572  0.4213
  594MOL0     C78281   7.367   8.734  11.525  0.5403 -1.5194  0.6615
  594MOL0     C78282   7.234   8.701  11.552  0.7523 -0.2023  0.4079
  594MOL0     C78283   7.176   8.581  11.506  0.0279 -0.6728  0.6536
  594MOL0     O78284   7.039   8.558  11.507 -0.7791  0.6375 -1.0517
  594MOL0     C78285   7.006   8.459  11.611 -1.1334  0.1541 -0.2452
  594MOL0     C78286   6.867   8.460  11.650  0.6801 -0.0029  0.2314
  594MOL0     C78287   6.837   8.581  11.743 -0.9566 -0.1382  0.3575
  594MOL0     C78288   6.689   8.636  11.728 -0.4056  0.8711 -0.0706
  594MOL0     C78289   6.607   8.555  11.833 -0.3136 -0.5601 -0.4142
  594MOL0     C78290   6.465   8.604  11.846 -0.5004  0.3591  0.3184
  594MOL0     C78291   6.387   8.546  11.964  0.1697 -0.2631  0.5899
  594MOL0     C78292   6.383   8.401  11.981 -0.5815 -0.8390 -0.3846
  594MOL0     N78293   6.328   8.369  12.114 -0.3922 -0.0337 -0.4882
  594MOL0     C78294   6.196   8.341  12.136  0.3840  1.7261  0.0552
  594MOL0     C78295   6.180   8.315  12.267  1.0064  0.6734 -0.4495
  594MOL0     C78296   6.056   8.237  12.310  0.2720 -0.8102 -0.4997
  594MOL0     C78297   6.026   8.236  12.461  0.6690 -0.4792 -0.0951
  594MOL0     C78298   5.887   8.271  12.511  0.5930 -0.2668 -0.0813
  594MOL0     C78299   5.764   8.195  12.471 -0.3390  0.6441 -0.1632
  594MOL0     O78300   5.653   8.253  12.531  0.1038 -0.2083 -0.2835
  594MOL0     C78301   5.533   8.192  12.501  0.1868 -0.4708 -2.0157
  594MOL0     C78302   5.498   8.108  12.397  0.3396 -0.4606 -0.0165
  594MOL0     C78303   5.379   8.031  12.405  0.1684 -0.3386 -0.1279
  594MOL0     C78304   5.295   8.045  12.521  0.4723 -0.1387 -0.5285
  594MOL0     C78305   5.166   7.965  12.551  0.6453  0.2301  0.2551
  594MOL0     O78306   5.098   7.980  12.675  0.6611 -0.9064 -0.6639
  594MOL0     C78307   4.999   7.889  12.703  0.3851  0.6375 -0.1913
  594MOL0     C78308   4.877   7.892  12.638 -0.1169 -0.1895 -0.3570
  594MOL0     C78309   4.771   7.804  12.671  0.7003  0.9520 -0.2786
  594MOL0     C78310   4.779   7.705  12.773 -0.7306 -0.0252  0.6104
  594MOL0     O78311   4.674   7.619  12.798 -0.7236  0.9135 -0.2779
  594MOL0     C78312   4.709   7.481  12.773  0.1755 -0.0606  0.6207
  594MOL0     C78313   4.703   7.465  12.616  1.0496 -0.7477  0.1557
  594MOL0     C78314   4.559   7.453  12.566  0.0115 -0.3038  0.9278
  594MOL0     C78315   4.515   7.582  12.491  0.0767  0.1281 -0.5266
  594MOL0     C78316   4.381   7.576  12.426  0.0357 -0.4085 -0.7979
  594MOL0     C78317   4.358   7.689  12.328  0.0181 -0.0814 -0.1183
  594MOL0     C78318   4.211   7.721  12.299  0.3828 -0.9766  0.1499
  594MOL0     C78319   4.167   7.873  12.331  0.2863  0.5459  0.8936
  594MOL0    Cl78320   4.194   7.886  12.506 -0.1143  0.4468 -0.6880
  594MOL0     C78321   4.905   7.709  12.844 -0.1183  0.8069  0.0729
  594MOL0     C78322   5.014   7.795  12.810 -0.2523 -0.0335 -0.8608
  594MOL0     O78323   5.119   7.907  12.449 -0.1846 -0.5213 -0.6781
  594MOL0     C78324   5.324   8.140  12.625  0.0586  0.2532 -0.0797
  594MOL0     C78325   5.445   8.209  12.615 -0.5506  0.9198  0.2117
  594MOL0     N78326   6.306   8.342  12.328  0.3171 -0.6474 -0.0968
  594MOL0     N78327   6.389   8.377  12.239 -0.5960  0.2127  0.2455
  594MOL0     C78328   7.262   8.491  11.434  0.9346  0.1165 -0.7232
  594MOL0     C78329   7.397   8.529  11.403  0.2450 -0.1196  0.1453
  594MOL0     C78330   7.750   8.837  11.327 -0.2067  0.2101  0.2025
  594MOL0     C78331   7.784   8.964  11.278 -0.5862 -0.2729 -0.5138
  594MOL0     C78332   7.914   8.998  11.245 -0.7529 -0.1207 -0.5108
  594MOL0     C78333   8.011   8.894  11.250 -0.8015  0.5316  0.3569
  594MOL0     O78334   8.136   8.911  11.196  0.2184  0.8921 -0.4217
  594MOL0     C78335   8.236   8.796  11.176  0.3963 -1.0481 -0.8634
  594MOL0     C78336   8.375   8.861  11.135  0.6120 -0.4034 -0.1773
  594MOL0     C78337   8.412   8.973  11.232 -0.5151  0.4225 -0.9058
  594MOL0     C78338   8.554   9.005  11.218  0.2103 -0.2661  0.2184
  594MOL0     C78339   8.584   9.122  11.303  0.6214 -0.4592  0.6637
  594MOL0     C78340   8.611   9.218  11.369  0.3977 -0.2834  0.6252
  594MOL0     C78341   7.981   8.769  11.304  0.6985  0.3570  0.1149
  594MOL0     C78342   7.850   8.738  11.343 -0.5052  0.2227 -0.0867
  594MOL0     H78343   7.385   8.838  11.547 -2.6233 -0.1627 -2.3603
  594MOL0     H78344   7.159   8.775  11.580 -1.6280 -1.7009 -1.6277
  594MOL0     H78345   7.068   8.478  11.699  0.5244  0.1938 -1.3714
  594MOL0     H78346   7.028   8.360  11.568  1.9088  0.2408  0.8544
  594MOL0     H78347   6.819   8.379  11.706 -2.3285  0.5051 -1.3616
  594MOL0     H78348   6.817   8.473  11.554  1.3100  0.2687 -0.0589
  594MOL0     H78349   6.906   8.659  11.711  0.5157 -1.9213 -1.0553
  594MOL0     H78350   6.856   8.547  11.846  0.0560 -3.4956 -0.8067
  594MOL0     H78351   6.678   8.740  11.758 -1.8423  0.7110  0.0423
  594MOL0     H78352   6.660   8.628  11.623  1.4791  1.9470 -0.7128
  594MOL0     H78353   6.653   8.559  11.932 -0.4122 -2.7421 -0.2244
  594MOL0     H78354   6.604   8.448  11.811 -2.4328 -0.9879  1.6112
  594MOL0     H78355   6.407   8.586  11.755  0.6191 -0.7351 -0.1922
  594MOL0     H78356   6.457   8.710  11.870 -1.8639  0.5906 -0.9804
  594MOL0     H78357   6.420   8.599  12.054 -0.8218  1.0600  0.2131
  594MOL0     H78358   6.280   8.568  11.959  0.2742  0.2126  0.3291
  594MOL0     H78359   6.482   8.356  11.973  0.2391  0.8384 -0.1690
  594MOL0     H78360   6.322   8.360  11.900 -0.7594 -1.2773 -0.0317
  594MOL0     H78361   6.114   8.328  12.067 -0.9751  0.5547  1.7947
  594MOL0     H78362   6.060   8.131  12.284 -1.2490 -1.4224  1.5496
  594MOL0     H78363   5.981   8.293  12.254  2.2628  3.2581  0.5342
  594MOL0     H78364   6.099   8.305  12.505  1.4623 -2.7853  2.4369
  594MOL0     H78365   6.053   8.146  12.516 -1.7972  0.1535  2.4033
  594MOL0     H78366   5.884   8.262  12.620 -3.0611 -0.9828 -0.1178
  594MOL0     H78367   5.872   8.378  12.495  1.4607 -0.0707  0.3084
  594MOL0     H78368   5.763   8.089  12.497 -4.0613  0.2149 -1.3961
  594MOL0     H78369   5.755   8.202  12.362  1.1387 -1.4366 -0.4889
  594MOL0     H78370   5.562   8.104  12.310  0.2922  2.0129 -0.2158
  594MOL0     H78371   5.354   7.958  12.328 -3.5736  2.5852 -2.0144
  594MOL0     H78372   4.866   7.958  12.552 -0.0008  0.1432 -0.1143
  594MOL0     H78373   4.677   7.795  12.619  1.1217  0.3218 -0.9476
  594MOL0     H78374   4.636   7.424  12.830  1.4022 -2.8600 -0.4516
  594MOL0     H78375   4.806   7.449  12.812 -0.0745  0.7074  1.9349
  594MOL0     H78376   4.733   7.361  12.599 -3.5269 -2.2868  0.0972
  594MOL0     H78377   4.767   7.532  12.558 -0.0196  2.0796  2.0327
  594MOL0     H78378   4.494   7.416  12.645  2.7474 -1.7065  2.6889
  594MOL0     H78379   4.548   7.370  12.495 -1.2135 -0.9016  1.7827
  594MOL0     H78380   4.528   7.672  12.553 -1.1889  2.1710 -3.0500
  594MOL0     H78381   4.585   7.591  12.408 -1.8911 -0.9022 -2.3704
  594MOL0     H78382   4.309   7.570  12.508  0.4409 -4.3670 -0.5791
  594MOL0     H78383   4.367   7.479  12.378 -0.8342  0.1871 -1.7774
  594MOL0     H78384   4.414   7.663  12.238 -0.4788 -2.5482  0.2013
  594MOL0     H78385   4.407   7.778  12.368 -1.1504 -0.3201  2.0253
  594MOL0     H78386   4.196   7.703  12.192  0.5725 -0.1881 -0.0232
  594MOL0     H78387   4.144   7.653  12.351  2.5090 -2.4411  1.1164
  594MOL0     H78388   4.068   7.900  12.295  0.5644 -0.4892 -0.7818
  594MOL0     H78389   4.237   7.939  12.279  0.5278  0.0262  0.5502
  594MOL0     H78390   4.896   7.634  12.922 -0.4489  2.1642  1.4074
  594MOL0     H78391   5.110   7.785  12.859 -0.6391  1.3178  0.2432
  594MOL0     H78392   5.265   8.164  12.712  0.1326  1.6291 -0.3952
  594MOL0     H78393   5.473   8.281  12.692 -0.8577 -0.0884  1.2874
  594MOL0     H78394   7.209   8.404  11.395  0.2817 -0.2620  0.9104
  594MOL0     H78395   7.440   8.461  11.330 -0.0977  0.5636 -0.7197
  594MOL0     H78396   7.699   9.031  11.269 -2.5435 -2.5622 -0.0232
  594MOL0     H78397   7.933   9.094  11.198 -0.1631  1.1156  2.0747
  594MOL0     H78398   8.190   8.723  11.109  1.7002 -1.7746 -0.9867
  594MOL0     H78399   8.247   8.738  11.268 -0.0377  2.6723  1.7633
  594MOL0     H78400   8.452   8.785  11.151  1.3645  0.9317  3.6244
  594MOL0     H78401   8.365   8.889  11.030 -2.0288 -0.6099 -0.0361
  594MOL0     H78402   8.389   8.930  11.330  1.4128 -0.7791 -0.9297
  594MOL0     H78403   8.348   9.062  11.225 -0.3403  0.8272  1.7514
  594MOL0     H78404   8.627   8.927  11.239  1.1536  1.1265  2.6301
  594MOL0     H78405   8.582   9.026  11.115 -0.5236 -3.3987 -0.6992
  594MOL0     H78406   8.635   9.308  11.423 -0.6329  0.9935 -0.9495
  594MOL0     H78407   8.050   8.688  11.321 -0.5899 -1.0344 -1.0102
  594MOL0     H78408   7.816   8.647  11.392 -5.7710  2.6347  1.4747
  595MOL0     O78409   2.759   5.693  10.190  0.0446 -0.6379 -0.4447
  595MOL0     C78410   2.790   5.592  10.245  0.8762  0.9856 -0.1252
  595MOL0     O78411   2.711   5.510  10.312  0.2731 -0.3193 -0.8269
  595MOL0     C78412   2.585   5.564  10.366 -0.1092  0.7045 -0.3460
  595MOL0     C78413   2.568   5.607  10.500 -1.2165  0.0296 -0.4706
  595MOL0     C78414   2.450   5.630  10.557 -0.9207 -0.7734 -0.1960
  595MOL0     C78415   2.331   5.623  10.477 -0.2832 -1.3173  0.4834
  595MOL0     O78416   2.218   5.646  10.538  0.2711 -0.3495 -0.7988
  595MOL0     C78417   2.094   5.585  10.505  0.5179 -0.3271  0.3487
  595MOL0     C78418   2.001   5.695  10.521  0.2310 -0.0090  0.4356
  595MOL0     C78419   1.858   5.634  10.509 -0.7214  0.0510  0.1434
  595MOL0     C78420   1.759   5.740  10.574 -0.2293  0.8513  0.1201
  595MOL0     C78421   1.616   5.691  10.529 -0.7226 -0.7545 -1.0295
  595MOL0     C78422   1.498   5.777  10.576  0.4863  0.0759  0.0456
  595MOL0     C78423   1.357   5.710  10.572 -0.2557 -0.0724  0.1240
  595MOL0     C78424   1.259   5.832  10.577 -0.4626 -0.0656  0.8569
  595MOL0     N78425   1.117   5.796  10.559 -0.6656  0.4941 -0.4578
  595MOL0     C78426   1.056   5.748  10.451  0.3502 -0.8857  0.4284
  595MOL0     C78427   0.919   5.756  10.473  0.6303 -0.4985 -0.5734
  595MOL0     C78428   0.801   5.723  10.376 -0.0020  0.0946  0.2777
  595MOL0     C78429   0.725   5.591  10.427  0.8470  0.2320  0.8727
  595MOL0     C78430   0.800   5.465  10.409  0.6090  0.0318  0.2478
  595MOL0     C78431   0.701   5.342  10.405 -0.3201 -0.4091  0.1169
  595MOL0     O78432   0.608   5.357  10.294 -0.2372 -0.8282  0.8303
  595MOL0     C78433   0.492   5.276  10.300  0.0882  0.7475 -0.4980
  595MOL0     C78434   0.405   5.319  10.204  0.3841 -0.9919 -0.6641
  595MOL0     C78435   0.274   5.268  10.196  0.1528 -0.0589  0.6745
  595MOL0     C78436   0.235   5.156  10.280  0.0267 -0.4567  0.3759
  595MOL0     C78437   0.094   5.105  10.279 -0.2927  1.4025 -0.5653
  595MOL0     O78438   0.014   5.139  10.180  0.9125  0.3681  0.3026
  595MOL0     C78439  -0.122   5.117  10.173  0.6316  0.7578  0.8152
  595MOL0     C78440  -0.182   5.216  10.095 -0.0473  0.1577 -0.2304
  595MOL0     C78441  -0.321   5.220  10.082  0.3466 -0.7693 -0.7315
  595MOL0     C78442  -0.401   5.126  10.141 -0.0348 -0.4051  0.6259
  595MOL0     O78443  -0.538   5.155  10.125 -0.3854 -0.9492 -0.7757
  595MOL0     C78444  -0.629   5.044  10.142  0.1837 -0.6368 -0.4211
  595MOL0     C78445  -0.770   5.093  10.142 -0.2608  0.7045  0.4796
  595MOL0     C78446  -0.880   4.988  10.187 -0.5653 -0.0771  0.3035
  595MOL0     C78447  -1.026   5.053  10.196 -0.7792 -0.6287 -0.6901
  595MOL0     C78448  -1.131   4.953  10.256  0.5633 -0.1555 -0.7168
  595MOL0     C78449  -1.160   4.841  10.156 -0.5970 -0.4027 -0.5730
  595MOL0     C78450  -1.259   4.729  10.204  0.8252 -0.7257 -0.8403
  595MOL0     C78451  -1.380   4.790  10.289 -0.1250 -0.1598 -0.0922
  595MOL0    Cl78452  -1.476   4.641  10.353  0.2351  0.1331  0.2358
  595MOL0     C78453  -0.345   5.040  10.238  0.2493 -0.6716 -0.0767
  595MOL0     C78454  -0.200   5.033  10.249  0.6635  0.2495  0.9203
  595MOL0     O78455   0.059   5.033  10.375 -0.3507  0.2194  0.4260
  595MOL0     C78456   0.325   5.106  10.380  0.1148 -0.6467  1.0354
  595MOL0     C78457   0.452   5.163  10.382 -0.4699  0.1868 -0.2797
  595MOL0     N78458   0.911   5.790  10.606  0.0364 -0.8863 -0.1274
  595MOL0     N78459   1.030   5.816  10.657  0.5231 -0.2629  1.0491
  595MOL0     C78460   2.339   5.596  10.335  0.4389 -1.0081  0.1771
  595MOL0     C78461   2.467   5.572  10.287 -0.3617 -0.1317 -0.2192
  595MOL0     C78462   2.926   5.554  10.233  0.1296 -0.3504 -0.5577
  595MOL0     C78463   3.007   5.615  10.140  0.8519 -0.4499 -0.6735
  595MOL0     C78464   3.141   5.571  10.116  0.1885 -0.1439 -0.7832
  595MOL0     C78465   3.196   5.468  10.185  0.1865 -0.8827 -0.3221
  595MOL0     O78466   3.332   5.450  10.167  0.7042  0.1738 -0.3085
  595MOL0     C78467   3.387   5.329  10.226 -0.7758  0.5839  0.5054
  595MOL0     C78468   3.536   5.347  10.212  0.2312  0.2474 -0.6082
  595MOL0     C78469   3.592   5.211  10.255 -0.0009  0.0613 -0.2882
  595MOL0     C78470   3.737   5.209  10.274 -0.7734 -0.2764  0.2342
  595MOL0     C78471   3.800   5.078  10.285  0.4277 -0.2478 -0.1166
  595MOL0     C78472   3.840   4.963  10.307  0.1926 -0.0752 -0.3305
  595MOL0     C78473   3.114   5.405  10.277  0.6201 -0.4255 -0.6114
  595MOL0     C78474   2.981   5.456  10.302 -1.1736  0.0664 -0.3719
  595MOL0     H78475   2.636   5.596  10.584 -3.7923 -0.7451  1.6800
  595MOL0     H78476   2.461   5.657  10.662 -0.3879  3.1533 -1.1167
  595MOL0     H78477   2.068   5.498  10.566 -1.3322  0.1988  0.3743
  595MOL0     H78478   2.089   5.547  10.402 -2.4692 -0.2328  0.3639
  595MOL0     H78479   2.018   5.785  10.461  1.3530  0.7822  1.8782
  595MOL0     H78480   2.001   5.737  10.622  1.1957 -0.6356  0.7157
  595MOL0     H78481   1.846   5.536  10.557 -4.3230 -1.3402 -3.0146
  595MOL0     H78482   1.827   5.613  10.406  1.6469  0.0661 -0.6250
  595MOL0     H78483   1.765   5.751  10.683 -2.0205  2.1247  0.1298
  595MOL0     H78484   1.775   5.840  10.533 -2.4384  0.4301 -2.0260
  595MOL0     H78485   1.595   5.591  10.569 -2.1650 -0.0488  0.0844
  595MOL0     H78486   1.614   5.688  10.420 -1.2796  1.6205 -1.1411
  595MOL0     H78487   1.496   5.867  10.514 -0.2552 -0.2855 -0.4769
  595MOL0     H78488   1.517   5.811  10.679 -0.4945  1.4885 -0.1963
  595MOL0     H78489   1.354   5.651  10.480  2.6280 -0.4685  0.2215
  595MOL0     H78490   1.339   5.642  10.655 -1.4104  0.4426  0.3217
  595MOL0     H78491   1.281   5.893  10.489 -1.0377  2.5686  2.4337
  595MOL0     H78492   1.278   5.885  10.670 -0.5877  1.2473  0.1554
  595MOL0     H78493   1.100   5.718  10.357 -2.2648 -0.8369 -0.8753
  595MOL0     H78494   0.854   5.693  10.285  1.1958 -0.5506  1.1517
  595MOL0     H78495   0.733   5.806  10.356 -0.6807 -0.2444  1.0874
  595MOL0     H78496   0.631   5.586  10.373 -0.6962 -0.8765  3.4875
  595MOL0     H78497   0.702   5.611  10.532  0.7434 -2.0754  1.3352
  595MOL0     H78498   0.845   5.452  10.310  0.8537 -2.1846  0.5892
  595MOL0     H78499   0.864   5.456  10.498 -1.9183 -1.6541  2.0426
  595MOL0     H78500   0.653   5.347  10.504 -1.8883 -2.1310 -0.5042
  595MOL0     H78501   0.771   5.258  10.402  1.9147  1.2386  2.1387
  595MOL0     H78502   0.428   5.402  10.139  1.2120 -0.7162 -0.0281
  595MOL0     H78503   0.210   5.333  10.137  1.3541  0.7931  0.2573
  595MOL0     H78504  -0.112   5.285  10.049 -0.5545 -0.1065 -1.4449
  595MOL0     H78505  -0.370   5.296  10.022 -3.3340 -0.3119  2.4949
  595MOL0     H78506  -0.618   4.992  10.237 -0.2087  0.6688  0.3677
  595MOL0     H78507  -0.616   4.973  10.060 -3.2937 -1.1237 -0.7083
  595MOL0     H78508  -0.797   5.117  10.038 -2.0594  0.5478  0.8797
  595MOL0     H78509  -0.777   5.177  10.212 -1.3710 -1.7522  3.5428
  595MOL0     H78510  -0.860   4.944  10.285 -0.8936 -0.1098  0.3574
  595MOL0     H78511  -0.875   4.907  10.114 -1.2108 -0.4860  0.7032
  595MOL0     H78512  -1.028   5.145  10.254 -4.0491  1.0278 -3.0915
  595MOL0     H78513  -1.056   5.077  10.093 -0.1073 -3.2792 -1.6011
  595MOL0     H78514  -1.227   5.003  10.274 -1.4739 -3.3901 -1.8281
  595MOL0     H78515  -1.106   4.906  10.352 -0.8846  0.9465  0.2482
  595MOL0     H78516  -1.072   4.793  10.111 -0.4419  1.4159 -2.3587
  595MOL0     H78517  -1.212   4.878  10.067 -4.2514 -0.6803  1.2716
  595MOL0     H78518  -1.302   4.686  10.113  1.1036 -1.7902 -0.4868
  595MOL0     H78519  -1.211   4.652  10.265 -0.7607 -1.6154 -0.6583
  595MOL0     H78520  -1.438   4.858  10.226  2.9809  1.3115 -1.5971
  595MOL0     H78521  -1.342   4.850  10.372 -0.2456 -0.2913  0.0588
  595MOL0     H78522  -0.400   5.004  10.324 -0.9674  1.3240  0.0729
  595MOL0     H78523  -0.160   4.975  10.332 -1.1890  1.1076  2.4825
  595MOL0     H78524   0.303   5.033  10.456  2.3118  0.0885  2.4763
  595MOL0     H78525   0.513   5.133  10.466 -1.5861 -2.2175 -0.2341
  595MOL0     H78526   2.254   5.591  10.267 -1.3159  1.0578  2.0543
  595MOL0     H78527   2.468   5.515  10.194 -0.3201 -2.5170  1.1586
  595MOL0     H78528   2.975   5.690  10.069  3.5294  0.1848 -1.3230
  595MOL0     H78529   3.220   5.620  10.059  0.9396  0.5548  0.7791
  595MOL0     H78530   3.357   5.237  10.175 -0.2813  1.1867 -0.9026
  595MOL0     H78531   3.357   5.312  10.330 -0.4344  2.1340  0.8805
  595MOL0     H78532   3.588   5.377  10.120 -0.9948 -0.3864 -1.5330
  595MOL0     H78533   3.565   5.414  10.294 -2.3864 -1.6569  2.0985
  595MOL0     H78534   3.552   5.134  10.189 -0.1407 -0.2806  0.1825
  595MOL0     H78535   3.564   5.193  10.360 -0.1041  2.7907  0.2397
  595MOL0     H78536   3.790   5.255  10.191 -2.7927  2.0849  0.1599
  595MOL0     H78537   3.761   5.268  10.363 -1.8050 -0.3992  0.6071
  595MOL0     H78538   3.874   4.864  10.329 -1.2299 -0.8994 -1.6530
  595MOL0     H78539   3.148   5.332  10.349  1.3981  0.2374 -0.2943
  595MOL0     H78540   2.931   5.415  10.389  2.9797  1.0607  2.8207
  596MOL0     O78541   5.034   9.483   2.483 -0.1430 -0.2425 -0.0242
  596MOL0     C78542   5.050   9.425   2.588  0.4144 -0.3243  0.7304
  596MOL0     O78543   4.950   9.379   2.667 -0.1554 -0.4824  0.3577
  596MOL0     C78544   4.820   9.406   2.643  0.2876  0.2193  0.3553
  596MOL0     C78545   4.730   9.309   2.691  0.5281 -0.8913 -0.1429
  596MOL0     C78546   4.592   9.319   2.686 -0.5910 -0.7394  0.3115
  596MOL0     C78547   4.541   9.426   2.612  0.1451 -0.9537 -0.1898
  596MOL0     O78548   4.403   9.417   2.620 -0.2338 -0.1234 -0.5864
  596MOL0     C78549   4.319   9.495   2.532 -0.9870  0.1536 -1.3865
  596MOL0     C78550   4.173   9.465   2.551  0.5258 -0.8223  0.7920
  596MOL0     C78551   4.087   9.489   2.422 -0.0458 -0.8043  0.1602
  596MOL0     C78552   3.946   9.449   2.478 -0.5709  0.1675  1.2231
  596MOL0     C78553   3.838   9.473   2.373 -0.0335 -0.3676  0.1023
  596MOL0     C78554   3.867   9.400   2.237 -0.5736 -0.6724 -0.5581
  596MOL0     C78555   3.743   9.357   2.160 -0.4999 -0.4820 -0.4362
  596MOL0     C78556   3.794   9.284   2.032 -0.1153 -0.7253 -0.1914
  596MOL0     N78557   3.893   9.361   1.959  1.2722  0.3887  0.2488
  596MOL0     C78558   4.025   9.339   1.968  0.7554  0.0591 -0.1568
  596MOL0     C78559   4.086   9.442   1.909  0.3771  0.8529  1.0959
  596MOL0     C78560   4.238   9.470   1.898 -0.1296  0.4216  0.4803
  596MOL0     C78561   4.342   9.362   1.939 -0.0542 -0.3988  0.5584
  596MOL0     C78562   4.389   9.390   2.083 -0.1629 -1.0911 -0.2768
  596MOL0     C78563   4.470   9.523   2.101  0.0364  0.3444 -0.5838
  596MOL0     O78564   4.577   9.543   2.005  0.4073 -0.3268 -0.0611
  596MOL0     C78565   4.704   9.503   2.050 -0.2248 -0.0151  0.2022
  596MOL0     C78566   4.790   9.593   2.129  0.1255  0.0017 -0.1718
  596MOL0     C78567   4.916   9.543   2.171 -0.0004  0.5748  0.7222
  596MOL0     C78568   4.963   9.418   2.132  0.0752 -0.0071  0.0320
  596MOL0     C78569   5.099   9.382   2.158 -0.6431  0.5851 -0.4968
  596MOL0     O78570   5.189   9.490   2.165  0.2840  0.0831 -0.0368
  596MOL0     C78571   5.325   9.485   2.188 -0.8319 -0.3214  0.7657
  596MOL0     C78572   5.410   9.371   2.163 -0.1326 -0.7613  0.8440
  596MOL0     C78573   5.544   9.378   2.177 -0.6228 -0.4255 -0.5195
  596MOL0     C78574   5.604   9.506   2.202 -0.2129 -0.7176 -0.4140
  596MOL0     O78575   5.743   9.509   2.227 -0.1966  0.1317 -0.4601
  596MOL0     C78576   5.809   9.625   2.170  0.2806 -0.1882 -0.2501
  596MOL0     C78577   5.956   9.620   2.173 -0.9157  0.3736 -0.0681
  596MOL0     C78578   6.020   9.538   2.064  0.2753  0.0632  0.0055
  596MOL0     C78579   6.173   9.552   2.085 -0.5318  0.3757  0.3216
  596MOL0     C78580   6.225   9.469   1.965  0.6865  0.3677 -0.0048
  596MOL0     C78581   6.366   9.430   1.991  0.6235  0.2151 -0.2708
  596MOL0     C78582   6.462   9.549   2.006 -0.2779 -0.3559  1.3051
  596MOL0     C78583   6.607   9.524   2.047 -0.5560  0.2107  0.0784
  596MOL0    Cl78584   6.638   9.443   2.209  0.3842 -0.1295  0.0979
  596MOL0     C78585   5.521   9.623   2.208 -0.5104 -0.0718  0.0614
  596MOL0     C78586   5.387   9.614   2.207  0.7136  0.0858  0.2196
  596MOL0     O78587   5.130   9.262   2.172 -0.3155 -0.7467  0.1549
  596MOL0     C78588   4.876   9.334   2.051  0.2918  0.3938 -0.5669
  596MOL0     C78589   4.753   9.375   2.022 -0.4715 -0.8871 -0.2532
  596MOL0     N78590   3.982   9.532   1.855 -0.2109  0.4056 -0.0185
  596MOL0     N78591   3.868   9.466   1.882  0.8017 -0.5336 -0.7970
  596MOL0     C78592   4.621   9.517   2.548 -0.1443  1.2527  0.0035
  596MOL0     C78593   4.761   9.519   2.567 -0.3355  0.4377 -0.2119
  596MOL0     C78594   5.191   9.391   2.616 -0.3666  0.6758  0.1292
  596MOL0     C78595   5.292   9.455   2.534  0.5091  0.5116  0.4485
  596MOL0     C78596   5.425   9.422   2.533  0.9010 -0.7277  0.1878
  596MOL0     C78597   5.460   9.332   2.629  0.0922 -0.2585 -0.9894
  596MOL0     O78598   5.591   9.289   2.637  0.2309 -0.9506  0.2014
  596MOL0     C78599   5.701   9.339   2.550  0.3715  0.0371  0.2635
  596MOL0     C78600   5.832   9.273   2.599  0.1302 -0.0133 -0.0769
  596MOL0     C78601   5.943   9.338   2.516  0.5458 -0.1502 -0.3476
  596MOL0     C78602   6.076   9.265   2.554 -1.1513  0.1942  0.4478
  596MOL0     C78603   6.194   9.309   2.464  0.5626 -1.0896 -0.7833
  596MOL0     C78604   6.286   9.346   2.388  0.9325  1.1801 -0.1719
  596MOL0     C78605   5.372   9.275   2.727 -0.6969  0.1158 -0.6815
  596MOL0     C78606   5.240   9.304   2.716  0.8420  0.2116 -0.0263
  596MOL0     H78607   4.772   9.230   2.753  0.1473 -0.3720  0.7943
  596MOL0     H78608   4.527   9.238   2.721  1.3619 -1.7960  1.7158
  596MOL0     H78609   4.342   9.473   2.428  2.0176 -0.7921 -0.6134
  596MOL0     H78610   4.344   9.600   2.549 -0.4574  0.1507 -2.1050
  596MOL0     H78611   4.141   9.520   2.640  0.7305 -2.4740  1.9312
  596MOL0     H78612   4.163   9.363   2.589  0.8012 -0.6389  1.3781
  596MOL0     H78613   4.129   9.418   2.351  2.2079 -1.0143  1.5776
  596MOL0     H78614   4.084   9.595   2.395  2.7918  0.1260  2.8415
  596MOL0     H78615   3.955   9.342   2.499 -0.8325 -0.1474 -0.1418
  596MOL0     H78616   3.928   9.510   2.567 -2.5734  2.0122 -0.3449
  596MOL0     H78617   3.823   9.580   2.356  1.6487 -0.6372 -5.1736
  596MOL0     H78618   3.750   9.430   2.421  0.9095 -1.9642  0.4803
  596MOL0     H78619   3.938   9.320   2.257  3.0098  1.9153 -1.8895
  596MOL0     H78620   3.924   9.476   2.183 -2.1694 -0.0233 -1.4106
  596MOL0     H78621   3.688   9.287   2.224  1.7085 -0.0602  2.1202
  596MOL0     H78622   3.693   9.448   2.126  0.9058 -0.0611 -1.4591
  596MOL0     H78623   3.711   9.268   1.963  0.7124 -3.6169 -0.6308
  596MOL0     H78624   3.842   9.191   2.064 -0.9159 -0.2876  2.5267
  596MOL0     H78625   4.075   9.257   2.018 -0.3825  0.1654  1.2015
  596MOL0     H78626   4.249   9.559   1.961  0.5838 -0.1362  1.1570
  596MOL0     H78627   4.258   9.500   1.795 -0.1630  1.6742  0.8133
  596MOL0     H78628   4.426   9.365   1.870  0.5832  2.2544  1.3331
  596MOL0     H78629   4.292   9.265   1.929  1.3111 -1.2901  1.9828
  596MOL0     H78630   4.302   9.381   2.148  1.3579 -0.5381  1.9121
  596MOL0     H78631   4.460   9.314   2.113 -2.1552 -2.4124  1.3459
  596MOL0     H78632   4.517   9.525   2.199  1.5620  0.4312 -1.2968
  596MOL0     H78633   4.405   9.611   2.092 -0.0451  0.4885  1.0488
  596MOL0     H78634   4.751   9.690   2.157 -1.9319 -0.9378  0.4100
  596MOL0     H78635   4.978   9.617   2.222  3.9557 -0.7871 -1.6821
  596MOL0     H78636   5.371   9.275   2.131  0.7399 -1.5973  2.1984
  596MOL0     H78637   5.604   9.288   2.170  2.7136  1.2412  2.7793
  596MOL0     H78638   5.794   9.716   2.228  0.4135 -0.8219  0.7944
  596MOL0     H78639   5.786   9.631   2.063 -0.2156  0.7492 -0.1015
  596MOL0     H78640   5.984   9.583   2.273 -1.7047  1.3310  0.5216
  596MOL0     H78641   5.990   9.722   2.154 -1.9523  0.2763 -3.0201
  596MOL0     H78642   5.991   9.579   1.967 -2.4762 -2.0724 -0.1798
  596MOL0     H78643   5.985   9.434   2.062  1.6255 -0.5517  2.9770
  596MOL0     H78644   6.206   9.656   2.097  1.8230 -0.3669  0.8044
  596MOL0     H78645   6.202   9.498   2.175  0.2184  3.3835  2.0137
  596MOL0     H78646   6.224   9.519   1.868  3.6635 -0.6894 -0.7088
  596MOL0     H78647   6.167   9.377   1.955 -1.4280  1.7056 -0.6930
  596MOL0     H78648   6.402   9.360   1.915 -2.4647 -1.2936 -0.5059
  596MOL0     H78649   6.366   9.381   2.089 -2.9092 -1.2310 -0.8535
  596MOL0     H78650   6.462   9.610   1.914 -4.9775 -4.5769 -2.0293
  596MOL0     H78651   6.428   9.608   2.091  3.1647  1.6084  1.5106
  596MOL0     H78652   6.659   9.620   2.046 -1.0945  0.4992 -0.6011
  596MOL0     H78653   6.657   9.456   1.976  1.6204 -0.1757  1.8595
  596MOL0     H78654   5.563   9.723   2.215  2.5731 -1.2118 -0.8233
  596MOL0     H78655   5.322   9.700   2.221  0.7983  1.1843 -4.4881
  596MOL0     H78656   4.899   9.236   2.008 -1.3204  1.0612 -3.1595
  596MOL0     H78657   4.693   9.298   1.973 -0.1095 -1.4746  0.2098
  596MOL0     H78658   4.578   9.605   2.500  2.7236  2.2665 -0.9263
  596MOL0     H78659   4.814   9.609   2.540  1.1514  0.1476  1.5766
  596MOL0     H78660   5.265   9.533   2.465 -1.2591 -0.6191 -0.2070
  596MOL0     H78661   5.482   9.448   2.444 -2.9323 -2.1920 -3.0243
  596MOL0     H78662   5.702   9.447   2.568 -1.8719 -0.1634  2.0945
  596MOL0     H78663   5.700   9.313   2.444  2.2870  1.0435 -0.0510
  596MOL0     H78664   5.848   9.298   2.704 -2.6786  3.6243 -0.3050
  596MOL0     H78665   5.829   9.166   2.579 -1.3410  0.2276 -1.3780
  596MOL0     H78666   5.955   9.439   2.558 -0.4642 -0.1136 -0.1367
  596MOL0     H78667   5.913   9.338   2.411 -2.7826 -0.4708  0.4970
  596MOL0     H78668   6.110   9.285   2.656 -0.6604  2.4026 -0.0789
  596MOL0     H78669   6.074   9.157   2.538  1.3857 -0.0717  1.4631
  596MOL0     H78670   6.356   9.368   2.311 -0.1094  2.6852 -0.7173
  596MOL0     H78671   5.406   9.213   2.809 -1.4346 -0.7915 -1.0364
  596MOL0     H78672   5.171   9.255   2.783 -0.4305  2.1925  0.1761
  597MOL0     O78673   7.936   1.602   3.398 -0.8480  0.4028  0.5316
  597MOL0     C78674   8.022   1.675   3.348  1.3298 -0.4908 -0.1613
  597MOL0     O78675   8.069   1.798   3.396  0.3197 -0.3454  0.2199
  597MOL0     C78676   8.015   1.816   3.521 -0.0492 -0.3879 -0.0913
  597MOL0     C78677   7.892   1.886   3.535 -0.1462 -1.1981  0.2522
  597MOL0     C78678   7.848   1.911   3.657  0.6922 -0.0125 -1.6108
  597MOL0     C78679   7.921   1.872   3.777 -0.4134  0.0301  0.3299
  597MOL0     O78680   7.887   1.923   3.896 -0.2187 -0.7526  0.1670
  597MOL0     C78681   7.805   2.041   3.900  0.3475 -0.4274  0.4057
  597MOL0     C78682   7.805   2.121   4.034  0.0454 -0.2146  0.4373
  597MOL0     C78683   7.733   2.256   4.009 -0.2464  0.8304 -0.8568
  597MOL0     C78684   7.688   2.302   4.145 -0.3794 -0.3773 -0.1839
  597MOL0     C78685   7.622   2.434   4.165  0.2949 -0.4211  0.5081
  597MOL0     C78686   7.700   2.553   4.128 -0.4849 -0.0552  0.0807
  597MOL0     C78687   7.628   2.684   4.152 -0.1045 -0.0307 -0.0182
  597MOL0     C78688   7.527   2.704   4.046  0.5684 -0.1303 -0.3032
  597MOL0     N78689   7.450   2.822   4.077  0.3595 -0.6339 -0.3125
  597MOL0     C78690   7.385   2.895   3.980  0.6086 -0.3940 -0.2708
  597MOL0     C78691   7.287   2.961   4.055 -0.0503  0.8052 -0.2705
  597MOL0     C78692   7.204   3.079   4.002  0.0749  0.4761  0.0658
  597MOL0     C78693   7.063   3.029   3.969 -0.3205 -0.4511  0.0194
  597MOL0     C78694   6.965   3.136   3.939 -0.0942 -0.5831 -0.4989
  597MOL0     C78695   6.840   3.101   3.865  0.0396  0.4191 -0.5029
  597MOL0     O78696   6.767   3.009   3.947  0.5119 -0.2921  0.7040
  597MOL0     C78697   6.649   2.963   3.893  0.2203 -0.1322 -0.2457
  597MOL0     C78698   6.574   2.898   3.989  0.1343  1.1447 -0.2213
  597MOL0     C78699   6.451   2.836   3.956  0.3239  0.4649  0.5627
  597MOL0     C78700   6.403   2.854   3.820 -0.2589 -0.8527 -0.9335
  597MOL0     C78701   6.267   2.805   3.786  0.4086  0.4872 -0.0946
  597MOL0     O78702   6.206   2.859   3.676 -0.0164  0.5979 -0.0564
  597MOL0     C78703   6.071   2.850   3.662 -0.5181 -0.8792  0.6399
  597MOL0     C78704   6.012   2.858   3.537 -0.1892 -0.4568 -0.1954
  597MOL0     C78705   5.876   2.856   3.527 -0.6722 -0.3228  0.0894
  597MOL0     C78706   5.784   2.859   3.636  0.2322  0.0933  0.3110
  597MOL0     O78707   5.648   2.845   3.619  0.5572  0.3886 -0.0879
  597MOL0     C78708   5.594   2.899   3.498  0.4423 -0.5484  0.5334
  597MOL0     C78709   5.441   2.924   3.530  0.4137 -0.0939  0.5363
  597MOL0     C78710   5.355   3.005   3.418  0.1704 -0.0915  0.4675
  597MOL0     C78711   5.359   2.919   3.295 -0.0797  1.0767  0.1464
  597MOL0     C78712   5.248   2.966   3.198 -0.0620 -0.6454  0.5007
  597MOL0     C78713   5.248   2.901   3.057  0.2333 -0.4242  0.7059
  597MOL0     C78714   5.129   2.960   2.971 -1.0238  0.1806 -0.6533
  597MOL0     C78715   5.150   2.956   2.815  0.4817  0.1412 -0.2392
  597MOL0    Cl78716   5.009   3.001   2.710  0.1196  0.1025 -0.4164
  597MOL0     C78717   5.839   2.847   3.758  0.3935 -0.3374 -1.0785
  597MOL0     C78718   5.985   2.848   3.773 -0.4765  0.5025 -1.1910
  597MOL0     O78719   6.220   2.713   3.854 -0.0899 -0.1002 -0.1795
  597MOL0     C78720   6.482   2.929   3.728 -0.3150  0.4154 -0.4352
  597MOL0     C78721   6.603   2.980   3.765 -0.5014  0.4494  0.0070
  597MOL0     N78722   7.299   2.911   4.187  0.8285 -0.2563  1.1235
  597MOL0     N78723   7.387   2.827   4.196 -0.0826 -0.2387 -0.9853
  597MOL0     C78724   8.047   1.798   3.768 -0.3740  0.5492 -0.6950
  597MOL0     C78725   8.090   1.766   3.640  0.0445 -0.0319 -0.4031
  597MOL0     C78726   8.091   1.646   3.217  0.3018  0.0514  0.3914
  597MOL0     C78727   8.063   1.525   3.147  0.0708 -0.8576 -0.4678
  597MOL0     C78728   8.143   1.488   3.044 -0.3157  0.3894  0.5830
  597MOL0     C78729   8.247   1.570   2.996  0.4003 -0.5212  0.0576
  597MOL0     O78730   8.313   1.518   2.888 -0.1723  0.2184  0.3526
  597MOL0     C78731   8.385   1.612   2.806  0.3204 -0.6604  0.0941
  597MOL0     C78732   8.449   1.537   2.690  0.4353  0.4397 -0.7286
  597MOL0     C78733   8.476   1.388   2.725  0.3568  0.7446 -0.2324
  597MOL0     C78734   8.572   1.320   2.628  0.1402 -0.8175  0.2836
  597MOL0     C78735   8.697   1.392   2.622 -0.9089  1.0560  0.2767
  597MOL0     C78736   8.809   1.438   2.606 -0.0359  0.3160  0.5906
  597MOL0     C78737   8.279   1.683   3.067 -0.6043 -0.4411  0.6961
  597MOL0     C78738   8.200   1.723   3.167  0.1058  0.8690  0.0353
  597MOL0     H78739   7.840   1.933   3.452  2.1233  1.8247  0.3375
  597MOL0     H78740   7.757   1.969   3.668 -0.0643 -1.4210  0.1272
  597MOL0     H78741   7.703   2.013   3.873  0.4324  0.3578 -0.8425
  597MOL0     H78742   7.831   2.116   3.824  1.5669 -0.3942  0.8367
  597MOL0     H78743   7.900   2.138   4.085 -1.4235 -0.0255  3.3142
  597MOL0     H78744   7.750   2.057   4.104  0.2982  0.1221  0.9443
  597MOL0     H78745   7.648   2.242   3.942  0.4900  0.8923 -1.8350
  597MOL0     H78746   7.798   2.333   3.966 -0.7041  1.4476 -0.4515
  597MOL0     H78747   7.617   2.223   4.172  0.2188 -0.4279  1.3672
  597MOL0     H78748   7.780   2.308   4.204 -1.3295 -2.9444  1.7605
  597MOL0     H78749   7.598   2.437   4.272  0.1157 -0.5993  0.4715
  597MOL0     H78750   7.532   2.428   4.103 -0.4935  0.0223  1.5824
  597MOL0     H78751   7.724   2.552   4.022 -1.4795  1.6603 -0.1918
  597MOL0     H78752   7.796   2.552   4.180 -0.6627 -1.5377  0.4346
  597MOL0     H78753   7.585   2.683   4.252 -1.7492 -1.3337 -0.6860
  597MOL0     H78754   7.700   2.764   4.131 -2.6693  1.9150 -1.9775
  597MOL0     H78755   7.459   2.619   4.047  1.2239 -0.6710 -1.1865
  597MOL0     H78756   7.565   2.705   3.944 -1.8872 -3.8896 -1.4316
  597MOL0     H78757   7.414   2.900   3.876  3.9376  2.2695  0.6305
  597MOL0     H78758   7.250   3.133   3.919 -2.5893 -0.5683 -2.2260
  597MOL0     H78759   7.190   3.151   4.084  3.0023  0.3742  0.7794
  597MOL0     H78760   7.028   2.954   4.040 -0.2064 -0.3825  0.1486
  597MOL0     H78761   7.075   2.983   3.871  0.2754  2.3226 -1.3299
  597MOL0     H78762   6.931   3.180   4.033 -1.6839  0.6040 -1.5556
  597MOL0     H78763   7.014   3.226   3.902 -0.9126  1.9888  3.9736
  597MOL0     H78764   6.848   3.051   3.767 -1.9343 -0.1584 -0.4031
  597MOL0     H78765   6.783   3.190   3.837 -0.2219 -0.4591 -3.0837
  597MOL0     H78766   6.608   2.881   4.091 -3.1919 -2.6511  0.4849
  597MOL0     H78767   6.406   2.765   4.025  2.8785 -0.5892  1.2344
  597MOL0     H78768   6.075   2.874   3.450  1.5076  0.5657  1.1568
  597MOL0     H78769   5.832   2.853   3.428 -2.3448  1.0951  0.7122
  597MOL0     H78770   5.591   2.832   3.412 -1.4929 -0.2801  0.3323
  597MOL0     H78771   5.650   2.988   3.468 -0.5358  0.9709  2.8667
  597MOL0     H78772   5.443   3.004   3.604 -2.0761  1.2375 -0.6689
  597MOL0     H78773   5.396   2.831   3.566 -1.1960  0.8062  0.9727
  597MOL0     H78774   5.408   3.099   3.400 -1.0527  0.1936 -2.1389
  597MOL0     H78775   5.253   3.034   3.443  0.0859 -0.1359  0.1760
  597MOL0     H78776   5.451   2.918   3.236  0.6793  3.3927  1.1637
  597MOL0     H78777   5.327   2.817   3.317  0.0040  0.6069 -1.7770
  597MOL0     H78778   5.271   3.066   3.161  0.4748 -0.7166  0.6306
  597MOL0     H78779   5.147   2.971   3.239  0.3527  1.0438  1.4134
  597MOL0     H78780   5.235   2.793   3.046  0.1174 -0.2014 -1.8688
  597MOL0     H78781   5.341   2.931   3.009  0.0361 -0.2101  0.4544
  597MOL0     H78782   5.047   2.892   2.997 -0.2164  0.3377  2.8058
  597MOL0     H78783   5.114   3.062   3.006 -3.9320 -0.2769 -0.2636
  597MOL0     H78784   5.179   2.854   2.790 -0.7691 -0.0936 -0.8495
  597MOL0     H78785   5.235   3.008   2.770  4.7134 -3.1818  3.1096
  597MOL0     H78786   5.762   2.829   3.831 -0.6184 -1.7163 -2.4203
  597MOL0     H78787   6.029   2.827   3.870 -3.1312  3.0297  0.7466
  597MOL0     H78788   6.432   2.951   3.634  0.8220  0.1639 -1.1220
  597MOL0     H78789   6.649   3.044   3.690 -1.2839 -0.2306 -1.0754
  597MOL0     H78790   8.107   1.763   3.851 -2.0913  1.8472  1.1834
  597MOL0     H78791   8.176   1.700   3.643  2.5249  2.9761  2.1495
  597MOL0     H78792   7.982   1.460   3.178 -0.5262  0.4888  0.9105
  597MOL0     H78793   8.115   1.395   2.995 -1.5543  1.7026 -1.3724
  597MOL0     H78794   8.465   1.658   2.864  1.2129 -3.4455  1.2608
  597MOL0     H78795   8.311   1.674   2.756  0.4159 -2.7074 -2.8523
  597MOL0     H78796   8.375   1.545   2.610 -0.7237 -0.4993  0.2119
  597MOL0     H78797   8.540   1.584   2.652 -0.1089  0.5671 -1.9499
  597MOL0     H78798   8.379   1.336   2.721  1.4206 -1.4451  0.7170
  597MOL0     H78799   8.514   1.389   2.827 -3.9996  1.2369  1.6116
  597MOL0     H78800   8.595   1.220   2.667 -0.6684 -1.4017 -0.6939
  597MOL0     H78801   8.522   1.287   2.537 -1.9910 -2.2190  1.8751
  597MOL0     H78802   8.898   1.497   2.605  1.3511 -1.6524  0.0337
  597MOL0     H78803   8.354   1.756   3.038 -0.3789  0.1198  2.5470
  597MOL0     H78804   8.228   1.810   3.225  0.0903  0.5437  0.5431
  598MOL0     O78805   8.457   6.546   9.940 -0.4344  1.2716 -0.0360
  598MOL0     C78806   8.501   6.657   9.941  0.4863 -0.5743 -0.3247
  598MOL0     O78807   8.421   6.777   9.946 -0.5190  0.3103 -0.4285
  598MOL0     C78808   8.293   6.773   9.993 -1.1018  0.5440 -0.2987
  598MOL0     C78809   8.188   6.720   9.924  0.5555 -1.2420  0.5068
  598MOL0     C78810   8.053   6.728   9.970  0.6189  0.3733  0.0863
  598MOL0     C78811   8.035   6.779  10.097 -0.7468  0.0660 -1.2934
  598MOL0     O78812   7.912   6.790  10.163 -0.3229 -0.2734  0.3874
  598MOL0     C78813   7.798   6.823  10.087  0.1624 -0.9688 -0.6737
  598MOL0     C78814   7.705   6.904  10.165 -0.6210  0.1016 -0.5775
  598MOL0     C78815   7.583   6.946  10.090  0.3275 -0.6613  1.3679
  598MOL0     C78816   7.464   6.995  10.173  0.0097  0.4336 -0.1155
  598MOL0     C78817   7.326   6.981  10.111  0.4019 -0.1311  0.2805
  598MOL0     C78818   7.322   7.031   9.962  0.0021  0.7575 -0.1089
  598MOL0     C78819   7.176   7.045   9.903  1.1282 -0.4684 -0.4266
  598MOL0     C78820   7.111   7.176   9.954  0.4433 -1.0089 -0.7227
  598MOL0     N78821   6.972   7.187   9.900 -0.2798  0.0536  0.6091
  598MOL0     C78822   6.914   7.097   9.813  0.0944  0.0095  0.4550
  598MOL0     C78823   6.789   7.149   9.793 -0.0975  0.3990 -0.7835
  598MOL0     C78824   6.670   7.093   9.710 -0.2605  0.3361  0.9770
  598MOL0     C78825   6.562   7.193   9.680  0.1037  0.6667 -0.6079
  598MOL0     C78826   6.446   7.121   9.598 -0.0941  0.1410 -0.7138
  598MOL0     C78827   6.343   7.051   9.700 -1.2585  0.7026  0.9523
  598MOL0     O78828   6.289   7.143   9.794 -0.3217 -0.1937  0.1281
  598MOL0     C78829   6.189   7.229   9.754 -0.3843  0.7323 -0.8870
  598MOL0     C78830   6.120   7.233   9.640  0.2317 -0.1315  0.7230
  598MOL0     C78831   6.001   7.302   9.622 -0.5689 -0.4662  0.1837
  598MOL0     C78832   5.959   7.396   9.716  0.1371  0.2795  0.2385
  598MOL0     C78833   5.855   7.495   9.674  0.0384  0.5432  0.3835
  598MOL0     O78834   5.838   7.602   9.760 -0.0688 -0.1346  0.8360
  598MOL0     C78835   5.777   7.710   9.701  1.1562 -0.4872 -0.3965
  598MOL0     C78836   5.841   7.795   9.615  0.0846 -0.6224  0.0416
  598MOL0     C78837   5.791   7.912   9.571  0.4646 -1.1946  0.7964
  598MOL0     C78838   5.664   7.952   9.608  0.4783 -0.0833 -0.2582
  598MOL0     O78839   5.620   8.079   9.571 -0.2031  0.6524 -0.3729
  598MOL0     C78840   5.607   8.098   9.431 -0.4489  0.5950  0.3882
  598MOL0     C78841   5.484   8.029   9.379  0.7134 -0.4549  0.7370
  598MOL0     C78842   5.426   8.091   9.241 -0.3995  0.3212  0.3006
  598MOL0     C78843   5.329   7.980   9.182 -0.6722  0.1831 -1.1729
  598MOL0     C78844   5.285   8.014   9.042 -0.6190  0.2929 -0.4138
  598MOL0     C78845   5.256   7.884   8.962  0.4700  0.5495 -0.1572
  598MOL0     C78846   5.220   7.921   8.817 -0.3595 -0.3900  0.4676
  598MOL0     C78847   5.232   7.786   8.734  0.1637 -0.0687 -0.1144
  598MOL0    Cl78848   5.399   7.759   8.686  0.0439  0.0572  0.2050
  598MOL0     C78849   5.585   7.868   9.686  0.1947  0.1931 -0.2543
  598MOL0     C78850   5.636   7.746   9.731 -1.1617  0.7119  0.0069
  598MOL0     O78851   5.795   7.482   9.564  0.1634  0.6697 -0.6534
  598MOL0     C78852   6.034   7.406   9.836 -0.3406 -0.6590 -0.6389
  598MOL0     C78853   6.142   7.312   9.854  0.1141 -0.1563 -0.5303
  598MOL0     N78854   6.775   7.269   9.864 -0.0519 -0.6384  0.2748
  598MOL0     N78855   6.885   7.291   9.919  0.6947  0.4132 -0.3782
  598MOL0     C78856   8.143   6.830  10.170 -0.3057 -0.2752  0.2257
  598MOL0     C78857   8.266   6.825  10.115  0.0632 -0.7840 -0.1988
  598MOL0     C78858   8.641   6.665   9.909  0.0430 -0.2438  0.3422
  598MOL0     C78859   8.698   6.788   9.853  0.2404  0.5292 -0.2451
  598MOL0     C78860   8.830   6.799   9.834 -0.1289  0.2593 -0.1844
  598MOL0     C78861   8.916   6.701   9.873  0.9596  0.1113 -0.0230
  598MOL0     O78862   9.052   6.721   9.867  0.9199  0.2879  0.9048
  598MOL0     C78863   9.126   6.655   9.770  0.4687  0.3290  0.0120
  598MOL0     C78864   9.259   6.722   9.726  0.1606  0.1471  0.2979
  598MOL0     C78865   9.304   6.674   9.587  0.4616  1.0177  0.0573
  598MOL0     C78866   9.436   6.725   9.551 -0.5354 -0.1201  0.8837
  598MOL0     C78867   9.450   6.873   9.565 -0.4334  0.2777  0.2258
  598MOL0     C78868   9.457   6.995   9.562 -0.1631 -0.4348 -0.0962
  598MOL0     C78869   8.868   6.578   9.911 -0.5423 -0.4875 -0.0376
  598MOL0     C78870   8.731   6.556   9.926  0.5634  0.4844  0.6476
  598MOL0     H78871   8.210   6.687   9.823  1.6388  2.2547 -0.5342
  598MOL0     H78872   7.976   6.691   9.903  0.3256  1.8538 -0.4295
  598MOL0     H78873   7.745   6.732  10.055  0.6546  0.0778 -5.2038
  598MOL0     H78874   7.830   6.872   9.995 -0.9448 -1.8020 -1.5409
  598MOL0     H78875   7.758   6.995  10.194 -1.3238  0.4879 -0.5056
  598MOL0     H78876   7.696   6.849  10.259 -1.7696 -1.4485 -1.5328
  598MOL0     H78877   7.543   6.867  10.026 -0.4405  3.2740 -3.6241
  598MOL0     H78878   7.614   7.027  10.023  1.6418 -2.7289 -0.7077
  598MOL0     H78879   7.459   6.951  10.273 -2.1702  0.6748 -0.0752
  598MOL0     H78880   7.475   7.102  10.190 -1.8949  0.7555 -0.6823
  598MOL0     H78881   7.255   7.041  10.169 -0.8607  0.5636 -1.8848
  598MOL0     H78882   7.297   6.876  10.122 -0.0839 -0.2804 -2.0135
  598MOL0     H78883   7.365   6.948   9.905 -1.6467 -1.2588  1.4035
  598MOL0     H78884   7.381   7.121   9.944 -0.1417  1.2663  1.7670
  598MOL0     H78885   7.190   7.052   9.795  1.9198  3.3407 -0.1914
  598MOL0     H78886   7.123   6.951   9.923 -1.1525  0.6501 -0.9723
  598MOL0     H78887   7.182   7.256   9.928 -2.6315  1.7509 -1.3562
  598MOL0     H78888   7.094   7.185  10.062 -0.9263 -1.7555 -0.8531
  598MOL0     H78889   6.959   7.009   9.768  1.3823 -1.1535  3.7146
  598MOL0     H78890   6.617   7.011   9.759  0.1172 -2.3546 -2.6733
  598MOL0     H78891   6.713   7.052   9.618  3.3609  1.8976  1.8077
  598MOL0     H78892   6.602   7.273   9.617 -1.6574  0.1911 -2.4225
  598MOL0     H78893   6.531   7.240   9.774 -0.7588  0.8337 -0.9699
  598MOL0     H78894   6.388   7.198   9.548 -0.1600  1.9358  1.9183
  598MOL0     H78895   6.477   7.040   9.532 -1.7283 -0.2928 -0.9927
  598MOL0     H78896   6.389   6.971   9.758 -1.8401 -0.0906  0.3509
  598MOL0     H78897   6.270   6.997   9.638  0.3802  1.3411 -1.7200
  598MOL0     H78898   6.155   7.165   9.563  0.7308 -2.9960  3.2907
  598MOL0     H78899   5.943   7.314   9.531 -0.7920  0.0159  0.3874
  598MOL0     H78900   5.943   7.768   9.589  0.1272 -0.0563 -0.3939
  598MOL0     H78901   5.856   7.975   9.511  1.4514 -2.4159  0.5388
  598MOL0     H78902   5.701   8.065   9.385 -1.5601 -1.1511 -0.7456
  598MOL0     H78903   5.577   8.201   9.412  0.2009  0.7098 -0.0342
  598MOL0     H78904   5.409   8.032   9.458 -2.1322  0.8320 -1.8011
  598MOL0     H78905   5.514   7.925   9.362  1.1580 -0.4128  1.2347
  598MOL0     H78906   5.514   8.093   9.176  0.3721 -1.6853  1.2030
  598MOL0     H78907   5.377   8.185   9.267 -2.3268 -0.6641  0.4676
  598MOL0     H78908   5.386   7.887   9.179 -0.9530 -0.1747  1.6218
  598MOL0     H78909   5.242   7.968   9.248  0.6272  3.3724  1.4388
  598MOL0     H78910   5.366   8.071   8.996 -0.0806  1.5806  1.9733
  598MOL0     H78911   5.198   8.079   9.048 -0.4122  0.4480  1.6445
  598MOL0     H78912   5.187   7.821   9.021  1.2538 -0.2751 -0.0920
  598MOL0     H78913   5.356   7.841   8.956  0.9411  0.6720  3.8605
  598MOL0     H78914   5.114   7.945   8.828 -0.5737  0.5149 -2.6313
  598MOL0     H78915   5.274   8.007   8.776 -0.0809 -0.8393 -0.1252
  598MOL0     H78916   5.164   7.804   8.651 -0.5913 -1.0008  0.2857
  598MOL0     H78917   5.203   7.699   8.794  1.3326  0.3949  1.1635
  598MOL0     H78918   5.483   7.902   9.702 -0.2194 -0.5940 -1.1363
  598MOL0     H78919   5.573   7.678   9.787  0.2530 -2.8127 -2.2821
  598MOL0     H78920   6.010   7.479   9.913  2.3226 -1.4999  1.1513
  598MOL0     H78921   6.208   7.316   9.941  3.0374  0.7115 -2.6107
  598MOL0     H78922   8.132   6.873  10.269  1.1600 -0.9677  0.7086
  598MOL0     H78923   8.349   6.866  10.172 -0.0989 -3.6059  2.2877
  598MOL0     H78924   8.636   6.875   9.831 -5.1133 -2.8714 -0.5246
  598MOL0     H78925   8.856   6.892   9.786  2.0315 -1.0607 -1.7808
  598MOL0     H78926   9.059   6.648   9.684 -1.9592 -1.2241  1.8855
  598MOL0     H78927   9.147   6.558   9.816 -3.2467  0.7727  3.1659
  598MOL0     H78928   9.241   6.830   9.717 -1.6868 -0.1178  0.3598
  598MOL0     H78929   9.331   6.710   9.807 -1.0920 -0.4522  1.3551
  598MOL0     H78930   9.219   6.695   9.522 -0.9419  3.4576  2.4500
  598MOL0     H78931   9.309   6.565   9.589 -0.1810  0.9759  2.1191
  598MOL0     H78932   9.507   6.675   9.618 -0.0184  0.9352  1.1314
  598MOL0     H78933   9.467   6.695   9.450 -0.0151 -0.9669  1.2832
  598MOL0     H78934   9.462   7.102   9.556 -0.6265 -0.3204  1.1659
  598MOL0     H78935   8.941   6.505   9.944 -0.6523 -0.1720  0.9514
  598MOL0     H78936   8.692   6.456   9.942  2.4088 -0.3884 -0.0722
  599MOL0     O78937   1.263  10.779   6.268  0.6790 -0.0757  0.0435
  599MOL0     C78938   1.231  10.884   6.323 -0.9035 -0.4030  0.0430
  599MOL0     O78939   1.316  10.974   6.382  0.1254  0.4953 -0.0695
  599MOL0     C78940   1.453  10.955   6.370  0.2527 -0.5048 -0.3919
  599MOL0     C78941   1.544  11.061   6.353  0.3585 -0.2684 -1.1942
  599MOL0     C78942   1.685  11.033   6.342  0.3358  0.2291  0.3370
  599MOL0     C78943   1.737  10.907   6.364 -1.0861 -0.3228 -0.2339
  599MOL0     O78944   1.869  10.862   6.360 -0.1985 -0.2928  0.0591
  599MOL0     C78945   1.964  10.956   6.297  0.7162 -0.7736 -0.7585
  599MOL0     C78946   2.107  10.941   6.357  0.5997  0.0691 -0.8152
  599MOL0     C78947   2.197  10.993   6.240 -0.6584  0.5728  0.5388
  599MOL0     C78948   2.346  10.970   6.278 -0.7973  0.3608 -0.6261
  599MOL0     C78949   2.432  11.037   6.168 -0.8511 -0.4374 -0.7749
  599MOL0     C78950   2.468  10.938   6.048 -0.7719  1.0453  0.2801
  599MOL0     C78951   2.609  10.861   6.063  0.2151 -0.2044  0.5072
  599MOL0     C78952   2.666  10.836   6.200 -0.3844  0.5853 -0.0932
  599MOL0     N78953   2.775  10.734   6.194 -0.3711 -0.1149  0.0288
  599MOL0     C78954   2.884  10.746   6.113  0.0729  0.5732  0.1528
  599MOL0     C78955   2.954  10.632   6.139  0.0560 -0.6392 -0.0107
  599MOL0     C78956   3.107  10.611   6.132  0.4065  0.0136 -0.3442
  599MOL0     C78957   3.189  10.637   6.005 -0.5075  0.2923 -0.5167
  599MOL0     C78958   3.179  10.522   5.908 -0.1901  0.0936 -0.2911
  599MOL0     C78959   3.037  10.487   5.870 -0.4045 -0.8186 -0.2892
  599MOL0     O78960   2.969  10.608   5.830 -0.1568  0.3076  0.3952
  599MOL0     C78961   2.848  10.605   5.771  0.0117 -0.1565 -0.9794
  599MOL0     C78962   2.772  10.488   5.765  0.1056 -0.0326  1.0526
  599MOL0     C78963   2.653  10.496   5.696 -0.0463  0.6432  1.0542
  599MOL0     C78964   2.598  10.628   5.666  0.2407 -0.1145 -0.1938
  599MOL0     C78965   2.468  10.645   5.605  0.5896  0.0535 -0.0153
  599MOL0     O78966   2.405  10.765   5.608 -0.2565  0.7305  0.5132
  599MOL0     C78967   2.280  10.777   5.562  0.5321  0.0903  0.2247
  599MOL0     C78968   2.250  10.754   5.419 -0.8429 -0.4352  0.1237
  599MOL0     C78969   2.117  10.770   5.371 -0.3369 -0.2354 -0.0755
  599MOL0     C78970   2.016  10.798   5.467 -0.2861 -0.5571 -0.5703
  599MOL0     O78971   1.879  10.809   5.444  0.1752 -0.2548 -0.2368
  599MOL0     C78972   1.831  10.697   5.367  0.4435  0.4691  0.2832
  599MOL0     C78973   1.721  10.628   5.444  0.5436 -0.2996 -0.4705
  599MOL0     C78974   1.593  10.721   5.449  0.6275 -0.7652 -0.5565
  599MOL0     C78975   1.490  10.659   5.543  0.1679 -0.3151  0.0068
  599MOL0     C78976   1.343  10.714   5.524  0.3346  0.2074 -0.2844
  599MOL0     C78977   1.298  10.661   5.378  0.1009 -0.3011 -0.0709
  599MOL0     C78978   1.143  10.658   5.381  0.2538 -0.8673  0.0161
  599MOL0     C78979   1.094  10.532   5.457 -0.2800 -0.6096  0.5630
  599MOL0    Cl78980   0.909  10.548   5.457  0.5635  0.4006  0.0072
  599MOL0     C78981   2.050  10.821   5.603  1.1576  1.0827 -0.2153
  599MOL0     C78982   2.180  10.812   5.653 -0.1479  0.2272 -1.0605
  599MOL0     O78983   2.420  10.545   5.549 -0.0772 -0.1872  0.1954
  599MOL0     C78984   2.678  10.744   5.685 -0.1369  0.6296  0.6216
  599MOL0     C78985   2.797  10.730   5.745  0.6775 -0.1974 -0.2178
  599MOL0     N78986   2.884  10.547   6.227 -0.6663 -0.5764 -0.7385
  599MOL0     N78987   2.774  10.612   6.253 -0.3035  0.3736 -0.1333
  599MOL0     C78988   1.642  10.804   6.390 -0.3792 -0.6699 -0.9899
  599MOL0     C78989   1.507  10.823   6.389  0.3250  0.2667 -0.3483
  599MOL0     C78990   1.087  10.920   6.356  0.1846  0.4001 -0.6586
  599MOL0     C78991   1.037  11.049   6.368  0.6764 -0.2692  0.4342
  599MOL0     C78992   0.914  11.082   6.418 -0.1463  0.4784  0.4155
  599MOL0     C78993   0.824  10.970   6.434 -0.5001 -0.1560 -0.2225
  599MOL0     O78994   0.694  11.001   6.475 -1.0886 -0.5295  0.0860
  599MOL0     C78995   0.596  10.992   6.370 -0.0873 -0.0010  0.6345
  599MOL0     C78996   0.461  10.983   6.432 -0.0902  0.1617 -0.4899
  599MOL0     C78997   0.334  11.007   6.361 -0.5664 -0.1898  0.3389
  599MOL0     C78998   0.316  10.936   6.223 -1.0024 -0.5104  0.0072
  599MOL0     C78999   0.177  10.969   6.184  0.3997  1.3005  0.4179
  599MOL0     C79000   0.066  10.995   6.142 -0.1155 -0.7229  0.5320
  599MOL0     C79001   0.866  10.838   6.412  0.3201  0.1034  0.9597
  599MOL0     C79002   0.996  10.817   6.367 -0.0459 -0.4768 -0.3465
  599MOL0     H79003   1.515  11.165   6.355 -1.4258 -0.6649 -3.1425
  599MOL0     H79004   1.749  11.117   6.318  0.7233  0.4400  2.0253
  599MOL0     H79005   1.941  11.063   6.298  0.2299 -0.8772 -0.5764
  599MOL0     H79006   1.959  10.933   6.190 -2.7165 -0.6589 -0.7344
  599MOL0     H79007   2.116  10.834   6.377 -0.5277  0.1219  0.0734
  599MOL0     H79008   2.113  11.000   6.449 -3.5325 -2.5751  1.4526
  599MOL0     H79009   2.175  11.097   6.213  0.3560  0.4036 -1.1112
  599MOL0     H79010   2.182  10.934   6.149 -0.2513  0.1548  0.7393
  599MOL0     H79011   2.354  11.027   6.371  2.9705 -1.2535  0.2039
  599MOL0     H79012   2.379  10.867   6.292  3.1251  1.5151 -0.2059
  599MOL0     H79013   2.531  11.073   6.198  0.8246 -1.9974 -3.9113
  599MOL0     H79014   2.382  11.122   6.121 -1.3593 -2.1060 -3.4786
  599MOL0     H79015   2.486  10.987   5.952  0.7843 -4.8873 -2.9396
  599MOL0     H79016   2.388  10.864   6.039 -0.1985  0.4662 -0.1910
  599MOL0     H79017   2.603  10.756   6.031  2.7586 -1.0771  2.5057
  599MOL0     H79018   2.692  10.910   6.011  0.5323 -2.5213 -1.3632
  599MOL0     H79019   2.591  10.805   6.273 -0.5504  1.7941  0.2652
  599MOL0     H79020   2.705  10.932   6.233  1.7778 -0.5418  0.8385
  599MOL0     H79021   2.904  10.828   6.046  2.4826 -2.3895 -3.0909
  599MOL0     H79022   3.138  10.510   6.160 -1.4356 -0.4861  0.0227
  599MOL0     H79023   3.151  10.685   6.199  2.9120 -0.1947 -1.6557
  599MOL0     H79024   3.293  10.656   6.033 -0.2683  1.2417 -1.9156
  599MOL0     H79025   3.160  10.733   5.960  3.9687  1.1492 -2.0663
  599MOL0     H79026   3.231  10.546   5.815  0.2181 -1.2564 -0.4384
  599MOL0     H79027   3.230  10.439   5.958 -1.4142 -0.6968 -0.3066
  599MOL0     H79028   2.992  10.446   5.961  0.7402  0.6925  1.0256
  599MOL0     H79029   3.028  10.407   5.797 -4.1091  0.8245 -1.8793
  599MOL0     H79030   2.812  10.396   5.808 -2.6222 -1.7820  0.1428
  599MOL0     H79031   2.598  10.405   5.678 -0.4774  0.8063  1.5237
  599MOL0     H79032   2.331  10.729   5.350 -1.6761 -2.4122 -0.2101
  599MOL0     H79033   2.095  10.759   5.265 -0.1337  0.6992 -0.2216
  599MOL0     H79034   1.906  10.619   5.348  1.8470  1.8206  0.0986
  599MOL0     H79035   1.788  10.741   5.276 -3.4642 -0.6166  1.4179
  599MOL0     H79036   1.750  10.612   5.548  0.1368 -1.3627 -0.5042
  599MOL0     H79037   1.702  10.530   5.399  1.8921 -1.2006  0.8300
  599MOL0     H79038   1.555  10.727   5.347 -0.9394  0.2628  0.0326
  599MOL0     H79039   1.621  10.823   5.478  1.9930 -1.2497 -0.1088
  599MOL0     H79040   1.493  10.550   5.530  0.7010 -0.4337  0.9511
  599MOL0     H79041   1.528  10.683   5.643 -2.5612 -4.2160  2.2776
  599MOL0     H79042   1.342  10.823   5.517  1.0615  0.1359 -1.8017
  599MOL0     H79043   1.283  10.661   5.599  1.3056 -1.2985 -0.5355
  599MOL0     H79044   1.338  10.560   5.369 -0.9500 -0.7071 -0.3561
  599MOL0     H79045   1.340  10.717   5.295 -1.8224 -2.7639 -2.9197
  599MOL0     H79046   1.098  10.749   5.422  1.2032  0.7469 -2.2788
  599MOL0     H79047   1.101  10.645   5.281  0.9362 -1.0497 -0.2489
  599MOL0     H79048   1.126  10.533   5.561  1.6005 -0.4841  0.0172
  599MOL0     H79049   1.130  10.440   5.411  1.9691  0.2159  0.5678
  599MOL0     H79050   1.972  10.839   5.677  0.1012 -1.9644 -0.4270
  599MOL0     H79051   2.199  10.829   5.758 -1.8395  1.9004 -0.9641
  599MOL0     H79052   2.636  10.838   5.650 -1.4778 -0.9136 -2.2782
  599MOL0     H79053   2.854  10.820   5.762 -1.5085  1.2061  0.1581
  599MOL0     H79054   1.673  10.701   6.406  0.4731 -0.4797 -1.3892
  599MOL0     H79055   1.434  10.749   6.420  0.5657  0.3963  0.5591
  599MOL0     H79056   1.101  11.137   6.354  2.3706 -0.5588  4.7707
  599MOL0     H79057   0.883  11.186   6.431  1.6943  1.0630  0.4331
  599MOL0     H79058   0.611  10.901   6.310 -2.1112  0.4220 -0.5869
  599MOL0     H79059   0.619  11.074   6.302 -0.1709 -2.0501 -2.0406
  599MOL0     H79060   0.456  10.883   6.474 -0.4370  0.5966  0.5459
  599MOL0     H79061   0.455  11.046   6.521  0.4362 -1.1362  0.4881
  599MOL0     H79062   0.317  11.114   6.343 -1.4044 -0.0058  2.0566
  599MOL0     H79063   0.252  10.969   6.423 -0.4109 -0.4288  0.3977
  599MOL0     H79064   0.383  10.986   6.153 -0.7964 -0.8661 -0.0517
  599MOL0     H79065   0.335  10.829   6.222 -0.0819 -0.4046  1.7932
  599MOL0     H79066  -0.012  11.036   6.081  0.2251  0.1706  0.6830
  599MOL0     H79067   0.796  10.758   6.427 -0.2865  0.1925 -1.1966
  599MOL0     H79068   1.025  10.718   6.335  0.8103  0.8094 -4.1155
  600MOL0     O79069   7.830   2.486  10.585  0.1423 -0.3909  0.4189
  600MOL0     C79070   7.858   2.367  10.590 -0.2496  1.1371 -0.6707
  600MOL0     O79071   7.774   2.270  10.623  0.2767 -0.6462 -0.3422
  600MOL0     C79072   7.637   2.290  10.635 -1.0073  0.1387  0.2083
  600MOL0     C79073   7.582   2.238  10.747 -0.4750  0.9579  0.1061
  600MOL0     C79074   7.444   2.237  10.768  0.1149 -0.1816  0.0130
  600MOL0     C79075   7.360   2.322  10.687  0.1882  0.0335 -0.5187
  600MOL0     O79076   7.226   2.336  10.695 -0.6999 -0.1493  0.1190
  600MOL0     C79077   7.158   2.282  10.815  0.0725  0.8275 -1.0870
  600MOL0     C79078   7.011   2.319  10.822  0.2030 -0.1605  0.1018
  600MOL0     C79079   6.942   2.263  10.690  1.1585  0.1555  0.0592
  600MOL0     C79080   6.788   2.261  10.711  0.0918  0.3972 -0.3421
  600MOL0     C79081   6.739   2.157  10.604 -0.0601 -0.2795 -0.2557
  600MOL0     C79082   6.604   2.107  10.652  1.1017  0.1749 -0.4801
  600MOL0     C79083   6.561   1.991  10.559 -0.7426  0.8281 -0.8212
  600MOL0     C79084   6.532   2.033  10.411 -1.0480  0.0085 -1.0538
  600MOL0     N79085   6.428   2.136  10.370 -0.5945  0.0599  0.4882
  600MOL0     C79086   6.440   2.276  10.389 -0.9865  0.3673  0.0228
  600MOL0     C79087   6.336   2.340  10.329 -0.4917 -0.3345 -0.3249
  600MOL0     C79088   6.309   2.494  10.302  0.2391 -0.1360  0.8824
  600MOL0     C79089   6.182   2.563  10.363  0.0370 -0.0276 -0.1446
  600MOL0     C79090   6.048   2.508  10.322 -0.2242 -0.6179 -0.2667
  600MOL0     C79091   5.948   2.585  10.381 -0.0257  0.6376  0.0754
  600MOL0     O79092   5.931   2.713  10.324  0.2754  0.7200  1.0426
  600MOL0     C79093   5.826   2.794  10.346  0.6117 -0.1960  0.6106
  600MOL0     C79094   5.733   2.779  10.450 -0.9210 -0.0154  0.5147
  600MOL0     C79095   5.620   2.862  10.462 -1.4481 -0.4430  0.7148
  600MOL0     C79096   5.601   2.968  10.377  0.2456 -0.2448  0.4266
  600MOL0     C79097   5.487   3.061  10.387 -0.2859  0.1432  0.3447
  600MOL0     O79098   5.414   3.051  10.502 -0.7217 -0.2420 -0.5497
  600MOL0     C79099   5.304   3.125  10.532 -0.5350  0.4572  0.2900
  600MOL0     C79100   5.221   3.066  10.621 -0.4764 -0.4126 -0.8779
  600MOL0     C79101   5.096   3.126  10.649  0.5692 -0.2665  0.9960
  600MOL0     C79102   5.047   3.238  10.587  0.4447  0.6960  0.1609
  600MOL0     O79103   4.918   3.279  10.625 -0.5938 -0.2533 -0.7152
  600MOL0     C79104   4.880   3.415  10.587  0.7904 -0.3874 -0.3008
  600MOL0     C79105   4.731   3.420  10.621  0.3460 -0.6045  0.1326
  600MOL0     C79106   4.686   3.560  10.591  0.1450  0.7927  0.3330
  600MOL0     C79107   4.537   3.574  10.576 -0.5069  0.3318  0.0928
  600MOL0     C79108   4.485   3.716  10.593  0.3873 -0.1124 -0.3495
  600MOL0     C79109   4.331   3.725  10.583 -0.1633  0.4581 -0.0060
  600MOL0     C79110   4.256   3.703  10.444  0.1243 -0.1979  0.0325
  600MOL0     C79111   4.114   3.749  10.470  0.5378  0.2508 -0.8177
  600MOL0    Cl79112   3.992   3.694  10.354  0.2592  0.0501 -0.2919
  600MOL0     C79113   5.137   3.302  10.493  0.8004  0.1307  0.7865
  600MOL0     C79114   5.256   3.238  10.463  0.4086 -0.6594  0.6335
  600MOL0     O79115   5.478   3.139  10.290 -0.4439 -0.1824  0.0717
  600MOL0     C79116   5.691   2.980  10.268  0.4206  0.3355 -0.7960
  600MOL0     C79117   5.801   2.897  10.254  1.0995  0.1074 -0.3092
  600MOL0     N79118   6.261   2.229  10.276 -0.0961  0.4575  0.6405
  600MOL0     N79119   6.313   2.116  10.304  0.1803  0.1001  0.3930
  600MOL0     C79120   7.423   2.383  10.578  0.7179 -0.3973  0.4936
  600MOL0     C79121   7.564   2.362  10.551  0.9818 -0.4659  0.7009
  600MOL0     C79122   7.995   2.323  10.575 -0.7174 -0.7361 -0.2138
  600MOL0     C79123   8.099   2.423  10.560  0.4182  0.2006  0.6492
  600MOL0     C79124   8.231   2.386  10.548  0.8211  0.2950  0.4928
  600MOL0     C79125   8.267   2.251  10.562  0.0651  0.2021  0.2492
  600MOL0     O79126   8.386   2.195  10.571 -0.1063 -0.3072 -0.0715
  600MOL0     C79127   8.509   2.274  10.552  0.5320  0.1535 -1.2093
  600MOL0     C79128   8.636   2.190  10.569  1.0192  0.0243  0.7727
  600MOL0     C79129   8.745   2.267  10.653 -0.4150 -0.7716  0.4666
  600MOL0     C79130   8.880   2.186  10.683  0.1327  1.1679 -0.0425
  600MOL0     C79131   8.999   2.276  10.671 -0.2396  0.6476  0.9864
  600MOL0     C79132   9.087   2.359  10.674  0.6998 -0.1177 -0.5954
  600MOL0     C79133   8.165   2.158  10.566 -1.2173 -0.2743  0.3380
  600MOL0     C79134   8.031   2.187  10.562 -0.3077 -0.7230 -1.4904
  600MOL0     H79135   7.658   2.196  10.812 -1.9027  1.3812  2.1373
  600MOL0     H79136   7.407   2.175  10.849 -0.7514 -2.5934 -2.1023
  600MOL0     H79137   7.202   2.313  10.911  0.4506  2.9623 -1.9131
  600MOL0     H79138   7.161   2.172  10.818  2.7201  0.8459 -0.2362
  600MOL0     H79139   6.980   2.423  10.834 -1.0162 -0.4131 -0.6381
  600MOL0     H79140   6.962   2.263  10.902  0.2059 -0.8092 -0.3434
  600MOL0     H79141   6.986   2.168  10.658  2.2187  1.0353 -1.2120
  600MOL0     H79142   6.971   2.333  10.611  0.5515  0.2451 -0.0878
  600MOL0     H79143   6.763   2.244  10.816 -2.4326 -0.1446 -0.9681
  600MOL0     H79144   6.737   2.354  10.683 -1.4132 -0.6961 -1.4291
  600MOL0     H79145   6.812   2.076  10.597  1.3093  0.8989 -0.0868
  600MOL0     H79146   6.729   2.196  10.503 -1.2968 -2.4022 -1.0383
  600MOL0     H79147   6.518   2.174  10.643 -0.7143 -1.8822  0.8366
  600MOL0     H79148   6.607   2.073  10.756 -1.7648  1.2943  0.0701
  600MOL0     H79149   6.644   1.920  10.552 -0.2880  1.0524  1.4715
  600MOL0     H79150   6.466   1.958  10.603  1.6158 -1.5539  3.0562
  600MOL0     H79151   6.487   1.944  10.367  0.4370 -0.8204 -0.9705
  600MOL0     H79152   6.626   2.055  10.360 -1.4965  0.5469 -1.6720
  600MOL0     H79153   6.527   2.320  10.436 -0.7985  0.8029 -0.7071
  600MOL0     H79154   6.292   2.488  10.194  1.3956 -0.6490  0.7169
  600MOL0     H79155   6.397   2.559  10.314  0.0823  0.2508  0.0018
  600MOL0     H79156   6.179   2.668  10.333 -0.7522 -0.0507 -0.1705
  600MOL0     H79157   6.195   2.561  10.472 -3.2546 -0.9858  0.3421
  600MOL0     H79158   6.029   2.516  10.214  2.0111 -1.4757 -0.7756
  600MOL0     H79159   6.050   2.401  10.345  1.0297 -0.0256  2.8239
  600MOL0     H79160   5.963   2.576  10.489 -0.7850 -1.5281  0.0406
  600MOL0     H79161   5.851   2.543  10.351  0.4881 -0.6735  0.1914
  600MOL0     H79162   5.732   2.694  10.517  0.6504 -0.7406 -0.3297
  600MOL0     H79163   5.545   2.844  10.539 -2.8146 -0.4470 -0.5778
  600MOL0     H79164   5.244   2.979  10.681  1.4493 -0.3156 -1.4274
  600MOL0     H79165   5.035   3.083  10.728 -0.0683  0.5490  0.9525
  600MOL0     H79166   4.883   3.415  10.477  0.9066 -2.8526 -0.3428
  600MOL0     H79167   4.932   3.493  10.644  0.1337  0.1942 -0.4757
  600MOL0     H79168   4.718   3.400  10.727  1.2497 -0.2628  0.3163
  600MOL0     H79169   4.671   3.346  10.567 -2.6358 -0.1967  2.5891
  600MOL0     H79170   4.741   3.587  10.500  0.7988 -1.7637 -0.1122
  600MOL0     H79171   4.728   3.634  10.661  2.3120  0.1802 -0.2369
  600MOL0     H79172   4.507   3.540  10.476  0.2985  1.7679 -0.6609
  600MOL0     H79173   4.508   3.517  10.665 -0.5181  1.5559  0.8939
  600MOL0     H79174   4.525   3.781  10.514  1.3926 -1.0544 -0.6536
  600MOL0     H79175   4.516   3.765  10.686 -0.9024 -0.0328  0.0492
  600MOL0     H79176   4.301   3.826  10.613 -2.0542 -0.7921  2.7213
  600MOL0     H79177   4.288   3.658  10.659 -0.1144 -0.4338 -0.7478
  600MOL0     H79178   4.306   3.770  10.374 -1.0543 -0.8975 -1.5418
  600MOL0     H79179   4.267   3.597  10.419 -0.8200 -0.4488  0.6354
  600MOL0     H79180   4.109   3.856  10.490  1.3477  0.1189  0.1246
  600MOL0     H79181   4.081   3.718  10.570 -0.4473 -1.2279 -1.5533
  600MOL0     H79182   5.101   3.387  10.435 -1.6555 -1.9816 -1.0318
  600MOL0     H79183   5.304   3.284  10.377  1.0787 -1.4991  0.5450
  600MOL0     H79184   5.675   3.067  10.205 -1.8311  0.9587  0.5111
  600MOL0     H79185   5.870   2.917  10.172 -0.2930  2.2860 -1.0290
  600MOL0     H79186   7.371   2.444  10.504  1.0877  0.5346  0.9851
  600MOL0     H79187   7.617   2.405  10.466  0.4948 -0.4101  0.4241
  600MOL0     H79188   8.078   2.530  10.564 -0.0747  0.4147 -3.4314
  600MOL0     H79189   8.317   2.453  10.541  1.6904 -0.7973  0.3152
  600MOL0     H79190   8.518   2.349  10.630 -0.1194  2.7169 -3.4540
  600MOL0     H79191   8.498   2.322  10.454 -0.5019  1.6089 -0.4164
  600MOL0     H79192   8.601   2.098  10.616  0.9326 -0.3623 -0.0378
  600MOL0     H79193   8.679   2.183  10.468  0.7396  1.8994  0.4720
  600MOL0     H79194   8.705   2.293  10.751 -1.9293  0.9481 -0.5246
  600MOL0     H79195   8.768   2.364  10.606  3.2148  0.2364  3.8204
  600MOL0     H79196   8.863   2.146  10.783 -0.7860 -0.0351 -0.6650
  600MOL0     H79197   8.900   2.106  10.611  2.9556  0.8767  0.9420
  600MOL0     H79198   9.175   2.420  10.666  2.0108 -1.9795 -1.0237
  600MOL0     H79199   8.178   2.051  10.558 -1.9271 -0.3493  0.0638
  600MOL0     H79200   7.954   2.110  10.562  1.2332 -2.3167 -1.1376
  601MOL0     O79201   0.728   9.889  10.431  0.3051  0.2456 -0.1965
  601MOL0     C79202   0.727   9.844  10.546 -0.2712 -0.5021 -0.5452
  601MOL0     O79203   0.619   9.843  10.639  0.0492  0.6315  0.4328
  601MOL0     C79204   0.493   9.860  10.588  0.8654 -0.5542  0.1573
  601MOL0     C79205   0.394   9.914  10.671 -0.1686 -0.2891 -1.0785
  601MOL0     C79206   0.256   9.924  10.646 -0.1283 -0.3516 -0.3437
  601MOL0     C79207   0.214   9.893  10.519 -0.3514  0.7767 -0.0712
  601MOL0     O79208   0.087   9.895  10.468 -0.0202 -0.3329 -0.4072
  601MOL0     C79209  -0.009   9.970  10.547  0.1261  0.0686  0.5731
  601MOL0     C79210  -0.131   9.984  10.449  0.4220 -0.3597  0.1872
  601MOL0     C79211  -0.235  10.066  10.535 -0.6538 -0.1492  0.6045
  601MOL0     C79212  -0.358  10.083  10.445  0.6269  0.5265 -0.2354
  601MOL0     C79213  -0.467  10.144  10.526 -0.3970  0.1440 -0.9888
  601MOL0     C79214  -0.578  10.208  10.441  0.1792 -0.1983 -0.5816
  601MOL0     C79215  -0.689  10.248  10.540  0.4316  0.7016 -0.7425
  601MOL0     C79216  -0.810  10.316  10.481 -0.1053  0.1962  0.0319
  601MOL0     N79217  -0.786  10.458  10.457  0.3450  1.0901  0.2989
  601MOL0     C79218  -0.796  10.510  10.339 -0.9880 -0.6738  1.1337
  601MOL0     C79219  -0.786  10.637  10.352  0.4770  0.2174  0.9588
  601MOL0     C79220  -0.795  10.730  10.236 -0.3434 -0.0779  0.6606
  601MOL0     C79221  -0.939  10.779  10.217 -0.4268  0.1426  0.7167
  601MOL0     C79222  -0.980  10.868  10.325  0.3276  0.4567 -0.4154
  601MOL0     C79223  -1.115  10.935  10.286 -0.1578  0.0536 -1.0657
  601MOL0     O79224  -1.215  10.835  10.274 -0.5350 -0.8801 -1.1617
  601MOL0     C79225  -1.323  10.858  10.192 -0.6370  0.4189 -0.3998
  601MOL0     C79226  -1.411  10.753  10.172 -0.1730 -0.4848  0.1442
  601MOL0     C79227  -1.512  10.765  10.084 -0.2818 -0.7528 -0.3939
  601MOL0     C79228  -1.536  10.882  10.015 -1.2054  0.6017  0.1888
  601MOL0     C79229  -1.649  10.888   9.923  0.1162  0.7428 -1.0037
  601MOL0     O79230  -1.729  10.775   9.913 -1.0878  0.7995  0.3318
  601MOL0     C79231  -1.771  10.732   9.790 -0.0628 -0.5065  0.2933
  601MOL0     C79232  -1.748  10.792   9.664 -0.2322  0.2908  0.8465
  601MOL0     C79233  -1.793  10.724   9.551  0.4327 -0.2794  0.3181
  601MOL0     C79234  -1.857  10.595   9.558 -0.6839 -1.1183  0.5713
  601MOL0     O79235  -1.901  10.513   9.457  0.9495  0.0367  0.1524
  601MOL0     C79236  -1.843  10.529   9.322  0.8363  0.2339 -0.3351
  601MOL0     C79237  -1.720  10.438   9.311 -0.6214 -0.3337  0.0546
  601MOL0     C79238  -1.578  10.508   9.305  0.7671  0.1402 -1.1548
  601MOL0     C79239  -1.466  10.397   9.323 -0.0406 -0.6193 -0.1121
  601MOL0     C79240  -1.329  10.447   9.282  1.4316 -0.0255  0.4554
  601MOL0     C79241  -1.213  10.373   9.342  0.0137  0.4726  0.1926
  601MOL0     C79242  -1.171  10.442   9.476  0.7880 -0.7854 -0.0442
  601MOL0     C79243  -1.020  10.432   9.499 -0.2904 -0.9377  0.1189
  601MOL0    Cl79244  -0.932  10.504   9.369  0.0673 -0.1020  0.0006
  601MOL0     C79245  -1.882  10.548   9.678  0.1718 -0.4229 -0.0043
  601MOL0     C79246  -1.841  10.612   9.799 -0.1812  0.0292  0.7867
  601MOL0     O79247  -1.674  10.994   9.866  0.5940  0.6786 -0.6359
  601MOL0     C79248  -1.462  10.991  10.043  0.1518  0.5660  0.4092
  601MOL0     C79249  -1.353  10.979  10.129  0.1249 -1.1299  0.4563
  601MOL0     N79250  -0.762  10.665  10.490  0.4393  1.2689  1.9595
  601MOL0     N79251  -0.758  10.553  10.544  0.1981  0.9571  0.3778
  601MOL0     C79252   0.313   9.842  10.433  0.5356  1.2220 -0.1962
  601MOL0     C79253   0.445   9.809  10.468  0.2243  0.4817 -0.3713
  601MOL0     C79254   0.856   9.811  10.587 -0.1367  0.2758 -0.0685
  601MOL0     C79255   0.916   9.858  10.707  0.3197  0.9837  0.7194
  601MOL0     C79256   1.047   9.820  10.726 -0.1184  0.0719  0.2605
  601MOL0     C79257   1.115   9.725  10.639 -0.7696  0.1471 -0.9653
  601MOL0     O79258   1.239   9.682  10.674  0.0930 -1.0473 -0.4345
  601MOL0     C79259   1.265   9.544  10.682 -0.3950 -0.8562 -0.0799
  601MOL0     C79260   1.173   9.464  10.770  0.5138 -0.4375 -0.1888
  601MOL0     C79261   1.120   9.536  10.899 -0.2281 -0.0015 -0.0267
  601MOL0     C79262   1.059   9.439  11.007  0.6998  0.1585 -1.0721
  601MOL0     C79263   0.979   9.517  11.104 -0.6825 -0.1891 -0.4195
  601MOL0     C79264   0.909   9.577  11.178 -0.1707 -0.0679  0.0231
  601MOL0     C79265   1.051   9.679  10.530 -0.4500  0.5415  0.3992
  601MOL0     C79266   0.928   9.724  10.499  1.2571  0.2933 -0.5745
  601MOL0     H79267   0.432   9.937  10.771 -0.1168 -0.5681 -1.0328
  601MOL0     H79268   0.180   9.968  10.710 -3.0277 -4.3556 -0.6592
  601MOL0     H79269   0.035  10.064  10.583 -2.2347  0.6175  2.2811
  601MOL0     H79270  -0.042   9.922  10.640 -0.0965  1.4712  1.2477
  601MOL0     H79271  -0.162   9.881  10.428  2.0983 -0.7356 -0.6952
  601MOL0     H79272  -0.106  10.020  10.348 -0.5151 -3.0962 -1.1073
  601MOL0     H79273  -0.183  10.160  10.555 -0.1519 -0.1225 -0.7005
  601MOL0     H79274  -0.259  10.010  10.625 -0.8753  0.6055  1.0145
  601MOL0     H79275  -0.343  10.141  10.354 -2.1339  0.8201 -0.5953
  601MOL0     H79276  -0.394   9.981  10.429 -4.5000  1.3529  3.5356
  601MOL0     H79277  -0.439  10.210  10.609  2.2855  0.3311 -1.9383
  601MOL0     H79278  -0.506  10.055  10.576 -1.7816  2.0485  1.6021
  601MOL0     H79279  -0.621  10.140  10.367  2.2193 -0.9513 -1.1444
  601MOL0     H79280  -0.547  10.298  10.387  3.2872 -0.9390 -0.2373
  601MOL0     H79281  -0.723  10.159  10.594  0.1323  3.2401  3.7472
  601MOL0     H79282  -0.642  10.314  10.613 -0.0846 -0.1514  0.3990
  601MOL0     H79283  -0.884  10.313  10.561 -0.2086  3.0003  0.1384
  601MOL0     H79284  -0.844  10.264  10.391 -0.9103  0.6349  0.0760
  601MOL0     H79285  -0.803  10.455  10.246 -0.8113  1.9987 -0.5835
  601MOL0     H79286  -0.752  10.683  10.146  1.6809  2.2108  0.3232
  601MOL0     H79287  -0.733  10.819  10.246  0.8786 -0.3614 -2.8232
  601MOL0     H79288  -1.010  10.696  10.223  1.0488 -1.7029 -3.4651
  601MOL0     H79289  -0.955  10.824  10.118 -5.3702 -0.1024  1.1651
  601MOL0     H79290  -0.991  10.814  10.420  1.0935  0.3499 -0.3863
  601MOL0     H79291  -0.902  10.943  10.339  0.3253  0.0396  2.3705
  601MOL0     H79292  -1.109  10.988  10.191 -0.4168  0.6954 -0.7327
  601MOL0     H79293  -1.149  11.003  10.365  0.1462  0.9499 -1.6825
  601MOL0     H79294  -1.392  10.667  10.236 -0.6538  0.9840  2.3551
  601MOL0     H79295  -1.567  10.674  10.062 -0.2023 -1.6076  2.5295
  601MOL0     H79296  -1.695  10.885   9.645 -0.9886  0.5335 -0.1606
  601MOL0     H79297  -1.773  10.769   9.454 -1.6378 -1.1317 -0.5649
  601MOL0     H79298  -1.823  10.633   9.294 -1.7631  0.7424 -0.5814
  601MOL0     H79299  -1.909  10.489   9.243  2.6405 -0.3204 -1.6227
  601MOL0     H79300  -1.741  10.404   9.209 -1.1095  1.9479 -0.6744
  601MOL0     H79301  -1.730  10.357   9.383  0.5526  0.6237  1.3309
  601MOL0     H79302  -1.562  10.587   9.379 -0.0246  0.6847 -1.5585
  601MOL0     H79303  -1.556  10.560   9.212  0.3831  1.7692 -0.3616
  601MOL0     H79304  -1.455  10.376   9.429  4.6141 -0.8061 -0.4533
  601MOL0     H79305  -1.480  10.308   9.261 -0.6745 -0.4374 -0.2431
  601MOL0     H79306  -1.324  10.555   9.303 -2.3016 -0.3580  4.4131
  601MOL0     H79307  -1.325  10.419   9.176 -0.6514 -0.4497  0.4451
  601MOL0     H79308  -1.125  10.359   9.279  0.5896  0.1304  1.0614
  601MOL0     H79309  -1.236  10.270   9.372 -1.0923  1.0620  1.4984
  601MOL0     H79310  -1.197  10.548   9.484 -1.0106 -1.3279  2.0953
  601MOL0     H79311  -1.224  10.399   9.561 -0.1098  0.3651 -0.0015
  601MOL0     H79312  -1.000  10.326   9.520  3.5601  0.1236  2.9950
  601MOL0     H79313  -0.990  10.483   9.591 -2.1569 -2.5813  1.7241
  601MOL0     H79314  -1.933  10.454   9.693  0.7753 -0.3154  3.5923
  601MOL0     H79315  -1.859  10.552   9.888  5.6088 -1.3126  1.4992
  601MOL0     H79316  -1.480  11.085   9.992 -1.4063 -1.3518 -2.8783
  601MOL0     H79317  -1.298  11.069  10.154  0.9545 -2.3614  3.4736
  601MOL0     H79318   0.289   9.811  10.331  4.6876 -0.2251 -0.9467
  601MOL0     H79319   0.509   9.748  10.405 -0.8066 -1.9107  0.7776
  601MOL0     H79320   0.874   9.929  10.778 -1.8383  1.9490 -1.4010
  601MOL0     H79321   1.107   9.852  10.810 -1.5382 -3.3269  2.8392
  601MOL0     H79322   1.368   9.542  10.719  0.6795  1.3528 -2.5690
  601MOL0     H79323   1.270   9.505  10.580 -2.2723 -1.3072 -0.0364
  601MOL0     H79324   1.083   9.429  10.717  0.7017 -0.0246 -0.7898
  601MOL0     H79325   1.230   9.377  10.803  2.5705  0.4797 -1.1589
  601MOL0     H79326   1.044   9.603  10.858  0.5675  0.1384 -1.3318
  601MOL0     H79327   1.196   9.600  10.945 -0.8099 -1.0095  2.4898
  601MOL0     H79328   0.985   9.384  10.947 -0.9656  2.8657 -1.6799
  601MOL0     H79329   1.131   9.376  11.059 -0.5320 -1.1131 -0.8540
  601MOL0     H79330   0.847   9.622  11.252 -1.5853 -1.8818  0.0095
  601MOL0     H79331   1.101   9.612  10.461  0.6499  1.5176  0.2143
  601MOL0     H79332   0.879   9.691  10.408 -1.7927  0.0260  1.0291
  602MOL0     O79333  10.850   1.435   2.180  0.1599  0.7676  0.1982
  602MOL0     C79334  10.889   1.318   2.182  0.0564 -0.3018  0.1392
  602MOL0     O79335  10.842   1.217   2.108  0.2875  0.3112  0.7596
  602MOL0     C79336  10.742   1.234   2.016 -0.7978 -0.1284 -0.2890
  602MOL0     C79337  10.642   1.136   1.995 -0.2827  0.3360 -0.7120
  602MOL0     C79338  10.537   1.169   1.912  0.0135 -0.3921 -0.4174
  602MOL0     C79339  10.541   1.277   1.828 -0.3590 -1.0185  0.3502
  602MOL0     O79340  10.442   1.322   1.741  0.1526  0.2025 -0.8759
  602MOL0     C79341  10.308   1.260   1.755 -1.2824  0.0131  0.3885
  602MOL0     C79342  10.217   1.312   1.650 -0.6232  1.3213  0.4960
  602MOL0     C79343  10.186   1.456   1.671  0.5840  0.3256 -0.1184
  602MOL0     C79344  10.094   1.509   1.550  0.2740 -1.0574  0.2087
  602MOL0     C79345  10.054   1.658   1.577 -0.3635  0.2844  0.2746
  602MOL0     C79346   9.974   1.715   1.464 -0.4646  0.0670  0.2348
  602MOL0     C79347   9.902   1.842   1.511 -0.1154 -0.2317  0.1110
  602MOL0     C79348   9.799   1.885   1.407 -0.1128 -0.4554 -0.0434
  602MOL0     N79349   9.864   1.953   1.293 -0.5278 -0.3813  0.2563
  602MOL0     C79350   9.885   2.082   1.276  0.4004  0.4511  0.0869
  602MOL0     C79351   9.914   2.105   1.147 -0.6046  0.2960  0.8056
  602MOL0     C79352   9.931   2.234   1.083 -0.2579  1.3736  0.0268
  602MOL0     C79353   9.902   2.219   0.933 -1.0188 -0.4177 -0.4043
  602MOL0     C79354   9.881   2.355   0.871  0.3415  0.1830  0.7711
  602MOL0     C79355  10.003   2.444   0.863 -0.3296 -0.1895  0.0186
  602MOL0     O79356  10.000   2.530   0.751  0.2683  0.1216  0.5775
  602MOL0     C79357   9.894   2.615   0.757 -0.2906 -0.2495 -0.4260
  602MOL0     C79358   9.810   2.624   0.648 -0.3980 -0.2102  0.3631
  602MOL0     C79359   9.689   2.695   0.645 -1.1318  1.1019  0.3619
  602MOL0     C79360   9.669   2.781   0.747  0.6479 -0.3121 -0.1655
  602MOL0     C79361   9.540   2.867   0.752 -0.3051  1.0229  0.4924
  602MOL0     O79362   9.520   2.946   0.864  0.0351  0.2571 -0.0523
  602MOL0     C79363   9.398   3.015   0.874  0.3560  0.2605 -0.9760
  602MOL0     C79364   9.271   2.968   0.830 -0.3434  0.6251 -0.5504
  602MOL0     C79365   9.154   3.041   0.865 -0.7001  0.5933 -0.1659
  602MOL0     C79366   9.162   3.164   0.931 -0.3402 -0.4787 -0.3913
  602MOL0     O79367   9.039   3.231   0.937 -0.3110  0.6439 -0.6987
  602MOL0     C79368   9.046   3.372   0.934  0.7486 -0.7409  0.0410
  602MOL0     C79369   8.910   3.444   0.950  0.4223 -0.0979 -0.2811
  602MOL0     C79370   8.834   3.439   0.821  1.1614  0.0257 -0.1902
  602MOL0     C79371   8.720   3.529   0.813 -0.1659  0.0517 -0.4640
  602MOL0     C79372   8.618   3.489   0.702 -0.4983 -0.6125 -0.0611
  602MOL0     C79373   8.469   3.489   0.741  0.1901  0.3721 -0.5103
  602MOL0     C79374   8.375   3.485   0.618 -0.6155  0.5950  0.1935
  602MOL0     C79375   8.228   3.522   0.658  1.0288  0.1032  0.1057
  602MOL0    Cl79376   8.118   3.528   0.508  0.0737 -0.4263 -0.0603
  602MOL0     C79377   9.290   3.219   0.966 -0.4838 -0.4064 -0.0518
  602MOL0     C79378   9.405   3.135   0.938  0.0604  0.2753 -0.4534
  602MOL0     O79379   9.468   2.866   0.649  0.6478  0.6968  0.1882
  602MOL0     C79380   9.757   2.787   0.862 -0.3909 -0.1022 -0.4737
  602MOL0     C79381   9.874   2.700   0.871  0.2601 -0.3735  0.2092
  602MOL0     N79382   9.900   1.984   1.082  0.4677  0.5961 -0.0179
  602MOL0     N79383   9.876   1.892   1.170  0.8481  0.6434  0.0798
  602MOL0     C79384  10.644   1.377   1.838 -0.3305  0.0228  0.9045
  602MOL0     C79385  10.748   1.353   1.929  0.1311 -0.2475  1.0752
  602MOL0     C79386  10.987   1.297   2.294 -0.3181  0.4312  0.1336
  602MOL0     C79387  11.036   1.165   2.312 -0.8174  0.3885  0.6077
  602MOL0     C79388  11.129   1.138   2.414 -1.0570  0.3102 -0.3309
  602MOL0     C79389  11.173   1.231   2.508  0.4307  0.4761  0.1822
  602MOL0     O79390  11.267   1.200   2.604  0.3736 -1.3984 -0.0205
  602MOL0     C79391  11.391   1.154   2.562  0.3459 -0.4207 -0.5730
  602MOL0     C79392  11.488   1.151   2.685  0.6575  0.1906 -0.3709
  602MOL0     C79393  11.502   1.295   2.737  0.1461 -0.9149  0.1288
  602MOL0     C79394  11.594   1.307   2.857  0.3449 -0.0309 -0.2695
  602MOL0     C79395  11.732   1.264   2.824  0.9300 -0.0213 -0.4688
  602MOL0     C79396  11.848   1.232   2.802  0.1158  0.5962 -0.0313
  602MOL0     C79397  11.115   1.363   2.491  0.3858  0.3559  0.0328
  602MOL0     C79398  11.022   1.397   2.391 -0.1028  0.7408 -0.6686
  602MOL0     H79399  10.652   1.043   2.051  2.7234 -0.0398 -1.6833
  602MOL0     H79400  10.451   1.106   1.894  0.0201 -1.0070  1.4601
  602MOL0     H79401  10.260   1.276   1.852 -1.9874  2.0370 -0.2474
  602MOL0     H79402  10.313   1.151   1.742  1.3218 -0.2474  2.5702
  602MOL0     H79403  10.123   1.260   1.672 -1.5695  1.8949 -1.8501
  602MOL0     H79404  10.249   1.294   1.547  1.1409  2.8612  0.7342
  602MOL0     H79405  10.269   1.526   1.684 -1.0630  2.0576  1.7170
  602MOL0     H79406  10.129   1.475   1.763 -1.3847  3.1452 -1.7637
  602MOL0     H79407  10.161   1.491   1.466 -0.6506 -0.4861 -0.6842
  602MOL0     H79408  10.000   1.453   1.543 -1.1675  1.1843  0.7190
  602MOL0     H79409  10.137   1.724   1.604 -1.2476  2.3180 -1.6844
  602MOL0     H79410   9.983   1.662   1.660 -4.3920 -0.7414 -2.7924
  602MOL0     H79411   9.898   1.642   1.432 -0.8328  0.0833  1.0578
  602MOL0     H79412  10.042   1.734   1.380 -1.6281 -0.4517 -0.8644
  602MOL0     H79413   9.847   1.821   1.603 -1.3293  1.9503 -0.0631
  602MOL0     H79414   9.968   1.926   1.530 -2.9324  2.2490 -0.3403
  602MOL0     H79415   9.728   1.955   1.453 -0.5518  0.0141 -1.3958
  602MOL0     H79416   9.745   1.802   1.361 -1.5694  2.0949 -3.3678
  602MOL0     H79417   9.878   2.154   1.357  1.4615 -2.7004  3.2708
  602MOL0     H79418  10.038   2.255   1.092 -0.0389  0.2142  0.3133
  602MOL0     H79419   9.869   2.314   1.125 -1.8310  2.4741 -3.9229
  602MOL0     H79420   9.809   2.163   0.919 -0.3015 -2.1929  1.4085
  602MOL0     H79421   9.981   2.153   0.895  1.0349  0.4597  2.0435
  602MOL0     H79422   9.850   2.335   0.768  1.1745  2.0771  0.1075
  602MOL0     H79423   9.802   2.408   0.924 -0.2189  1.8372 -1.5764
  602MOL0     H79424  10.091   2.381   0.850 -0.7568 -0.4155 -2.2354
  602MOL0     H79425  10.024   2.511   0.946  1.0161  1.2691 -1.4331
  602MOL0     H79426   9.844   2.574   0.558  2.3886  1.4388  0.4061
  602MOL0     H79427   9.627   2.692   0.556 -1.0997  3.1698  0.2217
  602MOL0     H79428   9.260   2.873   0.779 -3.4271 -0.4766  1.8214
  602MOL0     H79429   9.053   3.009   0.839 -0.3680 -1.9921  1.3959
  602MOL0     H79430   9.085   3.401   0.836 -1.0059  0.9103 -0.2297
  602MOL0     H79431   9.103   3.415   1.016  1.1431 -0.5013 -0.3542
  602MOL0     H79432   8.926   3.550   0.974  2.5718 -0.3264 -0.5156
  602MOL0     H79433   8.853   3.403   1.034 -0.3881 -1.1561 -1.3288
  602MOL0     H79434   8.799   3.337   0.805 -1.2708  1.1174 -2.7834
  602MOL0     H79435   8.900   3.473   0.740  1.3945  1.8008  0.6866
  602MOL0     H79436   8.679   3.520   0.914  0.7278 -2.1999 -0.2430
  602MOL0     H79437   8.752   3.631   0.792 -0.0455 -0.0713 -0.8897
  602MOL0     H79438   8.650   3.397   0.653  1.4788  1.0711 -2.1575
  602MOL0     H79439   8.620   3.559   0.617  0.9522 -0.9715 -0.3417
  602MOL0     H79440   8.454   3.585   0.793  0.9677  0.8481 -1.1467
  602MOL0     H79441   8.458   3.400   0.803  1.2029 -0.5339 -1.5828
  602MOL0     H79442   8.405   3.558   0.542  2.7918 -0.2155  0.5738
  602MOL0     H79443   8.370   3.381   0.585  4.9778  0.0650  0.0720
  602MOL0     H79444   8.213   3.620   0.705 -3.0910 -0.8026  1.0310
  602MOL0     H79445   8.187   3.453   0.732 -3.7162  0.6111 -1.7345
  602MOL0     H79446   9.311   3.317   1.008  3.2858 -1.6411  1.4341
  602MOL0     H79447   9.500   3.175   0.972  0.5399 -1.3924  0.2293
  602MOL0     H79448   9.749   2.846   0.952  4.1282 -1.5879  1.1831
  602MOL0     H79449   9.927   2.694   0.966 -0.8333 -1.5273  0.7777
  602MOL0     H79450  10.632   1.466   1.778  4.1190 -0.9969 -1.9814
  602MOL0     H79451  10.835   1.418   1.923  2.1538 -2.8838 -0.1951
  602MOL0     H79452  11.017   1.095   2.231  2.6633  0.5191 -0.5026
  602MOL0     H79453  11.162   1.036   2.430 -0.8999  0.1184 -1.7347
  602MOL0     H79454  11.439   1.210   2.480  1.6928 -2.6879 -1.4276
  602MOL0     H79455  11.374   1.050   2.532  2.2026 -1.2168  0.9315
  602MOL0     H79456  11.442   1.085   2.760 -1.3030 -1.7678 -3.0810
  602MOL0     H79457  11.583   1.112   2.648 -0.3627  1.7712 -5.3875
  602MOL0     H79458  11.405   1.331   2.773 -0.2893 -0.9153 -0.9896
  602MOL0     H79459  11.510   1.370   2.658 -2.5174  0.3914  0.9748
  602MOL0     H79460  11.600   1.408   2.900  0.7442  0.6984 -1.9799
  602MOL0     H79461  11.548   1.247   2.936  0.7346  0.1131  0.0705
  602MOL0     H79462  11.945   1.188   2.800  1.2719  2.9480 -2.6785
  602MOL0     H79463  11.156   1.441   2.554 -0.4943  0.8484  0.0180
  602MOL0     H79464  10.977   1.496   2.400 -2.4625 -0.3414  0.2476
  603MOL0     O79465  11.191   8.589   2.708  0.4128 -0.3909 -0.9649
  603MOL0     C79466  11.141   8.615   2.818  0.6919 -0.9782  0.8578
  603MOL0     O79467  11.088   8.536   2.904  0.1534  0.7203 -0.4975
  603MOL0     C79468  11.116   8.404   2.891 -0.4689 -0.2662  0.7629
  603MOL0     C79469  11.192   8.348   2.994 -0.3621 -0.2422  0.7958
  603MOL0     C79470  11.215   8.211   2.996  0.7530 -0.8985  0.6817
  603MOL0     C79471  11.163   8.123   2.894 -0.9107 -0.2813  0.3530
  603MOL0     O79472  11.194   7.990   2.888  0.2664  0.2356  0.1323
  603MOL0     C79473  11.321   7.951   2.939 -0.2523 -0.1182  0.8061
  603MOL0     C79474  11.323   7.900   3.085  0.5073 -0.6210 -0.1832
  603MOL0     C79475  11.192   7.842   3.141 -0.4416  0.3421  0.7489
  603MOL0     C79476  11.175   7.816   3.292 -0.6797 -0.3414  0.0357
  603MOL0     C79477  11.042   7.746   3.335  0.2877 -0.1977  0.5991
  603MOL0     C79478  10.929   7.846   3.343 -0.4065 -0.3420  0.2451
  603MOL0     C79479  10.806   7.763   3.376 -0.1150 -0.3505  0.9681
  603MOL0     C79480  10.697   7.862   3.406  0.9752  0.1730  0.1226
  603MOL0     N79481  10.587   7.786   3.486  0.2014 -0.1107  0.8735
  603MOL0     C79482  10.530   7.667   3.452  0.7809  0.8346  0.1384
  603MOL0     C79483  10.450   7.642   3.557 -0.0085 -0.7762  0.2919
  603MOL0     C79484  10.354   7.532   3.574 -0.7032  0.4048  0.1701
  603MOL0     C79485  10.233   7.578   3.651  0.0246 -0.1990  0.5768
  603MOL0     C79486  10.110   7.478   3.650 -0.1451  0.2245 -0.5906
  603MOL0     C79487   9.991   7.522   3.729  1.0562  0.4060  0.3527
  603MOL0     O79488   9.906   7.412   3.747 -0.1187 -0.0249 -0.2569
  603MOL0     C79489   9.793   7.413   3.829  0.1367  0.7281  0.4910
  603MOL0     C79490   9.748   7.533   3.890 -0.3346  0.3486 -0.0215
  603MOL0     C79491   9.632   7.546   3.959  0.0383  0.2250  0.4094
  603MOL0     C79492   9.548   7.437   3.966  0.1957  0.6349 -0.3269
  603MOL0     C79493   9.427   7.431   4.054  0.4642 -0.6978 -0.1688
  603MOL0     O79494   9.364   7.310   4.066  0.4048 -0.1385 -0.3180
  603MOL0     C79495   9.242   7.315   4.115 -0.0724  1.4077  0.5239
  603MOL0     C79496   9.208   7.221   4.218  0.2655 -0.0961  0.6656
  603MOL0     C79497   9.074   7.217   4.262 -0.0035 -0.2979  0.3033
  603MOL0     C79498   8.979   7.309   4.226 -0.1343  1.2006 -0.4451
  603MOL0     O79499   8.856   7.309   4.281  0.5104  0.3412 -0.4541
  603MOL0     C79500   8.746   7.298   4.193 -0.0712 -0.0925 -0.6424
  603MOL0     C79501   8.627   7.243   4.275  0.3555  0.0474 -0.2243
  603MOL0     C79502   8.499   7.305   4.221 -0.9538  0.1236  0.0481
  603MOL0     C79503   8.383   7.248   4.299 -0.2091  0.3559 -0.1042
  603MOL0     C79504   8.250   7.289   4.248  0.4030 -0.0643 -0.4842
  603MOL0     C79505   8.220   7.436   4.264  0.0473  0.6878 -0.4315
  603MOL0     C79506   8.115   7.494   4.174 -0.1504 -0.6928  0.5302
  603MOL0     C79507   8.109   7.644   4.174  0.2965 -0.0814  0.3654
  603MOL0    Cl79508   8.047   7.712   4.330  0.0969 -0.5629 -0.3113
  603MOL0     C79509   9.014   7.393   4.120  0.2955 -0.2974 -0.4925
  603MOL0     C79510   9.143   7.400   4.074 -0.8098  0.4024  0.1180
  603MOL0     O79511   9.404   7.531   4.117 -0.4840  0.1274  0.2195
  603MOL0     C79512   9.592   7.304   3.917 -0.3742 -0.2148 -1.1566
  603MOL0     C79513   9.709   7.301   3.843  1.3614 -0.4482  0.4837
  603MOL0     N79514  10.456   7.745   3.647  0.1310  0.8436 -0.3462
  603MOL0     N79515  10.528   7.828   3.606  0.0938 -0.3270  1.2853
  603MOL0     C79516  11.091   8.184   2.790  0.2477  0.4114 -0.2400
  603MOL0     C79517  11.063   8.317   2.796 -0.0930  0.0116  0.6412
  603MOL0     C79518  11.139   8.763   2.854  0.7347  0.0238 -0.2331
  603MOL0     C79519  11.179   8.863   2.768 -0.1718  0.4121 -0.0300
  603MOL0     C79520  11.181   8.989   2.807 -0.7113 -0.5984 -0.1532
  603MOL0     C79521  11.165   9.021   2.946  0.0814  0.2637 -0.2262
  603MOL0     O79522  11.177   9.148   2.998 -0.1562 -0.9227  0.4352
  603MOL0     C79523  11.189   9.265   2.918 -0.5620  0.1063 -1.0599
  603MOL0     C79524  11.210   9.383   3.010  0.5537 -0.8881 -0.0149
  603MOL0     C79525  11.090   9.458   3.050  0.6228  0.4181 -0.2408
  603MOL0     C79526  11.005   9.371   3.143 -0.1769 -0.3746  0.1266
  603MOL0     C79527  10.928   9.463   3.219  0.3863  0.4689 -0.8492
  603MOL0     C79528  10.846   9.523   3.293  0.0204  0.1011  0.7918
  603MOL0     C79529  11.127   8.927   3.042  0.6726  1.0297 -0.2507
  603MOL0     C79530  11.099   8.800   2.989 -0.1264 -0.6855 -0.8003
  603MOL0     H79531  11.223   8.424   3.064  1.0255  1.2826 -1.3318
  603MOL0     H79532  11.277   8.183   3.080  1.2761  1.6431  1.2305
  603MOL0     H79533  11.402   8.023   2.926  2.1393 -2.9929 -1.5897
  603MOL0     H79534  11.349   7.873   2.868 -0.6566 -0.8160  1.3950
  603MOL0     H79535  11.340   7.988   3.148  1.4563 -0.3487 -0.7959
  603MOL0     H79536  11.404   7.828   3.100 -0.0457 -1.4637 -1.1284
  603MOL0     H79537  11.177   7.748   3.087 -0.2909  0.1899  0.9718
  603MOL0     H79538  11.106   7.901   3.107 -0.8001 -0.9825 -0.7433
  603MOL0     H79539  11.254   7.746   3.320 -0.1785 -0.5910 -1.8276
  603MOL0     H79540  11.201   7.914   3.333  2.2369 -0.6807 -0.7163
  603MOL0     H79541  11.061   7.694   3.429 -1.4572 -3.1588 -0.5140
  603MOL0     H79542  11.014   7.659   3.275 -4.9940  0.6025  1.4140
  603MOL0     H79543  10.900   7.885   3.245 -2.1819  1.4000  1.3844
  603MOL0     H79544  10.948   7.931   3.410 -0.8964  2.3352 -2.8127
  603MOL0     H79545  10.768   7.711   3.288 -2.9868  2.0957  0.6056
  603MOL0     H79546  10.831   7.695   3.458  1.2796 -1.4438 -0.3062
  603MOL0     H79547  10.655   7.902   3.313  2.7958 -0.7755 -1.1761
  603MOL0     H79548  10.738   7.956   3.446 -0.4336  1.2053 -0.7560
  603MOL0     H79549  10.541   7.615   3.357  0.9777  1.1021  0.0120
  603MOL0     H79550  10.399   7.445   3.624 -1.6021 -0.7176 -0.9091
  603MOL0     H79551  10.321   7.507   3.473 -1.4392  0.7644  0.3162
  603MOL0     H79552  10.197   7.672   3.608 -2.4334 -0.5443  1.7094
  603MOL0     H79553  10.262   7.594   3.755  1.8334  0.2170  0.0297
  603MOL0     H79554  10.078   7.490   3.547  1.3202  2.0515 -0.8855
  603MOL0     H79555  10.138   7.375   3.673  0.1381 -0.6188 -4.1945
  603MOL0     H79556   9.937   7.601   3.676  2.2646  0.9731 -0.0622
  603MOL0     H79557  10.022   7.563   3.826  0.0544  1.0345  0.4325
  603MOL0     H79558   9.822   7.612   3.883 -2.0079  1.9734 -0.1230
  603MOL0     H79559   9.595   7.640   3.998  1.1508  2.2070 -2.8650
  603MOL0     H79560   9.286   7.153   4.251  1.0583  0.2239 -0.5119
  603MOL0     H79561   9.039   7.142   4.332 -0.0236  1.6837  2.5321
  603MOL0     H79562   8.760   7.225   4.112  0.8544  0.4045 -0.9485
  603MOL0     H79563   8.728   7.397   4.151  0.7571 -0.9054 -3.1380
  603MOL0     H79564   8.646   7.269   4.380 -0.2306  2.2016 -0.6188
  603MOL0     H79565   8.629   7.134   4.261 -0.0238 -0.0394  0.3643
  603MOL0     H79566   8.488   7.274   4.116 -1.2554 -0.1679  0.1642
  603MOL0     H79567   8.500   7.415   4.219  1.9899  0.1898  0.8869
  603MOL0     H79568   8.386   7.140   4.311  1.3188  0.3898 -0.0225
  603MOL0     H79569   8.394   7.284   4.402 -1.0194 -1.0394  0.4958
  603MOL0     H79570   8.171   7.222   4.281 -1.2806  2.7214  1.5923
  603MOL0     H79571   8.260   7.257   4.143  1.9865 -2.1423  0.2396
  603MOL0     H79572   8.313   7.491   4.246  1.3340 -1.7599 -1.8595
  603MOL0     H79573   8.204   7.453   4.371  0.2668  3.0488 -0.7356
  603MOL0     H79574   8.133   7.454   4.074 -1.5340 -3.3335  1.2634
  603MOL0     H79575   8.017   7.461   4.208 -0.9418  2.3166  1.4638
  603MOL0     H79576   8.052   7.692   4.094 -0.8681 -1.0076  0.6124
  603MOL0     H79577   8.211   7.681   4.156 -0.4115  0.7301 -2.4585
  603MOL0     H79578   8.937   7.464   4.093 -1.4586 -1.2160  1.8186
  603MOL0     H79579   9.160   7.467   3.991  2.2397 -1.1056 -0.6226
  603MOL0     H79580   9.536   7.213   3.937 -2.0254 -0.0117 -4.2151
  603MOL0     H79581   9.731   7.204   3.800  0.4685  0.1022 -1.2812
  603MOL0     H79582  11.062   8.128   2.701  2.9951 -0.2269 -0.8125
  603MOL0     H79583  11.002   8.365   2.721 -0.1592  0.2222  0.8282
  603MOL0     H79584  11.218   8.853   2.667 -1.2369  0.2238 -0.4447
  603MOL0     H79585  11.222   9.063   2.740 -0.4673  1.5017  2.1854
  603MOL0     H79586  11.097   9.281   2.862 -2.4777  4.0068  2.6508
  603MOL0     H79587  11.277   9.269   2.852 -0.4060 -0.2959 -0.8750
  603MOL0     H79588  11.273   9.364   3.097  0.6475 -0.3906  0.0316
  603MOL0     H79589  11.269   9.456   2.954 -0.3827  1.8724  2.3377
  603MOL0     H79590  11.032   9.486   2.962 -0.4419 -3.8741 -1.1375
  603MOL0     H79591  11.122   9.552   3.096 -0.3292  0.5734  0.1268
  603MOL0     H79592  10.939   9.304   3.088  0.7969  0.7713 -2.6340
  603MOL0     H79593  11.076   9.326   3.213 -0.7606 -2.6414 -0.6613
  603MOL0     H79594  10.778   9.540   3.374  0.1094 -2.8866  1.6034
  603MOL0     H79595  11.088   8.951   3.141 -1.3940  0.0668 -0.7830
  603MOL0     H79596  11.052   8.727   3.054 -1.8369 -0.0802 -1.3144
  604MOL0     O79597   7.697   3.380   1.028 -0.2823  0.3535 -0.7277
  604MOL0     C79598   7.707   3.263   0.998 -0.5421  0.2523 -0.2428
  604MOL0     O79599   7.609   3.171   0.970 -0.6963 -0.1434 -0.4686
  604MOL0     C79600   7.476   3.193   0.969 -0.1734 -0.5137 -0.1813
  604MOL0     C79601   7.415   3.282   1.055 -0.7270  0.2147 -0.4145
  604MOL0     C79602   7.270   3.307   1.032 -0.2861  0.2201  0.6941
  604MOL0     C79603   7.200   3.250   0.925 -0.4099  0.8972  0.6896
  604MOL0     O79604   7.066   3.269   0.909  0.3726 -0.4845 -0.2661
  604MOL0     C79605   6.970   3.307   1.008 -0.0121  0.5777 -0.3854
  604MOL0     C79606   6.828   3.292   0.972  0.7519 -0.1770  0.6303
  604MOL0     C79607   6.776   3.342   0.833  0.5610 -0.6131 -0.4945
  604MOL0     C79608   6.639   3.302   0.794 -0.2897 -0.2950 -0.2264
  604MOL0     C79609   6.605   3.167   0.848  0.4033 -0.2567  0.2973
  604MOL0     C79610   6.499   3.105   0.761  0.4028 -0.7337 -0.4315
  604MOL0     C79611   6.371   3.186   0.756  0.3262 -0.1463 -0.1709
  604MOL0     C79612   6.300   3.210   0.884 -0.5735 -0.1856 -0.6879
  604MOL0     N79613   6.190   3.305   0.858  0.0407  0.1609 -0.7001
  604MOL0     C79614   6.201   3.440   0.842  0.6515 -1.4771 -0.2762
  604MOL0     C79615   6.086   3.481   0.797  1.0417 -0.5759 -0.6174
  604MOL0     C79616   6.040   3.618   0.753 -0.4167  0.1975 -0.2240
  604MOL0     C79617   5.888   3.628   0.723  0.7075 -0.0377 -0.7913
  604MOL0     C79618   5.850   3.772   0.682  0.5684 -1.3150  0.5955
  604MOL0     C79619   5.704   3.760   0.652 -0.2727  0.1356  0.4059
  604MOL0     O79620   5.656   3.885   0.618 -0.3021  0.3956  0.2134
  604MOL0     C79621   5.524   3.911   0.593  0.6947  1.1561 -0.1874
  604MOL0     C79622   5.485   4.040   0.579  0.0383 -0.6342  0.1489
  604MOL0     C79623   5.347   4.082   0.585 -0.4551 -0.1049  0.0260
  604MOL0     C79624   5.249   3.983   0.586 -0.2137 -0.3338 -0.2954
  604MOL0     C79625   5.105   4.021   0.604  0.4344  0.0881 -0.4346
  604MOL0     O79626   5.084   4.151   0.656 -0.7372  0.3983  0.7875
  604MOL0     C79627   4.951   4.182   0.671  0.1998 -0.1713 -0.7708
  604MOL0     C79628   4.853   4.192   0.569 -0.6426 -0.2097 -0.6035
  604MOL0     C79629   4.729   4.233   0.608  0.3335  0.6214  1.1285
  604MOL0     C79630   4.694   4.250   0.740  0.4021  0.0915 -0.3120
  604MOL0     O79631   4.563   4.284   0.762  0.3766  0.0053  0.4838
  604MOL0     C79632   4.518   4.290   0.897 -0.2964  0.8867  0.2287
  604MOL0     C79633   4.362   4.325   0.898 -0.2952 -0.7669 -1.0294
  604MOL0     C79634   4.255   4.219   0.872 -0.4241  0.2294  0.0626
  604MOL0     C79635   4.111   4.269   0.872 -0.4342  0.1504  1.2802
  604MOL0     C79636   4.014   4.151   0.881  0.3679  0.1345  0.9942
  604MOL0     C79637   3.863   4.200   0.857 -0.1527  0.4939  0.2748
  604MOL0     C79638   3.830   4.283   0.980 -0.3961 -0.8354 -1.0364
  604MOL0     C79639   3.697   4.352   0.967 -0.1080  0.5126 -0.1392
  604MOL0    Cl79640   3.718   4.496   0.845 -0.2925 -0.0673  0.0464
  604MOL0     C79641   4.786   4.232   0.839 -0.9811  0.6574 -0.3524
  604MOL0     C79642   4.920   4.206   0.807  0.6154  0.0811 -0.5126
  604MOL0     O79643   5.020   3.937   0.590  0.1076 -0.4370  0.4580
  604MOL0     C79644   5.284   3.851   0.578 -0.5474 -0.8272 -0.0344
  604MOL0     C79645   5.421   3.809   0.593 -0.5473  0.5723  0.3828
  604MOL0     N79646   5.995   3.372   0.795  0.2125  0.4183 -0.9051
  604MOL0     N79647   6.063   3.270   0.834  0.4439  0.1336 -0.8682
  604MOL0     C79648   7.275   3.172   0.838  0.2311  1.3168  0.2658
  604MOL0     C79649   7.412   3.146   0.860  0.4592  0.6090 -0.0497
  604MOL0     C79650   7.848   3.205   1.012 -0.7460  0.9038 -1.0282
  604MOL0     C79651   7.884   3.070   0.982 -0.9117  0.5133  0.8811
  604MOL0     C79652   8.017   3.029   0.985 -0.5198  0.2218 -0.6466
  604MOL0     C79653   8.125   3.111   1.029  0.5958  0.9279 -0.2882
  604MOL0     O79654   8.255   3.054   1.022 -0.3023  0.0248 -0.6303
  604MOL0     C79655   8.375   3.140   1.046  0.0718  0.1204 -0.3008
  604MOL0     C79656   8.495   3.047   1.044 -0.2271 -0.2414 -1.1555
  604MOL0     C79657   8.619   3.144   1.078 -0.0579  0.2741 -0.7180
  604MOL0     C79658   8.737   3.066   1.146  0.2404 -0.5623 -0.5341
  604MOL0     C79659   8.832   3.157   1.204 -0.1089 -0.2484 -0.3546
  604MOL0     C79660   8.915   3.247   1.230 -0.2397  0.3672 -0.1845
  604MOL0     C79661   8.089   3.244   1.048 -0.7673  0.0750  0.6853
  604MOL0     C79662   7.960   3.287   1.043  0.5444  0.1885 -0.0945
  604MOL0     H79663   7.459   3.331   1.141 -1.2972 -1.5299  0.9422
  604MOL0     H79664   7.221   3.364   1.110 -0.2105  1.5554 -0.2069
  604MOL0     H79665   6.991   3.414   1.020  0.7909  0.8223 -3.2124
  604MOL0     H79666   6.990   3.245   1.095 -0.0460 -0.6271 -1.2154
  604MOL0     H79667   6.776   3.356   1.044 -0.4478  0.2943 -0.6211
  604MOL0     H79668   6.795   3.190   0.993 -3.9763  0.9451 -0.1993
  604MOL0     H79669   6.841   3.299   0.757  4.7387 -0.1902  2.4573
  604MOL0     H79670   6.790   3.450   0.820  0.7021 -0.3358  1.5452
  604MOL0     H79671   6.564   3.367   0.841  1.9144  1.6554  0.7979
  604MOL0     H79672   6.631   3.317   0.686 -0.7093 -1.3484 -0.3551
  604MOL0     H79673   6.571   3.171   0.952  2.5990 -0.3528  1.0516
  604MOL0     H79674   6.693   3.103   0.845  1.1171  0.7212 -2.2698
  604MOL0     H79675   6.484   2.999   0.785 -0.2352 -0.6725 -0.5279
  604MOL0     H79676   6.539   3.111   0.659  0.7933 -1.5420 -0.3316
  604MOL0     H79677   6.387   3.286   0.713 -3.5901  0.0734 -1.4904
  604MOL0     H79678   6.304   3.136   0.684  0.4006  2.5289 -2.2625
  604MOL0     H79679   6.376   3.266   0.940  2.5143 -1.5418 -3.2535
  604MOL0     H79680   6.256   3.124   0.934  0.0629  1.1806  2.4551
  604MOL0     H79681   6.286   3.508   0.841 -0.7503  0.3707  0.3831
  604MOL0     H79682   6.092   3.636   0.658  4.2068  3.0213  2.4443
  604MOL0     H79683   6.080   3.693   0.822  2.2206 -0.5460 -0.8349
  604MOL0     H79684   5.822   3.612   0.809 -0.4580  4.4448 -0.5586
  604MOL0     H79685   5.853   3.552   0.652 -0.5876 -1.3463  1.1551
  604MOL0     H79686   5.859   3.845   0.763  2.3665  0.1604 -0.8294
  604MOL0     H79687   5.904   3.809   0.594  1.0213 -0.2921  1.2773
  604MOL0     H79688   5.645   3.739   0.742 -0.0357  2.1124  1.0632
  604MOL0     H79689   5.688   3.678   0.581 -0.8015  0.3902  0.2203
  604MOL0     H79690   5.560   4.117   0.573 -0.1164 -0.5700 -4.3888
  604MOL0     H79691   5.333   4.185   0.617  1.2653 -0.2754  1.5290
  604MOL0     H79692   4.890   4.180   0.467 -0.2219  4.8417 -1.3485
  604MOL0     H79693   4.648   4.252   0.539  1.4415 -1.9616 -1.0741
  604MOL0     H79694   4.565   4.368   0.957  0.7648 -0.9852  1.9245
  604MOL0     H79695   4.541   4.194   0.944  3.8168  1.1320 -0.8575
  604MOL0     H79696   4.352   4.409   0.829 -2.5057  1.8136  2.0912
  604MOL0     H79697   4.340   4.379   0.991 -1.1740  0.6663 -2.0250
  604MOL0     H79698   4.270   4.162   0.964 -1.3448  0.2696  0.2485
  604MOL0     H79699   4.275   4.148   0.791  2.1206  1.7188 -0.7194
  604MOL0     H79700   4.099   4.330   0.962  1.4517  0.0992  1.5948
  604MOL0     H79701   4.091   4.321   0.778  1.2280  0.1771  0.9223
  604MOL0     H79702   4.016   4.094   0.974 -1.6808 -1.9901 -0.1816
  604MOL0     H79703   4.049   4.091   0.797 -0.8346  2.4407 -1.2662
  604MOL0     H79704   3.792   4.117   0.856  0.5652 -0.2497  2.9966
  604MOL0     H79705   3.851   4.260   0.766 -3.7529  0.2873  0.4591
  604MOL0     H79706   3.819   4.200   1.051 -0.7341  0.2012  0.1709
  604MOL0     H79707   3.898   4.363   1.012 -0.9507 -1.8999  3.4380
  604MOL0     H79708   3.663   4.390   1.064  0.7279 -2.6733  1.5424
  604MOL0     H79709   3.622   4.278   0.939 -0.6953 -0.9288  4.3921
  604MOL0     H79710   4.765   4.237   0.945 -2.6762  1.2393 -0.6932
  604MOL0     H79711   4.995   4.197   0.885 -1.3455  0.1473  1.4849
  604MOL0     H79712   5.204   3.779   0.586  0.8061 -2.4018 -0.0223
  604MOL0     H79713   5.437   3.705   0.615 -0.1693  0.9672  2.0834
  604MOL0     H79714   7.230   3.130   0.748  1.8942 -1.5503  0.6344
  604MOL0     H79715   7.472   3.094   0.786 -0.6715  0.3139 -0.7881
  604MOL0     H79716   7.804   3.006   0.946  0.5767 -0.0701 -1.5972
  604MOL0     H79717   8.029   2.927   0.950  0.2264 -0.3832  1.2419
  604MOL0     H79718   8.359   3.190   1.142 -4.2608 -2.0484  0.3098
  604MOL0     H79719   8.397   3.211   0.965  0.0808  1.0032  0.4578
  604MOL0     H79720   8.484   2.960   1.108 -1.1851  0.8129  0.1608
  604MOL0     H79721   8.510   3.009   0.942  0.5239  0.1797 -1.2060
  604MOL0     H79722   8.589   3.229   1.139 -1.1544 -0.2998 -0.4311
  604MOL0     H79723   8.665   3.177   0.984  2.7225  2.1180  1.1522
  604MOL0     H79724   8.703   2.993   1.220  1.0895 -4.1869 -3.4251
  604MOL0     H79725   8.780   2.999   1.071 -1.7156  0.5248 -2.7693
  604MOL0     H79726   8.983   3.323   1.262  0.7769 -1.1707  1.5498
  604MOL0     H79727   8.177   3.302   1.075 -0.7579 -0.5561  2.1025
  604MOL0     H79728   7.940   3.393   1.046 -0.7988 -0.0736  1.2049
  605MOL0     O79729  11.033   7.123   4.932 -1.0757  0.2785 -0.5558
  605MOL0     C79730  11.021   7.009   4.883 -0.9847 -0.3943  0.1476
  605MOL0     O79731  10.915   6.938   4.860 -0.2496 -0.1626  0.6384
  605MOL0     C79732  10.791   6.978   4.898 -0.5407 -0.9439 -0.5188
  605MOL0     C79733  10.764   7.023   5.026 -0.1764  0.1565 -0.8336
  605MOL0     C79734  10.634   7.082   5.059 -1.4321 -0.0846  0.5740
  605MOL0     C79735  10.529   7.076   4.969 -0.1163 -0.1689  0.0462
  605MOL0     O79736  10.401   7.117   5.007 -0.0597  0.2168 -0.2937
  605MOL0     C79737  10.348   7.074   5.139  0.6994 -0.5265  0.1753
  605MOL0     C79738  10.238   7.175   5.186  0.0497 -0.4141  0.5192
  605MOL0     C79739  10.157   7.105   5.293  0.0218  0.8966 -0.5352
  605MOL0     C79740  10.017   7.165   5.310  0.9988  0.7063  0.5286
  605MOL0     C79741   9.932   7.091   5.412 -1.1941  0.4226 -0.4441
  605MOL0     C79742   9.799   7.164   5.422 -0.0210 -0.2560 -0.8839
  605MOL0     C79743   9.704   7.098   5.530  0.0351  0.5255 -0.7860
  605MOL0     C79744   9.565   7.153   5.540  0.9159 -0.3766 -0.1712
  605MOL0     N79745   9.500   7.116   5.670 -0.1536  0.6899 -0.3006
  605MOL0     C79746   9.406   7.017   5.686  0.0039  0.4252 -0.0447
  605MOL0     C79747   9.372   7.013   5.819 -0.0027  0.4821  0.3165
  605MOL0     C79748   9.280   6.915   5.879 -0.0574 -0.0932 -0.9320
  605MOL0     C79749   9.152   6.970   5.950 -0.4740 -0.6896 -0.3314
  605MOL0     C79750   9.177   7.088   6.049  0.9735 -0.2727 -1.0472
  605MOL0     C79751   9.046   7.136   6.114 -1.2397  0.2372  0.2569
  605MOL0     O79752   8.983   7.038   6.195  0.5317  0.2137 -0.1610
  605MOL0     C79753   8.859   7.066   6.247 -0.0803  0.1591  0.6760
  605MOL0     C79754   8.777   7.177   6.204 -0.2697  0.3296  0.7786
  605MOL0     C79755   8.654   7.202   6.264  0.5945 -0.1999 -0.3692
  605MOL0     C79756   8.608   7.115   6.370  0.4158 -0.2943  0.2408
  605MOL0     C79757   8.474   7.133   6.424 -0.2168 -0.4654 -0.0486
  605MOL0     O79758   8.425   7.038   6.508  0.5953 -0.3011 -0.2962
  605MOL0     C79759   8.300   7.066   6.562 -1.3960 -0.8274  0.0812
  605MOL0     C79760   8.189   6.997   6.509  0.4101 -0.2010 -0.1743
  605MOL0     C79761   8.059   7.040   6.550 -0.0948  0.2837  0.7438
  605MOL0     C79762   8.035   7.136   6.649 -1.0616  0.5232  0.6259
  605MOL0     O79763   7.911   7.154   6.680  0.1305  0.2722  0.8461
  605MOL0     C79764   7.872   7.285   6.722 -0.0084  0.1515 -0.4191
  605MOL0     C79765   7.725   7.265   6.779  0.0160  0.0881  0.5053
  605MOL0     C79766   7.745   7.218   6.927  1.3714 -0.1645  0.8203
  605MOL0     C79767   7.600   7.197   6.976  0.5098 -0.2977  0.5106
  605MOL0     C79768   7.587   7.154   7.122  0.0323 -0.0980 -0.0422
  605MOL0     C79769   7.442   7.125   7.168  0.8827  0.6758 -0.0776
  605MOL0     C79770   7.455   7.027   7.292 -0.7088  0.0592  0.1032
  605MOL0     C79771   7.321   7.031   7.373  0.2387  0.0897 -0.3945
  605MOL0    Cl79772   7.272   7.186   7.460 -0.0737  0.5511 -0.1913
  605MOL0     C79773   8.152   7.196   6.705 -0.3485 -0.9971 -0.0088
  605MOL0     C79774   8.279   7.163   6.654 -0.8902 -0.9162 -0.3004
  605MOL0     O79775   8.414   7.234   6.384 -0.1695  0.0102  0.1101
  605MOL0     C79776   8.689   7.002   6.400  0.8191 -1.0895 -0.4032
  605MOL0     C79777   8.816   6.990   6.347 -1.3840 -0.4035  0.0900
  605MOL0     N79778   9.462   7.100   5.877  0.6173 -0.3753 -0.0521
  605MOL0     N79779   9.535   7.160   5.793 -0.2475  0.8550 -0.6769
  605MOL0     C79780  10.555   7.026   4.838  0.0423  0.0630 -1.4455
  605MOL0     C79781  10.685   6.975   4.810 -0.0060  0.6349  0.5299
  605MOL0     C79782  11.149   6.932   4.859 -0.4107 -0.5589 -0.2941
  605MOL0     C79783  11.140   6.797   4.834  0.6011 -0.0247 -0.1573
  605MOL0     C79784  11.242   6.725   4.793 -0.2068  0.3267 -1.2910
  605MOL0     C79785  11.371   6.783   4.789 -1.5409 -0.4060  0.3658
  605MOL0     O79786  11.494   6.714   4.766 -0.4411  1.0203 -0.4980
  605MOL0     C79787  11.482   6.572   4.754 -0.1202  0.1183 -0.4898
  605MOL0     C79788  11.619   6.510   4.734  0.2084 -0.0318 -0.6682
  605MOL0     C79789  11.697   6.527   4.869  0.2911 -0.1408 -0.4877
  605MOL0     C79790  11.837   6.508   4.839 -0.3433  0.7246  0.2641
  605MOL0     C79791  11.910   6.517   4.966 -0.5597  0.9866  0.2682
  605MOL0     C79792  11.958   6.513   5.074  0.2284  0.0648 -0.5368
  605MOL0     C79793  11.392   6.918   4.829 -0.1737  1.7177 -0.3568
  605MOL0     C79794  11.283   6.997   4.862  0.5356  0.0165  0.5138
  605MOL0     H79795  10.840   7.006   5.102  1.5090 -2.6275 -2.9232
  605MOL0     H79796  10.637   7.114   5.162  3.0249 -0.4530  0.7453
  605MOL0     H79797  10.423   7.067   5.217 -0.1387 -0.0886  1.0470
  605MOL0     H79798  10.297   6.982   5.107  0.0517  0.5971 -2.2831
  605MOL0     H79799  10.172   7.186   5.100  1.6630 -1.7970 -1.0024
  605MOL0     H79800  10.284   7.264   5.229 -0.0941 -0.9750  1.8945
  605MOL0     H79801  10.219   7.106   5.383 -0.4455  3.0789 -0.1851
  605MOL0     H79802  10.137   6.998   5.282 -0.3081  0.7883  0.9060
  605MOL0     H79803  10.026   7.268   5.347 -0.5523  0.7196  0.9406
  605MOL0     H79804   9.963   7.166   5.215  1.6852 -1.1868  0.0757
  605MOL0     H79805   9.978   7.089   5.511  2.5327 -1.9014 -2.0014
  605MOL0     H79806   9.923   6.987   5.378  3.1225 -0.0478 -0.6628
  605MOL0     H79807   9.751   7.157   5.324  1.2663  0.5930 -1.6111
  605MOL0     H79808   9.799   7.271   5.448  0.3960  0.7659 -4.5179
  605MOL0     H79809   9.692   6.995   5.495  0.2029  0.4575 -0.6419
  605MOL0     H79810   9.751   7.098   5.629 -0.8654  0.8117 -0.3428
  605MOL0     H79811   9.511   7.119   5.451  0.5314  1.5022 -0.7065
  605MOL0     H79812   9.565   7.262   5.534  0.0166 -0.4158 -1.5634
  605MOL0     H79813   9.360   6.953   5.612 -1.1803  2.4346 -1.1365
  605MOL0     H79814   9.329   6.861   5.961 -1.2884  1.1202  0.6516
  605MOL0     H79815   9.255   6.835   5.808  2.3713 -0.3089 -1.6502
  605MOL0     H79816   9.093   6.894   6.000 -1.9902  1.5490  1.4782
  605MOL0     H79817   9.084   7.009   5.873 -0.4196  1.7302  0.7771
  605MOL0     H79818   9.245   7.057   6.128 -0.1253  0.4638  0.2403
  605MOL0     H79819   9.223   7.173   5.997  1.3376 -1.2991 -2.4564
  605MOL0     H79820   8.983   7.172   6.031 -0.2081  1.1324 -0.1572
  605MOL0     H79821   9.077   7.221   6.174  1.0096  0.3462 -0.9391
  605MOL0     H79822   8.806   7.233   6.116 -3.1684 -0.1635 -0.6050
  605MOL0     H79823   8.603   7.296   6.243 -2.9683 -2.2485 -1.6634
  605MOL0     H79824   8.206   6.920   6.434 -0.8130  0.3435 -1.0575
  605MOL0     H79825   7.976   6.987   6.504  0.4285  0.1750 -0.0957
  605MOL0     H79826   7.873   7.355   6.639 -0.2242 -0.8359 -1.2774
  605MOL0     H79827   7.931   7.333   6.801  3.7732 -3.6959 -0.4859
  605MOL0     H79828   7.672   7.190   6.719 -0.1165  2.0667 -2.0031
  605MOL0     H79829   7.663   7.354   6.763 -2.8858 -1.3054  3.0316
  605MOL0     H79830   7.780   7.293   6.998 -2.1550 -0.2602  2.9468
  605MOL0     H79831   7.799   7.124   6.937  0.7246 -0.3969  2.7468
  605MOL0     H79832   7.534   7.282   6.959 -0.1842 -0.9423 -0.1065
  605MOL0     H79833   7.568   7.107   6.922  0.9832  1.8563 -3.7867
  605MOL0     H79834   7.632   7.234   7.182  0.1353  0.6965 -1.1453
  605MOL0     H79835   7.654   7.070   7.139  2.0223  1.3446 -0.4256
  605MOL0     H79836   7.387   7.084   7.083 -2.0053  0.4979  1.7570
  605MOL0     H79837   7.396   7.221   7.189  1.4465  0.9050  0.1274
  605MOL0     H79838   7.482   6.929   7.254 -2.4419  0.0462 -1.2559
  605MOL0     H79839   7.530   7.073   7.357 -0.9093  0.4934  0.0363
  605MOL0     H79840   7.310   6.953   7.449 -1.1118 -0.0633 -0.7166
  605MOL0     H79841   7.236   7.012   7.306 -1.2399  1.0851  1.1186
  605MOL0     H79842   8.145   7.263   6.791 -0.1715 -1.2719  0.2214
  605MOL0     H79843   8.359   7.220   6.702 -2.2471 -0.2185  1.2027
  605MOL0     H79844   8.653   6.921   6.463 -0.7061  2.1995  3.3391
  605MOL0     H79845   8.873   6.908   6.389  0.2427 -0.6024 -2.3158
  605MOL0     H79846  10.475   7.043   4.767  1.3029  2.4513 -2.4212
  605MOL0     H79847  10.694   6.938   4.709  1.6551  2.2454  0.0304
  605MOL0     H79848  11.043   6.749   4.845  0.9070 -0.5306  0.4113
  605MOL0     H79849  11.226   6.620   4.771 -0.9335 -0.4288  2.2057
  605MOL0     H79850  11.419   6.554   4.666 -1.2151  0.3822  0.2176
  605MOL0     H79851  11.437   6.533   4.846  0.9416 -0.0421 -0.0253
  605MOL0     H79852  11.610   6.402   4.726  1.2213 -0.4013  2.0380
  605MOL0     H79853  11.674   6.556   4.651  0.6242  4.0342  1.5977
  605MOL0     H79854  11.652   6.461   4.944  1.1940  0.9494  1.0926
  605MOL0     H79855  11.684   6.627   4.912  2.8732  1.2212 -2.6185
  605MOL0     H79856  11.870   6.412   4.800 -0.7539  1.4538 -1.9970
  605MOL0     H79857  11.877   6.588   4.777 -1.5531  1.3815  0.2963
  605MOL0     H79858  11.999   6.502   5.172 -1.6714 -0.5534  0.2267
  605MOL0     H79859  11.494   6.953   4.827  1.2388 -1.9617 -0.5736
  605MOL0     H79860  11.298   7.101   4.888  0.1495  0.2371 -0.1227
  606MOL0     O79861   6.819   2.962   3.490  0.4112  0.7799 -0.5060
  606MOL0     C79862   6.856   2.864   3.422  0.0735 -0.4135  0.6486
  606MOL0     O79863   6.812   2.829   3.300  0.0496  0.3830 -0.6230
  606MOL0     C79864   6.684   2.864   3.272  0.4222  0.8442 -0.2676
  606MOL0     C79865   6.655   2.905   3.138 -0.0056 -0.1107 -0.2676
  606MOL0     C79866   6.520   2.922   3.108 -0.0712 -0.0348 -0.3528
  606MOL0     C79867   6.412   2.900   3.203 -0.3406 -0.5756  0.7542
  606MOL0     O79868   6.286   2.946   3.181 -0.2534 -0.2895  0.2462
  606MOL0     C79869   6.245   2.978   3.047 -1.4401 -0.4047  0.9688
  606MOL0     C79870   6.105   3.028   3.068 -0.6913  0.5700 -0.4742
  606MOL0     C79871   6.010   2.903   3.113 -0.1393 -0.0927 -0.9757
  606MOL0     C79872   5.880   2.954   3.171  0.1725  0.1316 -0.1418
  606MOL0     C79873   5.792   3.048   3.088  0.6452 -0.0739  0.3490
  606MOL0     C79874   5.679   2.983   3.004  0.0031  0.0706 -0.5362
  606MOL0     C79875   5.693   3.032   2.860  0.8067 -0.4216 -0.3882
  606MOL0     C79876   5.639   3.180   2.846  0.7519 -0.2862  0.4323
  606MOL0     N79877   5.519   3.179   2.748 -0.2629  0.5510 -1.1998
  606MOL0     C79878   5.389   3.219   2.768  0.4255  0.1581 -0.2188
  606MOL0     C79879   5.340   3.252   2.645 -0.4259 -0.1581  1.0784
  606MOL0     C79880   5.203   3.321   2.623 -0.4982  0.6184  0.1020
  606MOL0     C79881   5.194   3.409   2.497  0.0856 -0.0781 -0.2132
  606MOL0     C79882   5.181   3.327   2.371 -0.2480 -0.1677  1.3621
  606MOL0     C79883   5.144   3.399   2.237 -0.3101  0.0339 -0.5417
  606MOL0     O79884   5.030   3.483   2.267  0.3174  0.1862  0.4350
  606MOL0     C79885   4.937   3.513   2.168  1.2247  0.0250 -0.5681
  606MOL0     C79886   4.822   3.589   2.208 -1.4559  0.1185 -0.3134
  606MOL0     C79887   4.720   3.617   2.125  0.1312 -0.2077  0.3514
  606MOL0     C79888   4.742   3.594   1.982  0.4209 -0.6357 -0.3818
  606MOL0     C79889   4.640   3.653   1.888 -0.1323  0.5621  0.1443
  606MOL0     O79890   4.532   3.716   1.940  0.1882 -0.2756 -0.3735
  606MOL0     C79891   4.432   3.736   1.850 -0.4112 -0.3511 -0.3621
  606MOL0     C79892   4.367   3.639   1.786 -0.1158  0.2253 -0.3725
  606MOL0     C79893   4.262   3.662   1.690  0.6705  0.3619  0.0632
  606MOL0     C79894   4.210   3.794   1.674  0.7491 -0.0303 -0.4479
  606MOL0     O79895   4.111   3.823   1.586  0.1524  0.5754 -0.2545
  606MOL0     C79896   4.058   3.957   1.569 -0.0362 -0.1241  0.6610
  606MOL0     C79897   3.942   3.955   1.462 -0.0365 -0.0249 -0.8004
  606MOL0     C79898   3.828   3.854   1.491  0.8509  1.3722  0.2189
  606MOL0     C79899   3.721   3.847   1.390 -0.5556 -0.3212  0.2808
  606MOL0     C79900   3.665   3.987   1.331 -0.4766 -1.0056 -0.0357
  606MOL0     C79901   3.552   3.965   1.224 -0.9213 -0.5471 -0.1094
  606MOL0     C79902   3.471   4.094   1.203  0.5040 -0.4659 -0.9354
  606MOL0     C79903   3.398   4.096   1.075 -0.3815 -0.2630  0.5131
  606MOL0    Cl79904   3.259   3.981   1.084 -0.0134 -0.3050 -0.0652
  606MOL0     C79905   4.279   3.898   1.741 -0.4295  0.3411  0.2907
  606MOL0     C79906   4.386   3.871   1.832 -0.3268 -0.1065  0.3804
  606MOL0     O79907   4.666   3.629   1.764 -0.0890 -0.5643  0.1848
  606MOL0     C79908   4.860   3.535   1.944  0.6335  0.1055  0.2407
  606MOL0     C79909   4.956   3.491   2.029  0.1559  0.3933 -0.0473
  606MOL0     N79910   5.443   3.239   2.556 -0.9483 -0.2254 -0.1985
  606MOL0     N79911   5.545   3.197   2.622 -0.5155  0.0635  0.4528
  606MOL0     C79912   6.451   2.860   3.335 -0.4372 -0.2400 -0.2613
  606MOL0     C79913   6.582   2.844   3.367  0.2988  1.0899  0.2690
  606MOL0     C79914   6.976   2.796   3.464 -0.1640 -0.6646  0.4837
  606MOL0     C79915   7.069   2.737   3.381  0.4743 -0.0348 -0.0250
  606MOL0     C79916   7.190   2.672   3.430 -0.1586 -1.0432 -0.5049
  606MOL0     C79917   7.222   2.674   3.562  1.6007 -0.1735  0.5653
  606MOL0     O79918   7.325   2.620   3.624  0.3614  0.0083 -0.0362
  606MOL0     C79919   7.424   2.546   3.547  1.0676  0.2068  0.4091
  606MOL0     C79920   7.546   2.530   3.646 -0.4452  0.0893 -0.1053
  606MOL0     C79921   7.647   2.415   3.609  0.4361  0.2169 -0.4573
  606MOL0     C79922   7.781   2.472   3.553 -0.5074  0.0952  0.4113
  606MOL0     C79923   7.902   2.479   3.648 -0.0299  1.0879  0.5772
  606MOL0     C79924   7.999   2.470   3.721  0.0777  1.0698  0.0828
  606MOL0     C79925   7.127   2.733   3.643 -0.1999 -0.4934  0.3356
  606MOL0     C79926   7.008   2.796   3.604 -0.0242 -0.2533 -0.3309
  606MOL0     H79927   6.727   2.904   3.056  0.4893  1.0883  0.1355
  606MOL0     H79928   6.502   2.956   3.006  0.6863 -1.2431 -0.9143
  606MOL0     H79929   6.239   2.899   2.972 -1.0235  3.4884 -3.7029
  606MOL0     H79930   6.306   3.060   3.008 -1.1611 -0.9913  0.1444
  606MOL0     H79931   6.072   3.074   2.975 -1.9844  0.0780 -0.2773
  606MOL0     H79932   6.110   3.106   3.145  0.0425  2.5805 -2.4590
  606MOL0     H79933   6.046   2.857   3.206  0.0168  0.5031 -0.7354
  606MOL0     H79934   6.005   2.823   3.039 -2.3885  0.2012 -1.2266
  606MOL0     H79935   5.817   2.874   3.211 -0.7870  0.1489 -1.5491
  606MOL0     H79936   5.915   3.018   3.253 -1.2563  3.0545 -1.6717
  606MOL0     H79937   5.854   3.120   3.034 -2.1193  1.4417 -1.0627
  606MOL0     H79938   5.739   3.113   3.158 -0.1528 -0.5916  0.2426
  606MOL0     H79939   5.587   3.012   3.055  1.6021  1.1236  1.9419
  606MOL0     H79940   5.685   2.873   3.006 -1.7184 -0.1170 -2.5829
  606MOL0     H79941   5.795   3.017   2.825  1.8957 -0.8490  2.6819
  606MOL0     H79942   5.619   2.968   2.812 -1.3147  0.5300  1.4303
  606MOL0     H79943   5.727   3.239   2.818  0.1134  0.5595  0.1664
  606MOL0     H79944   5.594   3.224   2.936 -0.3567 -1.0512  0.2770
  606MOL0     H79945   5.333   3.251   2.855  1.2952 -1.0129  0.7995
  606MOL0     H79946   5.186   3.396   2.701  0.3109  0.3828  0.5113
  606MOL0     H79947   5.128   3.241   2.617 -0.5525  0.7565 -1.9020
  606MOL0     H79948   5.284   3.471   2.491  0.3018 -0.4072 -0.3866
  606MOL0     H79949   5.114   3.483   2.510  0.0172 -0.3506  1.0677
  606MOL0     H79950   5.277   3.275   2.360  1.5657  2.3602  3.8712
  606MOL0     H79951   5.108   3.246   2.384  1.1023 -1.8768 -0.9176
  606MOL0     H79952   5.120   3.313   2.174  0.2683  0.1730 -0.9555
  606MOL0     H79953   5.230   3.457   2.203  0.0695  0.4871  1.1149
  606MOL0     H79954   4.812   3.612   2.314 -0.4657 -1.7601  0.2298
  606MOL0     H79955   4.624   3.659   2.152  0.4804  1.8270 -1.3024
  606MOL0     H79956   4.396   3.535   1.793  0.7321  0.5328  1.3843
  606MOL0     H79957   4.201   3.590   1.637 -0.5327  1.8208 -0.6030
  606MOL0     H79958   4.131   4.023   1.521 -0.8932 -0.8645 -1.8679
  606MOL0     H79959   4.019   4.000   1.661 -3.6419 -3.8154  1.1650
  606MOL0     H79960   3.986   3.933   1.365 -0.7414  2.1891 -1.6784
  606MOL0     H79961   3.906   4.058   1.461  2.4953  1.0083  1.1676
  606MOL0     H79962   3.777   3.864   1.588 -2.6294 -6.5033 -0.0625
  606MOL0     H79963   3.876   3.756   1.499 -0.9486  0.4694  0.4503
  606MOL0     H79964   3.758   3.792   1.303 -0.8259  2.2133 -1.5767
  606MOL0     H79965   3.635   3.797   1.435 -0.7328 -0.2619  0.0136
  606MOL0     H79966   3.741   4.054   1.289 -1.5587  0.3553  0.1279
  606MOL0     H79967   3.631   4.044   1.418 -0.7269  0.4817 -1.0670
  606MOL0     H79968   3.477   3.886   1.232 -3.3853  1.6954  0.5340
  606MOL0     H79969   3.614   3.946   1.136 -1.1393  1.0196 -0.6274
  606MOL0     H79970   3.400   4.109   1.285 -0.3983 -1.0702 -1.5885
  606MOL0     H79971   3.537   4.181   1.195  0.0486 -0.0781 -0.5993
  606MOL0     H79972   3.468   4.060   0.999  0.1388 -0.4312  1.0652
  606MOL0     H79973   3.364   4.196   1.043  2.8995  0.8225  0.0035
  606MOL0     H79974   4.257   4.002   1.716  0.6859  1.3704  3.1607
  606MOL0     H79975   4.433   3.951   1.887 -3.8612  1.2419  1.7389
  606MOL0     H79976   4.865   3.513   1.838 -0.7691 -0.4578  0.2780
  606MOL0     H79977   5.047   3.443   1.993  0.4905  1.1302 -0.2201
  606MOL0     H79978   6.379   2.857   3.416  0.4122  4.4175  0.9344
  606MOL0     H79979   6.604   2.793   3.460 -1.7439 -2.7537 -1.1152
  606MOL0     H79980   7.045   2.743   3.275 -0.2727 -0.8878  0.0850
  606MOL0     H79981   7.259   2.619   3.365  1.3113 -0.6473  0.6803
  606MOL0     H79982   7.446   2.584   3.447  3.9574 -1.9002  0.1292
  606MOL0     H79983   7.395   2.443   3.522 -2.6206  0.7061  1.9608
  606MOL0     H79984   7.608   2.620   3.653  1.5082 -1.1307 -0.8739
  606MOL0     H79985   7.496   2.507   3.740 -0.3174  0.7847  0.1389
  606MOL0     H79986   7.595   2.351   3.537  1.0584  0.6268 -1.2814
  606MOL0     H79987   7.669   2.352   3.696 -0.7672 -2.8840 -2.2451
  606MOL0     H79988   7.825   2.401   3.483 -0.3381 -2.7580  3.2036
  606MOL0     H79989   7.777   2.568   3.500  1.2232  0.3791  0.7159
  606MOL0     H79990   8.085   2.479   3.785  0.5991 -0.2427 -0.3974
  606MOL0     H79991   7.151   2.724   3.748  0.0626 -1.1310  0.2256
  606MOL0     H79992   6.950   2.853   3.676 -1.0355 -2.0713  0.3749
  607MOL0     O79993   5.408   9.742   4.848  0.2585  0.7325  0.0966
  607MOL0     C79994   5.386   9.666   4.939 -0.5101  0.4907  0.3068
  607MOL0     O79995   5.469   9.624   5.041 -0.4255 -0.4838  0.0504
  607MOL0     C79996   5.582   9.695   5.065 -0.3979  0.6754 -0.5868
  607MOL0     C79997   5.697   9.649   5.133 -0.0155  0.5400  0.0175
  607MOL0     C79998   5.807   9.732   5.158 -0.9191  0.7057 -0.1491
  607MOL0     C79999   5.805   9.869   5.125 -0.3558  0.6129 -0.2711
  607MOL0     O80000   5.922   9.946   5.152  0.2908  0.1936  0.1478
  607MOL0     C80001   5.915  10.083   5.124 -0.5162 -0.0479  0.2459
  607MOL0     C80002   6.047  10.146   5.166 -0.4771  0.0706  0.1037
  607MOL0     C80003   6.164  10.113   5.067 -0.0753  0.4482  0.4043
  607MOL0     C80004   6.277  10.209   5.104 -0.8698  1.1247  1.2411
  607MOL0     C80005   6.402  10.185   5.018 -0.2432 -0.0170 -0.7533
  607MOL0     C80006   6.514  10.283   5.038  0.3328 -0.1581  0.0655
  607MOL0     C80007   6.552  10.305   5.184 -1.0825 -0.6961  0.2596
  607MOL0     C80008   6.576  10.174   5.261  0.3921  0.5907  0.3994
  607MOL0     N80009   6.694  10.107   5.200  0.1160 -0.5460 -0.5079
  607MOL0     C80010   6.824  10.134   5.226 -0.2579  0.2978  1.0218
  607MOL0     C80011   6.891  10.024   5.159 -0.2549 -0.3235 -0.6381
  607MOL0     C80012   7.036  10.001   5.153 -0.4747  0.4910  0.5828
  607MOL0     C80013   7.094  10.116   5.064 -0.1401 -0.0428 -0.3468
  607MOL0     C80014   7.073  10.091   4.914 -0.4169 -0.6166 -0.1039
  607MOL0     C80015   7.116  10.201   4.818  0.1075 -0.6486  0.0469
  607MOL0     O80016   7.058  10.326   4.847 -0.2210  0.5549  0.5736
  607MOL0     C80017   6.942  10.369   4.790  0.9565  0.0581  0.4178
  607MOL0     C80018   6.857  10.293   4.716 -0.4997  0.3206  0.7047
  607MOL0     C80019   6.744  10.344   4.650  0.3162 -0.0649  0.1466
  607MOL0     C80020   6.708  10.477   4.658  0.0892 -0.3203 -0.0963
  607MOL0     C80021   6.570  10.528   4.620 -0.5741 -0.2168 -0.3722
  607MOL0     O80022   6.479  10.429   4.610 -0.4149 -0.7257 -0.1023
  607MOL0     C80023   6.359  10.442   4.540 -0.6452 -0.0901  0.9306
  607MOL0     C80024   6.336  10.522   4.426  0.4561 -0.5132 -0.0613
  607MOL0     C80025   6.221  10.512   4.348 -0.6784 -0.2182 -0.2142
  607MOL0     C80026   6.117  10.414   4.379 -0.1269 -0.3399 -0.6462
  607MOL0     O80027   6.003  10.395   4.308  0.1496  0.3211 -0.1965
  607MOL0     C80028   5.965  10.477   4.205 -0.1973 -0.1581 -0.3086
  607MOL0     C80029   5.812  10.467   4.164 -0.5020  0.2457  0.2321
  607MOL0     C80030   5.729  10.516   4.279 -0.0380  0.0136 -0.3585
  607MOL0     C80031   5.601  10.580   4.224  0.3625  0.7551 -1.2497
  607MOL0     C80032   5.494  10.613   4.325 -0.7835  0.6359 -0.3198
  607MOL0     C80033   5.417  10.500   4.391  0.0322 -0.0557  0.7265
  607MOL0     C80034   5.289  10.554   4.453 -0.0036 -0.6088  0.3232
  607MOL0     C80035   5.201  10.434   4.490 -0.0851 -0.3854  0.1527
  607MOL0    Cl80036   5.126  10.350   4.361 -0.3821 -0.2055  0.3454
  607MOL0     C80037   6.146  10.332   4.484 -0.1675 -0.2968  0.6845
  607MOL0     C80038   6.257  10.343   4.563  0.0185  0.4826 -0.2217
  607MOL0     O80039   6.550  10.644   4.587  0.0014 -0.9042 -0.3781
  607MOL0     C80040   6.795  10.561   4.730  0.1213  0.3348  0.1395
  607MOL0     C80041   6.906  10.504   4.789  0.3632  0.2890  0.0795
  607MOL0     N80042   6.799   9.948   5.097  0.0771  0.1399 -0.3991
  607MOL0     N80043   6.681  10.002   5.115 -0.1388 -0.2205  0.2798
  607MOL0     C80044   5.686   9.913   5.071 -0.6509 -0.3064  0.0949
  607MOL0     C80045   5.573   9.836   5.052 -0.3646  0.2750 -0.2718
  607MOL0     C80046   5.260   9.581   4.927  0.3289 -0.3860 -0.4577
  607MOL0     C80047   5.216   9.510   5.040 -0.7449 -0.1845 -1.0386
  607MOL0     C80048   5.116   9.427   5.045  0.7976 -1.3554  0.0794
  607MOL0     C80049   5.031   9.409   4.939 -0.5452  0.7014  0.5444
  607MOL0     O80050   4.931   9.318   4.940  0.8543  0.2442  0.2894
  607MOL0     C80051   4.908   9.237   4.822 -0.1203 -0.3649  0.2396
  607MOL0     C80052   4.867   9.096   4.872 -0.3142 -0.1777 -0.0674
  607MOL0     C80053   4.732   9.094   4.947 -0.3928 -1.1482 -0.2175
  607MOL0     C80054   4.703   8.964   5.013  0.0578  0.0334 -0.1296
  607MOL0     C80055   4.572   8.968   5.080  0.0980  0.5347  0.2238
  607MOL0     C80056   4.475   8.949   5.153 -0.6443 -0.4392  0.6021
  607MOL0     C80057   5.065   9.481   4.824 -0.0499  0.3956  0.4484
  607MOL0     C80058   5.172   9.571   4.817 -1.2811 -0.5203 -0.2394
  607MOL0     H80059   5.706   9.542   5.152 -0.3773  0.4415 -0.3261
  607MOL0     H80060   5.899   9.689   5.195  0.2000  3.4569  0.5584
  607MOL0     H80061   5.839  10.129   5.188  0.1105 -2.2549  2.7064
  607MOL0     H80062   5.878  10.109   5.024 -4.1222  0.7121  1.5961
  607MOL0     H80063   6.079  10.111   5.264 -0.7036  1.0997  0.5583
  607MOL0     H80064   6.023  10.252   5.164  0.5617  0.3301 -2.6652
  607MOL0     H80065   6.117  10.128   4.969 -2.1652  0.0282  1.2785
  607MOL0     H80066   6.200  10.010   5.063 -2.2100 -0.3324 -0.8154
  607MOL0     H80067   6.256  10.314   5.085  0.6017  1.2905  0.3633
  607MOL0     H80068   6.310  10.197   5.207  0.4206  3.0609  1.0878
  607MOL0     H80069   6.374  10.197   4.913 -1.6507 -3.5643 -0.9181
  607MOL0     H80070   6.433  10.080   5.018 -2.5641 -0.7840 -1.8403
  607MOL0     H80071   6.481  10.375   4.990 -0.2182 -0.4813 -0.1944
  607MOL0     H80072   6.597  10.243   4.979  0.4274 -0.2953  0.2870
  607MOL0     H80073   6.651  10.352   5.187  0.4201 -3.5817 -0.2376
  607MOL0     H80074   6.471  10.368   5.222 -0.6495  2.3265 -3.2108
  607MOL0     H80075   6.489  10.108   5.261  1.3114 -0.6952 -1.7058
  607MOL0     H80076   6.601  10.189   5.367 -0.7200  1.4584  0.5622
  607MOL0     H80077   6.865  10.215   5.285  1.6316  0.6411 -0.6726
  607MOL0     H80078   7.068   9.900   5.125 -3.7367 -0.7478  0.8707
  607MOL0     H80079   7.069  10.012   5.257 -1.0430 -4.2212  1.4903
  607MOL0     H80080   7.199  10.118   5.092 -0.5908 -2.3712  1.8539
  607MOL0     H80081   7.064  10.216   5.095  1.2907 -0.2038  1.7361
  607MOL0     H80082   7.125   9.996   4.895 -0.0116 -0.3759 -0.2040
  607MOL0     H80083   6.967  10.070   4.898 -0.3951 -2.7798  1.9323
  607MOL0     H80084   7.090  10.179   4.714  0.0789  2.8679 -0.8415
  607MOL0     H80085   7.223  10.224   4.825  0.4909 -2.7823  3.2295
  607MOL0     H80086   6.860  10.186   4.731  0.1536  0.2810  0.3114
  607MOL0     H80087   6.680  10.284   4.586 -0.3151  0.7679 -0.0200
  607MOL0     H80088   6.417  10.590   4.401 -0.8706  1.2450  0.2576
  607MOL0     H80089   6.219  10.576   4.260  3.5473 -2.6080 -2.3378
  607MOL0     H80090   6.038  10.466   4.124  1.7696 -1.3390  1.5475
  607MOL0     H80091   5.981  10.583   4.223  1.9286  0.1129 -3.0279
  607MOL0     H80092   5.785  10.361   4.154  0.0113  0.2619 -1.5550
  607MOL0     H80093   5.787  10.521   4.073 -1.9703 -1.5827 -0.5082
  607MOL0     H80094   5.784  10.583   4.346 -1.4965  1.1507 -0.2421
  607MOL0     H80095   5.713  10.431   4.346  1.0373  0.0447 -0.0290
  607MOL0     H80096   5.638  10.674   4.181  1.5202  1.0187  0.2311
  607MOL0     H80097   5.554  10.515   4.151 -0.7132 -0.7179  0.6566
  607MOL0     H80098   5.438  10.698   4.285 -0.3656  2.6339  3.0032
  607MOL0     H80099   5.545  10.667   4.405  0.1990 -1.4289  0.5140
  607MOL0     H80100   5.483  10.445   4.460  2.1749 -1.0300 -1.9086
  607MOL0     H80101   5.386  10.430   4.313  3.1026  0.2790 -0.9696
  607MOL0     H80102   5.322  10.606   4.543 -0.0578  1.9896 -1.0701
  607MOL0     H80103   5.246  10.630   4.387  2.8856  0.2496 -0.7388
  607MOL0     H80104   5.119  10.467   4.554 -1.3839 -1.6737 -0.7947
  607MOL0     H80105   5.266  10.361   4.540  1.9457 -0.1951 -2.0013
  607MOL0     H80106   6.072  10.262   4.520 -0.7664 -0.4870 -0.8402
  607MOL0     H80107   6.275  10.263   4.634 -2.8982  0.9018  1.1569
  607MOL0     H80108   6.764  10.664   4.743 -2.4714 -0.5840  1.8174
  607MOL0     H80109   6.986  10.570   4.822  0.7600  0.4522 -1.1542
  607MOL0     H80110   5.676  10.017   5.044  1.0822 -0.6890 -2.3824
  607MOL0     H80111   5.497   9.905   5.017 -0.9822  0.1463  0.7707
  607MOL0     H80112   5.271   9.508   5.134  0.1922 -1.5635 -1.5817
  607MOL0     H80113   5.104   9.361   5.131  2.4286 -2.5906 -0.5790
  607MOL0     H80114   4.999   9.214   4.767  0.9496 -2.8310  2.8382
  607MOL0     H80115   4.831   9.285   4.760 -3.3247 -2.5767  2.2066
  607MOL0     H80116   4.856   9.023   4.791 -1.4747  1.5897 -1.5734
  607MOL0     H80117   4.953   9.058   4.927 -1.4169 -0.0354  1.8485
  607MOL0     H80118   4.647   9.118   4.882 -0.7246  0.8815  0.8452
  607MOL0     H80119   4.744   9.179   5.016  0.2098 -1.6737  0.3431
  607MOL0     H80120   4.693   8.877   4.948 -0.2782 -1.5815  1.9576
  607MOL0     H80121   4.790   8.943   5.076 -0.6791  0.9005  1.2193
  607MOL0     H80122   4.400   8.939   5.229  2.3008 -1.2347  3.6284
  607MOL0     H80123   5.000   9.476   4.738 -1.1540 -2.8747  1.3174
  607MOL0     H80124   5.187   9.628   4.725 -0.6512  1.3538  0.9587
  608MOL0     O80125   2.259   5.036   7.209 -0.2123  0.8081 -0.3064
  608MOL0     C80126   2.292   4.971   7.115 -0.0415  0.3215  0.8820
  608MOL0     O80127   2.213   4.927   7.007  0.9017  0.4693 -0.0355
  608MOL0     C80128   2.084   4.894   7.025 -0.3722 -0.0713 -0.0047
  608MOL0     C80129   1.995   4.977   7.082  0.3923 -0.7232 -0.5531
  608MOL0     C80130   1.867   4.929   7.125  0.0826  0.0939  1.3283
  608MOL0     C80131   1.831   4.797   7.094 -0.0979  0.6604  0.4620
  608MOL0     O80132   1.703   4.752   7.122 -0.5834  0.6333 -0.8140
  608MOL0     C80133   1.591   4.801   7.050 -1.0901  0.4983 -0.4529
  608MOL0     C80134   1.472   4.718   7.079  1.0415  1.0781  0.1068
  608MOL0     C80135   1.400   4.680   6.954  0.0513 -0.2654  0.0211
  608MOL0     C80136   1.271   4.605   6.983 -0.3366 -0.1590  0.3195
  608MOL0     C80137   1.180   4.582   6.863  0.2706 -0.0613  0.1445
  608MOL0     C80138   1.044   4.531   6.925 -0.5800  0.0138 -0.4428
  608MOL0     C80139   0.948   4.482   6.824  0.4505 -0.1845  0.5640
  608MOL0     C80140   0.802   4.512   6.872  0.4332 -0.6740  0.6489
  608MOL0     N80141   0.700   4.433   6.795  0.8894  0.8220 -0.9284
  608MOL0     C80142   0.683   4.291   6.795  0.1774 -0.6028 -0.5022
  608MOL0     C80143   0.579   4.263   6.728  0.3331  0.4700 -0.0468
  608MOL0     C80144   0.511   4.134   6.716  0.7665  0.1348 -0.3386
  608MOL0     C80145   0.363   4.143   6.736  0.6660  0.3657  0.4076
  608MOL0     C80146   0.297   4.028   6.671 -0.0129  0.8686 -0.1551
  608MOL0     C80147   0.153   4.047   6.705  0.0395 -0.0872 -0.3319
  608MOL0     O80148   0.064   3.986   6.608  0.1248 -0.5475 -0.2337
  608MOL0     C80149  -0.075   3.966   6.625 -0.0318  0.6888  0.0413
  608MOL0     C80150  -0.144   4.001   6.741 -0.1785 -0.2245  0.4883
  608MOL0     C80151  -0.283   3.970   6.759  0.0251  0.3060  0.6317
  608MOL0     C80152  -0.356   3.903   6.665  0.2139  0.2255 -0.1224
  608MOL0     C80153  -0.498   3.877   6.671 -0.0281  0.2245  0.3137
  608MOL0     O80154  -0.569   3.814   6.571 -0.1724  1.0667  0.2879
  608MOL0     C80155  -0.711   3.798   6.577  0.5136 -0.0881 -0.4116
  608MOL0     C80156  -0.779   3.764   6.694 -0.5083  0.0940  0.4665
  608MOL0     C80157  -0.916   3.730   6.669 -0.5208 -0.6898  0.3723
  608MOL0     C80158  -0.983   3.743   6.546  0.3431 -0.3745 -0.1139
  608MOL0     O80159  -1.110   3.711   6.554 -0.3037  0.7937 -0.4171
  608MOL0     C80160  -1.166   3.645   6.436 -1.2383 -0.3281  0.3927
  608MOL0     C80161  -1.281   3.559   6.482  0.6752 -0.1116 -0.0160
  608MOL0     C80162  -1.291   3.409   6.425  0.2852 -0.0436  0.0672
  608MOL0     C80163  -1.334   3.396   6.273 -0.1118  0.7053 -0.2292
  608MOL0     C80164  -1.342   3.247   6.247  0.5695  0.0197 -1.4522
  608MOL0     C80165  -1.383   3.225   6.106  0.1614  0.0540  0.2912
  608MOL0     C80166  -1.360   3.072   6.091 -0.1430  0.5510  0.8358
  608MOL0     C80167  -1.443   3.035   5.972 -0.5068  0.0538 -0.7658
  608MOL0    Cl80168  -1.467   2.867   5.948 -0.0728  0.5899 -0.0792
  608MOL0     C80169  -0.914   3.793   6.427  0.4694  0.1982  0.1767
  608MOL0     C80170  -0.773   3.811   6.450  0.6739 -0.3274  0.5043
  608MOL0     O80171  -0.551   3.927   6.770 -0.6592  0.1600 -0.1802
  608MOL0     C80172  -0.290   3.861   6.551 -0.3765 -0.1594 -0.4981
  608MOL0     C80173  -0.150   3.892   6.533  0.1361 -0.1783 -0.3507
  608MOL0     N80174   0.541   4.386   6.677  0.0733  0.3685 -0.9025
  608MOL0     N80175   0.606   4.484   6.718 -0.0995 -0.7487  0.5574
  608MOL0     C80176   1.930   4.711   7.040 -0.5018  0.0617  0.0436
  608MOL0     C80177   2.055   4.758   7.003 -0.1195  0.1692 -0.6705
  608MOL0     C80178   2.435   4.945   7.093 -1.0993 -0.4952 -0.4625
  608MOL0     C80179   2.478   4.849   6.993 -0.4803 -0.0806  0.2541
  608MOL0     C80180   2.608   4.819   6.967 -0.0030 -0.6509  0.0061
  608MOL0     C80181   2.709   4.899   7.023 -0.3185 -0.4354 -0.5407
  608MOL0     O80182   2.840   4.891   6.990  0.1782 -0.2991  0.9725
  608MOL0     C80183   2.912   4.768   6.979  0.6651 -0.1814 -0.3981
  608MOL0     C80184   3.069   4.800   6.986  0.6896 -0.8630 -1.5293
  608MOL0     C80185   3.169   4.682   6.978 -0.2228  0.4056  0.2892
  608MOL0     C80186   3.325   4.722   6.945 -0.2675  0.0762  0.1054
  608MOL0     C80187   3.383   4.789   7.066 -0.2714 -0.5412  0.0157
  608MOL0     C80188   3.430   4.833   7.169 -0.0774  1.3587 -0.4416
  608MOL0     C80189   2.675   4.992   7.122  0.1260  1.1548  0.2969
  608MOL0     C80190   2.540   5.008   7.165 -0.1784  0.1005 -0.0580
  608MOL0     H80191   2.032   5.079   7.092  2.4346 -0.8462 -4.6212
  608MOL0     H80192   1.791   4.995   7.166 -0.8461  0.9942 -1.5927
  608MOL0     H80193   1.625   4.807   6.947 -0.6615 -3.0265 -0.6177
  608MOL0     H80194   1.560   4.904   7.071  0.4256  1.2640 -1.7573
  608MOL0     H80195   1.397   4.766   7.145 -1.0332 -0.3028 -1.1327
  608MOL0     H80196   1.493   4.623   7.129 -5.8880 -1.4202 -0.5685
  608MOL0     H80197   1.470   4.626   6.889 -1.3205  0.0434 -1.8057
  608MOL0     H80198   1.396   4.764   6.884  2.2638  0.3328  0.5248
  608MOL0     H80199   1.289   4.507   7.027 -2.6752 -0.8881 -0.2001
  608MOL0     H80200   1.215   4.665   7.055 -1.5174 -0.4191 -0.3586
  608MOL0     H80201   1.217   4.500   6.801 -3.1698 -1.7955  0.1218
  608MOL0     H80202   1.162   4.668   6.798  1.2395  0.5198  0.6168
  608MOL0     H80203   0.994   4.613   6.978  1.1665  1.3885 -0.8198
  608MOL0     H80204   1.076   4.455   6.997 -0.5273  0.3464 -0.1090
  608MOL0     H80205   0.962   4.543   6.734 -1.2582 -0.8718 -0.2137
  608MOL0     H80206   0.955   4.376   6.797  1.8136  0.4157 -1.7604
  608MOL0     H80207   0.782   4.619   6.864 -0.7424 -0.9296 -0.0545
  608MOL0     H80208   0.798   4.480   6.976 -0.3034 -2.2167  0.1836
  608MOL0     H80209   0.732   4.225   6.867  1.5844  0.8694 -0.0493
  608MOL0     H80210   0.558   4.048   6.765  0.1048 -1.7161 -2.7123
  608MOL0     H80211   0.526   4.112   6.610  0.3234  1.8427 -0.7843
  608MOL0     H80212   0.322   4.238   6.702 -0.3886  0.5245  1.9908
  608MOL0     H80213   0.341   4.145   6.843 -0.2396  2.7728  0.2256
  608MOL0     H80214   0.325   4.030   6.565  3.4823 -0.4730  0.6110
  608MOL0     H80215   0.339   3.930   6.697  2.2978  0.9142 -3.1301
  608MOL0     H80216   0.128   4.153   6.701  3.4410  0.8008 -1.5334
  608MOL0     H80217   0.122   4.017   6.805 -3.3502  1.2174 -0.8444
  608MOL0     H80218  -0.094   4.043   6.828  0.0452  0.4167  0.0605
  608MOL0     H80219  -0.318   3.987   6.860 -0.8424  0.9193  0.2378
  608MOL0     H80220  -0.723   3.749   6.785 -0.4261  0.4148  0.4701
  608MOL0     H80221  -0.984   3.713   6.751 -1.9437  1.5508 -0.2612
  608MOL0     H80222  -1.091   3.585   6.384  0.9356  2.8461 -0.4038
  608MOL0     H80223  -1.199   3.722   6.366 -1.1302 -0.4641  0.1906
  608MOL0     H80224  -1.376   3.611   6.467  0.2884 -1.2399 -1.8013
  608MOL0     H80225  -1.280   3.554   6.591  2.8509  4.0762  0.3477
  608MOL0     H80226  -1.370   3.358   6.480  0.1230  2.3966  2.2821
  608MOL0     H80227  -1.198   3.356   6.446 -0.9159 -1.9036  1.0007
  608MOL0     H80228  -1.432   3.443   6.263 -1.4930 -1.4962  1.8391
  608MOL0     H80229  -1.258   3.432   6.203  1.2725 -1.4835  0.0499
  608MOL0     H80230  -1.424   3.214   6.312  4.6857 -0.9418  4.0048
  608MOL0     H80231  -1.248   3.194   6.270  1.3006  2.3394  1.5554
  608MOL0     H80232  -1.330   3.284   6.032 -0.0768 -1.3668 -1.0685
  608MOL0     H80233  -1.488   3.246   6.084 -0.2751 -1.5864  0.6229
  608MOL0     H80234  -1.258   3.051   6.059 -0.8375  0.2783 -1.3435
  608MOL0     H80235  -1.377   3.008   6.178  3.4344 -2.1542 -0.1799
  608MOL0     H80236  -1.396   3.082   5.885  1.3877 -0.1755  0.0773
  608MOL0     H80237  -1.547   3.067   5.978 -1.0440 -1.8062  0.6235
  608MOL0     H80238  -0.964   3.801   6.331 -4.1433  0.8750  2.3213
  608MOL0     H80239  -0.712   3.846   6.367 -2.5113 -0.1438 -1.9730
  608MOL0     H80240  -0.348   3.813   6.472  1.3002 -0.2429 -1.7477
  608MOL0     H80241  -0.112   3.861   6.436  0.3290  1.4872 -0.8295
  608MOL0     H80242   1.924   4.603   7.038 -1.1374 -0.2659  5.3517
  608MOL0     H80243   2.135   4.703   6.954  1.3057  1.5562  0.0231
  608MOL0     H80244   2.407   4.778   6.951  1.2998 -2.8329  1.5581
  608MOL0     H80245   2.632   4.749   6.888 -0.9167  1.6720 -2.4802
  608MOL0     H80246   2.895   4.727   6.879  0.7314 -0.8260 -0.1500
  608MOL0     H80247   2.860   4.698   7.045 -0.1059  1.9169  1.3211
  608MOL0     H80248   3.074   4.874   6.906 -1.0843  0.0832 -0.8143
  608MOL0     H80249   3.097   4.848   7.080  1.5474  0.4702 -2.4181
  608MOL0     H80250   3.141   4.620   6.892  1.4167 -1.4842  1.0633
  608MOL0     H80251   3.173   4.621   7.069  3.2771  1.6059  1.0756
  608MOL0     H80252   3.392   4.640   6.919  1.6747  0.6035  3.0661
  608MOL0     H80253   3.329   4.796   6.865 -1.0632  1.4781  1.3129
  608MOL0     H80254   3.472   4.881   7.255  2.6610  0.3762 -1.1401
  608MOL0     H80255   2.755   5.056   7.157  0.6522  1.0857 -0.7428
  608MOL0     H80256   2.512   5.067   7.252  0.9698 -0.9079  1.0192
  609MOL0     O80257   1.176   8.903   5.345  0.5418 -0.0625 -0.3388
  609MOL0     C80258   1.153   8.887   5.467  0.5687  0.4115  1.0619
  609MOL0     O80259   1.031   8.870   5.533  0.0351  0.7057 -0.9435
  609MOL0     C80260   0.921   8.857   5.452 -0.0923  0.3675 -0.4063
  609MOL0     C80261   0.916   8.777   5.342 -0.2877 -0.9741  0.5638
  609MOL0     C80262   0.802   8.781   5.257 -0.5894 -0.0206  0.1245
  609MOL0     C80263   0.685   8.848   5.286 -0.2623 -0.5382  0.5449
  609MOL0     O80264   0.566   8.848   5.216  0.1012 -0.2923  0.5699
  609MOL0     C80265   0.540   8.727   5.137 -0.3136  0.5751 -0.6984
  609MOL0     C80266   0.391   8.695   5.125  0.8487  0.2517  0.3330
  609MOL0     C80267   0.309   8.783   5.031  0.7029 -0.0656  0.2930
  609MOL0     C80268   0.161   8.749   5.047  0.5420 -0.1792 -0.3999
  609MOL0     C80269   0.070   8.835   4.958  0.2815 -1.0702 -0.3409
  609MOL0     C80270   0.056   8.983   4.997  0.1563 -0.0703  0.0670
  609MOL0     C80271  -0.048   9.044   4.891 -0.1338 -0.0867  0.8753
  609MOL0     C80272  -0.059   9.196   4.906 -0.9394 -0.6989 -1.2504
  609MOL0     N80273  -0.181   9.244   4.836  0.5274 -0.0188  0.0049
  609MOL0     C80274  -0.209   9.223   4.701 -0.0517 -0.9610  0.1497
  609MOL0     C80275  -0.349   9.245   4.703 -0.1034 -0.2005 -0.3231
  609MOL0     C80276  -0.439   9.230   4.590  0.4679 -0.2074 -0.2233
  609MOL0     C80277  -0.489   9.363   4.525 -0.2882 -0.1484  0.1197
  609MOL0     C80278  -0.615   9.326   4.441 -0.3450  0.2703  1.2402
  609MOL0     C80279  -0.568   9.229   4.318 -0.4782  0.8764 -0.4753
  609MOL0     O80280  -0.651   9.259   4.210  0.2860 -0.0763 -0.1592
  609MOL0     C80281  -0.784   9.226   4.220  0.3171  0.0406  0.5236
  609MOL0     C80282  -0.842   9.125   4.300  0.1524 -0.0522  0.6844
  609MOL0     C80283  -0.979   9.100   4.288 -0.1065  0.2192  0.2854
  609MOL0     C80284  -1.063   9.165   4.194 -0.2408  0.9045  0.3862
  609MOL0     C80285  -1.185   9.105   4.153  0.1796  0.1663 -0.2247
  609MOL0     O80286  -1.265   9.031   4.231  0.0184 -0.7861  0.0670
  609MOL0     C80287  -1.234   8.897   4.270  0.1826  1.0174 -0.4534
  609MOL0     C80288  -1.314   8.854   4.369  0.2455 -0.8082 -0.8157
  609MOL0     C80289  -1.317   8.723   4.419 -0.0396 -0.3073  0.6754
  609MOL0     C80290  -1.217   8.632   4.393 -0.6307 -0.6845 -0.0410
  609MOL0     O80291  -1.240   8.502   4.449  0.2466 -0.5585  0.2697
  609MOL0     C80292  -1.140   8.391   4.427  0.0838 -0.1764  0.3554
  609MOL0     C80293  -1.086   8.359   4.562  0.3841  0.9256  0.7841
  609MOL0     C80294  -1.009   8.480   4.618 -0.7010 -0.5110 -0.4349
  609MOL0     C80295  -0.963   8.446   4.764 -0.3152 -0.3322  0.2975
  609MOL0     C80296  -0.884   8.325   4.778 -0.7983 -0.3776  0.2459
  609MOL0     C80297  -0.740   8.343   4.709 -1.0260 -0.1010 -0.1498
  609MOL0     C80298  -0.686   8.213   4.649  0.3143 -0.2349  1.1490
  609MOL0     C80299  -0.658   8.103   4.754 -1.0145  0.1696 -0.1098
  609MOL0    Cl80300  -0.510   8.171   4.847 -0.4370 -0.0866  0.3665
  609MOL0     C80301  -1.124   8.677   4.292  0.4340 -0.4028 -0.1150
  609MOL0     C80302  -1.134   8.810   4.232 -1.0760  0.6235  0.2161
  609MOL0     O80303  -1.230   9.156   4.054  0.5011  0.5189  0.3307
  609MOL0     C80304  -1.004   9.267   4.117  0.5627  0.2444 -0.2705
  609MOL0     C80305  -0.873   9.301   4.135 -0.7147  0.1956  0.5950
  609MOL0     N80306  -0.391   9.295   4.821 -0.3635  0.4689 -0.7844
  609MOL0     N80307  -0.287   9.296   4.899  0.6026 -0.5400  1.0475
  609MOL0     C80308   0.690   8.925   5.404  0.6713  0.0584 -0.0991
  609MOL0     C80309   0.807   8.932   5.481 -0.3580  1.6152 -0.3911
  609MOL0     C80310   1.281   8.880   5.555  0.3294  0.0307  0.2378
  609MOL0     C80311   1.412   8.866   5.495  0.5343  0.2579  1.0298
  609MOL0     C80312   1.530   8.873   5.578  0.0339 -0.1766  0.6226
  609MOL0     C80313   1.518   8.881   5.717  0.4019 -0.0297 -0.3483
  609MOL0     O80314   1.625   8.873   5.797  0.6544  0.2146  0.1658
  609MOL0     C80315   1.755   8.876   5.753  0.1650  0.1224 -0.1737
  609MOL0     C80316   1.837   8.908   5.876 -0.0988 -0.5052  0.2773
  609MOL0     C80317   1.989   8.918   5.851 -0.1368  0.0929 -0.4761
  609MOL0     C80318   2.058   8.846   5.738 -0.7468 -0.4932  0.6796
  609MOL0     C80319   2.204   8.835   5.760 -0.6475  0.0145  0.6450
  609MOL0     C80320   2.323   8.838   5.788 -0.2385  0.5394  0.3992
  609MOL0     C80321   1.388   8.895   5.770  0.8280 -0.0901 -0.6118
  609MOL0     C80322   1.277   8.894   5.694  0.3592  0.9282 -0.2053
  609MOL0     H80323   1.003   8.715   5.323  2.2439  1.8750  1.9802
  609MOL0     H80324   0.800   8.725   5.164 -0.0333  2.2071 -1.3137
  609MOL0     H80325   0.574   8.628   5.169 -1.6197  0.0380 -0.9262
  609MOL0     H80326   0.585   8.737   5.037 -1.1231 -0.0992 -1.1451
  609MOL0     H80327   0.338   8.691   5.221  0.1429  0.7702 -0.0258
  609MOL0     H80328   0.381   8.589   5.100 -0.8340  0.2718  0.7758
  609MOL0     H80329   0.342   8.764   4.929  0.0542 -0.7590  0.1977
  609MOL0     H80330   0.338   8.881   5.070  2.8433 -0.3882 -0.4018
  609MOL0     H80331   0.136   8.644   5.028  0.4399 -0.4608  1.1161
  609MOL0     H80332   0.139   8.760   5.154 -0.4589  2.1216 -0.7893
  609MOL0     H80333  -0.032   8.795   4.954 -0.3799  0.3976  0.7967
  609MOL0     H80334   0.120   8.824   4.862  0.1343 -3.7983 -0.1961
  609MOL0     H80335   0.158   9.023   4.990  0.6806 -0.8523  2.4771
  609MOL0     H80336   0.028   9.004   5.100  2.5019  2.3658  0.3565
  609MOL0     H80337  -0.022   9.020   4.787 -2.0791  0.9039  0.1126
  609MOL0     H80338  -0.149   9.004   4.903 -0.7705  0.4605 -1.9232
  609MOL0     H80339   0.036   9.244   4.881 -0.0585  0.0669  2.8213
  609MOL0     H80340  -0.072   9.226   5.011 -3.1984 -3.1917 -0.6966
  609MOL0     H80341  -0.155   9.182   4.616 -0.0499 -1.5332  0.4195
  609MOL0     H80342  -0.529   9.173   4.615 -0.4333  0.9385 -0.7814
  609MOL0     H80343  -0.385   9.171   4.515  2.0908 -0.1907  0.8758
  609MOL0     H80344  -0.414   9.393   4.451 -0.2434  0.3082  0.3429
  609MOL0     H80345  -0.507   9.440   4.601  0.7050 -0.7969  1.0471
  609MOL0     H80346  -0.690   9.270   4.497 -0.8323 -3.0049 -2.2609
  609MOL0     H80347  -0.665   9.414   4.399 -2.9398 -1.3356  0.7378
  609MOL0     H80348  -0.579   9.123   4.339  3.3041  1.0076  3.5738
  609MOL0     H80349  -0.464   9.250   4.288 -0.9834  0.5733 -2.6658
  609MOL0     H80350  -0.782   9.070   4.371 -1.4890  0.6127  2.6924
  609MOL0     H80351  -1.021   9.027   4.357 -1.1141  1.2252  0.7691
  609MOL0     H80352  -1.389   8.925   4.401  1.7760  0.8616 -0.7949
  609MOL0     H80353  -1.405   8.698   4.478 -0.7760  0.9540  0.1567
  609MOL0     H80354  -1.068   8.446   4.365 -0.6365  1.3301  0.7917
  609MOL0     H80355  -1.171   8.305   4.367 -1.3959  0.0325  0.7758
  609MOL0     H80356  -1.017   8.277   4.541  0.7861  1.4439  0.0037
  609MOL0     H80357  -1.165   8.319   4.626  0.4181 -2.1815 -0.9601
  609MOL0     H80358  -1.082   8.562   4.612 -2.9108 -2.4239 -1.3138
  609MOL0     H80359  -0.922   8.503   4.557  0.3945 -2.3960  0.3555
  609MOL0     H80360  -0.908   8.529   4.810 -0.7280  0.2854 -0.2897
  609MOL0     H80361  -1.049   8.437   4.831  0.2373  0.5650  1.1622
  609MOL0     H80362  -0.933   8.234   4.742 -0.8119 -0.4064  0.3349
  609MOL0     H80363  -0.877   8.310   4.886 -1.9926  2.3745  0.7783
  609MOL0     H80364  -0.666   8.374   4.783 -0.2072 -0.0284 -0.9783
  609MOL0     H80365  -0.734   8.414   4.627  0.4909 -0.8839 -0.7558
  609MOL0     H80366  -0.751   8.171   4.572  1.7463 -1.4167  0.5341
  609MOL0     H80367  -0.594   8.239   4.596 -1.5154  1.0274 -1.6570
  609MOL0     H80368  -0.638   8.006   4.708 -4.6896 -2.1572  2.6876
  609MOL0     H80369  -0.746   8.080   4.814 -1.2386 -0.1135 -0.5478
  609MOL0     H80370  -1.049   8.606   4.260 -0.5610 -0.9543 -1.2821
  609MOL0     H80371  -1.058   8.831   4.157  1.7786 -1.6140  2.2359
  609MOL0     H80372  -1.057   9.324   4.040 -0.3269  0.0749  0.2091
  609MOL0     H80373  -0.820   9.372   4.072  2.4504 -2.0834  0.4856
  609MOL0     H80374   0.598   8.971   5.436 -0.7110 -2.6090  0.0390
  609MOL0     H80375   0.802   8.985   5.576  1.7250  0.5532  0.3732
  609MOL0     H80376   1.425   8.870   5.387  2.1527  2.0555  1.2520
  609MOL0     H80377   1.625   8.872   5.527  0.5915  1.7288  1.5290
  609MOL0     H80378   1.753   8.956   5.679  0.3762  0.6911  0.4293
  609MOL0     H80379   1.790   8.778   5.719 -0.0711 -0.5041  1.3120
  609MOL0     H80380   1.808   9.005   5.918  2.6741  1.7174 -2.5062
  609MOL0     H80381   1.811   8.828   5.946  1.3312 -3.8711 -2.7287
  609MOL0     H80382   2.038   8.895   5.946 -0.6281 -3.2781 -0.8916
  609MOL0     H80383   2.004   9.023   5.828 -1.1247  0.1948 -0.7329
  609MOL0     H80384   2.018   8.744   5.734  3.3153 -2.4029  2.5363
  609MOL0     H80385   2.037   8.896   5.643 -1.2836 -1.4897  0.2453
  609MOL0     H80386   2.426   8.855   5.810 -0.8748  4.2011  1.2121
  609MOL0     H80387   1.393   8.905   5.878  2.3045 -0.8376 -0.5911
  609MOL0     H80388   1.176   8.898   5.735  0.6048 -4.3635  1.6774
  610MOL0     O80389   5.911   1.404   6.944  0.6991  0.3943  0.1288
  610MOL0     C80390   5.819   1.318   6.937 -0.4783  0.7348 -0.7215
  610MOL0     O80391   5.822   1.200   7.007  0.0577  0.5269  0.2110
  610MOL0     C80392   5.944   1.148   7.043 -0.2790  0.8769  0.5622
  610MOL0     C80393   6.026   1.075   6.943  0.2487  0.0037  0.0295
  610MOL0     C80394   6.151   1.038   6.985  0.3075 -0.2929  0.2554
  610MOL0     C80395   6.194   1.067   7.113  0.1680  0.3358  0.3918
  610MOL0     O80396   6.331   1.062   7.123 -0.0738 -0.3498 -0.2514
  610MOL0     C80397   6.380   1.052   7.254  0.0071 -0.4974  0.6558
  610MOL0     C80398   6.519   1.001   7.269  0.1435  0.4585  0.3993
  610MOL0     C80399   6.618   1.100   7.219 -0.4069  0.2653  0.6691
  610MOL0     C80400   6.763   1.036   7.196 -0.0571  0.0419 -0.2212
  610MOL0     C80401   6.815   0.987   7.328 -0.4224 -0.4970 -1.0634
  610MOL0     C80402   6.953   0.913   7.319 -0.0559 -0.2730 -0.5847
  610MOL0     C80403   7.023   0.886   7.463  0.2153 -0.0785  0.5749
  610MOL0     C80404   7.172   0.874   7.448  0.4190  0.2254 -0.3522
  610MOL0     N80405   7.202   0.761   7.355 -0.9110  0.0610  0.7194
  610MOL0     C80406   7.246   0.781   7.228  0.9390 -0.1158 -0.2756
  610MOL0     C80407   7.303   0.658   7.187  0.7534  0.1961  0.4730
  610MOL0     C80408   7.349   0.634   7.050  0.9649 -0.0779 -0.5114
  610MOL0     C80409   7.481   0.705   7.028 -0.4442 -0.4704 -0.5847
  610MOL0     C80410   7.526   0.721   6.877  0.2604 -0.0048 -0.2726
  610MOL0     C80411   7.515   0.602   6.782  0.5478  0.7299 -0.1485
  610MOL0     O80412   7.379   0.554   6.781  1.5947 -0.0172 -0.2605
  610MOL0     C80413   7.286   0.605   6.697  0.8294  0.2700  0.0119
  610MOL0     C80414   7.310   0.701   6.598 -0.3099 -0.3867  0.6073
  610MOL0     C80415   7.197   0.762   6.527 -0.3153 -0.5408 -0.4430
  610MOL0     C80416   7.069   0.713   6.548  1.1742  0.1787 -0.1728
  610MOL0     C80417   6.953   0.789   6.495 -0.5211  0.7130  1.1163
  610MOL0     O80418   6.827   0.747   6.518  0.6025  0.1288  0.6496
  610MOL0     C80419   6.745   0.805   6.427  0.3404  0.4509  0.6542
  610MOL0     C80420   6.708   0.728   6.311 -0.1651  0.8070 -0.2779
  610MOL0     C80421   6.618   0.770   6.216 -0.0138  0.5691 -0.4917
  610MOL0     C80422   6.563   0.900   6.225  0.1271 -0.1360 -0.5564
  610MOL0     O80423   6.469   0.927   6.140 -0.7290  0.3895  0.0374
  610MOL0     C80424   6.351   0.847   6.154 -0.5940  0.3373 -0.8695
  610MOL0     C80425   6.267   0.846   6.023 -0.0548  0.6263  0.0915
  610MOL0     C80426   6.152   0.939   6.041 -0.0601 -0.3995  0.4849
  610MOL0     C80427   6.075   0.952   5.914 -0.2284 -0.4824 -0.5558
  610MOL0     C80428   5.962   1.062   5.943 -0.0033  0.2167 -0.4689
  610MOL0     C80429   5.848   1.042   5.847 -0.4002 -0.3553 -0.0258
  610MOL0     C80430   5.740   1.149   5.875  0.2317  0.9338  0.0512
  610MOL0     C80431   5.596   1.093   5.862 -0.0525  0.2328  0.4419
  610MOL0    Cl80432   5.491   1.217   5.828 -0.3548  0.4654 -0.0751
  610MOL0     C80433   6.595   0.985   6.327 -0.9162  0.4523  0.2592
  610MOL0     C80434   6.687   0.934   6.429 -0.0190  0.4646  1.1394
  610MOL0     O80435   6.977   0.874   6.416 -0.2800  0.2283  0.5906
  610MOL0     C80436   7.047   0.602   6.639  0.1084 -0.0657  0.0064
  610MOL0     C80437   7.153   0.552   6.716  1.3366 -0.3119 -0.8152
  610MOL0     N80438   7.291   0.572   7.293  0.0688  0.1277 -0.3569
  610MOL0     N80439   7.235   0.631   7.388  0.1471  0.5445  0.5989
  610MOL0     C80440   6.125   1.142   7.197 -0.1071 -0.6633 -0.6592
  610MOL0     C80441   5.999   1.189   7.165  0.4141  0.3115  0.2953
  610MOL0     C80442   5.706   1.347   6.847 -1.2594 -0.1000 -0.7250
  610MOL0     C80443   5.629   1.238   6.812 -0.7176 -0.1460  0.4183
  610MOL0     C80444   5.526   1.267   6.717 -0.5551 -0.0352  0.5118
  610MOL0     C80445   5.506   1.394   6.657 -0.1648  0.1602  0.6807
  610MOL0     O80446   5.415   1.400   6.546  0.0661  0.9173  0.3162
  610MOL0     C80447   5.352   1.529   6.516 -0.9289 -0.2720  0.1191
  610MOL0     C80448   5.215   1.503   6.470  1.1189  0.5136  0.1441
  610MOL0     C80449   5.124   1.400   6.555 -0.2734  0.3456  0.1448
  610MOL0     C80450   4.982   1.387   6.491 -0.4044  0.6357  0.4936
  610MOL0     C80451   4.907   1.515   6.496  0.4975 -0.2012 -0.3770
  610MOL0     C80452   4.830   1.609   6.483 -0.5018 -0.5175 -1.1002
  610MOL0     C80453   5.590   1.494   6.704  0.0100 -0.7900 -0.8385
  610MOL0     C80454   5.682   1.471   6.796 -0.3210 -0.1519 -0.0449
  610MOL0     H80455   5.992   1.057   6.842 -0.1431 -0.3351  0.2235
  610MOL0     H80456   6.217   0.998   6.908  0.8380  0.5150  0.2696
  610MOL0     H80457   6.311   0.990   7.312 -2.6434 -2.3386 -3.9389
  610MOL0     H80458   6.393   1.151   7.300  3.6416 -1.5172  2.2518
  610MOL0     H80459   6.532   0.899   7.230  2.9655 -0.1736  2.6126
  610MOL0     H80460   6.535   0.986   7.376 -3.0711  3.0813  1.4217
  610MOL0     H80461   6.618   1.194   7.274 -0.0601  1.0495 -0.6138
  610MOL0     H80462   6.591   1.135   7.119  0.2459 -0.5617  0.1873
  610MOL0     H80463   6.757   0.946   7.134  1.5095 -0.0016 -0.3717
  610MOL0     H80464   6.837   1.101   7.147  0.5903 -0.5442 -0.0413
  610MOL0     H80465   6.741   0.922   7.377 -0.1187 -0.9236 -1.1676
  610MOL0     H80466   6.835   1.074   7.392 -2.8700 -1.3259  1.0187
  610MOL0     H80467   7.020   0.987   7.274 -0.4062  1.0469  0.9680
  610MOL0     H80468   6.944   0.818   7.265  2.2893 -0.2644 -1.0747
  610MOL0     H80469   6.998   0.969   7.530 -5.5964 -1.7119  1.0140
  610MOL0     H80470   6.973   0.795   7.498  0.5048 -0.2533  0.5310
  610MOL0     H80471   7.212   0.853   7.547 -0.7318  1.7029  0.4611
  610MOL0     H80472   7.221   0.968   7.423 -0.8233  0.0719 -4.0446
  610MOL0     H80473   7.216   0.859   7.158 -2.1256 -0.2891  0.7000
  610MOL0     H80474   7.271   0.674   6.985 -1.0610 -3.8450 -0.7072
  610MOL0     H80475   7.367   0.529   7.025  0.2565 -0.3511  0.0931
  610MOL0     H80476   7.546   0.636   7.081 -1.9602 -1.3766  0.1640
  610MOL0     H80477   7.494   0.806   7.069 -1.0662  0.3299 -2.2559
  610MOL0     H80478   7.472   0.803   6.828  0.6863 -0.1497 -1.0051
  610MOL0     H80479   7.633   0.742   6.878  0.0548  1.1330 -0.3668
  610MOL0     H80480   7.576   0.525   6.830 -0.2569  2.5255  4.2372
  610MOL0     H80481   7.556   0.614   6.681  0.1830  1.1918 -0.2460
  610MOL0     H80482   7.406   0.751   6.594 -0.5069  0.3876  3.3336
  610MOL0     H80483   7.214   0.839   6.453 -1.7421 -1.2183 -1.5233
  610MOL0     H80484   6.755   0.631   6.301 -0.0484  1.0164 -1.9540
  610MOL0     H80485   6.590   0.708   6.132 -2.4980  1.6909 -0.5660
  610MOL0     H80486   6.289   0.893   6.232  2.3300  5.1166 -0.9151
  610MOL0     H80487   6.365   0.742   6.181 -1.2822  1.1017  2.9750
  610MOL0     H80488   6.235   0.746   5.993  2.0763  0.3418 -1.4225
  610MOL0     H80489   6.329   0.889   5.944 -1.6098  4.5043  0.7432
  610MOL0     H80490   6.198   1.037   6.058 -1.2953  0.1309  0.9315
  610MOL0     H80491   6.091   0.910   6.127 -0.1599  2.3544  1.4462
  610MOL0     H80492   6.138   0.976   5.827  0.6507 -3.2280 -0.7646
  610MOL0     H80493   6.030   0.862   5.870  0.0947 -1.0544  0.2786
  610MOL0     H80494   6.005   1.162   5.940 -1.2652  0.8271  0.6904
  610MOL0     H80495   5.926   1.043   6.044  2.6225  1.0245  0.7166
  610MOL0     H80496   5.792   0.949   5.863 -0.2930 -0.1202  1.8489
  610MOL0     H80497   5.878   1.019   5.744  1.9308  0.2748  0.4615
  610MOL0     H80498   5.745   1.188   5.977 -2.2006  1.9345 -0.1357
  610MOL0     H80499   5.757   1.238   5.814  1.5494  1.1905  0.7598
  610MOL0     H80500   5.551   1.047   5.951  1.6864 -1.1830  0.6401
  610MOL0     H80501   5.603   1.020   5.780  3.5836 -0.1896  0.9698
  610MOL0     H80502   6.580   1.092   6.342  1.3838  0.6512  1.4595
  610MOL0     H80503   6.727   0.992   6.511  1.8192  0.4578  0.3025
  610MOL0     H80504   6.952   0.550   6.654  0.0475 -0.0675 -0.3639
  610MOL0     H80505   7.131   0.472   6.786  0.7006 -0.7062 -1.4582
  610MOL0     H80506   6.163   1.183   7.291  3.7340 -0.7522 -1.9772
  610MOL0     H80507   5.947   1.259   7.229 -0.0579  0.1318  0.1157
  610MOL0     H80508   5.650   1.139   6.852 -1.9359 -1.5596 -2.1992
  610MOL0     H80509   5.461   1.187   6.685 -0.0704 -0.9371  1.7081
  610MOL0     H80510   5.421   1.573   6.442  1.7835 -0.4172  2.4020
  610MOL0     H80511   5.353   1.597   6.602 -0.9479  1.7268 -1.3606
  610MOL0     H80512   5.165   1.599   6.456 -0.1413 -0.0408  0.6616
  610MOL0     H80513   5.229   1.465   6.369 -0.1201 -0.6445  0.3682
  610MOL0     H80514   5.109   1.431   6.659 -2.5329 -2.7366  0.8537
  610MOL0     H80515   5.169   1.302   6.571 -2.0030 -0.5099 -0.0083
  610MOL0     H80516   4.994   1.345   6.391  3.4532  0.4557  0.8810
  610MOL0     H80517   4.921   1.323   6.556 -1.6953  0.6683 -0.6386
  610MOL0     H80518   4.757   1.685   6.467 -0.8875 -0.7347 -0.4130
  610MOL0     H80519   5.568   1.594   6.667  1.6038  0.4201  1.2657
  610MOL0     H80520   5.752   1.549   6.827 -2.7996  1.5306  1.7104
  611MOL0     O80521   5.068   2.424   8.736  0.1685 -0.2617  0.2472
  611MOL0     C80522   5.099   2.305   8.764 -0.6241 -0.2882 -0.7205
  611MOL0     O80523   5.016   2.199   8.745 -0.5933  0.1388  0.2035
  611MOL0     C80524   4.913   2.223   8.660  0.3789 -0.7394  0.2741
  611MOL0     C80525   4.778   2.209   8.710  0.0583  0.0716  0.6887
  611MOL0     C80526   4.675   2.260   8.639  0.2290  1.0346 -0.1096
  611MOL0     C80527   4.695   2.312   8.514  0.5680 -0.0879 -0.0707
  611MOL0     O80528   4.580   2.363   8.451  0.2587  0.4259 -0.3886
  611MOL0     C80529   4.595   2.487   8.375 -0.0385  0.1506 -0.2479
  611MOL0     C80530   4.469   2.520   8.300 -0.0052  1.2751 -0.6427
  611MOL0     C80531   4.354   2.579   8.379  0.1220  0.6165  0.1060
  611MOL0     C80532   4.226   2.599   8.303 -0.2920 -0.1761  0.7022
  611MOL0     C80533   4.145   2.699   8.381 -0.1080 -0.2030 -0.0922
  611MOL0     C80534   4.000   2.688   8.356  0.1546  0.1782  0.2887
  611MOL0     C80535   3.909   2.796   8.421 -1.0572  0.5509 -0.3633
  611MOL0     C80536   3.914   2.773   8.574  0.1775  0.0131  1.0186
  611MOL0     N80537   3.800   2.837   8.645 -0.6944 -0.6856 -0.9125
  611MOL0     C80538   3.806   2.948   8.724  0.5304 -0.2291 -0.6863
  611MOL0     C80539   3.680   2.958   8.781  0.8208  0.6919 -0.1467
  611MOL0     C80540   3.646   3.067   8.877  0.6138 -0.1697 -0.8723
  611MOL0     C80541   3.499   3.063   8.932 -0.8519  0.7586 -0.2861
  611MOL0     C80542   3.499   3.128   9.075  0.7280  0.1542  0.2903
  611MOL0     C80543   3.361   3.127   9.139  0.2361 -0.2876  0.2419
  611MOL0     O80544   3.305   2.995   9.157  0.0996 -0.5387  0.2317
  611MOL0     C80545   3.347   2.934   9.270 -0.6156  0.1979  1.5691
  611MOL0     C80546   3.362   2.996   9.396 -0.0569  0.1469  0.4041
  611MOL0     C80547   3.411   2.920   9.498 -0.2210 -0.1322  0.3860
  611MOL0     C80548   3.433   2.780   9.488  0.9751  0.2845  0.2463
  611MOL0     C80549   3.485   2.691   9.605  0.3857 -0.6714  0.3543
  611MOL0     O80550   3.461   2.559   9.600 -0.4558 -0.0735 -0.0705
  611MOL0     C80551   3.544   2.464   9.673  1.4131  0.0431  0.3770
  611MOL0     C80552   3.679   2.473   9.708  0.0875  0.1038 -0.7921
  611MOL0     C80553   3.747   2.358   9.754  0.2172 -0.4756  0.2860
  611MOL0     C80554   3.675   2.245   9.789  0.4231  0.2626 -0.1702
  611MOL0     O80555   3.743   2.137   9.826 -0.8046 -0.2562 -1.0669
  611MOL0     C80556   3.819   2.150   9.949 -1.6465  0.1192 -0.6584
  611MOL0     C80557   3.955   2.091   9.910 -0.4334 -0.0966  0.4013
  611MOL0     C80558   4.041   2.061  10.032 -0.0904 -0.9180 -0.7277
  611MOL0     C80559   4.195   2.053   9.999 -0.1548 -0.2078  0.1159
  611MOL0     C80560   4.281   1.987  10.109 -0.4773 -1.4346  0.3569
  611MOL0     C80561   4.431   2.019  10.090 -0.6335  0.8477 -0.1767
  611MOL0     C80562   4.533   1.926  10.175  0.2663 -0.1994 -0.0642
  611MOL0     C80563   4.667   1.929  10.115  0.0283 -0.1283  0.2734
  611MOL0    Cl80564   4.773   1.841  10.218  0.1775 -0.2502 -0.4009
  611MOL0     C80565   3.532   2.242   9.760  0.3691  0.3542  0.4839
  611MOL0     C80566   3.472   2.351   9.694 -0.0274 -0.1752 -0.0272
  611MOL0     O80567   3.558   2.750   9.686 -0.3399 -0.1095  0.3657
  611MOL0     C80568   3.410   2.725   9.368 -0.2007  0.0492 -0.1692
  611MOL0     C80569   3.366   2.800   9.256  0.4699 -0.0632 -0.5044
  611MOL0     N80570   3.599   2.852   8.729 -0.2640  0.6696  0.6866
  611MOL0     N80571   3.676   2.788   8.646  0.3002  0.5644 -0.0750
  611MOL0     C80572   4.820   2.313   8.459  0.4443  0.3774  1.5363
  611MOL0     C80573   4.932   2.282   8.531 -0.0047 -0.8734  0.1997
  611MOL0     C80574   5.227   2.281   8.837 -0.5271 -0.1617  0.8109
  611MOL0     C80575   5.306   2.390   8.873 -0.7372 -0.0998  0.1332
  611MOL0     C80576   5.428   2.368   8.934  0.9638 -0.5572 -1.0679
  611MOL0     C80577   5.469   2.243   8.966 -0.8381  0.6479  0.3144
  611MOL0     O80578   5.603   2.237   8.998  0.2407  0.3552  0.0670
  611MOL0     C80579   5.648   2.101   9.025  0.6892  0.6645 -0.4368
  611MOL0     C80580   5.592   2.043   9.166  0.0272 -0.9748  0.1403
  611MOL0     C80581   5.644   2.115   9.294  0.1612 -0.4245 -0.3441
  611MOL0     C80582   5.579   2.251   9.316 -0.1699  0.5091  0.3147
  611MOL0     C80583   5.613   2.313   9.441 -0.2871 -0.8529  0.4861
  611MOL0     C80584   5.639   2.347   9.557 -0.1714  0.0879  0.3879
  611MOL0     C80585   5.397   2.135   8.920 -0.1445  0.1360 -0.3011
  611MOL0     C80586   5.274   2.152   8.857 -0.1547  0.1780  0.0505
  611MOL0     H80587   4.776   2.178   8.814  2.8430  0.1461  0.8408
  611MOL0     H80588   4.577   2.255   8.685 -1.1649  1.8522 -2.7859
  611MOL0     H80589   4.673   2.474   8.299  1.7436  1.2790  1.3059
  611MOL0     H80590   4.637   2.567   8.437  2.5175 -1.6525  0.5119
  611MOL0     H80591   4.436   2.428   8.250 -1.6139  1.5600 -0.1763
  611MOL0     H80592   4.503   2.592   8.225  1.6705 -1.9017 -3.1814
  611MOL0     H80593   4.386   2.668   8.434 -2.3128  2.8384 -1.8156
  611MOL0     H80594   4.334   2.505   8.457  1.5461  0.0130 -0.0566
  611MOL0     H80595   4.237   2.642   8.203 -1.1183  0.1724  0.7524
  611MOL0     H80596   4.169   2.510   8.277  1.1548  0.0727 -4.4456
  611MOL0     H80597   4.178   2.800   8.357 -0.5284  0.2694  1.2209
  611MOL0     H80598   4.160   2.681   8.488  1.3653 -0.1611 -0.2798
  611MOL0     H80599   3.965   2.588   8.380 -0.7006 -0.2202 -2.2874
  611MOL0     H80600   3.989   2.701   8.248  2.2145  1.1343  0.1532
  611MOL0     H80601   3.939   2.899   8.405  0.7730  0.3302  1.2390
  611MOL0     H80602   3.807   2.777   8.386 -1.0644 -3.2127  1.1247
  611MOL0     H80603   4.008   2.818   8.606  3.0674 -2.1395 -3.2694
  611MOL0     H80604   3.916   2.667   8.602  0.2750 -0.6345 -1.2110
  611MOL0     H80605   3.893   3.011   8.737  0.3658 -0.0109 -0.6237
  611MOL0     H80606   3.663   3.161   8.823 -2.7592 -0.5556 -2.8481
  611MOL0     H80607   3.710   3.078   8.965 -0.3347 -0.3066 -0.1445
  611MOL0     H80608   3.473   2.959   8.952 -1.2149  1.5455  4.5455
  611MOL0     H80609   3.446   3.126   8.860 -1.2679  2.8888  1.7309
  611MOL0     H80610   3.557   3.072   9.149 -1.6326 -2.2376  0.4943
  611MOL0     H80611   3.530   3.233   9.073 -1.9028  1.0330  1.2036
  611MOL0     H80612   3.287   3.163   9.066 -1.9900 -2.3623  1.3103
  611MOL0     H80613   3.372   3.190   9.227 -0.3092  2.2960 -1.4281
  611MOL0     H80614   3.340   3.100   9.416  0.8296 -0.2605  4.5040
  611MOL0     H80615   3.424   2.966   9.596 -0.2035  2.2580 -0.6874
  611MOL0     H80616   3.721   2.571   9.690 -1.6805  0.6484 -2.3476
  611MOL0     H80617   3.855   2.355   9.764  0.3176 -1.9284 -0.8697
  611MOL0     H80618   3.763   2.099  10.028  1.7916 -0.1221  1.8585
  611MOL0     H80619   3.839   2.255   9.970  3.1324 -0.5415 -0.7505
  611MOL0     H80620   4.009   2.172   9.861 -1.1832  2.8865  4.0701
  611MOL0     H80621   3.950   2.008   9.839  1.0388 -0.0079  0.1534
  611MOL0     H80622   4.015   1.962  10.071 -0.0768 -0.2090  1.1865
  611MOL0     H80623   4.016   2.126  10.116  0.6507 -1.7139  0.1352
  611MOL0     H80624   4.199   1.984   9.914  0.1961 -0.4749  0.3427
  611MOL0     H80625   4.247   2.141   9.959  3.3154 -2.8464 -1.7665
  611MOL0     H80626   4.274   1.878  10.101 -0.0961 -1.3529 -1.6449
  611MOL0     H80627   4.241   2.016  10.207 -0.1650 -1.0707  0.3774
  611MOL0     H80628   4.453   2.123  10.114 -2.0621  1.2556 -0.5561
  611MOL0     H80629   4.446   2.010   9.982 -0.9135 -2.5282 -0.0497
  611MOL0     H80630   4.546   1.956  10.280  0.0381 -0.5087  0.0534
  611MOL0     H80631   4.487   1.827  10.183  0.0825 -0.0110  1.6868
  611MOL0     H80632   4.702   2.032  10.106  0.4940  0.1399  3.8040
  611MOL0     H80633   4.658   1.888  10.014  1.3288 -0.2558  0.1907
  611MOL0     H80634   3.470   2.156   9.778 -1.7312  0.8665 -3.2965
  611MOL0     H80635   3.371   2.352   9.656 -0.4427 -1.2964  0.9773
  611MOL0     H80636   3.436   2.621   9.347  3.2190  1.0914 -1.8159
  611MOL0     H80637   3.342   2.741   9.167  0.8539  0.8234 -1.2115
  611MOL0     H80638   4.826   2.349   8.357 -2.5854 -1.8781  0.4038
  611MOL0     H80639   5.031   2.300   8.491 -0.5012 -0.1136 -0.7357
  611MOL0     H80640   5.279   2.493   8.851 -2.3983 -1.2455 -4.1989
  611MOL0     H80641   5.487   2.457   8.951 -0.9403  0.8101 -1.3704
  611MOL0     H80642   5.757   2.108   9.033  0.9288 -2.1799 -0.1839
  611MOL0     H80643   5.627   2.033   8.942  1.5544  0.6892 -0.6914
  611MOL0     H80644   5.483   2.053   9.173  0.0608  1.7271 -2.0206
  611MOL0     H80645   5.615   1.936   9.173 -2.9014 -1.5855  2.6430
  611MOL0     H80646   5.750   2.133   9.276  0.2214 -1.2905 -0.9339
  611MOL0     H80647   5.617   2.048   9.376  1.0941  0.0022  0.3250
  611MOL0     H80648   5.603   2.323   9.237 -2.1767 -1.5000 -2.2882
  611MOL0     H80649   5.470   2.248   9.322 -0.4564 -0.7089 -3.2610
  611MOL0     H80650   5.670   2.371   9.657  1.4598  1.5698 -0.4227
  611MOL0     H80651   5.419   2.030   8.938 -1.0744 -0.0841 -0.3949
  611MOL0     H80652   5.225   2.059   8.830  1.4225 -0.7841  0.3359
  612MOL0     O80653   2.374   5.984   4.220 -0.4958  0.1580 -0.2844
  612MOL0     C80654   2.381   6.075   4.142  0.3392  0.5262 -0.1283
  612MOL0     O80655   2.277   6.148   4.094  0.8026  0.8685  0.2106
  612MOL0     C80656   2.155   6.078   4.090  0.9706 -0.9904 -0.2157
  612MOL0     C80657   2.130   5.986   3.985  0.3202  0.0339  0.7752
  612MOL0     C80658   1.991   5.941   3.965  0.0085 -0.3448 -0.0110
  612MOL0     C80659   1.894   5.966   4.059  0.6014 -1.5048 -1.0594
  612MOL0     O80660   1.773   5.912   4.024  0.8613  0.0824  0.6308
  612MOL0     C80661   1.699   5.863   4.137  0.4975  0.8267 -0.3552
  612MOL0     C80662   1.576   5.940   4.155  0.4590  0.2791 -0.1347
  612MOL0     C80663   1.494   5.908   4.286 -0.3646 -0.4278  0.7486
  612MOL0     C80664   1.340   5.948   4.270 -0.1997  0.2345  0.4384
  612MOL0     C80665   1.262   5.919   4.399  0.8055  0.1255 -0.4794
  612MOL0     C80666   1.120   5.924   4.383 -0.3885  0.1502 -0.5028
  612MOL0     C80667   1.035   5.920   4.504 -0.4177 -0.3438  0.0715
  612MOL0     C80668   1.025   5.777   4.573 -0.1307 -0.4227 -0.5154
  612MOL0     N80669   0.895   5.712   4.556 -0.0898 -0.8878 -0.8183
  612MOL0     C80670   0.820   5.703   4.438  0.2041 -0.2113  0.2450
  612MOL0     C80671   0.713   5.625   4.474  0.3459 -0.1017  0.5547
  612MOL0     C80672   0.597   5.563   4.393 -0.3071 -0.3003 -0.1233
  612MOL0     C80673   0.461   5.626   4.430  0.0955  0.6832 -0.2060
  612MOL0     C80674   0.387   5.539   4.527  0.1643  0.1001 -0.5585
  612MOL0     C80675   0.242   5.564   4.551  0.1027 -0.4960  0.5304
  612MOL0     O80676   0.176   5.559   4.418 -0.4227 -0.9272 -0.4099
  612MOL0     C80677   0.033   5.550   4.428 -0.2218  0.0131  0.2519
  612MOL0     C80678  -0.038   5.547   4.308 -0.4162 -0.2176  0.1673
  612MOL0     C80679  -0.177   5.561   4.313 -0.3569  0.4967 -0.0133
  612MOL0     C80680  -0.243   5.570   4.435 -0.1863 -0.1907 -0.4397
  612MOL0     C80681  -0.390   5.572   4.453 -0.1502  1.8584 -0.7415
  612MOL0     O80682  -0.437   5.588   4.579  0.5879  0.4000 -0.0449
  612MOL0     C80683  -0.568   5.595   4.600 -0.4787  0.1936 -0.0477
  612MOL0     C80684  -0.645   5.708   4.570  0.2249 -0.1358 -0.0032
  612MOL0     C80685  -0.772   5.728   4.614 -0.0032 -0.0384  0.0608
  612MOL0     C80686  -0.832   5.628   4.699  0.7552  0.7018  0.2288
  612MOL0     O80687  -0.953   5.635   4.764 -0.2143 -0.3540  0.9153
  612MOL0     C80688  -1.013   5.764   4.772 -0.4204 -0.3027 -0.8659
  612MOL0     C80689  -1.152   5.751   4.846  0.1394  0.8663  0.4931
  612MOL0     C80690  -1.147   5.659   4.967 -0.2027  1.0769 -0.6553
  612MOL0     C80691  -1.277   5.633   5.035 -0.3083 -0.5172 -0.5638
  612MOL0     C80692  -1.272   5.566   5.171 -0.5425 -0.0920  0.6424
  612MOL0     C80693  -1.413   5.559   5.232  0.6354 -0.1188 -0.8653
  612MOL0     C80694  -1.405   5.519   5.377  0.1550 -0.2692  1.0209
  612MOL0     C80695  -1.542   5.497   5.434 -0.0204  0.0252 -0.2719
  612MOL0    Cl80696  -1.615   5.666   5.461 -0.1937 -0.1387  0.1592
  612MOL0     C80697  -0.759   5.512   4.726 -0.1455 -0.4499  0.2242
  612MOL0     C80698  -0.626   5.505   4.690 -0.4508  0.9426  0.7274
  612MOL0     O80699  -0.455   5.561   4.347 -0.1616 -0.0963 -0.3166
  612MOL0     C80700  -0.166   5.579   4.552 -0.0295 -0.0786  0.1722
  612MOL0     C80701  -0.030   5.570   4.552  0.3183 -0.2178  1.8490
  612MOL0     N80702   0.730   5.603   4.606  0.1132 -0.4531  0.2343
  612MOL0     N80703   0.836   5.643   4.656 -0.5921  0.0153  0.9279
  612MOL0     C80704   1.913   6.051   4.174 -0.3539  0.8571  0.4880
  612MOL0     C80705   2.048   6.118   4.182 -0.0107  0.3912  0.1530
  612MOL0     C80706   2.519   6.114   4.104  0.3673  0.1265  0.3590
  612MOL0     C80707   2.632   6.045   4.151 -0.3273  0.1350 -0.4133
  612MOL0     C80708   2.764   6.081   4.108 -0.1417  0.0186 -0.0452
  612MOL0     C80709   2.775   6.189   4.024  0.1432 -0.4769  0.1489
  612MOL0     O80710   2.902   6.241   3.995  0.5408  0.5709  0.4082
  612MOL0     C80711   3.025   6.167   4.007 -0.4769  0.6477 -1.0997
  612MOL0     C80712   3.126   6.250   3.947 -0.1909  0.4655 -0.1301
  612MOL0     C80713   3.117   6.263   3.794 -0.1660  0.4265  0.1382
  612MOL0     C80714   2.992   6.301   3.720  1.0997  0.1279 -0.8908
  612MOL0     C80715   3.010   6.279   3.575 -0.3631 -0.6351  0.0190
  612MOL0     C80716   3.003   6.283   3.454 -0.1696  0.3296 -0.0423
  612MOL0     C80717   2.667   6.269   3.973  0.4790  0.5818 -0.8976
  612MOL0     C80718   2.536   6.227   4.024 -0.3900 -0.0237  0.4462
  612MOL0     H80719   2.200   5.971   3.903  0.2525  2.9327  0.0972
  612MOL0     H80720   1.968   5.881   3.878 -0.3021  0.7446 -0.7041
  612MOL0     H80721   1.752   5.865   4.233 -0.7908  0.3191  0.3956
  612MOL0     H80722   1.672   5.757   4.129  1.3175  0.5831 -0.0040
  612MOL0     H80723   1.521   5.935   4.061 -1.2801 -0.9342  0.8854
  612MOL0     H80724   1.598   6.047   4.167 -1.2302  0.4270  2.5747
  612MOL0     H80725   1.534   5.954   4.376 -3.4605  1.2989  1.3686
  612MOL0     H80726   1.505   5.799   4.295 -1.2556 -0.3712  3.6433
  612MOL0     H80727   1.329   6.052   4.238  0.6980  0.7649  1.8072
  612MOL0     H80728   1.300   5.881   4.193 -0.5408 -0.5844  1.3073
  612MOL0     H80729   1.290   5.984   4.483 -0.1447 -0.3890  0.2561
  612MOL0     H80730   1.286   5.816   4.424  0.8503 -0.0671 -1.3024
  612MOL0     H80731   1.082   5.844   4.318  0.2767 -0.8986  0.3692
  612MOL0     H80732   1.105   6.014   4.323  0.2020  0.6946  0.1485
  612MOL0     H80733   1.077   5.998   4.568  1.9907  1.5422 -3.4353
  612MOL0     H80734   0.934   5.954   4.481 -1.0897 -0.1998  2.8997
  612MOL0     H80735   1.053   5.781   4.678  0.6123 -0.8053 -0.6953
  612MOL0     H80736   1.098   5.711   4.526  2.3503  1.5473  0.3593
  612MOL0     H80737   0.837   5.755   4.345  0.6635 -2.7188 -1.1664
  612MOL0     H80738   0.596   5.455   4.409 -0.6884 -0.3317 -0.3436
  612MOL0     H80739   0.611   5.578   4.285 -0.5336  2.1585  0.1153
  612MOL0     H80740   0.405   5.633   4.336  0.3926 -1.2242 -0.5621
  612MOL0     H80741   0.455   5.730   4.462  1.0872  0.8006 -0.3489
  612MOL0     H80742   0.401   5.437   4.490  3.1448  0.3913 -0.4670
  612MOL0     H80743   0.442   5.543   4.621 -0.6517 -0.8147 -0.0176
  612MOL0     H80744   0.225   5.667   4.584 -0.2360  0.4645 -2.3619
  612MOL0     H80745   0.204   5.482   4.612 -0.6206 -0.0650  0.6719
  612MOL0     H80746   0.012   5.527   4.213  0.1809  3.9171 -0.5442
  612MOL0     H80747  -0.234   5.557   4.221  1.7030  2.2709 -1.4603
  612MOL0     H80748  -0.591   5.795   4.536  0.8625  0.5949  2.6254
  612MOL0     H80749  -0.830   5.813   4.580 -0.8843 -0.8884 -0.6614
  612MOL0     H80750  -1.011   5.816   4.676  0.8137  0.2456 -0.5681
  612MOL0     H80751  -0.952   5.829   4.836  0.5356 -1.0831 -0.9687
  612MOL0     H80752  -1.215   5.709   4.767  1.2516  2.0608 -1.0631
  612MOL0     H80753  -1.198   5.847   4.872 -2.2733  0.0215 -0.3568
  612MOL0     H80754  -1.080   5.709   5.037  0.5730 -1.2811  0.3874
  612MOL0     H80755  -1.110   5.560   4.941 -2.3163  0.5591 -1.9715
  612MOL0     H80756  -1.337   5.725   5.039 -0.2636 -0.5119  2.4218
  612MOL0     H80757  -1.327   5.561   4.969  1.1383  0.2714 -2.6418
  612MOL0     H80758  -1.206   5.619   5.241  0.7871 -1.4699  0.4877
  612MOL0     H80759  -1.242   5.461   5.163 -1.1867 -0.1900 -0.7078
  612MOL0     H80760  -1.476   5.484   5.183 -0.0613 -2.4972  3.1861
  612MOL0     H80761  -1.459   5.658   5.219  1.2290  0.2113 -0.4688
  612MOL0     H80762  -1.339   5.433   5.387 -0.0915 -0.6100 -0.1572
  612MOL0     H80763  -1.354   5.602   5.428  0.4898  0.4663 -0.4447
  612MOL0     H80764  -1.540   5.456   5.535  0.1196  1.2991  0.2639
  612MOL0     H80765  -1.606   5.432   5.373  2.1399 -2.0623 -0.4574
  612MOL0     H80766  -0.809   5.435   4.784 -2.5503 -0.9278 -2.2410
  612MOL0     H80767  -0.559   5.429   4.729  0.1794  1.6774  1.0974
  612MOL0     H80768  -0.206   5.600   4.651  0.8635  3.1613 -0.0209
  612MOL0     H80769   0.020   5.579   4.647  1.1346 -2.2476  1.6498
  612MOL0     H80770   1.839   6.064   4.253 -0.7612 -1.1217  0.4852
  612MOL0     H80771   2.069   6.181   4.267  0.8853  1.7181 -1.0165
  612MOL0     H80772   2.611   5.957   4.210 -1.7968  1.7862  1.6836
  612MOL0     H80773   2.847   6.023   4.147  0.8237  0.7054 -1.0190
  612MOL0     H80774   3.026   6.070   3.957  0.6385 -0.9325  1.7461
  612MOL0     H80775   3.054   6.162   4.113 -0.0115  2.2195 -1.1217
  612MOL0     H80776   3.113   6.349   3.991  1.4098  1.5888 -1.9800
  612MOL0     H80777   3.227   6.212   3.964  0.9992  3.3646 -0.0404
  612MOL0     H80778   3.136   6.163   3.754  1.8465  0.4509  0.9381
  612MOL0     H80779   3.193   6.329   3.752  2.1858 -0.5429  2.5605
  612MOL0     H80780   2.902   6.248   3.753  1.7130  0.1471  0.8805
  612MOL0     H80781   2.970   6.408   3.724 -5.8752 -0.7630 -1.5418
  612MOL0     H80782   3.001   6.275   3.347 -0.4302 -0.4976  0.0170
  612MOL0     H80783   2.686   6.358   3.914  0.1273  0.7772 -0.7162
  612MOL0     H80784   2.451   6.293   4.010  0.9304  1.5181 -0.7108
  613MOL0     O80785   4.788  11.052   9.083 -0.3021  0.0997  0.0077
  613MOL0     C80786   4.708  10.959   9.070  0.0363  0.1244  0.0084
  613MOL0     O80787   4.733  10.826   9.097 -1.0929 -0.2979 -0.5825
  613MOL0     C80788   4.852  10.769   9.130  0.3574 -1.5084  0.0679
  613MOL0     C80789   4.978  10.826   9.147  0.4616  0.6502  0.0201
  613MOL0     C80790   5.090  10.744   9.159 -0.4955  0.0391  0.1507
  613MOL0     C80791   5.078  10.607   9.149 -0.2025  0.3388  0.0785
  613MOL0     O80792   5.174  10.512   9.167 -0.7383 -0.2182  0.3397
  613MOL0     C80793   5.251  10.520   9.285 -0.1964  0.0071 -0.0293
  613MOL0     C80794   5.197  10.431   9.396 -0.0923 -0.3963 -0.2705
  613MOL0     C80795   5.290  10.455   9.523  0.0008 -1.0096 -0.4787
  613MOL0     C80796   5.251  10.355   9.636 -0.3469  0.0055  0.1251
  613MOL0     C80797   5.350  10.380   9.754  0.1818 -0.4429 -0.7673
  613MOL0     C80798   5.490  10.361   9.720 -0.1525 -0.1344 -0.2016
  613MOL0     C80799   5.576  10.326   9.847 -2.0526 -0.1646 -0.7281
  613MOL0     C80800   5.729  10.314   9.806 -0.4121  0.0679 -0.2312
  613MOL0     N80801   5.821  10.290   9.914 -0.0901 -0.9727 -0.1542
  613MOL0     C80802   5.956  10.319   9.919 -0.1480  0.9405  0.9927
  613MOL0     C80803   6.002  10.222  10.014 -0.5786 -0.3470 -0.5240
  613MOL0     C80804   6.145  10.235  10.058 -1.0632 -0.7552  0.1963
  613MOL0     C80805   6.255  10.169   9.970 -0.2360 -0.1186  0.6189
  613MOL0     C80806   6.390  10.217  10.011 -0.3859 -0.1344  0.0314
  613MOL0     C80807   6.500  10.152   9.928 -0.2029 -0.1518  0.6038
  613MOL0     O80808   6.621  10.204   9.993  0.8320 -0.2594 -0.5257
  613MOL0     C80809   6.742  10.200   9.932 -0.1881  0.8042  0.7141
  613MOL0     C80810   6.766  10.180   9.796 -0.4988  0.6567  0.1096
  613MOL0     C80811   6.895  10.176   9.747 -1.0285 -0.3280  0.3925
  613MOL0     C80812   7.006  10.183   9.843 -0.0635  0.5688  0.4399
  613MOL0     C80813   7.152  10.166   9.793 -0.8552  0.0819  0.5139
  613MOL0     O80814   7.246  10.153   9.894  0.5120  0.2184 -0.1209
  613MOL0     C80815   7.367  10.114   9.850 -0.4794 -0.6892 -0.6213
  613MOL0     C80816   7.400  10.000   9.775  0.0821  0.4219  0.4976
  613MOL0     C80817   7.532   9.968   9.739  1.2425  0.6769 -0.2454
  613MOL0     C80818   7.635  10.056   9.793 -0.0975 -0.8092 -0.1054
  613MOL0     O80819   7.774  10.040   9.767 -0.3025  0.5757 -0.3572
  613MOL0     C80820   7.806   9.930   9.684 -0.1412 -1.2877 -0.9080
  613MOL0     C80821   7.952   9.927   9.654  0.0097 -0.1981 -0.9341
  613MOL0     C80822   8.008   9.795   9.612  0.2846 -0.3639  0.7605
  613MOL0     C80823   8.168   9.803   9.593 -0.0736  0.0823 -0.1316
  613MOL0     C80824   8.261   9.817   9.714  0.7828 -0.1336  0.4440
  613MOL0     C80825   8.411   9.799   9.687  0.3833 -0.8042  0.2020
  613MOL0     C80826   8.510   9.823   9.798  1.3089 -0.2284  0.8369
  613MOL0     C80827   8.656   9.804   9.763 -0.6973 -0.1259  1.1068
  613MOL0    Cl80828   8.680   9.623   9.743 -0.0220  0.0973 -0.3499
  613MOL0     C80829   7.601  10.165   9.875  0.5421  1.4222 -0.1861
  613MOL0     C80830   7.471  10.197   9.902 -0.6440 -0.5345  0.0971
  613MOL0     O80831   7.171  10.168   9.672  0.2395 -0.0754 -0.5276
  613MOL0     C80832   6.976  10.210   9.972 -0.2166  1.0200  0.3552
  613MOL0     C80833   6.846  10.208  10.029 -0.5223  0.1825  0.2373
  613MOL0     N80834   5.889  10.157  10.066  0.0363  0.4225  0.0243
  613MOL0     N80835   5.785  10.193  10.003  0.5567 -0.9470 -1.2813
  613MOL0     C80836   4.953  10.550   9.124 -0.9831  0.8339 -0.4546
  613MOL0     C80837   4.838  10.635   9.118  0.0194  0.1817 -0.1215
  613MOL0     C80838   4.590  10.998   9.003  0.9361 -0.7158  0.5502
  613MOL0     C80839   4.544  11.133   8.992  0.6971  0.9783 -0.0375
  613MOL0     C80840   4.429  11.169   8.911  0.1354 -0.5534 -0.5985
  613MOL0     C80841   4.367  11.079   8.841  0.6529 -0.2456 -0.7847
  613MOL0     O80842   4.267  11.127   8.760 -0.3277 -0.2540 -0.2928
  613MOL0     C80843   4.218  11.052   8.638 -0.3975 -0.6915  0.2918
  613MOL0     C80844   4.089  10.982   8.670  0.1528 -0.0153 -1.3306
  613MOL0     C80845   4.043  10.911   8.532 -0.7364  0.3341  0.0031
  613MOL0     C80846   4.109  10.782   8.494 -0.4228  0.3581  1.5367
  613MOL0     C80847   4.036  10.723   8.383  0.0238  0.4435  0.8838
  613MOL0     C80848   3.963  10.681   8.297 -0.6898 -0.4122 -0.0380
  613MOL0     C80849   4.399  10.944   8.856 -0.0257 -0.8752  0.0862
  613MOL0     C80850   4.511  10.902   8.928  0.9568 -0.1573 -0.5936
  613MOL0     H80851   4.986  10.930   9.178  1.0969  0.0893  1.9180
  613MOL0     H80852   5.190  10.785   9.172  0.3596 -2.4765  2.5868
  613MOL0     H80853   5.263  10.618   9.333 -1.2862  0.4421 -0.6093
  613MOL0     H80854   5.351  10.484   9.258  0.0780  0.8192 -0.1230
  613MOL0     H80855   5.216  10.328   9.367 -1.5886 -1.5624  2.5259
  613MOL0     H80856   5.095  10.452   9.429  0.9854 -0.9413  4.0256
  613MOL0     H80857   5.280  10.552   9.571 -0.1814 -0.1544 -2.1794
  613MOL0     H80858   5.391  10.433   9.486 -0.3568 -0.9246 -1.5620
  613MOL0     H80859   5.147  10.366   9.668 -0.6438 -0.0634 -0.7910
  613MOL0     H80860   5.270  10.255   9.596  0.1432 -0.3328  1.1663
  613MOL0     H80861   5.321  10.303   9.825 -0.0817  0.4094  0.0659
  613MOL0     H80862   5.336  10.472   9.811  2.6794 -0.6990  0.3953
  613MOL0     H80863   5.523  10.455   9.674  0.9571  0.1960  1.1885
  613MOL0     H80864   5.495  10.279   9.649 -0.4285 -0.6452  0.3583
  613MOL0     H80865   5.571  10.406   9.921 -3.0361  0.1941 -1.1664
  613MOL0     H80866   5.538  10.229   9.880 -1.8167 -0.0419 -0.0879
  613MOL0     H80867   5.757  10.400   9.745  1.2645  0.1933  0.6501
  613MOL0     H80868   5.745  10.223   9.748 -2.2312 -2.4239  2.8252
  613MOL0     H80869   6.000  10.409   9.877  2.8601 -0.3356  1.1722
  613MOL0     H80870   6.160  10.188  10.156 -0.1250  2.1560  1.5661
  613MOL0     H80871   6.161  10.342  10.074 -1.0188 -0.8091  0.5342
  613MOL0     H80872   6.238  10.212   9.871  0.5046  1.9667  1.3402
  613MOL0     H80873   6.254  10.059   9.967  3.0445 -0.2455 -1.6110
  613MOL0     H80874   6.390  10.325   9.993  1.1186 -0.2044 -0.5532
  613MOL0     H80875   6.400  10.183  10.114 -2.2039  0.0130  0.2780
  613MOL0     H80876   6.499  10.172   9.820  0.4238  0.5310  0.7155
  613MOL0     H80877   6.500  10.043   9.933  0.8584 -0.3716 -2.3147
  613MOL0     H80878   6.686  10.174   9.722  1.6513 -0.6455 -2.2550
  613MOL0     H80879   6.917  10.150   9.644 -5.7557 -2.1232 -0.4161
  613MOL0     H80880   7.324   9.934   9.736  1.7017 -1.2381  0.0399
  613MOL0     H80881   7.546   9.883   9.672  0.0434  0.3956 -0.1562
  613MOL0     H80882   7.750   9.935   9.590  2.7161  0.8368 -2.6680
  613MOL0     H80883   7.778   9.833   9.726 -1.0150 -0.8963 -0.5701
  613MOL0     H80884   8.007   9.957   9.744 -1.6350  0.2636 -0.0427
  613MOL0     H80885   7.961  10.000   9.573  2.4520 -1.1152 -1.5676
  613MOL0     H80886   7.959   9.760   9.521  2.6088  1.7130 -1.4578
  613MOL0     H80887   7.984   9.716   9.684  1.2520 -1.8476 -0.4822
  613MOL0     H80888   8.195   9.717   9.531 -1.7520 -0.3874 -0.2562
  613MOL0     H80889   8.203   9.885   9.529  0.4362  0.6927  0.9007
  613MOL0     H80890   8.244   9.737   9.787  0.4058  2.6116  3.6593
  613MOL0     H80891   8.223   9.906   9.767 -0.2845 -1.0595  1.3060
  613MOL0     H80892   8.442   9.871   9.611  2.5944  1.3383  2.9308
  613MOL0     H80893   8.421   9.705   9.631 -3.3383 -0.2742 -1.7138
  613MOL0     H80894   8.487   9.925   9.830 -2.1002 -0.5601 -0.2195
  613MOL0     H80895   8.478   9.763   9.884  0.1152 -0.5878  0.1683
  613MOL0     H80896   8.721   9.848   9.840  0.6619 -0.7260  0.3447
  613MOL0     H80897   8.677   9.851   9.666 -2.5286 -1.3161  0.0748
  613MOL0     H80898   7.680  10.223   9.919  1.7137 -0.6118  0.5390
  613MOL0     H80899   7.447  10.280   9.968 -3.0924 -0.7167 -0.4677
  613MOL0     H80900   7.058  10.233  10.039 -0.1782 -4.1451  2.5686
  613MOL0     H80901   6.819  10.229  10.132 -3.2340  1.6454 -0.6786
  613MOL0     H80902   4.942  10.443   9.109  3.9457 -0.3904  2.2598
  613MOL0     H80903   4.741  10.588   9.111  0.0229  0.3680 -1.9273
  613MOL0     H80904   4.586  11.215   9.049 -0.8321  1.4446  0.4581
  613MOL0     H80905   4.408  11.275   8.904 -3.1919 -1.1942 -2.0281
  613MOL0     H80906   4.300  10.984   8.614  1.8255  0.1605  4.5809
  613MOL0     H80907   4.211  11.128   8.559  1.4841  1.7922  2.3351
  613MOL0     H80908   4.097  10.910   8.752  0.8779 -3.3742 -4.1166
  613MOL0     H80909   4.014  11.054   8.705  2.3865  0.9489  1.8780
  613MOL0     H80910   4.040  10.983   8.451 -0.9300  0.1925 -0.1164
  613MOL0     H80911   3.938  10.887   8.553 -0.9957  0.3668 -1.2077
  613MOL0     H80912   4.209  10.818   8.472 -1.2122  0.6706 -2.1236
  613MOL0     H80913   4.095  10.720   8.583 -3.2921 -0.5644  0.5902
  613MOL0     H80914   3.888  10.652   8.227 -0.3438 -0.6168 -0.3245
  613MOL0     H80915   4.348  10.869   8.795 -0.1236 -3.1310  2.7543
  613MOL0     H80916   4.531  10.796   8.919  0.0684 -0.4055  0.1632
  614MOL0     O80917   5.520  10.315   5.243 -0.2184 -0.2870  0.2112
  614MOL0     C80918   5.555  10.266   5.351 -0.2456 -0.1481 -0.8982
  614MOL0     O80919   5.485  10.167   5.413 -0.0010  0.5023 -0.0892
  614MOL0     C80920   5.388  10.100   5.349  0.5186  0.1209  0.4337
  614MOL0     C80921   5.353  10.085   5.203 -0.0974 -0.2443 -1.0473
  614MOL0     C80922   5.247  10.006   5.167  0.1949  0.3591 -0.7353
  614MOL0     C80923   5.163   9.945   5.271  0.1711 -0.7884 -0.1137
  614MOL0     O80924   5.055   9.863   5.236  0.6559 -0.2967  0.4936
  614MOL0     C80925   5.001   9.873   5.105 -0.0094  0.2111 -0.3517
  614MOL0     C80926   4.873   9.793   5.114 -0.0874  0.3889 -0.0963
  614MOL0     C80927   4.806   9.796   4.979 -1.3590 -0.1775  0.0501
  614MOL0     C80928   4.745   9.664   4.936  0.1590 -0.3639 -1.1458
  614MOL0     C80929   4.634   9.622   5.024  0.4775 -0.2123 -0.1489
  614MOL0     C80930   4.580   9.481   4.991  0.3864 -0.0899  0.8055
  614MOL0     C80931   4.465   9.450   5.091  0.5239  0.1844  0.6991
  614MOL0     C80932   4.399   9.319   5.040 -0.2727 -0.1523 -0.2159
  614MOL0     N80933   4.296   9.268   5.130  0.0294  0.1341 -0.7783
  614MOL0     C80934   4.166   9.237   5.098 -0.1654 -0.3390  0.4464
  614MOL0     C80935   4.113   9.179   5.205  0.2134 -0.9934 -0.4326
  614MOL0     C80936   3.975   9.133   5.221  0.2810  0.1994  0.3789
  614MOL0     C80937   3.903   9.076   5.108  1.0448  0.2821  0.0538
  614MOL0     C80938   3.769   9.004   5.144  0.2872  0.1014 -0.1871
  614MOL0     C80939   3.668   9.102   5.202  0.2751  0.2263  0.7158
  614MOL0     O80940   3.535   9.057   5.187 -0.0810  0.5230  0.3322
  614MOL0     C80941   3.450   9.111   5.279 -0.2787 -0.1199 -0.1861
  614MOL0     C80942   3.324   9.049   5.289  0.3092 -0.2233  0.4496
  614MOL0     C80943   3.243   9.095   5.386  0.3073 -0.4077 -1.0935
  614MOL0     C80944   3.253   9.218   5.459 -0.2149 -0.1653  0.3955
  614MOL0     C80945   3.145   9.288   5.537  0.7956  0.2687  0.0751
  614MOL0     O80946   3.021   9.259   5.494  0.5515  0.8159 -0.5192
  614MOL0     C80947   2.908   9.322   5.527  0.0028  0.2963 -0.8605
  614MOL0     C80948   2.893   9.432   5.604  0.9953  0.1739 -0.5550
  614MOL0     C80949   2.767   9.466   5.649  0.7940 -0.0964 -0.5652
  614MOL0     C80950   2.651   9.399   5.617 -0.8546  0.1071 -0.1264
  614MOL0     O80951   2.531   9.452   5.658  0.0816 -0.0075  0.2996
  614MOL0     C80952   2.423   9.447   5.566  1.1205 -0.2104 -0.2040
  614MOL0     C80953   2.457   9.538   5.445  0.4380  0.6103  0.6135
  614MOL0     C80954   2.340   9.603   5.364  0.3037  0.0198 -0.9192
  614MOL0     C80955   2.375   9.675   5.227 -0.0553  0.0731  0.6882
  614MOL0     C80956   2.417   9.578   5.115  0.8748 -0.3690 -0.2551
  614MOL0     C80957   2.515   9.656   5.021 -0.1062  0.1050  0.3229
  614MOL0     C80958   2.539   9.592   4.885  0.2410  0.1081  0.3136
  614MOL0     C80959   2.609   9.454   4.912  0.0688  1.6192  0.8468
  614MOL0    Cl80960   2.716   9.412   4.781 -0.3495  0.0531 -0.1410
  614MOL0     C80961   2.668   9.282   5.542  0.6145 -0.1434  0.1231
  614MOL0     C80962   2.798   9.245   5.497  0.2413  0.2233 -0.6432
  614MOL0     O80963   3.182   9.362   5.628 -0.6087 -0.6194 -0.7629
  614MOL0     C80964   3.375   9.275   5.442 -0.3321  0.4499  0.6002
  614MOL0     C80965   3.472   9.232   5.356 -0.3337  0.3111  0.8850
  614MOL0     N80966   4.205   9.174   5.296 -0.7009  0.4067  0.1902
  614MOL0     N80967   4.320   9.218   5.254 -0.1136  0.1868  0.1037
  614MOL0     C80968   5.199   9.966   5.404  0.7530  0.6280 -0.3712
  614MOL0     C80969   5.322  10.030   5.443  0.4300  0.5433  0.1287
  614MOL0     C80970   5.687  10.296   5.420 -0.1056 -0.0933  0.0483
  614MOL0     C80971   5.785  10.383   5.355  0.5088  0.0092  0.0929
  614MOL0     C80972   5.896  10.430   5.420 -0.3268  0.2883  0.2043
  614MOL0     C80973   5.931  10.374   5.539 -0.7037 -0.2855 -0.3092
  614MOL0     O80974   6.043  10.411   5.605 -0.6466 -0.4741 -0.0795
  614MOL0     C80975   6.133  10.507   5.550  0.1794  0.6023 -0.2097
  614MOL0     C80976   6.250  10.523   5.641 -1.4625 -0.2153 -0.3827
  614MOL0     C80977   6.328  10.391   5.648 -0.6589  0.2000  0.5554
  614MOL0     C80978   6.403  10.350   5.519 -0.2910  0.3832  0.2643
  614MOL0     C80979   6.505  10.449   5.480 -0.0232  0.0976 -0.2798
  614MOL0     C80980   6.594  10.528   5.455  0.1828 -0.0467  0.3155
  614MOL0     C80981   5.852  10.280   5.597 -0.1201  0.9507  0.6903
  614MOL0     C80982   5.726  10.238   5.542  0.9535  0.2221  0.4085
  614MOL0     H80983   5.420  10.123   5.127  1.0959 -2.3872 -1.1669
  614MOL0     H80984   5.240   9.978   5.062 -1.5534  0.3694 -0.6495
  614MOL0     H80985   5.066   9.827   5.030  0.9208 -1.1944  1.2375
  614MOL0     H80986   4.986   9.979   5.085 -0.6899  0.2038  0.0834
  614MOL0     H80987   4.802   9.832   5.188  0.5601  3.6417 -1.0263
  614MOL0     H80988   4.904   9.691   5.140  3.1717  1.6631  1.6402
  614MOL0     H80989   4.875   9.811   4.895 -4.0420 -2.5364 -2.8491
  614MOL0     H80990   4.740   9.883   4.972  0.9837  1.8183  1.0951
  614MOL0     H80991   4.695   9.672   4.839  1.3874  1.2946 -1.6979
  614MOL0     H80992   4.824   9.590   4.922  2.1194  1.1288  1.1925
  614MOL0     H80993   4.553   9.695   5.014  0.1913 -0.4620  0.3130
  614MOL0     H80994   4.667   9.619   5.129 -2.2760  1.9945  0.9242
  614MOL0     H80995   4.664   9.411   5.000  0.2811 -0.0621  2.2881
  614MOL0     H80996   4.531   9.484   4.894 -1.1528 -0.3936  1.5526
  614MOL0     H80997   4.508   9.430   5.190 -1.0945 -2.0729  1.0183
  614MOL0     H80998   4.388   9.526   5.105  0.2803  0.0012  0.3674
  614MOL0     H80999   4.466   9.233   5.031 -0.5594 -0.4119  0.1441
  614MOL0     H81000   4.359   9.335   4.939  0.0257 -2.0068 -0.6662
  614MOL0     H81001   4.108   9.261   5.010 -0.3453 -0.5771  0.4978
  614MOL0     H81002   3.912   9.214   5.256 -0.7580  0.7169 -2.4201
  614MOL0     H81003   3.976   9.061   5.304 -2.9049 -0.7873 -0.3153
  614MOL0     H81004   3.970   9.009   5.053  1.7514  0.9231  0.1163
  614MOL0     H81005   3.875   9.157   5.039  0.9008  1.6286  1.6228
  614MOL0     H81006   3.720   8.964   5.054  0.1517 -1.5321  0.5700
  614MOL0     H81007   3.786   8.922   5.214  1.1125 -1.3359 -1.9663
  614MOL0     H81008   3.665   9.198   5.150  2.3533  0.0286  0.1724
  614MOL0     H81009   3.691   9.108   5.309 -1.1260  1.0621  1.0024
  614MOL0     H81010   3.308   8.967   5.219 -1.0518  0.5382 -0.1734
  614MOL0     H81011   3.154   9.035   5.401  0.9551 -1.7222 -2.3299
  614MOL0     H81012   2.974   9.492   5.644 -0.0760  1.9055 -0.9167
  614MOL0     H81013   2.754   9.553   5.713  1.0540  1.0068 -1.9683
  614MOL0     H81014   2.339   9.498   5.615  1.8834  1.6109 -0.6838
  614MOL0     H81015   2.386   9.345   5.555 -0.2790  0.0486  1.4972
  614MOL0     H81016   2.492   9.471   5.366 -1.3341  2.0875 -1.5378
  614MOL0     H81017   2.533   9.614   5.466  1.4239 -0.0367 -0.4725
  614MOL0     H81018   2.307   9.693   5.417  0.6895 -1.6421  2.3388
  614MOL0     H81019   2.274   9.522   5.332 -0.5013  0.8402 -1.4062
  614MOL0     H81020   2.293   9.741   5.197  2.5507  2.2201 -2.4013
  614MOL0     H81021   2.466   9.733   5.246 -0.3747  0.8050  0.0021
  614MOL0     H81022   2.322   9.572   5.061  1.5077  3.2623 -2.1164
  614MOL0     H81023   2.454   9.485   5.158  3.3062  0.6775  0.0690
  614MOL0     H81024   2.611   9.670   5.071  0.3987 -2.3252  0.1376
  614MOL0     H81025   2.471   9.754   4.999 -1.8024 -0.6052  0.4006
  614MOL0     H81026   2.442   9.580   4.835  2.2565 -0.8076 -3.7705
  614MOL0     H81027   2.597   9.667   4.831  2.7673 -1.4190  0.7385
  614MOL0     H81028   2.532   9.378   4.929  0.4162  0.7234 -1.3739
  614MOL0     H81029   2.670   9.458   5.003  0.4054  0.0862  0.7110
  614MOL0     H81030   2.582   9.225   5.509 -0.5435  2.1053 -0.9923
  614MOL0     H81031   2.816   9.149   5.450 -2.7851 -0.4211 -0.7123
  614MOL0     H81032   3.399   9.363   5.502 -0.8787  1.1208 -0.1476
  614MOL0     H81033   3.554   9.302   5.344 -1.1968  1.1778 -0.0557
  614MOL0     H81034   5.149   9.911   5.483  1.3911  2.0021  1.0362
  614MOL0     H81035   5.349  10.018   5.547  4.8849 -0.6877 -0.9794
  614MOL0     H81036   5.765  10.436   5.263 -0.4274  1.4148  1.0797
  614MOL0     H81037   5.962  10.494   5.364  2.1262 -1.4199  0.9359
  614MOL0     H81038   6.076  10.600   5.551 -0.3556  0.2696  0.4540
  614MOL0     H81039   6.166  10.482   5.448 -0.2319 -2.0965  0.2466
  614MOL0     H81040   6.306  10.606   5.596 -1.4570 -0.1305 -0.2201
  614MOL0     H81041   6.230  10.551   5.745  2.6418 -0.2350  0.6176
  614MOL0     H81042   6.271  10.299   5.668 -0.4393 -0.1771 -0.4907
  614MOL0     H81043   6.413  10.389   5.717 -0.2257  0.4098  0.0234
  614MOL0     H81044   6.446  10.256   5.554 -2.4749  0.1341  2.5556
  614MOL0     H81045   6.335  10.338   5.434 -0.2749  2.0444 -0.0104
  614MOL0     H81046   6.682  10.587   5.444  1.4878 -1.2112  3.4665
  614MOL0     H81047   5.881  10.243   5.695 -0.8142  2.6065  1.5756
  614MOL0     H81048   5.654  10.178   5.598 -1.8317  1.5635 -1.4884
  615MOL0     O81049   4.758   3.542   3.856  0.1862  0.4772  0.5279
  615MOL0     C81050   4.791   3.497   3.964 -0.4287  0.6258 -0.2559
  615MOL0     O81051   4.698   3.466   4.074 -0.0078 -0.9309 -0.1872
  615MOL0     C81052   4.566   3.472   4.037  0.1690  0.6736 -0.2487
  615MOL0     C81053   4.509   3.358   3.970 -0.2696  0.0109  0.0750
  615MOL0     C81054   4.369   3.345   3.965  0.4231 -1.0710  0.0711
  615MOL0     C81055   4.291   3.439   4.027  0.8138  0.4627 -0.5089
  615MOL0     O81056   4.154   3.420   4.020 -0.8564 -0.2492 -0.0993
  615MOL0     C81057   4.066   3.489   4.111 -0.1301  0.3295 -0.1679
  615MOL0     C81058   4.031   3.638   4.060  0.1463  0.0861  0.0725
  615MOL0     C81059   3.922   3.634   3.959  0.2585  0.7233 -0.0093
  615MOL0     C81060   3.859   3.773   3.941  0.3427  0.5279  0.1903
  615MOL0     C81061   3.737   3.780   3.853  0.1630 -0.1272 -0.3390
  615MOL0     C81062   3.649   3.907   3.854 -0.1631  0.5556  0.9907
  615MOL0     C81063   3.516   3.869   3.774 -0.2006 -1.1921 -0.2717
  615MOL0     C81064   3.545   3.817   3.632 -0.4992  0.2547  1.0280
  615MOL0     N81065   3.439   3.841   3.536  0.8990 -0.0593 -0.0725
  615MOL0     C81066   3.421   3.783   3.411 -0.7430  0.2784  0.3680
  615MOL0     C81067   3.319   3.858   3.360  0.1099 -0.4605  0.3394
  615MOL0     C81068   3.275   3.835   3.215 -0.4405  0.6201 -0.1746
  615MOL0     C81069   3.142   3.903   3.188  1.0273 -0.1212 -0.5977
  615MOL0     C81070   3.083   3.895   3.046  0.3580 -0.4197 -0.9019
  615MOL0     C81071   2.946   3.956   3.021  0.5823  0.2854  0.1270
  615MOL0     O81072   2.893   3.911   2.895  0.9270  0.2776 -1.0807
  615MOL0     C81073   2.761   3.894   2.876 -0.0376  0.4973  0.2060
  615MOL0     C81074   2.658   3.946   2.968  0.3052  1.1069  0.1837
  615MOL0     C81075   2.529   3.935   2.932  0.0798  0.7781 -0.6071
  615MOL0     C81076   2.483   3.865   2.818  0.0808 -0.2072 -0.2040
  615MOL0     C81077   2.341   3.832   2.792  0.5229 -0.0594  0.8096
  615MOL0     O81078   2.309   3.789   2.667  0.6054  0.2037 -0.3649
  615MOL0     C81079   2.182   3.729   2.668 -0.2094  0.2749 -0.2160
  615MOL0     C81080   2.152   3.591   2.695  0.5518  0.5034 -1.0058
  615MOL0     C81081   2.021   3.542   2.701 -0.8914 -0.9944  0.2961
  615MOL0     C81082   1.918   3.622   2.665 -0.6899  0.4245  0.4155
  615MOL0     O81083   1.796   3.559   2.660  0.8913  0.7631 -0.0431
  615MOL0     C81084   1.681   3.642   2.621  0.0398  0.0157  0.5268
  615MOL0     C81085   1.549   3.566   2.616 -0.3871  0.1325  0.2090
  615MOL0     C81086   1.538   3.471   2.492  0.3542 -0.4005 -0.4266
  615MOL0     C81087   1.433   3.352   2.516 -0.3667 -1.2698 -0.4916
  615MOL0     C81088   1.291   3.392   2.469 -1.0579 -1.2969  0.0061
  615MOL0     C81089   1.189   3.276   2.436 -0.5954  0.1186 -0.0147
  615MOL0     C81090   1.075   3.337   2.348 -0.3972 -0.2477  0.7056
  615MOL0     C81091   0.965   3.238   2.328 -0.0218  0.1520 -0.5566
  615MOL0    Cl81092   0.994   3.108   2.213 -0.1361  0.6605  0.3243
  615MOL0     C81093   1.954   3.751   2.618  0.3042  1.0308 -1.4060
  615MOL0     C81094   2.076   3.806   2.627 -0.6699  0.1555  0.5397
  615MOL0     O81095   2.249   3.850   2.878 -0.3808  0.3049 -0.0581
  615MOL0     C81096   2.582   3.826   2.724  1.0211 -0.8597  0.2504
  615MOL0     C81097   2.720   3.841   2.753  0.5967 -0.7637  0.3108
  615MOL0     N81098   3.290   3.968   3.449  0.6399  0.6221  0.1392
  615MOL0     N81099   3.360   3.950   3.551  0.2015 -0.8016 -0.8674
  615MOL0     C81100   4.347   3.546   4.101 -0.3174  0.3795  0.7256
  615MOL0     C81101   4.481   3.573   4.096 -0.1607 -0.7168  0.3506
  615MOL0     C81102   4.926   3.503   4.011  0.3039 -0.4274  0.1859
  615MOL0     C81103   5.022   3.533   3.916  0.5656 -1.0313 -0.3587
  615MOL0     C81104   5.153   3.534   3.943  0.4535  0.6971 -0.1576
  615MOL0     C81105   5.201   3.528   4.074  0.3068  0.5801  0.8450
  615MOL0     O81106   5.331   3.549   4.107  0.1898 -0.3856  0.3534
  615MOL0     C81107   5.399   3.644   4.022 -0.1048  0.0689  0.1114
  615MOL0     C81108   5.508   3.713   4.107 -0.3743 -0.5582  0.1755
  615MOL0     C81109   5.604   3.805   4.024  0.0528  0.7306  0.4104
  615MOL0     C81110   5.542   3.937   3.996 -0.4840  0.0612  0.7405
  615MOL0     C81111   5.659   4.033   3.979 -0.3294 -0.2002 -0.6957
  615MOL0     C81112   5.749   4.117   3.979  0.5492  0.7514  0.6469
  615MOL0     C81113   5.106   3.511   4.172 -0.0611 -0.1071  0.8885
  615MOL0     C81114   4.968   3.498   4.142  0.0806 -0.9527  0.0481
  615MOL0     H81115   4.578   3.298   3.911  0.9324  2.3493 -1.0547
  615MOL0     H81116   4.319   3.265   3.912 -1.0000  0.5462 -1.1195
  615MOL0     H81117   4.108   3.494   4.212 -3.0732 -1.1299  1.2801
  615MOL0     H81118   3.977   3.425   4.115  0.7788 -0.9482  0.1404
  615MOL0     H81119   4.113   3.690   4.011  0.6309 -0.6797  0.0373
  615MOL0     H81120   4.000   3.695   4.148  8.1796 -1.0487  4.7049
  615MOL0     H81121   3.849   3.558   3.986  1.2205 -0.4088 -0.5105
  615MOL0     H81122   3.962   3.592   3.866  0.9837 -5.0055  2.4492
  615MOL0     H81123   3.829   3.806   4.041 -1.1723  2.6176 -0.8844
  615MOL0     H81124   3.938   3.839   3.904  0.8328 -0.2638 -0.2024
  615MOL0     H81125   3.676   3.703   3.901 -0.4477 -0.3308 -1.4110
  615MOL0     H81126   3.778   3.765   3.753  2.5527 -2.8882  0.9195
  615MOL0     H81127   3.709   3.986   3.808  0.0181  0.2073  0.6172
  615MOL0     H81128   3.628   3.918   3.960 -0.4431 -0.7687  1.0896
  615MOL0     H81129   3.452   3.800   3.831 -0.6136 -1.7724 -1.4028
  615MOL0     H81130   3.468   3.967   3.768  2.1400 -0.0118 -1.1133
  615MOL0     H81131   3.587   3.716   3.624  3.5260  1.8613 -1.2056
  615MOL0     H81132   3.628   3.866   3.580 -0.2095 -1.2693 -0.0334
  615MOL0     H81133   3.475   3.697   3.373 -0.5431  0.0491  1.1363
  615MOL0     H81134   3.273   3.729   3.190  3.5963  0.3484  0.0201
  615MOL0     H81135   3.356   3.883   3.159  1.9914 -3.5873 -0.7048
  615MOL0     H81136   3.152   4.005   3.228  0.8844 -0.3520  0.0316
  615MOL0     H81137   3.075   3.854   3.259  2.0430  2.9951  2.8135
  615MOL0     H81138   3.153   3.940   2.975 -1.3531  1.8718 -1.2554
  615MOL0     H81139   3.073   3.788   3.027 -2.5988 -0.8425  2.0644
  615MOL0     H81140   2.949   4.065   3.018 -0.8459  0.4214  2.1652
  615MOL0     H81141   2.873   3.931   3.098 -0.2457 -1.8336 -1.2479
  615MOL0     H81142   2.673   3.986   3.068  2.2105 -1.1494  0.8819
  615MOL0     H81143   2.468   3.981   3.009 -1.9453 -3.8471  0.8731
  615MOL0     H81144   2.241   3.531   2.706  1.0957  1.3338 -0.7715
  615MOL0     H81145   1.994   3.439   2.724  1.2762 -1.1039  2.9467
  615MOL0     H81146   1.700   3.686   2.523 -0.6057  0.4357  0.5879
  615MOL0     H81147   1.679   3.725   2.693 -3.5380 -0.4215  1.0888
  615MOL0     H81148   1.458   3.625   2.627 -1.2648 -1.1552  0.0542
  615MOL0     H81149   1.547   3.495   2.700 -0.6630 -1.8156 -1.3646
  615MOL0     H81150   1.636   3.423   2.477  1.0142  1.0834 -1.0579
  615MOL0     H81151   1.526   3.534   2.404 -0.5949  2.2095  1.4636
  615MOL0     H81152   1.461   3.258   2.467 -2.5390 -1.6075 -1.1964
  615MOL0     H81153   1.414   3.331   2.622  0.1320 -2.1483 -0.5654
  615MOL0     H81154   1.293   3.445   2.373 -1.8557  0.5779  0.9660
  615MOL0     H81155   1.258   3.466   2.543  1.3103 -0.0167 -0.1084
  615MOL0     H81156   1.151   3.234   2.530 -1.4505 -2.9058 -1.5947
  615MOL0     H81157   1.239   3.207   2.368 -2.2274  1.9984 -3.3742
  615MOL0     H81158   1.038   3.425   2.402 -0.8221 -1.8961  3.2993
  615MOL0     H81159   1.123   3.362   2.253 -0.4949 -1.8846  0.2028
  615MOL0     H81160   0.876   3.292   2.293 -0.3137  0.0877  0.0708
  615MOL0     H81161   0.928   3.190   2.419  0.6573 -1.5945 -1.1652
  615MOL0     H81162   1.871   3.814   2.589  0.7801  2.3984  0.0237
  615MOL0     H81163   2.081   3.912   2.607 -1.7687 -0.4866 -4.6427
  615MOL0     H81164   2.543   3.780   2.634 -1.6455  2.4595 -0.4949
  615MOL0     H81165   2.789   3.816   2.674  0.1543  0.7160 -0.5739
  615MOL0     H81166   4.288   3.614   4.162  1.3465  2.5021  0.0839
  615MOL0     H81167   4.515   3.654   4.158 -0.3878 -0.1641 -0.2314
  615MOL0     H81168   5.001   3.534   3.809  0.2441 -0.9876 -0.2970
  615MOL0     H81169   5.211   3.554   3.853 -1.6634 -0.9768 -2.0223
  615MOL0     H81170   5.329   3.709   3.969  1.5497 -0.4427 -2.9184
  615MOL0     H81171   5.448   3.580   3.948  0.9103  0.5987  0.3038
  615MOL0     H81172   5.455   3.767   4.186 -0.9880  0.3061 -0.7966
  615MOL0     H81173   5.568   3.629   4.143  1.8308 -0.4398 -2.8118
  615MOL0     H81174   5.640   3.753   3.935 -0.0263 -2.8307  2.2804
  615MOL0     H81175   5.696   3.823   4.080  0.5916 -1.3120  0.2510
  615MOL0     H81176   5.496   3.927   3.897  0.1856  0.3140  0.3965
  615MOL0     H81177   5.475   3.961   4.079 -0.1011 -1.7493  1.6075
  615MOL0     H81178   5.814   4.200   3.997 -0.0786  1.7864 -1.5421
  615MOL0     H81179   5.140   3.489   4.273  2.2715 -2.3783 -0.2830
  615MOL0     H81180   4.899   3.481   4.225  1.6972  2.5946  2.3968
  616MOL0     O81181   7.909  10.121   1.222 -0.4856  0.1224  0.6218
  616MOL0     C81182   7.944  10.084   1.331 -0.3259 -0.4380 -0.0245
  616MOL0     O81183   7.867  10.017   1.421  0.4714  0.0348  0.0854
  616MOL0     C81184   7.742   9.985   1.379 -0.0418  0.9958 -0.6191
  616MOL0     C81185   7.723   9.908   1.262  0.2257 -0.2031  0.4317
  616MOL0     C81186   7.596   9.848   1.233 -1.0540  0.7171  0.5336
  616MOL0     C81187   7.490   9.875   1.307  0.0591  0.0374 -0.7865
  616MOL0     O81188   7.368   9.824   1.255  0.6061 -0.1934 -0.1895
  616MOL0     C81189   7.243   9.873   1.303 -0.5875  0.2414  0.5471
  616MOL0     C81190   7.132   9.810   1.219  0.1167 -0.1373  0.2109
  616MOL0     C81191   7.140   9.653   1.193  0.4189 -0.3299 -0.5110
  616MOL0     C81192   7.009   9.589   1.150  0.7982  0.4873  0.4079
  616MOL0     C81193   7.010   9.438   1.126 -0.6227  0.0155 -0.5912
  616MOL0     C81194   6.889   9.368   1.063 -0.6133  0.3944  0.2556
  616MOL0     C81195   6.869   9.410   0.912 -0.2952 -0.5287  0.3799
  616MOL0     C81196   6.741   9.360   0.857  0.0644  0.0247 -0.6407
  616MOL0     N81197   6.736   9.385   0.707  0.2371 -0.6718 -0.9002
  616MOL0     C81198   6.652   9.476   0.645  0.1334 -0.3678 -0.2391
  616MOL0     C81199   6.672   9.462   0.512 -0.5891 -0.5334 -0.5777
  616MOL0     C81200   6.585   9.531   0.406 -0.7216 -0.6183 -0.2024
  616MOL0     C81201   6.466   9.445   0.364  1.2162  0.0381 -1.1074
  616MOL0     C81202   6.354   9.406   0.475 -0.5589 -0.5548  0.5554
  616MOL0     C81203   6.220   9.371   0.407 -0.0288 -0.0058 -0.1687
  616MOL0     O81204   6.248   9.296   0.293 -0.1116 -0.4390 -0.2065
  616MOL0     C81205   6.134   9.244   0.224  1.0622  0.1925 -0.5142
  616MOL0     C81206   5.995   9.271   0.239  0.3663  0.4960  0.4756
  616MOL0     C81207   5.888   9.211   0.170 -0.5175 -0.8132  0.2890
  616MOL0     C81208   5.926   9.105   0.080  0.1081  0.3217 -0.0010
  616MOL0     C81209   5.821   9.024   0.030 -0.7443 -0.0355 -0.0048
  616MOL0     O81210   5.693   9.033   0.084 -0.1838 -1.3314  0.7132
  616MOL0     C81211   5.583   8.973   0.030 -0.3311 -0.2907 -0.1061
  616MOL0     C81212   5.463   8.998   0.096  0.2203 -0.7111  0.1601
  616MOL0     C81213   5.342   8.947   0.049  0.2222 -0.1002  0.2899
  616MOL0     C81214   5.341   8.862  -0.061 -0.0070  0.8181 -0.1734
  616MOL0     O81215   5.213   8.833  -0.110 -0.0330 -0.2355 -0.6253
  616MOL0     C81216   5.197   8.770  -0.234  0.4684 -0.5788  0.7537
  616MOL0     C81217   5.052   8.734  -0.244 -0.1240 -0.5201  0.3325
  616MOL0     C81218   5.020   8.714  -0.397  0.2093  0.2222 -0.3512
  616MOL0     C81219   4.872   8.668  -0.406  0.0221  0.4036 -0.6922
  616MOL0     C81220   4.844   8.656  -0.556 -1.2316  0.7418 -0.2129
  616MOL0     C81221   4.706   8.623  -0.596  0.2374  0.5573  0.5439
  616MOL0     C81222   4.639   8.493  -0.526  0.7897 -0.1755  0.7140
  616MOL0     C81223   4.518   8.468  -0.619  0.1192  0.8585  0.2679
  616MOL0    Cl81224   4.532   8.327  -0.728  0.2751  0.1328 -0.5186
  616MOL0     C81225   5.456   8.829  -0.124  0.0679 -0.1050 -0.5996
  616MOL0     C81226   5.582   8.879  -0.084  0.0228  0.5342 -0.7875
  616MOL0     O81227   5.865   8.945  -0.057 -0.5501 -0.6258 -0.6035
  616MOL0     C81228   6.065   9.077   0.061  0.0299  0.0786 -0.3056
  616MOL0     C81229   6.166   9.147   0.127  0.8090 -0.2487  0.5646
  616MOL0     N81230   6.771   9.377   0.494  0.0318 -0.1662 -0.2940
  616MOL0     N81231   6.807   9.324   0.608 -0.0635  0.5158  0.2184
  616MOL0     C81232   7.500   9.958   1.418 -0.4906  0.0090  0.0863
  616MOL0     C81233   7.625  10.015   1.450 -0.3261 -0.3008  0.8642
  616MOL0     C81234   8.077  10.113   1.393 -0.3214 -0.2929  0.6158
  616MOL0     C81235   8.117  10.083   1.524 -0.1971 -0.0300  0.1842
  616MOL0     C81236   8.239  10.122   1.585 -0.9472 -0.6187  0.0113
  616MOL0     C81237   8.321  10.209   1.506 -0.3048  0.5283  0.0394
  616MOL0     O81238   8.435  10.272   1.556  0.7277 -0.3612  0.1339
  616MOL0     C81239   8.514  10.217   1.667 -0.0779  0.1889 -1.0184
  616MOL0     C81240   8.631  10.296   1.720 -0.5931  0.0497  0.3837
  616MOL0     C81241   8.614  10.443   1.695  0.0138  0.3713  0.9109
  616MOL0     C81242   8.733  10.522   1.762 -0.8044 -0.1143 -0.6330
  616MOL0     C81243   8.853  10.503   1.679  0.0315  0.5627 -0.2399
  616MOL0     C81244   8.968  10.479   1.654 -0.4510  0.1830  0.0083
  616MOL0     C81245   8.289  10.233   1.368  0.2723 -0.9349 -1.2506
  616MOL0     C81246   8.174  10.176   1.316 -0.2557 -0.1067  1.2585
  616MOL0     H81247   7.812   9.897   1.200 -0.4229  1.5826 -0.9122
  616MOL0     H81248   7.577   9.783   1.148 -1.7239  3.0994 -1.2475
  616MOL0     H81249   7.237   9.980   1.281  0.4067 -0.0198 -1.1531
  616MOL0     H81250   7.227   9.841   1.407  0.4091 -3.8140 -0.3606
  616MOL0     H81251   7.125   9.856   1.120  1.0386  0.1071  0.2518
  616MOL0     H81252   7.037   9.836   1.267  0.9588  2.1265  0.7573
  616MOL0     H81253   7.147   9.622   1.297  1.4472  0.2579 -0.3923
  616MOL0     H81254   7.213   9.622   1.118 -1.8718 -0.5921 -2.7541
  616MOL0     H81255   6.927   9.614   1.218 -3.0678 -1.9411 -2.8935
  616MOL0     H81256   6.978   9.637   1.057 -2.6746  1.7554  2.0109
  616MOL0     H81257   7.024   9.390   1.223  3.7595  0.7836 -0.6315
  616MOL0     H81258   7.107   9.418   1.079  0.3739 -1.9750  2.0871
  616MOL0     H81259   6.796   9.383   1.120  0.0579  1.6294  1.0837
  616MOL0     H81260   6.922   9.264   1.068  1.5956  0.8314 -2.7769
  616MOL0     H81261   6.862   9.519   0.914  2.7341 -0.2521  2.4679
  616MOL0     H81262   6.957   9.382   0.853 -0.9380  2.4900 -2.3139
  616MOL0     H81263   6.656   9.405   0.909  0.7698  0.5194  0.1055
  616MOL0     H81264   6.728   9.254   0.881 -3.7030  0.7845  1.5410
  616MOL0     H81265   6.589   9.549   0.695  1.3643 -0.0454  0.8861
  616MOL0     H81266   6.652   9.552   0.322  1.0000 -0.0730  1.2402
  616MOL0     H81267   6.558   9.627   0.450 -0.6000 -1.8204  2.7713
  616MOL0     H81268   6.509   9.349   0.336  0.9357  0.2459 -2.3072
  616MOL0     H81269   6.404   9.484   0.283 -0.9927 -1.4709 -0.2478
  616MOL0     H81270   6.387   9.320   0.534  0.1034 -2.2649 -2.1473
  616MOL0     H81271   6.338   9.495   0.538  0.6276 -1.0873  1.6549
  616MOL0     H81272   6.190   9.469   0.369  0.6976  1.7248  3.2415
  616MOL0     H81273   6.145   9.345   0.482 -0.3076 -2.0331 -1.1070
  616MOL0     H81274   5.966   9.334   0.322  1.5999  2.3616 -0.4468
  616MOL0     H81275   5.785   9.241   0.188  0.6098  2.0528  2.8365
  616MOL0     H81276   5.457   9.054   0.188  1.2364 -2.1410  1.1481
  616MOL0     H81277   5.244   8.952   0.096  1.1780  1.3372  2.2806
  616MOL0     H81278   5.253   8.677  -0.244 -1.0990 -1.4808 -0.2713
  616MOL0     H81279   5.223   8.850  -0.303 -1.7828  0.9938  1.6076
  616MOL0     H81280   4.986   8.810  -0.200 -0.7979 -0.3649 -0.8809
  616MOL0     H81281   5.033   8.639  -0.193 -0.0511  0.4211  2.2123
  616MOL0     H81282   5.083   8.632  -0.432 -0.4151 -1.3373  1.9127
  616MOL0     H81283   5.040   8.804  -0.456  1.5375  0.8745  1.0036
  616MOL0     H81284   4.859   8.569  -0.362  2.7837 -0.5516 -1.8627
  616MOL0     H81285   4.797   8.730  -0.356  0.7011 -0.6690  1.8201
  616MOL0     H81286   4.921   8.582  -0.576 -0.4379 -0.6389  5.9397
  616MOL0     H81287   4.867   8.749  -0.609  0.1077  0.6157  0.1048
  616MOL0     H81288   4.710   8.608  -0.704  2.0464  1.6604  0.4122
  616MOL0     H81289   4.650   8.714  -0.570 -3.0780 -1.2117  0.1230
  616MOL0     H81290   4.708   8.408  -0.512  3.1131  1.6735  1.2175
  616MOL0     H81291   4.601   8.523  -0.429  1.2083 -1.0985  1.1818
  616MOL0     H81292   4.495   8.557  -0.678 -0.2409 -1.0025 -2.5682
  616MOL0     H81293   4.434   8.448  -0.552  1.1787 -0.9117  1.1515
  616MOL0     H81294   5.449   8.764  -0.211 -1.6813  0.4512 -0.9001
  616MOL0     H81295   5.672   8.850  -0.137 -0.5814  2.8271 -3.2330
  616MOL0     H81296   6.107   8.999  -0.001  3.8613  0.7846  1.0781
  616MOL0     H81297   6.271   9.123   0.115  0.4773 -1.1501 -0.6630
  616MOL0     H81298   7.418   9.974   1.487  0.6765 -0.2357  1.6103
  616MOL0     H81299   7.632  10.076   1.539  2.6913 -1.1976  1.3558
  616MOL0     H81300   8.056  10.018   1.586 -0.2522 -2.4027 -2.1719
  616MOL0     H81301   8.254  10.097   1.690 -0.8858  0.9329  0.3969
  616MOL0     H81302   8.549  10.116   1.645 -0.5450 -0.2302  0.1240
  616MOL0     H81303   8.450  10.201   1.754  2.8937 -4.1470  0.7162
  616MOL0     H81304   8.620  10.274   1.827 -5.9140  0.5839  0.2392
  616MOL0     H81305   8.725  10.252   1.686 -1.8875 -2.0539 -0.7425
  616MOL0     H81306   8.522  10.479   1.741 -0.4793  0.3894 -0.0544
  616MOL0     H81307   8.613  10.455   1.586 -0.6676 -0.5979  0.7985
  616MOL0     H81308   8.715  10.629   1.768 -1.3780  0.1626 -4.4543
  616MOL0     H81309   8.764  10.483   1.860  0.1685  2.6985  0.2642
  616MOL0     H81310   9.066  10.440   1.635 -0.3077  1.1995 -1.5137
  616MOL0     H81311   8.361  10.284   1.305 -1.2645  0.7141 -1.7661
  616MOL0     H81312   8.155  10.200   1.212  0.9104  3.2504  1.6740
  617MOL0     O81313   2.482   2.629   2.172  0.2001  0.6186  0.7996
  617MOL0     C81314   2.441   2.601   2.061  0.3658  0.7307  0.8396
  617MOL0     O81315   2.308   2.588   2.014 -0.4070 -0.3833 -0.0023
  617MOL0     C81316   2.206   2.620   2.103  0.4098 -0.2935  0.9715
  617MOL0     C81317   2.209   2.709   2.217 -0.2130 -0.9255  0.4877
  617MOL0     C81318   2.098   2.724   2.298 -0.3197 -0.1472 -0.1515
  617MOL0     C81319   1.979   2.661   2.277  0.9284  0.1080 -0.7761
  617MOL0     O81320   1.874   2.678   2.369  0.5847 -0.6355  0.2469
  617MOL0     C81321   1.752   2.731   2.311 -0.3171 -0.0554 -0.3653
  617MOL0     C81322   1.757   2.878   2.318 -0.4553 -0.3373  0.2439
  617MOL0     C81323   1.649   2.954   2.238  0.7175  0.5279  0.3251
  617MOL0     C81324   1.513   2.943   2.310  0.2998  0.1091 -0.4002
  617MOL0     C81325   1.389   2.958   2.204 -0.2564  0.2098  0.5806
  617MOL0     C81326   1.412   3.061   2.096 -0.3241 -0.3587  0.6348
  617MOL0     C81327   1.283   3.108   2.036 -0.8208  0.0651 -0.7409
  617MOL0     C81328   1.309   3.234   1.946 -0.0835  0.2829 -0.3691
  617MOL0     N81329   1.179   3.306   1.914 -0.5259 -0.6955 -0.1493
  617MOL0     C81330   1.085   3.248   1.839  0.1389  0.2110  0.2673
  617MOL0     C81331   0.977   3.324   1.856  0.6066 -0.2901  0.0718
  617MOL0     C81332   0.841   3.284   1.805 -0.4125 -0.1539  0.6998
  617MOL0     C81333   0.792   3.180   1.910  0.2609 -1.1008  0.2802
  617MOL0     C81334   0.637   3.154   1.901 -1.1755 -0.5782  0.0995
  617MOL0     C81335   0.611   3.035   1.992 -0.3273  0.4438 -0.2649
  617MOL0     O81336   0.469   3.004   1.986  0.5664 -0.5618 -0.4047
  617MOL0     C81337   0.373   3.053   2.075 -0.3449 -0.2266 -0.6763
  617MOL0     C81338   0.397   3.137   2.187  0.4621  0.0240 -0.2386
  617MOL0     C81339   0.297   3.161   2.280 -0.2670 -0.6865  0.1043
  617MOL0     C81340   0.165   3.105   2.265 -1.1676 -0.6716  0.2183
  617MOL0     C81341   0.059   3.124   2.373 -0.1113 -0.7163 -0.1738
  617MOL0     O81342  -0.067   3.171   2.317  0.2502  0.5852  0.2551
  617MOL0     C81343  -0.177   3.202   2.395 -0.1577  1.4513 -0.4212
  617MOL0     C81344  -0.151   3.290   2.499  0.8963 -0.1749 -0.2939
  617MOL0     C81345  -0.252   3.336   2.574 -0.5015  0.5050  0.1242
  617MOL0     C81346  -0.380   3.285   2.565  0.2411  0.9912 -0.6843
  617MOL0     O81347  -0.468   3.322   2.659 -0.2297 -0.6706  0.3623
  617MOL0     C81348  -0.554   3.437   2.618 -0.8232  0.0362 -0.2950
  617MOL0     C81349  -0.686   3.447   2.697  0.3986  0.8558  1.0660
  617MOL0     C81350  -0.776   3.577   2.684 -0.4358  0.2635 -0.1444
  617MOL0     C81351  -0.928   3.535   2.703  0.2933  0.5150 -0.0351
  617MOL0     C81352  -1.026   3.654   2.692  0.8045  0.5116  0.0658
  617MOL0     C81353  -1.166   3.622   2.757  0.2099  0.0615 -0.1131
  617MOL0     C81354  -1.265   3.745   2.724 -0.4168  0.3854 -0.5922
  617MOL0     C81355  -1.245   3.883   2.808  0.3606  0.4739 -0.2282
  617MOL0    Cl81356  -1.274   3.842   2.978 -0.2812  0.3612  0.2891
  617MOL0     C81357  -0.411   3.188   2.467 -0.3471  0.3048 -0.7000
  617MOL0     C81358  -0.305   3.147   2.379 -0.4604 -0.1515 -0.1962
  617MOL0     O81359   0.089   3.127   2.494 -0.0175  0.8685  0.4354
  617MOL0     C81360   0.147   3.025   2.155 -0.2752 -0.1141  0.6090
  617MOL0     C81361   0.250   2.992   2.064  0.4130 -0.2461 -0.0684
  617MOL0     N81362   1.007   3.431   1.938  0.1641  0.3450 -0.0212
  617MOL0     N81363   1.127   3.415   1.979  0.7725 -0.3474  0.4095
  617MOL0     C81364   1.970   2.583   2.163 -0.3918  1.4287 -0.4817
  617MOL0     C81365   2.078   2.562   2.078  0.0529 -0.0007 -0.1963
  617MOL0     C81366   2.534   2.564   1.949 -0.3698 -0.2302  0.2220
  617MOL0     C81367   2.672   2.581   1.962 -0.1040  0.4891  0.3484
  617MOL0     C81368   2.765   2.544   1.857  0.0714 -1.1010  0.1298
  617MOL0     C81369   2.713   2.502   1.736  0.5811  0.2663 -0.1979
  617MOL0     O81370   2.810   2.473   1.643 -0.6551 -0.1726  0.4772
  617MOL0     C81371   2.769   2.423   1.520  0.6302 -0.8129  0.5697
  617MOL0     C81372   2.894   2.361   1.465  0.0658 -0.4261 -0.2841
  617MOL0     C81373   3.016   2.453   1.479  0.5308  0.1931 -0.0275
  617MOL0     C81374   3.125   2.418   1.386 -0.9493  0.7618 -0.0442
  617MOL0     C81375   3.188   2.298   1.436 -0.2856  1.3544 -0.0739
  617MOL0     C81376   3.231   2.193   1.489 -0.0188  0.1057  0.3319
  617MOL0     C81377   2.577   2.494   1.720 -1.0316 -0.6584  0.0704
  617MOL0     C81378   2.488   2.526   1.821  0.1114 -1.1429  0.4021
  617MOL0     H81379   2.302   2.754   2.252 -0.7654 -0.6962  1.6980
  617MOL0     H81380   2.116   2.789   2.383 -1.3747  0.1032 -0.0981
  617MOL0     H81381   1.671   2.697   2.377  0.6921 -0.1069  0.8917
  617MOL0     H81382   1.748   2.705   2.205  1.0282 -4.7910  0.5205
  617MOL0     H81383   1.853   2.912   2.278 -0.9616 -0.3998 -1.0877
  617MOL0     H81384   1.773   2.906   2.423 -0.3845 -1.6825  0.6062
  617MOL0     H81385   1.646   2.913   2.137 -0.7084 -1.5947  1.1745
  617MOL0     H81386   1.674   3.060   2.228 -0.9817  0.9350  0.1110
  617MOL0     H81387   1.502   2.855   2.373 -0.9731  0.4534 -0.1151
  617MOL0     H81388   1.505   3.034   2.369  0.1040  1.1007 -1.8868
  617MOL0     H81389   1.293   2.969   2.254 -1.2462  2.2204 -1.5836
  617MOL0     H81390   1.383   2.856   2.163 -0.7797 -0.3970  2.1042
  617MOL0     H81391   1.484   3.029   2.020 -0.2729 -2.6009  1.5608
  617MOL0     H81392   1.459   3.146   2.147 -1.5037  2.0819 -2.0998
  617MOL0     H81393   1.243   3.027   1.975  0.3343 -0.4178 -0.8924
  617MOL0     H81394   1.221   3.139   2.121  1.3402  0.6288  0.7165
  617MOL0     H81395   1.354   3.211   1.849 -0.2372  1.5998 -0.7753
  617MOL0     H81396   1.380   3.304   1.991 -0.3498  0.1493  0.2626
  617MOL0     H81397   1.093   3.153   1.788  2.5243  1.0775 -1.1276
  617MOL0     H81398   0.864   3.250   1.703  2.3213  1.0663  0.8140
  617MOL0     H81399   0.786   3.378   1.799 -0.0185 -0.0027 -1.1783
  617MOL0     H81400   0.819   3.224   2.006 -0.3162  1.1833 -0.5374
  617MOL0     H81401   0.837   3.083   1.888  0.8120 -0.6547 -0.5921
  617MOL0     H81402   0.585   3.240   1.945 -0.2968 -0.0118  0.0666
  617MOL0     H81403   0.610   3.146   1.795 -1.8800 -0.2684  0.2487
  617MOL0     H81404   0.647   3.056   2.093  0.6985 -1.2696 -0.2374
  617MOL0     H81405   0.672   2.948   1.966 -1.0712 -0.6307  1.4271
  617MOL0     H81406   0.494   3.184   2.193  1.3611 -1.7588 -0.2757
  617MOL0     H81407   0.309   3.239   2.353  0.1699 -2.0565  1.5627
  617MOL0     H81408  -0.056   3.342   2.496 -0.1114  1.7500 -1.4911
  617MOL0     H81409  -0.223   3.406   2.652 -1.6609 -0.3566  1.3836
  617MOL0     H81410  -0.571   3.430   2.510 -1.6516 -3.2636 -0.0625
  617MOL0     H81411  -0.498   3.527   2.644 -1.0189 -0.6792  3.0145
  617MOL0     H81412  -0.668   3.424   2.802 -1.0454 -1.1560  0.9201
  617MOL0     H81413  -0.744   3.364   2.657 -1.0568  1.6504  1.4323
  617MOL0     H81414  -0.758   3.622   2.586 -0.8635 -1.2771 -0.9531
  617MOL0     H81415  -0.743   3.651   2.758  2.0237  0.2654 -1.1580
  617MOL0     H81416  -0.944   3.455   2.629 -2.1416  0.4096  0.5291
  617MOL0     H81417  -0.945   3.479   2.795 -3.1075  0.2727 -0.6917
  617MOL0     H81418  -1.036   3.684   2.587 -0.6194  0.2983  0.1281
  617MOL0     H81419  -0.985   3.738   2.748 -0.1793 -0.9583  3.2104
  617MOL0     H81420  -1.170   3.592   2.862 -1.0600 -2.7349 -0.8625
  617MOL0     H81421  -1.213   3.530   2.721  0.7075 -0.1969 -0.1206
  617MOL0     H81422  -1.241   3.758   2.618 -1.8147  0.6354 -0.9034
  617MOL0     H81423  -1.363   3.701   2.743 -0.5287 -0.5000 -2.8702
  617MOL0     H81424  -1.323   3.954   2.779  2.2951  2.0837 -1.7497
  617MOL0     H81425  -1.151   3.936   2.788 -1.5188  4.6871  0.9877
  617MOL0     H81426  -0.507   3.137   2.463  1.2053 -2.8693  0.3922
  617MOL0     H81427  -0.333   3.075   2.303  1.2198 -0.1313 -0.8769
  617MOL0     H81428   0.057   2.965   2.147  0.1572 -1.1850  2.9703
  617MOL0     H81429   0.238   2.909   1.995 -0.0639 -2.7798  2.7969
  617MOL0     H81430   1.876   2.531   2.150 -0.6308  1.7134  0.0467
  617MOL0     H81431   2.059   2.501   1.990 -1.6818 -1.1867  0.9429
  617MOL0     H81432   2.708   2.610   2.060 -0.1985 -1.3237  0.9633
  617MOL0     H81433   2.872   2.564   1.854 -0.0753 -0.4003 -0.8093
  617MOL0     H81434   2.747   2.502   1.447 -1.2080 -1.1726  0.6902
  617MOL0     H81435   2.688   2.350   1.521 -0.0852 -0.0551  1.9862
  617MOL0     H81436   2.912   2.262   1.508 -0.5377 -0.7453 -0.7466
  617MOL0     H81437   2.876   2.350   1.357  0.1987 -0.2949 -0.3192
  617MOL0     H81438   3.067   2.451   1.576 -1.2783  0.7609  0.9905
  617MOL0     H81439   2.986   2.558   1.473 -0.7300 -0.2181 -1.7259
  617MOL0     H81440   3.104   2.398   1.280  5.6371 -0.9281 -1.4842
  617MOL0     H81441   3.191   2.505   1.387 -0.6873  0.5937 -1.2186
  617MOL0     H81442   3.284   2.112   1.534 -1.7878 -2.2252 -1.4809
  617MOL0     H81443   2.546   2.481   1.617  1.7598  2.7440 -1.3996
  617MOL0     H81444   2.385   2.527   1.788  0.2714 -4.6698 -0.5829
  618MOL0     O81445   8.949   0.232   6.024  0.1813 -0.3000  0.1050
  618MOL0     C81446   8.963   0.161   5.923  0.5557 -0.3359  0.5072
  618MOL0     O81447   8.865   0.143   5.832 -0.3418  0.3763  0.4231
  618MOL0     C81448   8.742   0.193   5.844  0.1324 -0.1648  0.4888
  618MOL0     C81449   8.703   0.312   5.783  0.8198 -0.3812 -0.3356
  618MOL0     C81450   8.575   0.370   5.809 -0.3453 -0.0505 -1.2791
  618MOL0     C81451   8.474   0.296   5.869  0.0938  0.9376 -0.6626
  618MOL0     O81452   8.339   0.347   5.865 -0.3222 -0.6931  0.8054
  618MOL0     C81453   8.247   0.256   5.918  0.3876 -1.0554 -0.8161
  618MOL0     C81454   8.111   0.310   5.885 -0.1507 -0.6316 -0.2386
  618MOL0     C81455   8.068   0.424   5.975 -0.3426  0.2569 -1.0140
  618MOL0     C81456   7.917   0.452   5.962  0.3889  0.1602 -0.0756
  618MOL0     C81457   7.880   0.525   5.831  0.6021  0.1281 -0.2509
  618MOL0     C81458   7.735   0.584   5.855  0.8265 -0.0954 -0.7755
  618MOL0     C81459   7.637   0.603   5.728 -0.2289  0.7277 -0.4836
  618MOL0     C81460   7.513   0.676   5.767 -0.9272  0.5188  0.7528
  618MOL0     N81461   7.438   0.607   5.869  0.2551  0.9171 -1.4260
  618MOL0     C81462   7.399   0.664   5.997 -0.8949 -0.2093 -0.6253
  618MOL0     C81463   7.323   0.567   6.057 -0.0755 -0.6769 -0.4086
  618MOL0     C81464   7.251   0.585   6.187 -0.2523  0.5433  0.2080
  618MOL0     C81465   7.116   0.637   6.162  0.9852 -0.0970  0.9162
  618MOL0     C81466   7.106   0.780   6.104  0.4760 -0.2807 -1.0826
  618MOL0     C81467   6.958   0.819   6.084  0.6510  0.4045  0.3580
  618MOL0     O81468   6.950   0.947   6.003 -0.0146  0.5226  0.5672
  618MOL0     C81469   6.858   0.936   5.900  0.2137 -0.1941 -0.2190
  618MOL0     C81470   6.721   0.952   5.924 -0.1219 -0.8513  0.0713
  618MOL0     C81471   6.627   0.959   5.817  0.4227 -0.3265  0.2807
  618MOL0     C81472   6.662   0.939   5.682 -0.0594 -0.2846  0.7617
  618MOL0     C81473   6.565   0.971   5.571 -0.6054 -1.2535  0.2918
  618MOL0     O81474   6.443   1.015   5.607  0.1788 -0.3970 -0.3106
  618MOL0     C81475   6.346   1.015   5.512  0.2298  0.3940  0.0301
  618MOL0     C81476   6.342   1.098   5.403 -0.3679  0.0226  0.2767
  618MOL0     C81477   6.234   1.119   5.318  0.4610 -0.1998 -1.0964
  618MOL0     C81478   6.121   1.047   5.339  1.3192  0.1439 -0.1849
  618MOL0     O81479   6.017   1.038   5.247 -0.1850  0.4529 -1.2326
  618MOL0     C81480   5.954   1.167   5.242  1.7319  0.2258 -0.8907
  618MOL0     C81481   5.831   1.166   5.333 -0.3106 -0.2867 -0.6567
  618MOL0     C81482   5.730   1.277   5.295 -0.2826  0.3960  0.3325
  618MOL0     C81483   5.590   1.259   5.357  0.3331 -1.0909  0.1935
  618MOL0     C81484   5.504   1.363   5.296  1.0072 -0.0639 -0.8358
  618MOL0     C81485   5.365   1.340   5.352  0.9353  0.4187 -0.0914
  618MOL0     C81486   5.274   1.438   5.282  0.5508  0.5363  0.3874
  618MOL0     C81487   5.247   1.561   5.367  0.0799  0.1220 -0.1814
  618MOL0    Cl81488   5.385   1.673   5.368 -0.0308  0.0747 -0.0281
  618MOL0     C81489   6.111   0.962   5.453  0.6036  0.4322 -0.0065
  618MOL0     C81490   6.223   0.943   5.533 -0.7648 -0.0524 -0.6259
  618MOL0     O81491   6.606   0.948   5.454 -0.2206 -0.6958  0.3227
  618MOL0     C81492   6.795   0.907   5.655 -0.3767 -1.0526 -0.3254
  618MOL0     C81493   6.890   0.916   5.765 -0.1958  0.7279  0.2204
  618MOL0     N81494   7.320   0.461   5.976  0.1546  0.6556 -0.0477
  618MOL0     N81495   7.392   0.483   5.869 -0.1629  0.9051 -0.3099
  618MOL0     C81496   8.513   0.167   5.921  0.4028  0.5844  0.6943
  618MOL0     C81497   8.639   0.119   5.906 -0.0609  0.2368  0.9864
  618MOL0     C81498   9.090   0.092   5.904  0.8697  0.4289 -0.1056
  618MOL0     C81499   9.210   0.131   5.971 -0.5723 -0.1800  0.5058
  618MOL0     C81500   9.325   0.056   5.948 -0.0011 -0.6445  0.4925
  618MOL0     C81501   9.330  -0.048   5.851 -0.2074 -1.1814 -1.6371
  618MOL0     O81502   9.458  -0.086   5.817  0.1830  0.0228  0.3741
  618MOL0     C81503   9.513  -0.025   5.699 -0.3270 -0.7140 -0.3968
  618MOL0     C81504   9.610  -0.117   5.632  0.6046  0.0804  0.8487
  618MOL0     C81505   9.539  -0.233   5.561 -0.3681  0.4992  0.6034
  618MOL0     C81506   9.632  -0.291   5.441 -0.7941 -0.6654  0.4461
  618MOL0     C81507   9.742  -0.354   5.505  0.4361  0.2489 -0.6359
  618MOL0     C81508   9.826  -0.422   5.561 -0.2033 -0.8918  0.0455
  618MOL0     C81509   9.213  -0.077   5.780 -0.2907 -0.7521 -0.3410
  618MOL0     C81510   9.100  -0.014   5.814  0.3240  0.1008 -0.5407
  618MOL0     H81511   8.774   0.372   5.726 -1.1944  1.3115 -1.2150
  618MOL0     H81512   8.554   0.466   5.763 -1.8918 -0.0426 -0.5994
  618MOL0     H81513   8.247   0.244   6.027 -0.2908 -2.2105 -0.9227
  618MOL0     H81514   8.250   0.160   5.865 -5.6647 -2.1082 -0.0094
  618MOL0     H81515   8.040   0.227   5.888 -2.2899  0.9043 -3.1996
  618MOL0     H81516   8.109   0.342   5.780  0.1665  0.3837  0.0603
  618MOL0     H81517   8.135   0.510   5.971  2.0686 -1.5689 -2.3990
  618MOL0     H81518   8.072   0.399   6.081 -1.4485  1.3473 -0.6948
  618MOL0     H81519   7.866   0.355   5.964 -0.7868  0.7256 -1.2569
  618MOL0     H81520   7.877   0.508   6.047  2.0064  0.3298  0.6017
  618MOL0     H81521   7.869   0.457   5.747  0.8713 -0.6208  0.3105
  618MOL0     H81522   7.959   0.594   5.799 -0.4160  1.3270 -0.2910
  618MOL0     H81523   7.746   0.682   5.903 -2.2986  0.0552 -0.1562
  618MOL0     H81524   7.683   0.533   5.937  2.5744  2.6233  2.2584
  618MOL0     H81525   7.685   0.661   5.649  0.1545  0.1709 -0.6592
  618MOL0     H81526   7.612   0.502   5.696  0.6388  0.0853  0.7631
  618MOL0     H81527   7.453   0.698   5.679 -1.8325  0.9184  1.4626
  618MOL0     H81528   7.539   0.776   5.803 -0.6748  1.4289 -1.7665
  618MOL0     H81529   7.433   0.751   6.052 -0.7420 -0.4556 -0.3305
  618MOL0     H81530   7.302   0.651   6.257 -1.1898  1.8201 -0.2771
  618MOL0     H81531   7.231   0.489   6.236 -1.5944  1.8291  2.3558
  618MOL0     H81532   7.057   0.634   6.254 -0.6652 -0.5894 -0.0965
  618MOL0     H81533   7.070   0.562   6.096  0.2517 -0.0891  1.4046
  618MOL0     H81534   7.153   0.851   6.172 -2.5869  1.2123 -0.3362
  618MOL0     H81535   7.140   0.781   6.000 -4.0195  2.3765 -2.8335
  618MOL0     H81536   6.904   0.824   6.179  3.4197 -0.0012  2.0839
  618MOL0     H81537   6.909   0.736   6.032  5.3144 -1.3624 -1.7751
  618MOL0     H81538   6.689   0.970   6.026  0.2062  0.5337 -0.0484
  618MOL0     H81539   6.524   0.978   5.844 -0.0996  0.5182 -2.1329
  618MOL0     H81540   6.431   1.157   5.385 -0.7783 -0.1665 -3.1248
  618MOL0     H81541   6.258   1.177   5.230  3.5989 -1.1555 -1.0153
  618MOL0     H81542   5.913   1.185   5.142 -4.7097 -1.5123  0.9351
  618MOL0     H81543   6.018   1.254   5.259  0.1077  1.1289  1.0871
  618MOL0     H81544   5.859   1.194   5.435 -0.1946  1.8267 -1.2205
  618MOL0     H81545   5.796   1.063   5.327 -1.2003 -0.0413  0.0813
  618MOL0     H81546   5.721   1.266   5.186  0.1716  0.9869  0.2335
  618MOL0     H81547   5.768   1.378   5.312  0.5859 -0.0595  1.1810
  618MOL0     H81548   5.559   1.161   5.320  0.2159  0.6438 -5.1429
  618MOL0     H81549   5.594   1.265   5.467 -2.8107 -4.0194  0.6336
  618MOL0     H81550   5.492   1.353   5.187 -1.7599 -2.1868 -0.4712
  618MOL0     H81551   5.544   1.461   5.319  1.8152 -0.9566  1.8635
  618MOL0     H81552   5.362   1.346   5.461  2.1141  3.3989 -0.1095
  618MOL0     H81553   5.321   1.243   5.326  0.4480  1.2940 -2.9247
  618MOL0     H81554   5.308   1.475   5.184 -2.9075 -0.5208 -1.3803
  618MOL0     H81555   5.188   1.375   5.257  1.5010 -0.0722 -1.5791
  618MOL0     H81556   5.227   1.529   5.470 -2.2073  1.6764 -0.0845
  618MOL0     H81557   5.157   1.617   5.342  0.7033  2.9784  3.1965
  618MOL0     H81558   6.018   0.908   5.466  0.0252  1.6544  1.0637
  618MOL0     H81559   6.242   0.873   5.614  0.8090  2.3163  1.2202
  618MOL0     H81560   6.816   0.911   5.548 -0.3622  3.6622 -0.3852
  618MOL0     H81561   6.996   0.895   5.756 -0.5518 -1.2495  0.1509
  618MOL0     H81562   8.445   0.103   5.976 -2.1666  3.2528  0.9116
  618MOL0     H81563   8.666   0.025   5.953 -1.1855 -0.2748  0.6263
  618MOL0     H81564   9.230   0.209   6.044  0.5112  1.7530 -1.7399
  618MOL0     H81565   9.420   0.068   5.999  1.0591 -1.0445 -1.2970
  618MOL0     H81566   9.571   0.063   5.728 -1.2053 -0.6575  1.3358
  618MOL0     H81567   9.432   0.010   5.634 -4.4379 -2.0029  3.5328
  618MOL0     H81568   9.682  -0.072   5.562  0.3139 -2.4806 -1.2919
  618MOL0     H81569   9.684  -0.157   5.703  0.5022 -1.5200  0.1024
  618MOL0     H81570   9.440  -0.201   5.526  0.2915  1.9475 -0.0358
  618MOL0     H81571   9.517  -0.316   5.629  2.7695 -2.4112 -1.5846
  618MOL0     H81572   9.579  -0.365   5.381  1.3942 -2.3555  0.4770
  618MOL0     H81573   9.679  -0.215   5.378  1.6067 -3.3489 -1.2415
  618MOL0     H81574   9.897  -0.482   5.615 -0.6247  1.1716  3.1511
  618MOL0     H81575   9.226  -0.145   5.697  0.0543 -4.1118  2.2380
  618MOL0     H81576   9.011  -0.029   5.753 -0.4659 -1.2865  0.8805
  619MOL0     O81577   6.754   3.664   2.219 -0.1240 -0.1573 -0.9195
  619MOL0     C81578   6.796   3.757   2.155 -0.2718  0.0381  0.2834
  619MOL0     O81579   6.722   3.851   2.093  0.0448  0.1873 -0.7023
  619MOL0     C81580   6.586   3.826   2.096 -0.2995 -0.1054  0.0454
  619MOL0     C81581   6.495   3.808   2.201  0.1326 -0.7897 -0.1806
  619MOL0     C81582   6.357   3.798   2.175  0.1697 -0.4856  0.7214
  619MOL0     C81583   6.310   3.811   2.046 -0.2149  0.7110  0.5514
  619MOL0     O81584   6.173   3.800   2.012 -0.5260  0.1553  0.2148
  619MOL0     C81585   6.087   3.861   2.105 -0.2552 -0.3200 -0.3963
  619MOL0     C81586   5.942   3.881   2.051 -0.0036  0.5281 -0.3187
  619MOL0     C81587   5.863   3.986   2.140 -0.0986 -0.4775 -0.5277
  619MOL0     C81588   5.707   3.979   2.124 -0.5920 -0.1236 -0.7676
  619MOL0     C81589   5.634   4.098   2.188  0.1260  0.0686  0.6313
  619MOL0     C81590   5.486   4.087   2.169  0.3119 -0.8291 -0.7667
  619MOL0     C81591   5.414   4.220   2.197  0.3001  0.3066 -0.3712
  619MOL0     C81592   5.267   4.187   2.246 -0.6110  0.0025  0.4212
  619MOL0     N81593   5.185   4.313   2.232 -0.7545  0.7413  1.6065
  619MOL0     C81594   5.198   4.427   2.302 -0.9326 -0.7233 -0.6345
  619MOL0     C81595   5.100   4.508   2.266  0.0260 -0.8436  0.6678
  619MOL0     C81596   5.077   4.650   2.328  0.3343 -0.2970  0.5206
  619MOL0     C81597   4.953   4.721   2.262  0.1186  0.0563  0.9183
  619MOL0     C81598   4.898   4.819   2.369 -0.2814  0.0944  0.8522
  619MOL0     C81599   4.788   4.902   2.302  0.4864  0.1356  0.2375
  619MOL0     O81600   4.655   4.841   2.305 -0.1601 -0.2035  0.0129
  619MOL0     C81601   4.561   4.923   2.249 -0.8645  0.2948 -0.6579
  619MOL0     C81602   4.451   4.955   2.323 -0.2782  0.2918  0.2333
  619MOL0     C81603   4.352   5.035   2.276 -0.5835  0.1770  0.3547
  619MOL0     C81604   4.366   5.100   2.150  0.4878  0.1941  0.1504
  619MOL0     C81605   4.251   5.162   2.100  0.4064 -0.2864  0.6866
  619MOL0     O81606   4.138   5.172   2.177  0.9314  0.4600 -0.4060
  619MOL0     C81607   4.017   5.171   2.105 -0.0034 -0.7351 -0.1026
  619MOL0     C81608   3.928   5.068   2.111 -0.0696  0.5224  1.1573
  619MOL0     C81609   3.812   5.069   2.029 -0.6423  0.5449  0.0157
  619MOL0     C81610   3.775   5.179   1.950  0.8311  0.3664  0.8378
  619MOL0     O81611   3.658   5.169   1.881 -1.2555  0.1250 -0.7337
  619MOL0     C81612   3.643   5.246   1.763  0.9510  0.0822 -0.5692
  619MOL0     C81613   3.558   5.155   1.664 -0.2031  0.0994  0.7993
  619MOL0     C81614   3.416   5.131   1.714  0.0902  0.2676 -0.1048
  619MOL0     C81615   3.334   5.036   1.626  0.0060  0.0122 -0.2280
  619MOL0     C81616   3.276   5.096   1.500 -0.2529  0.0919  0.0934
  619MOL0     C81617   3.190   4.990   1.432 -0.0435 -0.2740 -0.6413
  619MOL0     C81618   3.132   5.050   1.297 -0.0339  0.5306  0.1645
  619MOL0     C81619   3.025   5.162   1.313  0.2735  0.5544 -0.2526
  619MOL0    Cl81620   2.936   5.170   1.470  0.7837  0.5334  0.3469
  619MOL0     C81621   3.867   5.281   1.946  1.1953 -0.9704 -0.4184
  619MOL0     C81622   3.985   5.277   2.015 -0.2920 -1.1827 -0.4890
  619MOL0     O81623   4.259   5.182   1.976 -0.7661  0.3571 -0.2198
  619MOL0     C81624   4.478   5.074   2.071 -0.0648  1.0555 -0.7124
  619MOL0     C81625   4.573   4.977   2.115  1.1200  0.4930 -0.7031
  619MOL0     N81626   5.034   4.450   2.166 -0.4546 -0.6091 -0.3099
  619MOL0     N81627   5.071   4.326   2.163  0.1178 -0.7917  0.2948
  619MOL0     C81628   6.400   3.828   1.939 -0.4192  1.0084 -1.1073
  619MOL0     C81629   6.534   3.832   1.968 -0.2206  0.0300  0.6949
  619MOL0     C81630   6.941   3.773   2.142  0.3237 -1.1845  0.8059
  619MOL0     C81631   6.997   3.897   2.100 -1.2776 -0.8275  0.1117
  619MOL0     C81632   7.137   3.923   2.116 -0.2831 -0.9874 -0.1064
  619MOL0     C81633   7.219   3.828   2.163  1.1256  0.5550 -0.3077
  619MOL0     O81634   7.347   3.845   2.161 -0.4435 -0.7015  0.0068
  619MOL0     C81635   7.402   3.863   2.286  0.2404 -0.2609  0.0974
  619MOL0     C81636   7.553   3.851   2.282 -0.1933 -0.1500  0.2257
  619MOL0     C81637   7.619   3.929   2.180 -0.7276  0.2978  0.2390
  619MOL0     C81638   7.768   3.909   2.154 -0.2153 -0.6790  0.0256
  619MOL0     C81639   7.856   3.978   2.246  0.3988  0.0870 -0.7550
  619MOL0     C81640   7.937   4.047   2.311 -0.0428  0.8160  0.1840
  619MOL0     C81641   7.166   3.700   2.202  0.4421 -0.5880 -0.3077
  619MOL0     C81642   7.028   3.676   2.190  0.0282  0.3053 -0.1835
  619MOL0     H81643   6.535   3.805   2.302 -1.7333  2.0667  0.7686
  619MOL0     H81644   6.292   3.781   2.260 -1.7830 -0.5443 -0.7207
  619MOL0     H81645   6.132   3.960   2.117 -0.1500 -0.4533  0.3912
  619MOL0     H81646   6.077   3.810   2.201 -1.3080  1.2639  0.3749
  619MOL0     H81647   5.904   3.778   2.045  0.7305  0.1780  0.7617
  619MOL0     H81648   5.957   3.916   1.948  0.4657  1.8884  0.2029
  619MOL0     H81649   5.893   4.090   2.121 -0.0906 -0.4385 -0.3012
  619MOL0     H81650   5.893   3.963   2.242  0.9500  0.7444 -0.5321
  619MOL0     H81651   5.687   3.959   2.018  5.1559 -4.8933 -1.4872
  619MOL0     H81652   5.674   3.879   2.156  0.3091 -0.9776 -2.3579
  619MOL0     H81653   5.683   4.184   2.140 -1.8718  0.4175 -0.9487
  619MOL0     H81654   5.665   4.092   2.292  2.3503  0.5342  0.0530
  619MOL0     H81655   5.439   4.011   2.232 -3.1416  4.6616  4.4681
  619MOL0     H81656   5.463   4.058   2.066 -0.6881  0.4044 -0.9204
  619MOL0     H81657   5.463   4.279   2.275 -4.1500  1.5588  1.7978
  619MOL0     H81658   5.407   4.283   2.107 -1.7718 -3.2572 -2.9546
  619MOL0     H81659   5.269   4.156   2.351  0.5527 -0.7998  0.1767
  619MOL0     H81660   5.210   4.114   2.188 -2.1767  1.4318  0.0836
  619MOL0     H81661   5.259   4.444   2.390  1.2736 -2.4054 -1.7255
  619MOL0     H81662   5.160   4.721   2.331  0.0877  0.1161 -1.4661
  619MOL0     H81663   5.054   4.634   2.434  3.5597 -3.0556  0.9768
  619MOL0     H81664   4.874   4.652   2.229  0.6852  1.0449 -3.1071
  619MOL0     H81665   4.990   4.793   2.189 -1.3204 -0.5948 -0.5148
  619MOL0     H81666   4.860   4.759   2.453  0.3244  1.3055  2.0100
  619MOL0     H81667   4.986   4.874   2.401  0.9914 -0.1906 -1.9455
  619MOL0     H81668   4.822   4.920   2.199  0.7603 -2.2753 -0.1544
  619MOL0     H81669   4.784   4.999   2.353  0.4560 -1.6705  4.0261
  619MOL0     H81670   4.436   4.926   2.427  1.2141  4.1010  1.7020
  619MOL0     H81671   4.276   5.051   2.351  0.8164  0.9991  1.6618
  619MOL0     H81672   3.947   4.991   2.185  1.8984 -1.3665 -1.1451
  619MOL0     H81673   3.739   4.989   2.033 -0.8596  0.7045 -0.7039
  619MOL0     H81674   3.733   5.278   1.710  1.3637  0.3157  0.2549
  619MOL0     H81675   3.585   5.337   1.780  1.0392  0.6718 -3.0395
  619MOL0     H81676   3.611   5.060   1.650  0.0785  0.2501  0.8296
  619MOL0     H81677   3.553   5.207   1.567 -0.4717 -0.3434  0.5735
  619MOL0     H81678   3.375   5.231   1.729  3.8304  1.6298  2.6972
  619MOL0     H81679   3.442   5.081   1.808  1.2122  0.8174 -0.1071
  619MOL0     H81680   3.403   4.952   1.611  5.7185  3.8236  1.2801
  619MOL0     H81681   3.249   5.000   1.685  0.6397 -0.6150  0.3185
  619MOL0     H81682   3.359   5.129   1.437  0.9577  1.1395  2.1301
  619MOL0     H81683   3.216   5.184   1.526 -1.7955 -1.4561  2.0583
  619MOL0     H81684   3.108   4.956   1.497 -1.3851 -1.5751 -2.8993
  619MOL0     H81685   3.246   4.897   1.427  1.4309  0.6435 -2.1081
  619MOL0     H81686   3.217   5.094   1.244  1.0663 -0.3396  1.1445
  619MOL0     H81687   3.091   4.965   1.241 -1.1161  0.0885  1.5642
  619MOL0     H81688   2.960   5.153   1.226  1.1037  2.6374 -1.1734
  619MOL0     H81689   3.074   5.259   1.297 -2.2189  1.9491 -0.0138
  619MOL0     H81690   3.858   5.375   1.892  0.6054  0.0734  1.3959
  619MOL0     H81691   4.059   5.356   1.999 -1.0708 -0.1814  0.7205
  619MOL0     H81692   4.479   5.105   1.967 -2.7888  4.2064  0.0381
  619MOL0     H81693   4.653   4.946   2.049  1.4193 -0.4662  0.0753
  619MOL0     H81694   6.365   3.830   1.837 -2.2246 -0.8747 -0.6074
  619MOL0     H81695   6.612   3.840   1.893  0.8345  0.3870  1.8101
  619MOL0     H81696   6.939   3.967   2.041  1.5048  1.4001 -0.1937
  619MOL0     H81697   7.168   4.024   2.092 -0.3912 -1.6474 -3.5462
  619MOL0     H81698   7.346   3.798   2.355 -4.2596 -1.4354 -4.1015
  619MOL0     H81699   7.390   3.970   2.307  1.6826 -0.1651  0.5633
  619MOL0     H81700   7.599   3.872   2.379  1.3292 -0.5608 -0.3865
  619MOL0     H81701   7.574   3.748   2.255 -0.7545 -0.7940  2.0388
  619MOL0     H81702   7.601   4.037   2.186  0.2129  0.5227 -0.8232
  619MOL0     H81703   7.575   3.903   2.083 -0.9367  1.2544  0.0644
  619MOL0     H81704   7.800   3.805   2.166  4.9630  0.6206 -0.2149
  619MOL0     H81705   7.793   3.930   2.050  1.3498 -1.1586  0.2855
  619MOL0     H81706   8.013   4.101   2.363  0.2093  1.7611 -1.1048
  619MOL0     H81707   7.226   3.629   2.258 -1.4844 -1.3578  0.8796
  619MOL0     H81708   7.001   3.576   2.223  1.0256  0.1325  0.1706
  620MOL0     O81709   0.881   3.661   2.469 -0.4969 -0.4965  0.3930
  620MOL0     C81710   0.916   3.654   2.349  0.7363 -0.1175  0.1947
  620MOL0     O81711   0.837   3.623   2.238 -0.7183  0.7856 -0.8954
  620MOL0     C81712   0.711   3.580   2.247  0.4232  0.3855 -0.1551
  620MOL0     C81713   0.615   3.607   2.349  0.2892 -0.4319 -0.0915
  620MOL0     C81714   0.481   3.566   2.334  0.6443  0.0348  0.2252
  620MOL0     C81715   0.433   3.516   2.211 -0.6275  0.2782 -0.2044
  620MOL0     O81716   0.306   3.477   2.177 -0.3913 -0.0368  0.3303
  620MOL0     C81717   0.206   3.509   2.279  0.1394 -0.1504 -0.3707
  620MOL0     C81718   0.077   3.482   2.223  0.5083 -0.8050 -0.0908
  620MOL0     C81719  -0.033   3.577   2.258 -0.4102 -0.5433  0.4360
  620MOL0     C81720  -0.021   3.698   2.169  0.2189 -0.7183 -0.0064
  620MOL0     C81721  -0.101   3.816   2.234 -0.2243 -0.5307  0.6169
  620MOL0     C81722  -0.256   3.797   2.253 -0.4727  0.0874  0.0055
  620MOL0     C81723  -0.309   3.914   2.334  0.1340 -0.0705 -0.1839
  620MOL0     C81724  -0.351   4.045   2.266  0.6885 -0.3194  0.3269
  620MOL0     N81725  -0.422   4.141   2.359 -1.1708  0.2887  0.2437
  620MOL0     C81726  -0.533   4.217   2.330  0.0505  0.0539 -0.1928
  620MOL0     C81727  -0.562   4.276   2.444  0.3936 -0.3372  0.1365
  620MOL0     C81728  -0.684   4.361   2.460 -0.2773  0.2131  0.1572
  620MOL0     C81729  -0.644   4.494   2.399 -0.4529 -0.6940  0.4772
  620MOL0     C81730  -0.682   4.515   2.250  0.1517 -0.7039 -0.6332
  620MOL0     C81731  -0.662   4.659   2.209  0.6636  0.3951 -0.6250
  620MOL0     O81732  -0.593   4.669   2.086 -0.0820  0.0728  0.7655
  620MOL0     C81733  -0.458   4.671   2.089  0.7383 -0.9116 -0.9544
  620MOL0     C81734  -0.389   4.632   1.972 -0.1299  0.2455 -0.4823
  620MOL0     C81735  -0.252   4.615   1.962 -0.2758 -0.6911 -0.6056
  620MOL0     C81736  -0.170   4.646   2.071 -0.3176 -0.1085 -0.4076
  620MOL0     C81737  -0.027   4.616   2.054  0.3439  0.5293 -0.1493
  620MOL0     O81738   0.020   4.585   1.928  0.8725 -0.3706 -0.3227
  620MOL0     C81739   0.145   4.533   1.902  1.1867  0.5141  0.5538
  620MOL0     C81740   0.159   4.449   1.788  0.0142 -0.2853  0.0030
  620MOL0     C81741   0.287   4.409   1.752  0.8080 -0.0666 -0.2057
  620MOL0     C81742   0.406   4.450   1.814  0.0972  0.3547 -1.0535
  620MOL0     O81743   0.531   4.400   1.768  0.0663 -0.6019  0.3823
  620MOL0     C81744   0.653   4.399   1.852 -0.1066  0.1684 -0.2303
  620MOL0     C81745   0.726   4.538   1.844 -0.3912 -0.3550  0.3001
  620MOL0     C81746   0.874   4.536   1.866  0.1993  0.1478 -0.3008
  620MOL0     C81747   0.895   4.517   2.015  0.1084 -0.1381  0.3922
  620MOL0     C81748   1.047   4.510   2.031  0.1140 -0.3716  0.9843
  620MOL0     C81749   1.090   4.463   2.171  0.0424  0.7348  0.0874
  620MOL0     C81750   1.237   4.430   2.176 -1.3665 -0.1259  0.5434
  620MOL0     C81751   1.265   4.368   2.311 -0.2091  0.0994 -0.2221
  620MOL0    Cl81752   1.432   4.333   2.338  0.5077 -0.0357  0.1419
  620MOL0     C81753   0.385   4.528   1.934 -0.5682  0.2327  0.0186
  620MOL0     C81754   0.265   4.563   1.969  0.2213 -0.9159 -0.9707
  620MOL0     O81755   0.037   4.595   2.154 -0.3749 -0.4907 -0.0405
  620MOL0     C81756  -0.231   4.688   2.194 -0.0687  0.3333 -0.5174
  620MOL0     C81757  -0.371   4.709   2.197 -1.2625 -0.8641 -1.2980
  620MOL0     N81758  -0.455   4.276   2.528  0.3525  0.4644 -0.4940
  620MOL0     N81759  -0.376   4.182   2.475  0.0767  0.3730  0.0444
  620MOL0     C81760   0.532   3.488   2.119 -0.4857  0.0445 -0.6117
  620MOL0     C81761   0.671   3.515   2.137  0.2261  0.0539 -0.0686
  620MOL0     C81762   1.062   3.686   2.320 -0.2287 -0.1510 -0.6060
  620MOL0     C81763   1.130   3.644   2.203 -0.6866  0.3637 -0.2926
  620MOL0     C81764   1.268   3.670   2.185  0.6599  1.0492 -0.4831
  620MOL0     C81765   1.342   3.718   2.292 -0.2999 -0.9673 -0.0375
  620MOL0     O81766   1.477   3.748   2.269 -0.1195  0.0492  0.4865
  620MOL0     C81767   1.541   3.854   2.338 -0.5161 -0.0816 -0.6001
  620MOL0     C81768   1.684   3.864   2.289 -0.2017 -0.3383  0.9946
  620MOL0     C81769   1.763   3.979   2.355 -0.3299 -0.6340  0.5916
  620MOL0     C81770   1.914   3.965   2.319 -0.0283  0.4920  0.0323
  620MOL0     C81771   1.990   4.077   2.371 -0.9389  1.1958 -0.1390
  620MOL0     C81772   2.048   4.181   2.399  0.4352  1.0912 -0.0014
  620MOL0     C81773   1.278   3.753   2.416 -0.8020  0.0407 -0.1266
  620MOL0     C81774   1.143   3.733   2.424  0.1739  0.5840  0.3003
  620MOL0     H81775   0.644   3.660   2.439  0.3618  1.3376 -1.1130
  620MOL0     H81776   0.431   3.591   2.428  2.3733 -0.0510  1.1980
  620MOL0     H81777   0.192   3.612   2.314 -1.7293 -0.8241  1.0151
  620MOL0     H81778   0.209   3.441   2.365 -2.2518 -0.1844 -0.2392
  620MOL0     H81779   0.045   3.394   2.278 -1.3211  1.9695  3.7832
  620MOL0     H81780   0.072   3.459   2.116  1.6148  0.9947 -0.5838
  620MOL0     H81781  -0.025   3.610   2.362  0.8328 -1.5061  0.6712
  620MOL0     H81782  -0.128   3.526   2.245 -0.4321  0.1070 -2.8964
  620MOL0     H81783   0.084   3.719   2.146 -0.0903  1.6093  0.5408
  620MOL0     H81784  -0.067   3.669   2.074  0.0682  0.1625 -0.2132
  620MOL0     H81785  -0.083   3.911   2.184  2.9149 -0.5910  1.4602
  620MOL0     H81786  -0.052   3.828   2.331  0.3053 -0.8960  0.3982
  620MOL0     H81787  -0.271   3.699   2.300  0.1284 -0.9997 -1.9925
  620MOL0     H81788  -0.313   3.795   2.160 -0.0535 -2.0979 -0.2683
  620MOL0     H81789  -0.400   3.878   2.383  2.5392 -3.0939  2.5716
  620MOL0     H81790  -0.242   3.932   2.419  1.1741  3.7927 -1.6286
  620MOL0     H81791  -0.417   4.012   2.185 -0.2370 -0.5450  1.1416
  620MOL0     H81792  -0.259   4.092   2.231  2.1429 -2.4785  1.0592
  620MOL0     H81793  -0.587   4.216   2.236  0.5147 -1.3127 -0.4586
  620MOL0     H81794  -0.721   4.370   2.562 -1.0685  3.1135 -0.2735
  620MOL0     H81795  -0.768   4.322   2.401 -2.8945 -1.2664  4.4642
  620MOL0     H81796  -0.536   4.507   2.415 -0.2058 -2.3948  0.2964
  620MOL0     H81797  -0.698   4.575   2.449  3.2331  1.5866  1.1661
  620MOL0     H81798  -0.626   4.448   2.184  0.2944 -2.8702  1.5628
  620MOL0     H81799  -0.787   4.493   2.231 -0.3080  2.7956 -3.1644
  620MOL0     H81800  -0.622   4.720   2.291 -2.6279  2.9582 -0.7198
  620MOL0     H81801  -0.766   4.692   2.198 -1.7718 -4.5735  3.0749
  620MOL0     H81802  -0.447   4.599   1.887  2.6096 -2.3022 -1.5095
  620MOL0     H81803  -0.219   4.571   1.869 -0.9351 -0.7988 -0.7916
  620MOL0     H81804   0.064   4.421   1.742 -0.1993  1.4227 -0.6498
  620MOL0     H81805   0.302   4.347   1.664 -1.3017  2.6595 -2.6952
  620MOL0     H81806   0.722   4.321   1.820  2.4941  1.6850  1.2757
  620MOL0     H81807   0.623   4.368   1.953 -1.6280  3.6891  0.5767
  620MOL0     H81808   0.674   4.614   1.903 -1.8090 -1.8136  0.9628
  620MOL0     H81809   0.720   4.565   1.738  2.7785  3.2831  0.7977
  620MOL0     H81810   0.919   4.630   1.834  2.6034 -1.2479 -1.2728
  620MOL0     H81811   0.931   4.467   1.804  1.8512 -0.0109  1.2977
  620MOL0     H81812   0.857   4.604   2.069  2.2872  1.9030 -1.1461
  620MOL0     H81813   0.849   4.428   2.060  2.2138 -1.0973  0.7957
  620MOL0     H81814   1.081   4.613   2.016 -3.4208  0.6855 -0.6701
  620MOL0     H81815   1.088   4.447   1.952  0.8963 -0.9359  1.8145
  620MOL0     H81816   1.037   4.370   2.191 -2.4950  2.0201 -0.1674
  620MOL0     H81817   1.052   4.541   2.238 -0.6680 -0.3200  0.9575
  620MOL0     H81818   1.253   4.353   2.100 -0.4801 -1.0180  1.5904
  620MOL0     H81819   1.298   4.519   2.162  0.6345 -1.1692  2.0723
  620MOL0     H81820   1.194   4.285   2.310  0.7278 -0.7565 -2.4443
  620MOL0     H81821   1.230   4.438   2.387 -1.8705 -1.3859  0.4502
  620MOL0     H81822   0.462   4.579   1.991  2.1099 -0.7161 -2.5037
  620MOL0     H81823   0.246   4.626   2.055  0.1887 -2.9431  0.5969
  620MOL0     H81824  -0.162   4.718   2.273  1.4980 -1.1296 -1.2633
  620MOL0     H81825  -0.408   4.750   2.290 -0.7712  0.4993 -1.6798
  620MOL0     H81826   0.496   3.451   2.024  0.7272 -1.2945 -0.5855
  620MOL0     H81827   0.749   3.496   2.064 -0.6031 -0.9944 -0.7044
  620MOL0     H81828   1.075   3.613   2.116  0.9327  0.1036 -1.2593
  620MOL0     H81829   1.310   3.650   2.087  1.8043  1.2389 -0.0550
  620MOL0     H81830   1.541   3.836   2.446 -1.1516 -1.6798 -0.8394
  620MOL0     H81831   1.486   3.946   2.315 -0.6408  0.1444  0.5107
  620MOL0     H81832   1.742   3.771   2.290  1.6489  0.7735  1.1654
  620MOL0     H81833   1.680   3.886   2.181  1.9328  0.3474  1.0002
  620MOL0     H81834   1.754   3.972   2.463 -2.1545 -0.9503  0.4553
  620MOL0     H81835   1.730   4.077   2.317  0.5012 -0.2888  0.7350
  620MOL0     H81836   1.957   3.867   2.341  1.0893  1.4231  2.2238
  620MOL0     H81837   1.926   3.971   2.210 -0.0124  2.7001  0.1036
  620MOL0     H81838   2.111   4.266   2.415 -0.6348  2.0494 -0.6582
  620MOL0     H81839   1.336   3.810   2.488  1.2908  2.2082 -3.2848
  620MOL0     H81840   1.108   3.762   2.523  0.5823  2.8688 -0.1605
  621MOL0     O81841   6.593   0.331   8.261  0.4687  0.0199 -0.3810
  621MOL0     C81842   6.646   0.261   8.177 -0.0542  0.5996  0.1424
  621MOL0     O81843   6.587   0.180   8.088  0.0436 -0.3221 -0.8666
  621MOL0     C81844   6.448   0.197   8.073 -0.1737 -1.3257 -0.1017
  621MOL0     C81845   6.358   0.107   8.114  0.1012  0.1843  0.1964
  621MOL0     C81846   6.220   0.123   8.087 -0.4888  0.2114 -0.1753
  621MOL0     C81847   6.178   0.232   8.008  0.2423 -0.1002 -0.6758
  621MOL0     O81848   6.051   0.254   7.967 -0.4126 -0.1782  0.3786
  621MOL0     C81849   5.930   0.199   8.033  0.0041  0.7638  0.1980
  621MOL0     C81850   5.798   0.277   8.002  0.6255  0.2228  0.8645
  621MOL0     C81851   5.732   0.261   7.863 -0.5486 -0.2444 -0.2794
  621MOL0     C81852   5.640   0.372   7.832 -0.1670  0.0055  0.5505
  621MOL0     C81853   5.576   0.335   7.699 -0.1996  0.9980  0.0166
  621MOL0     C81854   5.526   0.466   7.621 -0.3198  1.0512 -0.2579
  621MOL0     C81855   5.436   0.563   7.704  0.0799 -0.3165  0.6097
  621MOL0     C81856   5.288   0.502   7.740  0.4642 -0.1991 -0.2122
  621MOL0     N81857   5.201   0.470   7.627 -0.5082  0.3959 -0.6546
  621MOL0     C81858   5.122   0.566   7.574  0.5080 -0.6707 -0.4176
  621MOL0     C81859   5.058   0.509   7.472 -0.4277  0.2623  0.6038
  621MOL0     C81860   4.954   0.558   7.370 -0.0667  0.5157 -1.1979
  621MOL0     C81861   4.819   0.547   7.453 -0.1980 -0.3354 -0.3084
  621MOL0     C81862   4.761   0.405   7.480 -0.3595  0.1357 -0.7619
  621MOL0     C81863   4.755   0.304   7.361 -0.1374  0.1773  0.0835
  621MOL0     O81864   4.685   0.360   7.251  0.4641 -0.1406  0.5410
  621MOL0     C81865   4.548   0.351   7.245 -0.4291 -0.1472 -0.2388
  621MOL0     C81866   4.481   0.464   7.188 -0.8706  0.1977  0.5245
  621MOL0     C81867   4.339   0.470   7.189 -0.2667  0.2660  0.1862
  621MOL0     C81868   4.258   0.360   7.229  0.0549 -0.2933 -0.7806
  621MOL0     C81869   4.117   0.383   7.222  0.9722 -0.2417 -0.0355
  621MOL0     O81870   4.067   0.499   7.174  1.5220 -0.5749  0.2969
  621MOL0     C81871   3.934   0.527   7.139  0.7857 -0.8111 -0.2556
  621MOL0     C81872   3.845   0.434   7.105 -0.2706  0.9048  0.6309
  621MOL0     C81873   3.715   0.461   7.098  0.0658 -0.7439 -0.7272
  621MOL0     C81874   3.668   0.577   7.149  0.6100 -0.3530 -0.5753
  621MOL0     O81875   3.531   0.599   7.134  0.6128  0.1617 -0.2033
  621MOL0     C81876   3.461   0.687   7.232  0.6034 -0.6002 -0.2929
  621MOL0     C81877   3.438   0.605   7.357 -0.1447 -0.5647  0.1145
  621MOL0     C81878   3.329   0.510   7.329  1.0745 -0.1677 -0.1286
  621MOL0     C81879   3.188   0.563   7.338 -0.1264  0.5111 -0.3992
  621MOL0     C81880   3.088   0.454   7.285  0.2924  0.4687  0.1214
  621MOL0     C81881   2.948   0.508   7.266 -0.0591  0.1565 -0.6606
  621MOL0     C81882   2.849   0.384   7.289 -0.5042  0.4583 -1.2343
  621MOL0     C81883   2.705   0.429   7.278 -0.1514 -1.1298  0.1847
  621MOL0    Cl81884   2.684   0.566   7.384  0.0558  0.1261 -0.1370
  621MOL0     C81885   3.756   0.683   7.191  0.3310  0.9457  0.0540
  621MOL0     C81886   3.886   0.658   7.161 -1.1132 -0.2748 -0.3940
  621MOL0     O81887   4.045   0.289   7.265 -0.0182 -0.3746 -0.4959
  621MOL0     C81888   4.329   0.247   7.270  0.4431 -0.3225 -0.3312
  621MOL0     C81889   4.471   0.241   7.282  0.5166  0.0606 -0.3266
  621MOL0     N81890   5.102   0.379   7.467  0.2671  0.2215  0.5057
  621MOL0     N81891   5.186   0.355   7.566 -0.7729  1.5855  0.6142
  621MOL0     C81892   6.271   0.330   7.975  0.7083  0.6191  0.2562
  621MOL0     C81893   6.405   0.318   8.006  0.1922 -0.7230  0.3538
  621MOL0     C81894   6.791   0.256   8.156  0.3807 -0.4249 -0.5294
  621MOL0     C81895   6.842   0.168   8.067 -0.1952 -0.5061  1.0432
  621MOL0     C81896   6.979   0.143   8.050  0.1093  0.1587  0.2281
  621MOL0     C81897   7.069   0.201   8.147 -0.4214 -0.2952 -0.5100
  621MOL0     O81898   7.204   0.174   8.152  0.3820  0.1098  0.0304
  621MOL0     C81899   7.280   0.157   8.034 -0.4517 -0.5203  0.0715
  621MOL0     C81900   7.426   0.155   8.077 -0.1968 -0.3102 -0.1747
  621MOL0     C81901   7.482   0.285   8.141 -0.1808 -0.4286  0.1180
  621MOL0     C81902   7.636   0.272   8.188  0.9923 -0.0040  0.0215
  621MOL0     C81903   7.736   0.240   8.089 -0.5857 -0.1065  0.0308
  621MOL0     C81904   7.827   0.216   8.017 -0.3785  1.1646 -0.7828
  621MOL0     C81905   7.015   0.291   8.244 -0.2937  0.1668  1.4207
  621MOL0     C81906   6.876   0.321   8.250  0.6140  0.5325  0.2343
  621MOL0     H81907   6.382   0.021   8.175 -5.4501 -2.3319 -0.5146
  621MOL0     H81908   6.152   0.047   8.124  1.5281 -0.4488  2.4980
  621MOL0     H81909   5.937   0.201   8.142 -0.3840 -0.0364  0.2402
  621MOL0     H81910   5.911   0.099   7.993  0.9638  0.9178 -0.6946
  621MOL0     H81911   5.813   0.385   8.010  0.6108  0.3562 -0.6571
  621MOL0     H81912   5.718   0.241   8.068  0.6271 -1.9725 -0.2236
  621MOL0     H81913   5.659   0.180   7.860 -4.0240  2.6032  0.1082
  621MOL0     H81914   5.810   0.250   7.787  0.0091  0.7901  0.1236
  621MOL0     H81915   5.558   0.392   7.901  0.3154  5.1884  0.0776
  621MOL0     H81916   5.696   0.466   7.822  0.5669 -0.5805 -1.2329
  621MOL0     H81917   5.488   0.286   7.743 -0.0951  2.5666  2.1479
  621MOL0     H81918   5.626   0.269   7.629 -4.3378  0.5697 -2.8771
  621MOL0     H81919   5.475   0.445   7.527  0.4913  1.1194 -0.7291
  621MOL0     H81920   5.620   0.519   7.599 -1.8517  3.2538 -1.9499
  621MOL0     H81921   5.491   0.581   7.797 -0.3036 -0.0516  0.7888
  621MOL0     H81922   5.427   0.655   7.645  1.2433 -1.4850 -1.5103
  621MOL0     H81923   5.246   0.578   7.806  2.0078  1.5137 -1.1041
  621MOL0     H81924   5.297   0.407   7.795  1.5708 -0.7425 -1.2589
  621MOL0     H81925   5.104   0.664   7.616  2.3262 -1.2225  1.8492
  621MOL0     H81926   4.951   0.499   7.277  0.9064 -0.7390 -0.4733
  621MOL0     H81927   4.965   0.662   7.340  0.5646  0.8702  0.2040
  621MOL0     H81928   4.742   0.612   7.411  0.5461  3.3815  3.4076
  621MOL0     H81929   4.831   0.601   7.548 -2.6535  1.4994 -0.9434
  621MOL0     H81930   4.817   0.363   7.564  0.9032 -0.6735 -1.9635
  621MOL0     H81931   4.657   0.422   7.508 -0.5799 -1.2177 -0.7041
  621MOL0     H81932   4.719   0.203   7.378 -3.4183  0.7612 -2.4254
  621MOL0     H81933   4.855   0.285   7.320 -1.2933 -2.8779 -1.5895
  621MOL0     H81934   4.556   0.541   7.171  0.9739 -1.4596  0.7904
  621MOL0     H81935   4.296   0.559   7.145  1.8426  0.5854 -1.3995
  621MOL0     H81936   3.885   0.340   7.067 -1.6226  1.2399 -1.8913
  621MOL0     H81937   3.646   0.384   7.065 -1.4096  0.1206  0.2197
  621MOL0     H81938   3.362   0.715   7.195  0.6912 -0.0317 -0.1027
  621MOL0     H81939   3.517   0.779   7.244  0.4549 -0.3946 -1.1291
  621MOL0     H81940   3.416   0.664   7.446 -3.0661  0.0911 -0.9141
  621MOL0     H81941   3.523   0.541   7.382 -1.9595 -2.8066  1.0027
  621MOL0     H81942   3.338   0.416   7.385 -0.8411 -1.2599 -1.5513
  621MOL0     H81943   3.358   0.477   7.229 -0.4500 -2.0507 -0.0215
  621MOL0     H81944   3.167   0.590   7.442  1.1053  0.4608 -0.1201
  621MOL0     H81945   3.187   0.656   7.280  4.4868  1.6942  0.9803
  621MOL0     H81946   3.089   0.364   7.347 -0.0261  1.1547  1.1455
  621MOL0     H81947   3.121   0.432   7.183  0.5266 -2.5872  0.7716
  621MOL0     H81948   2.927   0.549   7.167 -1.2199 -0.1536 -0.5578
  621MOL0     H81949   2.934   0.587   7.340  2.6474  0.9385 -0.8844
  621MOL0     H81950   2.882   0.306   7.219  3.5906  0.4868  0.3524
  621MOL0     H81951   2.864   0.337   7.386 -0.5322  3.7952  0.5294
  621MOL0     H81952   2.636   0.347   7.301 -0.8360  0.0866  2.9054
  621MOL0     H81953   2.683   0.449   7.173  0.7568 -1.6015 -0.1043
  621MOL0     H81954   3.708   0.775   7.221 -0.9443  0.2687  0.1583
  621MOL0     H81955   3.953   0.738   7.191 -0.4566 -0.2045 -1.9632
  621MOL0     H81956   4.273   0.155   7.289 -0.4072  0.1732 -0.3670
  621MOL0     H81957   4.512   0.146   7.313  1.1257 -0.6430 -3.0718
  621MOL0     H81958   6.236   0.411   7.912 -1.1245 -1.6395 -1.8220
  621MOL0     H81959   6.467   0.398   7.966 -0.5330 -0.9547 -1.3215
  621MOL0     H81960   6.776   0.122   7.994 -0.1582  1.7273 -0.4825
  621MOL0     H81961   7.022   0.077   7.975 -1.4155  0.1002 -0.6428
  621MOL0     H81962   7.269   0.237   7.960 -0.8246  0.7861  1.4874
  621MOL0     H81963   7.256   0.058   7.994 -0.3114 -0.5812  0.1361
  621MOL0     H81964   7.465   0.080   8.146  2.0361  1.3747  0.5265
  621MOL0     H81965   7.482   0.142   7.983 -0.0723  0.3307 -0.1977
  621MOL0     H81966   7.435   0.301   8.238  1.5528  1.4367  0.7164
  621MOL0     H81967   7.464   0.369   8.073  0.2543 -0.2992  0.1582
  621MOL0     H81968   7.677   0.365   8.229 -0.6182  0.0089  1.7694
  621MOL0     H81969   7.643   0.199   8.269 -1.3239  1.8477  2.0831
  621MOL0     H81970   7.907   0.181   7.955  1.5798 -2.5242  3.2811
  621MOL0     H81971   7.073   0.338   8.322  0.9594 -2.0602  1.9036
  621MOL0     H81972   6.849   0.397   8.323  1.4748  0.4646  0.6331
  622MOL0     O81973   5.612  10.641   7.698 -0.8948 -0.8266  0.1160
  622MOL0     C81974   5.657  10.529   7.670 -0.2381 -0.4039  0.2454
  622MOL0     O81975   5.607  10.442   7.580 -0.1952 -0.5340  0.7351
  622MOL0     C81976   5.472  10.460   7.549  0.1415 -1.3156  0.0043
  622MOL0     C81977   5.367  10.393   7.618  0.9110 -0.1460 -0.4855
  622MOL0     C81978   5.233  10.428   7.589  0.5123 -0.9032 -0.2195
  622MOL0     C81979   5.202  10.507   7.480  0.7654 -1.5894 -0.1522
  622MOL0     O81980   5.062  10.538   7.451 -0.0839  0.1770 -0.2094
  622MOL0     C81981   4.956  10.533   7.551 -0.5376  0.4388 -0.6930
  622MOL0     C81982   4.831  10.600   7.502 -0.2037  0.5331 -0.4894
  622MOL0     C81983   4.708  10.613   7.597  0.1073 -0.5015  0.5451
  622MOL0     C81984   4.670  10.478   7.658 -0.4792  0.4247  0.4919
  622MOL0     C81985   4.661  10.357   7.563  0.3532 -0.4123  0.0065
  622MOL0     C81986   4.543  10.372   7.464 -0.7688  0.9251 -0.1926
  622MOL0     C81987   4.521  10.245   7.373 -0.6383  0.1890  0.4690
  622MOL0     C81988   4.384  10.252   7.293 -0.4449  0.5089 -0.2296
  622MOL0     N81989   4.349  10.125   7.242 -1.1183  0.1750  0.3392
  622MOL0     C81990   4.292  10.019   7.315 -0.4384  0.2655  0.1102
  622MOL0     C81991   4.278   9.919   7.223  0.0910 -0.7683  0.4045
  622MOL0     C81992   4.214   9.779   7.255 -0.8173 -0.1538 -0.0146
  622MOL0     C81993   4.067   9.797   7.229  0.6972  0.4551  1.5286
  622MOL0     C81994   3.980   9.682   7.258 -1.0439 -0.0615  0.0532
  622MOL0     C81995   3.973   9.650   7.407  0.2536  0.4343  0.7359
  622MOL0     O81996   3.909   9.768   7.464  0.1397 -0.3154  0.6414
  622MOL0     C81997   3.778   9.771   7.493 -0.2047  0.5527  0.0248
  622MOL0     C81998   3.684   9.688   7.430 -0.5533 -0.7190 -0.0407
  622MOL0     C81999   3.553   9.715   7.453 -0.7264  0.4344  0.9198
  622MOL0     C82000   3.506   9.816   7.534 -0.0398  0.2000 -0.6871
  622MOL0     C82001   3.363   9.834   7.558 -0.6470  0.1053  0.9316
  622MOL0     O82002   3.286   9.735   7.526 -0.4727 -0.3035 -0.5659
  622MOL0     C82003   3.150   9.739   7.535 -0.0144  0.8351 -0.1512
  622MOL0     C82004   3.071   9.709   7.422 -1.1234 -0.0100  0.0166
  622MOL0     C82005   2.933   9.698   7.434  0.6095  0.5779  0.1594
  622MOL0     C82006   2.872   9.725   7.551  0.3550 -0.1070  0.1157
  622MOL0     O82007   2.737   9.714   7.554  0.7789  0.5226 -0.7643
  622MOL0     C82008   2.671   9.811   7.638 -0.3807  0.5230 -0.6623
  622MOL0     C82009   2.520   9.816   7.595 -0.4991  0.7290  0.1620
  622MOL0     C82010   2.502   9.849   7.453  0.3404 -0.5929  0.5566
  622MOL0     C82011   2.355   9.828   7.410  1.7932  0.4863  0.5426
  622MOL0     C82012   2.321   9.673   7.408  0.6325 -0.1172  0.0808
  622MOL0     C82013   2.200   9.649   7.334 -0.0451  0.0796  0.0623
  622MOL0     C82014   2.160   9.503   7.336  0.9419  0.0274 -0.3421
  622MOL0     C82015   2.057   9.481   7.230  0.4854 -0.2575  0.2229
  622MOL0    Cl82016   1.886   9.516   7.276  0.1070 -0.1763  0.4653
  622MOL0     C82017   2.953   9.758   7.665  0.5609  0.2935 -0.0553
  622MOL0     C82018   3.085   9.757   7.657 -0.7468 -0.1645  0.2328
  622MOL0     O82019   3.328   9.937   7.616 -0.3084  0.5310  0.1566
  622MOL0     C82020   3.602   9.887   7.604  0.2683 -0.5283 -0.3792
  622MOL0     C82021   3.739   9.864   7.580 -0.8445  0.2840  0.0212
  622MOL0     N82022   4.323   9.971   7.092 -1.1282  0.5531 -0.5451
  622MOL0     N82023   4.366  10.091   7.109  0.6757 -0.2774  1.2005
  622MOL0     C82024   5.311  10.558   7.400 -0.4961 -0.6019 -0.2537
  622MOL0     C82025   5.446  10.534   7.435 -0.7598 -0.9215 -0.4004
  622MOL0     C82026   5.777  10.501   7.748 -0.6803 -0.5246 -1.0840
  622MOL0     C82027   5.810  10.373   7.790  0.1116 -0.0371 -0.4938
  622MOL0     C82028   5.906  10.345   7.887  1.4891  0.0143 -0.3928
  622MOL0     C82029   5.988  10.439   7.928 -0.3911  0.2288 -1.0750
  622MOL0     O82030   6.074  10.395   8.022  0.6586 -0.1970  0.0013
  622MOL0     C82031   6.151  10.485   8.108  1.0244 -0.9238  0.7017
  622MOL0     C82032   6.205  10.407   8.234 -0.9645 -0.1435  0.3872
  622MOL0     C82033   6.088  10.338   8.313 -0.2617 -0.0150  0.6708
  622MOL0     C82034   6.093  10.363   8.465 -0.3521  0.8184 -0.4015
  622MOL0     C82035   5.968  10.304   8.513  0.2145 -0.3246 -0.2702
  622MOL0     C82036   5.856  10.278   8.557  0.8816  0.3015 -0.4375
  622MOL0     C82037   5.972  10.571   7.888  0.7548 -0.9046  0.2234
  622MOL0     C82038   5.868  10.600   7.792 -0.0026 -0.0114  0.4456
  622MOL0     H82039   5.380  10.328   7.704 -3.2164 -0.3850  0.1836
  622MOL0     H82040   5.146  10.392   7.644 -1.2219 -0.6330 -2.6092
  622MOL0     H82041   4.996  10.588   7.637 -0.1058  0.4443 -0.8937
  622MOL0     H82042   4.934  10.433   7.588  0.0454  0.8861  0.9302
  622MOL0     H82043   4.797  10.539   7.419  3.5893  0.2558 -2.0604
  622MOL0     H82044   4.851  10.700   7.462 -1.2418  0.7137 -0.5644
  622MOL0     H82045   4.619  10.641   7.539  1.1566  2.5228  0.2701
  622MOL0     H82046   4.727  10.684   7.677  2.0806  1.8297 -1.8165
  622MOL0     H82047   4.754  10.449   7.722 -0.4179  0.4950  0.4417
  622MOL0     H82048   4.579  10.482   7.719 -1.7680 -0.6584 -1.2548
  622MOL0     H82049   4.637  10.272   7.628 -0.9971  1.8720  2.7332
  622MOL0     H82050   4.755  10.341   7.511  0.8902 -2.0930  1.3884
  622MOL0     H82051   4.565  10.464   7.407 -3.6398  2.6304  1.2137
  622MOL0     H82052   4.454  10.396   7.522  0.2961  2.1279  1.0284
  622MOL0     H82053   4.600  10.252   7.298 -2.1681  2.0998 -1.0529
  622MOL0     H82054   4.531  10.150   7.427 -3.1426 -1.6423 -2.0109
  622MOL0     H82055   4.391  10.329   7.216  0.0538  1.0829  0.3711
  622MOL0     H82056   4.308  10.288   7.363 -1.1447  0.6312 -1.0501
  622MOL0     H82057   4.269  10.009   7.420 -1.1340 -0.0948 -0.0760
  622MOL0     H82058   4.232   9.761   7.361  0.7619 -0.1220 -0.2597
  622MOL0     H82059   4.266   9.697   7.204  0.4355  0.0929  0.8192
  622MOL0     H82060   4.058   9.810   7.121 -1.6509  2.8236  1.8953
  622MOL0     H82061   4.029   9.891   7.271 -0.9823  0.5346 -0.0641
  622MOL0     H82062   3.880   9.707   7.222 -1.3203 -2.4944 -1.1109
  622MOL0     H82063   4.009   9.590   7.205 -1.0429 -1.2195  1.9673
  622MOL0     H82064   4.073   9.638   7.451  0.2288  0.7498  0.8902
  622MOL0     H82065   3.923   9.557   7.434  4.4918 -2.6613 -1.0501
  622MOL0     H82066   3.705   9.601   7.370  0.6811 -0.4255 -0.0596
  622MOL0     H82067   3.472   9.656   7.411 -1.5861  0.8956  1.8973
  622MOL0     H82068   3.110   9.709   7.321  3.1299  2.1236  1.4214
  622MOL0     H82069   2.870   9.679   7.347 -0.4128 -1.8432  1.3474
  622MOL0     H82070   2.712   9.905   7.600 -1.0938 -0.6115 -4.7141
  622MOL0     H82071   2.685   9.791   7.744  0.2763  0.8394 -0.6882
  622MOL0     H82072   2.474   9.897   7.653 -0.6972 -1.0540  2.6790
  622MOL0     H82073   2.468   9.725   7.627  1.4715 -1.5480 -2.6160
  622MOL0     H82074   2.563   9.773   7.404 -1.4122 -1.2844 -0.6561
  622MOL0     H82075   2.531   9.950   7.425 -0.8159 -0.9560 -2.2736
  622MOL0     H82076   2.281   9.887   7.464  0.9660  0.2243 -0.2669
  622MOL0     H82077   2.360   9.868   7.308 -0.2396  1.0748  0.6144
  622MOL0     H82078   2.321   9.637   7.511 -2.3645 -0.7533 -0.0525
  622MOL0     H82079   2.399   9.609   7.365 -0.6705 -1.3860 -0.4883
  622MOL0     H82080   2.221   9.675   7.230 -0.1343 -2.3221 -0.6279
  622MOL0     H82081   2.113   9.707   7.366  1.4008  1.4933  1.5767
  622MOL0     H82082   2.245   9.443   7.303  2.1133  0.3871  1.8560
  622MOL0     H82083   2.126   9.474   7.436  0.0295  0.3589 -0.5455
  622MOL0     H82084   2.059   9.374   7.204 -0.4205 -1.6312  4.9254
  622MOL0     H82085   2.072   9.555   7.150 -3.4841  1.7643  1.1097
  622MOL0     H82086   2.900   9.792   7.753 -1.4109  2.1595 -1.8526
  622MOL0     H82087   3.133   9.777   7.752  0.1593 -2.1345  0.2408
  622MOL0     H82088   3.574   9.965   7.674 -0.9445  0.0157 -1.4455
  622MOL0     H82089   3.820   9.926   7.619  0.0063  0.0180 -1.2623
  622MOL0     H82090   5.293  10.624   7.316 -0.6341 -0.3908 -0.0601
  622MOL0     H82091   5.523  10.588   7.381 -2.5610  2.3292 -0.0239
  622MOL0     H82092   5.748  10.290   7.756  0.5007 -1.2956  1.6983
  622MOL0     H82093   5.913  10.240   7.914  2.4528 -0.2686 -1.6524
  622MOL0     H82094   6.080  10.558   8.148  1.4104  0.1764 -0.5884
  622MOL0     H82095   6.230  10.528   8.047 -0.7426  1.6474  0.0324
  622MOL0     H82096   6.272  10.328   8.198  0.7734  0.6776  1.6754
  622MOL0     H82097   6.274  10.466   8.295 -0.4042 -0.7282  0.3347
  622MOL0     H82098   6.091  10.232   8.290  1.9522 -0.0575  0.9485
  622MOL0     H82099   5.995  10.375   8.270 -0.2791  0.8933  1.4456
  622MOL0     H82100   6.181  10.307   8.500 -0.6898  1.2647  1.2843
  622MOL0     H82101   6.097  10.466   8.501  0.4945 -0.5954  4.3272
  622MOL0     H82102   5.753  10.262   8.583  1.7207  0.8037  3.9962
  622MOL0     H82103   6.029  10.659   7.913  1.5295 -0.3958 -2.8512
  622MOL0     H82104   5.859  10.705   7.765 -0.5421  0.3206  1.8460
  623MOL0     O82105   9.815   4.550   0.412 -0.0631  0.0001  0.6910
  623MOL0     C82106   9.846   4.568   0.533  0.4764 -0.0203 -0.0342
  623MOL0     O82107   9.762   4.567   0.635  0.1648  0.2034 -1.1549
  623MOL0     C82108   9.633   4.534   0.605  1.0705  0.5462  0.1049
  623MOL0     C82109   9.583   4.423   0.532 -0.3389  0.9138  0.5862
  623MOL0     C82110   9.438   4.420   0.515  0.3602 -0.7068  0.3387
  623MOL0     C82111   9.351   4.519   0.557  0.6341 -0.0426 -0.7867
  623MOL0     O82112   9.214   4.510   0.531  0.3988  0.8714 -0.9523
  623MOL0     C82113   9.132   4.621   0.533 -0.0343 -0.8018  0.2546
  623MOL0     C82114   9.000   4.562   0.513 -0.0147 -0.2704  0.4160
  623MOL0     C82115   8.933   4.518   0.639  0.6628  0.0687 -0.2530
  623MOL0     C82116   8.798   4.453   0.613  0.7936  0.0850  0.4961
  623MOL0     C82117   8.683   4.542   0.555 -0.2667  0.8674 -0.1344
  623MOL0     C82118   8.558   4.462   0.554  0.4621  0.2603 -0.3672
  623MOL0     C82119   8.433   4.528   0.504  0.8010  0.1326 -0.2320
  623MOL0     C82120   8.364   4.623   0.597 -0.6716  0.0356  0.4518
  623MOL0     N82121   8.249   4.686   0.538  0.5894 -0.7310 -0.3172
  623MOL0     C82122   8.150   4.623   0.458 -0.2564 -0.8352  0.6257
  623MOL0     C82123   8.096   4.717   0.379  0.0302  0.8384  0.2735
  623MOL0     C82124   7.988   4.715   0.274 -0.0954  0.4561 -0.2048
  623MOL0     C82125   7.875   4.814   0.280  0.5164 -0.4566 -0.7075
  623MOL0     C82126   7.758   4.765   0.360 -0.3400  0.5376  0.0913
  623MOL0     C82127   7.654   4.880   0.394  0.6659 -0.4385  0.8863
  623MOL0     O82128   7.572   4.905   0.272  0.0480  0.7206  0.4284
  623MOL0     C82129   7.488   5.015   0.263 -0.9587 -1.2135 -0.2229
  623MOL0     C82130   7.450   5.085   0.378  1.0812  0.6311  0.3747
  623MOL0     C82131   7.358   5.191   0.376 -0.6877 -0.1393  1.3630
  623MOL0     C82132   7.299   5.231   0.249 -0.1471 -0.1868 -1.7211
  623MOL0     C82133   7.213   5.346   0.255  0.4737  0.0590  1.2764
  623MOL0     O82134   7.137   5.374   0.141  0.0611 -0.2072  0.1273
  623MOL0     C82135   7.058   5.490   0.155 -0.2800  0.1441  0.0875
  623MOL0     C82136   7.118   5.615   0.175 -0.5230 -0.1354  0.0085
  623MOL0     C82137   7.037   5.738   0.173  0.2258 -0.1047  0.9900
  623MOL0     C82138   6.905   5.728   0.142  0.3838  0.7816  0.0399
  623MOL0     O82139   6.824   5.838   0.137 -0.6547  0.5876 -0.3526
  623MOL0     C82140   6.689   5.821   0.191  0.4705 -0.5282 -0.1518
  623MOL0     C82141   6.656   5.951   0.269 -0.2547  0.2308  0.1406
  623MOL0     C82142   6.512   5.977   0.315  0.3314 -0.2665 -0.2070
  623MOL0     C82143   6.412   5.999   0.207  0.0056 -0.0775 -0.4655
  623MOL0     C82144   6.282   6.024   0.271  0.0384  0.6731 -0.7453
  623MOL0     C82145   6.163   6.009   0.179  1.0829  0.1139  1.2219
  623MOL0     C82146   6.159   5.871   0.112 -0.8387  0.5271  0.5414
  623MOL0     C82147   6.025   5.857   0.035 -0.7057 -0.1305 -0.2640
  623MOL0    Cl82148   6.009   5.700  -0.041  0.5008 -0.2052 -0.3843
  623MOL0     C82149   6.842   5.600   0.129  1.1404  0.9753 -0.8244
  623MOL0     C82150   6.919   5.481   0.135  0.2476 -0.6945  0.1817
  623MOL0     O82151   7.216   5.411   0.365 -0.0415 -0.3447  0.2282
  623MOL0     C82152   7.342   5.162   0.136  0.1449 -0.1189  0.8750
  623MOL0     C82153   7.441   5.057   0.145 -0.0991 -0.3953  0.3420
  623MOL0     N82154   8.151   4.837   0.426 -0.3842  0.5607 -0.0780
  623MOL0     N82155   8.247   4.820   0.515  0.1363 -0.3190  0.4473
  623MOL0     C82156   9.414   4.620   0.632  0.5189 -0.2306 -0.7571
  623MOL0     C82157   9.547   4.639   0.651  0.0969 -1.7442  0.3464
  623MOL0     C82158   9.984   4.624   0.557  0.4475 -0.7561  0.2858
  623MOL0     C82159  10.081   4.608   0.456  0.0643 -0.0098 -0.7016
  623MOL0     C82160  10.209   4.661   0.475  0.0255 -0.7060  0.3425
  623MOL0     C82161  10.252   4.725   0.595  0.2162 -0.9653 -0.1997
  623MOL0     O82162  10.377   4.766   0.612 -0.4702 -0.0484 -0.8572
  623MOL0     C82163  10.469   4.747   0.498  0.1352 -0.6898  0.2082
  623MOL0     C82164  10.606   4.810   0.521  0.0045  0.8697  0.5997
  623MOL0     C82165  10.592   4.969   0.556 -0.1088 -0.4586  0.5522
  623MOL0     C82166  10.727   5.032   0.604 -0.0922  0.4131  0.2117
  623MOL0     C82167  10.833   5.055   0.502  0.7988 -0.4425 -0.2050
  623MOL0     C82168  10.919   5.058   0.413 -0.2933 -0.5707  0.4940
  623MOL0     C82169  10.160   4.739   0.698  0.5412  0.6271 -0.8394
  623MOL0     C82170  10.024   4.690   0.675 -0.2270 -0.2254 -0.3763
  623MOL0     H82171   9.637   4.337   0.495  1.5269  2.8308 -1.4151
  623MOL0     H82172   9.401   4.331   0.466 -1.0648 -0.2157  0.4912
  623MOL0     H82173   9.145   4.674   0.438  0.6130 -1.4530 -0.0351
  623MOL0     H82174   9.129   4.686   0.620 -0.5819 -0.1182 -0.2669
  623MOL0     H82175   9.016   4.489   0.433 -1.0069 -0.6688  0.5701
  623MOL0     H82176   8.936   4.646   0.483  0.6573 -0.2625 -1.0990
  623MOL0     H82177   8.909   4.596   0.711  0.2655 -0.8997  0.6929
  623MOL0     H82178   9.000   4.439   0.672  1.0541  0.7334  0.5770
  623MOL0     H82179   8.823   4.358   0.563  2.1609  1.5163 -1.7671
  623MOL0     H82180   8.761   4.432   0.713 -1.8170  1.2282 -0.1481
  623MOL0     H82181   8.719   4.571   0.456 -0.9829 -1.5675 -1.1948
  623MOL0     H82182   8.679   4.639   0.603 -1.4029  0.4559  0.6538
  623MOL0     H82183   8.539   4.423   0.655  0.1536  0.0026 -0.5246
  623MOL0     H82184   8.588   4.376   0.494  1.9837  0.6561 -0.2215
  623MOL0     H82185   8.458   4.583   0.412  0.6110  0.9094  0.1687
  623MOL0     H82186   8.368   4.448   0.469  0.8096  0.2117 -0.4322
  623MOL0     H82187   8.439   4.694   0.635 -0.5058 -1.8659  4.1877
  623MOL0     H82188   8.327   4.583   0.693 -2.5621 -1.1726 -0.7061
  623MOL0     H82189   8.134   4.516   0.453 -0.0785 -0.8380  0.0087
  623MOL0     H82190   7.937   4.618   0.272 -2.6335  1.6307  1.6254
  623MOL0     H82191   8.048   4.730   0.184 -0.6622  2.0020 -0.3538
  623MOL0     H82192   7.850   4.845   0.178  0.0859 -1.1317 -0.8186
  623MOL0     H82193   7.910   4.895   0.344 -4.0183  1.7399 -0.6307
  623MOL0     H82194   7.697   4.688   0.313  0.6601  0.2682 -0.8072
  623MOL0     H82195   7.791   4.726   0.457 -1.1650  1.1717  0.6364
  623MOL0     H82196   7.698   4.975   0.424  1.9177 -0.4423 -0.7930
  623MOL0     H82197   7.590   4.835   0.471 -1.8676 -1.4699 -1.5955
  623MOL0     H82198   7.489   5.066   0.477 -0.3562  1.3120  1.1122
  623MOL0     H82199   7.322   5.227   0.472  1.2837 -0.2709  2.1863
  623MOL0     H82200   7.223   5.620   0.205 -0.0920  1.2558 -1.6120
  623MOL0     H82201   7.077   5.838   0.183 -1.1634  0.4769  0.8428
  623MOL0     H82202   6.693   5.738   0.262  1.9753  0.9270  1.5728
  623MOL0     H82203   6.617   5.793   0.113  1.6333 -1.5479 -0.9096
  623MOL0     H82204   6.679   6.037   0.206 -3.2340  2.4117  1.7974
  623MOL0     H82205   6.714   5.958   0.362 -1.7068  0.9921  1.0285
  623MOL0     H82206   6.515   6.074   0.367  0.5818 -0.0637 -0.5966
  623MOL0     H82207   6.489   5.896   0.385  0.0370 -0.7290 -0.8352
  623MOL0     H82208   6.453   6.084   0.150  2.8157 -2.4234 -2.2828
  623MOL0     H82209   6.411   5.907   0.148  0.6313 -1.4391  1.5616
  623MOL0     H82210   6.296   6.120   0.320 -1.3504  0.2144  0.6187
  623MOL0     H82211   6.265   5.941   0.341  0.2963  0.8964 -0.4185
  623MOL0     H82212   6.167   6.079   0.095 -1.0040 -2.4410 -1.2423
  623MOL0     H82213   6.065   6.027   0.223  0.3402  1.5235 -0.8582
  623MOL0     H82214   6.233   5.857   0.032  1.3671  1.4434  2.2951
  623MOL0     H82215   6.164   5.789   0.185  3.1161  0.2738  0.2526
  623MOL0     H82216   6.033   5.930  -0.046 -3.1001  2.4681  1.6477
  623MOL0     H82217   5.936   5.885   0.091  1.1891  3.6616  1.2293
  623MOL0     H82218   6.737   5.575   0.126  1.2905  0.1849  0.0869
  623MOL0     H82219   6.867   5.388   0.115 -1.3833  0.4898 -1.3052
  623MOL0     H82220   7.295   5.184   0.041 -0.2041 -3.0791  0.2516
  623MOL0     H82221   7.477   5.017   0.051 -0.8134  0.4022 -0.2893
  623MOL0     H82222   9.350   4.679   0.697  1.1685  0.0257 -0.3303
  623MOL0     H82223   9.589   4.725   0.702  0.3174 -1.8468  0.3390
  623MOL0     H82224  10.053   4.573   0.357 -0.1390 -3.2816  0.4092
  623MOL0     H82225  10.272   4.638   0.390  1.4971 -0.8684  1.4442
  623MOL0     H82226  10.436   4.792   0.404  2.1984 -0.8520 -0.6563
  623MOL0     H82227  10.482   4.640   0.477  1.3964 -0.7797  1.2739
  623MOL0     H82228  10.646   4.758   0.609 -1.4446 -1.4471 -0.0085
  623MOL0     H82229  10.672   4.793   0.435 -1.0891  1.8449 -0.4640
  623MOL0     H82230  10.512   4.976   0.631 -0.8647 -2.2530 -0.0296
  623MOL0     H82231  10.555   5.024   0.469  1.1857  0.3324  0.4783
  623MOL0     H82232  10.701   5.130   0.647  1.0627  2.3155 -3.0351
  623MOL0     H82233  10.773   4.963   0.675 -1.1060 -0.6590 -0.1433
  623MOL0     H82234  10.999   5.058   0.342 -1.7180  0.1648 -1.2175
  623MOL0     H82235  10.194   4.772   0.796 -1.1805  0.6444 -0.1993
  623MOL0     H82236   9.955   4.698   0.758  1.2923 -1.4075  1.0827
  624MOL0     O82237   4.629   3.259   9.468  0.4998 -0.9183 -0.1762
  624MOL0     C82238   4.584   3.338   9.550  0.6314  0.1199 -1.3806
  624MOL0     O82239   4.648   3.395   9.653  0.8655 -0.4963  0.0316
  624MOL0     C82240   4.774   3.355   9.674 -0.3907  0.4465  0.0844
  624MOL0     C82241   4.872   3.400   9.585 -0.3807 -0.0610  0.9921
  624MOL0     C82242   4.999   3.363   9.606 -0.7030  0.1633  0.1842
  624MOL0     C82243   5.039   3.274   9.714 -0.4336 -1.3536  0.5066
  624MOL0     O82244   5.170   3.243   9.734  0.0254  0.7825 -0.5020
  624MOL0     C82245   5.208   3.137   9.828 -1.0036  0.2951 -0.1244
  624MOL0     C82246   5.358   3.109   9.829  0.8125  0.7619  0.6392
  624MOL0     C82247   5.432   3.229   9.869 -0.0226 -0.1395 -0.1423
  624MOL0     C82248   5.578   3.229   9.819  0.2380  1.6432  0.4777
  624MOL0     C82249   5.645   3.364   9.845 -0.1508  0.2388 -0.5731
  624MOL0     C82250   5.676   3.395   9.996  0.0959 -0.5156 -0.1062
  624MOL0     C82251   5.767   3.297  10.059 -0.6671  0.1203 -1.0171
  624MOL0     C82252   5.913   3.315  10.005  0.1384 -1.1092 -0.6501
  624MOL0     N82253   5.980   3.193  10.011 -1.0716  1.2480  0.3414
  624MOL0     C82254   6.099   3.172  10.071  0.0097  0.3843 -0.3189
  624MOL0     C82255   6.142   3.057  10.021 -0.5103 -0.5206  0.4989
  624MOL0     C82256   6.289   3.007  10.061 -0.0025 -0.5309  1.1565
  624MOL0     C82257   6.316   2.863  10.040  0.9258 -0.0259 -0.5504
  624MOL0     C82258   6.372   2.823   9.904  1.3781 -0.6160  0.4205
  624MOL0     C82259   6.523   2.847   9.898  0.4742 -0.0130 -0.4204
  624MOL0     O82260   6.604   2.759   9.991  0.0929  0.1920 -0.0705
  624MOL0     C82261   6.741   2.779   9.977  0.4187  0.5578 -0.5117
  624MOL0     C82262   6.812   2.861   9.892  1.1132 -0.6385  0.3945
  624MOL0     C82263   6.948   2.854   9.865 -0.1246  0.1156 -0.0083
  624MOL0     C82264   7.030   2.783   9.959  0.3717 -0.3420  0.2530
  624MOL0     C82265   7.172   2.777   9.944 -0.0681 -0.1927 -0.4434
  624MOL0     O82266   7.248   2.687  10.022  0.3500  0.6386  0.3892
  624MOL0     C82267   7.377   2.700  10.054 -0.7497  0.4652 -1.0904
  624MOL0     C82268   7.424   2.610  10.142 -0.4582 -0.0638 -0.2993
  624MOL0     C82269   7.559   2.612  10.194  0.0537  0.4226  0.9282
  624MOL0     C82270   7.648   2.711  10.159 -0.2960 -0.0763 -0.1441
  624MOL0     O82271   7.769   2.716  10.213  0.0162 -0.8226  0.4317
  624MOL0     C82272   7.881   2.768  10.131  0.4529  0.6021 -0.0953
  624MOL0     C82273   8.027   2.736  10.177  0.3609 -0.2366  0.2066
  624MOL0     C82274   8.073   2.800  10.303 -0.5864  0.7865 -0.3881
  624MOL0     C82275   8.203   2.742  10.353  0.9369 -0.1709 -0.4772
  624MOL0     C82276   8.329   2.778  10.270  0.1809  0.0618  0.2163
  624MOL0     C82277   8.409   2.898  10.335  0.5847  0.0303  0.0860
  624MOL0     C82278   8.550   2.896  10.273  0.5259  1.2136 -0.9864
  624MOL0     C82279   8.646   2.948  10.382 -0.6091  0.5229 -0.6474
  624MOL0    Cl82280   8.806   2.994  10.313  0.0840  0.1671  0.4935
  624MOL0     C82281   7.604   2.798  10.067  0.0225 -0.0191  0.0732
  624MOL0     C82282   7.470   2.798  10.011  1.2679  0.6703  0.2302
  624MOL0     O82283   7.216   2.847   9.850  0.3323  0.5271  0.4368
  624MOL0     C82284   6.960   2.702  10.051 -0.9352 -1.1602  0.3924
  624MOL0     C82285   6.818   2.703  10.056 -0.7823  1.2543  0.5492
  624MOL0     N82286   6.053   3.008   9.918  0.6523 -0.3366  0.4886
  624MOL0     N82287   5.959   3.090   9.927 -0.1114 -0.2436  0.9963
  624MOL0     C82288   4.938   3.225   9.797 -0.1036  0.2051  0.0803
  624MOL0     C82289   4.811   3.273   9.780 -0.2257 -0.6399 -0.2901
  624MOL0     C82290   4.444   3.388   9.537 -0.0361  0.6139  0.2985
  624MOL0     C82291   4.369   3.360   9.418 -0.3314 -0.1572 -0.2235
  624MOL0     C82292   4.238   3.404   9.409  1.2555  0.3500  0.0014
  624MOL0     C82293   4.177   3.480   9.511  0.1784  0.6150 -0.1387
  624MOL0     O82294   4.055   3.528   9.487 -0.0148 -0.0036  0.1911
  624MOL0     C82295   4.039   3.640   9.401 -0.6581 -0.0267  0.6017
  624MOL0     C82296   3.893   3.696   9.419 -0.0292 -0.3072  0.9372
  624MOL0     C82297   3.829   3.758   9.296 -0.5129  0.6603  0.2593
  624MOL0     C82298   3.675   3.791   9.309 -0.8534  0.2187 -0.0334
  624MOL0     C82299   3.666   3.914   9.391  0.5710  0.5211  0.4909
  624MOL0     C82300   3.666   4.006   9.463 -0.1444 -0.1069 -0.3171
  624MOL0     C82301   4.248   3.505   9.626 -0.2203  0.2607  0.1155
  624MOL0     C82302   4.380   3.464   9.643  0.0217 -0.2508 -0.3381
  624MOL0     H82303   4.852   3.454   9.493 -0.5374  0.1192  1.1314
  624MOL0     H82304   5.079   3.408   9.548  1.4223  2.5234  4.4491
  624MOL0     H82305   5.153   3.047   9.799 -1.1980  1.2112 -2.9182
  624MOL0     H82306   5.179   3.177   9.925  0.1974  0.4755  0.1800
  624MOL0     H82307   5.376   3.088   9.723 -3.5063 -1.6071  0.1506
  624MOL0     H82308   5.392   3.019   9.882  1.0155  1.6133  1.9915
  624MOL0     H82309   5.430   3.244   9.978  2.3684 -0.9792  0.0600
  624MOL0     H82310   5.381   3.316   9.826 -1.4993 -1.5776 -1.4725
  624MOL0     H82311   5.620   3.146   9.876 -3.5835 -1.8816 -1.3708
  624MOL0     H82312   5.576   3.213   9.711 -0.1200  0.5530  0.6411
  624MOL0     H82313   5.583   3.437   9.791 -0.0206  1.1577  0.4714
  624MOL0     H82314   5.746   3.371   9.804  0.7938  1.2411  1.7628
  624MOL0     H82315   5.585   3.387  10.055  1.2088 -0.1501  1.7311
  624MOL0     H82316   5.713   3.498  10.002 -3.5002  0.9512 -0.7716
  624MOL0     H82317   5.758   3.308  10.168  1.4712  1.5817 -0.9414
  624MOL0     H82318   5.731   3.194  10.045 -2.1478  0.6524 -1.3612
  624MOL0     H82319   5.961   3.389  10.069 -0.7825 -0.1997 -0.9918
  624MOL0     H82320   5.913   3.357   9.904  0.6299  1.0955  0.2289
  624MOL0     H82321   6.141   3.250  10.134  1.8937  2.6114 -3.9663
  624MOL0     H82322   6.315   3.031  10.165  0.1283 -1.4267  1.3339
  624MOL0     H82323   6.362   3.067  10.004 -1.3160  0.6912  0.7002
  624MOL0     H82324   6.223   2.809  10.061  0.9271 -0.5621 -1.7902
  624MOL0     H82325   6.379   2.839  10.126  2.4799  2.4573 -0.8986
  624MOL0     H82326   6.344   2.720   9.882 -0.3455  0.4191 -2.9919
  624MOL0     H82327   6.329   2.887   9.827  2.1293  0.4746  0.8798
  624MOL0     H82328   6.534   2.953   9.924 -2.0918  0.4842 -1.0419
  624MOL0     H82329   6.563   2.841   9.797  1.4129  0.7935 -0.1096
  624MOL0     H82330   6.755   2.928   9.828 -1.3255 -0.9066  2.1300
  624MOL0     H82331   6.995   2.898   9.778 -0.8946 -0.0822 -0.5338
  624MOL0     H82332   7.345   2.546  10.180 -0.2997  1.2745  2.5471
  624MOL0     H82333   7.598   2.543  10.268 -0.2194 -2.3719 -1.3508
  624MOL0     H82334   7.863   2.876  10.125 -3.7251  0.0066 -0.9215
  624MOL0     H82335   7.874   2.724  10.031 -0.3212  2.4423 -0.8908
  624MOL0     H82336   8.086   2.781  10.096 -1.2940  0.3767 -0.7057
  624MOL0     H82337   8.037   2.627  10.177  0.3475 -0.2591  1.8881
  624MOL0     H82338   7.996   2.790  10.381 -0.8968  3.5207 -0.2389
  624MOL0     H82339   8.089   2.908  10.289  0.0621  1.0382  1.7969
  624MOL0     H82340   8.217   2.772  10.458 -1.3262 -2.3907  0.5832
  624MOL0     H82341   8.198   2.634  10.337 -0.4089  0.1861 -3.0352
  624MOL0     H82342   8.301   2.805  10.167  0.7343 -0.7285 -0.1439
  624MOL0     H82343   8.400   2.696  10.260  0.5064  0.6141 -5.4443
  624MOL0     H82344   8.424   2.888  10.443 -1.2638 -1.2039  0.2824
  624MOL0     H82345   8.357   2.991  10.311 -1.3005 -1.4460 -2.0799
  624MOL0     H82346   8.586   2.797  10.246  1.1493  0.5952  1.7936
  624MOL0     H82347   8.545   2.960  10.184  0.1406  2.2105 -0.2763
  624MOL0     H82348   8.649   2.874  10.463 -0.3759  2.4757  1.2336
  624MOL0     H82349   8.598   3.036  10.428  1.4954 -0.5333  4.1993
  624MOL0     H82350   7.666   2.882  10.039 -0.7966  0.1241 -1.4276
  624MOL0     H82351   7.436   2.875   9.943  2.6669 -0.3626 -1.7124
  624MOL0     H82352   7.007   2.643  10.130 -1.7613  0.1363  1.9070
  624MOL0     H82353   6.770   2.641  10.131  1.7876  0.8889  2.0249
  624MOL0     H82354   4.966   3.157   9.877  1.0098  1.3883  0.7351
  624MOL0     H82355   4.744   3.229   9.853 -0.1789 -2.2106 -1.1534
  624MOL0     H82356   4.426   3.321   9.334  2.2516  3.4181 -0.3398
  624MOL0     H82357   4.191   3.377   9.315 -1.5055 -1.9111  1.8777
  624MOL0     H82358   4.056   3.603   9.299  1.2931  0.2565  0.7779
  624MOL0     H82359   4.117   3.716   9.416 -1.1736  1.2338 -2.3968
  624MOL0     H82360   3.827   3.614   9.452 -1.4750 -0.4267 -1.9399
  624MOL0     H82361   3.890   3.772   9.497  1.2780  0.6739  0.0715
  624MOL0     H82362   3.847   3.691   9.212  0.2524  1.8641 -0.5601
  624MOL0     H82363   3.869   3.856   9.267 -0.6793 -0.0323 -2.5989
  624MOL0     H82364   3.641   3.811   9.207 -1.3002  1.7310  0.3894
  624MOL0     H82365   3.632   3.703   9.359 -3.2359  2.0180  1.2707
  624MOL0     H82366   3.651   4.092   9.526 -1.5326 -1.7090  1.6588
  624MOL0     H82367   4.198   3.561   9.704  0.1103 -2.6712  2.6459
  624MOL0     H82368   4.432   3.483   9.737 -2.1776  0.0478  0.8859
  625MOL0     O82369   9.166   5.637   7.350  0.2453  0.0054 -1.1400
  625MOL0     C82370   9.273   5.589   7.323 -0.7740  0.9153  0.0695
  625MOL0     O82371   9.292   5.474   7.253 -0.2851  0.4027  0.0736
  625MOL0     C82372   9.168   5.406   7.235  0.1322 -0.9156  0.2750
  625MOL0     C82373   9.147   5.284   7.300  0.2496 -0.0561 -0.5552
  625MOL0     C82374   9.030   5.202   7.274 -0.3926 -0.1769  0.1536
  625MOL0     C82375   8.939   5.247   7.180  0.2297 -0.1924 -0.9597
  625MOL0     O82376   8.834   5.173   7.142 -0.2745  0.0610 -0.5164
  625MOL0     C82377   8.766   5.086   7.234 -0.3442 -1.4075 -0.0359
  625MOL0     C82378   8.752   4.949   7.167  0.0831 -0.0041  0.2706
  625MOL0     C82379   8.718   4.836   7.268  0.2589 -1.2898  0.2350
  625MOL0     C82380   8.607   4.862   7.369 -0.3546  0.9150 -0.5199
  625MOL0     C82381   8.465   4.861   7.320 -0.2258 -0.3362 -0.1507
  625MOL0     C82382   8.369   4.869   7.431  0.5750 -0.7021  0.4080
  625MOL0     C82383   8.237   4.803   7.395  0.6703  0.0579  0.8216
  625MOL0     C82384   8.235   4.651   7.431 -0.5888  0.3691 -0.0608
  625MOL0     N82385   8.114   4.580   7.403  0.2808  0.5726  0.0049
  625MOL0     C82386   8.012   4.596   7.305  0.4342 -0.0474  0.7067
  625MOL0     C82387   7.909   4.525   7.349 -0.0379 -0.3684  1.1516
  625MOL0     C82388   7.768   4.535   7.291  0.6404  0.1439 -0.8181
  625MOL0     C82389   7.707   4.403   7.250  0.2002 -0.0806  0.1895
  625MOL0     C82390   7.665   4.292   7.346 -0.0259 -1.0762  0.7146
  625MOL0     C82391   7.549   4.343   7.436 -0.9219  0.4091  0.2758
  625MOL0     O82392   7.535   4.258   7.554  0.5616  0.3324  0.3396
  625MOL0     C82393   7.412   4.206   7.582 -0.6129 -0.3588  0.1158
  625MOL0     C82394   7.417   4.086   7.656  0.5900  0.6801 -0.3996
  625MOL0     C82395   7.297   4.040   7.732  0.0260 -0.7416 -0.7107
  625MOL0     C82396   7.175   4.107   7.715  0.7673  0.4035  0.3074
  625MOL0     C82397   7.053   4.045   7.776 -0.5295 -0.0214 -0.9590
  625MOL0     O82398   7.066   3.921   7.844  0.4479 -0.3417  0.6174
  625MOL0     C82399   6.947   3.860   7.892  0.3044 -1.4101  1.5762
  625MOL0     C82400   6.953   3.815   8.025 -0.7804  0.5632 -0.4590
  625MOL0     C82401   6.848   3.750   8.085 -0.0159  0.0286  0.4739
  625MOL0     C82402   6.738   3.715   8.008  0.0281  0.2172  0.0293
  625MOL0     O82403   6.637   3.671   8.085 -0.4100 -0.3456  0.6082
  625MOL0     C82404   6.552   3.778   8.107  0.8074 -1.4735  0.0305
  625MOL0     C82405   6.452   3.741   8.218  0.7413  0.3754 -0.0682
  625MOL0     C82406   6.519   3.756   8.355  1.0453  0.1642 -0.3113
  625MOL0     C82407   6.416   3.758   8.462  0.2879 -0.1251 -0.8474
  625MOL0     C82408   6.480   3.788   8.601  0.6103  0.9323 -0.6366
  625MOL0     C82409   6.387   3.825   8.718  0.5675  0.0315  0.1736
  625MOL0     C82410   6.268   3.731   8.734 -0.3315  1.4540  0.3120
  625MOL0     C82411   6.173   3.763   8.848  0.5113  0.5817 -0.4711
  625MOL0    Cl82412   6.046   3.857   8.778 -0.2611 -0.3793  0.1805
  625MOL0     C82413   6.729   3.761   7.874  0.3671  0.1702 -0.4237
  625MOL0     C82414   6.839   3.828   7.812 -0.8775  0.5798 -0.3238
  625MOL0     O82415   6.950   4.106   7.766  0.6581  0.0824 -0.1427
  625MOL0     C82416   7.168   4.222   7.637 -0.8324  0.1885  0.4242
  625MOL0     C82417   7.287   4.270   7.568 -0.3956 -0.1521 -0.4720
  625MOL0     N82418   7.942   4.452   7.460 -0.8829 -0.8443 -0.0084
  625MOL0     N82419   8.065   4.488   7.494  0.5503  0.2939 -0.4254
  625MOL0     C82420   8.959   5.370   7.110 -0.0800  0.6045 -0.1704
  625MOL0     C82421   9.075   5.449   7.135  0.3524  0.6212 -0.5758
  625MOL0     C82422   9.397   5.642   7.381 -0.5685  0.3891  0.8174
  625MOL0     C82423   9.390   5.757   7.462 -1.1167 -0.0356 -0.3191
  625MOL0     C82424   9.510   5.800   7.531  0.0107  0.1098  0.2266
  625MOL0     C82425   9.635   5.733   7.517  0.5978  0.2034 -0.5655
  625MOL0     O82426   9.739   5.779   7.595  0.5213  0.2167 -0.4054
  625MOL0     C82427   9.873   5.776   7.542  0.3629 -0.1707  0.1822
  625MOL0     C82428   9.935   5.887   7.643  1.1766 -0.2031 -1.5633
  625MOL0     C82429  10.087   5.882   7.659 -0.9744 -0.0689  0.1547
  625MOL0     C82430  10.161   5.909   7.529  0.2321 -0.8750 -0.8158
  625MOL0     C82431  10.154   6.045   7.482  0.5188  0.9551  1.3533
  625MOL0     C82432  10.135   6.155   7.439  0.7811  0.7261  0.1926
  625MOL0     C82433   9.638   5.622   7.433 -0.0581 -0.1598  0.5799
  625MOL0     C82434   9.520   5.590   7.359 -0.7849  0.9545  0.2205
  625MOL0     H82435   9.214   5.258   7.382 -1.9177  1.9603  2.0511
  625MOL0     H82436   9.010   5.108   7.324  0.2885 -0.6685 -0.4713
  625MOL0     H82437   8.669   5.131   7.255  1.2118  1.4561  1.7031
  625MOL0     H82438   8.810   5.078   7.334 -2.8575  0.7878  1.3685
  625MOL0     H82439   8.845   4.920   7.117  1.4510  2.4798  1.1802
  625MOL0     H82440   8.680   4.943   7.085  0.2517 -1.0205  0.1898
  625MOL0     H82441   8.809   4.830   7.328  0.1507  3.1541  1.2036
  625MOL0     H82442   8.701   4.745   7.210  3.0986 -0.8422 -1.4540
  625MOL0     H82443   8.612   4.800   7.459 -0.0270  3.2825  1.2257
  625MOL0     H82444   8.610   4.965   7.407  0.1481  0.5530  0.4667
  625MOL0     H82445   8.445   4.767   7.267 -1.2427 -1.1746  1.6610
  625MOL0     H82446   8.450   4.940   7.245  2.8474 -0.4499 -1.0485
  625MOL0     H82447   8.355   4.974   7.457  4.5638 -0.3520  1.9407
  625MOL0     H82448   8.402   4.817   7.522  1.9205  0.7549  0.8003
  625MOL0     H82449   8.156   4.847   7.454  1.6656  0.4872  1.9175
  625MOL0     H82450   8.209   4.819   7.291 -1.3515 -0.1579  1.2966
  625MOL0     H82451   8.257   4.639   7.537 -0.5388 -1.9365 -0.2817
  625MOL0     H82452   8.311   4.608   7.365  0.8110  0.1511  1.6241
  625MOL0     H82453   8.006   4.665   7.221 -1.7532  0.5034  1.2526
  625MOL0     H82454   7.760   4.616   7.218  1.7823  0.5533 -0.5084
  625MOL0     H82455   7.702   4.560   7.374  1.7924 -0.5279  0.3343
  625MOL0     H82456   7.767   4.359   7.170 -1.8014  1.2651 -2.1922
  625MOL0     H82457   7.609   4.432   7.209 -1.5271 -2.3299  2.3534
  625MOL0     H82458   7.633   4.208   7.283 -0.0766  0.7965 -1.9058
  625MOL0     H82459   7.756   4.264   7.400  4.0782 -0.3274 -4.8757
  625MOL0     H82460   7.458   4.340   7.376 -0.8546  1.3148  0.1060
  625MOL0     H82461   7.544   4.449   7.461  0.2546  1.0599 -1.9069
  625MOL0     H82462   7.510   4.033   7.669 -0.8021 -1.5245  1.3409
  625MOL0     H82463   7.301   3.951   7.794 -0.7470  0.7064  1.5004
  625MOL0     H82464   7.036   3.842   8.090 -0.6311  1.8026 -1.1363
  625MOL0     H82465   6.854   3.720   8.189 -0.2676 -0.9034  0.2267
  625MOL0     H82466   6.489   3.802   8.021  1.2687  0.4997  0.1918
  625MOL0     H82467   6.605   3.870   8.134  0.2562 -0.7936 -1.1402
  625MOL0     H82468   6.417   3.637   8.215  1.6296 -0.0671  2.5294
  625MOL0     H82469   6.362   3.802   8.208 -0.8793 -2.1396 -3.0103
  625MOL0     H82470   6.584   3.844   8.353  2.5312 -0.7908  1.9725
  625MOL0     H82471   6.580   3.667   8.373 -1.1822 -1.1049  1.4517
  625MOL0     H82472   6.344   3.832   8.428  0.7376 -0.1217 -1.8184
  625MOL0     H82473   6.352   3.670   8.453  2.1451 -1.5340 -0.9912
  625MOL0     H82474   6.553   3.869   8.598 -1.0015  2.6040  1.9264
  625MOL0     H82475   6.528   3.698   8.641 -1.8744 -1.2824 -2.2949
  625MOL0     H82476   6.350   3.926   8.697 -3.1224 -0.8356  1.6091
  625MOL0     H82477   6.444   3.828   8.811 -3.9460  0.0170  3.2824
  625MOL0     H82478   6.214   3.721   8.640  0.2107  0.0813  0.1212
  625MOL0     H82479   6.323   3.637   8.739  1.8955  2.3398 -3.4064
  625MOL0     H82480   6.229   3.806   8.931 -0.0376  0.0043  0.2129
  625MOL0     H82481   6.127   3.670   8.884 -0.6097 -0.0854 -3.3228
  625MOL0     H82482   6.640   3.740   7.816  0.9126 -2.0719 -0.5441
  625MOL0     H82483   6.829   3.857   7.708 -2.5230  2.9602  0.4088
  625MOL0     H82484   7.079   4.279   7.616  0.1518  3.5959  4.2059
  625MOL0     H82485   7.271   4.364   7.516 -0.3788 -0.0532 -0.3015
  625MOL0     H82486   8.888   5.393   7.031 -1.8334 -1.0296  0.8647
  625MOL0     H82487   9.090   5.546   7.089  0.5189  1.8201  1.8594
  625MOL0     H82488   9.301   5.811   7.491 -1.6449 -0.1911 -1.6069
  625MOL0     H82489   9.502   5.889   7.593 -0.8686 -0.9554  1.7009
  625MOL0     H82490   9.863   5.812   7.439 -4.4446 -1.6389 -0.1214
  625MOL0     H82491   9.921   5.680   7.559 -0.1525 -0.1291  2.0723
  625MOL0     H82492   9.887   5.980   7.613 -4.2487 -1.8504  0.8781
  625MOL0     H82493   9.904   5.863   7.744 -0.5093  0.2099 -1.9615
  625MOL0     H82494  10.113   5.787   7.707 -1.6375 -0.1122  0.4445
  625MOL0     H82495  10.127   5.952   7.732  0.3234 -1.3920  0.7640
  625MOL0     H82496  10.268   5.895   7.549 -0.2716 -3.0407  0.6280
  625MOL0     H82497  10.116   5.842   7.455  0.4442  0.9262 -2.6718
  625MOL0     H82498  10.124   6.254   7.402 -2.6890  0.0616 -0.9132
  625MOL0     H82499   9.726   5.560   7.421  0.0335  0.0082  0.3795
  625MOL0     H82500   9.530   5.507   7.291 -0.5840  2.9688 -2.3624
  626MOL0     O82501   3.833   4.599  10.455  0.4821  0.2269  0.4679
  626MOL0     C82502   3.750   4.521  10.505  0.3016  0.7701  0.4459
  626MOL0     O82503   3.774   4.421  10.589  0.0864 -0.1621 -1.1653
  626MOL0     C82504   3.897   4.381  10.633 -0.2258 -0.8375 -0.9634
  626MOL0     C82505   3.914   4.260  10.693 -0.0719  1.1675  0.6517
  626MOL0     C82506   4.047   4.215  10.737  0.0237 -0.4440 -0.3648
  626MOL0     C82507   4.156   4.288  10.719  0.0392 -0.5428  1.1416
  626MOL0     O82508   4.276   4.252  10.779  0.0553  0.3464  0.1149
  626MOL0     C82509   4.401   4.277  10.713  0.0984 -0.4572  0.1929
  626MOL0     C82510   4.506   4.171  10.752 -0.3254  0.1330  0.0103
  626MOL0     C82511   4.640   4.205  10.676  0.0089  0.8476 -0.8962
  626MOL0     C82512   4.756   4.114  10.706  0.8437  0.4371  0.1805
  626MOL0     C82513   4.745   3.983  10.628 -0.1852  0.5693 -0.7405
  626MOL0     C82514   4.880   3.924  10.635 -0.9666 -0.3503  0.3511
  626MOL0     C82515   4.992   3.983  10.537  1.0946  0.0549  0.1561
  626MOL0     C82516   5.094   3.878  10.476 -0.6177 -0.2038 -0.1732
  626MOL0     N82517   5.179   3.792  10.558  0.3455  0.2419  0.2885
  626MOL0     C82518   5.275   3.833  10.651 -0.0306 -1.2244 -0.1543
  626MOL0     C82519   5.317   3.719  10.704  0.0036  0.5023 -0.3206
  626MOL0     C82520   5.410   3.709  10.818 -0.0076  0.7457  0.8618
  626MOL0     C82521   5.507   3.592  10.798  0.6224  0.1954 -1.0259
  626MOL0     C82522   5.565   3.551  10.936 -0.2082 -1.6163  0.2950
  626MOL0     C82523   5.680   3.460  10.912 -0.2370  0.3538  0.1536
  626MOL0     O82524   5.802   3.513  10.853  0.4041 -0.4782 -0.2458
  626MOL0     C82525   5.915   3.448  10.863 -0.3077 -0.1143 -0.3832
  626MOL0     C82526   6.031   3.502  10.798 -0.1370 -0.2033  0.9585
  626MOL0     C82527   6.146   3.429  10.787  0.5464  0.0554 -0.0810
  626MOL0     C82528   6.156   3.309  10.861 -0.3604 -0.4233  0.4676
  626MOL0     C82529   6.277   3.233  10.867  0.1128  0.7468 -0.5265
  626MOL0     O82530   6.378   3.256  10.780 -1.0722  0.1891 -0.4443
  626MOL0     C82531   6.510   3.217  10.789  0.1127 -1.1273 -0.5294
  626MOL0     C82532   6.574   3.211  10.670 -0.4892  0.1337  0.3168
  626MOL0     C82533   6.716   3.207  10.660  0.1757  0.4775  1.0436
  626MOL0     C82534   6.789   3.195  10.773  0.1570 -0.1938  0.8466
  626MOL0     O82535   6.927   3.217  10.768  0.2931  0.4913 -0.6112
  626MOL0     C82536   6.980   3.313  10.671  0.5023 -0.8104 -0.3416
  626MOL0     C82537   7.128   3.340  10.697  0.0697  0.4153 -0.0772
  626MOL0     C82538   7.172   3.332  10.844 -0.4647  0.4993  0.0671
  626MOL0     C82539   7.101   3.435  10.928  0.0201 -0.0802 -0.1509
  626MOL0     C82540   7.145   3.438  11.080 -0.2223 -0.4353 -0.8175
  626MOL0     C82541   7.288   3.510  11.086  0.1417 -0.5023  0.3974
  626MOL0     C82542   7.349   3.492  11.225  0.2753 -0.3562  0.7352
  626MOL0     C82543   7.253   3.515  11.348 -0.0616  1.2269 -0.4456
  626MOL0    Cl82544   7.190   3.356  11.418  0.2453 -0.2697 -0.2229
  626MOL0     C82545   6.727   3.157  10.895  0.7422  0.0119  0.2116
  626MOL0     C82546   6.588   3.199  10.905 -0.4856 -0.0038 -0.0665
  626MOL0     O82547   6.291   3.149  10.956  0.0838  0.0218 -0.7061
  626MOL0     C82548   6.047   3.253  10.929 -0.1259  0.1438 -0.0816
  626MOL0     C82549   5.934   3.330  10.934 -0.4282  0.3325  0.0424
  626MOL0     N82550   5.262   3.612  10.641 -0.2454 -0.2437 -0.1884
  626MOL0     N82551   5.167   3.657  10.570 -0.2882  0.4294  0.0481
  626MOL0     C82552   4.134   4.416  10.655 -0.6832 -0.1356  0.4514
  626MOL0     C82553   4.010   4.460  10.606  0.4847 -0.0481  0.8390
  626MOL0     C82554   3.608   4.554  10.481  0.5108 -0.4776 -0.5953
  626MOL0     C82555   3.575   4.665  10.390 -0.1200  0.5286 -0.0063
  626MOL0     C82556   3.441   4.703  10.362 -0.8139 -0.9630 -0.1999
  626MOL0     C82557   3.340   4.630  10.432 -0.7113 -0.1012  0.4757
  626MOL0     O82558   3.212   4.658  10.415  0.0495 -0.5684  0.6891
  626MOL0     C82559   3.145   4.587  10.308 -0.5536  0.1317  0.9077
  626MOL0     C82560   3.003   4.636  10.298 -1.0902  0.0784  1.1590
  626MOL0     C82561   2.931   4.567  10.180  1.2812  0.5544 -0.7109
  626MOL0     C82562   2.786   4.616  10.155 -0.7547 -0.5777 -0.0171
  626MOL0     C82563   2.765   4.755  10.110 -0.5234 -0.5534  1.0876
  626MOL0     C82564   2.741   4.868  10.068  0.4587  0.4594 -0.2225
  626MOL0     C82565   3.381   4.531  10.525 -0.1540 -0.7540 -0.0095
  626MOL0     C82566   3.507   4.490  10.550 -0.6495 -0.0531 -1.1730
  626MOL0     H82567   3.831   4.190  10.685  2.8363 -2.7158  1.1341
  626MOL0     H82568   4.054   4.124  10.795 -1.3734 -0.1996  0.2468
  626MOL0     H82569   4.432   4.376  10.749 -1.2193 -0.2007  0.6487
  626MOL0     H82570   4.390   4.285  10.605 -0.5969  0.9942  0.3519
  626MOL0     H82571   4.464   4.075  10.719 -0.9925  0.4675 -0.1360
  626MOL0     H82572   4.517   4.176  10.861  1.8635  0.4823 -0.1766
  626MOL0     H82573   4.676   4.299  10.719  0.9270  1.0329 -2.0130
  626MOL0     H82574   4.625   4.210  10.568 -2.4519  0.4683 -0.6230
  626MOL0     H82575   4.852   4.161  10.682  0.2517  1.3522 -0.4377
  626MOL0     H82576   4.760   4.105  10.815  0.3964  1.0912  0.2556
  626MOL0     H82577   4.707   3.978  10.525  1.8551  2.6364 -1.6902
  626MOL0     H82578   4.673   3.928  10.689 -1.1417  2.5440 -0.0016
  626MOL0     H82579   4.870   3.817  10.615 -3.4019  0.0634 -0.8847
  626MOL0     H82580   4.914   3.927  10.739 -0.7302 -0.5724  0.2823
  626MOL0     H82581   4.948   4.019  10.444  1.6327 -1.3165 -0.6530
  626MOL0     H82582   5.043   4.067  10.585 -1.4488  2.1936 -0.5889
  626MOL0     H82583   5.161   3.924  10.403 -2.9904  1.0391 -1.6991
  626MOL0     H82584   5.031   3.807  10.421 -2.5518  1.6081 -0.4220
  626MOL0     H82585   5.298   3.935  10.679 -0.1820 -1.2379  0.0174
  626MOL0     H82586   5.340   3.691  10.901 -2.7077  0.4467 -1.3388
  626MOL0     H82587   5.472   3.799  10.828  2.9650 -1.2909  2.2851
  626MOL0     H82588   5.593   3.619  10.737  1.8883  0.2643  0.7350
  626MOL0     H82589   5.460   3.500  10.761 -3.1000  0.4695  2.3831
  626MOL0     H82590   5.604   3.643  10.980 -1.2075 -1.7243  1.4702
  626MOL0     H82591   5.495   3.508  11.009 -2.0914 -2.1744 -1.7427
  626MOL0     H82592   5.654   3.371  10.855  0.1345  1.1312 -1.2589
  626MOL0     H82593   5.699   3.426  11.015 -5.0019 -1.3968  0.6869
  626MOL0     H82594   6.006   3.593  10.745 -2.2840 -0.0335  2.1375
  626MOL0     H82595   6.238   3.466  10.741  2.2805  0.2242  3.2515
  626MOL0     H82596   6.507   3.219  10.586 -0.0708 -0.6854 -0.1118
  626MOL0     H82597   6.764   3.201  10.563  1.3313 -2.6817  1.6739
  626MOL0     H82598   6.937   3.410  10.696 -1.2397 -0.8493 -2.8722
  626MOL0     H82599   6.961   3.284  10.567 -0.1288  1.3332 -0.8725
  626MOL0     H82600   7.155   3.436  10.653 -2.6273  0.8067 -1.0985
  626MOL0     H82601   7.174   3.260  10.639 -1.8707 -0.3199 -0.6960
  626MOL0     H82602   7.281   3.345  10.846 -0.3073 -0.3070 -1.3871
  626MOL0     H82603   7.154   3.240  10.900  0.0779  2.1934  3.2391
  626MOL0     H82604   7.098   3.537  10.890 -1.6209  0.3325  0.9892
  626MOL0     H82605   6.995   3.408  10.932 -0.3493  1.4502  2.3762
  626MOL0     H82606   7.154   3.337  11.123 -1.3853 -1.1503 -2.1880
  626MOL0     H82607   7.067   3.490  11.135  0.3739  0.0609 -0.4250
  626MOL0     H82608   7.281   3.609  11.042  4.1145 -0.6197 -0.8769
  626MOL0     H82609   7.354   3.452  11.020 -1.4902 -1.3603 -0.5549
  626MOL0     H82610   7.394   3.393  11.226 -1.3969 -1.2079 -1.1761
  626MOL0     H82611   7.425   3.571  11.222 -2.1021  2.0238 -0.1856
  626MOL0     H82612   7.170   3.583  11.328 -1.6438 -0.6599 -0.6497
  626MOL0     H82613   7.314   3.562  11.426 -0.6855 -1.6317  1.9634
  626MOL0     H82614   6.787   3.131  10.981  0.8887 -0.0487  0.0927
  626MOL0     H82615   6.531   3.212  10.996  0.9865 -1.7836  1.1802
  626MOL0     H82616   6.050   3.156  10.977  0.2428 -0.9701 -2.2459
  626MOL0     H82617   5.852   3.287  10.991  0.0976  0.6318  1.0454
  626MOL0     H82618   4.212   4.490  10.658 -0.6192 -0.2383  2.7407
  626MOL0     H82619   4.003   4.564  10.577 -1.7824 -0.5559 -0.6669
  626MOL0     H82620   3.655   4.708  10.331 -1.1515  0.6162 -1.3833
  626MOL0     H82621   3.415   4.774  10.284  0.4057 -0.1293  0.1233
  626MOL0     H82622   3.146   4.478  10.322  0.5693 -0.1662 -1.0161
  626MOL0     H82623   3.203   4.601  10.215 -2.5718  0.4490 -0.3555
  626MOL0     H82624   2.958   4.623  10.396  2.2800 -0.2867  2.8140
  626MOL0     H82625   3.022   4.741  10.276  2.3658 -0.8354 -1.1395
  626MOL0     H82626   2.920   4.460  10.201 -1.1401 -0.0162 -4.0372
  626MOL0     H82627   2.987   4.584  10.087  0.5575 -0.6058 -1.3877
  626MOL0     H82628   2.737   4.546  10.087 -0.8073 -1.2887  0.7466
  626MOL0     H82629   2.737   4.608  10.252 -1.0237  1.6234  0.0802
  626MOL0     H82630   2.742   4.972  10.045 -0.6016  0.9412  1.6965
  626MOL0     H82631   3.300   4.478  10.575 -0.4671 -0.2403  0.0373
  626MOL0     H82632   3.534   4.405  10.612  0.1638  0.7390 -0.4164
  627MOL0     O82633  10.723   7.332   7.064 -0.4182 -0.1305 -0.5800
  627MOL0     C82634  10.826   7.309   7.126 -0.0290 -0.0117 -0.4374
  627MOL0     O82635  10.844   7.338   7.261 -0.5548 -0.1066  0.3708
  627MOL0     C82636  10.737   7.385   7.333  0.1068 -0.2075  0.1105
  627MOL0     C82637  10.717   7.523   7.341  0.1404 -0.0165 -0.0714
  627MOL0     C82638  10.616   7.571   7.426 -0.5315  0.0045  0.8389
  627MOL0     C82639  10.543   7.480   7.503 -1.1260 -0.2582 -0.2381
  627MOL0     O82640  10.453   7.526   7.602  0.1891 -0.1976  1.0242
  627MOL0     C82641  10.371   7.640   7.564  1.1104  0.1471  0.0408
  627MOL0     C82642  10.257   7.655   7.667 -0.2860 -0.0613  0.4058
  627MOL0     C82643  10.165   7.765   7.621  0.1363  0.5549 -0.4520
  627MOL0     C82644  10.033   7.743   7.700 -1.3480  0.6219 -0.1103
  627MOL0     C82645   9.919   7.844   7.668  0.2437  0.3197  0.2220
  627MOL0     C82646   9.783   7.817   7.726 -1.1600  0.2704 -0.2287
  627MOL0     C82647   9.677   7.885   7.643 -0.3940  0.4967 -0.5754
  627MOL0     C82648   9.684   8.041   7.640  0.4318 -1.3288 -0.5191
  627MOL0     N82649   9.594   8.118   7.548  0.5051  0.1513 -0.0374
  627MOL0     C82650   9.514   8.070   7.456  1.1952  0.5862 -1.0904
  627MOL0     C82651   9.440   8.172   7.411 -0.7440  0.1091 -0.1167
  627MOL0     C82652   9.325   8.169   7.319  1.5495 -0.0547  0.0433
  627MOL0     C82653   9.187   8.187   7.396  0.3750 -0.0965  0.3253
  627MOL0     C82654   9.160   8.086   7.505 -0.2905  0.2026 -0.0264
  627MOL0     C82655   9.137   7.942   7.440  0.0851 -0.2618  0.3602
  627MOL0     O82656   9.263   7.869   7.427 -0.1401 -0.1110 -0.8425
  627MOL0     C82657   9.310   7.796   7.533 -0.2213 -0.4441 -1.0257
  627MOL0     C82658   9.401   7.695   7.505 -1.0857 -0.1633 -0.4521
  627MOL0     C82659   9.457   7.620   7.605 -0.3005  0.0364 -0.1791
  627MOL0     C82660   9.434   7.653   7.736  0.6730 -0.8392 -0.5398
  627MOL0     C82661   9.507   7.575   7.842 -0.3914 -0.8257 -1.2595
  627MOL0     O82662   9.632   7.531   7.800  0.0933 -0.4933  1.0724
  627MOL0     C82663   9.694   7.452   7.882 -0.6014 -0.3060  0.1851
  627MOL0     C82664   9.632   7.338   7.943  0.3419  0.4130  0.0185
  627MOL0     C82665   9.696   7.250   8.031 -0.0050  0.0140 -0.2964
  627MOL0     C82666   9.827   7.298   8.066 -0.3372  0.0072 -0.3792
  627MOL0     O82667   9.908   7.238   8.162 -0.1187 -0.5538 -0.2637
  627MOL0     C82668   9.916   7.093   8.168 -0.0503 -0.2180 -0.1856
  627MOL0     C82669  10.052   7.041   8.174 -0.2117  0.5248 -0.1230
  627MOL0     C82670  10.129   7.033   8.043  0.1710  0.1445  0.3355
  627MOL0     C82671  10.270   6.967   8.038  0.3642 -0.1102 -0.7224
  627MOL0     C82672  10.295   6.865   7.916 -0.2266 -0.1879 -0.1594
  627MOL0     C82673  10.401   6.758   7.934 -0.5604 -0.6413  0.2132
  627MOL0     C82674  10.546   6.807   7.946 -0.4313  1.0053 -0.1453
  627MOL0     C82675  10.633   6.684   7.996 -0.5041 -1.1031 -0.1990
  627MOL0    Cl82676  10.610   6.528   7.922 -0.0580  0.1966  0.4461
  627MOL0     C82677   9.886   7.417   8.021  1.2176  0.1257 -0.2409
  627MOL0     C82678   9.818   7.487   7.929 -0.3834 -0.5681  0.4084
  627MOL0     O82679   9.453   7.548   7.946 -0.2139  0.2375 -0.5866
  627MOL0     C82680   9.327   7.744   7.766  0.9225  0.1308  0.0795
  627MOL0     C82681   9.265   7.818   7.664  0.1254  0.3844  0.1349
  627MOL0     N82682   9.483   8.282   7.478  0.7866 -1.1668 -0.7164
  627MOL0     N82683   9.577   8.256   7.561  0.3722  0.6142  0.3773
  627MOL0     C82684  10.572   7.345   7.495 -0.1930  0.8245 -0.4092
  627MOL0     C82685  10.662   7.293   7.407  0.0002 -0.9035  0.5552
  627MOL0     C82686  10.935   7.240   7.058 -0.3557 -0.0000 -0.5709
  627MOL0     C82687  10.944   7.243   6.915 -0.1906 -0.3773 -0.2614
  627MOL0     C82688  11.049   7.195   6.859 -0.5111  0.6459  0.1286
  627MOL0     C82689  11.146   7.117   6.928  0.1095 -0.3781 -0.3975
  627MOL0     O82690  11.239   7.046   6.853  0.5309  0.5400  0.1774
  627MOL0     C82691  11.377   7.058   6.897  0.6577  0.9276  0.2577
  627MOL0     C82692  11.464   7.147   6.802  0.0635  0.1064 -0.9789
  627MOL0     C82693  11.608   7.167   6.858  0.6514 -0.1699 -0.3002
  627MOL0     C82694  11.683   7.032   6.848  0.6477  0.0488 -0.2647
  627MOL0     C82695  11.828   7.057   6.855 -0.9490 -0.5824 -0.7787
  627MOL0     C82696  11.945   7.084   6.854  0.5809  1.1783  0.6068
  627MOL0     C82697  11.133   7.117   7.069 -0.9326  0.4035  0.3060
  627MOL0     C82698  11.027   7.174   7.137 -0.4140 -0.1671  0.1315
  627MOL0     H82699  10.785   7.592   7.291 -0.8827  0.8270 -0.3250
  627MOL0     H82700  10.602   7.677   7.447 -2.7662 -0.2617  0.8540
  627MOL0     H82701  10.332   7.625   7.463  1.2418  3.1421 -0.5501
  627MOL0     H82702  10.426   7.735   7.560 -1.2537  1.5379 -1.4978
  627MOL0     H82703  10.299   7.686   7.762 -2.3490  2.1727  0.6820
  627MOL0     H82704  10.207   7.557   7.675  3.3499 -1.9388  2.3985
  627MOL0     H82705  10.139   7.753   7.515 -1.1326  0.9021 -0.1832
  627MOL0     H82706  10.201   7.865   7.646 -0.3895  0.8448 -0.8342
  627MOL0     H82707  10.000   7.647   7.659 -0.7371  0.0758  0.6643
  627MOL0     H82708  10.047   7.737   7.808 -1.5975  0.3837 -0.0909
  627MOL0     H82709   9.916   7.847   7.558  1.1138  2.9402  0.2118
  627MOL0     H82710   9.942   7.942   7.709  1.1034  0.3478 -0.2907
  627MOL0     H82711   9.764   7.845   7.830  1.2247  0.3964  0.2352
  627MOL0     H82712   9.777   7.708   7.726 -0.7100  0.2240  1.0935
  627MOL0     H82713   9.688   7.853   7.539  0.2184 -1.4153  0.0334
  627MOL0     H82714   9.581   7.863   7.690  1.2054 -1.2205  2.1567
  627MOL0     H82715   9.781   8.073   7.601  0.5927 -2.1156 -0.7815
  627MOL0     H82716   9.677   8.082   7.741  0.9877 -0.4799 -0.8154
  627MOL0     H82717   9.486   7.967   7.437 -0.4726  0.8618 -0.3318
  627MOL0     H82718   9.321   8.073   7.267 -0.5136 -1.1261  1.9864
  627MOL0     H82719   9.334   8.242   7.239 -2.6700  0.1948 -0.4076
  627MOL0     H82720   9.094   8.183   7.339 -1.1599 -0.1484  2.7025
  627MOL0     H82721   9.191   8.284   7.448  0.1307 -1.4177  2.9627
  627MOL0     H82722   9.251   8.074   7.564 -2.1048 -2.8260  2.5168
  627MOL0     H82723   9.074   8.123   7.561 -1.7273  1.9820 -3.1729
  627MOL0     H82724   9.083   7.961   7.346  1.6634  0.9117 -0.3558
  627MOL0     H82725   9.068   7.888   7.505  0.3860 -0.1532  0.7711
  627MOL0     H82726   9.429   7.668   7.404  2.5356  4.1117 -0.9187
  627MOL0     H82727   9.541   7.556   7.579  0.4799  0.6739  0.6843
  627MOL0     H82728   9.530   7.315   7.914  0.4552  1.1274 -1.0065
  627MOL0     H82729   9.650   7.157   8.063 -1.4241  0.6956 -0.2792
  627MOL0     H82730   9.866   7.055   8.079 -0.3152  2.0730 -1.0657
  627MOL0     H82731   9.860   7.068   8.259 -2.4391  0.8187 -1.3040
  627MOL0     H82732  10.058   6.942   8.220  2.5089 -0.1343 -1.6385
  627MOL0     H82733  10.104   7.114   8.236 -1.9958 -0.4779  2.7462
  627MOL0     H82734  10.140   7.126   7.987  1.5158 -1.3972 -2.1551
  627MOL0     H82735  10.067   6.969   7.978  2.6887 -2.5704  0.3855
  627MOL0     H82736  10.334   7.053   8.017 -0.9552  0.1839 -4.2299
  627MOL0     H82737  10.297   6.897   8.118  1.9906 -0.4912 -1.5689
  627MOL0     H82738  10.319   6.931   7.832 -1.7780 -0.9832 -1.2843
  627MOL0     H82739  10.199   6.812   7.905  1.0987 -2.2469 -3.2532
  627MOL0     H82740  10.394   6.681   7.856 -0.7844 -0.9894  0.5739
  627MOL0     H82741  10.383   6.709   8.030  2.8169 -1.0911  0.7435
  627MOL0     H82742  10.590   6.837   7.851  0.4328  1.6534  0.4476
  627MOL0     H82743  10.548   6.883   8.025 -2.8698  0.1355  0.8694
  627MOL0     H82744  10.614   6.664   8.102  1.9924  2.3716  1.0892
  627MOL0     H82745  10.739   6.710   7.988 -0.4612  0.3805  3.2419
  627MOL0     H82746   9.983   7.454   8.052  0.5583  2.7798 -1.0649
  627MOL0     H82747   9.851   7.585   7.893 -1.5454 -0.4908 -0.4994
  627MOL0     H82748   9.295   7.758   7.869  2.0634  1.6983  0.2513
  627MOL0     H82749   9.192   7.892   7.693 -0.7052 -0.4072  0.0917
  627MOL0     H82750  10.519   7.272   7.554  2.7169 -0.0098  1.3735
  627MOL0     H82751  10.686   7.188   7.393  0.1030 -0.9058  0.7473
  627MOL0     H82752  10.874   7.295   6.852 -0.9103 -1.4304 -0.3615
  627MOL0     H82753  11.074   7.206   6.754  0.3739  1.1173  0.3755
  627MOL0     H82754  11.434   6.965   6.893  1.5263  1.4288  0.5409
  627MOL0     H82755  11.377   7.094   7.000  0.9341  1.6214  0.0226
  627MOL0     H82756  11.464   7.106   6.701 -1.9278 -3.0539  0.1361
  627MOL0     H82757  11.415   7.245   6.801  0.6753  0.6133  2.7774
  627MOL0     H82758  11.610   7.218   6.955 -1.3034  2.0475 -1.3287
  627MOL0     H82759  11.664   7.231   6.789  0.4475  1.3329  0.8523
  627MOL0     H82760  11.656   6.960   6.926 -1.8552 -0.5798 -1.5977
  627MOL0     H82761  11.656   6.996   6.748 -1.3875 -0.4098  0.3995
  627MOL0     H82762  12.051   7.095   6.866  0.6273 -0.4511  2.1345
  627MOL0     H82763  11.177   7.041   7.132 -2.0462 -0.0350  0.5697
  627MOL0     H82764  10.998   7.161   7.241 -1.2089 -3.2363 -0.3815
  628MOL0     O82765   0.088   6.362   6.383  0.2242  0.2670  0.8286
  628MOL0     C82766   0.076   6.307   6.491 -0.7374 -0.6394  0.0189
  628MOL0     O82767  -0.038   6.284   6.557  0.3203  0.1373 -0.4798
  628MOL0     C82768  -0.163   6.320   6.516  0.0108 -0.1112  0.4854
  628MOL0     C82769  -0.222   6.294   6.391 -0.2967  0.4270  0.3944
  628MOL0     C82770  -0.359   6.327   6.362 -0.4888  0.7519 -0.9355
  628MOL0     C82771  -0.438   6.394   6.457  0.0591 -0.3800  0.0880
  628MOL0     O82772  -0.561   6.447   6.432 -0.3637  0.7564  0.0723
  628MOL0     C82773  -0.615   6.439   6.297  0.5706  1.0149  0.0075
  628MOL0     C82774  -0.761   6.493   6.311  0.3342 -0.0064  0.7301
  628MOL0     C82775  -0.846   6.442   6.431 -0.0835  0.7170  0.2678
  628MOL0     C82776  -0.853   6.293   6.439 -0.8798  0.6126  0.1444
  628MOL0     C82777  -0.960   6.232   6.532  0.0468 -0.6558 -0.2867
  628MOL0     C82778  -1.069   6.161   6.445  0.7342  0.0496 -0.6284
  628MOL0     C82779  -1.153   6.067   6.530 -0.0242 -0.3165  0.2248
  628MOL0     C82780  -1.246   6.150   6.639  1.0822 -0.7314 -0.1516
  628MOL0     N82781  -1.329   6.258   6.586  0.6809  0.0972  0.6758
  628MOL0     C82782  -1.453   6.241   6.525  0.3023 -0.5438  0.1117
  628MOL0     C82783  -1.491   6.370   6.505  0.6971 -0.8173  0.6797
  628MOL0     C82784  -1.619   6.443   6.472 -0.2443 -0.1806  0.9098
  628MOL0     C82785  -1.700   6.400   6.348 -0.2012 -0.1245 -0.3153
  628MOL0     C82786  -1.844   6.468   6.346 -0.1868 -0.0364 -0.0536
  628MOL0     C82787  -1.852   6.619   6.310 -0.0040  0.2621  0.1116
  628MOL0     O82788  -1.988   6.643   6.255  0.1043  0.1878 -0.0978
  628MOL0     C82789  -2.098   6.641   6.350  0.1677 -0.4924 -0.8063
  628MOL0     C82790  -2.082   6.637   6.492 -0.8697 -0.2603  1.2612
  628MOL0     C82791  -2.193   6.630   6.570 -0.4581  0.4994 -0.2845
  628MOL0     C82792  -2.327   6.632   6.525  0.2938  0.5562  0.5259
  628MOL0     C82793  -2.444   6.658   6.614 -1.0711  1.5287 -0.5801
  628MOL0     O82794  -2.556   6.699   6.565  0.1785 -0.3370  0.9126
  628MOL0     C82795  -2.673   6.721   6.641  0.6595  0.0148 -0.0149
  628MOL0     C82796  -2.674   6.796   6.761  0.1694 -0.4412  0.7928
  628MOL0     C82797  -2.791   6.843   6.815 -0.2010  0.1240  0.1433
  628MOL0     C82798  -2.906   6.779   6.769  0.4577 -0.9018 -0.5372
  628MOL0     O82799  -3.019   6.807   6.851  0.8513  0.1294 -0.1635
  628MOL0     C82800  -3.145   6.761   6.809 -0.0063  0.5219 -0.3803
  628MOL0     C82801  -3.223   6.768   6.935 -0.2316  0.6387 -0.6036
  628MOL0     C82802  -3.263   6.917   6.977  0.1085  0.6676  0.0076
  628MOL0     C82803  -3.337   6.905   7.110  1.0223 -0.3049 -0.1454
  628MOL0     C82804  -3.376   7.050   7.171  0.3608  0.1915  0.2614
  628MOL0     C82805  -3.449   7.039   7.308  0.3563 -0.7770 -0.5102
  628MOL0     C82806  -3.448   7.183   7.374  0.1419  0.4592 -1.0141
  628MOL0     C82807  -3.554   7.199   7.472  0.4671  0.8045 -0.6627
  628MOL0    Cl82808  -3.511   7.128   7.631  0.3015 -0.4363 -0.0020
  628MOL0     C82809  -2.910   6.707   6.652  0.7555 -0.9811  1.2319
  628MOL0     C82810  -2.794   6.675   6.586 -0.3152 -0.5911  0.5135
  628MOL0     O82811  -2.422   6.649   6.734 -0.4794  0.2526 -0.3930
  628MOL0     C82812  -2.341   6.633   6.386 -0.2961  0.3206  0.0488
  628MOL0     C82813  -2.228   6.632   6.298  0.4398 -0.9514 -0.2426
  628MOL0     N82814  -1.396   6.452   6.554 -0.1735  1.0443  0.1963
  628MOL0     N82815  -1.299   6.383   6.593  0.3438 -0.2978 -0.2076
  628MOL0     C82816  -0.374   6.424   6.580  0.3272  0.2120 -0.9727
  628MOL0     C82817  -0.245   6.380   6.610  0.3253 -0.1856  0.5490
  628MOL0     C82818   0.201   6.262   6.553  1.3460 -0.5166  0.6632
  628MOL0     C82819   0.203   6.190   6.675  0.6762 -0.3571 -0.4964
  628MOL0     C82820   0.321   6.152   6.739  0.0924  0.4128 -0.0835
  628MOL0     C82821   0.443   6.185   6.685  0.1564  0.3665  1.0820
  628MOL0     O82822   0.553   6.150   6.756  0.1241 -0.3433  0.0573
  628MOL0     C82823   0.689   6.156   6.697  0.3004  0.1888 -0.5441
  628MOL0     C82824   0.784   6.052   6.760 -1.1764 -0.4824  0.5640
  628MOL0     C82825   0.776   5.906   6.702  0.2540 -0.7228  0.2431
  628MOL0     C82826   0.676   5.831   6.784 -0.2454  0.2796 -0.0351
  628MOL0     C82827   0.624   5.719   6.710  0.2690 -0.1359 -1.3983
  628MOL0     C82828   0.594   5.607   6.665 -0.8101  0.2027  0.1986
  628MOL0     C82829   0.443   6.264   6.573  0.1681 -0.4734 -0.4366
  628MOL0     C82830   0.325   6.302   6.504  0.1914  0.7838 -1.0361
  628MOL0     H82831  -0.166   6.238   6.317  1.9648  1.7315  1.0375
  628MOL0     H82832  -0.389   6.297   6.262 -1.6861  2.1786 -1.0333
  628MOL0     H82833  -0.615   6.338   6.254 -1.6723  1.9499 -2.5115
  628MOL0     H82834  -0.564   6.516   6.238 -2.3415  4.1277  1.2663
  628MOL0     H82835  -0.816   6.465   6.221  0.4101  0.1904  0.6222
  628MOL0     H82836  -0.760   6.601   6.327 -0.1109 -0.0888  1.3311
  628MOL0     H82837  -0.945   6.490   6.430 -0.7098 -0.4431 -2.4940
  628MOL0     H82838  -0.805   6.468   6.529  1.6081 -0.5029 -0.0838
  628MOL0     H82839  -0.857   6.254   6.337  1.6879  0.2312  0.1165
  628MOL0     H82840  -0.754   6.254   6.464  1.0437  1.9999 -4.3038
  628MOL0     H82841  -1.013   6.310   6.587 -0.0502  1.4706 -3.1431
  628MOL0     H82842  -0.915   6.165   6.605  2.7141  0.5217 -0.7454
  628MOL0     H82843  -1.022   6.095   6.372 -2.0181 -2.7146 -0.0770
  628MOL0     H82844  -1.128   6.238   6.395  1.9471  0.5819 -1.3090
  628MOL0     H82845  -1.230   6.018   6.468 -0.1604 -2.2777  1.8410
  628MOL0     H82846  -1.096   5.986   6.576 -0.6764 -0.4166  0.8663
  628MOL0     H82847  -1.180   6.187   6.718 -1.5506  2.8733  0.5937
  628MOL0     H82848  -1.327   6.086   6.675 -2.1499  2.3595 -1.4033
  628MOL0     H82849  -1.523   6.159   6.521 -1.6552  1.0679 -0.1993
  628MOL0     H82850  -1.597   6.550   6.460 -0.3788 -0.1776  0.6742
  628MOL0     H82851  -1.687   6.439   6.557 -1.5229 -2.2743 -0.1199
  628MOL0     H82852  -1.708   6.290   6.350  2.8421 -0.4857 -2.0578
  628MOL0     H82853  -1.653   6.431   6.254 -2.3438  3.3632 -0.3952
  628MOL0     H82854  -1.900   6.416   6.269 -0.6671  1.4831 -0.7754
  628MOL0     H82855  -1.896   6.457   6.442 -1.6823  1.5469 -0.6276
  628MOL0     H82856  -1.781   6.652   6.233 -1.1915  1.9016 -0.3306
  628MOL0     H82857  -1.823   6.679   6.397 -0.1447  1.1131 -0.4236
  628MOL0     H82858  -1.986   6.659   6.536  0.3627  1.5080 -1.9797
  628MOL0     H82859  -2.174   6.628   6.676  0.5156  1.8766 -0.4140
  628MOL0     H82860  -2.576   6.822   6.798  1.6657 -1.5054 -2.1271
  628MOL0     H82861  -2.790   6.924   6.887  0.5821  1.5056 -1.3585
  628MOL0     H82862  -3.142   6.654   6.786 -0.4292  0.4754 -0.2356
  628MOL0     H82863  -3.187   6.828   6.733 -3.4914  0.8999  1.6378
  628MOL0     H82864  -3.160   6.717   7.009  2.9096 -0.0188 -3.4671
  628MOL0     H82865  -3.322   6.722   6.923 -1.0504  1.5839  1.8586
  628MOL0     H82866  -3.332   6.961   6.904 -1.9510  1.5095  2.3420
  628MOL0     H82867  -3.173   6.977   6.990 -0.7068  1.4362  2.7446
  628MOL0     H82868  -3.429   6.852   7.085 -0.1132  1.6656 -0.3799
  628MOL0     H82869  -3.270   6.860   7.184  3.1810  0.0582 -1.8061
  628MOL0     H82870  -3.441   7.113   7.109  0.0394 -0.8248 -0.4764
  628MOL0     H82871  -3.282   7.101   7.193  1.4028 -2.0761  1.4218
  628MOL0     H82872  -3.388   6.969   7.366 -1.4093 -0.7635  1.5129
  628MOL0     H82873  -3.548   6.993   7.301 -0.3312  0.7121 -1.1647
  628MOL0     H82874  -3.350   7.201   7.418 -0.2295 -0.9406  0.4810
  628MOL0     H82875  -3.457   7.260   7.297  0.2696  1.4699 -0.0462
  628MOL0     H82876  -3.640   7.141   7.438  0.0147  1.3034 -0.3900
  628MOL0     H82877  -3.571   7.307   7.485 -0.4312  0.7340 -1.1434
  628MOL0     H82878  -3.004   6.676   6.607  0.1756  2.9870 -0.7963
  628MOL0     H82879  -2.789   6.630   6.487  0.6259 -1.0379  0.7490
  628MOL0     H82880  -2.441   6.623   6.344 -0.1397  0.4806 -0.3654
  628MOL0     H82881  -2.254   6.646   6.193 -0.4956 -0.4982  0.0395
  628MOL0     H82882  -0.436   6.471   6.655  2.2478 -0.8770  1.4512
  628MOL0     H82883  -0.197   6.394   6.707  2.4447  2.9089 -0.7635
  628MOL0     H82884   0.108   6.159   6.718 -0.1586  0.7926 -1.4530
  628MOL0     H82885   0.326   6.108   6.838  0.0297  0.5448 -0.0220
  628MOL0     H82886   0.717   6.261   6.707 -1.7258  0.7378 -0.2041
  628MOL0     H82887   0.686   6.130   6.591  1.5326 -3.9881  0.2536
  628MOL0     H82888   0.884   6.081   6.729 -2.5778  2.0934 -2.0407
  628MOL0     H82889   0.787   6.047   6.869  1.2976  0.7719  0.6087
  628MOL0     H82890   0.867   5.846   6.707 -1.1168 -3.2477 -2.1786
  628MOL0     H82891   0.733   5.907   6.601  0.6214 -0.2182  0.0894
  628MOL0     H82892   0.725   5.793   6.874 -0.3975 -3.0653 -1.2200
  628MOL0     H82893   0.591   5.890   6.818 -1.2370 -1.6329  1.0016
  628MOL0     H82894   0.593   5.514   6.612  1.1350  0.5681 -0.5783
  628MOL0     H82895   0.532   6.312   6.534 -1.1343  1.1354 -1.5521
  628MOL0     H82896   0.331   6.368   6.418  0.6487 -0.3300 -1.8844
  629MOL0     O82897   9.451  10.198   1.323  0.0308  0.1378 -0.5026
  629MOL0     C82898   9.485  10.320   1.302  0.1342  0.7104  0.2932
  629MOL0     O82899   9.399  10.423   1.311  0.3917  0.1824 -0.6292
  629MOL0     C82900   9.273  10.399   1.262  0.5816 -0.3000 -0.0894
  629MOL0     C82901   9.243  10.384   1.120 -0.4700 -0.1054  0.6163
  629MOL0     C82902   9.111  10.380   1.073  0.0435  1.0771  0.2853
  629MOL0     C82903   9.000  10.381   1.161 -0.3362 -0.0593 -0.2054
  629MOL0     O82904   8.874  10.377   1.114  0.1694 -0.0053 -0.5903
  629MOL0     C82905   8.838  10.265   1.035  0.7364 -0.3907  0.0019
  629MOL0     C82906   8.687  10.277   1.036  0.9665  0.3820 -0.2833
  629MOL0     C82907   8.620  10.402   0.988 -0.7237 -1.6025 -0.1177
  629MOL0     C82908   8.488  10.360   0.921 -0.2799  0.2081  0.5547
  629MOL0     C82909   8.402  10.486   0.897 -0.6800  0.0213  0.1802
  629MOL0     C82910   8.295  10.499   0.997  0.2651  0.7237  0.3587
  629MOL0     C82911   8.184  10.612   0.967  0.4404 -0.5874  0.9011
  629MOL0     C82912   8.249  10.744   0.923 -0.2192 -0.9046  0.8522
  629MOL0     N82913   8.238  10.758   0.773 -0.0937  0.7204 -0.1773
  629MOL0     C82914   8.122  10.770   0.702 -0.8080  0.2919 -0.0698
  629MOL0     C82915   8.162  10.761   0.567  0.6434 -0.2000  1.2732
  629MOL0     C82916   8.064  10.770   0.446 -0.5058  0.9358 -0.3291
  629MOL0     C82917   8.085  10.646   0.351  0.0620 -0.3234 -0.8358
  629MOL0     C82918   8.184  10.661   0.237  0.2191  0.4122 -0.1947
  629MOL0     C82919   8.186  10.531   0.151 -0.6849 -0.7632 -0.7952
  629MOL0     O82920   8.149  10.411   0.224  0.2299 -1.1735  0.8167
  629MOL0     C82921   8.177  10.302   0.156  0.1373 -0.0760  0.0018
  629MOL0     C82922   8.169  10.277   0.018 -0.5675  0.9925 -0.0843
  629MOL0     C82923   8.182  10.150  -0.037 -0.1271 -0.1070 -0.5355
  629MOL0     C82924   8.203  10.042   0.052  0.7259  0.0300 -0.2236
  629MOL0     C82925   8.248   9.908   0.002 -0.1538  0.3252 -1.2614
  629MOL0     O82926   8.210   9.870  -0.123 -0.3470  0.8523  0.6825
  629MOL0     C82927   8.259   9.761  -0.192 -0.2167  0.5584  0.1996
  629MOL0     C82928   8.203   9.733  -0.315  1.1138  0.9320 -0.2524
  629MOL0     C82929   8.255   9.633  -0.404  0.4059  0.0386 -0.6122
  629MOL0     C82930   8.376   9.564  -0.368  0.0445  0.0315 -0.0913
  629MOL0     O82931   8.430   9.472  -0.447  0.1136 -0.5650 -0.1912
  629MOL0     C82932   8.379   9.339  -0.423  0.2041  0.6242  0.6435
  629MOL0     C82933   8.225   9.299  -0.421  0.0637 -1.0309 -0.0281
  629MOL0     C82934   8.191   9.171  -0.484  0.1440  0.5482 -0.3713
  629MOL0     C82935   8.040   9.162  -0.517  0.7172 -0.4506  0.7333
  629MOL0     C82936   7.997   9.031  -0.589 -0.5728  0.4635 -0.0208
  629MOL0     C82937   8.076   8.905  -0.546 -0.5745  0.2642 -0.2480
  629MOL0     C82938   8.029   8.766  -0.586  0.4209  0.2972 -0.3319
  629MOL0     C82939   8.143   8.666  -0.613  0.0762  0.4116 -0.0315
  629MOL0    Cl82940   8.261   8.658  -0.481  0.1657 -0.4368 -0.6573
  629MOL0     C82941   8.436   9.593  -0.241  0.6577 -0.5971  0.4533
  629MOL0     C82942   8.373   9.687  -0.165  0.4211 -1.2922  0.1812
  629MOL0     O82943   8.302   9.835   0.087  0.6367  0.6773  0.7896
  629MOL0     C82944   8.209  10.068   0.189  0.4033 -0.2578  0.2330
  629MOL0     C82945   8.184  10.195   0.240 -0.4398  0.7907 -0.1392
  629MOL0     N82946   8.295  10.740   0.560  0.2014 -0.2601  0.6228
  629MOL0     N82947   8.342  10.741   0.682 -0.7630 -0.1277 -0.2526
  629MOL0     C82948   9.024  10.382   1.299 -0.6605 -0.5523 -0.0404
  629MOL0     C82949   9.162  10.395   1.348  0.6186  0.0614  0.7749
  629MOL0     C82950   9.625  10.356   1.297  0.9489  0.4319  0.4645
  629MOL0     C82951   9.731  10.265   1.304  0.3709 -0.5804 -0.2442
  629MOL0     C82952   9.862  10.313   1.305  0.6688 -0.3276 -0.4176
  629MOL0     C82953   9.893  10.446   1.328  0.6560  0.9759  0.3114
  629MOL0     O82954  10.029  10.466   1.345  0.3495 -0.1819  0.0323
  629MOL0     C82955  10.062  10.609   1.360 -0.1410  0.0538 -0.0820
  629MOL0     C82956  10.036  10.662   1.502 -0.0353 -0.3271  0.1476
  629MOL0     C82957  10.113  10.588   1.607  0.1336  0.2421  0.1669
  629MOL0     C82958  10.266  10.592   1.604 -0.7595 -0.2882  0.4483
  629MOL0     C82959  10.326  10.726   1.618 -0.0257  0.5267 -0.3151
  629MOL0     C82960  10.361  10.837   1.639 -0.6359 -0.3494 -0.5935
  629MOL0     C82961   9.786  10.538   1.314 -0.7308  0.6644  0.1534
  629MOL0     C82962   9.659  10.494   1.301 -0.0910 -0.8307  0.4982
  629MOL0     H82963   9.327  10.384   1.052 -0.4031  2.6439  0.5711
  629MOL0     H82964   9.092  10.368   0.967 -4.0834 -3.1751  1.2031
  629MOL0     H82965   8.871  10.168   1.073 -0.9777 -0.2231  2.0804
  629MOL0     H82966   8.869  10.286   0.932  1.3253  0.5865  0.3722
  629MOL0     H82967   8.647  10.263   1.137  2.0137 -1.1029 -0.0424
  629MOL0     H82968   8.648  10.195   0.976 -1.6855  0.2058  1.5172
  629MOL0     H82969   8.689  10.455   0.921 -0.4596 -0.5246  0.9719
  629MOL0     H82970   8.596  10.464   1.075 -1.6178 -0.3185 -1.2215
  629MOL0     H82971   8.517  10.316   0.825 -0.5923 -1.4412  1.1799
  629MOL0     H82972   8.430  10.285   0.976 -0.2091  0.6711  1.2633
  629MOL0     H82973   8.353  10.472   0.800  2.0624 -1.6576 -1.1011
  629MOL0     H82974   8.461  10.578   0.896 -3.1424  1.7743  2.3826
  629MOL0     H82975   8.339  10.522   1.094  0.0081  0.6768  0.4875
  629MOL0     H82976   8.242  10.403   1.008  2.0618 -0.2533  0.8543
  629MOL0     H82977   8.127  10.564   0.886 -0.5367  1.5492  0.2487
  629MOL0     H82978   8.105  10.631   1.040 -0.4031 -1.8554  0.3589
  629MOL0     H82979   8.354  10.747   0.954 -0.6536 -2.2710  2.6026
  629MOL0     H82980   8.189  10.825   0.966  0.0681  0.3995 -1.0561
  629MOL0     H82981   8.020  10.782   0.736 -2.1930 -4.0255 -1.9382
  629MOL0     H82982   8.107  10.857   0.396  2.8141 -1.4039 -1.9294
  629MOL0     H82983   7.961  10.774   0.482 -0.3711 -3.1714  1.1441
  629MOL0     H82984   7.983  10.630   0.314 -0.3980  0.1462  0.2036
  629MOL0     H82985   8.107  10.560   0.415 -2.4272 -0.1438  0.3664
  629MOL0     H82986   8.169  10.747   0.172  1.7751 -0.5661 -1.9590
  629MOL0     H82987   8.286  10.666   0.276  0.9854  0.2437 -2.0542
  629MOL0     H82988   8.283  10.510   0.104  0.3415 -1.2416  1.4234
  629MOL0     H82989   8.122  10.537   0.063 -0.0526  0.0794 -1.2101
  629MOL0     H82990   8.156  10.356  -0.056 -2.4381  1.2865  0.5018
  629MOL0     H82991   8.182  10.122  -0.142 -2.3885 -1.8454 -0.1611
  629MOL0     H82992   8.115   9.792  -0.337 -1.3467 -1.9862  0.9517
  629MOL0     H82993   8.204   9.627  -0.500 -0.7101 -1.3225  0.0257
  629MOL0     H82994   8.412   9.293  -0.329  0.4277 -0.4355  0.0580
  629MOL0     H82995   8.422   9.281  -0.505  0.1758  0.7405  0.5459
  629MOL0     H82996   8.173   9.368  -0.488 -0.6160  1.6023  2.9779
  629MOL0     H82997   8.177   9.314  -0.324 -0.5377  0.9296 -0.5766
  629MOL0     H82998   8.228   9.087  -0.425 -0.0855 -1.1813 -2.5289
  629MOL0     H82999   8.227   9.161  -0.587 -1.7542  0.0097 -1.0240
  629MOL0     H83000   7.995   9.165  -0.418  1.6555  2.0015  1.1517
  629MOL0     H83001   8.013   9.254  -0.570 -2.1242 -0.9723  1.0990
  629MOL0     H83002   8.019   9.045  -0.696  2.1825 -4.7140 -0.4621
  629MOL0     H83003   7.889   9.013  -0.581 -1.1923  3.3769 -0.7495
  629MOL0     H83004   8.073   8.893  -0.437  1.9589 -3.0367 -0.3727
  629MOL0     H83005   8.179   8.923  -0.576  0.3720 -1.9247  1.4136
  629MOL0     H83006   7.972   8.726  -0.502  2.4013 -0.1192  0.8785
  629MOL0     H83007   7.958   8.777  -0.669 -0.2102  0.2004  0.1852
  629MOL0     H83008   8.194   8.721  -0.692 -1.2631  2.5426  0.4894
  629MOL0     H83009   8.099   8.571  -0.647  2.2683 -0.3680 -0.8186
  629MOL0     H83010   8.518   9.540  -0.192  0.4458 -2.0194 -0.6627
  629MOL0     H83011   8.413   9.692  -0.065  0.1581 -2.4771  0.3581
  629MOL0     H83012   8.240   9.989   0.257 -0.0460 -1.4873 -0.9355
  629MOL0     H83013   8.184  10.219   0.345 -2.6240 -1.8659  0.5972
  629MOL0     H83014   8.937  10.368   1.363  0.9201 -0.2939  2.3077
  629MOL0     H83015   9.182  10.382   1.454  2.1687  0.6114  0.5716
  629MOL0     H83016   9.712  10.159   1.291  1.7204 -0.7492 -1.0049
  629MOL0     H83017   9.936  10.234   1.310  2.5354  1.3592 -0.4748
  629MOL0     H83018  10.008  10.660   1.279 -0.9141 -1.5816 -0.6457
  629MOL0     H83019  10.166  10.609   1.329  0.9347 -4.2985  2.5916
  629MOL0     H83020  10.051  10.771   1.502 -1.2079 -0.1385 -0.9975
  629MOL0     H83021   9.928  10.647   1.515  0.0900 -0.0639  1.6714
  629MOL0     H83022  10.074  10.485   1.609 -0.0451  0.3077  1.8062
  629MOL0     H83023  10.076  10.625   1.703 -0.0174  1.5545 -0.3753
  629MOL0     H83024  10.293  10.528   1.688 -3.4757 -1.5968  0.4462
  629MOL0     H83025  10.326  10.537   1.531  4.5731  3.7846  1.1687
  629MOL0     H83026  10.398  10.934   1.668 -0.2223 -1.1620  1.8535
  629MOL0     H83027   9.800  10.642   1.287  1.9346  0.2283 -0.4441
  629MOL0     H83028   9.595  10.579   1.280  1.7694  0.4700 -0.2414
  630MOL0     O83029   9.470   9.561  11.200 -0.3735 -0.1244  0.5331
  630MOL0     C83030   9.549   9.469  11.215  0.4492  0.0161 -0.4331
  630MOL0     O83031   9.523   9.337  11.187  0.3798  0.3035 -0.1866
  630MOL0     C83032   9.409   9.294  11.122  0.0917  0.6940 -0.3103
  630MOL0     C83033   9.337   9.204  11.198 -0.2318 -0.0836 -0.4567
  630MOL0     C83034   9.216   9.156  11.145 -0.8527 -0.3061 -0.1389
  630MOL0     C83035   9.169   9.194  11.013 -0.3257  0.1744 -0.5934
  630MOL0     O83036   9.053   9.152  10.953 -0.0761  0.0684 -0.1626
  630MOL0     C83037   8.965   9.064  11.020  0.0682 -0.3927  0.1701
  630MOL0     C83038   8.853   9.036  10.917  0.6840 -0.2140  0.9721
  630MOL0     C83039   8.746   9.143  10.884  0.0351  0.1670  0.6492
  630MOL0     C83040   8.658   9.107  10.762 -0.3639  0.0499  0.4023
  630MOL0     C83041   8.550   8.991  10.784  0.1495  0.2058 -1.4294
  630MOL0     C83042   8.470   8.980  10.655 -0.2984  0.4349 -0.5361
  630MOL0     C83043   8.543   8.911  10.551 -1.1767 -0.0417  0.1835
  630MOL0     C83044   8.463   8.895  10.425  0.0999  0.6528  0.1426
  630MOL0     N83045   8.353   8.794  10.432  0.6231  0.3318  0.6059
  630MOL0     C83046   8.365   8.656  10.452  0.0525 -0.0357  0.5100
  630MOL0     C83047   8.238   8.609  10.438 -0.5207 -1.1298  0.6865
  630MOL0     C83048   8.207   8.465  10.452 -0.3129 -0.6545  0.4146
  630MOL0     C83049   8.060   8.437  10.412 -0.1946  0.5943  0.7873
  630MOL0     C83050   8.042   8.287  10.411  0.1953 -0.0121 -0.6918
  630MOL0     C83051   7.896   8.244  10.439  0.4543 -0.6342  0.2515
  630MOL0     O83052   7.817   8.270  10.322 -0.8388 -0.3822 -0.6826
  630MOL0     C83053   7.685   8.298  10.328  0.4383 -0.5068  0.7776
  630MOL0     C83054   7.601   8.313  10.439  0.0884  0.3763 -0.5254
  630MOL0     C83055   7.462   8.337  10.421  0.9394  0.0840 -0.1302
  630MOL0     C83056   7.402   8.358  10.298  0.1589 -1.4777  0.2825
  630MOL0     C83057   7.262   8.397  10.281  1.7267  0.2080 -0.2622
  630MOL0     O83058   7.198   8.380  10.151  0.3863 -0.2846  0.1112
  630MOL0     C83059   7.062   8.398  10.145 -0.2716  0.3730 -0.7234
  630MOL0     C83060   7.006   8.498  10.065 -0.2886  0.3787 -0.9275
  630MOL0     C83061   6.867   8.511  10.061 -0.3884 -1.2801 -0.6577
  630MOL0     C83062   6.783   8.428  10.140 -0.6593 -0.6287 -0.8308
  630MOL0     O83063   6.664   8.475  10.153 -0.1634  0.4907 -0.2555
  630MOL0     C83064   6.556   8.386  10.181  0.1977  0.4476  0.5007
  630MOL0     C83065   6.439   8.429  10.085  0.1105 -0.5337  0.8098
  630MOL0     C83066   6.333   8.314  10.069 -0.1297 -0.8755 -0.1913
  630MOL0     C83067   6.219   8.363   9.977  0.4315 -0.0659  0.4566
  630MOL0     C83068   6.102   8.269   9.967 -0.8850 -0.8741 -0.3312
  630MOL0     C83069   5.988   8.327   9.897  0.7359  0.1626 -0.2682
  630MOL0     C83070   5.874   8.226   9.879  1.4444  0.1527  0.1760
  630MOL0     C83071   5.808   8.192  10.011 -0.0433 -0.2991 -0.3282
  630MOL0    Cl83072   5.744   8.329  10.098 -0.5377 -0.2142  0.4167
  630MOL0     C83073   6.842   8.324  10.220  0.7290 -0.3785 -0.2939
  630MOL0     C83074   6.983   8.313  10.216  0.8660  0.1650 -0.3613
  630MOL0     O83075   7.215   8.457  10.382  0.1719 -0.8390 -0.4516
  630MOL0     C83076   7.493   8.352  10.185  1.8016  0.2981 -0.5416
  630MOL0     C83077   7.629   8.325  10.201 -0.9191  0.3398 -0.1757
  630MOL0     N83078   8.157   8.713  10.402  0.2469 -0.4191 -0.6878
  630MOL0     N83079   8.220   8.819  10.400  0.7418 -0.5820 -0.6227
  630MOL0     C83080   9.240   9.288  10.937  0.4470 -0.9810 -0.3577
  630MOL0     C83081   9.366   9.331  10.992 -0.0409 -0.5227  0.3414
  630MOL0     C83082   9.681   9.506  11.270 -1.0058  0.4216 -0.0633
  630MOL0     C83083   9.720   9.641  11.284  0.1420 -0.1478 -0.2431
  630MOL0     C83084   9.842   9.668  11.352  0.4136  0.0414  0.2024
  630MOL0     C83085   9.912   9.571  11.418 -0.1202  0.6934  0.3744
  630MOL0     O83086  10.010   9.618  11.498  0.2322 -0.3202 -0.4927
  630MOL0     C83087  10.116   9.535  11.537  0.0153 -0.2066 -0.3620
  630MOL0     C83088  10.214   9.596  11.632  0.1799 -0.4699 -0.8967
  630MOL0     C83089  10.338   9.522  11.654  0.2068  0.9730  0.7217
  630MOL0     C83090  10.458   9.600  11.717 -0.2283  0.7328  0.8482
  630MOL0     C83091  10.416   9.644  11.850 -0.9802  0.4762  0.0455
  630MOL0     C83092  10.399   9.713  11.943  0.6441 -0.0752  0.3314
  630MOL0     C83093   9.880   9.434  11.390 -0.6290  0.2718  0.2603
  630MOL0     C83094   9.761   9.403  11.317 -1.1095 -0.0810  1.0060
  630MOL0     H83095   9.381   9.170  11.292  3.1775 -0.7557 -2.1078
  630MOL0     H83096   9.163   9.082  11.204 -0.2433  1.4202  2.7890
  630MOL0     H83097   8.910   9.110  11.103  0.4123 -2.1640  1.4463
  630MOL0     H83098   9.007   8.972  11.060 -0.9187 -0.1592  1.8492
  630MOL0     H83099   8.796   8.949  10.952 -0.3797 -0.0219 -0.1874
  630MOL0     H83100   8.901   9.013  10.821 -2.3698  0.1663 -0.7999
  630MOL0     H83101   8.806   9.232  10.861  3.0936 -2.0455 -0.7055
  630MOL0     H83102   8.681   9.145  10.972  2.7571 -1.4310  2.8860
  630MOL0     H83103   8.599   9.193  10.729  0.0596 -0.8408 -3.1672
  630MOL0     H83104   8.709   9.067  10.673 -2.4795 -2.5913  0.2333
  630MOL0     H83105   8.480   9.008  10.866  3.1447 -2.0744  1.9070
  630MOL0     H83106   8.594   8.898  10.822 -0.5665  0.0321 -1.0057
  630MOL0     H83107   8.427   9.076  10.623 -1.2759  0.2939  0.2783
  630MOL0     H83108   8.386   8.912  10.672  0.3999 -0.1158  0.8943
  630MOL0     H83109   8.638   8.957  10.524 -1.7574  1.3404  0.4221
  630MOL0     H83110   8.572   8.815  10.595  0.5354 -0.1015 -1.0122
  630MOL0     H83111   8.535   8.866  10.348 -0.4445 -0.1007 -0.0910
  630MOL0     H83112   8.428   8.995  10.398  0.3173  0.8392  0.5311
  630MOL0     H83113   8.449   8.591  10.475 -0.6974 -0.5338  2.0318
  630MOL0     H83114   8.230   8.435  10.554  2.6533  1.3783  0.4867
  630MOL0     H83115   8.269   8.410  10.380 -1.7160 -0.7804 -0.7411
  630MOL0     H83116   8.036   8.482  10.315  1.9052 -0.6576 -0.4011
  630MOL0     H83117   7.993   8.483  10.485 -1.1101 -1.5971  1.4337
  630MOL0     H83118   8.066   8.249  10.311  0.1617 -0.4914 -0.5240
  630MOL0     H83119   8.113   8.228  10.470  0.8219  0.7822 -0.6429
  630MOL0     H83120   7.864   8.306  10.523 -0.3432 -0.6618 -0.0199
  630MOL0     H83121   7.887   8.137  10.461 -0.3973 -1.2590 -2.7055
  630MOL0     H83122   7.652   8.297  10.534 -0.1841  0.8091 -0.3007
  630MOL0     H83123   7.397   8.317  10.505 -1.2499 -2.0662 -2.1478
  630MOL0     H83124   7.068   8.571  10.014  0.4143  2.4935  2.6087
  630MOL0     H83125   6.835   8.594  10.001  1.1207  2.1810  2.8739
  630MOL0     H83126   6.510   8.400  10.279 -0.7647 -1.4131  0.3427
  630MOL0     H83127   6.583   8.282  10.163  2.3042  1.0656 -0.2167
  630MOL0     H83128   6.474   8.440   9.982 -1.4867 -0.5513  0.2368
  630MOL0     H83129   6.390   8.523  10.114  1.1552  0.7563 -1.3027
  630MOL0     H83130   6.299   8.283  10.168 -0.0296 -2.3206 -0.5839
  630MOL0     H83131   6.382   8.228  10.023 -2.2951 -0.0947 -4.5487
  630MOL0     H83132   6.185   8.461  10.014 -1.9949 -0.3871 -0.7437
  630MOL0     H83133   6.257   8.372   9.875 -0.6614 -1.7395 -0.1250
  630MOL0     H83134   6.072   8.242  10.069  2.1885 -0.5037  0.7665
  630MOL0     H83135   6.130   8.178   9.912 -0.9119  0.8609 -3.4364
  630MOL0     H83136   6.020   8.346   9.795  1.8969 -0.2518  0.0067
  630MOL0     H83137   5.966   8.424   9.942  3.8981 -0.3237  2.7631
  630MOL0     H83138   5.801   8.284   9.822  0.0000 -0.0179  1.7663
  630MOL0     H83139   5.904   8.139   9.820  1.5990 -0.2241  0.7988
  630MOL0     H83140   5.875   8.130  10.071  0.8854  0.6263 -0.3748
  630MOL0     H83141   5.727   8.120   9.999  0.5224 -0.9528 -0.3283
  630MOL0     H83142   6.779   8.255  10.277  1.3037 -0.4124  0.3117
  630MOL0     H83143   7.026   8.229  10.271  1.8774 -0.7899 -2.4550
  630MOL0     H83144   7.454   8.390  10.091  1.4691  0.6270 -0.2755
  630MOL0     H83145   7.701   8.325  10.120 -0.0289  2.1097  0.5699
  630MOL0     H83146   9.210   9.319  10.837  0.3054 -1.2342 -0.3944
  630MOL0     H83147   9.421   9.398  10.927 -0.2730 -1.2523 -0.6271
  630MOL0     H83148   9.660   9.725  11.252  2.6000  3.2221  3.0922
  630MOL0     H83149   9.863   9.772  11.374 -0.2436  0.6727 -1.9200
  630MOL0     H83150  10.146   9.481  11.447 -3.2017 -0.2943 -1.5272
  630MOL0     H83151  10.068   9.462  11.603 -0.5578  0.5183  0.0431
  630MOL0     H83152  10.258   9.686  11.589 -3.2359 -0.1695 -4.2286
  630MOL0     H83153  10.168   9.624  11.728 -1.4953  2.2140 -2.3488
  630MOL0     H83154  10.362   9.468  11.561 -0.9021 -0.3749  1.1825
  630MOL0     H83155  10.317   9.438  11.721  2.6151 -0.7022 -0.4685
  630MOL0     H83156  10.554   9.548  11.724  0.2676  1.7648  2.2546
  630MOL0     H83157  10.487   9.686  11.655 -0.6297  0.0961 -0.2596
  630MOL0     H83158  10.395   9.775  12.030  0.7559 -2.4079  2.1102
  630MOL0     H83159   9.936   9.367  11.453  1.5061  1.4334 -0.3070
  630MOL0     H83160   9.739   9.297  11.315  0.5466 -0.4524  0.5041
  631MOL0     O83161   7.307   1.985   1.370 -0.2179 -0.0579  0.0458
  631MOL0     C83162   7.352   1.872   1.356 -0.0704 -0.9053  0.0349
  631MOL0     O83163   7.295   1.756   1.399 -0.5166 -0.1241  0.8568
  631MOL0     C83164   7.161   1.737   1.414 -0.3811 -0.4233  0.3783
  631MOL0     C83165   7.071   1.815   1.353  1.7354  0.4097  0.1308
  631MOL0     C83166   6.934   1.808   1.378 -0.0320 -0.4606  0.1677
  631MOL0     C83167   6.891   1.702   1.455 -0.1867 -0.2675  0.0691
  631MOL0     O83168   6.763   1.674   1.483 -0.2230  0.6173  0.1953
  631MOL0     C83169   6.704   1.558   1.414 -0.4346 -0.0609 -0.1769
  631MOL0     C83170   6.632   1.484   1.520  1.1475 -0.2022  0.2148
  631MOL0     C83171   6.534   1.385   1.468 -0.1520  0.3028 -0.6686
  631MOL0     C83172   6.431   1.347   1.565 -0.4791 -0.7542 -0.1640
  631MOL0     C83173   6.305   1.259   1.506  0.0813 -0.0348 -0.7417
  631MOL0     C83174   6.221   1.189   1.615  0.7466 -0.4689 -0.4846
  631MOL0     C83175   6.101   1.110   1.555  0.5885 -0.2543  0.5420
  631MOL0     C83176   6.000   1.194   1.473 -0.5467 -0.8801  0.3172
  631MOL0     N83177   6.023   1.190   1.330 -0.2341 -0.2637  0.0992
  631MOL0     C83178   6.045   1.297   1.240  0.1408  0.6211  0.3294
  631MOL0     C83179   6.090   1.237   1.122  0.8559  0.2747  0.4954
  631MOL0     C83180   6.123   1.312   0.993 -0.1982 -0.0081  1.3063
  631MOL0     C83181   6.201   1.217   0.898  0.1430 -0.3553  0.0428
  631MOL0     C83182   6.211   1.266   0.745  0.6812  0.1331 -0.4526
  631MOL0     C83183   6.058   1.272   0.694 -0.4759  0.8125  0.7104
  631MOL0     O83184   5.992   1.141   0.731 -0.0326 -0.1384  0.1803
  631MOL0     C83185   5.861   1.135   0.769 -0.6130 -0.1417 -0.5301
  631MOL0     C83186   5.751   1.186   0.697  0.8024  0.3354 -0.0166
  631MOL0     C83187   5.618   1.200   0.753  0.1441  0.6293  0.1730
  631MOL0     C83188   5.596   1.147   0.879  0.7164 -0.1761  0.3293
  631MOL0     C83189   5.463   1.138   0.935 -0.1874 -0.4322  0.2777
  631MOL0     O83190   5.362   1.161   0.857  0.4584 -0.5171  0.4747
  631MOL0     C83191   5.238   1.146   0.908 -0.5976 -0.1568  0.3237
  631MOL0     C83192   5.187   1.053   1.008  0.3440 -0.0506  0.7614
  631MOL0     C83193   5.054   1.064   1.043  0.5738  0.0723 -0.0968
  631MOL0     C83194   4.972   1.156   0.986 -0.1229  1.0953  0.2727
  631MOL0     O83195   4.841   1.173   1.012  0.5310 -0.0169 -0.2816
  631MOL0     C83196   4.763   1.059   0.979 -0.8517  0.0361 -0.1449
  631MOL0     C83197   4.609   1.088   0.951  0.3264  0.5866 -0.8829
  631MOL0     C83198   4.594   1.175   0.825 -0.7666  0.6082  0.3257
  631MOL0     C83199   4.453   1.228   0.811  0.1142 -0.3013 -0.0829
  631MOL0     C83200   4.428   1.294   0.674 -0.3719 -0.1114 -0.3634
  631MOL0     C83201   4.390   1.203   0.554  0.8242 -0.5210  0.6772
  631MOL0     C83202   4.341   1.300   0.446 -0.7257 -0.0274  0.1188
  631MOL0     C83203   4.291   1.234   0.317 -0.0322  0.4379 -0.0317
  631MOL0    Cl83204   4.199   1.347   0.215  0.1855  0.2062 -0.2296
  631MOL0     C83205   5.027   1.248   0.902  0.0250 -1.2145  0.7779
  631MOL0     C83206   5.158   1.241   0.855  0.0264 -0.3463 -0.0351
  631MOL0     O83207   5.452   1.099   1.048  0.2562 -0.1025 -0.3961
  631MOL0     C83208   5.699   1.089   0.949  0.6147  0.3234  0.6087
  631MOL0     C83209   5.827   1.086   0.895 -0.2973  0.0459  0.4464
  631MOL0     N83210   6.068   1.098   1.146 -0.7523 -0.3663  0.3610
  631MOL0     N83211   6.034   1.073   1.263 -0.0611  0.2845 -0.8879
  631MOL0     C83212   6.987   1.618   1.509  0.4882  0.3048 -0.7813
  631MOL0     C83213   7.120   1.634   1.492 -0.0989  0.4748  0.4836
  631MOL0     C83214   7.490   1.876   1.324 -0.5098  0.2722 -0.3102
  631MOL0     C83215   7.572   1.773   1.382  0.3443  0.2657 -0.2390
  631MOL0     C83216   7.702   1.760   1.350  1.1948 -0.2024 -0.0898
  631MOL0     C83217   7.757   1.840   1.247 -1.0356  1.2230 -0.1983
  631MOL0     O83218   7.891   1.841   1.206 -0.3600 -0.1855  0.3185
  631MOL0     C83219   7.988   1.799   1.304  0.9491 -0.0599  0.0674
  631MOL0     C83220   8.015   1.897   1.424  0.2041  0.0230  0.4203
  631MOL0     C83221   8.142   1.866   1.507 -0.2994  0.5962  0.1481
  631MOL0     C83222   8.274   1.889   1.426 -0.2902  0.1920  0.8190
  631MOL0     C83223   8.386   1.824   1.485  0.0856 -0.4650 -0.3296
  631MOL0     C83224   8.479   1.761   1.534 -0.1147  0.4251 -0.1666
  631MOL0     C83225   7.677   1.927   1.178  0.0283  0.7165 -0.1796
  631MOL0     C83226   7.548   1.947   1.224 -0.5336  0.4193  0.0075
  631MOL0     H83227   7.103   1.898   1.290  0.4298  0.7540 -0.1141
  631MOL0     H83228   6.872   1.879   1.324 -1.6641 -0.3510  2.0834
  631MOL0     H83229   6.770   1.499   1.350  0.2037  0.3396  0.1100
  631MOL0     H83230   6.635   1.604   1.342  1.1979  3.9329  0.5538
  631MOL0     H83231   6.565   1.559   1.564 -1.2349 -2.1036  0.0138
  631MOL0     H83232   6.703   1.433   1.585  3.0485 -0.8956 -2.2499
  631MOL0     H83233   6.592   1.297   1.438  1.0046  0.8803 -0.1921
  631MOL0     H83234   6.485   1.437   1.386 -0.7308 -1.9172 -1.8077
  631MOL0     H83235   6.486   1.291   1.641 -2.2466 -1.8298  0.3655
  631MOL0     H83236   6.397   1.440   1.613  1.3041 -0.9878  1.6743
  631MOL0     H83237   6.352   1.189   1.437  1.4040 -1.1591  1.1903
  631MOL0     H83238   6.238   1.327   1.453  1.4384  1.1081 -1.0566
  631MOL0     H83239   6.183   1.257   1.692 -0.2599 -2.3463  0.7603
  631MOL0     H83240   6.286   1.121   1.670  0.1473 -1.7832 -1.3515
  631MOL0     H83241   6.150   1.037   1.490 -0.2869  0.0760 -0.5312
  631MOL0     H83242   6.043   1.055   1.630 -0.5521 -0.4731 -0.4748
  631MOL0     H83243   6.003   1.300   1.501 -1.4428 -1.0724  1.1662
  631MOL0     H83244   5.899   1.157   1.492 -1.4306  1.2820  0.1297
  631MOL0     H83245   6.048   1.404   1.258 -1.3237  0.7280  0.1066
  631MOL0     H83246   6.181   1.402   1.014  0.7568  0.1691 -1.5542
  631MOL0     H83247   6.028   1.336   0.944  0.6881 -1.3057 -1.2634
  631MOL0     H83248   6.145   1.122   0.900  0.6586 -0.8065 -2.4539
  631MOL0     H83249   6.299   1.203   0.944  0.9718  2.5379 -0.6450
  631MOL0     H83250   6.264   1.361   0.741  1.7807 -0.3578  1.2858
  631MOL0     H83251   6.269   1.197   0.682  0.2143 -0.4973 -0.2095
  631MOL0     H83252   6.047   1.265   0.585 -0.3859  1.9954  0.6094
  631MOL0     H83253   5.999   1.354   0.736  0.0203  0.7282  1.5942
  631MOL0     H83254   5.766   1.226   0.598  0.1236  4.3201  1.3102
  631MOL0     H83255   5.541   1.244   0.691  1.5783  0.6957 -1.6475
  631MOL0     H83256   5.253   0.980   1.054  3.0657  0.1179 -2.4695
  631MOL0     H83257   5.014   0.991   1.112  0.3032 -0.3798 -0.7319
  631MOL0     H83258   4.768   0.977   1.050 -0.2207  0.9778  0.9354
  631MOL0     H83259   4.809   1.028   0.885  1.5820 -0.7384  1.2178
  631MOL0     H83260   4.563   1.146   1.032 -1.2431  1.2697 -2.2077
  631MOL0     H83261   4.560   0.991   0.934  1.5922 -0.4064  0.7715
  631MOL0     H83262   4.617   1.111   0.739 -0.3353  1.8120 -0.4829
  631MOL0     H83263   4.659   1.262   0.823 -0.4380  0.3518 -0.4038
  631MOL0     H83264   4.385   1.143   0.819 -1.1147  0.6019 -0.6563
  631MOL0     H83265   4.426   1.297   0.891  4.6938  1.6248  0.0577
  631MOL0     H83266   4.514   1.359   0.654  0.8742 -1.3129  0.8151
  631MOL0     H83267   4.345   1.363   0.689 -0.2792  0.6301 -2.9512
  631MOL0     H83268   4.320   1.131   0.595  1.0823  0.3438  2.7703
  631MOL0     H83269   4.473   1.139   0.522 -0.9781 -2.4237 -0.4380
  631MOL0     H83270   4.265   1.367   0.488 -0.1822  1.7329 -1.5394
  631MOL0     H83271   4.427   1.361   0.416 -0.4166 -1.1237 -1.2787
  631MOL0     H83272   4.227   1.148   0.338  0.9681 -0.3685 -0.1716
  631MOL0     H83273   4.373   1.201   0.252  2.8331  3.8458  1.4779
  631MOL0     H83274   4.974   1.339   0.873 -0.4154 -1.9065 -0.7164
  631MOL0     H83275   5.193   1.323   0.793 -0.2902  0.2795  0.5998
  631MOL0     H83276   5.688   1.046   1.048 -1.0596 -1.6014 -0.3620
  631MOL0     H83277   5.901   1.051   0.966 -0.1726  2.0979  1.3902
  631MOL0     H83278   6.950   1.540   1.574  3.3831 -0.9728 -0.5364
  631MOL0     H83279   7.188   1.574   1.552 -1.8907 -1.9736  0.2263
  631MOL0     H83280   7.527   1.707   1.456  3.2920  0.3959  1.8596
  631MOL0     H83281   7.762   1.685   1.401  1.2088 -0.5987 -0.6886
  631MOL0     H83282   8.078   1.782   1.246  1.2682 -1.5203  0.9175
  631MOL0     H83283   7.964   1.698   1.339  3.3560 -0.7547 -0.1373
  631MOL0     H83284   8.025   1.997   1.380  0.5615  0.9030  2.3869
  631MOL0     H83285   7.934   1.889   1.496  0.4064 -0.8764  0.5627
  631MOL0     H83286   8.142   1.763   1.542 -0.2522  0.9291  1.1600
  631MOL0     H83287   8.140   1.942   1.586 -0.9587  0.7453  0.0024
  631MOL0     H83288   8.278   1.854   1.323  3.0507  1.3609  0.4217
  631MOL0     H83289   8.307   1.994   1.426 -0.6637  0.3174  1.8643
  631MOL0     H83290   8.552   1.699   1.581 -0.2924  1.8051  2.1546
  631MOL0     H83291   7.721   1.986   1.098  1.4769  1.0282  0.8065
  631MOL0     H83292   7.493   2.020   1.165  1.4634  1.7644 -0.2650
  632MOL0     O83293   6.041   9.158   3.219  0.1974  0.2069 -0.0166
  632MOL0     C83294   5.967   9.155   3.119 -0.0281  0.2336 -0.9480
  632MOL0     O83295   5.998   9.216   3.000  0.7019  0.5851  0.3200
  632MOL0     C83296   6.124   9.263   2.976 -0.9325 -0.5845  0.1472
  632MOL0     C83297   6.128   9.405   2.975 -0.1348  0.5173  0.5763
  632MOL0     C83298   6.246   9.474   2.932 -0.6072  0.2501  0.6632
  632MOL0     C83299   6.356   9.394   2.900  0.2549 -1.1323 -0.4486
  632MOL0     O83300   6.478   9.449   2.880  0.2515  0.4624 -0.2303
  632MOL0     C83301   6.482   9.540   2.776  0.5992 -0.3922  0.8669
  632MOL0     C83302   6.608   9.610   2.787  0.7553 -0.0858  0.3510
  632MOL0     C83303   6.634   9.743   2.704 -0.0299  0.2829 -0.5141
  632MOL0     C83304   6.785   9.780   2.697 -0.6425 -0.6313  0.9690
  632MOL0     C83305   6.799   9.931   2.657  0.1482  0.3612 -0.4216
  632MOL0     C83306   6.928   9.999   2.711  0.6693 -0.1374  0.8298
  632MOL0     C83307   6.920  10.148   2.675 -0.7445  0.3071  0.3875
  632MOL0     C83308   7.042  10.200   2.743 -0.7733 -0.2019 -0.4329
  632MOL0     N83309   7.015  10.341   2.757 -0.3503 -0.3979 -1.0741
  632MOL0     C83310   6.971  10.398   2.879 -0.1635 -0.0037 -1.4918
  632MOL0     C83311   6.916  10.514   2.855  0.3982 -1.2855  0.6313
  632MOL0     C83312   6.847  10.622   2.948 -0.0160  0.7107 -0.5151
  632MOL0     C83313   6.705  10.631   2.922  0.0720 -0.1100 -0.1137
  632MOL0     C83314   6.628  10.504   2.938  0.4546  0.8109  0.9427
  632MOL0     C83315   6.476  10.529   2.908 -0.3192 -0.2141  0.6632
  632MOL0     O83316   6.397  10.412   2.961 -0.2868 -0.5701  0.7906
  632MOL0     C83317   6.259  10.441   2.981  0.5308 -0.6270  0.0797
  632MOL0     C83318   6.189  10.535   2.898  0.8410 -0.2423 -0.1135
  632MOL0     C83319   6.054  10.571   2.908 -0.4021  0.1128  0.1107
  632MOL0     C83320   5.979  10.502   3.010  0.0165  0.1971 -0.3846
  632MOL0     C83321   5.837  10.534   3.020 -0.6246 -0.8243 -0.3463
  632MOL0     O83322   5.777  10.455   3.111  0.3122 -0.0048 -0.1369
  632MOL0     C83323   5.639  10.452   3.127  0.6934  0.2234 -0.5897
  632MOL0     C83324   5.591  10.345   3.197 -0.3287  1.0710  0.7956
  632MOL0     C83325   5.459  10.330   3.225  0.6716  0.1286 -0.7292
  632MOL0     C83326   5.363  10.424   3.188  0.3259 -0.7322 -0.6254
  632MOL0     O83327   5.235  10.404   3.222  0.4162 -0.2576  0.2188
  632MOL0     C83328   5.132  10.476   3.150 -0.6338 -0.9929  0.2451
  632MOL0     C83329   4.986  10.440   3.189  0.0485  0.5818  0.4217
  632MOL0     C83330   4.934  10.526   3.293 -0.3689 -0.1719  0.1649
  632MOL0     C83331   4.800  10.487   3.348  0.3138 -0.1995  0.7075
  632MOL0     C83332   4.759  10.577   3.470  0.3433  0.0035 -0.3812
  632MOL0     C83333   4.620  10.537   3.527 -0.4945  0.8724  0.2321
  632MOL0     C83334   4.577  10.612   3.639  0.7044  0.7885 -0.6750
  632MOL0     C83335   4.446  10.561   3.694  0.2433  0.1302 -0.1773
  632MOL0    Cl83336   4.411  10.638   3.845 -0.0506 -0.7317  0.6126
  632MOL0     C83337   5.413  10.539   3.128 -0.0962 -0.1960  1.0246
  632MOL0     C83338   5.550  10.550   3.098  0.7802 -0.4423  0.5434
  632MOL0     O83339   5.788  10.625   2.951  0.3632 -0.2084  0.3782
  632MOL0     C83340   6.046  10.406   3.098  0.3594 -0.2478 -0.4247
  632MOL0     C83341   6.183  10.377   3.074 -0.4075 -0.2855 -0.7583
  632MOL0     N83342   6.946  10.539   2.716  0.2578 -0.1753  0.0838
  632MOL0     N83343   7.010  10.435   2.662  0.2382  0.5117  0.5201
  632MOL0     C83344   6.357   9.254   2.910 -0.0465 -0.9249 -0.6767
  632MOL0     C83345   6.237   9.189   2.947  0.1755  0.8323  0.4994
  632MOL0     C83346   5.829   9.085   3.139 -0.9588  0.8269  0.2950
  632MOL0     C83347   5.798   9.018   3.257 -1.0947  0.3701  1.0635
  632MOL0     C83348   5.668   8.953   3.274 -0.3755 -0.1301 -0.5599
  632MOL0     C83349   5.565   8.973   3.184  0.1675 -0.7933  0.4713
  632MOL0     O83350   5.443   8.934   3.229  0.5014  0.2600 -0.2117
  632MOL0     C83351   5.315   8.969   3.164 -0.4388  0.8121  0.4580
  632MOL0     C83352   5.228   8.839   3.165  0.1943  0.0413 -0.1829
  632MOL0     C83353   5.076   8.886   3.145 -0.7032  0.5780 -0.3613
  632MOL0     C83354   5.054   8.934   2.999  0.1130 -0.1876 -0.5811
  632MOL0     C83355   4.912   8.929   2.969 -0.5698 -0.4586  0.4591
  632MOL0     C83356   4.795   8.915   2.940  0.0822 -0.5829  0.1248
  632MOL0     C83357   5.594   9.064   3.078 -0.9297  0.6148 -0.3408
  632MOL0     C83358   5.725   9.112   3.053 -0.2742  0.3141  0.4038
  632MOL0     H83359   6.038   9.464   2.986 -1.7451 -2.1022  2.9413
  632MOL0     H83360   6.247   9.582   2.937 -1.1421  0.2495  0.8793
  632MOL0     H83361   6.401   9.612   2.794  0.2091 -0.9334  1.3095
  632MOL0     H83362   6.473   9.485   2.682 -0.3470 -0.6322  1.0811
  632MOL0     H83363   6.672   9.527   2.757 -2.6311 -2.2978 -1.3906
  632MOL0     H83364   6.623   9.639   2.891  1.6959 -1.9063  0.7554
  632MOL0     H83365   6.581   9.816   2.765 -0.9063 -1.0967  0.4487
  632MOL0     H83366   6.586   9.747   2.605 -0.4743 -0.2481 -0.3255
  632MOL0     H83367   6.827   9.776   2.798  1.0069  4.8221  0.8099
  632MOL0     H83368   6.840   9.709   2.634 -0.6788  0.2002 -0.0279
  632MOL0     H83369   6.714   9.974   2.709  0.2096  0.9246 -0.7815
  632MOL0     H83370   6.788   9.951   2.550  0.9016 -0.1148 -0.6038
  632MOL0     H83371   7.011   9.949   2.659  0.2278 -1.2445  1.1628
  632MOL0     H83372   6.938   9.970   2.816  2.3582 -1.0977  0.4526
  632MOL0     H83373   6.920  10.153   2.566  0.9643  3.4483  0.4379
  632MOL0     H83374   6.831  10.197   2.717 -0.1423  2.7277 -1.0369
  632MOL0     H83375   7.130  10.185   2.680 -0.8169 -1.1589 -0.2846
  632MOL0     H83376   7.074  10.160   2.839  3.5173 -1.6206 -2.2298
  632MOL0     H83377   6.960  10.352   2.977 -0.2795  2.0332 -0.5085
  632MOL0     H83378   6.878  10.726   2.933 -1.3481  1.2040 -0.0351
  632MOL0     H83379   6.867  10.587   3.050  0.7860 -1.5997 -1.3957
  632MOL0     H83380   6.686  10.663   2.820 -1.2828  1.4189  0.5798
  632MOL0     H83381   6.653  10.702   2.988 -2.1771 -0.4564 -1.4486
  632MOL0     H83382   6.653  10.421   2.873 -2.6185 -2.4734  3.5198
  632MOL0     H83383   6.641  10.470   3.041  0.7374  0.4551  0.7906
  632MOL0     H83384   6.463  10.545   2.800  0.6747 -3.1932 -0.0025
  632MOL0     H83385   6.428  10.613   2.959 -2.3226  0.2662 -1.7774
  632MOL0     H83386   6.238  10.596   2.823 -0.3079 -0.8289 -1.3790
  632MOL0     H83387   6.004  10.639   2.839  2.0589  1.2621 -0.6432
  632MOL0     H83388   5.667  10.274   3.229  1.9464  2.5030 -1.0835
  632MOL0     H83389   5.440  10.237   3.277  1.8994  1.7852  3.0083
  632MOL0     H83390   5.150  10.449   3.046  0.2788  4.3098 -1.2392
  632MOL0     H83391   5.144  10.584   3.161 -1.2971 -0.6754 -1.8068
  632MOL0     H83392   4.996  10.334   3.214  4.1384  0.8824  0.8296
  632MOL0     H83393   4.912  10.447   3.109 -0.2050  1.6273  0.7320
  632MOL0     H83394   4.922  10.632   3.270  0.6416 -0.1661 -0.3802
  632MOL0     H83395   5.004  10.516   3.376 -1.6182 -0.5848  1.2049
  632MOL0     H83396   4.732  10.489   3.263  2.6357  0.3101 -1.2762
  632MOL0     H83397   4.800  10.385   3.388  1.5309 -0.9872 -1.1769
  632MOL0     H83398   4.758  10.684   3.451  2.5679  0.3338  0.9850
  632MOL0     H83399   4.830  10.564   3.552 -1.8768 -0.5051  1.5674
  632MOL0     H83400   4.626  10.429   3.544  3.5623  1.3743  3.7174
  632MOL0     H83401   4.554  10.563   3.444  0.6568 -0.3231 -1.0993
  632MOL0     H83402   4.646  10.599   3.723 -0.5583 -0.8407  0.1609
  632MOL0     H83403   4.567  10.717   3.610 -2.1917  0.0286 -2.9037
  632MOL0     H83404   4.436  10.453   3.712  0.8498  0.2755  1.1386
  632MOL0     H83405   4.368  10.592   3.624  0.9028 -0.3561 -1.1482
  632MOL0     H83406   5.350  10.626   3.111  0.5145  0.0056 -0.2799
  632MOL0     H83407   5.569  10.638   3.037 -0.8886 -1.9719 -2.3878
  632MOL0     H83408   5.989  10.358   3.177  1.0937 -0.3623  0.0439
  632MOL0     H83409   6.233  10.301   3.134  1.9555  0.8009 -1.2698
  632MOL0     H83410   6.446   9.197   2.887 -0.5832 -2.6736  1.2840
  632MOL0     H83411   6.232   9.081   2.944 -1.3418  0.8845 -1.7943
  632MOL0     H83412   5.884   9.000   3.320 -1.5492  0.1834  1.6516
  632MOL0     H83413   5.648   8.896   3.364 -0.2162  1.2817  0.4234
  632MOL0     H83414   5.320   9.011   3.063 -3.1492  3.0377  1.1237
  632MOL0     H83415   5.257   9.050   3.210 -3.0070  0.2956 -1.6334
  632MOL0     H83416   5.245   8.765   3.087 -2.8019  0.4126 -1.3504
  632MOL0     H83417   5.237   8.801   3.267 -1.1161 -0.7591 -0.3355
  632MOL0     H83418   5.038   8.963   3.212 -1.7486  1.5161 -1.9825
  632MOL0     H83419   5.021   8.795   3.170 -1.3845  0.4881 -2.0775
  632MOL0     H83420   5.092   9.036   2.990 -0.4319  0.1183  0.4446
  632MOL0     H83421   5.110   8.866   2.934 -0.7774 -0.9998 -0.5159
  632MOL0     H83422   4.691   8.900   2.920 -0.4053  2.1222  0.2715
  632MOL0     H83423   5.515   9.119   3.029 -1.5421 -1.1315 -1.3681
  632MOL0     H83424   5.729   9.189   2.978  0.6565 -0.3825 -0.2905
  633MOL0     O83425   6.417   2.983   9.229 -0.4612 -0.1879 -0.1179
  633MOL0     C83426   6.489   2.950   9.138  1.2967  0.2160  0.7301
  633MOL0     O83427   6.441   2.894   9.029 -0.7708  0.0694  0.5433
  633MOL0     C83428   6.301   2.892   9.016 -0.3108 -0.9808  0.0619
  633MOL0     C83429   6.252   3.007   8.951 -0.5463 -0.3033  0.1272
  633MOL0     C83430   6.120   3.018   8.913  0.8691  0.8409 -0.5811
  633MOL0     C83431   6.038   2.914   8.965  0.1993  0.3553  0.6717
  633MOL0     O83432   5.902   2.916   8.934  0.3185  0.2989  0.8377
  633MOL0     C83433   5.864   2.924   8.789 -0.6363 -0.2471 -0.6721
  633MOL0     C83434   5.713   2.906   8.760 -0.7323  0.0510  0.2599
  633MOL0     C83435   5.650   2.792   8.833 -0.2157  0.2271 -0.2595
  633MOL0     C83436   5.495   2.773   8.797 -0.7175  1.2762  0.4685
  633MOL0     C83437   5.421   2.907   8.821  0.0829 -0.2780  0.0805
  633MOL0     C83438   5.284   2.879   8.872  0.9307  0.2799  0.6946
  633MOL0     C83439   5.185   2.818   8.765 -0.5854  0.2480  0.1543
  633MOL0     C83440   5.066   2.755   8.841 -0.0893  1.0756  0.7011
  633MOL0     N83441   4.948   2.838   8.878 -0.3975 -0.3252 -0.4454
  633MOL0     C83442   4.881   2.818   8.989  0.5688 -0.1353 -0.3497
  633MOL0     C83443   4.771   2.905   8.977  0.1210 -0.1077  0.8565
  633MOL0     C83444   4.677   2.937   9.096 -0.7652  1.2196 -0.6962
  633MOL0     C83445   4.553   3.000   9.048 -1.0189 -0.5977  0.5391
  633MOL0     C83446   4.437   2.979   9.148  0.1009  0.5679 -0.2990
  633MOL0     C83447   4.336   3.086   9.132 -0.3309 -0.1340  1.0161
  633MOL0     O83448   4.220   3.068   9.211  0.3440 -0.1384 -0.6586
  633MOL0     C83449   4.097   3.132   9.183 -0.3816 -0.4849 -0.2666
  633MOL0     C83450   3.998   3.146   9.288 -0.5937 -0.1912 -0.1520
  633MOL0     C83451   3.893   3.228   9.264 -0.4846 -0.5175  1.0776
  633MOL0     C83452   3.869   3.299   9.139 -0.1737  0.3167 -0.2297
  633MOL0     C83453   3.765   3.394   9.112 -0.6747 -0.7009 -0.7766
  633MOL0     O83454   3.759   3.439   8.987  0.2072 -0.6441 -0.8223
  633MOL0     C83455   3.667   3.546   8.970  0.1070  0.0052  0.3307
  633MOL0     C83456   3.721   3.666   8.934 -0.1869 -0.6381  0.3933
  633MOL0     C83457   3.639   3.777   8.912  0.5599  0.6641 -0.2615
  633MOL0     C83458   3.500   3.757   8.905 -1.1537  0.0869  0.5779
  633MOL0     O83459   3.421   3.867   8.900  0.6041 -0.4327 -0.1774
  633MOL0     C83460   3.436   3.957   8.788 -0.9193 -0.1985 -1.0525
  633MOL0     C83461   3.309   4.043   8.759 -0.7265  0.0892 -0.5010
  633MOL0     C83462   3.185   3.959   8.744 -0.1682  0.2206  0.4566
  633MOL0     C83463   3.067   4.045   8.759  0.3221 -0.0489 -0.8779
  633MOL0     C83464   2.941   3.982   8.714 -0.6500  1.0962  0.5905
  633MOL0     C83465   2.890   3.853   8.781 -0.3342 -0.3683  0.1954
  633MOL0     C83466   2.864   3.875   8.931 -0.1235 -0.2804 -0.4572
  633MOL0     C83467   2.781   3.772   8.983 -0.9405 -0.2741  0.2762
  633MOL0    Cl83468   2.757   3.803   9.159 -0.0107 -0.1324 -0.2360
  633MOL0     C83469   3.445   3.636   8.931 -0.5826 -0.1803  0.1345
  633MOL0     C83470   3.527   3.531   8.969 -0.0044 -0.1748  0.4714
  633MOL0     O83471   3.692   3.424   9.206 -0.6956 -0.2991 -0.2620
  633MOL0     C83472   3.970   3.290   9.044 -0.5464  0.6686  0.0826
  633MOL0     C83473   4.084   3.206   9.070  0.7767  0.5899  0.2624
  633MOL0     N83474   4.792   2.985   8.860  0.4841  0.5628 -0.2809
  633MOL0     N83475   4.898   2.940   8.798 -0.4433  0.2776 -0.2451
  633MOL0     C83476   6.083   2.806   9.037 -0.1100  1.0454 -0.2587
  633MOL0     C83477   6.223   2.787   9.054 -0.0143 -0.8596  0.5664
  633MOL0     C83478   6.632   2.986   9.132  0.5320 -0.8186 -0.4600
  633MOL0     C83479   6.720   2.929   9.035  0.1078 -0.2192  0.5792
  633MOL0     C83480   6.856   2.944   9.038  0.5976 -0.5106  0.0069
  633MOL0     C83481   6.917   3.039   9.136  0.0681  0.9465 -0.1427
  633MOL0     O83482   7.053   3.057   9.143 -0.5088 -0.0927  0.0779
  633MOL0     C83483   7.121   2.957   9.221 -0.5023 -0.5686 -0.3144
  633MOL0     C83484   7.230   2.884   9.149  0.3586 -0.2750  0.1896
  633MOL0     C83485   7.179   2.801   9.028 -0.9131  0.3081 -0.2727
  633MOL0     C83486   7.114   2.665   9.073  0.1500 -1.3898 -0.3961
  633MOL0     C83487   6.988   2.621   9.003 -0.4953 -0.1474  0.1951
  633MOL0     C83488   6.881   2.594   8.949  0.4281  1.1373  0.2759
  633MOL0     C83489   6.830   3.096   9.234 -0.5888 -0.3749  0.1953
  633MOL0     C83490   6.686   3.071   9.233 -0.1094  0.0368  0.4876
  633MOL0     H83491   6.323   3.083   8.921  0.5421 -1.5355 -0.5125
  633MOL0     H83492   6.074   3.112   8.883 -3.2832  0.3584  3.2563
  633MOL0     H83493   5.919   2.836   8.756  1.7666  0.8133  0.3033
  633MOL0     H83494   5.900   3.012   8.736 -0.6207  0.6711  0.8150
  633MOL0     H83495   5.701   2.900   8.651  1.6235  3.5739 -0.3671
  633MOL0     H83496   5.663   3.000   8.785 -0.1942  0.5726 -0.5498
  633MOL0     H83497   5.650   2.823   8.938  0.8716 -1.3873  0.2636
  633MOL0     H83498   5.703   2.696   8.828 -2.9518 -1.7003  3.1696
  633MOL0     H83499   5.498   2.739   8.693 -2.1517  0.6581  0.6042
  633MOL0     H83500   5.462   2.700   8.872 -0.3503  3.7082  3.1950
  633MOL0     H83501   5.406   2.962   8.728 -3.5002 -1.8742 -0.4640
  633MOL0     H83502   5.475   2.960   8.901 -0.3954  1.0660 -0.4570
  633MOL0     H83503   5.233   2.964   8.918 -1.2999 -0.0482 -1.0553
  633MOL0     H83504   5.292   2.807   8.955 -2.6476  0.2541  1.1710
  633MOL0     H83505   5.159   2.896   8.692  2.1544  0.2117 -0.9646
  633MOL0     H83506   5.246   2.739   8.720  1.2896  0.3965  2.2953
  633MOL0     H83507   5.116   2.697   8.920 -0.5167 -2.5691 -1.4775
  633MOL0     H83508   5.014   2.682   8.778 -2.0733  0.2000  3.1736
  633MOL0     H83509   4.897   2.742   9.065 -2.8039 -0.5830  0.0732
  633MOL0     H83510   4.728   3.005   9.166 -3.3007  1.3574  1.1397
  633MOL0     H83511   4.644   2.844   9.143 -2.5360  1.7951 -0.7603
  633MOL0     H83512   4.523   2.967   8.948 -0.3821  3.7320 -1.2974
  633MOL0     H83513   4.582   3.104   9.031  0.3133 -0.8202  1.2988
  633MOL0     H83514   4.391   2.884   9.122 -1.5449  1.1506  0.3369
  633MOL0     H83515   4.477   2.976   9.251 -0.4579 -0.1294 -0.0947
  633MOL0     H83516   4.320   3.100   9.025 -1.9396  1.0143  1.3668
  633MOL0     H83517   4.380   3.180   9.166  1.2068 -0.2058 -0.6756
  633MOL0     H83518   4.009   3.104   9.388  0.0309  0.8651  0.2397
  633MOL0     H83519   3.826   3.253   9.346  0.9836  2.0354  1.6103
  633MOL0     H83520   3.827   3.683   8.918 -0.3749 -0.2016 -0.4259
  633MOL0     H83521   3.686   3.875   8.916 -1.9168  1.8844  0.9588
  633MOL0     H83522   3.462   3.889   8.707 -1.6754 -0.8877 -0.7420
  633MOL0     H83523   3.511   4.030   8.820 -0.8943 -0.2426 -1.0100
  633MOL0     H83524   3.329   4.097   8.666 -2.5669  0.3128 -0.7869
  633MOL0     H83525   3.292   4.117   8.838 -0.9686  0.3998 -0.8415
  633MOL0     H83526   3.194   3.876   8.815  1.1407 -0.4125 -0.4213
  633MOL0     H83527   3.190   3.908   8.648  1.6718 -0.0881  0.6770
  633MOL0     H83528   3.062   4.064   8.866 -0.2197  0.3519 -0.9661
  633MOL0     H83529   3.078   4.138   8.702  0.1456  0.5644  0.0669
  633MOL0     H83530   2.954   3.951   8.610  1.8331  0.2751  1.1046
  633MOL0     H83531   2.863   4.059   8.722 -1.1822  0.5274  0.9299
  633MOL0     H83532   2.958   3.768   8.767 -1.7467 -1.8490  1.7659
  633MOL0     H83533   2.801   3.819   8.728 -0.6185  3.2487 -1.9236
  633MOL0     H83534   2.957   3.875   8.988 -2.0918  2.9567  3.2907
  633MOL0     H83535   2.813   3.971   8.948  1.0532  0.3138 -0.1522
  633MOL0     H83536   2.848   3.686   8.974  0.8137  1.2113 -2.0461
  633MOL0     H83537   2.684   3.759   8.934 -0.5274  3.5687 -1.9140
  633MOL0     H83538   3.337   3.630   8.933 -0.6717  1.1727  0.5166
  633MOL0     H83539   3.480   3.442   9.010 -1.2261  0.6931  1.0084
  633MOL0     H83540   3.971   3.354   8.956 -1.4128 -0.3585 -0.7024
  633MOL0     H83541   4.154   3.202   8.988  1.9826 -1.5924  1.3106
  633MOL0     H83542   6.008   2.737   9.074  0.2700  0.0585 -1.2551
  633MOL0     H83543   6.257   2.692   9.094 -0.8462 -2.9497 -3.2048
  633MOL0     H83544   6.669   2.852   8.977 -1.9820 -0.1647  2.2327
  633MOL0     H83545   6.910   2.897   8.957  0.2282 -0.2347 -0.3981
  633MOL0     H83546   7.054   2.892   9.278  1.1286 -0.0640  2.2893
  633MOL0     H83547   7.174   3.005   9.303  1.0355 -0.9785 -1.0271
  633MOL0     H83548   7.280   2.963   9.093 -2.8761  1.0949 -0.9957
  633MOL0     H83549   7.295   2.823   9.213  2.5507  2.3726  0.6432
  633MOL0     H83550   7.259   2.784   8.956 -1.0630 -0.6540 -0.2278
  633MOL0     H83551   7.115   2.868   8.971 -0.7746  2.3688  1.8444
  633MOL0     H83552   7.185   2.582   9.069  0.7700 -0.9252  0.7352
  633MOL0     H83553   7.085   2.667   9.178 -0.2406 -3.1820 -0.4318
  633MOL0     H83554   6.791   2.554   8.906  2.7390 -1.5435 -2.5331
  633MOL0     H83555   6.879   3.173   9.293  2.3625  0.4452 -3.0113
  633MOL0     H83556   6.609   3.111   9.299 -0.6383  0.3924 -0.3234
  634MOL0     O83557   4.837   7.976   8.491 -0.2487 -0.0446  0.1626
  634MOL0     C83558   4.941   7.965   8.431  0.0743 -0.7513 -0.1242
  634MOL0     O83559   4.971   7.878   8.329  0.2648 -0.1826 -0.1397
  634MOL0     C83560   4.876   7.801   8.261  0.0302  0.7762  0.7505
  634MOL0     C83561   4.893   7.764   8.124  0.3373 -0.0034  0.5209
  634MOL0     C83562   4.822   7.665   8.053  0.5197 -1.2464  0.0293
  634MOL0     C83563   4.718   7.597   8.124  0.6055  0.1877  0.1395
  634MOL0     O83564   4.643   7.506   8.053 -0.1088 -0.1776 -0.0332
  634MOL0     C83565   4.522   7.449   8.109  0.5601  0.8931 -0.2692
  634MOL0     C83566   4.472   7.356   8.005  0.0978 -0.7952  0.3829
  634MOL0     C83567   4.353   7.412   7.923  0.1335 -0.4506  0.3053
  634MOL0     C83568   4.306   7.318   7.806  0.2590 -0.4941 -0.4266
  634MOL0     C83569   4.415   7.287   7.702  0.2862 -0.3757 -0.4044
  634MOL0     C83570   4.355   7.189   7.604 -0.4410 -0.5731  0.4983
  634MOL0     C83571   4.459   7.177   7.495  0.4485  0.1491 -1.2263
  634MOL0     C83572   4.408   7.064   7.398  0.3766 -0.1051  0.5291
  634MOL0     N83573   4.522   6.999   7.339  0.3910 -0.1871  0.5558
  634MOL0     C83574   4.607   6.911   7.402 -1.2884 -0.6243 -0.3323
  634MOL0     C83575   4.699   6.878   7.304 -0.3867  0.6183 -0.4959
  634MOL0     C83576   4.825   6.792   7.318 -0.1945  0.3714  0.2414
  634MOL0     C83577   4.817   6.655   7.251  0.1611  0.2642 -0.0658
  634MOL0     C83578   4.959   6.590   7.245 -0.8577  0.6530  0.3306
  634MOL0     C83579   4.960   6.436   7.258 -0.4849  0.3163  0.5224
  634MOL0     O83580   5.078   6.385   7.340  0.4261  0.1752  0.0093
  634MOL0     C83581   5.202   6.398   7.288  0.8457 -0.1333 -0.6665
  634MOL0     C83582   5.319   6.371   7.364  0.5594  0.2493 -0.7670
  634MOL0     C83583   5.446   6.367   7.306  0.3237  0.1108  0.1735
  634MOL0     C83584   5.466   6.398   7.175 -0.0013 -0.2383  0.7160
  634MOL0     C83585   5.598   6.417   7.106 -0.3324 -0.0695 -0.4477
  634MOL0     O83586   5.706   6.362   7.156  0.0852  0.0631 -0.3112
  634MOL0     C83587   5.817   6.372   7.070  0.0800  0.2059 -0.0734
  634MOL0     C83588   5.869   6.269   7.000 -0.4378  0.4487 -0.2663
  634MOL0     C83589   5.984   6.277   6.923 -0.1478  0.1939  0.0592
  634MOL0     C83590   6.050   6.402   6.911 -0.4424  0.0836  0.1355
  634MOL0     O83591   6.177   6.426   6.866 -0.4075 -0.2891 -0.0952
  634MOL0     C83592   6.228   6.316   6.790 -0.4889  0.5683 -0.5693
  634MOL0     C83593   6.359   6.357   6.731 -1.0421  0.0524  0.3468
  634MOL0     C83594   6.476   6.355   6.834 -0.2922 -0.0460 -1.1272
  634MOL0     C83595   6.610   6.389   6.772 -0.1212 -0.0096 -0.5866
  634MOL0     C83596   6.659   6.288   6.672 -0.0027  0.0794 -0.1859
  634MOL0     C83597   6.795   6.338   6.615  0.0376 -0.3653 -0.0898
  634MOL0     C83598   6.835   6.257   6.485  0.1483 -0.9313 -0.5253
  634MOL0     C83599   6.885   6.115   6.506 -0.0988  0.6739 -0.0428
  634MOL0    Cl83600   6.920   6.065   6.342 -0.0452  0.6457  0.2282
  634MOL0     C83601   5.987   6.514   6.968 -0.5136 -0.3153  0.2931
  634MOL0     C83602   5.876   6.499   7.039 -0.0153 -0.7695  0.4250
  634MOL0     O83603   5.593   6.484   7.002 -1.0736 -0.5079  0.0653
  634MOL0     C83604   5.357   6.426   7.098  0.9169 -0.0089 -0.4472
  634MOL0     C83605   5.230   6.423   7.148 -0.0516  0.6006  0.3869
  634MOL0     N83606   4.644   6.921   7.180  0.3869 -0.1115 -0.5158
  634MOL0     N83607   4.548   7.004   7.210 -0.4551 -0.5076  0.0621
  634MOL0     C83608   4.693   7.627   8.257  0.3905  0.0888  0.7414
  634MOL0     C83609   4.768   7.729   8.327  0.9948  0.5092  0.3707
  634MOL0     C83610   5.039   8.063   8.487  0.3899  1.0403  0.0292
  634MOL0     C83611   5.167   8.050   8.429 -0.0703 -0.0582  0.2067
  634MOL0     C83612   5.268   8.136   8.460  0.9297  0.6640 -0.1314
  634MOL0     C83613   5.242   8.236   8.549 -0.2229  0.4654 -1.1161
  634MOL0     O83614   5.331   8.333   8.589 -0.3270 -0.7805 -0.3812
  634MOL0     C83615   5.450   8.339   8.510 -0.2854 -0.1340 -0.5467
  634MOL0     C83616   5.522   8.472   8.549 -0.4448  0.4080 -0.1370
  634MOL0     C83617   5.445   8.594   8.512  0.1475 -0.0984  0.3992
  634MOL0     C83618   5.342   8.642   8.614 -0.5489  0.2880  0.5569
  634MOL0     C83619   5.283   8.765   8.570  0.1480  0.1149  0.3394
  634MOL0     C83620   5.245   8.876   8.522 -0.1589 -0.4364 -0.3331
  634MOL0     C83621   5.113   8.251   8.603 -0.8877  0.3265 -0.4234
  634MOL0     C83622   5.010   8.164   8.578  0.1626  0.7529 -0.2199
  634MOL0     H83623   4.967   7.829   8.079 -2.1661  3.9651  1.6315
  634MOL0     H83624   4.850   7.634   7.952 -1.3287  2.5654 -1.8704
  634MOL0     H83625   4.458   7.534   8.133 -0.6755 -0.9671  3.9965
  634MOL0     H83626   4.547   7.405   8.206 -1.0810 -0.4235 -0.4025
  634MOL0     H83627   4.450   7.261   8.055  0.5072  0.3951  2.9795
  634MOL0     H83628   4.548   7.326   7.931 -2.6568  0.9105 -3.4956
  634MOL0     H83629   4.393   7.505   7.882  1.5523 -1.1212  0.1110
  634MOL0     H83630   4.263   7.439   7.980 -0.6883  1.2749 -1.6904
  634MOL0     H83631   4.260   7.227   7.846 -2.8335  0.3428 -1.7779
  634MOL0     H83632   4.226   7.373   7.756 -0.5495 -1.3307 -0.0819
  634MOL0     H83633   4.505   7.237   7.740 -0.8392 -2.8278 -0.7480
  634MOL0     H83634   4.467   7.367   7.649  2.5965 -1.6255 -0.1748
  634MOL0     H83635   4.264   7.224   7.553 -0.7467 -3.5323 -1.2554
  634MOL0     H83636   4.329   7.091   7.646  0.9291 -2.0394 -1.8190
  634MOL0     H83637   4.472   7.266   7.432 -1.9629  0.8532 -0.8156
  634MOL0     H83638   4.553   7.152   7.544  0.5827  0.7983 -1.1359
  634MOL0     H83639   4.341   7.109   7.323  0.0795 -1.3564  0.0079
  634MOL0     H83640   4.347   6.986   7.446 -2.1487  1.6462  0.3889
  634MOL0     H83641   4.603   6.878   7.506  1.1873 -1.4818 -0.4646
  634MOL0     H83642   4.856   6.784   7.423  1.0340  0.2338 -0.1130
  634MOL0     H83643   4.909   6.848   7.275  2.8090 -1.2502  3.5178
  634MOL0     H83644   4.788   6.671   7.147  0.6575 -0.3680 -0.3093
  634MOL0     H83645   4.757   6.589   7.314  1.4264  1.0883  2.1138
  634MOL0     H83646   5.004   6.621   7.150  1.0812 -2.1275  0.2018
  634MOL0     H83647   5.021   6.637   7.322 -0.7459  2.0144 -0.5418
  634MOL0     H83648   4.968   6.386   7.161 -0.9700  0.3921  0.4384
  634MOL0     H83649   4.874   6.390   7.308  0.4388 -3.2513 -0.8262
  634MOL0     H83650   5.307   6.352   7.470  0.9874  1.4494 -0.4852
  634MOL0     H83651   5.542   6.353   7.355  0.5959 -0.5883 -0.5298
  634MOL0     H83652   5.815   6.175   7.012  1.0031 -0.3560  0.1420
  634MOL0     H83653   6.032   6.192   6.875 -0.2203  0.2949 -0.1937
  634MOL0     H83654   6.150   6.278   6.723 -2.2647  1.6126  0.8272
  634MOL0     H83655   6.262   6.241   6.863 -2.4983 -1.3605 -1.4887
  634MOL0     H83656   6.351   6.455   6.682  0.2864  0.0529  0.1068
  634MOL0     H83657   6.387   6.283   6.656 -0.3587  1.4844 -0.8653
  634MOL0     H83658   6.488   6.255   6.875 -2.5143 -0.0427 -0.3603
  634MOL0     H83659   6.436   6.430   6.904 -1.1333 -1.1448 -0.3952
  634MOL0     H83660   6.602   6.493   6.740  0.6971  0.1886 -0.1734
  634MOL0     H83661   6.687   6.399   6.849 -0.3062 -1.8092 -0.1117
  634MOL0     H83662   6.582   6.284   6.593 -0.5409 -2.3879  0.3929
  634MOL0     H83663   6.672   6.188   6.714 -0.2185  0.2867  0.3787
  634MOL0     H83664   6.879   6.336   6.684  2.1977  1.3198 -2.4834
  634MOL0     H83665   6.791   6.441   6.579 -2.1669  0.0787  1.2327
  634MOL0     H83666   6.747   6.262   6.421 -2.5591  0.3880  3.0154
  634MOL0     H83667   6.909   6.317   6.431 -1.6906  0.9654 -1.0547
  634MOL0     H83668   6.802   6.055   6.543 -0.9903  1.0391 -1.3481
  634MOL0     H83669   6.974   6.112   6.569 -0.7281  1.3477  0.8978
  634MOL0     H83670   6.027   6.612   6.942  1.7707 -1.1244  0.4864
  634MOL0     H83671   5.823   6.584   7.081  0.2799 -0.5063  0.2642
  634MOL0     H83672   5.358   6.461   6.995  0.2527  1.0675 -0.1060
  634MOL0     H83673   5.160   6.437   7.067  2.1365 -0.2740 -1.7943
  634MOL0     H83674   4.618   7.576   8.315  0.0382  0.2657  0.4461
  634MOL0     H83675   4.731   7.735   8.429 -1.0753 -1.3548 -0.1969
  634MOL0     H83676   5.196   7.973   8.358 -1.6537 -1.4497  0.9861
  634MOL0     H83677   5.368   8.134   8.420  0.8123  2.1868 -0.5579
  634MOL0     H83678   5.438   8.330   8.401  1.9959 -1.4146 -0.7586
  634MOL0     H83679   5.505   8.247   8.530 -3.0607 -2.7810 -3.8284
  634MOL0     H83680   5.550   8.472   8.655  2.1876 -1.3838 -0.7278
  634MOL0     H83681   5.616   8.474   8.492 -1.2605  1.7869 -1.4809
  634MOL0     H83682   5.395   8.574   8.416 -4.1175  0.4127  2.2514
  634MOL0     H83683   5.522   8.670   8.501  0.8357 -0.2744  3.3224
  634MOL0     H83684   5.264   8.570   8.641  0.8110 -0.5235  2.5041
  634MOL0     H83685   5.402   8.657   8.704  1.1777 -0.0002 -0.5065
  634MOL0     H83686   5.195   8.970   8.506 -1.1624 -0.6282  1.3914
  634MOL0     H83687   5.090   8.342   8.657  0.1744 -0.4023  1.3172
  634MOL0     H83688   4.905   8.179   8.602  1.0915  4.9437  2.1630
  635MOL0     O83689   2.834   3.665   3.282 -0.4398 -0.3728 -1.0065
  635MOL0     C83690   2.719   3.616   3.279 -0.3764  0.5641  0.5980
  635MOL0     O83691   2.688   3.491   3.229 -0.4488  0.1493 -0.1337
  635MOL0     C83692   2.789   3.407   3.196  0.5601 -1.0706  0.4133
  635MOL0     C83693   2.779   3.347   3.076  0.7625 -0.4002  0.2694
  635MOL0     C83694   2.875   3.244   3.042  0.3192  0.2830 -0.3859
  635MOL0     C83695   2.959   3.196   3.148  0.9084 -0.5847  1.0001
  635MOL0     O83696   3.048   3.099   3.124  0.0373  0.5648  0.5882
  635MOL0     C83697   3.042   2.972   3.196  0.2350  0.0883  0.1182
  635MOL0     C83698   3.181   2.901   3.200 -0.4317  0.0464 -0.1361
  635MOL0     C83699   3.283   2.982   3.278 -0.8471 -0.4343 -0.5443
  635MOL0     C83700   3.363   2.900   3.374  0.0919 -0.1345  0.2992
  635MOL0     C83701   3.502   2.950   3.418  0.1903  0.0245 -0.2428
  635MOL0     C83702   3.591   2.851   3.505  0.5328  0.7992  0.7161
  635MOL0     C83703   3.730   2.897   3.529  0.5955  0.7109 -0.2153
  635MOL0     C83704   3.821   2.877   3.401 -0.2027 -0.6254  0.2960
  635MOL0     N83705   3.904   2.750   3.409  0.6516  0.9296 -0.2543
  635MOL0     C83706   4.010   2.735   3.496 -0.5330 -0.4883  0.1267
  635MOL0     C83707   4.090   2.638   3.440  0.0149  0.2847  0.2717
  635MOL0     C83708   4.209   2.572   3.509  0.6638 -0.6359 -0.0766
  635MOL0     C83709   4.315   2.680   3.527 -0.5245 -0.2163  0.0479
  635MOL0     C83710   4.435   2.626   3.602 -0.0506  0.0206 -0.5927
  635MOL0     C83711   4.412   2.575   3.745  0.1290  0.5604 -0.1821
  635MOL0     O83712   4.331   2.459   3.760 -0.1864  0.4473  0.4864
  635MOL0     C83713   4.378   2.340   3.713  1.3412  0.6894  0.7127
  635MOL0     C83714   4.288   2.231   3.730  0.0141 -0.0911 -1.2361
  635MOL0     C83715   4.329   2.094   3.703 -0.3187  0.5568 -0.9718
  635MOL0     C83716   4.463   2.069   3.658  0.1684 -0.2361  1.6519
  635MOL0     C83717   4.506   1.934   3.613 -0.2938 -1.5975 -0.3122
  635MOL0     O83718   4.613   1.920   3.534  0.0288 -0.5900  0.8105
  635MOL0     C83719   4.621   1.802   3.464 -0.9999  0.8429  0.1398
  635MOL0     C83720   4.538   1.781   3.357  0.3414  0.4093 -0.4869
  635MOL0     C83721   4.547   1.671   3.274 -0.1754  0.8513  0.4281
  635MOL0     C83722   4.643   1.568   3.301  0.1332 -0.0889  0.7207
  635MOL0     O83723   4.649   1.451   3.230 -0.0504  0.1795 -0.3047
  635MOL0     C83724   4.569   1.422   3.117  0.4059  0.1129 -0.0022
  635MOL0     C83725   4.572   1.277   3.098 -0.9354  0.3343  0.8763
  635MOL0     C83726   4.696   1.231   3.022  0.3913 -0.0300 -0.4990
  635MOL0     C83727   4.669   1.086   2.967 -0.7669 -0.0238 -1.8359
  635MOL0     C83728   4.795   1.024   2.905 -0.0349  0.4650 -0.0119
  635MOL0     C83729   4.776   0.868   2.905 -0.3100  0.4102 -0.3774
  635MOL0     C83730   4.645   0.819   2.850 -1.1899  0.3203 -0.0181
  635MOL0     C83731   4.637   0.679   2.817 -0.5528  0.7082  0.2948
  635MOL0    Cl83732   4.755   0.637   2.689 -0.3614  0.1210 -0.3010
  635MOL0     C83733   4.730   1.586   3.410 -0.4264  0.2065  0.2842
  635MOL0     C83734   4.716   1.702   3.486  0.2229 -0.1118  0.2956
  635MOL0     O83735   4.445   1.844   3.661 -0.1889 -0.1534  0.4266
  635MOL0     C83736   4.547   2.178   3.635  0.1521 -0.0544  0.0601
  635MOL0     C83737   4.505   2.310   3.660 -0.4556  0.3171 -0.8089
  635MOL0     N83738   4.030   2.594   3.325 -0.5061  0.3473 -0.0825
  635MOL0     N83739   3.918   2.661   3.303 -0.1191 -0.6196 -0.4802
  635MOL0     C83740   2.959   3.258   3.271  0.5407 -0.6180 -0.0672
  635MOL0     C83741   2.876   3.356   3.300  0.7829 -0.1947  0.2179
  635MOL0     C83742   2.603   3.708   3.296  0.0777  0.1033  0.4486
  635MOL0     C83743   2.609   3.809   3.390 -0.0114  0.2263 -0.0680
  635MOL0     C83744   2.513   3.892   3.416  0.1717 -0.1354  0.6139
  635MOL0     C83745   2.383   3.875   3.355  0.7788 -0.4425  1.0214
  635MOL0     O83746   2.293   3.969   3.401  0.5518 -0.4014  0.7454
  635MOL0     C83747   2.155   3.948   3.358 -0.1547  0.6203  0.9636
  635MOL0     C83748   2.078   3.833   3.435 -0.2442  0.5779  0.6601
  635MOL0     C83749   2.054   3.843   3.589 -0.1712 -0.5461  0.3987
  635MOL0     C83750   2.161   3.792   3.680  0.6393 -0.8774  1.1361
  635MOL0     C83751   2.209   3.658   3.673 -0.0979 -0.2052  0.3036
  635MOL0     C83752   2.252   3.546   3.670 -0.2371 -0.0668  0.6867
  635MOL0     C83753   2.367   3.771   3.266  1.0429  0.3027  0.4776
  635MOL0     C83754   2.478   3.692   3.228  0.6944 -0.1105 -0.6900
  635MOL0     H83755   2.715   3.377   2.994  1.2379  1.3384  0.5015
  635MOL0     H83756   2.872   3.187   2.950 -1.2654  0.0221 -0.2008
  635MOL0     H83757   2.966   2.907   3.152  2.3569 -1.8232 -0.9785
  635MOL0     H83758   3.003   2.986   3.297 -0.3545  1.9961 -0.3269
  635MOL0     H83759   3.226   2.890   3.100 -0.5350 -0.7330 -0.1006
  635MOL0     H83760   3.149   2.806   3.242 -3.0496  1.5009  1.4197
  635MOL0     H83761   3.239   3.062   3.337  1.6885 -0.6338  1.8413
  635MOL0     H83762   3.348   3.039   3.210 -0.4158  0.6314  0.7251
  635MOL0     H83763   3.314   2.904   3.472 -0.7234  2.6281 -0.1291
  635MOL0     H83764   3.364   2.799   3.335 -1.4002  0.1449 -0.5238
  635MOL0     H83765   3.492   3.046   3.471 -2.0070 -0.0711 -0.4113
  635MOL0     H83766   3.554   2.977   3.326  0.9500 -0.2930  0.0806
  635MOL0     H83767   3.589   2.751   3.461  0.7724  1.5804 -1.1746
  635MOL0     H83768   3.548   2.834   3.604 -1.2365  1.7960  0.1722
  635MOL0     H83769   3.731   2.997   3.573 -2.0705  1.8012 -2.3376
  635MOL0     H83770   3.766   2.828   3.606  0.1520 -1.5556 -1.9481
  635MOL0     H83771   3.885   2.965   3.414 -1.5964  0.2413  1.6218
  635MOL0     H83772   3.762   2.883   3.310  2.4623 -5.0238 -2.0940
  635MOL0     H83773   4.026   2.794   3.586 -0.8572 -1.7823  1.0617
  635MOL0     H83774   4.235   2.478   3.461  0.5095 -1.2649  1.0463
  635MOL0     H83775   4.172   2.546   3.609  0.2969 -2.1037 -0.5824
  635MOL0     H83776   4.292   2.762   3.595  0.3566 -2.2793  3.0493
  635MOL0     H83777   4.358   2.712   3.431  0.0506 -2.2730 -0.4437
  635MOL0     H83778   4.473   2.551   3.532  0.7004  3.2044 -3.9163
  635MOL0     H83779   4.501   2.712   3.607 -1.7369  1.5171 -2.3190
  635MOL0     H83780   4.367   2.659   3.798  0.7915  0.4527  0.5661
  635MOL0     H83781   4.509   2.556   3.790  1.0281  1.1940 -1.7614
  635MOL0     H83782   4.190   2.247   3.775 -2.6909 -3.9968 -4.8836
  635MOL0     H83783   4.271   2.003   3.714 -0.7335  0.5743 -2.8125
  635MOL0     H83784   4.459   1.856   3.349 -1.2307 -0.8161  2.2138
  635MOL0     H83785   4.478   1.662   3.191 -0.1307 -1.0271  0.5541
  635MOL0     H83786   4.611   1.477   3.032  0.0310 -3.1454 -2.4853
  635MOL0     H83787   4.465   1.456   3.124  0.6000  0.7827 -0.2996
  635MOL0     H83788   4.494   1.251   3.026 -0.0129 -0.7347  0.2165
  635MOL0     H83789   4.571   1.233   3.198  0.9917  0.6622  1.0875
  635MOL0     H83790   4.778   1.246   3.093 -0.6571  0.5646  0.6339
  635MOL0     H83791   4.706   1.300   2.937  2.6922  4.5274  2.9861
  635MOL0     H83792   4.640   1.019   3.049  1.0980 -3.2454 -3.6716
  635MOL0     H83793   4.589   1.096   2.893 -0.9531  1.5251 -1.4775
  635MOL0     H83794   4.889   1.031   2.960  0.4303 -4.3693  0.1923
  635MOL0     H83795   4.806   1.055   2.800  3.4917  1.9478  0.6430
  635MOL0     H83796   4.778   0.836   3.010  3.2611  3.2854  0.6322
  635MOL0     H83797   4.860   0.826   2.850 -0.8673 -0.4578 -0.5920
  635MOL0     H83798   4.570   0.848   2.924  0.5227  2.9021  0.8118
  635MOL0     H83799   4.611   0.872   2.760  1.1175  1.6840 -0.1693
  635MOL0     H83800   4.539   0.641   2.791 -0.7413 -0.0229  1.9854
  635MOL0     H83801   4.669   0.628   2.908 -1.2321 -2.0080 -0.9115
  635MOL0     H83802   4.806   1.515   3.441  1.6427  1.6676 -1.2019
  635MOL0     H83803   4.784   1.709   3.571  1.5410 -0.9028 -0.6498
  635MOL0     H83804   4.647   2.181   3.592 -0.8266  1.0175 -2.3322
  635MOL0     H83805   4.587   2.381   3.662  1.0171 -1.3380 -0.0838
  635MOL0     H83806   3.035   3.237   3.346 -0.4460 -1.8001  0.6424
  635MOL0     H83807   2.863   3.402   3.398 -0.5338  1.2639 -0.6027
  635MOL0     H83808   2.705   3.819   3.439  0.3893 -2.4495 -0.1428
  635MOL0     H83809   2.515   3.975   3.486  1.9912  1.6776 -1.4213
  635MOL0     H83810   2.146   3.929   3.251 -1.2883  0.0275  1.1511
  635MOL0     H83811   2.089   4.033   3.376 -2.8050 -1.1158  0.0318
  635MOL0     H83812   1.979   3.826   3.387 -0.2258  0.5913  0.6203
  635MOL0     H83813   2.135   3.741   3.424 -5.3888 -3.0961  0.8897
  635MOL0     H83814   1.965   3.779   3.599  0.6313 -2.0923 -1.6555
  635MOL0     H83815   2.029   3.944   3.621 -1.2325 -1.0963  1.3747
  635MOL0     H83816   2.251   3.854   3.677  0.3317 -0.3991 -2.5284
  635MOL0     H83817   2.117   3.788   3.780 -2.4769 -4.3069 -0.1458
  635MOL0     H83818   2.282   3.443   3.661  2.5669  0.8579 -2.3799
  635MOL0     H83819   2.268   3.757   3.223  1.5393  2.2377 -1.4815
  635MOL0     H83820   2.468   3.610   3.157  0.0442 -0.2936 -0.3924
  636MOL0     O83821  10.772   7.393   3.431 -0.5304 -1.0103 -0.1123
  636MOL0     C83822  10.873   7.369   3.497 -0.7305  0.2798 -0.3268
  636MOL0     O83823  10.876   7.328   3.629 -0.2260  0.6163  0.3931
  636MOL0     C83824  10.765   7.305   3.691  0.1343 -0.2455 -0.1742
  636MOL0     C83825  10.715   7.393   3.783  0.8227 -0.4443 -1.0263
  636MOL0     C83826  10.590   7.386   3.860 -0.8200 -0.2394 -0.2519
  636MOL0     C83827  10.516   7.271   3.837 -0.4835  0.7691  0.5177
  636MOL0     O83828  10.407   7.247   3.903  0.7434 -0.8480  0.4692
  636MOL0     C83829  10.402   7.272   4.045 -0.7431  1.4071  0.0262
  636MOL0     C83830  10.288   7.190   4.115  0.5100 -0.4792 -0.1155
  636MOL0     C83831  10.149   7.256   4.080 -0.4951 -0.4268 -0.2137
  636MOL0     C83832  10.025   7.168   4.116 -1.0731  0.1643 -0.2315
  636MOL0     C83833   9.943   7.201   4.240 -0.3234  0.0640  0.0123
  636MOL0     C83834   9.852   7.328   4.215  0.0210 -0.1328 -0.0337
  636MOL0     C83835   9.798   7.367   4.347  0.1627 -0.1654  0.6247
  636MOL0     C83836   9.645   7.384   4.355  0.4342  0.5043 -0.1325
  636MOL0     N83837   9.589   7.247   4.358 -0.3514 -0.2409 -0.1714
  636MOL0     C83838   9.542   7.179   4.475  0.3471 -0.0570  1.2187
  636MOL0     C83839   9.500   7.055   4.425 -0.4223 -0.4523  0.5286
  636MOL0     C83840   9.436   6.953   4.516  0.4637 -0.6860 -0.0542
  636MOL0     C83841   9.287   7.003   4.554 -0.1388 -0.2292  0.5469
  636MOL0     C83842   9.198   6.871   4.547 -0.2330  0.2696  0.4218
  636MOL0     C83843   9.060   6.877   4.613  0.6628  0.0362 -0.1402
  636MOL0     O83844   8.975   6.962   4.537  0.2313  0.0012  0.4765
  636MOL0     C83845   8.841   6.967   4.573  2.0261 -0.1023  0.0508
  636MOL0     C83846   8.794   6.953   4.709  0.2119 -0.4596 -0.7850
  636MOL0     C83847   8.664   6.963   4.747  1.0441  0.0525 -0.7319
  636MOL0     C83848   8.563   6.979   4.656 -0.5953 -0.1739 -0.2086
  636MOL0     C83849   8.412   6.992   4.684 -0.0666  0.9036 -0.3175
  636MOL0     O83850   8.361   7.099   4.623  1.2914  0.7565  0.2467
  636MOL0     C83851   8.230   7.129   4.649 -0.2005  0.6722 -0.0082
  636MOL0     C83852   8.204   7.250   4.723  0.1348  0.2561 -0.3216
  636MOL0     C83853   8.074   7.283   4.745 -0.1417 -0.8465  0.7267
  636MOL0     C83854   7.966   7.206   4.689 -0.6105  0.2057 -0.2170
  636MOL0     O83855   7.840   7.236   4.718  0.4285 -0.5053 -0.2065
  636MOL0     C83856   7.811   7.375   4.735  0.8818 -0.6434 -0.2757
  636MOL0     C83857   7.816   7.451   4.603 -0.0756  0.6441  0.0101
  636MOL0     C83858   7.761   7.591   4.639 -0.4247  0.4722 -0.5256
  636MOL0     C83859   7.859   7.675   4.711 -0.2914  0.8157 -0.3948
  636MOL0     C83860   7.816   7.822   4.717 -0.5953 -0.1223 -0.7002
  636MOL0     C83861   7.927   7.879   4.813  1.1218  0.6480  0.1406
  636MOL0     C83862   7.884   8.021   4.864  0.0638 -0.6486  0.7246
  636MOL0     C83863   7.956   8.101   4.973  0.1540  1.0245 -0.2612
  636MOL0    Cl83864   8.068   8.217   4.899 -0.1767 -0.5863 -0.2119
  636MOL0     C83865   7.993   7.081   4.625 -0.3835  0.2005  0.9198
  636MOL0     C83866   8.129   7.042   4.600 -0.0605 -0.0654  0.5698
  636MOL0     O83867   8.359   6.929   4.778  1.0020 -0.4452  0.6974
  636MOL0     C83868   8.597   6.983   4.517  0.2792 -0.1120 -0.7356
  636MOL0     C83869   8.740   6.987   4.475 -0.2973  0.3143  0.9602
  636MOL0     N83870   9.532   7.045   4.292 -0.0676  0.0587 -0.0126
  636MOL0     N83871   9.565   7.163   4.252 -0.0471  0.4310 -0.2545
  636MOL0     C83872  10.556   7.180   3.734 -0.1184  1.1889  0.3008
  636MOL0     C83873  10.685   7.190   3.668  0.8909 -0.5834 -0.3566
  636MOL0     C83874  11.000   7.391   3.438 -0.5447  0.4586  0.3163
  636MOL0     C83875  11.015   7.391   3.300 -1.0333 -0.9180  0.2041
  636MOL0     C83876  11.140   7.428   3.238 -0.1938 -0.0555  0.6027
  636MOL0     C83877  11.247   7.450   3.323  0.1221 -1.2264  0.4416
  636MOL0     O83878  11.379   7.466   3.292  0.1601  0.2823 -0.4509
  636MOL0     C83879  11.407   7.486   3.151  0.9853  0.7685  0.2979
  636MOL0     C83880  11.556   7.527   3.147 -0.6187  0.1597  0.2110
  636MOL0     C83881  11.663   7.417   3.186 -0.4267 -0.1426  0.3989
  636MOL0     C83882  11.793   7.432   3.109  0.4461 -0.3059  0.1482
  636MOL0     C83883  11.850   7.570   3.116  0.0213  0.2417  0.3111
  636MOL0     C83884  11.889   7.685   3.119 -0.0141  0.3175 -0.2605
  636MOL0     C83885  11.228   7.454   3.459  1.1451  0.1915 -0.6101
  636MOL0     C83886  11.110   7.413   3.514  0.8538  0.7248 -1.1136
  636MOL0     H83887  10.779   7.475   3.814  0.2063 -0.7531  1.2140
  636MOL0     H83888  10.557   7.458   3.933  2.3871  1.0158  0.1527
  636MOL0     H83889  10.388   7.380   4.059  0.0620  1.9821 -2.8019
  636MOL0     H83890  10.504   7.251   4.079  0.0902  2.8489 -1.4061
  636MOL0     H83891  10.296   7.188   4.224 -2.3061 -0.6322  0.1541
  636MOL0     H83892  10.286   7.086   4.081 -0.4670 -1.1800  1.9789
  636MOL0     H83893  10.155   7.275   3.972  2.9899  0.5934  0.0458
  636MOL0     H83894  10.131   7.352   4.128 -0.8270 -0.6752  0.1617
  636MOL0     H83895   9.949   7.171   4.038  1.9471  2.0806 -3.3905
  636MOL0     H83896  10.067   7.067   4.114 -0.0059  0.5926 -2.4715
  636MOL0     H83897  10.021   7.216   4.316 -0.8464 -0.5953  0.6994
  636MOL0     H83898   9.891   7.108   4.266  3.0572 -1.9123  0.3807
  636MOL0     H83899   9.777   7.300   4.140  1.6281 -1.1810 -1.3135
  636MOL0     H83900   9.908   7.413   4.175  0.8288  0.9294  3.0818
  636MOL0     H83901   9.829   7.295   4.423 -4.0068  0.4426  3.2372
  636MOL0     H83902   9.852   7.452   4.390  1.8562 -2.8314  4.3077
  636MOL0     H83903   9.605   7.442   4.271 -1.0142 -0.8614 -0.4278
  636MOL0     H83904   9.619   7.429   4.451  1.1554 -1.5594  1.0881
  636MOL0     H83905   9.524   7.215   4.576 -0.6053  1.1554  0.6476
  636MOL0     H83906   9.498   6.941   4.605  3.1763  3.3040 -1.1431
  636MOL0     H83907   9.426   6.857   4.463 -0.1346 -2.1781  2.5881
  636MOL0     H83908   9.253   7.086   4.491  4.2099  1.7103  0.3917
  636MOL0     H83909   9.305   7.048   4.652 -3.3493 -0.6576  1.4419
  636MOL0     H83910   9.184   6.851   4.440  3.4472 -3.1955  0.3517
  636MOL0     H83911   9.249   6.778   4.573 -0.2286  0.3084  0.5598
  636MOL0     H83912   9.075   6.914   4.715 -0.6498  0.0073  0.0748
  636MOL0     H83913   9.013   6.781   4.635  0.7784  0.1556  0.6544
  636MOL0     H83914   8.865   6.959   4.791 -0.0856 -2.9932 -0.2423
  636MOL0     H83915   8.629   6.946   4.848 -0.7340 -3.3040 -1.7412
  636MOL0     H83916   8.282   7.298   4.781  2.3571 -1.6250 -1.5820
  636MOL0     H83917   8.060   7.371   4.807 -4.1622 -2.5277  2.6064
  636MOL0     H83918   7.873   7.429   4.807 -0.6824  0.4150  0.3097
  636MOL0     H83919   7.714   7.391   4.782 -0.0001 -0.1237 -2.1669
  636MOL0     H83920   7.754   7.409   4.524 -0.8123  1.5041  0.1199
  636MOL0     H83921   7.915   7.456   4.556 -1.0466 -2.1275 -2.6060
  636MOL0     H83922   7.673   7.574   4.701 -1.4478  1.7767 -1.5696
  636MOL0     H83923   7.716   7.631   4.548 -1.8723  0.4018  0.1298
  636MOL0     H83924   7.868   7.631   4.810 -0.5981  1.0921 -0.2432
  636MOL0     H83925   7.950   7.660   4.652  0.0585  0.6336  0.1911
  636MOL0     H83926   7.716   7.824   4.762 -0.7315 -0.9682 -0.9491
  636MOL0     H83927   7.816   7.880   4.624 -1.0051  1.7328  0.4015
  636MOL0     H83928   8.019   7.888   4.754  0.2425  0.5324 -1.2841
  636MOL0     H83929   7.934   7.817   4.903 -0.9200 -1.1707 -0.8646
  636MOL0     H83930   7.875   8.084   4.775 -0.2619  0.7470  1.7229
  636MOL0     H83931   7.784   8.007   4.905 -0.9204 -1.0119 -1.6449
  636MOL0     H83932   8.001   8.045   5.056 -2.2807  1.2924  1.3580
  636MOL0     H83933   7.881   8.162   5.024 -0.2462 -1.0319  1.8252
  636MOL0     H83934   7.915   7.014   4.593  0.3855  0.2489 -1.1982
  636MOL0     H83935   8.150   6.949   4.549  1.7188 -0.6851  2.2919
  636MOL0     H83936   8.518   6.991   4.443  0.8071 -2.1554 -1.6011
  636MOL0     H83937   8.778   7.004   4.375  1.6418 -2.8389  1.0483
  636MOL0     H83938  10.500   7.091   3.707  0.6806 -0.0779  2.5995
  636MOL0     H83939  10.705   7.110   3.597 -0.4042 -0.2196 -1.1780
  636MOL0     H83940  10.927   7.366   3.241  0.3286  0.4809 -2.6106
  636MOL0     H83941  11.149   7.427   3.130 -2.9823 -0.7700  0.2830
  636MOL0     H83942  11.351   7.572   3.114 -0.1922 -0.6272 -1.2972
  636MOL0     H83943  11.400   7.400   3.085 -0.1730 -0.8091  2.3621
  636MOL0     H83944  11.571   7.554   3.042 -2.0790 -1.5838 -0.4876
  636MOL0     H83945  11.579   7.621   3.198  2.1271  0.6152 -1.6539
  636MOL0     H83946  11.627   7.316   3.165 -1.3250  0.1965  0.2457
  636MOL0     H83947  11.686   7.415   3.293 -3.5193  0.1010  1.1835
  636MOL0     H83948  11.863   7.350   3.122 -2.6932 -3.3575 -0.6708
  636MOL0     H83949  11.760   7.420   3.005 -1.7663 -0.1006  0.7741
  636MOL0     H83950  11.934   7.782   3.118  1.2814 -0.2646 -1.2157
  636MOL0     H83951  11.307   7.462   3.533  1.4359 -0.9852 -0.7709
  636MOL0     H83952  11.096   7.401   3.621  3.4550 -2.5253 -0.9896
  637MOL0     O83953   6.966   5.921   2.046  0.2570  0.4525 -0.3127
  637MOL0     C83954   6.917   5.887   1.939 -0.9591 -0.2430 -0.5420
  637MOL0     O83955   6.787   5.904   1.899  0.0361 -0.5543 -0.7869
  637MOL0     C83956   6.704   5.990   1.963  0.6337  0.6315 -1.2059
  637MOL0     C83957   6.752   6.109   2.022  1.0892 -0.7089 -0.5239
  637MOL0     C83958   6.661   6.173   2.106 -0.1038  0.3909 -0.0886
  637MOL0     C83959   6.522   6.148   2.115 -0.5537 -0.4503  0.1717
  637MOL0     O83960   6.439   6.238   2.176 -0.1632  0.4291  0.0292
  637MOL0     C83961   6.300   6.206   2.199  0.3994  0.4499  0.2756
  637MOL0     C83962   6.245   6.337   2.262 -0.5019 -0.3897  0.3788
  637MOL0     C83963   6.312   6.378   2.405 -0.8055  0.3809  0.1512
  637MOL0     C83964   6.235   6.492   2.467 -0.2294 -0.5144  0.2273
  637MOL0     C83965   6.303   6.553   2.590  1.1100 -0.1200  0.8980
  637MOL0     C83966   6.311   6.478   2.716  0.0966  0.2229 -0.7425
  637MOL0     C83967   6.339   6.567   2.838 -0.2398 -0.9004 -0.1901
  637MOL0     C83968   6.210   6.608   2.908  0.1522  0.2090 -0.9018
  637MOL0     N83969   6.222   6.661   3.046  0.0299  0.0143  0.2386
  637MOL0     C83970   6.328   6.638   3.135 -0.7886 -0.7362 -0.1411
  637MOL0     C83971   6.313   6.740   3.218 -0.1852 -0.8023 -0.0358
  637MOL0     C83972   6.395   6.750   3.353 -1.2424  0.3844  0.0523
  637MOL0     C83973   6.405   6.887   3.410  0.5545  0.2481  0.4080
  637MOL0     C83974   6.479   6.984   3.315 -0.6058 -0.3018  0.1775
  637MOL0     C83975   6.485   7.122   3.382 -0.1350 -0.1264  0.3278
  637MOL0     O83976   6.559   7.103   3.508 -0.1870 -0.8206 -0.0278
  637MOL0     C83977   6.567   7.219   3.585  0.1995 -0.8107 -0.4631
  637MOL0     C83978   6.457   7.250   3.662  0.1945  0.3464  0.2467
  637MOL0     C83979   6.467   7.361   3.747 -0.6237  0.2868  0.2402
  637MOL0     C83980   6.587   7.440   3.762 -0.4714  0.1001  0.6216
  637MOL0     C83981   6.600   7.552   3.858 -0.4139 -0.1010 -0.0085
  637MOL0     O83982   6.725   7.615   3.858  0.1024  0.7502 -0.3075
  637MOL0     C83983   6.752   7.713   3.951 -0.5851  0.7547 -0.2095
  637MOL0     C83984   6.710   7.845   3.937  0.0286 -0.3504 -0.7915
  637MOL0     C83985   6.747   7.933   4.038  0.1318 -0.4915 -0.1668
  637MOL0     C83986   6.811   7.892   4.157 -0.4155  0.4373 -0.3119
  637MOL0     O83987   6.833   7.988   4.248 -0.1319 -0.5214 -1.2528
  637MOL0     C83988   6.876   7.947   4.381  0.8246 -0.3974 -0.5376
  637MOL0     C83989   6.758   7.877   4.458 -0.2313 -0.6713  0.0776
  637MOL0     C83990   6.676   7.968   4.547  0.7236  0.2692  0.2688
  637MOL0     C83991   6.544   7.889   4.599  0.9418 -0.0826 -0.2177
  637MOL0     C83992   6.465   7.962   4.714 -0.5086 -0.2800  0.0942
  637MOL0     C83993   6.313   7.926   4.712 -0.9260  0.0113  0.1183
  637MOL0     C83994   6.253   7.999   4.828 -0.5362  0.1957  0.4681
  637MOL0     C83995   6.110   7.944   4.833  0.1387  0.0013  0.2996
  637MOL0    Cl83996   6.034   7.954   4.674  0.0519 -0.3189 -0.4485
  637MOL0     C83997   6.845   7.756   4.177 -0.5463  0.0707  0.6184
  637MOL0     C83998   6.819   7.672   4.067  0.2959  0.1604  0.0159
  637MOL0     O83999   6.502   7.567   3.930 -0.3274 -0.3769  0.8102
  637MOL0     C84000   6.695   7.398   3.668  0.2522  1.1395  0.0970
  637MOL0     C84001   6.678   7.297   3.581 -0.3279  0.6225  0.3268
  637MOL0     N84002   6.212   6.823   3.185  0.4323  0.3719  0.3441
  637MOL0     N84003   6.160   6.772   3.084  1.0631 -0.3493 -0.0770
  637MOL0     C84004   6.479   6.030   2.059  0.2364 -1.2647 -0.6007
  637MOL0     C84005   6.565   5.951   1.986 -0.2154  0.3736 -0.1984
  637MOL0     C84006   7.008   5.820   1.853 -0.9333  1.2474  0.4300
  637MOL0     C84007   6.961   5.731   1.759  0.0984  0.2352  1.2551
  637MOL0     C84008   7.037   5.659   1.666 -0.0459 -0.4809 -0.1704
  637MOL0     C84009   7.176   5.689   1.654  1.2454 -1.1295  0.2369
  637MOL0     O84010   7.244   5.625   1.550 -0.3216 -0.1486 -0.2698
  637MOL0     C84011   7.375   5.652   1.518  0.6797  0.7933 -0.3780
  637MOL0     C84012   7.480   5.550   1.576 -0.4487 -0.5346 -0.0419
  637MOL0     C84013   7.618   5.622   1.555 -0.8735  0.3236  0.9600
  637MOL0     C84014   7.678   5.692   1.680 -0.6332  0.3044 -0.9986
  637MOL0     C84015   7.825   5.703   1.652  0.6262  0.1337  0.0646
  637MOL0     C84016   7.944   5.704   1.635  0.0956  0.4574 -0.0103
  637MOL0     C84017   7.240   5.774   1.752 -0.2291 -0.4655 -0.3308
  637MOL0     C84018   7.151   5.830   1.848  0.8233  0.3378 -0.1469
  637MOL0     H84019   6.853   6.148   2.016  0.3454  1.1480 -1.8775
  637MOL0     H84020   6.696   6.262   2.158  0.5328  1.6730 -2.5596
  637MOL0     H84021   6.280   6.128   2.273  1.2402  1.1085  1.2176
  637MOL0     H84022   6.267   6.185   2.097  2.4320 -2.7397  0.1218
  637MOL0     H84023   6.139   6.325   2.284 -1.6729  4.9516 -0.9414
  637MOL0     H84024   6.262   6.427   2.202  3.8831 -0.8577  0.5731
  637MOL0     H84025   6.421   6.384   2.395 -0.9178 -1.2767 -3.9737
  637MOL0     H84026   6.303   6.290   2.470  2.3462 -0.9707 -1.0180
  637MOL0     H84027   6.226   6.573   2.394  3.6813  0.6462  0.8151
  637MOL0     H84028   6.136   6.464   2.504 -0.0042 -1.1777  0.3293
  637MOL0     H84029   6.251   6.642   2.625 -1.7596 -2.0799  1.9657
  637MOL0     H84030   6.403   6.586   2.561  0.9118 -0.2998 -0.0349
  637MOL0     H84031   6.402   6.420   2.698  2.2976  3.4190 -0.7841
  637MOL0     H84032   6.233   6.406   2.741  1.3972 -0.5389  1.4377
  637MOL0     H84033   6.409   6.518   2.906  0.8804  1.6325  0.5948
  637MOL0     H84034   6.389   6.662   2.814 -0.5914 -0.7248 -0.2351
  637MOL0     H84035   6.148   6.517   2.912 -2.2521  1.7956  0.0976
  637MOL0     H84036   6.149   6.675   2.847 -0.2751  0.6284 -0.0325
  637MOL0     H84037   6.385   6.547   3.130  2.0592  0.8668  0.6854
  637MOL0     H84038   6.491   6.701   3.334 -1.8330 -0.0494 -2.0498
  637MOL0     H84039   6.345   6.696   3.434 -1.0240 -0.5826 -0.4313
  637MOL0     H84040   6.468   6.878   3.499 -1.2978  1.7713  1.9468
  637MOL0     H84041   6.308   6.931   3.433 -0.8624 -2.0874 -0.7312
  637MOL0     H84042   6.570   6.933   3.284 -0.9098 -2.0796  2.0129
  637MOL0     H84043   6.430   6.991   3.218  3.4117  1.2229 -1.9514
  637MOL0     H84044   6.386   7.166   3.397 -0.9106 -1.2735 -1.1424
  637MOL0     H84045   6.535   7.193   3.315  0.3813 -0.7954 -0.0119
  637MOL0     H84046   6.368   7.187   3.662  0.6036 -0.4646 -3.0790
  637MOL0     H84047   6.389   7.366   3.823  1.3206  0.4269  2.3443
  637MOL0     H84048   6.653   7.882   3.852 -0.2608  2.8278  0.6401
  637MOL0     H84049   6.730   8.038   4.019  3.0862  0.4271  1.6759
  637MOL0     H84050   6.907   8.038   4.432  2.1986 -1.1622  0.0467
  637MOL0     H84051   6.957   7.874   4.383  2.3986  1.1732 -2.6079
  637MOL0     H84052   6.802   7.799   4.522  0.1312  1.2710  2.3571
  637MOL0     H84053   6.692   7.827   4.386 -1.8551  1.4084  0.0516
  637MOL0     H84054   6.642   8.051   4.486 -0.0054 -0.2055  0.0136
  637MOL0     H84055   6.735   7.998   4.634 -0.5221 -4.7118  3.2798
  637MOL0     H84056   6.484   7.876   4.509 -3.3765 -3.8862  2.7689
  637MOL0     H84057   6.566   7.789   4.639  0.8059 -0.2708 -0.6165
  637MOL0     H84058   6.497   8.065   4.694 -1.7293  0.0568 -0.1732
  637MOL0     H84059   6.500   7.937   4.814 -4.0514 -2.0517  1.0436
  637MOL0     H84060   6.312   7.821   4.742 -0.0671 -0.6946 -2.0979
  637MOL0     H84061   6.272   7.938   4.611 -2.4767 -2.7840  0.3134
  637MOL0     H84062   6.309   7.989   4.922 -3.0940  1.5415  2.2623
  637MOL0     H84063   6.262   8.104   4.799  4.3604  0.2158  1.2291
  637MOL0     H84064   6.049   7.999   4.905 -1.8033 -1.9723  0.2527
  637MOL0     H84065   6.105   7.841   4.871  0.6941  0.6398  2.2149
  637MOL0     H84066   6.904   7.713   4.257 -1.0106  0.0461  0.9550
  637MOL0     H84067   6.842   7.566   4.073  0.0526  0.1755  2.3456
  637MOL0     H84068   6.793   7.445   3.670  1.5744 -1.2266 -2.2506
  637MOL0     H84069   6.746   7.256   3.507 -0.8536 -2.0165  1.1742
  637MOL0     H84070   6.377   5.993   2.062  0.0492 -0.6829  0.6815
  637MOL0     H84071   6.525   5.860   1.940 -0.4314  0.1227  0.4773
  637MOL0     H84072   6.859   5.694   1.773  1.6374 -3.3060  5.7653
  637MOL0     H84073   6.983   5.593   1.600 -1.8055  0.0378  0.6920
  637MOL0     H84074   7.410   5.749   1.555 -2.4651  1.3279  1.4961
  637MOL0     H84075   7.379   5.652   1.408  3.1762  1.2270 -0.3526
  637MOL0     H84076   7.461   5.528   1.681  2.9402  0.8637  1.0074
  637MOL0     H84077   7.484   5.458   1.516  0.3244  0.0347 -0.8864
  637MOL0     H84078   7.626   5.686   1.467  7.1127  1.7715  1.9840
  637MOL0     H84079   7.683   5.536   1.539 -0.8189  0.5913 -0.3502
  637MOL0     H84080   7.626   5.788   1.689 -4.5630 -1.7995  1.7538
  637MOL0     H84081   7.644   5.640   1.770 -0.3726  1.2435 -0.3454
  637MOL0     H84082   8.048   5.708   1.611 -0.5345  1.1941 -2.9932
  637MOL0     H84083   7.347   5.789   1.745  0.0725 -1.0139  2.1747
  637MOL0     H84084   7.209   5.902   1.904 -0.6910  4.3902 -3.2964
  638MOL0     O84085   4.939   0.884  10.702  0.1968  0.7227 -0.2854
  638MOL0     C84086   5.000   0.983  10.667  1.0177 -0.3276  0.9534
  638MOL0     O84087   4.946   1.106  10.649  0.0384 -0.1006  0.2235
  638MOL0     C84088   4.817   1.124  10.668  0.8546  1.0009 -0.0067
  638MOL0     C84089   4.792   1.221  10.763 -0.8143  0.0615  0.1422
  638MOL0     C84090   4.667   1.259  10.790  0.9474 -0.0220 -0.0778
  638MOL0     C84091   4.559   1.202  10.723  0.5145 -0.1007 -0.7250
  638MOL0     O84092   4.433   1.259  10.729 -0.0476  0.8528  0.6750
  638MOL0     C84093   4.383   1.194  10.849  0.3227 -0.9141  0.1770
  638MOL0     C84094   4.237   1.196  10.825 -0.0615  0.2490  0.3265
  638MOL0     C84095   4.178   1.331  10.846 -0.3218 -0.6843 -0.9191
  638MOL0     C84096   4.029   1.316  10.885 -0.6187 -0.1967 -0.8079
  638MOL0     C84097   3.970   1.451  10.925  0.0090  0.2206 -0.3983
  638MOL0     C84098   4.017   1.487  11.075 -0.1734  0.3728 -0.0374
  638MOL0     C84099   3.941   1.610  11.104 -0.4674 -0.2683 -0.4647
  638MOL0     C84100   3.968   1.663  11.244 -0.3106 -0.2978 -0.0107
  638MOL0     N84101   3.903   1.788  11.264  0.7354 -0.7066 -0.4032
  638MOL0     C84102   3.766   1.810  11.241 -0.3330  0.0189  0.2474
  638MOL0     C84103   3.752   1.937  11.282  0.2565 -0.6855  0.4889
  638MOL0     C84104   3.613   2.008  11.274  0.3501 -0.5195 -0.0495
  638MOL0     C84105   3.505   1.953  11.369 -0.2433 -0.7964  0.4983
  638MOL0     C84106   3.385   2.041  11.356  0.6768 -1.2228  0.7358
  638MOL0     C84107   3.256   1.999  11.433  0.0022 -0.1489 -0.0933
  638MOL0     O84108   3.189   1.891  11.358  0.1202  0.7088  0.4633
  638MOL0     C84109   3.075   1.832  11.404 -0.4479 -0.9235 -0.8593
  638MOL0     C84110   3.028   1.726  11.330  0.5500 -0.6065 -0.3545
  638MOL0     C84111   2.904   1.667  11.365 -0.3141  0.6362  0.7683
  638MOL0     C84112   2.829   1.710  11.473  0.2307  0.4476  0.0872
  638MOL0     C84113   2.696   1.653  11.506 -0.6456 -0.0619 -0.2386
  638MOL0     O84114   2.649   1.679  11.631  0.5702  0.3320  0.1388
  638MOL0     C84115   2.533   1.627  11.678 -0.0856 -0.2299  0.2623
  638MOL0     C84116   2.524   1.495  11.728 -0.4245 -0.5720  0.0745
  638MOL0     C84117   2.408   1.439  11.781 -0.3959  0.3063 -1.0585
  638MOL0     C84118   2.291   1.519  11.787 -0.8784 -0.0480 -0.9468
  638MOL0     O84119   2.186   1.454  11.840  0.6386 -0.6411  0.1398
  638MOL0     C84120   2.053   1.510  11.804 -0.1178 -0.4578  0.3546
  638MOL0     C84121   1.948   1.397  11.799 -0.1159  0.7898  0.3517
  638MOL0     C84122   1.988   1.298  11.687 -0.4356 -0.4186  0.4546
  638MOL0     C84123   1.980   1.344  11.540 -0.3357  0.6887 -0.0678
  638MOL0     C84124   1.944   1.236  11.436  0.4994 -0.5575 -0.7145
  638MOL0     C84125   2.039   1.116  11.435 -0.2728  0.0430  0.0345
  638MOL0     C84126   2.172   1.155  11.371 -0.4524 -0.8521  0.5102
  638MOL0     C84127   2.262   1.046  11.321  0.5931 -0.2924 -0.1199
  638MOL0    Cl84128   2.349   0.963  11.461  0.1601  0.1229  0.0770
  638MOL0     C84129   2.292   1.647  11.727  0.1602  0.4769 -0.4929
  638MOL0     C84130   2.413   1.704  11.670 -1.2444 -0.0342 -0.6090
  638MOL0     O84131   2.639   1.587  11.417 -0.0468  0.4295  0.3494
  638MOL0     C84132   2.881   1.823  11.545 -0.1311  0.8558  0.5703
  638MOL0     C84133   2.997   1.882  11.515 -0.5698  0.2010  0.7112
  638MOL0     N84134   3.869   1.992  11.330  0.1647  0.7528  0.0851
  638MOL0     N84135   3.957   1.896  11.324 -1.5712 -0.5620 -0.6988
  638MOL0     C84136   4.586   1.093  10.636  0.5021  0.8575  0.6592
  638MOL0     C84137   4.718   1.054  10.603  0.3404  0.3882 -0.7632
  638MOL0     C84138   5.135   0.965  10.617 -0.0648  0.3391  0.3877
  638MOL0     C84139   5.200   0.838  10.627 -0.3648  0.9248  0.4591
  638MOL0     C84140   5.323   0.805  10.570 -0.2837 -0.3296 -0.0863
  638MOL0     C84141   5.403   0.912  10.517  0.2907 -0.3295 -0.0966
  638MOL0     O84142   5.533   0.889  10.476  0.2657 -0.0932  0.3327
  638MOL0     C84143   5.633   0.996  10.451  0.4218  0.2136 -0.1169
  638MOL0     C84144   5.760   0.933  10.399  0.3293 -0.0614  0.1218
  638MOL0     C84145   5.887   1.032  10.399 -1.0592  0.1581 -0.6710
  638MOL0     C84146   6.020   0.950  10.410 -0.1757 -0.3990 -0.8422
  638MOL0     C84147   6.035   0.858  10.299 -0.0593 -0.4230 -0.2496
  638MOL0     C84148   6.036   0.787  10.198  0.1575  0.6205 -0.2542
  638MOL0     C84149   5.340   1.036  10.502 -0.0947 -0.2585  0.0739
  638MOL0     C84150   5.208   1.058  10.543 -0.8860 -0.7682 -0.4966
  638MOL0     H84151   4.884   1.262  10.805 -0.8272  3.7174 -2.8553
  638MOL0     H84152   4.661   1.347  10.853  1.5417 -1.4568  2.0876
  638MOL0     H84153   4.413   1.255  10.936  1.1926 -3.6257  1.9044
  638MOL0     H84154   4.423   1.094  10.865 -1.0033 -1.3248  1.1358
  638MOL0     H84155   4.196   1.127  10.900 -0.0182  0.1923  0.2978
  638MOL0     H84156   4.203   1.163  10.726  2.4932 -0.6796 -0.3067
  638MOL0     H84157   4.193   1.406  10.767  0.4859  0.5627  0.3745
  638MOL0     H84158   4.231   1.374  10.931  2.3648 -3.6434 -0.9155
  638MOL0     H84159   3.975   1.278  10.798 -2.1759  0.7594 -0.2965
  638MOL0     H84160   4.023   1.242  10.965 -1.1779 -0.2956 -0.9375
  638MOL0     H84161   3.861   1.460  10.918 -0.2684  0.8932  2.9378
  638MOL0     H84162   4.019   1.524  10.860 -0.7441  1.6322  0.5321
  638MOL0     H84163   4.124   1.499  11.094 -0.7500 -0.2318  4.7041
  638MOL0     H84164   3.995   1.411  11.150  2.9577 -1.0616 -0.4441
  638MOL0     H84165   3.952   1.683  11.023  1.5496  0.0657  0.0507
  638MOL0     H84166   3.834   1.592  11.092 -0.7391  1.1290 -0.3242
  638MOL0     H84167   4.072   1.670  11.277 -0.1190 -0.4924 -0.5541
  638MOL0     H84168   3.930   1.590  11.317  3.6920 -0.2559  2.3800
  638MOL0     H84169   3.700   1.732  11.205  0.4497 -1.2077  1.3776
  638MOL0     H84170   3.566   2.006  11.176 -3.1072  3.4314  1.1938
  638MOL0     H84171   3.633   2.111  11.303  0.9669 -0.8940  0.9174
  638MOL0     H84172   3.539   1.957  11.473  0.3498  0.2087  0.2732
  638MOL0     H84173   3.477   1.853  11.335 -1.2912  0.0908 -1.3938
  638MOL0     H84174   3.403   2.146  11.379 -1.2625 -1.0506  1.7162
  638MOL0     H84175   3.348   2.049  11.253  0.1079  1.7970  1.0784
  638MOL0     H84176   3.186   2.083  11.431  1.5688  1.3187  2.0196
  638MOL0     H84177   3.274   1.969  11.537 -0.0021 -2.4430 -0.6960
  638MOL0     H84178   3.078   1.680  11.246 -0.2664  1.2663 -1.9204
  638MOL0     H84179   2.879   1.586  11.298  1.7372 -0.0419  0.7543
  638MOL0     H84180   2.608   1.428  11.717 -2.4088 -3.2855  0.4975
  638MOL0     H84181   2.397   1.335  11.809  1.7836 -0.4470 -2.7062
  638MOL0     H84182   2.059   1.555  11.705  0.2883 -0.8674  0.1908
  638MOL0     H84183   2.033   1.584  11.882 -1.0783 -1.3810  1.0244
  638MOL0     H84184   1.849   1.436  11.773 -0.6453  0.9979  2.4827
  638MOL0     H84185   1.949   1.349  11.897  2.1428  1.5862  0.7663
  638MOL0     H84186   1.931   1.206  11.703  1.5723 -1.4517  2.0275
  638MOL0     H84187   2.089   1.262  11.706  0.9046  1.8431 -1.8284
  638MOL0     H84188   1.902   1.420  11.542 -2.1706 -1.1116  0.5679
  638MOL0     H84189   2.069   1.397  11.506 -0.0221 -0.6726 -1.4850
  638MOL0     H84190   1.928   1.277  11.336 -2.7293 -0.7433 -0.3815
  638MOL0     H84191   1.845   1.200  11.463 -0.3550  3.1057  1.7841
  638MOL0     H84192   1.995   1.044  11.366 -1.7083  1.3391 -0.4612
  638MOL0     H84193   2.049   1.068  11.532 -1.0506 -0.8223 -0.3021
  638MOL0     H84194   2.153   1.207  11.277 -3.6362 -3.1080 -0.2555
  638MOL0     H84195   2.230   1.223  11.433 -1.0810  0.1108  0.0664
  638MOL0     H84196   2.343   1.101  11.271  1.9954  0.2643  2.5968
  638MOL0     H84197   2.218   0.980  11.246  2.1644  0.6156 -1.9291
  638MOL0     H84198   2.206   1.709  11.747  0.4501  0.0826  2.3872
  638MOL0     H84199   2.430   1.799  11.621 -0.2986 -0.0448 -0.3203
  638MOL0     H84200   2.816   1.867  11.621  1.4606  1.0825  1.8424
  638MOL0     H84201   3.016   1.976  11.566  2.5843  0.5793 -0.9468
  638MOL0     H84202   4.510   1.054  10.570 -0.6541  1.6993  1.4457
  638MOL0     H84203   4.733   0.976  10.529 -0.5510 -1.6747  1.1075
  638MOL0     H84204   5.150   0.755  10.677  1.2194 -0.1949  0.2414
  638MOL0     H84205   5.370   0.707  10.573  1.8315  0.6371  1.3949
  638MOL0     H84206   5.645   1.035  10.553 -0.2641 -0.8705  0.3950
  638MOL0     H84207   5.590   1.071  10.384 -1.8171 -0.8367  0.0712
  638MOL0     H84208   5.778   0.848  10.466  0.5221 -0.9963 -1.0899
  638MOL0     H84209   5.747   0.904  10.295 -2.8696  3.0962 -0.5739
  638MOL0     H84210   5.895   1.097  10.487 -0.6597 -0.5748 -0.1569
  638MOL0     H84211   5.894   1.099  10.313 -0.0281  3.0696  1.5106
  638MOL0     H84212   6.111   1.011  10.409 -1.3514  1.4125 -1.7192
  638MOL0     H84213   6.034   0.890  10.501  1.0616 -1.0744 -1.4590
  638MOL0     H84214   6.035   0.722  10.113 -2.2345 -0.9452  0.8612
  638MOL0     H84215   5.388   1.113  10.443  0.9626 -1.7494 -1.0770
  638MOL0     H84216   5.152   1.148  10.521 -0.4023 -0.7341 -1.6525
  639MOL0     O84217   6.065   4.631   2.939 -0.4367  0.7004 -0.2675
  639MOL0     C84218   6.073   4.741   2.990 -1.2280  0.1913 -0.5712
  639MOL0     O84219   5.972   4.825   3.004  0.0874  0.5470  0.2909
  639MOL0     C84220   5.851   4.801   2.939 -1.0033 -0.4367  0.1989
  639MOL0     C84221   5.745   4.751   3.008  0.3212  0.8843 -0.2254
  639MOL0     C84222   5.618   4.735   2.950 -0.9595 -0.5444 -1.3647
  639MOL0     C84223   5.588   4.778   2.818 -0.0430 -1.0834 -0.8762
  639MOL0     O84224   5.457   4.773   2.784  0.7435  0.2656  0.6579
  639MOL0     C84225   5.411   4.902   2.732 -0.9727  0.4269  0.2956
  639MOL0     C84226   5.258   4.888   2.728  0.0052  0.3650 -0.0489
  639MOL0     C84227   5.198   5.007   2.653  0.7709 -0.3604 -0.3008
  639MOL0     C84228   5.057   5.009   2.699 -0.1637 -0.1005  0.8992
  639MOL0     C84229   4.963   5.103   2.623 -1.1048  0.7984  0.4711
  639MOL0     C84230   4.826   5.098   2.691  0.0486 -0.4555 -0.1537
  639MOL0     C84231   4.716   5.195   2.648  0.1091 -0.0889 -0.3610
  639MOL0     C84232   4.599   5.214   2.741 -0.0117 -0.6222  0.0816
  639MOL0     N84233   4.485   5.296   2.689 -0.6572  0.5855 -0.2814
  639MOL0     C84234   4.469   5.435   2.707  0.0433  0.1462 -0.3191
  639MOL0     C84235   4.367   5.476   2.637 -0.4375  0.1670  0.1182
  639MOL0     C84236   4.329   5.620   2.644 -0.4249 -0.3012  0.3491
  639MOL0     C84237   4.186   5.635   2.677 -0.0623 -0.1741 -0.1984
  639MOL0     C84238   4.095   5.618   2.552  1.1877  0.9277  0.2213
  639MOL0     C84239   3.946   5.584   2.585  0.3087  0.0496 -0.9744
  639MOL0     O84240   3.859   5.701   2.607  0.8171 -0.1546  0.0409
  639MOL0     C84241   3.785   5.747   2.504 -0.8830  0.1512  0.8834
  639MOL0     C84242   3.700   5.851   2.537 -0.9468 -0.4242 -0.0902
  639MOL0     C84243   3.624   5.909   2.436  0.5349 -0.5266 -0.1611
  639MOL0     C84244   3.640   5.870   2.304  0.5442 -0.2341 -0.0491
  639MOL0     C84245   3.559   5.941   2.203  0.6694  0.8780 -0.1980
  639MOL0     O84246   3.543   5.874   2.083  0.2698  0.3904 -0.1833
  639MOL0     C84247   3.453   5.913   1.984 -0.9410 -0.0543 -0.1608
  639MOL0     C84248   3.322   5.972   2.012  0.1167  0.3228 -0.5145
  639MOL0     C84249   3.222   5.979   1.915 -0.3384  0.0217  0.2451
  639MOL0     C84250   3.248   5.932   1.782  0.2755  0.2145  0.6138
  639MOL0     O84251   3.150   5.939   1.689 -0.2205 -0.5212  0.1621
  639MOL0     C84252   3.045   6.043   1.689  0.4357  0.1076 -0.1296
  639MOL0     C84253   2.964   6.020   1.564 -0.3367  0.2003  0.0731
  639MOL0     C84254   2.835   6.090   1.574  0.0285  0.0292  0.4535
  639MOL0     C84255   2.725   6.043   1.472  0.0654  0.3755 -0.1443
  639MOL0     C84256   2.597   6.123   1.497 -0.6479  0.2504 -0.4933
  639MOL0     C84257   2.490   6.080   1.398 -0.9553  1.2033 -0.7904
  639MOL0     C84258   2.383   6.185   1.394  0.3345 -0.1741 -1.1672
  639MOL0     C84259   2.275   6.185   1.279  0.3048  0.3125 -0.6695
  639MOL0    Cl84260   2.181   6.032   1.276 -0.4069  0.1925 -0.3595
  639MOL0     C84261   3.380   5.880   1.751  0.2391 -0.2591 -1.1339
  639MOL0     C84262   3.476   5.866   1.851 -0.2557  0.4391  0.4883
  639MOL0     O84263   3.537   6.066   2.221 -0.4853  0.3246  0.3220
  639MOL0     C84264   3.716   5.760   2.273 -0.3161  0.0316 -0.6688
  639MOL0     C84265   3.794   5.698   2.371 -0.1320 -0.8650 -0.1780
  639MOL0     N84266   4.325   5.361   2.573  0.3417 -0.3438  0.5577
  639MOL0     N84267   4.393   5.251   2.605  0.4255  0.3297  1.2328
  639MOL0     C84268   5.702   4.822   2.742 -0.0323 -0.0493 -0.1874
  639MOL0     C84269   5.825   4.845   2.806 -0.8532 -0.4235 -0.8339
  639MOL0     C84270   6.198   4.795   3.024 -0.4372  0.4604  0.1854
  639MOL0     C84271   6.315   4.725   2.995  0.7618 -0.7206 -0.3875
  639MOL0     C84272   6.447   4.760   3.048 -0.1497  0.3339  0.0597
  639MOL0     C84273   6.456   4.880   3.121 -0.3317  0.1464 -0.2863
  639MOL0     O84274   6.570   4.935   3.182  0.3003 -0.1859  0.5584
  639MOL0     C84275   6.702   4.878   3.173 -0.8674  1.0026  0.0377
  639MOL0     C84276   6.800   4.953   3.269  0.0841  0.2547 -0.8350
  639MOL0     C84277   6.935   4.903   3.247 -0.8393 -0.4483  0.0979
  639MOL0     C84278   7.034   5.013   3.310  0.6379  0.3046  0.6518
  639MOL0     C84279   7.172   4.990   3.277 -0.8155 -0.0688 -0.0544
  639MOL0     C84280   7.290   4.958   3.273  0.0858  0.5263  0.2048
  639MOL0     C84281   6.344   4.955   3.139 -0.6228 -0.8124 -0.0984
  639MOL0     C84282   6.213   4.911   3.100 -0.1587 -0.4198 -0.0879
  639MOL0     H84283   5.767   4.718   3.109 -0.5440  0.2927 -0.2130
  639MOL0     H84284   5.530   4.693   3.000 -0.8437 -1.9102 -2.2692
  639MOL0     H84285   5.456   4.927   2.636 -1.8860  0.6893 -0.0756
  639MOL0     H84286   5.434   4.981   2.804 -0.5463 -0.2321  0.8940
  639MOL0     H84287   5.218   4.883   2.830 -0.7851  0.5543 -0.3430
  639MOL0     H84288   5.230   4.794   2.679  0.2174  0.5170 -0.4674
  639MOL0     H84289   5.204   4.995   2.545  0.8021 -1.7444 -0.1570
  639MOL0     H84290   5.254   5.096   2.684  0.4771  0.1164 -1.1096
  639MOL0     H84291   5.017   4.908   2.700  2.2044 -1.1808 -0.9142
  639MOL0     H84292   5.060   5.025   2.807 -0.8805 -0.6361  0.9994
  639MOL0     H84293   4.947   5.076   2.519 -3.5044  1.3694  0.6195
  639MOL0     H84294   5.004   5.205   2.622  0.9259  0.0139 -0.0708
  639MOL0     H84295   4.826   5.108   2.800 -2.8143 -1.8196  0.0653
  639MOL0     H84296   4.789   4.998   2.670  3.4028 -1.1831 -3.5911
  639MOL0     H84297   4.766   5.292   2.643  0.0337 -0.0971 -2.0353
  639MOL0     H84298   4.697   5.163   2.545 -0.0563 -0.4915 -0.2083
  639MOL0     H84299   4.645   5.263   2.828 -0.5500  2.1902 -1.1061
  639MOL0     H84300   4.549   5.119   2.762  0.0747 -0.8531 -0.7293
  639MOL0     H84301   4.532   5.504   2.761 -1.0713  0.9406 -0.0078
  639MOL0     H84302   4.344   5.664   2.545 -2.5930 -0.9229 -0.3189
  639MOL0     H84303   4.385   5.680   2.716 -1.2604 -1.3442  1.9330
  639MOL0     H84304   4.172   5.724   2.738  1.9752 -2.1493  3.5776
  639MOL0     H84305   4.162   5.555   2.748  1.0820 -1.2780 -0.9880
  639MOL0     H84306   4.105   5.710   2.494 -1.2118 -0.1779 -2.1370
  639MOL0     H84307   4.123   5.528   2.496 -2.2625 -0.1530 -0.0037
  639MOL0     H84308   3.957   5.525   2.677  3.1460  1.6211 -0.1736
  639MOL0     H84309   3.904   5.525   2.503  1.0143  0.2723 -1.5050
  639MOL0     H84310   3.688   5.897   2.634  0.7604  1.0995 -0.5536
  639MOL0     H84311   3.555   5.987   2.467  0.1556 -1.8866  2.7683
  639MOL0     H84312   3.309   6.002   2.115 -1.1175  1.4435 -0.9736
  639MOL0     H84313   3.134   6.035   1.947  1.1101  2.1502  0.7187
  639MOL0     H84314   3.069   6.150   1.691 -4.0550  1.2876  1.1795
  639MOL0     H84315   2.993   6.029   1.784  1.1217  1.5665  0.4890
  639MOL0     H84316   2.951   5.912   1.549  4.2204 -0.3228 -1.6472
  639MOL0     H84317   3.017   6.056   1.475 -1.0292  0.6521 -0.1643
  639MOL0     H84318   2.848   6.197   1.555  0.4069 -0.1774 -0.5260
  639MOL0     H84319   2.794   6.076   1.675 -2.4856 -2.7392 -0.7953
  639MOL0     H84320   2.758   6.059   1.369 -0.3649  2.1781 -0.0482
  639MOL0     H84321   2.714   5.935   1.479  3.0082 -0.0316 -0.8261
  639MOL0     H84322   2.623   6.229   1.488  1.3930  0.1098  2.2482
  639MOL0     H84323   2.562   6.103   1.599 -0.3029  0.4643 -0.3300
  639MOL0     H84324   2.439   5.986   1.419  0.2850  0.1459 -2.2933
  639MOL0     H84325   2.539   6.077   1.300  0.0481  1.9585 -0.3296
  639MOL0     H84326   2.326   6.193   1.487  2.1703  0.2380 -0.0313
  639MOL0     H84327   2.436   6.279   1.381 -0.9744  0.9422  1.0480
  639MOL0     H84328   2.317   6.200   1.179 -0.0182 -0.8051 -0.9879
  639MOL0     H84329   2.204   6.265   1.301  0.9785  1.2367 -1.7982
  639MOL0     H84330   3.416   5.856   1.652 -0.2720 -3.8748 -0.5917
  639MOL0     H84331   3.572   5.821   1.827 -0.6438 -0.2828  0.2659
  639MOL0     H84332   3.726   5.735   2.168  1.6487 -1.9086 -0.0848
  639MOL0     H84333   3.861   5.628   2.322  1.7793  1.2143 -0.7021
  639MOL0     H84334   5.690   4.858   2.641  0.7970 -1.0791 -0.6718
  639MOL0     H84335   5.907   4.888   2.750 -0.4338  0.0087  0.0803
  639MOL0     H84336   6.308   4.635   2.935  1.1912 -0.6410 -0.5576
  639MOL0     H84337   6.544   4.713   3.045  1.1467  2.8278 -0.2915
  639MOL0     H84338   6.745   4.878   3.072 -0.5966  0.4946  0.1480
  639MOL0     H84339   6.690   4.774   3.205 -3.1623  0.7183 -1.4498
  639MOL0     H84340   6.799   5.061   3.256 -2.2682  0.9422  3.1115
  639MOL0     H84341   6.760   4.935   3.370  0.4793 -2.2853 -1.0490
  639MOL0     H84342   6.956   4.899   3.140 -0.6329  0.1641  0.1123
  639MOL0     H84343   6.943   4.801   3.287 -0.2565 -1.8871 -3.3907
  639MOL0     H84344   7.006   5.114   3.279 -2.2220 -0.4583  0.4513
  639MOL0     H84345   7.032   5.009   3.419 -1.2237  2.2496  0.7632
  639MOL0     H84346   7.388   4.916   3.270 -0.0902  0.0879  0.4254
  639MOL0     H84347   6.348   5.040   3.206 -0.2484  1.0509 -2.3360
  639MOL0     H84348   6.128   4.963   3.142 -0.2796 -1.9613  1.7130
  640MOL0     O84349   2.864   6.314   1.832  0.1454 -0.0368 -0.0723
  640MOL0     C84350   2.833   6.351   1.945 -0.3696 -0.4264  0.2597
  640MOL0     O84351   2.714   6.400   1.991 -0.2638  0.6532  0.8014
  640MOL0     C84352   2.611   6.441   1.915  1.3312  0.4147  0.4039
  640MOL0     C84353   2.573   6.386   1.786 -1.0506 -0.3508 -0.1876
  640MOL0     C84354   2.447   6.421   1.733 -0.3862 -0.2972  1.4349
  640MOL0     C84355   2.358   6.506   1.791 -0.2423  0.3379  0.5944
  640MOL0     O84356   2.234   6.542   1.736  0.1236  0.3181  0.1543
  640MOL0     C84357   2.170   6.451   1.646 -0.0457  0.6787  0.4937
  640MOL0     C84358   2.033   6.504   1.590  0.3965 -0.8752  0.1905
  640MOL0     C84359   1.931   6.512   1.695  0.3559 -0.0490 -0.2914
  640MOL0     C84360   1.794   6.527   1.616 -0.7552  0.9411  0.1164
  640MOL0     C84361   1.784   6.649   1.523  0.3051  0.6817  0.5088
  640MOL0     C84362   1.639   6.687   1.490 -0.9137  0.1311  0.2717
  640MOL0     C84363   1.633   6.805   1.392  0.5827  0.5782  0.2042
  640MOL0     C84364   1.662   6.941   1.463 -0.6359 -0.0123 -0.0965
  640MOL0     N84365   1.621   7.048   1.372  0.0605 -0.1678 -0.1313
  640MOL0     C84366   1.493   7.097   1.377  0.0106  0.1462  0.0359
  640MOL0     C84367   1.494   7.200   1.287 -0.2587 -0.6399 -0.3958
  640MOL0     C84368   1.389   7.304   1.258  0.3819  0.5587 -0.6301
  640MOL0     C84369   1.243   7.262   1.270  1.1267  0.1074 -0.0085
  640MOL0     C84370   1.152   7.383   1.243 -0.1382  0.3457  0.0732
  640MOL0     C84371   1.005   7.330   1.276 -0.2280  0.1824 -0.2952
  640MOL0     O84372   0.925   7.448   1.300 -0.5549 -0.4661  0.1780
  640MOL0     C84373   0.792   7.433   1.328 -1.0234 -0.3168  0.0175
  640MOL0     C84374   0.730   7.317   1.363  0.1377  0.8244 -0.1868
  640MOL0     C84375   0.591   7.306   1.383 -0.4312  1.0667 -0.0904
  640MOL0     C84376   0.513   7.419   1.378 -0.8846 -0.2995  0.0158
  640MOL0     C84377   0.367   7.420   1.387  0.0566 -0.1336 -0.4671
  640MOL0     O84378   0.295   7.508   1.313  0.8472 -0.6487  0.5749
  640MOL0     C84379   0.168   7.472   1.287 -0.4378 -0.0544  1.0865
  640MOL0     C84380   0.063   7.497   1.376 -0.2507 -0.6782  0.7974
  640MOL0     C84381  -0.070   7.462   1.346  1.3697  0.6950 -0.4523
  640MOL0     C84382  -0.097   7.393   1.221  0.3465 -0.3184 -0.3434
  640MOL0     O84383  -0.224   7.351   1.199  0.1036  0.4447  1.0130
  640MOL0     C84384  -0.228   7.237   1.113  0.7337  0.2248  0.3685
  640MOL0     C84385  -0.368   7.177   1.128  0.8168  0.4099 -0.2144
  640MOL0     C84386  -0.484   7.278   1.138  0.7945 -0.4543 -0.0302
  640MOL0     C84387  -0.620   7.213   1.118 -0.1665  0.4725 -0.3233
  640MOL0     C84388  -0.743   7.302   1.147  0.7532  0.6711 -0.6449
  640MOL0     C84389  -0.858   7.304   1.044  0.5944  0.3709  0.1041
  640MOL0     C84390  -0.819   7.338   0.903 -0.1037 -0.1604  1.4752
  640MOL0     C84391  -0.942   7.326   0.808  0.2572 -0.0376  0.1603
  640MOL0    Cl84392  -1.015   7.159   0.800  0.0608 -0.4775 -0.1575
  640MOL0     C84393   0.010   7.372   1.141 -0.8112  0.2468 -0.1566
  640MOL0     C84394   0.139   7.414   1.166 -0.2409  0.6635 -0.8219
  640MOL0     O84395   0.327   7.331   1.460  0.8356 -0.1761 -0.0749
  640MOL0     C84396   0.578   7.545   1.359  0.4710  1.1526  0.3422
  640MOL0     C84397   0.719   7.549   1.336  1.0555  1.0482 -0.1277
  640MOL0     N84398   1.621   7.213   1.236 -0.4674 -0.5709  0.1346
  640MOL0     N84399   1.694   7.122   1.288  0.3049  0.6161  0.0153
  640MOL0     C84400   2.398   6.569   1.909 -0.8587 -0.0109 -0.3593
  640MOL0     C84401   2.519   6.527   1.973  0.1120 -0.6642 -0.2273
  640MOL0     C84402   2.957   6.376   2.031 -0.0042  0.0718  0.8705
  640MOL0     C84403   2.927   6.431   2.152  0.2696  0.0878 -0.0290
  640MOL0     C84404   3.034   6.453   2.239  0.2282  0.9978 -0.6341
  640MOL0     C84405   3.165   6.428   2.195 -0.9130  0.9284  0.8049
  640MOL0     O84406   3.263   6.461   2.287  0.5759  0.1663  0.3096
  640MOL0     C84407   3.405   6.460   2.246  0.7633  0.0813  0.1782
  640MOL0     C84408   3.489   6.516   2.358 -0.3389 -0.5440 -0.7032
  640MOL0     C84409   3.635   6.544   2.318  0.4399 -0.3093  0.0533
  640MOL0     C84410   3.725   6.546   2.447 -0.4707  0.2981 -0.5370
  640MOL0     C84411   3.864   6.559   2.405  0.6521  0.2559  0.0390
  640MOL0     C84412   3.975   6.549   2.359  0.0987  0.0969  0.3890
  640MOL0     C84413   3.189   6.387   2.058  0.5576 -0.3586  0.1470
  640MOL0     C84414   3.080   6.358   1.976 -0.3805 -0.0616  0.0196
  640MOL0     H84415   2.638   6.317   1.733 -2.9919 -0.9117 -1.9772
  640MOL0     H84416   2.414   6.391   1.634  0.2065 -1.7559  1.6509
  640MOL0     H84417   2.159   6.358   1.702  1.3690  0.1187 -0.1165
  640MOL0     H84418   2.233   6.441   1.558 -0.0828 -2.1777  0.7026
  640MOL0     H84419   2.007   6.433   1.511 -0.1482 -0.2235 -0.2168
  640MOL0     H84420   2.047   6.602   1.544 -2.3232  0.9051  2.7979
  640MOL0     H84421   1.955   6.597   1.759 -0.7754  1.1888 -1.4408
  640MOL0     H84422   1.922   6.418   1.749 -5.3480 -0.5208 -1.4386
  640MOL0     H84423   1.794   6.442   1.548  0.3322  1.7972 -1.0141
  640MOL0     H84424   1.724   6.510   1.698  1.5967 -0.0864  2.0467
  640MOL0     H84425   1.843   6.638   1.432  0.2528  0.8414  0.4544
  640MOL0     H84426   1.833   6.734   1.572  3.3288 -0.4973 -0.2712
  640MOL0     H84427   1.591   6.721   1.582  1.8397  0.4201  1.7323
  640MOL0     H84428   1.583   6.601   1.453  0.8602 -1.0071  0.1142
  640MOL0     H84429   1.710   6.793   1.315 -0.9845 -0.9590 -1.2007
  640MOL0     H84430   1.531   6.803   1.352  0.4694  0.5128  0.4990
  640MOL0     H84431   1.766   6.961   1.490 -0.6513 -1.2633  0.9894
  640MOL0     H84432   1.600   6.956   1.551 -0.5193 -1.0394  0.1759
  640MOL0     H84433   1.405   7.057   1.426  2.1466 -0.4367  3.7245
  640MOL0     H84434   1.423   7.318   1.155 -1.4584  0.5885 -1.2707
  640MOL0     H84435   1.415   7.393   1.316 -0.8187  1.7871 -1.9173
  640MOL0     H84436   1.226   7.229   1.373  1.4675  2.7614  0.9929
  640MOL0     H84437   1.219   7.183   1.199  1.9151 -1.3349  1.2663
  640MOL0     H84438   1.180   7.472   1.301  0.0592 -1.7739  3.5853
  640MOL0     H84439   1.167   7.390   1.135  4.5890 -0.5199  0.4689
  640MOL0     H84440   1.006   7.251   1.352  1.3337  0.2746 -0.1802
  640MOL0     H84441   0.959   7.270   1.197  0.2610 -0.3344 -0.1966
  640MOL0     H84442   0.778   7.220   1.375 -1.9501 -0.3071 -0.4575
  640MOL0     H84443   0.549   7.206   1.376  2.0904 -0.0140 -0.6863
  640MOL0     H84444   0.080   7.551   1.468  1.0134  0.4752 -0.0644
  640MOL0     H84445  -0.136   7.471   1.431  2.1035 -2.1874  0.5366
  640MOL0     H84446  -0.168   7.152   1.148 -2.4495 -1.5291  1.9794
  640MOL0     H84447  -0.212   7.265   1.009 -0.5356 -1.4367 -0.3135
  640MOL0     H84448  -0.361   7.124   1.223  4.7603 -0.5046 -0.8395
  640MOL0     H84449  -0.402   7.107   1.051  0.2064 -0.4970  0.8516
  640MOL0     H84450  -0.470   7.353   1.059  2.6061 -2.7497 -2.0693
  640MOL0     H84451  -0.494   7.316   1.240 -0.5114  0.2445 -0.3957
  640MOL0     H84452  -0.624   7.189   1.012 -0.4522  1.0108 -0.4384
  640MOL0     H84453  -0.633   7.117   1.169  1.1034  1.5301  2.1590
  640MOL0     H84454  -0.704   7.403   1.160  0.0623  1.9824 -6.2723
  640MOL0     H84455  -0.783   7.259   1.239  0.6570 -0.1248 -1.0505
  640MOL0     H84456  -0.933   7.374   1.083  0.6583 -0.7829  2.4778
  640MOL0     H84457  -0.891   7.200   1.043 -3.4044  1.4800 -1.7663
  640MOL0     H84458  -0.767   7.434   0.895  0.2168 -0.4122  0.1494
  640MOL0     H84459  -0.745   7.268   0.863 -1.3526 -1.2251  0.9017
  640MOL0     H84460  -0.907   7.353   0.708  2.7519 -0.2810  0.9171
  640MOL0     H84461  -1.021   7.397   0.838  2.0103  0.6110  3.7250
  640MOL0     H84462   0.003   7.327   1.043  2.6340  0.4782 -0.6394
  640MOL0     H84463   0.221   7.398   1.096  0.6503 -0.5072  0.4406
  640MOL0     H84464   0.515   7.633   1.364  2.5454  2.7604 -0.2921
  640MOL0     H84465   0.776   7.640   1.320  1.2302  1.9238  4.2326
  640MOL0     H84466   2.322   6.635   1.949  0.8777  1.2289  1.0656
  640MOL0     H84467   2.543   6.564   2.073  3.4209 -0.3032 -1.0098
  640MOL0     H84468   2.824   6.445   2.185  0.1731 -1.0947  0.2094
  640MOL0     H84469   3.016   6.492   2.339 -2.6986  1.6665 -1.3260
  640MOL0     H84470   3.422   6.519   2.155 -0.0274 -0.1881 -0.1494
  640MOL0     H84471   3.451   6.362   2.229  3.9505  1.4290  0.3343
  640MOL0     H84472   3.438   6.608   2.389  0.0960 -0.5629  0.0922
  640MOL0     H84473   3.483   6.443   2.440 -3.9261 -1.6937 -1.7746
  640MOL0     H84474   3.642   6.642   2.269  5.1159 -0.1748  0.4936
  640MOL0     H84475   3.672   6.469   2.247  5.7031  0.9169  1.0536
  640MOL0     H84476   3.708   6.618   2.527 -0.1457  0.9203 -1.0195
  640MOL0     H84477   3.709   6.451   2.499  1.0137 -0.6054 -1.6488
  640MOL0     H84478   4.076   6.563   2.323 -0.7381  0.9412 -1.7901
  640MOL0     H84479   3.292   6.376   2.028  0.4617 -3.1221  0.5733
  640MOL0     H84480   3.092   6.320   1.875 -0.7789  1.6930 -0.7230
  641MOL0     O84481   6.339   9.650   9.662 -0.2240 -0.6064  0.1800
  641MOL0     C84482   6.342   9.712   9.770 -0.1709 -0.8865  0.0863
  641MOL0     O84483   6.252   9.799   9.826 -0.5645 -0.2333 -0.2402
  641MOL0     C84484   6.152   9.855   9.752  0.7412  0.6313 -0.8044
  641MOL0     C84485   6.151   9.883   9.610 -0.4260 -1.0147 -0.1139
  641MOL0     C84486   6.029   9.927   9.558  0.3693  0.2452  0.4024
  641MOL0     C84487   5.922   9.959   9.629 -0.4216 -0.0258 -0.4168
  641MOL0     O84488   5.810  10.002   9.561  0.0950  0.2368  0.0341
  641MOL0     C84489   5.717   9.897   9.519 -0.9061 -0.0901 -0.3129
  641MOL0     C84490   5.600   9.937   9.435  0.2551 -0.7098  0.7361
  641MOL0     C84491   5.499  10.006   9.527 -0.4455 -0.1345 -0.5119
  641MOL0     C84492   5.399   9.885   9.582  0.0092 -0.0332 -0.1333
  641MOL0     C84493   5.303   9.934   9.685 -1.2687 -0.5544 -0.2690
  641MOL0     C84494   5.359   9.967   9.825  0.6675 -0.9668 -0.0167
  641MOL0     C84495   5.261  10.031   9.925  0.1966  0.1147 -1.1797
  641MOL0     C84496   5.190   9.914   9.984  0.8253 -0.1684 -0.2459
  641MOL0     N84497   5.096   9.977  10.086 -0.1877  0.7255  0.4777
  641MOL0     C84498   4.992  10.053  10.050  0.9082 -0.1328 -0.6179
  641MOL0     C84499   4.959  10.104  10.173 -0.4552  0.2908 -0.9670
  641MOL0     C84500   4.843  10.199  10.191  0.1103 -0.5635  0.3817
  641MOL0     C84501   4.706  10.125  10.198 -1.0999 -0.2404 -0.2275
  641MOL0     C84502   4.707  10.014  10.306  0.0715  0.0424  0.8053
  641MOL0     C84503   4.576   9.937  10.310 -0.0076 -0.0474  0.0660
  641MOL0     O84504   4.460  10.031  10.304 -0.4379 -0.1417 -0.0986
  641MOL0     C84505   4.335   9.977  10.310 -0.3738 -0.0445 -1.0654
  641MOL0     C84506   4.311   9.838  10.334 -0.3903  0.0150 -0.0567
  641MOL0     C84507   4.187   9.787  10.337 -0.6735 -0.1939 -0.7564
  641MOL0     C84508   4.072   9.863  10.318 -0.8327 -0.0441  0.0574
  641MOL0     C84509   3.947   9.787  10.329 -1.2321  1.2541 -0.7613
  641MOL0     O84510   3.829   9.854  10.295  0.8967  0.1510  0.0685
  641MOL0     C84511   3.716   9.775  10.282  0.2306  0.1265  0.0988
  641MOL0     C84512   3.649   9.738  10.401  0.3577  0.8919 -0.0439
  641MOL0     C84513   3.525   9.669  10.378  0.0141 -0.0917 -0.5071
  641MOL0     C84514   3.467   9.650  10.256  0.8860  0.7421  0.2565
  641MOL0     O84515   3.344   9.590  10.248 -0.1539  0.3819  0.0723
  641MOL0     C84516   3.350   9.469  10.165 -1.1236 -0.4622  0.2481
  641MOL0     C84517   3.287   9.497  10.027  0.2742 -0.4899 -0.7541
  641MOL0     C84518   3.290   9.369   9.934 -0.1378 -0.0678  0.5990
  641MOL0     C84519   3.433   9.337   9.894  0.4900 -0.3634 -0.0264
  641MOL0     C84520   3.438   9.216   9.803 -1.2554 -0.4367  1.0552
  641MOL0     C84521   3.579   9.208   9.749 -1.4594 -0.5220  0.2922
  641MOL0     C84522   3.606   9.080   9.670  0.2334 -0.7601  0.5413
  641MOL0     C84523   3.725   9.093   9.573 -0.1862  0.1162 -0.5284
  641MOL0    Cl84524   3.690   9.224   9.455  0.1056 -0.0444  0.2223
  641MOL0     C84525   3.545   9.677  10.145 -0.4329 -0.3551 -0.2362
  641MOL0     C84526   3.671   9.752  10.153 -0.0063  0.2865  0.1269
  641MOL0     O84527   3.952   9.673  10.381 -0.5145  0.2654  0.4285
  641MOL0     C84528   4.092  10.005  10.286 -0.6640  0.9198 -0.1543
  641MOL0     C84529   4.228  10.053  10.281 -0.2641  0.7461  0.2335
  641MOL0     N84530   5.037  10.058  10.273  0.6324  1.0162 -0.2574
  641MOL0     N84531   5.116   9.976  10.216 -0.8530  0.4028 -0.2934
  641MOL0     C84532   5.924   9.945   9.768  0.0083  0.4621 -0.7654
  641MOL0     C84533   6.037   9.887   9.832 -0.4099 -0.1964  0.6633
  641MOL0     C84534   6.449   9.676   9.863  0.3800  0.2896  0.3196
  641MOL0     C84535   6.470   9.738   9.987  0.1848  0.0802  0.0511
  641MOL0     C84536   6.580   9.710  10.066 -0.4568  0.1275  0.2850
  641MOL0     C84537   6.675   9.623  10.017 -0.9294 -0.3770 -0.2992
  641MOL0     O84538   6.794   9.609  10.085  0.5753 -0.0249 -0.3010
  641MOL0     C84539   6.810   9.488  10.147 -0.0180 -0.2188 -0.1154
  641MOL0     C84540   6.864   9.520  10.288  0.3528  0.6238  0.2503
  641MOL0     C84541   7.006   9.582  10.288 -0.5772  0.2855  0.3793
  641MOL0     C84542   7.063   9.589  10.436 -0.9187  0.6913  0.0156
  641MOL0     C84543   7.210   9.610  10.447  0.4607 -0.0697  0.3787
  641MOL0     C84544   7.327   9.637  10.449 -0.0083 -0.1608  0.3317
  641MOL0     C84545   6.661   9.562   9.893  0.0014 -0.2800 -0.7675
  641MOL0     C84546   6.551   9.588   9.822 -0.1868 -0.3494  0.1688
  641MOL0     H84547   6.229   9.862   9.538 -1.7098  1.1577 -2.2712
  641MOL0     H84548   6.008   9.924   9.452 -1.1909  1.8752  0.6072
  641MOL0     H84549   5.684   9.838   9.606  2.7098 -0.3904  0.9984
  641MOL0     H84550   5.772   9.830   9.453 -2.5084 -1.4610 -0.3251
  641MOL0     H84551   5.558   9.856   9.375 -1.3555  1.3833 -1.1597
  641MOL0     H84552   5.644  10.006   9.362 -3.1406  0.4988 -0.3456
  641MOL0     H84553   5.448  10.088   9.475 -0.8699  1.0465  1.6127
  641MOL0     H84554   5.550  10.054   9.611 -1.0314 -1.1738  0.4695
  641MOL0     H84555   5.339   9.857   9.495  1.1117 -3.0142 -0.0601
  641MOL0     H84556   5.459   9.802   9.620 -0.7913 -0.2850  0.6106
  641MOL0     H84557   5.222   9.861   9.696 -1.7381  0.0903  0.6045
  641MOL0     H84558   5.263  10.026   9.643 -0.0124  0.3005  0.3561
  641MOL0     H84559   5.430  10.047   9.806 -0.2655  0.3525  1.7043
  641MOL0     H84560   5.410   9.882   9.871  1.8676  0.4124  1.2874
  641MOL0     H84561   5.321  10.081  10.000 -1.2375 -0.8961  0.7335
  641MOL0     H84562   5.186  10.100   9.884  0.3769  1.2822  0.3909
  641MOL0     H84563   5.257   9.841  10.030  1.4225 -0.3381 -1.3574
  641MOL0     H84564   5.135   9.851   9.914 -1.6535  0.6868  0.8134
  641MOL0     H84565   4.952  10.074   9.951  3.3045  0.3208 -1.5620
  641MOL0     H84566   4.839  10.265  10.104 -1.4708  0.8656  1.4675
  641MOL0     H84567   4.855  10.256  10.284  0.9426  2.4598 -1.4314
  641MOL0     H84568   4.684  10.071  10.106  0.6705  0.8682 -1.3463
  641MOL0     H84569   4.630  10.202  10.216 -2.1034 -0.4891 -2.9407
  641MOL0     H84570   4.793   9.947  10.302 -1.3307 -1.8186 -0.6151
  641MOL0     H84571   4.724  10.057  10.405  2.5936 -0.8008  0.7956
  641MOL0     H84572   4.568   9.887  10.407 -3.5525 -0.7587 -0.4619
  641MOL0     H84573   4.575   9.880  10.217  2.3633  4.0451 -2.7558
  641MOL0     H84574   4.397   9.773  10.350  0.9648  0.8001 -3.1965
  641MOL0     H84575   4.181   9.684  10.371  0.8439  0.4713  1.8554
  641MOL0     H84576   3.695   9.754  10.498 -0.6838  0.9188  0.4598
  641MOL0     H84577   3.466   9.638  10.464 -1.4162  2.7945 -0.3285
  641MOL0     H84578   3.292   9.396  10.222 -1.1975  0.1543  0.9764
  641MOL0     H84579   3.453   9.433  10.153 -0.3835  2.0205 -1.8209
  641MOL0     H84580   3.327   9.586   9.978  1.6861 -0.8039 -0.2176
  641MOL0     H84581   3.186   9.527  10.057  1.2415 -0.4330  3.0380
  641MOL0     H84582   3.235   9.375   9.840  1.9466 -2.6275 -0.9390
  641MOL0     H84583   3.238   9.283   9.977 -5.2239  2.2207 -0.1573
  641MOL0     H84584   3.467   9.426   9.841 -0.3015  3.9283  5.6458
  641MOL0     H84585   3.490   9.313   9.985 -2.0185 -0.0833  1.7292
  641MOL0     H84586   3.361   9.227   9.726  0.9113  1.9362 -0.9720
  641MOL0     H84587   3.421   9.121   9.855  2.8511 -1.8930  0.2093
  641MOL0     H84588   3.647   9.208   9.835 -0.1032 -0.3148 -0.7507
  641MOL0     H84589   3.596   9.293   9.683 -0.8855 -1.1631 -0.4150
  641MOL0     H84590   3.614   8.990   9.732 -0.9206  0.3179  2.3455
  641MOL0     H84591   3.520   9.075   9.603  3.4968  3.1040 -4.7404
  641MOL0     H84592   3.748   9.001   9.519  0.3577 -0.7005  1.0379
  641MOL0     H84593   3.817   9.117   9.628  0.0003 -0.5634 -0.5428
  641MOL0     H84594   3.521   9.652  10.042 -0.4977  1.3664 -0.6614
  641MOL0     H84595   3.736   9.798  10.079 -0.7994  1.1866 -0.0297
  641MOL0     H84596   4.003  10.065  10.270 -1.2441  0.0968 -0.0683
  641MOL0     H84597   4.238  10.156  10.248 -1.2947  1.5732  2.2914
  641MOL0     H84598   5.841   9.979   9.829  0.9407  0.4178  0.5937
  641MOL0     H84599   6.032   9.859   9.936 -3.6757 -3.8789 -0.2555
  641MOL0     H84600   6.411   9.820  10.027 -1.8885 -0.2546 -2.1313
  641MOL0     H84601   6.591   9.765  10.159  2.0067  2.9960 -1.5054
  641MOL0     H84602   6.878   9.418  10.096  1.4924 -0.1677  1.7179
  641MOL0     H84603   6.714   9.437  10.159  0.7163 -1.5448  0.4285
  641MOL0     H84604   6.798   9.598  10.326 -0.3060 -0.1267  0.6719
  641MOL0     H84605   6.876   9.427  10.343  0.9510 -2.4148 -4.3987
  641MOL0     H84606   7.015   9.684  10.250 -0.0500 -0.2162 -0.9069
  641MOL0     H84607   7.063   9.511  10.227  0.3726 -2.0913  3.7710
  641MOL0     H84608   7.006   9.656  10.501 -1.3897  0.4230 -0.1104
  641MOL0     H84609   7.043   9.496  10.490 -1.5027  2.0595  2.2785
  641MOL0     H84610   7.434   9.644  10.451  0.0071  0.7639  4.2719
  641MOL0     H84611   6.730   9.482   9.865  2.2123  0.5362  1.8960
  641MOL0     H84612   6.549   9.546   9.722 -3.3748  0.3082 -0.1519
  642MOL0     O84613   3.490   3.233   2.693 -0.0390  0.9819 -0.1546
  642MOL0     C84614   3.412   3.249   2.595 -0.6287 -0.3525 -0.0638
  642MOL0     O84615   3.441   3.216   2.466  0.5174 -0.6839  0.2273
  642MOL0     C84616   3.560   3.165   2.434 -0.1338 -0.1339 -0.5082
  642MOL0     C84617   3.621   3.226   2.323 -0.6893  0.4518  1.1981
  642MOL0     C84618   3.747   3.186   2.282 -0.5925 -0.8542  0.3610
  642MOL0     C84619   3.823   3.090   2.352 -0.3433 -0.1054 -0.3780
  642MOL0     O84620   3.939   3.041   2.314 -0.0981  0.1708 -0.3928
  642MOL0     C84621   4.056   3.099   2.380 -0.0118  0.4159  0.2233
  642MOL0     C84622   4.171   3.004   2.369  0.8511 -0.6017  0.8377
  642MOL0     C84623   4.191   2.970   2.226 -1.0529 -0.1719  0.3147
  642MOL0     C84624   4.324   2.902   2.209  0.0392 -0.3569  0.3131
  642MOL0     C84625   4.329   2.754   2.258 -0.9219 -0.0127 -0.2982
  642MOL0     C84626   4.450   2.666   2.196  0.4254 -0.7783 -0.7488
  642MOL0     C84627   4.418   2.512   2.176  0.1773 -1.0146 -0.0008
  642MOL0     C84628   4.426   2.437   2.320  0.7568 -1.1789 -0.3209
  642MOL0     N84629   4.321   2.489   2.413 -0.1876 -0.4745  0.5417
  642MOL0     C84630   4.189   2.500   2.382  0.2978 -0.1795 -0.4173
  642MOL0     C84631   4.144   2.562   2.496 -0.1196 -0.7120  0.3507
  642MOL0     C84632   4.001   2.599   2.521  0.8043 -0.3304  0.2969
  642MOL0     C84633   3.919   2.494   2.590 -0.1840 -1.6257 -0.3095
  642MOL0     C84634   3.768   2.525   2.575  0.7065  0.5605 -0.3235
  642MOL0     C84635   3.700   2.394   2.601 -0.4391 -0.5970 -1.2091
  642MOL0     O84636   3.563   2.417   2.628  0.0144 -0.0474  0.7894
  642MOL0     C84637   3.485   2.344   2.711  0.7499  0.1818 -0.1415
  642MOL0     C84638   3.463   2.214   2.687 -0.1395  0.0515 -0.1302
  642MOL0     C84639   3.360   2.140   2.753  0.5394  0.2489 -0.9457
  642MOL0     C84640   3.279   2.205   2.852  0.0038  0.3618  0.5291
  642MOL0     C84641   3.162   2.143   2.918  0.5982  0.6982  0.4007
  642MOL0     O84642   3.131   2.026   2.869  0.6740 -0.2217 -0.7829
  642MOL0     C84643   2.998   1.999   2.852  0.2441 -0.6213  0.3148
  642MOL0     C84644   2.888   2.086   2.812 -0.1208  0.5916  0.2894
  642MOL0     C84645   2.753   2.042   2.801 -0.3064  0.7366 -0.1255
  642MOL0     C84646   2.726   1.903   2.809  0.2078 -0.6867  0.4462
  642MOL0     O84647   2.611   1.834   2.796  1.1557 -0.8438  0.3179
  642MOL0     C84648   2.489   1.899   2.836  0.0925 -0.4083 -0.2627
  642MOL0     C84649   2.365   1.804   2.842  0.7958  0.1195 -0.8149
  642MOL0     C84650   2.239   1.877   2.882 -0.4429  0.2494  0.0530
  642MOL0     C84651   2.119   1.781   2.906 -0.2311  0.7526 -0.0123
  642MOL0     C84652   2.007   1.848   2.978  0.8632 -0.9785  0.2278
  642MOL0     C84653   1.909   1.914   2.869 -0.5588 -0.6047 -0.9549
  642MOL0     C84654   1.794   1.997   2.915  0.0723 -0.0641  0.7142
  642MOL0     C84655   1.678   1.905   2.949  0.2154  0.2756 -0.1476
  642MOL0    Cl84656   1.542   1.985   3.031  0.5483  0.4740 -0.3562
  642MOL0     C84657   2.838   1.817   2.826 -0.1106  0.4376  0.1170
  642MOL0     C84658   2.963   1.862   2.843 -0.6013  0.4686 -0.0692
  642MOL0     O84659   3.121   2.185   3.026  0.0821 -0.8025  0.8271
  642MOL0     C84660   3.308   2.336   2.868  0.8779 -0.2741  1.1991
  642MOL0     C84661   3.397   2.409   2.792 -0.6446 -0.1946 -0.3266
  642MOL0     N84662   4.250   2.589   2.587 -0.1104 -0.0225 -0.3621
  642MOL0     N84663   4.352   2.543   2.536 -0.6465  0.1444  0.2096
  642MOL0     C84664   3.762   3.026   2.460  0.0512  0.1018 -0.1940
  642MOL0     C84665   3.634   3.064   2.489  0.0366  0.6020 -1.1246
  642MOL0     C84666   3.277   3.286   2.620 -0.2175  0.1501 -0.2985
  642MOL0     C84667   3.219   3.269   2.746 -0.0985  0.2812 -0.0564
  642MOL0     C84668   3.089   3.310   2.778  0.4022 -0.2648  0.3821
  642MOL0     C84669   3.016   3.383   2.677 -0.3157 -0.2910  0.5166
  642MOL0     O84670   2.887   3.424   2.704  0.3068 -0.3732 -0.2404
  642MOL0     C84671   2.804   3.484   2.609  0.3719  0.1436  0.6274
  642MOL0     C84672   2.707   3.399   2.530 -0.2350  0.4405 -0.6218
  642MOL0     C84673   2.591   3.324   2.613  1.1610  0.5835 -0.3011
  642MOL0     C84674   2.477   3.411   2.670  0.1904 -0.4313 -0.2136
  642MOL0     C84675   2.423   3.349   2.788  0.5174 -0.5114 -0.5710
  642MOL0     C84676   2.362   3.314   2.896 -0.7596  0.6309  0.4810
  642MOL0     C84677   3.078   3.411   2.560  0.5111 -0.2151 -0.0489
  642MOL0     C84678   3.205   3.355   2.526  0.5420 -0.7213 -0.0060
  642MOL0     H84679   3.557   3.290   2.262 -2.9639 -0.4853  2.4834
  642MOL0     H84680   3.771   3.225   2.184 -0.0018 -0.8482  0.5001
  642MOL0     H84681   4.031   3.126   2.483  2.1384  0.1445  0.8599
  642MOL0     H84682   4.080   3.195   2.334  3.5392  0.2510  1.4212
  642MOL0     H84683   4.149   2.913   2.426  2.6404 -1.4789  0.2058
  642MOL0     H84684   4.267   3.041   2.405  1.6687  2.4177 -3.5942
  642MOL0     H84685   4.201   3.063   2.171 -0.1000 -0.1093  0.5695
  642MOL0     H84686   4.117   2.897   2.193  1.9755 -1.5867 -4.2813
  642MOL0     H84687   4.341   2.892   2.102  0.1244 -2.0047  0.4598
  642MOL0     H84688   4.404   2.967   2.247 -1.3374  2.3682 -1.1404
  642MOL0     H84689   4.242   2.693   2.232  0.2175 -0.7036 -2.7129
  642MOL0     H84690   4.339   2.766   2.367  1.5281 -0.5033 -0.4136
  642MOL0     H84691   4.540   2.689   2.255 -0.1405  3.0870 -1.0789
  642MOL0     H84692   4.457   2.711   2.096  0.4964 -1.2206 -0.9437
  642MOL0     H84693   4.319   2.503   2.130 -0.3969  0.7063  0.8166
  642MOL0     H84694   4.504   2.472   2.120  1.2341 -2.4677  2.4928
  642MOL0     H84695   4.521   2.462   2.368  0.2326  0.4926 -0.0879
  642MOL0     H84696   4.421   2.330   2.297  0.3046 -0.8024 -2.1766
  642MOL0     H84697   4.137   2.476   2.290  1.3053  0.0220 -1.0557
  642MOL0     H84698   3.959   2.615   2.421  2.0883 -2.9481 -0.7767
  642MOL0     H84699   3.996   2.685   2.589  0.4633  2.1477 -2.6328
  642MOL0     H84700   3.946   2.475   2.694 -0.3478  1.5153  0.3945
  642MOL0     H84701   3.937   2.404   2.530  0.7235 -0.1111 -2.4442
  642MOL0     H84702   3.732   2.606   2.639 -1.3316 -1.3944  1.1282
  642MOL0     H84703   3.749   2.561   2.474 -2.1225 -2.7298 -1.1376
  642MOL0     H84704   3.740   2.337   2.685 -2.0763 -0.3164 -0.1920
  642MOL0     H84705   3.714   2.339   2.507 -0.1357  2.5910 -3.1576
  642MOL0     H84706   3.527   2.168   2.612  2.2084  2.4345  0.2626
  642MOL0     H84707   3.347   2.033   2.736  2.0792 -0.4130  1.4917
  642MOL0     H84708   2.907   2.192   2.827 -0.6729  0.5429  1.4868
  642MOL0     H84709   2.670   2.110   2.783 -0.8352  0.8389  2.2795
  642MOL0     H84710   2.457   1.973   2.761 -3.3578 -1.7203 -0.2815
  642MOL0     H84711   2.503   1.947   2.933 -0.9105  0.7334 -0.6528
  642MOL0     H84712   2.383   1.728   2.918 -1.0049  0.9152  0.4848
  642MOL0     H84713   2.353   1.759   2.743  0.3454 -1.7275  0.0451
  642MOL0     H84714   2.202   1.959   2.819 -0.1803  1.0100  0.8739
  642MOL0     H84715   2.272   1.922   2.975  2.7510 -1.0424 -0.3245
  642MOL0     H84716   2.076   1.727   2.822 -1.2591  0.7761  0.4859
  642MOL0     H84717   2.165   1.716   2.981  0.6954  0.7161 -0.5941
  642MOL0     H84718   2.061   1.917   3.044  1.0970 -0.3607 -0.5875
  642MOL0     H84719   1.944   1.781   3.037 -3.5096  2.1285 -0.3259
  642MOL0     H84720   1.868   1.828   2.815 -0.9738 -2.7473  2.4798
  642MOL0     H84721   1.963   1.990   2.813 -1.9555  1.7004  0.6502
  642MOL0     H84722   1.829   2.046   3.007 -0.2418 -1.4402  1.6014
  642MOL0     H84723   1.764   2.068   2.838 -0.1556  1.5043  2.1851
  642MOL0     H84724   1.706   1.823   3.017 -2.5305  1.4366  2.6550
  642MOL0     H84725   1.632   1.855   2.863  2.0131 -0.7436 -0.5646
  642MOL0     H84726   2.814   1.712   2.824 -1.7666  0.6970  2.3405
  642MOL0     H84727   3.044   1.790   2.843 -0.7204  0.2759  1.8198
  642MOL0     H84728   3.241   2.385   2.938 -0.8510 -0.2237 -0.4208
  642MOL0     H84729   3.402   2.517   2.783  2.2537 -0.3717 -2.5702
  642MOL0     H84730   3.809   2.943   2.510 -2.7640  0.5410  3.6557
  642MOL0     H84731   3.595   3.017   2.579  0.1810  0.1473 -1.2951
  642MOL0     H84732   3.289   3.239   2.824  1.3904  2.5368 -0.4186
  642MOL0     H84733   3.048   3.277   2.873 -0.2870  3.3050  1.4947
  642MOL0     H84734   2.861   3.549   2.544  0.7099 -1.2911 -0.5677
  642MOL0     H84735   2.741   3.548   2.672  0.7099  1.5180 -0.3920
  642MOL0     H84736   2.657   3.444   2.443  0.1630  1.3169 -0.4089
  642MOL0     H84737   2.761   3.314   2.488 -2.8184 -1.6027 -0.1177
  642MOL0     H84738   2.628   3.279   2.705 -0.4832  2.5536  1.4272
  642MOL0     H84739   2.537   3.251   2.552  0.1841  0.9315  0.1131
  642MOL0     H84740   2.523   3.506   2.698 -2.5267  0.9921 -0.2304
  642MOL0     H84741   2.403   3.438   2.594 -0.8663  1.7167  1.4556
  642MOL0     H84742   2.306   3.293   2.986 -2.9002  2.4492 -0.3315
  642MOL0     H84743   3.032   3.471   2.482  0.7488  1.5533  1.1058
  642MOL0     H84744   3.246   3.345   2.426  0.6541 -1.3234  0.0919
  643MOL0     O84745   4.534   4.204   1.811  0.1179  0.2099 -0.3565
  643MOL0     C84746   4.608   4.219   1.914 -0.0884 -0.2874 -0.5568
  643MOL0     O84747   4.608   4.320   1.999  0.0536 -0.6641  0.2670
  643MOL0     C84748   4.495   4.394   2.009 -0.7473 -0.8436  0.5670
  643MOL0     C84749   4.505   4.534   2.038  0.1302  0.3332 -0.0011
  643MOL0     C84750   4.396   4.618   2.063 -0.3523 -0.0593 -0.7783
  643MOL0     C84751   4.267   4.571   2.026 -0.8290 -0.1145  0.5214
  643MOL0     O84752   4.156   4.646   2.031 -0.3022 -0.2916  0.2850
  643MOL0     C84753   4.160   4.788   2.011  0.3062 -0.5405 -0.4685
  643MOL0     C84754   4.040   4.830   1.936  0.1093  0.7508 -0.1717
  643MOL0     C84755   4.050   4.791   1.788  1.2498 -0.0019  0.6084
  643MOL0     C84756   3.924   4.838   1.717  0.4938 -0.4777  0.0632
  643MOL0     C84757   3.784   4.796   1.766 -0.2920  0.6630  0.0546
  643MOL0     C84758   3.771   4.643   1.785  0.2490  0.5440 -0.4516
  643MOL0     C84759   3.618   4.594   1.791 -0.8441 -0.2269  0.1023
  643MOL0     C84760   3.526   4.660   1.901  0.3817  0.4056  0.4055
  643MOL0     N84761   3.385   4.638   1.863 -0.1428  0.4229 -0.9448
  643MOL0     C84762   3.329   4.520   1.894 -0.3191 -0.1897 -0.0987
  643MOL0     C84763   3.219   4.518   1.821 -0.1289  0.5698 -0.1501
  643MOL0     C84764   3.115   4.402   1.832  0.3070 -0.6727 -0.3715
  643MOL0     C84765   3.023   4.424   1.953  0.0542 -0.3516 -0.6869
  643MOL0     C84766   2.928   4.311   1.969  0.2828  0.1311  0.3735
  643MOL0     C84767   2.792   4.356   2.006 -0.7129 -0.4353  0.0630
  643MOL0     O84768   2.734   4.237   2.042  0.2587  0.7433  0.0032
  643MOL0     C84769   2.602   4.207   2.048  0.7698 -1.3486  0.4817
  643MOL0     C84770   2.562   4.077   2.091  0.0707  0.6491  0.2824
  643MOL0     C84771   2.428   4.035   2.084 -0.3004  0.1094 -0.0535
  643MOL0     C84772   2.327   4.128   2.041  0.6687  0.1309 -0.0116
  643MOL0     C84773   2.186   4.079   2.050 -1.1124 -0.5058  0.8889
  643MOL0     O84774   2.086   4.169   2.065  0.1915  0.7073  0.4008
  643MOL0     C84775   1.956   4.135   2.030  0.7907 -0.2766  0.0711
  643MOL0     C84776   1.918   4.042   1.933  1.0384 -0.7976  0.4153
  643MOL0     C84777   1.785   4.016   1.902  1.2013 -0.4484 -0.7443
  643MOL0     C84778   1.681   4.087   1.964  0.0121 -1.0232  0.7309
  643MOL0     O84779   1.556   4.055   1.922 -0.1549 -0.1786  0.1855
  643MOL0     C84780   1.442   4.101   2.004 -0.9948  0.3312 -0.4401
  643MOL0     C84781   1.318   4.032   1.953  1.1428 -0.0818  0.4748
  643MOL0     C84782   1.180   4.074   2.019  0.1115  0.1634  0.4328
  643MOL0     C84783   1.057   4.017   1.942  0.4718 -0.1215 -0.2399
  643MOL0     C84784   1.056   3.866   1.951  0.0604  0.7284  0.3928
  643MOL0     C84785   0.905   3.818   1.956 -0.2167 -0.8476 -0.5613
  643MOL0     C84786   0.830   3.810   1.824  0.2713  1.3479  0.2121
  643MOL0     C84787   0.683   3.782   1.861  0.0231 -0.0699  0.2265
  643MOL0    Cl84788   0.629   3.936   1.926 -0.1821  0.0135  0.0261
  643MOL0     C84789   1.718   4.191   2.060 -0.3842 -0.0749 -0.2136
  643MOL0     C84790   1.852   4.213   2.090 -0.0195 -0.0720  0.0907
  643MOL0     O84791   2.169   3.959   2.041 -0.3067 -1.0048  0.1763
  643MOL0     C84792   2.366   4.264   2.015  0.6043  0.6185  1.5374
  643MOL0     C84793   2.500   4.297   2.003 -0.3426  0.0050  0.3058
  643MOL0     N84794   3.210   4.632   1.743  0.6480 -0.3182  0.0111
  643MOL0     N84795   3.317   4.702   1.763 -0.6153 -0.6596  0.1073
  643MOL0     C84796   4.251   4.442   1.990  0.4033  0.5916 -0.0751
  643MOL0     C84797   4.365   4.353   1.988 -0.1300  0.2456  0.1561
  643MOL0     C84798   4.717   4.115   1.934  1.0452  1.1521  0.2550
  643MOL0     C84799   4.735   4.014   1.832 -0.1898 -0.2127  0.6217
  643MOL0     C84800   4.831   3.908   1.856  0.1391  0.1228  0.1616
  643MOL0     C84801   4.916   3.913   1.968 -0.4088 -0.2408 -0.0667
  643MOL0     O84802   5.009   3.808   1.987  0.0639 -0.1424 -0.0588
  643MOL0     C84803   5.148   3.846   1.966 -0.1324 -0.3361  0.0848
  643MOL0     C84804   5.233   3.718   1.979  0.5909  0.0359  1.4001
  643MOL0     C84805   5.380   3.740   1.968 -0.0871  0.4512 -0.0294
  643MOL0     C84806   5.452   3.603   1.996  0.4453 -0.3717 -0.0486
  643MOL0     C84807   5.466   3.556   2.136  0.8410 -0.5651 -0.3371
  643MOL0     C84808   5.485   3.521   2.253 -0.9451  0.0636 -0.2788
  643MOL0     C84809   4.902   4.018   2.062 -0.4587  0.6443 -0.5282
  643MOL0     C84810   4.802   4.112   2.047 -0.1066  0.1958 -0.1703
  643MOL0     H84811   4.607   4.566   2.054  1.3483 -2.0242 -2.3007
  643MOL0     H84812   4.405   4.720   2.100 -0.0305 -0.3892  0.0585
  643MOL0     H84813   4.253   4.816   1.962 -0.2594  1.1440 -0.6397
  643MOL0     H84814   4.159   4.839   2.108 -2.5205  3.7386 -2.4567
  643MOL0     H84815   4.048   4.939   1.924  3.9660  0.7267  0.6895
  643MOL0     H84816   3.947   4.796   1.983  0.9476  1.6057  2.3073
  643MOL0     H84817   4.055   4.683   1.773  0.5437  0.2965 -2.6282
  643MOL0     H84818   4.132   4.841   1.737  1.0501 -1.1615 -0.9365
  643MOL0     H84819   3.916   4.947   1.720 -1.2011 -0.6096  1.3456
  643MOL0     H84820   3.929   4.808   1.612 -1.0994  1.0046 -0.4818
  643MOL0     H84821   3.708   4.822   1.692  3.5813  1.6770 -3.9978
  643MOL0     H84822   3.748   4.850   1.854 -2.1541 -1.8480  0.9655
  643MOL0     H84823   3.817   4.619   1.881  0.7597 -0.9588 -1.0455
  643MOL0     H84824   3.831   4.594   1.708 -0.1651  1.2007 -1.2146
  643MOL0     H84825   3.578   4.614   1.691  1.3904 -2.3538 -1.3063
  643MOL0     H84826   3.620   4.486   1.808  1.9847 -0.2736 -0.1386
  643MOL0     H84827   3.549   4.766   1.896  0.1815  0.4613  0.6548
  643MOL0     H84828   3.549   4.625   2.002 -1.3207 -0.6873  0.4648
  643MOL0     H84829   3.370   4.456   1.971  2.0646  1.4938  0.1467
  643MOL0     H84830   3.162   4.304   1.828 -0.2255 -0.9181 -0.5658
  643MOL0     H84831   3.043   4.393   1.751 -0.1699  0.6789 -0.1282
  643MOL0     H84832   2.961   4.512   1.937 -0.2111 -0.5549 -0.8006
  643MOL0     H84833   3.093   4.432   2.036 -0.6166 -1.3894 -0.0003
  643MOL0     H84834   2.925   4.238   1.887  0.5021 -1.3552  1.6516
  643MOL0     H84835   2.967   4.249   2.050 -0.8562  0.4990  1.2323
  643MOL0     H84836   2.728   4.400   1.929  0.7889  3.9291  1.0419
  643MOL0     H84837   2.797   4.434   2.082  1.3568 -0.3671 -0.0753
  643MOL0     H84838   2.633   4.002   2.123  1.0532  0.6678 -1.6884
  643MOL0     H84839   2.393   3.938   2.118 -0.7221  0.3330  0.1548
  643MOL0     H84840   1.991   3.981   1.880  2.1392  0.4526  0.4295
  643MOL0     H84841   1.748   3.938   1.837  0.1143 -0.7333  0.1769
  643MOL0     H84842   1.417   4.207   2.000 -1.8932  0.1048 -1.9221
  643MOL0     H84843   1.464   4.083   2.109  2.9410 -2.5614 -1.4861
  643MOL0     H84844   1.318   3.922   1.954  0.6829 -0.0939 -0.2031
  643MOL0     H84845   1.309   4.050   1.846 -0.8166 -3.0366 -0.0012
  643MOL0     H84846   1.176   4.182   2.004  1.4853  0.2908  0.8651
  643MOL0     H84847   1.168   4.050   2.125  0.8229 -2.0878  0.0537
  643MOL0     H84848   0.969   4.066   1.983  2.8395  0.2920  5.2427
  643MOL0     H84849   1.061   4.043   1.836 -0.2950 -2.3300 -0.8858
  643MOL0     H84850   1.111   3.834   2.040 -3.2738 -2.0790  1.6821
  643MOL0     H84851   1.118   3.830   1.868 -1.2366  1.4813 -0.9436
  643MOL0     H84852   0.852   3.880   2.030  1.2218 -0.4439  0.1629
  643MOL0     H84853   0.910   3.716   1.997  1.5413 -0.3514  0.5777
  643MOL0     H84854   0.844   3.894   1.755 -0.7613  0.3972 -1.1999
  643MOL0     H84855   0.871   3.725   1.768  0.0123 -1.3426  3.7419
  643MOL0     H84856   0.661   3.697   1.926 -1.3282 -0.1476 -0.3006
  643MOL0     H84857   0.626   3.767   1.769 -0.8498 -2.0847  1.0584
  643MOL0     H84858   1.640   4.247   2.111 -3.1985 -2.6916 -1.2783
  643MOL0     H84859   1.885   4.276   2.173  2.8141  1.9487 -2.3856
  643MOL0     H84860   2.282   4.329   1.992  0.5985 -0.4645 -2.1576
  643MOL0     H84861   2.521   4.398   1.970  1.5516 -1.0465 -2.0477
  643MOL0     H84862   4.149   4.406   1.988 -0.4611  2.8694  0.2345
  643MOL0     H84863   4.338   4.250   1.968 -2.7708  0.9115 -0.1295
  643MOL0     H84864   4.690   4.036   1.736  0.6876  1.0405  0.4677
  643MOL0     H84865   4.856   3.841   1.775  1.7216  2.1006 -1.0933
  643MOL0     H84866   5.180   3.927   2.032  0.8150  1.6427 -2.6154
  643MOL0     H84867   5.161   3.883   1.864 -0.0975 -1.3843 -0.3085
  643MOL0     H84868   5.200   3.660   2.065 -1.5740  0.9039  1.1943
  643MOL0     H84869   5.204   3.659   1.891 -1.9636  3.4049 -0.2543
  643MOL0     H84870   5.419   3.812   2.040  0.6370 -0.1663  0.1982
  643MOL0     H84871   5.393   3.778   1.867 -2.1340 -2.4848 -1.5654
  643MOL0     H84872   5.401   3.531   1.930 -3.6581  0.7516  1.5391
  643MOL0     H84873   5.557   3.610   1.968  0.6983  0.4666  1.0559
  643MOL0     H84874   5.515   3.480   2.347  1.2140 -2.6059 -1.9579
  643MOL0     H84875   4.973   4.021   2.144 -1.0343  0.3736 -0.0141
  643MOL0     H84876   4.786   4.183   2.127  1.5324  1.3189 -0.7961
  644MOL0     O84877   7.909   4.461   9.400 -0.2791  0.0965  1.1776
  644MOL0     C84878   7.991   4.407   9.323 -0.4116  0.7517  0.4955
  644MOL0     O84879   7.982   4.401   9.187 -0.0457 -0.3177 -0.4480
  644MOL0     C84880   7.874   4.452   9.133 -0.9834 -0.7014 -0.1555
  644MOL0     C84881   7.763   4.376   9.134  0.4254 -0.1463  0.2707
  644MOL0     C84882   7.641   4.424   9.084  0.5950 -0.0504 -0.4062
  644MOL0     C84883   7.643   4.550   9.019 -0.3878 -0.1596  0.2067
  644MOL0     O84884   7.525   4.607   8.971  0.2904 -0.0623  0.9323
  644MOL0     C84885   7.443   4.688   9.072 -0.3549  0.1288 -0.7543
  644MOL0     C84886   7.396   4.816   9.009 -0.8174  0.0067 -0.2811
  644MOL0     C84887   7.290   4.789   8.905 -0.1390 -0.3184  0.2380
  644MOL0     C84888   7.217   4.919   8.884 -0.1267 -0.2776  0.0172
  644MOL0     C84889   7.147   4.936   8.751  0.5514 -0.0970 -0.1667
  644MOL0     C84890   7.023   4.856   8.741 -0.2404  1.1849 -0.4824
  644MOL0     C84891   6.936   4.866   8.611 -0.8503  0.9172  1.3313
  644MOL0     C84892   6.985   4.776   8.495 -0.3289  0.3325  0.2646
  644MOL0     N84893   6.911   4.799   8.364 -0.6788  0.2215 -0.3550
  644MOL0     C84894   6.779   4.798   8.335 -0.0514  0.3284  0.2763
  644MOL0     C84895   6.777   4.805   8.197 -0.5043  0.4570  0.3227
  644MOL0     C84896   6.663   4.813   8.102  0.0644  0.3091  0.0359
  644MOL0     C84897   6.567   4.923   8.155 -0.0644 -1.3490 -0.2029
  644MOL0     C84898   6.631   5.064   8.170 -0.4769  0.0063 -0.2925
  644MOL0     C84899   6.613   5.161   8.063 -0.1450  0.0419  0.8213
  644MOL0     O84900   6.487   5.158   7.990  0.1759 -0.6368  0.4736
  644MOL0     C84901   6.378   5.219   8.053 -0.0683 -0.1361  0.3707
  644MOL0     C84902   6.255   5.190   7.997  0.1811  0.1349  0.2968
  644MOL0     C84903   6.129   5.241   8.030  0.9722  0.1230 -0.4463
  644MOL0     C84904   6.120   5.334   8.138  0.1831  0.7001 -0.7379
  644MOL0     C84905   5.995   5.379   8.187  0.2664 -0.2712 -0.1451
  644MOL0     O84906   5.989   5.464   8.297  0.0089  0.5807 -0.5268
  644MOL0     C84907   5.870   5.530   8.332 -0.7573 -0.1229  0.8529
  644MOL0     C84908   5.874   5.670   8.340  0.1027  0.0977 -0.2516
  644MOL0     C84909   5.768   5.740   8.383  0.0595  0.5032 -0.1070
  644MOL0     C84910   5.656   5.678   8.421  0.5702 -0.7645 -0.3885
  644MOL0     O84911   5.540   5.742   8.465  0.1535 -0.1357 -0.1341
  644MOL0     C84912   5.540   5.882   8.462 -0.3328 -0.3005  0.9361
  644MOL0     C84913   5.400   5.937   8.459 -0.2938  0.5187  0.4796
  644MOL0     C84914   5.335   5.953   8.597 -0.2766  0.1255 -0.6313
  644MOL0     C84915   5.195   5.991   8.564 -0.7233 -0.3025 -0.5361
  644MOL0     C84916   5.115   5.984   8.695 -0.7063 -0.4288 -0.2038
  644MOL0     C84917   4.986   6.082   8.686  0.4585 -0.5473  0.1805
  644MOL0     C84918   4.933   6.121   8.824 -0.3906  0.0472 -1.0624
  644MOL0     C84919   4.806   6.210   8.824  0.6412  0.5200  0.2295
  644MOL0    Cl84920   4.652   6.117   8.775 -0.0149 -0.3076  0.2774
  644MOL0     C84921   5.646   5.541   8.419 -0.1736  0.0817  0.5249
  644MOL0     C84922   5.762   5.461   8.376  1.5516  0.7191 -0.2111
  644MOL0     O84923   5.889   5.333   8.134 -0.2010 -0.3846 -0.2928
  644MOL0     C84924   6.243   5.373   8.193 -0.6181  0.5988 -0.1386
  644MOL0     C84925   6.368   5.310   8.163  0.6340  0.2652 -0.0444
  644MOL0     N84926   6.908   4.812   8.150  0.5601  0.7867 -0.0190
  644MOL0     N84927   6.984   4.816   8.249  0.8578 -0.8512 -0.8020
  644MOL0     C84928   7.761   4.614   8.991  0.4324 -0.8591  0.2135
  644MOL0     C84929   7.874   4.570   9.055  0.2387  0.0638 -0.7878
  644MOL0     C84930   8.123   4.370   9.365  0.2769  0.3654  0.2126
  644MOL0     C84931   8.185   4.424   9.483  0.0762  0.3925  0.2831
  644MOL0     C84932   8.319   4.404   9.520  0.4168 -0.8061  0.1365
  644MOL0     C84933   8.390   4.306   9.461  0.6635 -0.4431  1.2198
  644MOL0     O84934   8.514   4.274   9.507  0.0740 -0.0228 -0.4604
  644MOL0     C84935   8.521   4.228   9.643 -0.5912 -0.0745 -0.8752
  644MOL0     C84936   8.507   4.070   9.644  0.6111 -0.3193 -0.9654
  644MOL0     C84937   8.622   4.009   9.556  0.3596 -0.4622 -0.8644
  644MOL0     C84938   8.761   4.024   9.626 -0.0952  0.7185 -0.4397
  644MOL0     C84939   8.835   4.144   9.579  0.4334  0.6736  0.1887
  644MOL0     C84940   8.874   4.252   9.549 -0.0338  0.3789  0.2250
  644MOL0     C84941   8.337   4.245   9.344 -0.0513 -0.5234 -0.0946
  644MOL0     C84942   8.215   4.286   9.296 -0.5271 -0.3251 -0.3333
  644MOL0     H84943   7.780   4.278   9.179  3.2412 -0.6545 -1.6455
  644MOL0     H84944   7.546   4.372   9.093  1.3096 -1.3561 -0.1801
  644MOL0     H84945   7.510   4.721   9.152  0.6361  1.9293 -2.2724
  644MOL0     H84946   7.355   4.637   9.111 -0.7348  1.0845 -0.3325
  644MOL0     H84947   7.480   4.857   8.952 -1.0231  0.8980  0.0303
  644MOL0     H84948   7.364   4.893   9.080 -0.1167  0.4556 -0.4344
  644MOL0     H84949   7.232   4.705   8.945 -1.6980  0.2170 -0.8146
  644MOL0     H84950   7.333   4.756   8.810 -0.2987  1.5831 -0.5312
  644MOL0     H84951   7.145   4.929   8.966 -0.1930  1.4554 -0.2264
  644MOL0     H84952   7.292   4.996   8.899  0.2680 -1.0515  2.5122
  644MOL0     H84953   7.210   4.919   8.664 -1.7301  1.9449 -2.3778
  644MOL0     H84954   7.123   5.043   8.746 -0.3925 -0.3337 -1.1363
  644MOL0     H84955   6.956   4.878   8.824  2.5186 -0.1701  2.2992
  644MOL0     H84956   7.051   4.750   8.751  0.2380  1.2088 -1.3809
  644MOL0     H84957   6.835   4.834   8.639 -1.6932 -1.2229 -3.2370
  644MOL0     H84958   6.936   4.970   8.578 -1.5534  0.1472 -1.2838
  644MOL0     H84959   6.982   4.667   8.511  1.6880  0.0873 -0.6557
  644MOL0     H84960   7.091   4.803   8.485 -0.2509  1.1289  2.5798
  644MOL0     H84961   6.701   4.782   8.409 -0.2541 -0.0965 -0.0215
  644MOL0     H84962   6.615   4.715   8.092  0.5891  0.1940 -1.7326
  644MOL0     H84963   6.702   4.836   8.003 -0.4259  1.4544  0.0985
  644MOL0     H84964   6.556   4.908   8.262 -1.2711  0.4457 -0.0382
  644MOL0     H84965   6.472   4.938   8.104  0.2998  1.7297 -0.2063
  644MOL0     H84966   6.592   5.105   8.264 -2.0682 -1.1076 -0.4265
  644MOL0     H84967   6.738   5.055   8.190 -0.4865  0.3944 -0.0574
  644MOL0     H84968   6.691   5.155   7.988 -3.6445  1.9073 -3.4392
  644MOL0     H84969   6.623   5.260   8.108  3.2590  2.0670 -3.6644
  644MOL0     H84970   6.256   5.124   7.911  0.5039  0.5758 -0.0380
  644MOL0     H84971   6.032   5.209   7.994  1.4765 -1.6860 -0.2938
  644MOL0     H84972   5.955   5.736   8.309 -0.8413  0.8593 -1.1693
  644MOL0     H84973   5.774   5.847   8.404 -1.5027  0.1051  2.8717
  644MOL0     H84974   5.588   5.915   8.369 -1.1332 -0.4141  0.4709
  644MOL0     H84975   5.593   5.919   8.550  1.8398  2.1308 -1.2026
  644MOL0     H84976   5.342   5.865   8.399  0.3106 -3.0462  3.7545
  644MOL0     H84977   5.404   6.031   8.403  0.2200 -0.5894 -1.4543
  644MOL0     H84978   5.383   6.032   8.655 -2.5263  1.9235 -1.0888
  644MOL0     H84979   5.330   5.862   8.657  2.2375  0.4660  0.2050
  644MOL0     H84980   5.191   6.093   8.525 -0.0903 -0.4409 -0.9823
  644MOL0     H84981   5.165   5.918   8.489  1.3626 -3.6422  1.5982
  644MOL0     H84982   5.175   6.029   8.776 -1.3616  0.3475 -0.1392
  644MOL0     H84983   5.096   5.879   8.717 -1.0565 -1.0942 -3.3077
  644MOL0     H84984   4.909   6.013   8.649 -0.1105 -0.5655  1.3474
  644MOL0     H84985   4.995   6.174   8.627 -2.9237 -0.2645 -0.0791
  644MOL0     H84986   4.911   6.027   8.877  0.0950  0.7787  0.4880
  644MOL0     H84987   5.016   6.162   8.882 -2.2782  2.7794 -0.0957
  644MOL0     H84988   4.821   6.295   8.757 -0.3362 -1.1410 -2.2119
  644MOL0     H84989   4.779   6.243   8.925 -0.6987  0.4223 -0.0809
  644MOL0     H84990   5.553   5.498   8.451 -0.2501  0.1895  0.4487
  644MOL0     H84991   5.751   5.355   8.396 -2.0988  0.1730 -3.7863
  644MOL0     H84992   6.252   5.447   8.273  3.4410 -0.5144  0.6400
  644MOL0     H84993   6.453   5.331   8.227 -0.5580  0.4398  1.5535
  644MOL0     H84994   7.748   4.706   8.936  2.6162  0.7157  2.1054
  644MOL0     H84995   7.959   4.637   9.038 -0.8378  1.8035  0.3583
  644MOL0     H84996   8.136   4.494   9.550 -1.8366 -0.5368 -0.0830
  644MOL0     H84997   8.355   4.469   9.599  0.3638  1.9292 -1.9727
  644MOL0     H84998   8.435   4.260   9.702 -1.4603 -0.6845 -1.7832
  644MOL0     H84999   8.612   4.265   9.691  0.5324  0.6137 -3.3613
  644MOL0     H85000   8.521   4.031   9.745  0.3119  0.9069 -0.4386
  644MOL0     H85001   8.403   4.050   9.618 -1.1597  1.8509  3.4483
  644MOL0     H85002   8.633   4.062   9.461  1.4317  1.0497  0.0611
  644MOL0     H85003   8.590   3.911   9.519 -3.9901  0.3520  0.2205
  644MOL0     H85004   8.759   4.016   9.735  1.4388  0.9833 -0.3786
  644MOL0     H85005   8.819   3.939   9.589 -1.9978 -0.8898  0.0742
  644MOL0     H85006   8.910   4.347   9.514 -3.5382  1.5111 -0.6927
  644MOL0     H85007   8.392   4.179   9.278 -0.8492  1.2358 -2.6802
  644MOL0     H85008   8.182   4.243   9.202 -1.4858 -0.2870 -0.0204
  645MOL0     O85009   7.440   5.674   8.635  0.6421  0.8219 -0.7018
  645MOL0     C85010   7.437   5.703   8.756  0.1178  0.3372 -0.1697
  645MOL0     O85011   7.328   5.719   8.837  0.1496 -0.7991  0.6769
  645MOL0     C85012   7.201   5.713   8.801  0.5104  0.0275  1.0291
  645MOL0     C85013   7.106   5.682   8.896 -0.0448 -0.3922 -0.3039
  645MOL0     C85014   6.966   5.689   8.863  0.4045  0.0040  0.2168
  645MOL0     C85015   6.922   5.704   8.729  0.7256  0.0664  0.2336
  645MOL0     O85016   6.794   5.705   8.685  0.1404  0.5880 -0.1836
  645MOL0     C85017   6.679   5.672   8.775  0.2019  0.6772  0.3543
  645MOL0     C85018   6.553   5.702   8.691  0.2118  0.6076 -1.0877
  645MOL0     C85019   6.430   5.654   8.781  0.0284  0.3395 -0.1700
  645MOL0     C85020   6.300   5.723   8.723 -0.4984 -0.1243 -0.5220
  645MOL0     C85021   6.223   5.634   8.615 -1.5411 -0.4677 -0.2758
  645MOL0     C85022   6.189   5.500   8.677  0.2967  0.4459 -0.2712
  645MOL0     C85023   6.036   5.462   8.673  0.5816  0.1175 -0.6285
  645MOL0     C85024   5.981   5.533   8.802  0.5358  0.5388  0.1404
  645MOL0     N85025   5.847   5.522   8.822  0.8217 -0.1679  0.1827
  645MOL0     C85026   5.756   5.622   8.776 -0.2219  0.4187  0.2383
  645MOL0     C85027   5.628   5.564   8.804 -0.1189 -1.0582  0.2507
  645MOL0     C85028   5.500   5.642   8.792 -0.7018 -0.0401 -0.5376
  645MOL0     C85029   5.395   5.599   8.894  1.4726 -0.1155 -1.0483
  645MOL0     C85030   5.428   5.650   9.037 -0.2780 -0.0381 -0.3512
  645MOL0     C85031   5.398   5.795   9.062  0.1316  0.5654 -0.3406
  645MOL0     O85032   5.250   5.816   9.072 -0.6650  0.1639  0.3356
  645MOL0     C85033   5.202   5.938   9.099  0.0830 -0.8166 -0.7258
  645MOL0     C85034   5.276   6.053   9.067  0.4509  0.5692  0.7543
  645MOL0     C85035   5.223   6.175   9.099  0.6040 -0.7014  0.9968
  645MOL0     C85036   5.106   6.200   9.172 -0.8204 -0.9844 -0.9472
  645MOL0     C85037   5.068   6.335   9.209  0.1071 -0.2515  0.2848
  645MOL0     O85038   4.959   6.341   9.291  0.2940 -0.0068  0.0389
  645MOL0     C85039   4.893   6.463   9.310 -0.3755  0.7269  0.3612
  645MOL0     C85040   4.801   6.509   9.208 -0.0622  0.1604 -0.7542
  645MOL0     C85041   4.733   6.630   9.215 -0.1331  0.8279  0.1115
  645MOL0     C85042   4.755   6.719   9.324  0.2697  0.0626 -0.3331
  645MOL0     O85043   4.693   6.833   9.335  0.1902  0.1873 -0.4780
  645MOL0     C85044   4.643   6.902   9.216  0.1760  0.0008  0.5758
  645MOL0     C85045   4.626   7.053   9.233  0.1038  0.4301  0.5241
  645MOL0     C85046   4.741   7.122   9.290  0.9896  0.3793  0.9644
  645MOL0     C85047   4.742   7.268   9.258 -0.2502 -1.6558 -0.5337
  645MOL0     C85048   4.618   7.330   9.322  0.6435 -0.5111 -0.4083
  645MOL0     C85049   4.610   7.485   9.315 -0.0772 -0.2148 -0.2992
  645MOL0     C85050   4.721   7.573   9.370  0.5169 -0.2081 -0.7166
  645MOL0     C85051   4.690   7.722   9.325  0.4363 -0.4579 -0.4673
  645MOL0    Cl85052   4.551   7.791   9.420 -0.0742 -0.3603 -0.0067
  645MOL0     C85053   4.841   6.670   9.423  0.1025  0.4254 -0.1886
  645MOL0     C85054   4.907   6.542   9.419  0.4318 -0.4915 -0.3398
  645MOL0     O85055   5.123   6.429   9.150 -0.2434 -0.8960 -0.3921
  645MOL0     C85056   5.030   6.088   9.196  1.1520  0.2413 -0.7627
  645MOL0     C85057   5.078   5.960   9.162  0.2734  0.3465 -0.0365
  645MOL0     N85058   5.643   5.437   8.857 -0.6281  0.1378 -0.7069
  645MOL0     N85059   5.772   5.409   8.872 -0.2694 -0.5062  0.0534
  645MOL0     C85060   7.025   5.741   8.636 -0.9324  0.0074  0.0405
  645MOL0     C85061   7.156   5.748   8.672  0.1140 -0.3739 -0.6771
  645MOL0     C85062   7.569   5.699   8.822 -0.8297 -0.6625  0.3200
  645MOL0     C85063   7.611   5.815   8.903 -0.0463  0.0569  0.6589
  645MOL0     C85064   7.743   5.825   8.946 -0.1424 -0.0088 -0.4722
  645MOL0     C85065   7.830   5.716   8.926  0.4429 -0.5605  0.7904
  645MOL0     O85066   7.952   5.703   8.960 -0.5970 -0.7545 -0.2131
  645MOL0     C85067   8.015   5.831   9.005 -0.6039  0.2445  1.3516
  645MOL0     C85068   8.162   5.799   9.021  0.2073 -0.4852  0.2578
  645MOL0     C85069   8.236   5.844   8.899 -0.2349 -0.2431  0.5394
  645MOL0     C85070   8.388   5.840   8.920 -0.2046 -0.6379 -0.7784
  645MOL0     C85071   8.445   5.947   9.011 -0.0916  0.5427 -0.0487
  645MOL0     C85072   8.488   6.024   9.089 -0.0768  0.0778  0.0558
  645MOL0     C85073   7.776   5.607   8.852 -1.0005  0.1586  0.6496
  645MOL0     C85074   7.656   5.601   8.788 -0.2955  0.0820 -0.6008
  645MOL0     H85075   7.141   5.646   8.992  0.9231 -1.8724 -1.1561
  645MOL0     H85076   6.894   5.668   8.941  0.7920  1.4291  0.9862
  645MOL0     H85077   6.684   5.744   8.858 -0.1389  0.7116  0.3441
  645MOL0     H85078   6.699   5.576   8.823 -0.7242  0.4028  0.1995
  645MOL0     H85079   6.538   5.650   8.596 -0.8469 -2.5165  0.6412
  645MOL0     H85080   6.554   5.810   8.678  2.8187  0.8142  0.2107
  645MOL0     H85081   6.449   5.693   8.881  2.1287 -2.0861  0.4833
  645MOL0     H85082   6.426   5.545   8.781 -2.0075  0.1980  4.2906
  645MOL0     H85083   6.222   5.729   8.799  1.4005 -5.4643  2.3575
  645MOL0     H85084   6.325   5.824   8.688 -1.9880  0.7822  0.9132
  645MOL0     H85085   6.302   5.620   8.541 -1.0161  1.4733 -0.1303
  645MOL0     H85086   6.138   5.681   8.566 -1.3295  0.8411  0.5653
  645MOL0     H85087   6.222   5.489   8.781  2.2659 -1.0082 -0.9744
  645MOL0     H85088   6.254   5.427   8.627  1.1253  0.4513  0.7482
  645MOL0     H85089   5.983   5.498   8.584 -1.6815 -4.2752 -1.3728
  645MOL0     H85090   6.023   5.353   8.672 -1.8294  0.3466 -1.3304
  645MOL0     H85091   6.013   5.637   8.790  0.6963  0.3779 -1.0054
  645MOL0     H85092   6.043   5.489   8.881  3.6934  1.3883 -1.6962
  645MOL0     H85093   5.783   5.720   8.739  1.9647 -1.4232 -3.6069
  645MOL0     H85094   5.449   5.622   8.697 -1.3318 -3.2403  0.3591
  645MOL0     H85095   5.510   5.751   8.801 -0.4231 -0.0642 -0.5337
  645MOL0     H85096   5.403   5.490   8.906  0.7011 -0.0382  0.4544
  645MOL0     H85097   5.294   5.627   8.864  2.1303  1.2573 -2.0755
  645MOL0     H85098   5.381   5.586   9.113  3.0893 -0.4308  1.6064
  645MOL0     H85099   5.535   5.642   9.058 -0.5181 -0.7194  0.6759
  645MOL0     H85100   5.451   5.865   8.996 -0.6401  1.4131 -0.0899
  645MOL0     H85101   5.434   5.828   9.160 -0.3779  1.1933 -0.3543
  645MOL0     H85102   5.369   6.053   9.011  0.2236 -3.0829  0.1361
  645MOL0     H85103   5.277   6.261   9.062  0.3374 -1.1272 -0.4298
  645MOL0     H85104   4.770   6.448   9.123 -2.0681 -0.3259  0.2720
  645MOL0     H85105   4.672   6.667   9.134  0.6856  0.7296 -0.5682
  645MOL0     H85106   4.553   6.856   9.175  0.3510 -0.7554  1.0207
  645MOL0     H85107   4.722   6.884   9.142 -0.8111 -0.7536 -0.3388
  645MOL0     H85108   4.538   7.070   9.296  1.3450 -4.5383  4.3110
  645MOL0     H85109   4.600   7.103   9.140 -0.3367  1.4367  1.1773
  645MOL0     H85110   4.840   7.089   9.257  1.4355  1.4386  1.2058
  645MOL0     H85111   4.741   7.109   9.398 -1.6927 -2.6061  0.7717
  645MOL0     H85112   4.834   7.312   9.298  0.1626 -0.5737 -2.5259
  645MOL0     H85113   4.742   7.285   9.150 -2.7957  0.9690 -0.2337
  645MOL0     H85114   4.613   7.309   9.430 -2.7307 -0.1926 -0.4110
  645MOL0     H85115   4.529   7.294   9.271 -0.6894  1.7663  0.1996
  645MOL0     H85116   4.523   7.506   9.378 -0.1476  0.4438 -0.6100
  645MOL0     H85117   4.585   7.520   9.215  1.2664 -1.7056 -1.1915
  645MOL0     H85118   4.712   7.584   9.479  1.6029 -1.2957 -0.4888
  645MOL0     H85119   4.825   7.545   9.350  1.9537  2.6781  1.8143
  645MOL0     H85120   4.673   7.734   9.218  1.9306 -1.7824 -0.8849
  645MOL0     H85121   4.780   7.776   9.355  1.2826 -2.3356  0.5681
  645MOL0     H85122   4.845   6.733   9.511  0.9456 -1.3274  1.0875
  645MOL0     H85123   4.981   6.527   9.497 -1.3607  1.6599  1.9109
  645MOL0     H85124   4.932   6.104   9.239  0.5608 -1.7440 -1.2316
  645MOL0     H85125   5.020   5.871   9.185  0.5848 -0.5810 -2.5649
  645MOL0     H85126   6.987   5.741   8.534 -2.9402 -3.0821  0.6382
  645MOL0     H85127   7.226   5.786   8.599  3.6642 -0.8207  2.2187
  645MOL0     H85128   7.540   5.895   8.919 -1.0104 -0.7436  0.5068
  645MOL0     H85129   7.768   5.909   9.011 -1.0426 -1.9006  2.5293
  645MOL0     H85130   7.968   5.865   9.098 -2.1446  0.3780  0.5527
  645MOL0     H85131   8.010   5.911   8.931  1.4244 -0.5696  0.2484
  645MOL0     H85132   8.196   5.855   9.109 -3.2680  2.5800 -0.1045
  645MOL0     H85133   8.167   5.692   9.042 -0.1812 -0.3495  1.1029
  645MOL0     H85134   8.219   5.948   8.871  2.7230 -0.0528 -0.9687
  645MOL0     H85135   8.219   5.780   8.811  0.0452 -0.4682  0.6453
  645MOL0     H85136   8.401   5.744   8.971  2.8512  0.5779  0.9838
  645MOL0     H85137   8.433   5.837   8.821 -3.2557 -3.6241 -2.2949
  645MOL0     H85138   8.533   6.096   9.154  2.7127  0.4324 -2.0798
  645MOL0     H85139   7.837   5.519   8.838 -1.5024 -0.3806  1.7277
  645MOL0     H85140   7.621   5.521   8.723 -2.0098  1.7549 -1.8572
  646MOL0     O85141  10.603   4.444   0.475 -0.8510  0.5589 -0.0882
  646MOL0     C85142  10.696   4.416   0.547  0.1585  0.0409 -0.1775
  646MOL0     O85143  10.712   4.314   0.641 -0.2995  0.0245  0.1993
  646MOL0     C85144  10.623   4.209   0.605  0.0372 -0.1787  0.3398
  646MOL0     C85145  10.667   4.089   0.540  0.1064 -0.1976 -0.2297
  646MOL0     C85146  10.573   3.985   0.518  0.7319 -0.3178  0.6665
  646MOL0     C85147  10.440   3.998   0.560 -0.5498  0.4557 -1.0627
  646MOL0     O85148  10.358   3.888   0.548 -0.1482 -0.4110 -0.3589
  646MOL0     C85149  10.234   3.892   0.610  0.1086  0.6995 -0.3551
  646MOL0     C85150  10.141   3.780   0.571  1.1513 -0.0279 -0.3106
  646MOL0     C85151   9.997   3.793   0.641 -0.5258 -0.0784  0.3209
  646MOL0     C85152   9.888   3.746   0.555  0.4466 -0.5453  0.3279
  646MOL0     C85153   9.759   3.790   0.618 -0.7543 -0.0412 -0.0849
  646MOL0     C85154   9.715   3.697   0.731  0.8003  0.8783 -0.2319
  646MOL0     C85155   9.573   3.708   0.754 -0.8413  0.0669 -0.2031
  646MOL0     C85156   9.529   3.601   0.850 -0.3728  0.4319 -0.2975
  646MOL0     N85157   9.436   3.638   0.952 -0.8620 -0.1570 -0.0561
  646MOL0     C85158   9.452   3.737   1.046  0.1803 -0.6968 -0.4226
  646MOL0     C85159   9.344   3.730   1.126  0.2777  0.0031  0.0521
  646MOL0     C85160   9.308   3.822   1.242 -0.3403 -0.3443  0.5043
  646MOL0     C85161   9.214   3.950   1.216  0.4108 -0.6290 -0.9345
  646MOL0     C85162   9.089   3.923   1.129 -0.5007 -0.2777  0.3348
  646MOL0     C85163   8.997   3.819   1.203 -0.0906 -0.1374  0.0317
  646MOL0     O85164   8.887   3.803   1.120 -0.6359 -0.1278 -0.5202
  646MOL0     C85165   8.777   3.752   1.192  0.1648  0.6721  0.1134
  646MOL0     C85166   8.781   3.697   1.319  0.8568 -0.0468 -0.6695
  646MOL0     C85167   8.670   3.658   1.386  0.3722  0.6476  0.5819
  646MOL0     C85168   8.546   3.669   1.330  0.6820  0.5608 -0.6510
  646MOL0     C85169   8.424   3.663   1.406  0.4663 -0.0715  0.5398
  646MOL0     O85170   8.304   3.694   1.333 -0.0861 -0.2880  0.1576
  646MOL0     C85171   8.179   3.644   1.377  0.1260 -0.5542  0.4303
  646MOL0     C85172   8.177   3.514   1.439  0.2901 -0.0110 -0.1225
  646MOL0     C85173   8.055   3.448   1.471 -0.1094 -0.4222  0.3776
  646MOL0     C85174   7.938   3.507   1.435  0.7550 -0.2432  0.5062
  646MOL0     O85175   7.817   3.445   1.448  0.8203 -0.5551  0.1841
  646MOL0     C85176   7.823   3.307   1.423 -0.6086  0.0484  0.4240
  646MOL0     C85177   7.683   3.262   1.375  1.1910 -0.3909 -0.2060
  646MOL0     C85178   7.587   3.249   1.486 -0.1508 -0.1651  1.2688
  646MOL0     C85179   7.452   3.196   1.431  0.1869 -0.4794  0.6105
  646MOL0     C85180   7.332   3.208   1.525 -0.1925  1.1639  0.4168
  646MOL0     C85181   7.204   3.135   1.454  0.0365 -0.5026 -0.5421
  646MOL0     C85182   7.085   3.156   1.549 -0.2416 -0.0694  0.0305
  646MOL0     C85183   6.953   3.116   1.492  0.1569 -0.1751  0.1931
  646MOL0    Cl85184   6.928   3.188   1.333  0.0058 -0.1355  0.0004
  646MOL0     C85185   7.940   3.636   1.380  0.2466  0.5005 -1.0023
  646MOL0     C85186   8.058   3.703   1.349  1.0797 -0.6710 -0.0992
  646MOL0     O85187   8.431   3.630   1.515  0.0786  0.0285 -0.4615
  646MOL0     C85188   8.543   3.728   1.194  0.4227  0.6435  0.8217
  646MOL0     C85189   8.656   3.764   1.131 -1.5746  0.3072 -0.3329
  646MOL0     N85190   9.270   3.618   1.078 -0.2966 -0.3134 -0.5731
  646MOL0     N85191   9.328   3.565   0.978 -0.3888  0.3261 -0.2275
  646MOL0     C85192  10.403   4.122   0.627 -0.8762 -0.3709  0.6732
  646MOL0     C85193  10.493   4.227   0.650 -0.2183 -0.2229 -0.2488
  646MOL0     C85194  10.816   4.500   0.521 -0.2180  0.4518 -0.9625
  646MOL0     C85195  10.913   4.508   0.618  0.3035 -0.5305  0.3827
  646MOL0     C85196  11.034   4.585   0.597 -1.2049 -0.1447 -0.0614
  646MOL0     C85197  11.059   4.644   0.473  0.4522 -0.5593  0.3336
  646MOL0     O85198  11.166   4.720   0.429  0.5094  0.0388 -0.3450
  646MOL0     C85199  11.278   4.728   0.521  0.6138 -0.6186 -0.4951
  646MOL0     C85200  11.276   4.875   0.575  0.2287 -0.3331 -0.0087
  646MOL0     C85201  11.334   4.878   0.719 -0.1179 -0.0306  0.2682
  646MOL0     C85202  11.314   5.010   0.796 -0.1490  0.3189  0.3589
  646MOL0     C85203  11.384   5.119   0.725  0.2114  0.4714  0.4964
  646MOL0     C85204  11.422   5.220   0.672  0.8707  0.2218  0.6872
  646MOL0     C85205  10.952   4.635   0.378 -0.1433 -0.2512 -0.2456
  646MOL0     C85206  10.838   4.563   0.399  0.0091  0.0675  0.2354
  646MOL0     H85207  10.774   4.082   0.523  0.2989  0.4974  0.6021
  646MOL0     H85208  10.602   3.901   0.456  0.6488 -0.5011  0.8767
  646MOL0     H85209  10.176   3.983   0.592 -1.7636 -0.7665 -2.4054
  646MOL0     H85210  10.247   3.886   0.718  0.8694  2.2961 -0.3345
  646MOL0     H85211  10.194   3.688   0.596  2.4277  0.1320 -2.2073
  646MOL0     H85212  10.120   3.790   0.464  0.0445  0.4110 -0.0650
  646MOL0     H85213   9.970   3.899   0.642  0.2121  0.2224 -2.7635
  646MOL0     H85214   9.995   3.739   0.736 -0.1555 -0.7634 -0.0519
  646MOL0     H85215   9.899   3.800   0.461 -2.2164  2.2899  1.4821
  646MOL0     H85216   9.885   3.638   0.535 -0.2679 -0.9007  2.0936
  646MOL0     H85217   9.682   3.784   0.541  0.0384  0.3221 -0.9317
  646MOL0     H85218   9.780   3.886   0.667  2.8565 -1.9547  2.6076
  646MOL0     H85219   9.775   3.719   0.819 -1.6048  0.3032  1.6699
  646MOL0     H85220   9.734   3.596   0.695  0.1532  0.1209  1.4675
  646MOL0     H85221   9.557   3.809   0.795  3.1677  1.8679 -2.4658
  646MOL0     H85222   9.510   3.708   0.665 -0.1133  1.3193 -0.7504
  646MOL0     H85223   9.613   3.542   0.889 -0.7238 -1.6105 -2.4363
  646MOL0     H85224   9.481   3.525   0.789  4.0989 -1.6618 -1.6809
  646MOL0     H85225   9.542   3.799   1.044  0.7119 -1.4148  0.3499
  646MOL0     H85226   9.400   3.864   1.281  1.8705 -1.1653 -3.3105
  646MOL0     H85227   9.270   3.756   1.320 -1.0111 -3.7666 -2.4420
  646MOL0     H85228   9.276   4.019   1.158  1.0736  1.5690  2.1461
  646MOL0     H85229   9.180   3.995   1.309 -1.6883  1.9561 -2.7765
  646MOL0     H85230   9.032   4.011   1.101  2.2650  0.8448 -2.3673
  646MOL0     H85231   9.121   3.875   1.036 -1.1761 -1.2910  0.6049
  646MOL0     H85232   8.986   3.854   1.306  0.2763  2.1755 -0.6619
  646MOL0     H85233   9.054   3.726   1.210 -0.2328 -0.2090  0.2423
  646MOL0     H85234   8.874   3.684   1.374  1.0767  2.5452 -0.2875
  646MOL0     H85235   8.689   3.642   1.492  0.0725 -0.3452  0.5013
  646MOL0     H85236   8.263   3.452   1.464 -0.4830 -0.8281  0.5694
  646MOL0     H85237   8.052   3.350   1.518 -3.2711 -1.3587 -1.4835
  646MOL0     H85238   7.851   3.259   1.517  1.7665 -3.1012 -1.7152
  646MOL0     H85239   7.889   3.272   1.343 -0.3098  0.9517  0.2637
  646MOL0     H85240   7.686   3.159   1.339 -0.3855 -0.8460  0.8703
  646MOL0     H85241   7.644   3.320   1.291 -0.0466 -2.8736 -1.4620
  646MOL0     H85242   7.583   3.348   1.533  0.4630  0.4443  0.0951
  646MOL0     H85243   7.628   3.180   1.560  1.4398 -0.5600  0.0709
  646MOL0     H85244   7.422   3.262   1.349  2.0718  2.1223  1.8706
  646MOL0     H85245   7.467   3.094   1.395 -1.3617 -0.0407 -1.4782
  646MOL0     H85246   7.306   3.313   1.538  0.5179  1.6410 -1.6259
  646MOL0     H85247   7.335   3.166   1.626 -4.7464 -1.0573 -0.0834
  646MOL0     H85248   7.217   3.026   1.453 -0.6878 -0.6015  0.1965
  646MOL0     H85249   7.195   3.173   1.352  0.2456 -2.1241 -1.2040
  646MOL0     H85250   7.099   3.122   1.652  1.6636  1.2740  0.2839
  646MOL0     H85251   7.088   3.265   1.557 -1.4647  0.1503 -1.9231
  646MOL0     H85252   6.874   3.145   1.562  1.0792  0.9917  0.7751
  646MOL0     H85253   6.959   3.007   1.483  2.7261 -0.1738  1.0570
  646MOL0     H85254   7.847   3.691   1.370  0.3602  1.1190  0.8836
  646MOL0     H85255   8.051   3.803   1.307  1.5597 -1.3206 -1.8138
  646MOL0     H85256   8.450   3.751   1.144 -1.2358 -2.8672  1.9524
  646MOL0     H85257   8.659   3.802   1.029  4.0260  1.8973  0.0937
  646MOL0     H85258  10.304   4.143   0.668 -0.5868  5.7345 -0.8353
  646MOL0     H85259  10.459   4.315   0.704 -1.7263 -1.8569  1.6301
  646MOL0     H85260  10.912   4.458   0.715 -0.1837 -0.9182  0.1867
  646MOL0     H85261  11.101   4.579   0.682 -0.1297  0.8626 -0.8084
  646MOL0     H85262  11.361   4.696   0.456 -0.8131 -1.9283 -1.7640
  646MOL0     H85263  11.264   4.652   0.598  0.2373  1.6947  1.8252
  646MOL0     H85264  11.328   4.941   0.505  0.5781  0.8321  1.2953
  646MOL0     H85265  11.175   4.917   0.587 -0.6705 -2.9259  3.3477
  646MOL0     H85266  11.443   4.866   0.713  0.2380  1.4462  2.3791
  646MOL0     H85267  11.291   4.801   0.784 -0.9230  0.8624  0.8215
  646MOL0     H85268  11.209   5.033   0.817 -0.6909 -2.5402  1.1927
  646MOL0     H85269  11.350   5.015   0.899 -3.4687 -0.9130  1.7107
  646MOL0     H85270  11.441   5.307   0.612  0.8158 -1.5722 -2.1277
  646MOL0     H85271  10.964   4.692   0.287 -3.9378  2.6083  0.7832
  646MOL0     H85272  10.771   4.552   0.314 -0.2248 -0.0025  0.4288
  647MOL0     O85273   9.184   1.521   4.461 -0.4024 -0.8008  0.7019
  647MOL0     C85274   9.215   1.517   4.336  0.3852 -0.2099 -0.2360
  647MOL0     O85275   9.267   1.413   4.272  0.2236  1.1125  0.1535
  647MOL0     C85276   9.280   1.295   4.347  0.4810 -0.5515  0.8588
  647MOL0     C85277   9.406   1.257   4.389  0.1054  0.3092 -0.0587
  647MOL0     C85278   9.413   1.130   4.456 -0.9599 -0.0543 -0.4693
  647MOL0     C85279   9.304   1.043   4.461 -0.6075 -0.8084  0.3774
  647MOL0     O85280   9.324   0.910   4.478  0.4555 -0.4896 -0.1848
  647MOL0     C85281   9.450   0.867   4.521  0.4694 -0.4508  0.6493
  647MOL0     C85282   9.427   0.718   4.545  0.6460 -0.3774  0.2301
  647MOL0     C85283   9.557   0.652   4.608  0.8062  0.5172 -0.5669
  647MOL0     C85284   9.524   0.506   4.642 -0.0476  0.2637 -0.0529
  647MOL0     C85285   9.652   0.461   4.711 -0.2739 -0.3752  0.0551
  647MOL0     C85286   9.645   0.307   4.737 -0.4621  0.0263 -0.1228
  647MOL0     C85287   9.658   0.237   4.608 -0.2217  0.5548  0.9230
  647MOL0     C85288   9.681   0.089   4.627  0.3476 -0.0680 -0.1134
  647MOL0     N85289   9.773   0.041   4.729  0.5534  0.4062 -0.1340
  647MOL0     C85290   9.910   0.047   4.721 -0.2254 -0.2324 -0.2870
  647MOL0     C85291   9.963   0.015   4.844 -0.1508  0.1639  0.3149
  647MOL0     C85292  10.108   0.009   4.879  0.6062  0.4869  0.2333
  647MOL0     C85293  10.172  -0.124   4.847  0.1281  0.4645 -0.5622
  647MOL0     C85294  10.109  -0.235   4.935  1.2506 -0.2755 -0.2722
  647MOL0     C85295  10.166  -0.375   4.901 -0.4219  0.0889  0.5794
  647MOL0     O85296  10.152  -0.414   4.765 -0.2210  0.2169 -0.0319
  647MOL0     C85297  10.029  -0.446   4.708 -1.2171 -0.9371  1.2717
  647MOL0     C85298   9.940  -0.556   4.749  0.5826 -0.4415  0.7449
  647MOL0     C85299   9.824  -0.584   4.668 -0.0524  0.1626 -0.9314
  647MOL0     C85300   9.797  -0.508   4.558  0.3164 -0.2853 -0.2100
  647MOL0     C85301   9.669  -0.533   4.493  0.5479  0.7384  0.1090
  647MOL0     O85302   9.621  -0.656   4.514 -0.0696 -1.3275 -0.4362
  647MOL0     C85303   9.490  -0.688   4.478 -0.4006 -0.2678 -0.9895
  647MOL0     C85304   9.467  -0.827   4.451 -0.7238 -0.1741 -1.2098
  647MOL0     C85305   9.338  -0.880   4.436  0.1240  0.0378 -0.5142
  647MOL0     C85306   9.232  -0.795   4.436 -0.2199  0.6842  1.6487
  647MOL0     O85307   9.111  -0.855   4.414 -0.3405 -0.3945 -0.1174
  647MOL0     C85308   9.041  -0.803   4.306 -0.8445 -0.4704 -0.4198
  647MOL0     C85309   8.938  -0.906   4.275  0.0536  0.3301  0.1399
  647MOL0     C85310   8.830  -0.857   4.180  0.5785 -0.0737 -0.4810
  647MOL0     C85311   8.723  -0.968   4.140  1.0502 -0.2938  0.7698
  647MOL0     C85312   8.628  -0.907   4.033 -0.0149 -0.3527  0.8878
  647MOL0     C85313   8.491  -0.973   4.030 -1.2475  0.2694  0.3811
  647MOL0     C85314   8.471  -1.130   4.005  0.2229  0.3162  1.0499
  647MOL0     C85315   8.325  -1.157   4.032  0.1332 -0.3980 -0.0205
  647MOL0    Cl85316   8.269  -1.116   4.195 -0.6077 -0.2276  0.1818
  647MOL0     C85317   9.249  -0.658   4.453 -0.0859 -0.2066 -0.3870
  647MOL0     C85318   9.381  -0.600   4.472 -0.1697  0.5319 -0.0641
  647MOL0     O85319   9.629  -0.451   4.414 -0.8709 -0.7364  0.3788
  647MOL0     C85320   9.877  -0.400   4.525  0.0704  0.1843  0.0493
  647MOL0     C85321   9.998  -0.374   4.591  0.1031  0.0011 -0.0756
  647MOL0     N85322   9.851  -0.008   4.928 -0.5737  0.2103  0.3244
  647MOL0     N85323   9.737   0.002   4.851 -0.6373 -0.0319 -0.0369
  647MOL0     C85324   9.182   1.087   4.409 -0.1365 -0.3738  0.4731
  647MOL0     C85325   9.165   1.209   4.353 -0.1226  0.6549  0.0202
  647MOL0     C85326   9.192   1.632   4.256 -0.2143 -1.0200  0.1583
  647MOL0     C85327   9.110   1.732   4.313  0.1461  0.4051  0.2641
  647MOL0     C85328   9.101   1.857   4.244 -0.9382  0.0039  0.3949
  647MOL0     C85329   9.166   1.878   4.122 -0.6983  0.7178  0.8499
  647MOL0     O85330   9.174   1.994   4.053  0.0239 -0.6941  0.0575
  647MOL0     C85331   9.070   2.091   4.084 -0.5972 -0.5427  0.6195
  647MOL0     C85332   9.045   2.190   3.969 -0.7362 -0.4702  0.1229
  647MOL0     C85333   9.014   2.120   3.843  0.3158  0.1647  0.0485
  647MOL0     C85334   8.962   2.211   3.721 -0.4322 -0.6221  0.1204
  647MOL0     C85335   8.816   2.205   3.718 -0.2966 -0.3004 -0.0031
  647MOL0     C85336   8.700   2.210   3.687 -0.6839  0.9337  0.3061
  647MOL0     C85337   9.254   1.775   4.076  0.3428 -0.4044 -0.3059
  647MOL0     C85338   9.272   1.654   4.141  0.5503 -0.0754  0.5692
  647MOL0     H85339   9.493   1.314   4.361 -0.2181  0.9004  0.1102
  647MOL0     H85340   9.517   1.107   4.480 -0.7612 -0.7265 -1.8626
  647MOL0     H85341   9.496   0.919   4.606  4.2818 -1.3264 -0.6869
  647MOL0     H85342   9.519   0.890   4.440  0.6235  4.0316  1.8208
  647MOL0     H85343   9.411   0.674   4.446 -0.1848  1.9804 -0.7717
  647MOL0     H85344   9.339   0.713   4.609 -0.2657  3.1962 -0.5223
  647MOL0     H85345   9.591   0.689   4.705 -0.3618  3.0179 -1.0334
  647MOL0     H85346   9.634   0.653   4.530  2.0072  3.7424  0.4700
  647MOL0     H85347   9.436   0.482   4.702 -0.3982  0.1907 -0.5930
  647MOL0     H85348   9.513   0.456   4.545  3.1223 -0.4582 -0.1540
  647MOL0     H85349   9.675   0.509   4.807  1.8345 -0.8061 -0.1701
  647MOL0     H85350   9.735   0.474   4.640 -0.8631  0.7481 -0.4401
  647MOL0     H85351   9.563   0.279   4.804 -2.0256  0.0494 -1.9487
  647MOL0     H85352   9.744   0.299   4.782  1.4579  2.4147 -3.4632
  647MOL0     H85353   9.566   0.255   4.552 -0.2281  0.0342  0.7611
  647MOL0     H85354   9.735   0.286   4.548  1.9758 -1.2688  2.1104
  647MOL0     H85355   9.717   0.047   4.532  3.1888 -1.2563  1.3746
  647MOL0     H85356   9.591   0.050   4.675  1.6961  0.9075  3.5231
  647MOL0     H85357   9.967   0.081   4.635 -1.7452  2.7409 -0.2418
  647MOL0     H85358  10.123   0.041   4.982  0.7812  0.1177  0.3239
  647MOL0     H85359  10.154   0.092   4.824  3.0825  1.7211  3.8392
  647MOL0     H85360  10.280  -0.137   4.860  0.3589  0.4863 -2.2355
  647MOL0     H85361  10.146  -0.137   4.741  1.0959  1.5317 -0.9592
  647MOL0     H85362  10.125  -0.225   5.043  0.1150  0.0566 -0.1245
  647MOL0     H85363  10.001  -0.249   4.921  0.8704 -2.7667  3.3697
  647MOL0     H85364  10.115  -0.445   4.968 -2.1823  1.2754  0.5449
  647MOL0     H85365  10.274  -0.381   4.917 -0.1709 -1.2183 -1.2809
  647MOL0     H85366   9.973  -0.626   4.824  0.4798  1.9389  3.1784
  647MOL0     H85367   9.764  -0.666   4.706 -1.1554  0.7070 -1.4476
  647MOL0     H85368   9.546  -0.901   4.444 -1.4081 -1.0897  0.3118
  647MOL0     H85369   9.319  -0.987   4.427  3.5320 -1.0757  2.9581
  647MOL0     H85370   9.113  -0.781   4.226 -0.3700 -0.4607  0.0089
  647MOL0     H85371   8.986  -0.714   4.340  1.0772  1.4252 -1.9279
  647MOL0     H85372   8.879  -0.931   4.363  0.9895 -0.8640  0.4442
  647MOL0     H85373   8.989  -0.998   4.246  0.9827 -0.0046  2.6382
  647MOL0     H85374   8.880  -0.818   4.090  0.1550 -0.3526 -0.8378
  647MOL0     H85375   8.776  -0.775   4.228  0.8260  1.9998 -3.4455
  647MOL0     H85376   8.768  -1.062   4.106  1.7123 -0.7911  2.8511
  647MOL0     H85377   8.662  -0.996   4.226  1.4167  2.3978  2.0199
  647MOL0     H85378   8.665  -0.919   3.931 -1.6532 -2.8408  0.4722
  647MOL0     H85379   8.607  -0.803   4.059 -1.6222 -1.0399  2.5572
  647MOL0     H85380   8.430  -0.923   3.954 -2.6639 -3.4181 -1.1028
  647MOL0     H85381   8.444  -0.957   4.128 -3.3702 -3.7716  0.2311
  647MOL0     H85382   8.506  -1.156   3.904 -1.5487 -1.2948  0.8153
  647MOL0     H85383   8.527  -1.188   4.078  0.6579 -2.2042 -1.1341
  647MOL0     H85384   8.305  -1.265   4.028  0.6737 -0.6773  2.8245
  647MOL0     H85385   8.272  -1.100   3.955  0.2622 -2.3758 -1.6673
  647MOL0     H85386   9.163  -0.592   4.445  0.5135  0.4821 -1.4996
  647MOL0     H85387   9.397  -0.496   4.499  3.3082  0.2054 -0.4429
  647MOL0     H85388   9.853  -0.364   4.425  0.2632 -0.7455 -0.3430
  647MOL0     H85389  10.074  -0.308   4.550 -1.4625  2.1772  0.3221
  647MOL0     H85390   9.094   1.023   4.416 -1.3618  0.9408 -1.7382
  647MOL0     H85391   9.069   1.250   4.325  0.3720  2.5338  0.9280
  647MOL0     H85392   9.071   1.715   4.413 -0.0084 -4.8530 -0.4061
  647MOL0     H85393   9.046   1.941   4.284  0.1390  1.4117 -0.9243
  647MOL0     H85394   9.096   2.153   4.170  1.6395 -1.3850  0.6300
  647MOL0     H85395   8.978   2.046   4.120  0.7804 -2.6223  1.7680
  647MOL0     H85396   8.970   2.259   4.009 -1.1251 -1.8600  1.9433
  647MOL0     H85397   9.131   2.254   3.946  0.0383 -0.6472  2.3028
  647MOL0     H85398   8.929   2.051   3.854 -0.1208  0.7207  0.2115
  647MOL0     H85399   9.099   2.060   3.809 -1.8030 -3.5280  0.7104
  647MOL0     H85400   8.998   2.314   3.728 -0.3113 -0.6487 -0.1057
  647MOL0     H85401   8.996   2.167   3.627  0.9270  0.2045  0.2015
  647MOL0     H85402   8.604   2.227   3.643  0.2153 -0.0840 -2.2513
  647MOL0     H85403   9.312   1.805   3.990 -1.2267  2.2402 -0.5698
  647MOL0     H85404   9.356   1.588   4.125  0.5233 -0.5104  2.0677
  648MOL0     O85405   8.837   1.683   4.976  0.2245 -0.3810 -0.8316
  648MOL0     C85406   8.761   1.771   5.011  0.0656 -0.6945 -1.0156
  648MOL0     O85407   8.787   1.891   5.073  0.2120  0.3011  0.3051
  648MOL0     C85408   8.919   1.915   5.110  1.1174  0.2896 -0.3257
  648MOL0     C85409   8.993   1.998   5.029 -0.0794 -0.2333 -0.5581
  648MOL0     C85410   9.130   2.013   5.055  0.7334 -0.3427  0.9654
  648MOL0     C85411   9.185   1.940   5.160 -0.1756  1.5385  0.3649
  648MOL0     O85412   9.324   1.948   5.173 -0.0567 -0.5936  0.2397
  648MOL0     C85413   9.396   1.862   5.260 -0.1844 -0.4849 -0.4249
  648MOL0     C85414   9.549   1.886   5.261  0.6369 -0.0566  0.1214
  648MOL0     C85415   9.604   2.018   5.327  0.0652 -0.3268 -0.3628
  648MOL0     C85416   9.739   2.009   5.380 -0.0443 -0.2826  0.3703
  648MOL0     C85417   9.787   2.136   5.462  0.2650  0.0890  0.4925
  648MOL0     C85418   9.845   2.101   5.594  0.3512 -0.4307 -0.2997
  648MOL0     C85419   9.917   2.221   5.658 -0.4601  0.2765  0.7360
  648MOL0     C85420  10.063   2.250   5.609  0.1677 -0.4264 -0.0861
  648MOL0     N85421  10.152   2.150   5.650 -0.9192  0.6111 -0.4084
  648MOL0     C85422  10.197   2.121   5.778  1.0221  1.2927 -0.2684
  648MOL0     C85423  10.267   2.007   5.767  0.0478 -0.2080 -0.4529
  648MOL0     C85424  10.338   1.922   5.872 -0.5033  0.6693 -0.8563
  648MOL0     C85425  10.412   2.013   5.970  0.8848  0.3165  0.2626
  648MOL0     C85426  10.499   1.918   6.062 -0.4649  0.8903  0.5407
  648MOL0     C85427  10.434   1.848   6.179 -0.2103 -0.2715  0.6354
  648MOL0     O85428  10.373   1.943   6.265  0.3099 -0.8952 -0.3548
  648MOL0     C85429  10.230   1.950   6.274 -0.3778  0.4897  0.0595
  648MOL0     C85430  10.187   2.028   6.391 -0.5149 -0.6915  0.0351
  648MOL0     C85431  10.053   2.033   6.427  0.6218  0.5796 -0.1433
  648MOL0     C85432   9.960   1.953   6.359 -0.7708  0.1534 -0.9332
  648MOL0     C85433   9.823   1.945   6.424 -0.5662  0.0776 -0.2000
  648MOL0     O85434   9.752   1.837   6.383  0.1968  0.1482 -0.1440
  648MOL0     C85435   9.619   1.843   6.340  0.2487  0.5657 -0.2769
  648MOL0     C85436   9.562   1.965   6.300  0.0726  0.7282  0.0373
  648MOL0     C85437   9.436   1.975   6.239  0.2962  0.2058  0.4813
  648MOL0     C85438   9.357   1.862   6.230 -0.6512 -0.4176 -0.5153
  648MOL0     O85439   9.234   1.880   6.177  0.0819 -0.3426 -0.9984
  648MOL0     C85440   9.134   1.781   6.175  0.0084  0.4311  0.7744
  648MOL0     C85441   9.011   1.848   6.120 -0.0362  0.0994  0.9548
  648MOL0     C85442   8.898   1.743   6.100  0.1695 -0.1115  0.7890
  648MOL0     C85443   8.780   1.814   6.022  1.1140  0.4937 -0.0019
  648MOL0     C85444   8.822   1.848   5.880  0.5919 -0.4556  0.7508
  648MOL0     C85445   8.711   1.832   5.777 -0.3138 -0.5897 -0.2783
  648MOL0     C85446   8.747   1.878   5.628 -0.1124 -0.9545 -0.0897
  648MOL0     C85447   8.643   1.962   5.568 -0.6234 -0.7102  1.1706
  648MOL0    Cl85448   8.490   1.871   5.530 -0.3344 -0.2620  0.3436
  648MOL0     C85449   9.413   1.737   6.267  0.7470  0.5994  0.1178
  648MOL0     C85450   9.543   1.724   6.321  0.8239  0.1849 -0.5491
  648MOL0     O85451   9.785   2.041   6.490  0.4119  0.2705  0.2051
  648MOL0     C85452   9.998   1.877   6.253 -0.2262  0.2952  0.0287
  648MOL0     C85453  10.131   1.880   6.206 -0.3461 -0.6098 -0.2267
  648MOL0     N85454  10.283   1.979   5.636 -0.3457  0.7845 -0.0057
  648MOL0     N85455  10.210   2.062   5.567 -0.3854  0.2137 -0.3213
  648MOL0     C85456   9.115   1.855   5.240 -0.5122 -0.1808 -0.9338
  648MOL0     C85457   8.978   1.850   5.219  0.1802  0.6832 -0.9551
  648MOL0     C85458   8.616   1.746   4.992  0.1314 -0.5728 -0.0105
  648MOL0     C85459   8.570   1.615   4.948 -0.6817  0.0924 -0.3912
  648MOL0     C85460   8.432   1.588   4.944  0.1729 -0.4092 -0.4852
  648MOL0     C85461   8.337   1.674   4.991  0.5513  0.0209  0.0462
  648MOL0     O85462   8.206   1.625   4.999 -0.3558  0.0176 -0.2354
  648MOL0     C85463   8.102   1.709   5.057 -0.4702  0.6658 -0.2476
  648MOL0     C85464   7.966   1.636   5.042 -0.7584 -1.0646 -0.2915
  648MOL0     C85465   7.942   1.550   5.163 -0.2106  1.0959  0.0281
  648MOL0     C85466   7.809   1.460   5.152 -0.8535 -0.9916 -0.6918
  648MOL0     C85467   7.818   1.380   5.028 -0.2865  0.2342  0.1924
  648MOL0     C85468   7.836   1.348   4.910 -0.6205 -0.2356 -0.2555
  648MOL0     C85469   8.376   1.797   5.031  0.4266  0.7191 -0.3149
  648MOL0     C85470   8.511   1.836   5.017  0.9860  0.0016 -0.1453
  648MOL0     H85471   8.951   2.039   4.938 -0.3121  0.0682 -0.3175
  648MOL0     H85472   9.191   2.070   4.986  0.3188 -1.1211 -0.0683
  648MOL0     H85473   9.382   1.756   5.236  1.4698 -1.1776  1.3460
  648MOL0     H85474   9.365   1.884   5.363 -0.7503 -0.2311 -0.6488
  648MOL0     H85475   9.582   1.890   5.157  0.2966 -1.6159 -0.0730
  648MOL0     H85476   9.599   1.800   5.307  0.1439 -0.0260  0.7109
  648MOL0     H85477   9.530   2.039   5.405  2.1424  0.4381  1.5338
  648MOL0     H85478   9.617   2.098   5.253  3.0410 -0.1411  0.2100
  648MOL0     H85479   9.728   1.924   5.447  0.9328 -2.3332 -1.8937
  648MOL0     H85480   9.814   2.001   5.300 -0.5432 -2.2779  0.0545
  648MOL0     H85481   9.701   2.200   5.482  1.2145  0.5285  3.7336
  648MOL0     H85482   9.866   2.185   5.405  2.4062 -3.1143  0.4451
  648MOL0     H85483   9.918   2.022   5.574  0.3354 -0.5755  0.2092
  648MOL0     H85484   9.754   2.061   5.641 -1.4765  1.0120 -2.3499
  648MOL0     H85485   9.855   2.310   5.642  2.1551  2.6386  2.7772
  648MOL0     H85486   9.922   2.204   5.766  0.0059  3.0449  1.2280
  648MOL0     H85487  10.104   2.344   5.647  0.6173 -0.2705 -0.9387
  648MOL0     H85488  10.051   2.271   5.502  0.6303  2.7016  0.3753
  648MOL0     H85489  10.174   2.168   5.873  1.2325 -1.6868  1.4008
  648MOL0     H85490  10.398   1.849   5.817 -1.4516  0.1875 -1.2903
  648MOL0     H85491  10.263   1.863   5.925 -0.8207  3.0588  1.5418
  648MOL0     H85492  10.341   2.066   6.034 -1.1614 -1.5505 -0.3499
  648MOL0     H85493  10.475   2.089   5.922  1.4095  0.0662  0.5382
  648MOL0     H85494  10.556   1.846   6.002  0.1402  2.7974 -1.2617
  648MOL0     H85495  10.580   1.972   6.112  0.0551 -0.3965  1.1363
  648MOL0     H85496  10.519   1.803   6.231  0.5671 -1.3614 -1.4523
  648MOL0     H85497  10.365   1.768   6.150 -0.4069 -1.2767  3.5177
  648MOL0     H85498  10.274   2.081   6.430  0.1824  0.1371 -2.4568
  648MOL0     H85499  10.029   2.072   6.525 -0.0921  0.0945 -0.1190
  648MOL0     H85500   9.624   2.053   6.312 -0.3466  0.6759  4.1576
  648MOL0     H85501   9.417   2.067   6.184 -1.8616  0.3488  1.3611
  648MOL0     H85502   9.124   1.745   6.278  3.3410 -2.4417  0.2881
  648MOL0     H85503   9.166   1.698   6.112  0.5115  0.4186  1.0388
  648MOL0     H85504   9.037   1.900   6.027  2.4087  0.0840  1.5747
  648MOL0     H85505   8.966   1.926   6.182 -1.4895 -0.6941  0.9397
  648MOL0     H85506   8.872   1.713   6.202  3.4499  1.3503  2.1848
  648MOL0     H85507   8.928   1.660   6.035 -2.2821  0.4265 -1.2062
  648MOL0     H85508   8.688   1.755   6.017  0.0730  1.3102  4.5305
  648MOL0     H85509   8.744   1.898   6.082 -1.9732 -0.4480 -0.3224
  648MOL0     H85510   8.888   1.765   5.855 -1.9938 -1.8698 -2.0383
  648MOL0     H85511   8.877   1.941   5.861 -1.3936  0.6300 -0.0203
  648MOL0     H85512   8.629   1.899   5.804  2.2761  2.5651  0.3567
  648MOL0     H85513   8.674   1.729   5.780  0.2359 -0.8525 -1.8529
  648MOL0     H85514   8.839   1.937   5.639 -0.7369  0.7024 -2.7165
  648MOL0     H85515   8.769   1.790   5.568 -2.0892  0.1637 -2.6743
  648MOL0     H85516   8.682   1.998   5.473 -2.8663 -1.6512 -0.1865
  648MOL0     H85517   8.623   2.044   5.638  2.7410  2.1577 -0.9140
  648MOL0     H85518   9.361   1.642   6.271  1.6404  0.0961  0.1011
  648MOL0     H85519   9.591   1.632   6.351 -2.2593 -1.9258 -1.6888
  648MOL0     H85520   9.920   1.822   6.200 -2.3664  4.0087 -1.0467
  648MOL0     H85521  10.159   1.820   6.120 -0.5144  1.9957 -2.2296
  648MOL0     H85522   9.151   1.803   5.329 -2.0099  0.5250  0.1238
  648MOL0     H85523   8.906   1.798   5.281  0.3082  2.1040  0.4674
  648MOL0     H85524   8.633   1.534   4.913 -2.0257 -0.7356 -0.9845
  648MOL0     H85525   8.394   1.490   4.917 -1.4029 -0.6041  2.1290
  648MOL0     H85526   8.105   1.795   4.989 -2.6274  2.7374  2.0642
  648MOL0     H85527   8.124   1.738   5.160  0.8009 -1.4266  0.1240
  648MOL0     H85528   7.889   1.713   5.035  0.0749 -0.1944 -0.0789
  648MOL0     H85529   7.968   1.585   4.945  1.1394  2.7237 -2.4653
  648MOL0     H85530   7.935   1.623   5.244 -2.3735 -0.2321  1.1228
  648MOL0     H85531   8.025   1.482   5.185 -2.0530 -0.9741  0.9478
  648MOL0     H85532   7.797   1.418   5.252  1.9378  1.9992  1.1385
  648MOL0     H85533   7.729   1.534   5.161  0.8257  0.7381  1.1541
  648MOL0     H85534   7.858   1.317   4.810 -0.1222  2.2507 -0.9897
  648MOL0     H85535   8.297   1.870   5.048 -2.6813 -2.1629 -1.3696
  648MOL0     H85536   8.531   1.939   5.043 -2.0538  0.2055  1.8278
  649MOL0     O85537   3.687  10.699   5.854 -0.2502 -0.6472 -0.1255
  649MOL0     C85538   3.757  10.796   5.803 -0.7897 -0.4015 -0.0851
  649MOL0     O85539   3.732  10.858   5.687  0.5305 -0.4106  0.0641
  649MOL0     C85540   3.610  10.847   5.617 -0.2972 -0.1636 -0.8136
  649MOL0     C85541   3.526  10.743   5.611 -0.2462  0.4229  0.1722
  649MOL0     C85542   3.398  10.753   5.550  0.4714  0.5668 -0.6730
  649MOL0     C85543   3.368  10.864   5.474  0.6816  0.2991  0.3581
  649MOL0     O85544   3.247  10.876   5.404 -0.1759  0.1476 -0.4919
  649MOL0     C85545   3.116  10.821   5.453  0.2253 -0.7553  0.0865
  649MOL0     C85546   2.993  10.902   5.404 -0.3209 -0.1507  0.4314
  649MOL0     C85547   2.981  10.892   5.244  0.4480  0.1250 -0.3927
  649MOL0     C85548   2.850  10.959   5.203 -0.4536 -0.2385  0.1797
  649MOL0     C85549   2.816  10.963   5.051 -0.1115  0.4718 -0.3405
  649MOL0     C85550   2.674  10.998   5.044  0.4510  0.6656 -0.4495
  649MOL0     C85551   2.619  10.957   4.906  0.2829 -0.2330 -0.2095
  649MOL0     C85552   2.476  11.018   4.880  0.7129 -0.8378 -0.1752
  649MOL0     N85553   2.364  10.925   4.921 -0.3059  0.0876 -0.8169
  649MOL0     C85554   2.320  10.824   4.840  0.1644  0.6479  0.1780
  649MOL0     C85555   2.213  10.774   4.903  0.6957  0.3950  0.6443
  649MOL0     C85556   2.128  10.678   4.821  0.6990  0.0631  0.4384
  649MOL0     C85557   2.091  10.545   4.901 -0.3146 -0.7365 -0.0303
  649MOL0     C85558   1.977  10.469   4.825  0.7355 -0.8519  0.7983
  649MOL0     C85559   1.926  10.326   4.882  0.3493 -0.8762 -0.7826
  649MOL0     O85560   1.879  10.238   4.783  0.0267  0.1826  0.5049
  649MOL0     C85561   1.768  10.274   4.706  0.0691  0.9289  0.5915
  649MOL0     C85562   1.675  10.363   4.756 -0.1390 -0.2120  0.6003
  649MOL0     C85563   1.552  10.377   4.692  0.2979 -0.3225 -0.5202
  649MOL0     C85564   1.520  10.296   4.577  0.2945  0.5490 -0.0965
  649MOL0     C85565   1.382  10.297   4.523  0.3506 -0.3090 -0.4434
  649MOL0     O85566   1.357  10.208   4.421  0.0116 -0.6987 -0.5128
  649MOL0     C85567   1.244  10.225   4.344 -0.4279  0.2690  0.2266
  649MOL0     C85568   1.246  10.161   4.215 -0.3796 -0.0037 -0.3894
  649MOL0     C85569   1.130  10.172   4.133  0.5085  0.3870 -0.9417
  649MOL0     C85570   1.012  10.227   4.183  0.0836  1.0127 -0.3313
  649MOL0     O85571   0.908  10.245   4.096 -0.4010  0.3149 -0.0696
  649MOL0     C85572   0.849  10.374   4.073 -0.0283  0.3636  0.0147
  649MOL0     C85573   0.699  10.381   4.121  0.5065 -0.0079 -0.3775
  649MOL0     C85574   0.662  10.521   4.175  0.7377  0.1250  0.2024
  649MOL0     C85575   0.639  10.610   4.052 -0.0550  1.8478  1.0013
  649MOL0     C85576   0.639  10.756   4.103  0.9934  0.1712 -0.1120
  649MOL0     C85577   0.607  10.854   3.984  0.2890 -0.1940 -0.2944
  649MOL0     C85578   0.591  11.006   4.018  0.1253 -0.4553 -0.2477
  649MOL0     C85579   0.595  11.089   3.889 -0.5907 -0.5687 -0.9844
  649MOL0    Cl85580   0.430  11.109   3.821  0.5968  0.7113  0.0087
  649MOL0     C85581   1.007  10.278   4.310 -0.0251  0.6031  1.0620
  649MOL0     C85582   1.117  10.277   4.384 -1.2206  0.0745 -0.1655
  649MOL0     O85583   1.307  10.376   4.570 -0.7536 -0.1844 -0.0182
  649MOL0     C85584   1.615  10.212   4.530 -0.3279  0.0314 -0.4831
  649MOL0     C85585   1.737  10.200   4.588 -1.1018  0.1827  0.1075
  649MOL0     N85586   2.197  10.843   5.020  1.1905  0.3873  0.4157
  649MOL0     N85587   2.287  10.931   5.036  0.3961  0.7261  0.1333
  649MOL0     C85588   3.455  10.966   5.473  0.7199 -1.1691  0.0546
  649MOL0     C85589   3.571  10.968   5.554  0.0105  0.2804  1.6572
  649MOL0     C85590   3.884  10.830   5.868 -0.1528 -0.1900 -0.7256
  649MOL0     C85591   3.913  10.790   6.001 -0.2082  0.4783 -1.0314
  649MOL0     C85592   4.033  10.814   6.065 -0.0022  0.2252 -0.0534
  649MOL0     C85593   4.135  10.876   5.996 -1.2580 -0.8420  0.2510
  649MOL0     O85594   4.246  10.885   6.066 -0.3136 -0.1235 -0.0124
  649MOL0     C85595   4.331  11.000   6.051 -0.6006 -0.3982  0.3829
  649MOL0     C85596   4.441  11.014   6.153  0.2117  0.1999  0.7350
  649MOL0     C85597   4.576  11.032   6.082 -0.9593 -0.2717  0.1824
  649MOL0     C85598   4.693  11.058   6.180  0.3604  0.3984  0.4036
  649MOL0     C85599   4.830  11.063   6.120 -0.4918 -0.3243 -0.4374
  649MOL0     C85600   4.946  11.072   6.086 -0.7475  0.6037  0.5189
  649MOL0     C85601   4.119  10.916   5.860 -0.6644 -0.2662  0.1589
  649MOL0     C85602   3.990  10.909   5.808  0.3276  0.1046  1.0090
  649MOL0     H85603   3.549  10.651   5.665 -2.6484 -0.8358 -0.7795
  649MOL0     H85604   3.342  10.663   5.529 -0.3963  0.6568  1.0681
  649MOL0     H85605   3.108  10.838   5.561  0.7425  0.5254 -0.0496
  649MOL0     H85606   3.112  10.714   5.434  0.0698 -0.6646 -0.3963
  649MOL0     H85607   3.000  11.008   5.430  2.8823  0.1124 -0.9841
  649MOL0     H85608   2.914  10.850   5.459 -0.6923 -0.3900 -0.3137
  649MOL0     H85609   2.998  10.789   5.213  2.7184  0.7073 -1.2346
  649MOL0     H85610   3.062  10.945   5.194  1.8222 -1.9034 -0.3990
  649MOL0     H85611   2.769  10.913   5.261  0.8453  0.5773  2.8372
  649MOL0     H85612   2.872  11.064   5.226  0.2610  0.2337 -2.3431
  649MOL0     H85613   2.837  10.865   5.007  1.8282  0.2668  0.8799
  649MOL0     H85614   2.887  11.027   4.998  1.2564 -0.1533  0.6656
  649MOL0     H85615   2.668  11.106   5.059 -3.6539  0.6652 -0.9967
  649MOL0     H85616   2.599  10.958   5.113 -1.3287  2.7691 -1.0658
  649MOL0     H85617   2.685  10.987   4.824 -0.8295 -0.5644 -1.2609
  649MOL0     H85618   2.610  10.848   4.899  1.0008 -0.2148 -2.5505
  649MOL0     H85619   2.456  11.022   4.773 -3.0760 -2.5441  0.2881
  649MOL0     H85620   2.465  11.121   4.916  0.3248 -0.0029 -2.5414
  649MOL0     H85621   2.359  10.792   4.744 -0.6495  1.3296 -0.3845
  649MOL0     H85622   2.173  10.629   4.734  1.7479 -0.3610  1.2013
  649MOL0     H85623   2.041  10.732   4.784  1.6985  0.6892 -1.0639
  649MOL0     H85624   2.043  10.577   4.995 -4.2081 -1.5674 -1.5349
  649MOL0     H85625   2.177  10.488   4.936 -0.2926  0.2052  1.5819
  649MOL0     H85626   1.895  10.540   4.811  0.7669 -0.9481  0.1103
  649MOL0     H85627   2.024  10.444   4.730  2.8187  0.7296  1.3201
  649MOL0     H85628   1.863  10.334   4.971 -0.4352  0.8641 -1.4394
  649MOL0     H85629   2.021  10.279   4.905  0.0427 -1.1667 -0.0908
  649MOL0     H85630   1.683  10.436   4.836  0.3775  2.3582 -1.6302
  649MOL0     H85631   1.484  10.438   4.750 -1.7768 -2.0194 -1.0315
  649MOL0     H85632   1.342  10.125   4.178  0.2129  2.3159 -1.2477
  649MOL0     H85633   1.122  10.126   4.035 -1.8474  1.5348 -1.3411
  649MOL0     H85634   0.842  10.410   3.970 -0.8106 -0.5750 -0.2710
  649MOL0     H85635   0.909  10.448   4.127 -0.1833  2.2206 -2.1554
  649MOL0     H85636   0.688  10.306   4.200  1.5340  1.9128  1.6920
  649MOL0     H85637   0.645  10.358   4.028  1.6367 -0.9965 -0.8212
  649MOL0     H85638   0.745  10.560   4.235  0.2917  1.1882  0.1629
  649MOL0     H85639   0.571  10.517   4.236 -0.0508  0.9344 -0.8781
  649MOL0     H85640   0.714  10.595   3.975 -3.1939 -0.7418 -1.8744
  649MOL0     H85641   0.545  10.580   4.004  0.7653  0.0298  0.4538
  649MOL0     H85642   0.734  10.784   4.150  1.1555 -0.4353 -0.0697
  649MOL0     H85643   0.575  10.780   4.189 -0.1147 -1.8581 -0.3146
  649MOL0     H85644   0.519  10.822   3.927  0.0109  0.3226 -0.1665
  649MOL0     H85645   0.686  10.848   3.909 -1.2147 -1.3456 -1.8769
  649MOL0     H85646   0.503  11.026   4.080  0.1906 -0.8791 -0.0115
  649MOL0     H85647   0.674  11.035   4.084 -0.4433  0.1104  0.2334
  649MOL0     H85648   0.654  11.029   3.818 -1.7559 -3.3612  0.2477
  649MOL0     H85649   0.644  11.184   3.912 -3.1529  0.8302 -0.9421
  649MOL0     H85650   0.909  10.313   4.342  0.7407  3.8199  0.3167
  649MOL0     H85651   1.100  10.326   4.479 -0.0438 -1.8010  1.0967
  649MOL0     H85652   1.597  10.135   4.456  1.8316 -1.4811  0.4616
  649MOL0     H85653   1.810  10.128   4.554 -1.0280 -0.0876  0.8297
  649MOL0     H85654   3.430  11.049   5.408  1.5504 -1.5417 -0.7568
  649MOL0     H85655   3.648  11.045   5.551  1.6051 -1.1629  3.3952
  649MOL0     H85656   3.845  10.728   6.058  0.5368 -1.3283 -2.0469
  649MOL0     H85657   4.060  10.801   6.169  1.4159  2.4144 -0.0835
  649MOL0     H85658   4.266  11.087   6.061 -1.2307 -0.9574  1.3999
  649MOL0     H85659   4.375  11.005   5.951  2.5131 -0.5031  1.6414
  649MOL0     H85660   4.438  11.103   6.217 -1.9204 -2.0720  4.0994
  649MOL0     H85661   4.449  10.924   6.214  0.7335 -0.0881  0.2518
  649MOL0     H85662   4.571  11.123   6.022  0.3948  0.1602  0.6854
  649MOL0     H85663   4.589  10.944   6.018  1.1469  0.2383 -0.1807
  649MOL0     H85664   4.689  11.158   6.224  2.7948  0.8603 -0.2973
  649MOL0     H85665   4.680  10.973   6.248 -2.0127  1.0516  0.8715
  649MOL0     H85666   5.051  11.074   6.064 -0.9018  3.1374 -0.2834
  649MOL0     H85667   4.200  10.946   5.794 -1.4285  1.1357 -0.1800
  649MOL0     H85668   3.968  10.947   5.709  0.0341 -1.8546  0.2650
  650MOL0     O85669  10.873   7.291   5.565  0.4393  0.8378 -0.0366
  650MOL0     C85670  10.909   7.257   5.450  0.2941 -0.3320 -0.1090
  650MOL0     O85671  10.828   7.276   5.348  0.5560  0.4939 -0.2829
  650MOL0     C85672  10.698   7.308   5.368  1.1425  0.4001  0.0571
  650MOL0     C85673  10.655   7.424   5.313 -0.3006  0.4307  0.0529
  650MOL0     C85674  10.522   7.473   5.327  0.3463 -0.2426  0.1454
  650MOL0     C85675  10.433   7.390   5.411 -0.7728 -0.3208  0.2459
  650MOL0     O85676  10.317   7.447   5.456 -0.1488 -0.8029  0.2106
  650MOL0     C85677  10.305   7.421   5.597 -0.0856 -0.7800 -0.9189
  650MOL0     C85678  10.211   7.523   5.657 -0.3353 -0.0864  0.2145
  650MOL0     C85679  10.071   7.510   5.586  0.3701 -0.1419  0.5149
  650MOL0     C85680   9.979   7.632   5.617 -1.3186  0.8932 -0.1479
  650MOL0     C85681   9.926   7.628   5.752  0.3271  0.9411 -0.6731
  650MOL0     C85682   9.822   7.514   5.778 -0.6534  0.1177 -0.3037
  650MOL0     C85683   9.774   7.530   5.921  0.2887  0.2126 -0.1735
  650MOL0     C85684   9.705   7.402   5.951  1.0390 -0.0324  0.9466
  650MOL0     N85685   9.638   7.412   6.080  0.9375  0.1126 -0.3151
  650MOL0     C85686   9.522   7.486   6.109 -0.6814 -1.1975  0.4851
  650MOL0     C85687   9.487   7.436   6.233 -0.1990 -0.3351 -0.4073
  650MOL0     C85688   9.359   7.473   6.306 -0.3657 -0.6188  0.2470
  650MOL0     C85689   9.388   7.525   6.442  0.6868 -0.9331 -0.2652
  650MOL0     C85690   9.283   7.637   6.481  0.0551  0.4388 -0.0429
  650MOL0     C85691   9.129   7.605   6.454 -0.4950 -1.0983  0.5047
  650MOL0     O85692   9.052   7.724   6.507  0.4016  0.1727 -0.7276
  650MOL0     C85693   8.916   7.709   6.520 -0.2494 -0.7140 -0.3344
  650MOL0     C85694   8.842   7.595   6.509 -0.5172  0.5087 -0.7524
  650MOL0     C85695   8.708   7.591   6.522  0.0175  0.6633 -0.2171
  650MOL0     C85696   8.632   7.704   6.551 -0.7594  0.2357  0.4699
  650MOL0     C85697   8.491   7.702   6.571  0.9490  1.1596 -0.2051
  650MOL0     O85698   8.410   7.604   6.516 -0.5529  0.3746 -0.3379
  650MOL0     C85699   8.268   7.603   6.526 -0.1616 -0.2847  0.9086
  650MOL0     C85700   8.185   7.719   6.534  0.5693  0.0925  0.1808
  650MOL0     C85701   8.049   7.718   6.520  0.6617 -0.7127 -0.5842
  650MOL0     C85702   7.985   7.600   6.501  0.2812  0.8120 -0.4312
  650MOL0     O85703   7.856   7.568   6.495 -0.0398 -0.4365  0.1742
  650MOL0     C85704   7.764   7.676   6.514  0.1095 -0.2464  0.6745
  650MOL0     C85705   7.617   7.631   6.499 -0.1505  0.8041 -0.1337
  650MOL0     C85706   7.515   7.726   6.556 -0.0303 -0.1099  0.2658
  650MOL0     C85707   7.375   7.676   6.574  0.9597 -1.3303 -0.0576
  650MOL0     C85708   7.376   7.547   6.659 -1.7157 -0.4334  0.1331
  650MOL0     C85709   7.235   7.517   6.707 -0.4547  0.2756 -0.4149
  650MOL0     C85710   7.231   7.401   6.796  0.8108  0.6107 -0.4852
  650MOL0     C85711   7.093   7.361   6.847 -0.1657  0.1082 -0.8602
  650MOL0    Cl85712   7.102   7.219   6.947  0.2788  0.0055 -0.0641
  650MOL0     C85713   8.056   7.486   6.494 -1.0868 -0.0655  1.0737
  650MOL0     C85714   8.195   7.483   6.503 -0.0873 -0.4228  0.2268
  650MOL0     O85715   8.448   7.795   6.641 -0.2724  0.8383 -0.2284
  650MOL0     C85716   8.710   7.819   6.564  0.3383  0.3698  0.1173
  650MOL0     C85717   8.849   7.824   6.552  0.4970  0.0904 -0.7100
  650MOL0     N85718   9.571   7.336   6.271  0.1801 -0.1225 -0.2797
  650MOL0     N85719   9.665   7.325   6.181  0.7669  0.4794  0.2843
  650MOL0     C85720  10.476   7.266   5.458 -0.0324 -0.5126 -0.5134
  650MOL0     C85721  10.606   7.226   5.437  0.5813 -0.1372  0.9354
  650MOL0     C85722  11.051   7.228   5.433  0.9492  0.1720  0.0490
  650MOL0     C85723  11.082   7.183   5.302 -0.3858 -0.3671  0.5029
  650MOL0     C85724  11.215   7.143   5.275  0.3427 -0.0386  0.9806
  650MOL0     C85725  11.322   7.149   5.360 -0.6397 -0.0264  0.1363
  650MOL0     O85726  11.447   7.094   5.342  0.5504 -0.4354 -1.4555
  650MOL0     C85727  11.482   7.033   5.221  0.0456  0.6991  0.1894
  650MOL0     C85728  11.607   6.943   5.239 -0.5055 -0.6001  0.2088
  650MOL0     C85729  11.721   7.025   5.301 -0.5689 -0.4865 -0.2909
  650MOL0     C85730  11.864   6.961   5.302  0.0297  0.2370 -0.1271
  650MOL0     C85731  11.973   7.058   5.328  0.1762  0.3090 -0.2834
  650MOL0     C85732  12.070   7.119   5.335  0.5442 -0.3895 -0.6387
  650MOL0     C85733  11.287   7.188   5.491 -0.0045 -0.0480 -0.8797
  650MOL0     C85734  11.153   7.227   5.529 -0.8115 -0.6414  0.9092
  650MOL0     H85735  10.730   7.480   5.258  4.1963 -2.3841  2.6936
  650MOL0     H85736  10.492   7.571   5.290 -2.4920 -1.3183 -0.6966
  650MOL0     H85737  10.399   7.439   5.650 -0.6252  1.5950 -0.6092
  650MOL0     H85738  10.256   7.327   5.624 -1.3371  0.0264 -0.2826
  650MOL0     H85739  10.264   7.616   5.636  1.2243 -1.4308 -2.4708
  650MOL0     H85740  10.196   7.510   5.764  0.4212  1.6948  0.5566
  650MOL0     H85741  10.023   7.413   5.603  0.1256 -0.2687 -0.8214
  650MOL0     H85742  10.082   7.504   5.477 -0.6394 -2.8084  0.4997
  650MOL0     H85743  10.054   7.710   5.599  0.4020 -1.1668 -2.8096
  650MOL0     H85744   9.898   7.641   5.544 -0.8826  1.0582 -0.6188
  650MOL0     H85745   9.879   7.725   5.771 -0.0184  1.1615 -2.4643
  650MOL0     H85746  10.009   7.607   5.821 -0.2754  2.0447  0.4227
  650MOL0     H85747   9.870   7.419   5.754  0.2265  0.3678  0.4098
  650MOL0     H85748   9.742   7.542   5.710 -0.5030  5.1786  1.1819
  650MOL0     H85749   9.855   7.552   5.991 -0.4312 -1.9742  1.4741
  650MOL0     H85750   9.712   7.620   5.926  0.7769  0.7383 -2.3529
  650MOL0     H85751   9.776   7.319   5.950  3.3701  1.7281 -2.6697
  650MOL0     H85752   9.626   7.384   5.877 -1.1787  0.7987  2.9587
  650MOL0     H85753   9.461   7.558   6.054  0.7380 -0.8540 -0.7050
  650MOL0     H85754   9.307   7.378   6.320  1.0488 -1.8364 -2.1918
  650MOL0     H85755   9.298   7.543   6.248 -1.1795  1.1089  2.9956
  650MOL0     H85756   9.484   7.576   6.446 -1.1868  2.8385  3.0048
  650MOL0     H85757   9.384   7.438   6.507  0.0291 -2.0232 -1.6986
  650MOL0     H85758   9.282   7.652   6.589 -0.0623 -3.8966  0.7427
  650MOL0     H85759   9.313   7.731   6.436  0.7433 -0.3753 -1.3549
  650MOL0     H85760   9.095   7.511   6.497 -1.4740 -1.0118 -0.0341
  650MOL0     H85761   9.101   7.595   6.349  1.0052 -2.9099  0.2387
  650MOL0     H85762   8.882   7.494   6.506 -3.1816 -0.7539  1.4877
  650MOL0     H85763   8.649   7.501   6.509 -1.3498  1.3617  0.8678
  650MOL0     H85764   8.224   7.819   6.554 -0.5500  0.5565  0.1048
  650MOL0     H85765   7.994   7.810   6.537 -1.6313 -2.4896  2.7901
  650MOL0     H85766   7.777   7.756   6.441 -1.4697  0.8204  1.4825
  650MOL0     H85767   7.783   7.727   6.609 -0.9762 -1.7042  1.7333
  650MOL0     H85768   7.615   7.536   6.554  1.1137  1.5882  1.3393
  650MOL0     H85769   7.606   7.611   6.392  2.0313 -3.0001  0.1561
  650MOL0     H85770   7.507   7.824   6.507  3.3290  0.5133  0.6751
  650MOL0     H85771   7.548   7.750   6.658  0.8566  1.8488 -0.4228
  650MOL0     H85772   7.303   7.748   6.615 -0.7781 -2.6799 -0.5747
  650MOL0     H85773   7.326   7.647   6.480 -2.0952  0.9498  0.6683
  650MOL0     H85774   7.430   7.566   6.752 -1.0121  2.6751 -0.7704
  650MOL0     H85775   7.428   7.468   6.604  0.4580  2.6543 -2.6823
  650MOL0     H85776   7.164   7.518   6.624 -3.5430  3.0070  1.9893
  650MOL0     H85777   7.185   7.600   6.758  0.1261  2.7037 -3.5209
  650MOL0     H85778   7.269   7.320   6.733 -0.3620 -0.7438  0.4797
  650MOL0     H85779   7.300   7.424   6.877 -0.0582  2.6586 -0.2657
  650MOL0     H85780   7.020   7.354   6.765 -0.1043  3.2224 -1.2912
  650MOL0     H85781   7.046   7.440   6.905  1.6809  2.2908 -2.1950
  650MOL0     H85782   8.011   7.390   6.474  3.5289 -2.0832 -1.0723
  650MOL0     H85783   8.244   7.388   6.487  1.0432  0.2241 -0.2578
  650MOL0     H85784   8.663   7.915   6.579  1.4682  1.0167 -0.3416
  650MOL0     H85785   8.897   7.916   6.585  2.0379 -1.1155  0.6044
  650MOL0     H85786  10.409   7.204   5.515  1.5392 -0.4173  1.5785
  650MOL0     H85787  10.636   7.130   5.478 -0.6056  0.4018  3.2273
  650MOL0     H85788  11.009   7.176   5.222 -0.5602  2.2240  0.3610
  650MOL0     H85789  11.222   7.112   5.171 -0.9817  4.1952 -0.6200
  650MOL0     H85790  11.498   7.119   5.155 -0.0406  1.5757  1.2827
  650MOL0     H85791  11.399   6.979   5.175 -1.4753  0.8730  2.5903
  650MOL0     H85792  11.588   6.850   5.293  1.2549 -2.4503 -2.1680
  650MOL0     H85793  11.646   6.922   5.139  0.6064  0.4420  0.4014
  650MOL0     H85794  11.701   7.036   5.408  3.2730 -0.7518  0.6255
  650MOL0     H85795  11.715   7.125   5.257 -1.7428 -1.3883 -2.3224
  650MOL0     H85796  11.863   6.888   5.384 -2.2435  0.2876 -0.0584
  650MOL0     H85797  11.875   6.910   5.206 -1.8610 -2.2989  0.9046
  650MOL0     H85798  12.159   7.178   5.336 -0.7583  1.7481 -1.8315
  650MOL0     H85799  11.355   7.184   5.575  0.1213 -2.5121 -1.0179
  650MOL0     H85800  11.135   7.265   5.629  0.6101  5.4282 -0.7777
  651MOL0     O85801   1.301  10.454   8.836 -0.0230 -0.1040  0.6822
  651MOL0     C85802   1.255  10.426   8.942  0.5429 -0.0303 -0.5700
  651MOL0     O85803   1.131  10.460   8.984 -0.3475  0.1716 -0.5151
  651MOL0     C85804   1.029  10.518   8.915 -0.5490 -1.2354 -0.0642
  651MOL0     C85805   1.033  10.559   8.781  0.0243 -0.3182 -0.9484
  651MOL0     C85806   0.919  10.606   8.715  0.1021 -0.8130 -0.3045
  651MOL0     C85807   0.791  10.610   8.778 -0.3852 -0.6655 -0.3528
  651MOL0     O85808   0.688  10.674   8.710 -0.4578 -0.1862 -0.2035
  651MOL0     C85809   0.586  10.734   8.799 -0.3972  0.9536 -0.0391
  651MOL0     C85810   0.518  10.831   8.706  0.2825  0.1677  0.8797
  651MOL0     C85811   0.386  10.890   8.774 -0.7930 -0.8204 -0.0787
  651MOL0     C85812   0.281  10.933   8.662 -0.9069 -0.0005 -0.7064
  651MOL0     C85813   0.133  10.933   8.698 -0.1255  0.1624  0.0150
  651MOL0     C85814   0.055  10.984   8.583  0.2241 -0.0704 -0.6001
  651MOL0     C85815  -0.092  11.001   8.612  0.5643 -0.7096 -0.0467
  651MOL0     C85816  -0.134  11.109   8.715  0.6360  0.1511 -1.2488
  651MOL0     N85817  -0.276  11.138   8.695  0.1674  0.6912 -0.0884
  651MOL0     C85818  -0.325  11.226   8.589 -0.1564  0.7894 -0.3175
  651MOL0     C85819  -0.461  11.208   8.595 -0.7209 -0.3484 -0.5164
  651MOL0     C85820  -0.555  11.262   8.491 -0.3446  0.2563  0.5213
  651MOL0     C85821  -0.665  11.355   8.552  0.1683 -0.5647  0.1320
  651MOL0     C85822  -0.720  11.329   8.698 -0.5790 -1.2934 -0.0315
  651MOL0     C85823  -0.798  11.192   8.705  0.4659 -0.2999 -0.9681
  651MOL0     O85824  -0.927  11.194   8.782 -1.1092  0.4562  0.5646
  651MOL0     C85825  -1.038  11.258   8.746  0.3926  1.0663  0.3038
  651MOL0     C85826  -1.057  11.303   8.619 -0.0064  0.4736  0.5181
  651MOL0     C85827  -1.185  11.357   8.584 -0.7655 -0.3765  0.8608
  651MOL0     C85828  -1.287  11.358   8.690 -0.5460 -0.3771  0.1049
  651MOL0     C85829  -1.419  11.419   8.659 -0.4828 -0.5562 -0.4416
  651MOL0     O85830  -1.520  11.410   8.752 -0.2062 -0.6598  1.0736
  651MOL0     C85831  -1.628  11.476   8.735  0.3292 -0.3547  0.1863
  651MOL0     C85832  -1.655  11.580   8.824  1.1942 -0.1503 -0.7010
  651MOL0     C85833  -1.776  11.652   8.814  0.0852 -0.0294  0.2635
  651MOL0     C85834  -1.872  11.626   8.717  0.4843  0.0420  0.1273
  651MOL0     O85835  -1.995  11.695   8.733 -0.7120 -0.6912 -0.2800
  651MOL0     C85836  -2.041  11.719   8.603  0.2224  0.4184  0.1771
  651MOL0     C85837  -2.157  11.821   8.606 -0.2060  0.4660 -0.5725
  651MOL0     C85838  -2.284  11.785   8.676  1.4050 -0.7471  0.3459
  651MOL0     C85839  -2.383  11.892   8.652 -1.2757 -1.5871 -0.3142
  651MOL0     C85840  -2.517  11.878   8.723 -0.6633 -0.6918 -0.5286
  651MOL0     C85841  -2.624  11.980   8.667  0.0169  0.3097 -0.4668
  651MOL0     C85842  -2.768  11.961   8.710 -0.3006  0.6282 -0.1457
  651MOL0     C85843  -2.829  11.842   8.640 -0.0972  0.3436 -0.3813
  651MOL0    Cl85844  -3.003  11.847   8.674  0.0133 -0.5577 -0.3992
  651MOL0     C85845  -1.843  11.523   8.627 -0.1291 -0.0061 -0.4505
  651MOL0     C85846  -1.723  11.453   8.633 -0.8232 -0.4321 -0.3768
  651MOL0     O85847  -1.432  11.476   8.553  0.6446 -0.3060  0.5348
  651MOL0     C85848  -1.260  11.324   8.828 -0.1506  0.1195  0.3545
  651MOL0     C85849  -1.132  11.267   8.848  0.2899 -0.4900 -0.5540
  651MOL0     N85850  -0.487  11.118   8.701  0.3739  0.5049  0.9644
  651MOL0     N85851  -0.381  11.081   8.768 -0.0947  0.6121 -0.4268
  651MOL0     C85852   0.789  10.573   8.910  0.1942  0.2271 -0.5330
  651MOL0     C85853   0.908  10.535   8.976  0.4032  0.3533  0.4233
  651MOL0     C85854   1.354  10.359   9.038 -0.2838  0.4906  0.1235
  651MOL0     C85855   1.329  10.353   9.172  0.3432 -1.2331 -0.3068
  651MOL0     C85856   1.423  10.298   9.252 -0.0516 -0.2500 -0.6548
  651MOL0     C85857   1.532  10.225   9.212  0.0096 -1.4152 -0.1448
  651MOL0     O85858   1.606  10.175   9.315 -0.5612 -0.5466 -0.7667
  651MOL0     C85859   1.746  10.149   9.296 -0.3493 -0.8637  0.5684
  651MOL0     C85860   1.801  10.120   9.435  0.8269 -0.2067 -0.2635
  651MOL0     C85861   1.958  10.108   9.428  0.6103 -0.0461  0.3915
  651MOL0     C85862   2.016  10.211   9.520  0.0905 -0.4352  0.4052
  651MOL0     C85863   2.164  10.208   9.505 -0.0982  0.4605 -0.3831
  651MOL0     C85864   2.290  10.189   9.496  0.4141 -0.4708  1.0066
  651MOL0     C85865   1.562  10.222   9.074  0.8341  0.4201 -0.6861
  651MOL0     C85866   1.473  10.287   8.989  0.6885 -1.1607  0.9147
  651MOL0     H85867   1.122  10.574   8.721  2.9299 -2.5197  2.3612
  651MOL0     H85868   0.933  10.631   8.610  1.1489 -1.0157 -0.2224
  651MOL0     H85869   0.637  10.788   8.879 -0.0398  1.9827 -0.9397
  651MOL0     H85870   0.518  10.666   8.852 -0.7369  1.3749  0.0762
  651MOL0     H85871   0.493  10.769   8.619 -1.7720  1.9802  0.0878
  651MOL0     H85872   0.586  10.914   8.685  1.3833 -0.1191  3.0531
  651MOL0     H85873   0.409  10.978   8.834  3.6437 -0.0572 -2.4810
  651MOL0     H85874   0.339  10.817   8.841 -1.6465  1.0702  1.4586
  651MOL0     H85875   0.303  11.034   8.626  0.5878 -0.1412 -0.2522
  651MOL0     H85876   0.304  10.855   8.588 -0.0945 -1.3628  0.9108
  651MOL0     H85877   0.105  10.989   8.788  0.1468  1.4712 -0.6895
  651MOL0     H85878   0.110  10.828   8.718  1.2381 -0.5508 -1.8536
  651MOL0     H85879   0.073  10.918   8.497  0.9332 -4.2317  2.3949
  651MOL0     H85880   0.103  11.077   8.553  0.7123 -0.6020 -1.5167
  651MOL0     H85881  -0.132  11.025   8.514  2.6389 -1.2353 -1.0734
  651MOL0     H85882  -0.141  10.907   8.640  1.2490 -1.4678 -1.3442
  651MOL0     H85883  -0.061  11.187   8.692  1.6482 -0.9622 -1.9203
  651MOL0     H85884  -0.123  11.078   8.819  2.3931  1.1396 -1.0899
  651MOL0     H85885  -0.270  11.287   8.517  0.1476 -1.3378 -1.9738
  651MOL0     H85886  -0.600  11.168   8.457  0.6994  0.8496 -2.9720
  651MOL0     H85887  -0.510  11.299   8.398  2.2690  0.0821  1.6212
  651MOL0     H85888  -0.753  11.368   8.490 -0.3713 -2.7175  0.3725
  651MOL0     H85889  -0.609  11.449   8.552 -1.4901  0.4463 -0.2536
  651MOL0     H85890  -0.637  11.335   8.768 -0.6150 -1.9726  0.0698
  651MOL0     H85891  -0.795  11.408   8.716 -0.9964 -1.0801 -2.3418
  651MOL0     H85892  -0.734  11.124   8.762  2.3706  1.5273 -0.7721
  651MOL0     H85893  -0.813  11.147   8.606 -0.6143  2.0195 -1.9356
  651MOL0     H85894  -0.973  11.292   8.552  1.2754  3.9723  1.3382
  651MOL0     H85895  -1.211  11.386   8.483 -1.0074 -1.5924  0.5513
  651MOL0     H85896  -1.578  11.604   8.897 -1.2714  0.7179  1.7645
  651MOL0     H85897  -1.813  11.726   8.885  0.3811  1.4120 -1.0262
  651MOL0     H85898  -2.077  11.632   8.549 -1.3144  2.9260 -3.1890
  651MOL0     H85899  -1.967  11.767   8.538  1.3065 -1.6638 -0.2131
  651MOL0     H85900  -2.165  11.859   8.503  3.5290  0.2602 -1.1135
  651MOL0     H85901  -2.109  11.904   8.659 -0.9063  1.7140 -1.8216
  651MOL0     H85902  -2.272  11.784   8.785  0.9993  0.0944  0.4090
  651MOL0     H85903  -2.327  11.689   8.648  2.1091 -1.5975  2.0166
  651MOL0     H85904  -2.346  11.982   8.702 -2.1063 -0.3982 -1.7427
  651MOL0     H85905  -2.401  11.902   8.545 -1.3553  1.4354 -0.1090
  651MOL0     H85906  -2.501  11.898   8.830  0.7442 -0.6553 -0.7345
  651MOL0     H85907  -2.539  11.773   8.698  1.6296 -0.8750 -2.0054
  651MOL0     H85908  -2.612  11.982   8.558  0.5715 -1.1005 -0.4551
  651MOL0     H85909  -2.603  12.083   8.699 -1.9956  0.1620  1.5745
  651MOL0     H85910  -2.779  11.945   8.818 -0.4898  1.5398 -0.0239
  651MOL0     H85911  -2.818  12.052   8.675 -0.6880  0.5556  0.2086
  651MOL0     H85912  -2.786  11.748   8.676 -3.2563 -0.8502  0.6851
  651MOL0     H85913  -2.824  11.870   8.534 -2.9306 -0.8645 -0.9535
  651MOL0     H85914  -1.919  11.485   8.559 -0.4156 -0.2113 -0.0193
  651MOL0     H85915  -1.712  11.369   8.565  2.1981 -0.1019 -0.4643
  651MOL0     H85916  -1.326  11.352   8.909 -0.9188 -3.3891  1.1075
  651MOL0     H85917  -1.108  11.216   8.941 -2.4241 -0.5234  0.2157
  651MOL0     H85918   0.700  10.594   8.967  1.2630  1.3987  0.7722
  651MOL0     H85919   0.891  10.536   9.083 -0.4227  0.5221  0.2926
  651MOL0     H85920   1.238  10.395   9.215  1.8763  1.2071  0.7531
  651MOL0     H85921   1.412  10.296   9.360  2.5215  0.7206 -0.3076
  651MOL0     H85922   1.799  10.227   9.241  0.8030  0.0436  2.8146
  651MOL0     H85923   1.768  10.058   9.240 -2.9539 -1.8204  0.9387
  651MOL0     H85924   1.773  10.201   9.503  0.5165  0.8727 -1.6456
  651MOL0     H85925   1.755  10.026   9.469 -4.1628  2.0359  0.0766
  651MOL0     H85926   1.996  10.125   9.327 -0.2751  3.4696  0.4982
  651MOL0     H85927   1.986  10.014   9.476  0.2223 -1.6200 -2.2779
  651MOL0     H85928   1.984  10.313   9.497 -0.4783 -0.9033 -0.9844
  651MOL0     H85929   1.996  10.188   9.625 -2.6181  0.0652  0.0859
  651MOL0     H85930   2.396  10.199   9.482  0.1297  2.0023  0.1240
  651MOL0     H85931   1.643  10.173   9.020  0.5237  0.2801 -1.0305
  651MOL0     H85932   1.489  10.287   8.882 -0.0535 -3.1905  0.7734
  652MOL0     O85933   5.228   8.755   6.508 -0.3008 -0.1538 -0.5766
  652MOL0     C85934   5.132   8.770   6.586  0.0725 -0.2708 -0.5445
  652MOL0     O85935   5.129   8.861   6.688  0.3631 -0.0629  0.0184
  652MOL0     C85936   5.249   8.919   6.724 -0.4629  0.3364 -1.3692
  652MOL0     C85937   5.229   9.052   6.757  0.6887 -0.0283 -0.3594
  652MOL0     C85938   5.343   9.130   6.797 -0.3668  0.0772 -0.7048
  652MOL0     C85939   5.466   9.069   6.821  0.0080  1.2032  0.2132
  652MOL0     O85940   5.574   9.147   6.870 -1.1747 -0.3452  0.4086
  652MOL0     C85941   5.705   9.103   6.825 -0.8064  0.3587  0.7593
  652MOL0     C85942   5.802   9.211   6.886  0.1104  0.4559  0.4366
  652MOL0     C85943   5.944   9.159   6.889 -0.5648  0.2328 -0.3590
  652MOL0     C85944   6.050   9.269   6.892  0.0052 -0.6721  0.5635
  652MOL0     C85945   6.167   9.251   6.991 -0.1011 -0.1520  0.8277
  652MOL0     C85946   6.137   9.267   7.136  0.5187 -0.8087 -0.1009
  652MOL0     C85947   6.257   9.224   7.217 -0.9708  0.1690  0.1969
  652MOL0     C85948   6.243   9.263   7.371  1.1584  0.7337  1.1488
  652MOL0     N85949   6.360   9.220   7.449  0.6146 -0.6730 -0.0156
  652MOL0     C85950   6.353   9.201   7.588  0.5029 -0.5017  0.0595
  652MOL0     C85951   6.483   9.172   7.623  0.3989  1.2772  0.1154
  652MOL0     C85952   6.519   9.146   7.774 -0.8097 -0.1773 -0.0445
  652MOL0     C85953   6.648   9.061   7.792 -0.0332  0.6266  0.0395
  652MOL0     C85954   6.610   8.913   7.787  0.1069  0.1952  0.6898
  652MOL0     C85955   6.572   8.843   7.919  0.2724 -0.7463  0.1810
  652MOL0     O85956   6.443   8.889   7.954 -0.3768 -0.5136 -0.7375
  652MOL0     C85957   6.341   8.796   7.966  0.5778  1.2853  0.3393
  652MOL0     C85958   6.287   8.726   7.852  0.6299 -0.0716 -0.5083
  652MOL0     C85959   6.167   8.648   7.866  0.1272  0.1408 -0.1629
  652MOL0     C85960   6.102   8.650   7.993  0.4108 -0.8159  0.4956
  652MOL0     C85961   5.980   8.569   8.012  0.0521 -0.0024 -0.1969
  652MOL0     O85962   5.889   8.612   8.096  0.3293  0.5702  0.3367
  652MOL0     C85963   5.761   8.576   8.075 -0.9349 -0.2582 -0.4087
  652MOL0     C85964   5.685   8.663   7.995  0.7368 -0.3310 -0.6144
  652MOL0     C85965   5.556   8.639   7.959  0.0465 -0.2867  0.3532
  652MOL0     C85966   5.489   8.535   8.008 -0.0913  0.0383  0.6393
  652MOL0     O85967   5.356   8.511   7.983 -0.6285  0.0798 -0.0173
  652MOL0     C85968   5.280   8.545   8.099 -0.5471 -0.0251 -0.6766
  652MOL0     C85969   5.162   8.446   8.126 -0.6040 -0.3990  0.5108
  652MOL0     C85970   5.106   8.484   8.266  0.0309 -0.0274  1.0331
  652MOL0     C85971   4.971   8.416   8.298 -0.2374  0.6461 -0.2825
  652MOL0     C85972   4.893   8.471   8.428  0.6109 -0.0324  0.3430
  652MOL0     C85973   4.740   8.473   8.402 -0.7189  0.4357 -0.6346
  652MOL0     C85974   4.671   8.542   8.521 -0.6303  1.0972 -0.4882
  652MOL0     C85975   4.519   8.527   8.543 -0.6437 -0.7278  0.1330
  652MOL0    Cl85976   4.449   8.628   8.677  0.2631 -0.1305 -0.2582
  652MOL0     C85977   5.557   8.448   8.104  0.4852 -0.5667  0.1830
  652MOL0     C85978   5.691   8.472   8.140  0.3924 -1.3977 -0.4169
  652MOL0     O85979   5.974   8.467   7.943  0.1440  0.3620 -0.0104
  652MOL0     C85980   6.151   8.724   8.099  0.1036 -0.3224 -0.0663
  652MOL0     C85981   6.278   8.788   8.093 -0.6586  0.4030 -0.4964
  652MOL0     N85982   6.549   9.144   7.505 -0.5887  0.3385  0.1761
  652MOL0     N85983   6.478   9.174   7.401 -0.3382  0.2892 -0.3515
  652MOL0     C85984   5.480   8.931   6.802  0.5220  0.2421 -1.0264
  652MOL0     C85985   5.374   8.862   6.743 -0.0207 -0.2539 -0.2883
  652MOL0     C85986   5.006   8.696   6.567 -0.4889 -0.7585  0.6425
  652MOL0     C85987   4.960   8.668   6.440 -0.3718  0.0731  0.6316
  652MOL0     C85988   4.838   8.611   6.421  0.0765 -1.1542 -0.2752
  652MOL0     C85989   4.753   8.571   6.526 -0.3468 -1.1112  0.8944
  652MOL0     O85990   4.630   8.511   6.510 -1.2653 -0.2709 -0.5848
  652MOL0     C85991   4.544   8.538   6.395 -0.0990 -0.1802 -0.4308
  652MOL0     C85992   4.404   8.579   6.445  0.0155  0.3111  0.1246
  652MOL0     C85993   4.324   8.468   6.511  0.0074  0.3851  0.6679
  652MOL0     C85994   4.184   8.520   6.533 -0.5790 -0.0688  0.0600
  652MOL0     C85995   4.090   8.503   6.419 -0.4008  0.1011 -1.0819
  652MOL0     C85996   4.023   8.487   6.328 -0.5596 -0.6330  0.0443
  652MOL0     C85997   4.787   8.606   6.653 -0.5757 -0.5382  0.2036
  652MOL0     C85998   4.915   8.666   6.673 -0.1436  0.0765 -0.9423
  652MOL0     H85999   5.131   9.097   6.743 -0.3766 -1.8206  1.0516
  652MOL0     H86000   5.340   9.238   6.807  1.9936  0.1454 -0.3479
  652MOL0     H86001   5.699   9.101   6.716 -0.9155  0.5493  0.7609
  652MOL0     H86002   5.726   9.002   6.862 -2.9066 -0.5971 -0.4560
  652MOL0     H86003   5.770   9.233   6.988  1.0644 -0.7247  1.0086
  652MOL0     H86004   5.796   9.302   6.825  1.1047  0.2387 -0.0149
  652MOL0     H86005   5.972   9.082   6.816  0.3933  0.3987 -0.1718
  652MOL0     H86006   5.954   9.111   6.987  1.6226  2.3065  0.5230
  652MOL0     H86007   6.091   9.268   6.791 -0.3235 -0.7052  0.4270
  652MOL0     H86008   5.998   9.365   6.893 -1.1138 -1.2272  2.8127
  652MOL0     H86009   6.229   9.337   6.964 -2.2912  1.3987  0.3811
  652MOL0     H86010   6.214   9.153   6.979  2.5659  1.0866  0.4285
  652MOL0     H86011   6.054   9.205   7.172  2.5985 -3.1281  1.0350
  652MOL0     H86012   6.122   9.372   7.161 -0.7208 -1.4096  1.9363
  652MOL0     H86013   6.276   9.119   7.196  1.8860  1.0877 -2.5220
  652MOL0     H86014   6.344   9.279   7.181 -0.0684 -1.6367 -0.5084
  652MOL0     H86015   6.150   9.216   7.405 -1.0610  0.6884 -4.0404
  652MOL0     H86016   6.240   9.372   7.376 -3.7156  1.0017 -1.7738
  652MOL0     H86017   6.271   9.223   7.656 -1.3516 -1.6508 -1.7013
  652MOL0     H86018   6.435   9.091   7.819  1.5800 -1.9582  2.6598
  652MOL0     H86019   6.518   9.243   7.824 -1.5901  1.3961 -2.8866
  652MOL0     H86020   6.680   9.090   7.893 -1.0308  3.3163 -0.3360
  652MOL0     H86021   6.727   9.090   7.722 -0.8522  0.1679 -1.1066
  652MOL0     H86022   6.523   8.908   7.720 -1.0431  1.2969  2.0416
  652MOL0     H86023   6.690   8.865   7.730 -0.0633  1.2689 -0.4969
  652MOL0     H86024   6.634   8.862   8.008 -0.2522  0.1142  0.3775
  652MOL0     H86025   6.564   8.736   7.898  0.2028 -0.6980 -0.0360
  652MOL0     H86026   6.344   8.709   7.761  2.3567  2.4887 -0.0157
  652MOL0     H86027   6.132   8.585   7.784  0.5323 -0.3426  0.0308
  652MOL0     H86028   5.734   8.754   7.963 -2.6493  2.4205  1.2522
  652MOL0     H86029   5.504   8.702   7.887  0.8635 -1.8158 -1.6516
  652MOL0     H86030   5.235   8.643   8.079  0.7492  1.0707  1.4908
  652MOL0     H86031   5.335   8.540   8.193 -1.0104  1.0658 -0.3349
  652MOL0     H86032   5.202   8.346   8.143 -0.8841 -0.5261  0.4219
  652MOL0     H86033   5.088   8.452   8.046  1.0248 -1.4139 -1.1488
  652MOL0     H86034   5.094   8.592   8.282 -0.9232 -0.3460  2.7317
  652MOL0     H86035   5.181   8.460   8.341  0.4230  2.0609  1.3647
  652MOL0     H86036   4.910   8.431   8.208 -0.9393 -0.6812 -0.0491
  652MOL0     H86037   4.992   8.310   8.307  2.4698  0.9119 -2.3389
  652MOL0     H86038   4.924   8.571   8.460  1.3918 -0.3419  0.5555
  652MOL0     H86039   4.902   8.402   8.512  0.0741 -0.5791 -0.0373
  652MOL0     H86040   4.685   8.380   8.384  0.1531 -0.1507 -0.3772
  652MOL0     H86041   4.722   8.539   8.317 -2.8933 -0.5494 -1.0099
  652MOL0     H86042   4.717   8.493   8.607  0.4662 -0.4555 -1.9083
  652MOL0     H86043   4.690   8.649   8.511 -1.4835  1.2662 -0.3692
  652MOL0     H86044   4.500   8.421   8.562 -3.9235 -0.5173 -1.3583
  652MOL0     H86045   4.484   8.554   8.443  0.1727  1.4188  0.3889
  652MOL0     H86046   5.507   8.361   8.144 -0.0721 -0.8592 -1.1082
  652MOL0     H86047   5.731   8.407   8.217 -1.0595  0.5859  2.1481
  652MOL0     H86048   6.099   8.710   8.193 -0.3942 -1.4047 -0.4958
  652MOL0     H86049   6.330   8.839   8.174  3.4136 -1.6744 -1.5659
  652MOL0     H86050   5.573   8.880   6.826 -0.5423 -1.8515 -1.1284
  652MOL0     H86051   5.389   8.756   6.725  0.3527 -0.5316  1.4446
  652MOL0     H86052   5.006   8.697   6.347 -0.3087 -1.6435  0.0959
  652MOL0     H86053   4.807   8.607   6.317 -0.7793 -1.1095 -0.0335
  652MOL0     H86054   4.530   8.453   6.327 -0.6758  0.8354 -1.6240
  652MOL0     H86055   4.587   8.622   6.338  0.8877  0.3521  1.0506
  652MOL0     H86056   4.424   8.653   6.523  0.3713  0.7481 -0.3740
  652MOL0     H86057   4.347   8.637   6.371 -0.4587  2.3386  1.9684
  652MOL0     H86058   4.358   8.445   6.613 -2.3917  3.7067  2.4202
  652MOL0     H86059   4.315   8.377   6.451  2.5023 -1.3451  2.6721
  652MOL0     H86060   4.144   8.472   6.622  1.3744  1.5211  1.8867
  652MOL0     H86061   4.187   8.627   6.555 -0.4516 -0.0168 -0.2058
  652MOL0     H86062   3.956   8.488   6.245  1.2862 -0.0503 -1.4936
  652MOL0     H86063   4.718   8.582   6.733  0.9675 -0.0882  1.7359
  652MOL0     H86064   4.941   8.682   6.777 -0.3692 -1.0711 -0.7027
  653MOL0     O86065   8.715   5.251   1.817  0.0310  0.1167 -0.5453
  653MOL0     C86066   8.773   5.324   1.741 -0.4210 -1.5718  0.0508
  653MOL0     O86067   8.731   5.374   1.615 -0.8201 -0.2133  0.4758
  653MOL0     C86068   8.617   5.318   1.567  0.2888 -0.5361 -0.8447
  653MOL0     C86069   8.511   5.403   1.541 -0.7084 -0.6483 -0.1131
  653MOL0     C86070   8.393   5.366   1.473  0.3666 -0.0230 -0.5420
  653MOL0     C86071   8.384   5.229   1.442  0.0253 -0.2871 -0.6119
  653MOL0     O86072   8.273   5.174   1.393 -0.1904  0.8775  0.8582
  653MOL0     C86073   8.146   5.216   1.450  0.2652  0.5755  0.3489
  653MOL0     C86074   8.024   5.116   1.426  0.2778 -0.1848  0.8234
  653MOL0     C86075   7.887   5.166   1.454  0.5197 -0.3145 -1.1259
  653MOL0     C86076   7.787   5.046   1.431  0.0795  0.3763  0.2597
  653MOL0     C86077   7.650   5.054   1.505 -0.0080 -0.0228  0.3343
  653MOL0     C86078   7.566   5.177   1.464 -0.3318 -0.1432 -0.2546
  653MOL0     C86079   7.416   5.142   1.485 -0.4947 -1.3384 -0.1211
  653MOL0     C86080   7.372   5.105   1.630 -0.7676  0.1930 -0.7306
  653MOL0     N86081   7.225   5.107   1.642 -0.5415 -0.1595 -0.6771
  653MOL0     C86082   7.129   5.019   1.583 -0.1397 -0.5582 -0.6237
  653MOL0     C86083   7.006   5.081   1.606 -0.4710 -0.7968 -0.0864
  653MOL0     C86084   6.868   5.017   1.588 -0.0479 -0.0519 -0.4487
  653MOL0     C86085   6.757   5.119   1.560  0.0665  0.4372  0.3688
  653MOL0     C86086   6.618   5.040   1.555  0.3221 -0.6364 -0.2374
  653MOL0     C86087   6.490   5.123   1.567 -1.2917  0.8069 -0.3322
  653MOL0     O86088   6.379   5.043   1.574  0.1184 -0.1762 -0.5196
  653MOL0     C86089   6.257   5.109   1.575 -0.6836 -0.2226 -1.4050
  653MOL0     C86090   6.153   5.037   1.650  0.3366 -1.3100  0.3071
  653MOL0     C86091   6.023   5.097   1.656  0.0135 -1.0366  0.0774
  653MOL0     C86092   5.999   5.219   1.605  0.5594 -0.2336 -0.0021
  653MOL0     C86093   5.860   5.277   1.608 -0.4251 -0.7924  0.1197
  653MOL0     O86094   5.766   5.210   1.676  0.9321  0.4234  0.4856
  653MOL0     C86095   5.643   5.261   1.700  1.0265  0.9521 -0.2943
  653MOL0     C86096   5.531   5.189   1.649  0.0052 -1.3071 -0.5846
  653MOL0     C86097   5.400   5.240   1.674  0.4139 -0.2784 -0.4074
  653MOL0     C86098   5.384   5.349   1.760  0.2858 -0.5578 -0.0975
  653MOL0     O86099   5.267   5.422   1.775 -0.4196  0.1878 -0.2449
  653MOL0     C86100   5.146   5.349   1.731  0.0780  0.2240  0.1964
  653MOL0     C86101   5.026   5.434   1.749 -0.2388 -0.7910 -0.3799
  653MOL0     C86102   4.984   5.448   1.898 -0.8555 -0.6666  0.0755
  653MOL0     C86103   5.075   5.540   1.984 -0.9626 -0.5624 -0.2455
  653MOL0     C86104   5.079   5.685   1.950  0.4921 -0.0395 -0.1790
  653MOL0     C86105   4.955   5.759   1.960 -0.3119 -0.4193  0.7883
  653MOL0     C86106   4.883   5.743   2.104  0.0630 -0.1994 -0.5385
  653MOL0     C86107   4.763   5.837   2.133  0.7858  0.0187  0.1011
  653MOL0    Cl86108   4.632   5.830   2.009  0.4898  0.2831  0.1980
  653MOL0     C86109   5.498   5.414   1.809 -0.1978  0.0344 -0.1457
  653MOL0     C86110   5.627   5.378   1.769  0.5817  0.0004  0.9149
  653MOL0     O86111   5.850   5.397   1.570  0.4618 -0.4080  0.1473
  653MOL0     C86112   6.100   5.294   1.540 -0.1278  0.6428  1.8054
  653MOL0     C86113   6.225   5.226   1.516  0.0212  0.3536 -0.4713
  653MOL0     N86114   7.032   5.204   1.677 -0.4760  0.5998  0.4195
  653MOL0     N86115   7.163   5.213   1.690  0.1116 -0.6722 -0.2447
  653MOL0     C86116   8.490   5.143   1.459  0.3729  1.2248 -1.2074
  653MOL0     C86117   8.608   5.185   1.520 -0.1966 -0.4802 -0.1544
  653MOL0     C86118   8.911   5.367   1.778  0.4617 -0.5924 -0.3618
  653MOL0     C86119   8.975   5.477   1.717 -0.0252  0.6492 -0.2310
  653MOL0     C86120   9.106   5.519   1.752  0.2165  0.6216  0.1410
  653MOL0     C86121   9.175   5.449   1.848  0.8895  0.8337  1.2216
  653MOL0     O86122   9.296   5.477   1.881 -0.0272 -0.6080 -0.1255
  653MOL0     C86123   9.330   5.615   1.852 -0.2956  0.0654 -0.4787
  653MOL0     C86124   9.455   5.666   1.927  0.2868  0.0534  0.4691
  653MOL0     C86125   9.575   5.574   1.923  0.2497  0.1742 -0.4226
  653MOL0     C86126   9.641   5.579   1.782 -0.7178  0.3565 -0.7224
  653MOL0     C86127   9.792   5.602   1.789  0.2614 -1.3478 -0.1903
  653MOL0     C86128   9.904   5.614   1.744 -0.4549  0.3564 -0.3667
  653MOL0     C86129   9.112   5.343   1.911 -0.5678 -0.6748  0.0583
  653MOL0     C86130   8.982   5.308   1.880 -0.0707  1.1648  0.1688
  653MOL0     H86131   8.519   5.506   1.574  7.0533 -0.9326  0.6109
  653MOL0     H86132   8.310   5.435   1.453 -0.3461 -0.5355  0.5713
  653MOL0     H86133   8.124   5.314   1.408  0.8376  1.1857  1.4289
  653MOL0     H86134   8.155   5.230   1.559 -2.4754  2.9637  0.3906
  653MOL0     H86135   8.052   5.025   1.479  0.1681  0.6374  2.3534
  653MOL0     H86136   8.041   5.101   1.319  1.1488 -2.0787  1.1876
  653MOL0     H86137   7.852   5.254   1.399 -3.7311 -1.3298 -0.4104
  653MOL0     H86138   7.887   5.180   1.563  2.1094 -3.2770 -0.6407
  653MOL0     H86139   7.766   5.049   1.324 -1.6385 -0.3470  0.5312
  653MOL0     H86140   7.834   4.951   1.459  1.0129  0.6577 -0.3351
  653MOL0     H86141   7.674   5.061   1.611 -4.3697  0.1056  1.5063
  653MOL0     H86142   7.598   4.957   1.510 -0.0260 -0.0132  0.3446
  653MOL0     H86143   7.586   5.209   1.361  1.1651  0.6719  0.2503
  653MOL0     H86144   7.590   5.255   1.537  0.6630 -1.5981  1.0350
  653MOL0     H86145   7.365   5.238   1.469 -1.6669 -2.0349 -0.6586
  653MOL0     H86146   7.390   5.072   1.405  3.0087 -0.1883 -2.5135
  653MOL0     H86147   7.399   5.177   1.708 -1.1562  0.1921 -0.5918
  653MOL0     H86148   7.407   5.009   1.669  0.3414  0.4670 -1.0300
  653MOL0     H86149   7.147   4.925   1.532  1.0047  0.1834 -1.6162
  653MOL0     H86150   6.854   4.967   1.684  1.3343  3.3772  1.7472
  653MOL0     H86151   6.873   4.936   1.515 -1.1218 -1.1207  0.6216
  653MOL0     H86152   6.765   5.169   1.462 -0.7501  1.1863  0.6656
  653MOL0     H86153   6.739   5.182   1.648 -2.2392  0.3116  0.0516
  653MOL0     H86154   6.617   4.997   1.455  0.0537  0.7090 -0.8368
  653MOL0     H86155   6.614   4.959   1.628  1.9717 -0.8719 -0.3645
  653MOL0     H86156   6.490   5.194   1.484  1.0938  1.7373  0.4013
  653MOL0     H86157   6.497   5.183   1.658 -0.7802 -0.3576  0.4141
  653MOL0     H86158   6.169   4.939   1.694 -2.0999 -0.8098  2.5310
  653MOL0     H86159   5.937   5.042   1.692 -2.1586  1.6965 -0.5407
  653MOL0     H86160   5.556   5.105   1.585  0.2072 -0.9468 -0.9856
  653MOL0     H86161   5.317   5.199   1.618 -2.4402  4.2234  0.0213
  653MOL0     H86162   5.150   5.264   1.800  4.3610  1.2425  1.5291
  653MOL0     H86163   5.164   5.319   1.628 -1.6195 -0.6461  0.1133
  653MOL0     H86164   4.944   5.388   1.693 -2.1073  2.1270 -0.2412
  653MOL0     H86165   5.045   5.533   1.707 -4.9728  0.3978 -0.3057
  653MOL0     H86166   4.990   5.351   1.947 -0.8804 -0.1759  1.0834
  653MOL0     H86167   4.878   5.472   1.905 -0.9782 -1.5978  1.7736
  653MOL0     H86168   5.055   5.538   2.091  2.5153 -0.1182  0.5284
  653MOL0     H86169   5.173   5.492   1.981 -0.1396  0.5769  3.6736
  653MOL0     H86170   5.118   5.691   1.847  2.6140 -0.2999  0.5645
  653MOL0     H86171   5.154   5.730   2.015  0.7399  0.1418 -0.5860
  653MOL0     H86172   4.877   5.731   1.889  0.2542  0.6246 -0.2879
  653MOL0     H86173   4.982   5.864   1.946  2.8611 -1.0709  1.1501
  653MOL0     H86174   4.845   5.640   2.107  0.6480 -0.4087  1.9685
  653MOL0     H86175   4.949   5.751   2.192  0.6994 -1.8317 -0.8236
  653MOL0     H86176   4.801   5.939   2.123  1.0306  0.1210  1.7559
  653MOL0     H86177   4.730   5.834   2.237  0.0142 -3.0588 -0.1416
  653MOL0     H86178   5.490   5.511   1.857  2.6008  0.6885 -0.7841
  653MOL0     H86179   5.713   5.435   1.801 -1.0299  2.1092  1.7900
  653MOL0     H86180   6.078   5.395   1.508 -0.6150  0.0324  0.1415
  653MOL0     H86181   6.300   5.279   1.459  0.1657 -0.2607 -0.8589
  653MOL0     H86182   8.474   5.040   1.430  3.9505  0.6895 -1.6984
  653MOL0     H86183   8.692   5.118   1.528 -1.8465 -3.0617 -2.5983
  653MOL0     H86184   8.924   5.533   1.639 -1.7970  0.1452  0.5084
  653MOL0     H86185   9.144   5.605   1.697 -0.8511 -0.3477 -2.2801
  653MOL0     H86186   9.265   5.683   1.908  1.7527  0.5798  1.4327
  653MOL0     H86187   9.346   5.642   1.748 -1.1678  1.0257 -0.3792
  653MOL0     H86188   9.490   5.754   1.873 -1.8536  0.4069 -0.4321
  653MOL0     H86189   9.433   5.690   2.032  2.1240 -0.5299  1.0217
  653MOL0     H86190   9.556   5.468   1.945  0.9567 -0.1541 -1.2935
  653MOL0     H86191   9.642   5.627   1.991 -0.8295 -0.7137  1.4075
  653MOL0     H86192   9.618   5.490   1.722  1.1854 -0.7369  0.0916
  653MOL0     H86193   9.604   5.660   1.719 -4.2000 -2.2137 -2.3144
  653MOL0     H86194   9.993   5.632   1.686 -0.6749 -0.2834 -0.9143
  653MOL0     H86195   9.166   5.287   1.987 -0.8634 -2.3919 -0.9620
  653MOL0     H86196   8.939   5.220   1.928 -0.8773  0.3616 -1.8961
  654MOL0     O86197   2.858   4.039   1.318  0.3396 -0.4403  0.3192
  654MOL0     C86198   2.899   4.096   1.419  0.5508 -0.4165 -0.3206
  654MOL0     O86199   2.816   4.158   1.509  0.3969 -0.1788 -0.1513
  654MOL0     C86200   2.675   4.153   1.511 -0.2634  0.3291 -0.1979
  654MOL0     C86201   2.593   4.051   1.461  0.2961  0.7295 -0.4671
  654MOL0     C86202   2.466   4.031   1.505 -0.5696  0.4568 -0.0138
  654MOL0     C86203   2.410   4.116   1.594  0.5037  0.2156 -0.1351
  654MOL0     O86204   2.275   4.091   1.620 -0.5608  0.4666 -0.2800
  654MOL0     C86205   2.174   4.161   1.544  0.1012 -0.2032  0.2211
  654MOL0     C86206   2.039   4.102   1.593  0.1981  0.3098 -0.1274
  654MOL0     C86207   1.925   4.080   1.495 -0.0855  0.5045  0.2605
  654MOL0     C86208   1.953   3.975   1.388 -0.3641  0.8956  0.7591
  654MOL0     C86209   1.832   3.941   1.295  0.9407  0.3470  1.5417
  654MOL0     C86210   1.699   3.898   1.355  0.2054 -0.5031 -0.7121
  654MOL0     C86211   1.571   3.878   1.278  0.1167 -0.0167 -0.2042
  654MOL0     C86212   1.520   3.989   1.182 -0.3480 -0.0782 -0.1706
  654MOL0     N86213   1.410   3.945   1.104  1.1840  0.5460  0.0045
  654MOL0     C86214   1.283   3.911   1.150 -0.5602 -0.8278  0.1904
  654MOL0     C86215   1.213   3.873   1.038  0.0305 -0.6461  0.2502
  654MOL0     C86216   1.071   3.835   1.013  0.6939  0.5015  0.5680
  654MOL0     C86217   0.973   3.952   1.029  0.9825  0.3387 -0.2519
  654MOL0     C86218   1.001   4.076   0.945 -0.2279 -1.3085  0.9257
  654MOL0     C86219   0.890   4.181   0.936 -0.6674  0.9016 -0.1404
  654MOL0     O86220   0.765   4.140   0.890 -0.2380  0.6115  0.3783
  654MOL0     C86221   0.666   4.235   0.912  0.5541 -0.1688 -0.3600
  654MOL0     C86222   0.533   4.194   0.933 -0.1792 -0.1053 -0.5104
  654MOL0     C86223   0.431   4.283   0.948  0.0318 -0.6872 -1.6597
  654MOL0     C86224   0.459   4.423   0.939 -0.0292 -0.1705 -0.4246
  654MOL0     C86225   0.351   4.513   0.980  0.3902 -0.1095 -1.1832
  654MOL0     O86226   0.228   4.463   0.948 -0.4261 -0.1383 -0.4730
  654MOL0     C86227   0.118   4.529   0.982  0.5311 -0.9368 -0.0634
  654MOL0     C86228   0.005   4.526   0.893 -1.0366  1.0909  0.2372
  654MOL0     C86229  -0.114   4.579   0.938  0.1909  0.1840  0.0987
  654MOL0     C86230  -0.122   4.652   1.056  0.8686  0.2133 -0.9543
  654MOL0     O86231  -0.245   4.703   1.080  0.3207  0.5939  0.2003
  654MOL0     C86232  -0.273   4.770   1.201  0.6085 -0.4037 -0.2168
  654MOL0     C86233  -0.400   4.851   1.182  0.1461 -0.0667 -0.2655
  654MOL0     C86234  -0.371   4.982   1.091 -0.1598 -0.1539 -0.3274
  654MOL0     C86235  -0.505   5.051   1.067  0.2532 -0.1930  0.8661
  654MOL0     C86236  -0.487   5.201   1.031  1.0850  0.2700  0.2388
  654MOL0     C86237  -0.612   5.256   0.962  0.2676 -0.2469  0.1206
  654MOL0     C86238  -0.726   5.269   1.068 -1.3283  0.1533 -1.0214
  654MOL0     C86239  -0.842   5.333   1.006 -0.1015  0.4210  0.1296
  654MOL0    Cl86240  -0.980   5.340   1.118 -0.4579  0.3705  0.2014
  654MOL0     C86241  -0.014   4.659   1.133 -0.4686 -0.3914  0.0464
  654MOL0     C86242   0.102   4.594   1.103 -0.0333 -1.1942 -0.1317
  654MOL0     O86243   0.381   4.612   1.047  0.5054  0.8219 -0.1931
  654MOL0     C86244   0.586   4.461   0.918 -0.2222  0.1597  1.0595
  654MOL0     C86245   0.693   4.373   0.908  0.6220 -0.0723  0.1317
  654MOL0     N86246   1.295   3.888   0.936  1.0568 -1.1698 -0.6801
  654MOL0     N86247   1.413   3.920   0.967  0.3486 -0.5396 -0.2532
  654MOL0     C86248   2.486   4.217   1.648 -0.0491  0.4913 -1.2639
  654MOL0     C86249   2.618   4.230   1.613  0.0471 -0.2260  0.2124
  654MOL0     C86250   3.037   4.075   1.457  0.3652 -0.7810  0.3030
  654MOL0     C86251   3.112   3.972   1.399 -1.6644 -0.2860  0.2129
  654MOL0     C86252   3.240   3.952   1.451  0.5163 -0.1304  1.4522
  654MOL0     C86253   3.300   4.040   1.539  1.1384  1.6068  0.1519
  654MOL0     O86254   3.431   4.018   1.576 -0.1167  0.1571  0.2752
  654MOL0     C86255   3.475   4.086   1.703  0.0363  0.2827  0.4936
  654MOL0     C86256   3.605   4.032   1.753  0.3493 -0.2094  0.7825
  654MOL0     C86257   3.655   4.119   1.871 -0.2171  0.4942 -0.7437
  654MOL0     C86258   3.776   4.201   1.821  0.1934 -0.3780 -0.2572
  654MOL0     C86259   3.835   4.278   1.934 -1.2940  0.8437 -1.2948
  654MOL0     C86260   3.870   4.358   2.017  0.1596  0.6947  0.4609
  654MOL0     C86261   3.225   4.140   1.587  0.4380  0.9534 -1.0330
  654MOL0     C86262   3.092   4.154   1.553  0.5358 -0.4463 -0.6088
  654MOL0     H86263   2.623   3.992   1.375  0.1695  0.7721 -0.5414
  654MOL0     H86264   2.416   3.943   1.464  2.7734 -1.1965 -0.8978
  654MOL0     H86265   2.177   4.134   1.438  0.4850 -1.4432  0.5296
  654MOL0     H86266   2.181   4.270   1.550  1.2601 -0.0809 -2.2453
  654MOL0     H86267   2.010   4.181   1.662  3.9854  0.1429  1.9217
  654MOL0     H86268   2.053   4.013   1.655  0.3467 -1.4835 -2.5545
  654MOL0     H86269   1.893   4.178   1.457 -3.9915 -1.6354 -2.6647
  654MOL0     H86270   1.833   4.045   1.542 -0.4698 -0.0233 -0.8668
  654MOL0     H86271   2.026   4.013   1.316 -1.8843 -3.2265 -3.3735
  654MOL0     H86272   2.005   3.889   1.433  0.3407  0.4920 -0.7809
  654MOL0     H86273   1.858   3.869   1.217  0.8879  0.6969  1.1975
  654MOL0     H86274   1.818   4.030   1.233 -1.2438 -0.6990  0.4105
  654MOL0     H86275   1.668   3.977   1.425 -1.1336 -1.4728 -0.1695
  654MOL0     H86276   1.718   3.809   1.415  1.0816 -1.0113 -1.7142
  654MOL0     H86277   1.589   3.795   1.209  1.6814 -0.5549  0.8062
  654MOL0     H86278   1.494   3.850   1.351 -1.5559  2.5619 -0.8714
  654MOL0     H86279   1.608   4.020   1.124  1.7404 -0.1196  2.7249
  654MOL0     H86280   1.482   4.070   1.245 -1.2889 -2.0666  2.0066
  654MOL0     H86281   1.245   3.910   1.251  0.9893 -1.5457  0.7844
  654MOL0     H86282   1.045   3.755   1.084 -0.9359 -0.0040 -0.5643
  654MOL0     H86283   1.057   3.790   0.915  0.5026  0.6951  0.5067
  654MOL0     H86284   0.966   3.975   1.136  0.6832  0.3064 -0.2634
  654MOL0     H86285   0.868   3.926   1.010  0.7921  1.0712 -0.2630
  654MOL0     H86286   1.092   4.124   0.982  1.2424 -1.0078 -2.6716
  654MOL0     H86287   1.032   4.059   0.842 -2.1137  1.0167 -0.1296
  654MOL0     H86288   0.933   4.267   0.884 -0.6356  1.7857  1.2997
  654MOL0     H86289   0.877   4.218   1.038 -1.1981 -0.2870  0.2385
  654MOL0     H86290   0.511   4.089   0.920  1.3711 -0.2900 -2.0051
  654MOL0     H86291   0.331   4.248   0.972 -0.3078 -0.0823 -2.1178
  654MOL0     H86292   0.006   4.455   0.811 -4.4766 -1.0854  1.8602
  654MOL0     H86293  -0.203   4.575   0.876  1.2536  2.0264 -1.6784
  654MOL0     H86294  -0.200   4.850   1.215 -0.1155  0.5062 -1.3955
  654MOL0     H86295  -0.281   4.710   1.292 -2.8684 -1.4386 -1.0646
  654MOL0     H86296  -0.444   4.879   1.278  0.1716 -3.1941  0.7620
  654MOL0     H86297  -0.475   4.796   1.125 -0.2562  1.0267 -0.8301
  654MOL0     H86298  -0.337   4.954   0.991 -2.5532  0.7813 -1.4920
  654MOL0     H86299  -0.315   5.051   1.154 -0.3035 -0.6073  0.3008
  654MOL0     H86300  -0.548   4.995   0.984  2.4418  0.1575 -0.5643
  654MOL0     H86301  -0.574   5.039   1.152 -1.4223  1.7567 -0.1218
  654MOL0     H86302  -0.405   5.213   0.960 -0.6866 -2.2942 -2.5282
  654MOL0     H86303  -0.463   5.259   1.120 -0.1229  0.5836  0.3776
  654MOL0     H86304  -0.639   5.193   0.876  3.5368  2.0694 -2.8963
  654MOL0     H86305  -0.581   5.349   0.914  1.1427 -1.2053 -1.2715
  654MOL0     H86306  -0.755   5.169   1.100 -3.7865  0.7527 -1.1837
  654MOL0     H86307  -0.679   5.335   1.142 -1.4690  0.6747 -1.3933
  654MOL0     H86308  -0.864   5.264   0.924  1.0379  1.9421 -1.5401
  654MOL0     H86309  -0.803   5.422   0.955  0.8894  0.6506  1.2286
  654MOL0     H86310  -0.022   4.712   1.228 -3.0259 -1.6404  0.6134
  654MOL0     H86311   0.180   4.610   1.177  0.6031  2.5363 -1.4010
  654MOL0     H86312   0.611   4.565   0.902 -0.8534 -0.0551 -1.9600
  654MOL0     H86313   0.797   4.402   0.894  1.0887 -2.3676 -2.0032
  654MOL0     H86314   2.444   4.277   1.728 -2.5157 -0.2200 -1.9661
  654MOL0     H86315   2.675   4.310   1.658 -0.6499  0.7741 -0.6304
  654MOL0     H86316   3.081   3.902   1.322  0.4884  1.1467 -2.1003
  654MOL0     H86317   3.296   3.868   1.412 -0.0691 -0.3819  1.1397
  654MOL0     H86318   3.395   4.080   1.777  0.6946  1.0757  1.3100
  654MOL0     H86319   3.489   4.193   1.682  1.6850 -0.1215 -0.6816
  654MOL0     H86320   3.591   3.929   1.789  2.4623 -1.1222 -0.7403
  654MOL0     H86321   3.679   4.034   1.673  1.3223 -1.5567  1.5980
  654MOL0     H86322   3.683   4.065   1.962  1.5712 -0.5848 -1.8763
  654MOL0     H86323   3.567   4.182   1.887 -2.4714 -1.4775 -4.2434
  654MOL0     H86324   3.849   4.130   1.779  2.8231  1.3286  1.1596
  654MOL0     H86325   3.747   4.275   1.746 -0.6948 -0.8505 -0.3904
  654MOL0     H86326   3.890   4.420   2.102  1.2896  2.0613 -0.7577
  654MOL0     H86327   3.263   4.217   1.653  1.7489 -0.5350  0.0315
  654MOL0     H86328   3.026   4.229   1.595  1.5119 -0.8470  1.8237
  655MOL0     O86329   1.462  10.048   0.836  0.3733 -0.9139 -0.1514
  655MOL0     C86330   1.369  10.062   0.753  0.3305 -0.1337 -0.7483
  655MOL0     O86331   1.375  10.063   0.621  0.0903  0.3087 -0.6495
  655MOL0     C86332   1.491  10.114   0.563 -0.3487  0.3113 -0.6600
  655MOL0     C86333   1.496  10.090   0.423  0.1709  0.2964  0.0958
  655MOL0     C86334   1.611  10.142   0.358  0.0611  0.1937 -0.6506
  655MOL0     C86335   1.713  10.206   0.428 -0.9127  0.2982 -0.2583
  655MOL0     O86336   1.823  10.263   0.361  0.1374 -0.1281 -0.1141
  655MOL0     C86337   1.830  10.291   0.219  0.3551  0.0277  0.0220
  655MOL0     C86338   1.718  10.400   0.186 -1.6031 -0.3301 -0.7267
  655MOL0     C86339   1.740  10.530   0.266  1.2230 -0.2243 -0.1708
  655MOL0     C86340   1.610  10.619   0.279 -0.6985 -0.3844 -0.6208
  655MOL0     C86341   1.491  10.567   0.355 -0.0127 -0.2096  0.1779
  655MOL0     C86342   1.504  10.575   0.503 -0.8669 -0.6010  0.2180
  655MOL0     C86343   1.369  10.573   0.586 -0.9853 -0.1001 -0.7445
  655MOL0     C86344   1.261  10.475   0.546 -0.0549 -0.0562 -0.5673
  655MOL0     N86345   1.152  10.500   0.638  0.0739 -0.5037  0.4989
  655MOL0     C86346   1.070  10.612   0.628  1.3582 -0.5135  0.5635
  655MOL0     C86347   0.987  10.594   0.732 -0.1053 -0.2481  0.5073
  655MOL0     C86348   0.877  10.688   0.785  0.1936 -0.0878  0.9084
  655MOL0     C86349   0.784  10.732   0.668  0.7586 -0.2620  0.4222
  655MOL0     C86350   0.658  10.800   0.737  0.5536  1.4912  0.6559
  655MOL0     C86351   0.548  10.814   0.633 -0.1426 -0.8107  0.0520
  655MOL0     O86352   0.420  10.851   0.677 -0.1310 -0.7536 -0.3670
  655MOL0     C86353   0.303  10.834   0.605 -0.5102 -0.8686 -0.2955
  655MOL0     C86354   0.296  10.788   0.472 -0.3788 -0.5769 -0.1059
  655MOL0     C86355   0.158  10.782   0.425  0.0871  0.4336 -0.7288
  655MOL0     C86356   0.046  10.809   0.499  0.5432  0.4700 -0.1650
  655MOL0     C86357  -0.092  10.793   0.440 -0.9964  0.0025 -0.7913
  655MOL0     O86358  -0.199  10.779   0.522  0.4178 -0.5224  0.1411
  655MOL0     C86359  -0.323  10.778   0.465 -0.2709  0.5022 -0.0050
  655MOL0     C86360  -0.376  10.879   0.389  0.5396  0.4321  0.3892
  655MOL0     C86361  -0.502  10.861   0.334  0.2988 -0.2431 -0.4283
  655MOL0     C86362  -0.578  10.744   0.351  0.1337  0.4018 -0.3224
  655MOL0     O86363  -0.709  10.763   0.302 -0.1301 -0.3237  0.4283
  655MOL0     C86364  -0.763  10.648   0.224 -0.2737  0.4625 -0.3661
  655MOL0     C86365  -0.864  10.681   0.104  0.4749 -1.0574 -0.3597
  655MOL0     C86366  -0.951  10.812   0.145 -1.3798  0.8224  0.4789
  655MOL0     C86367  -1.083  10.828   0.066 -0.0954  0.5610  0.0558
  655MOL0     C86368  -1.173  10.702   0.086 -0.2393  0.1212  0.3353
  655MOL0     C86369  -1.322  10.750   0.063 -0.0561 -0.0182 -0.7621
  655MOL0     C86370  -1.413  10.630   0.079 -0.7768 -0.5628  0.6551
  655MOL0     C86371  -1.559  10.662   0.079  0.4170  0.1834 -0.3952
  655MOL0    Cl86372  -1.658  10.513   0.044  0.1935 -0.2546 -0.0245
  655MOL0     C86373  -0.521  10.642   0.428  0.3024 -0.5913  0.0788
  655MOL0     C86374  -0.394  10.656   0.484  0.0109 -0.1431  0.5462
  655MOL0     O86375  -0.095  10.791   0.320  0.4962 -0.4976 -0.7295
  655MOL0     C86376   0.062  10.834   0.634 -0.5543  0.1165 -0.6324
  655MOL0     C86377   0.187  10.856   0.689 -0.0680 -0.6117 -0.0445
  655MOL0     N86378   1.013  10.477   0.797 -0.2611  0.0025 -0.0185
  655MOL0     N86379   1.117  10.422   0.746  0.2087  0.0155 -0.3704
  655MOL0     C86380   1.700  10.239   0.564  0.0202  0.4429 -0.5598
  655MOL0     C86381   1.587  10.195   0.629  0.9519 -0.8324  0.0667
  655MOL0     C86382   1.229  10.040   0.815  0.2244 -0.3796 -0.0682
  655MOL0     C86383   1.115  10.087   0.749 -0.7828  1.0074  0.3578
  655MOL0     C86384   0.996  10.079   0.813  0.5157 -0.3242  0.1955
  655MOL0     C86385   0.981  10.030   0.941  0.0010 -0.1037 -0.1511
  655MOL0     O86386   0.864  10.029   1.020  0.5354 -1.0842 -0.0921
  655MOL0     C86387   0.755  10.105   0.992 -0.4389 -0.4638  0.0300
  655MOL0     C86388   0.770  10.242   1.054  0.7580  0.1418  0.6928
  655MOL0     C86389   0.803  10.239   1.206  0.1079 -0.2982 -0.2221
  655MOL0     C86390   0.835  10.385   1.253  0.1872  0.7540 -0.6586
  655MOL0     C86391   0.705  10.454   1.261  0.2221  0.3374 -0.1458
  655MOL0     C86392   0.601  10.518   1.256 -1.0186 -0.0512 -0.4195
  655MOL0     C86393   1.091   9.974   1.002 -0.0612  0.0619  0.2090
  655MOL0     C86394   1.215   9.981   0.942  0.0637  1.1056  1.3716
  655MOL0     H86395   1.417  10.036   0.372  0.8537 -1.3433  0.6740
  655MOL0     H86396   1.625  10.134   0.250 -0.6906 -1.1237 -0.6640
  655MOL0     H86397   1.817  10.204   0.154 -3.9066 -0.4006  1.1308
  655MOL0     H86398   1.926  10.339   0.199  2.4684 -3.5390  0.8377
  655MOL0     H86399   1.616  10.363   0.192 -0.7694 -2.7850 -0.7222
  655MOL0     H86400   1.734  10.422   0.079  0.9023 -0.2886 -0.4152
  655MOL0     H86401   1.801  10.599   0.208 -1.3071  1.7604 -0.6901
  655MOL0     H86402   1.787  10.512   0.363 -0.3296  0.5569  0.7677
  655MOL0     H86403   1.632  10.723   0.306  1.6055 -0.8163 -0.6729
  655MOL0     H86404   1.573  10.632   0.177 -0.5106  2.2882 -0.4129
  655MOL0     H86405   1.472  10.464   0.326  0.9414 -0.5278  0.6619
  655MOL0     H86406   1.405  10.626   0.320 -0.0304 -0.5419 -0.3444
  655MOL0     H86407   1.555  10.667   0.533  0.1375 -0.9476 -0.3874
  655MOL0     H86408   1.567  10.491   0.535  1.2847  0.5359 -0.7845
  655MOL0     H86409   1.405  10.553   0.687 -0.2362 -0.9798 -1.1626
  655MOL0     H86410   1.317  10.668   0.600 -1.5244 -0.7758  2.5599
  655MOL0     H86411   1.289  10.369   0.548 -1.0958 -0.3464  0.2730
  655MOL0     H86412   1.229  10.495   0.444 -0.9845 -1.5877 -0.6156
  655MOL0     H86413   1.068  10.700   0.564 -2.9242 -0.5283  0.3876
  655MOL0     H86414   0.913  10.776   0.839 -1.7080 -0.4168  2.8661
  655MOL0     H86415   0.817  10.630   0.855 -1.5718  1.7202  0.9915
  655MOL0     H86416   0.747  10.644   0.615 -5.2217  3.2237 -2.1516
  655MOL0     H86417   0.826  10.798   0.591 -1.0007 -1.1456 -1.3839
  655MOL0     H86418   0.618  10.736   0.816  0.0709 -0.3484 -0.9679
  655MOL0     H86419   0.685  10.897   0.778  0.2322  1.8076  0.1254
  655MOL0     H86420   0.536  10.720   0.579 -1.3603 -0.5110 -0.2259
  655MOL0     H86421   0.579  10.900   0.573 -1.5056  0.5481  1.1923
  655MOL0     H86422   0.384  10.760   0.415  0.7483 -1.9358  2.1895
  655MOL0     H86423   0.153  10.756   0.320  1.2851 -1.7943 -0.2957
  655MOL0     H86424  -0.325  10.975   0.386 -0.4003  0.9488  0.8084
  655MOL0     H86425  -0.535  10.929   0.257 -1.3107  0.5946  0.9366
  655MOL0     H86426  -0.808  10.578   0.295  0.0929  0.2383 -0.3534
  655MOL0     H86427  -0.674  10.591   0.196  0.2445  1.2614 -0.3685
  655MOL0     H86428  -0.927  10.594   0.082 -0.0860 -0.7229 -0.0853
  655MOL0     H86429  -0.801  10.692   0.015  0.3433 -2.1449 -0.5992
  655MOL0     H86430  -0.895  10.904   0.123 -1.7313  0.4795 -2.1361
  655MOL0     H86431  -0.972  10.805   0.253  0.7234 -0.5019  0.8579
  655MOL0     H86432  -1.143  10.906   0.114  0.3276  1.1113 -0.2929
  655MOL0     H86433  -1.066  10.842  -0.041 -0.8203 -4.1048 -0.8590
  655MOL0     H86434  -1.162  10.667   0.188  0.2067 -0.6607  0.0261
  655MOL0     H86435  -1.147  10.626   0.012 -4.2794  1.5397 -3.0386
  655MOL0     H86436  -1.341  10.794  -0.036 -0.5020  0.8248 -0.3168
  655MOL0     H86437  -1.347  10.823   0.140 -1.3451 -0.9656 -0.2466
  655MOL0     H86438  -1.387  10.569  -0.008  1.5048  2.2583 -0.8092
  655MOL0     H86439  -1.393  10.575   0.171 -0.4578 -3.2958 -0.9274
  655MOL0     H86440  -1.574  10.725  -0.010 -1.0909 -0.7088 -0.8167
  655MOL0     H86441  -1.600  10.713   0.166  1.4743  0.6942 -0.1890
  655MOL0     H86442  -0.579  10.556   0.460  1.0608 -1.7131 -1.4390
  655MOL0     H86443  -0.350  10.588   0.556 -3.8514  0.2925  3.6119
  655MOL0     H86444  -0.028  10.851   0.693 -1.0784 -0.7499 -1.1603
  655MOL0     H86445   0.193  10.888   0.792 -3.3978  2.0192 -0.4983
  655MOL0     H86446   1.779  10.299   0.607 -0.0784 -0.6501  1.2448
  655MOL0     H86447   1.590  10.221   0.734 -0.0591 -0.3387 -0.0085
  655MOL0     H86448   1.117  10.131   0.650 -4.3397 -2.5760 -1.6502
  655MOL0     H86449   0.904  10.113   0.766  0.1858  1.2285  1.8135
  655MOL0     H86450   0.665  10.063   1.037 -0.9264  0.5558  0.0168
  655MOL0     H86451   0.727  10.123   0.888  1.1535 -0.4091 -0.4174
  655MOL0     H86452   0.848  10.294   0.998 -1.5084  0.7623 -2.0924
  655MOL0     H86453   0.676  10.297   1.045 -1.4276 -3.0956  1.9595
  655MOL0     H86454   0.899  10.187   1.215  0.2088  0.1890  2.2364
  655MOL0     H86455   0.727  10.189   1.266  1.1034  0.9162  2.1736
  655MOL0     H86456   0.880  10.395   1.352 -2.8936  0.4650  0.9124
  655MOL0     H86457   0.898  10.437   1.181  1.2581  0.0049 -0.2829
  655MOL0     H86458   0.519  10.587   1.247 -0.7048  0.1243 -2.1992
  655MOL0     H86459   1.080   9.912   1.090  2.1214  0.6371  0.9415
  655MOL0     H86460   1.289   9.918   0.990  0.5702  0.7546  0.1705
  656MOL0     O86461   9.199   9.764   8.750  0.1460  0.4581  0.1307
  656MOL0     C86462   9.204   9.643   8.777  1.1723 -0.2359  0.6345
  656MOL0     O86463   9.108   9.550   8.758  0.3178 -0.0865  0.4291
  656MOL0     C86464   8.993   9.594   8.694 -0.8056 -0.2915 -0.1554
  656MOL0     C86465   8.901   9.677   8.760  0.2196  0.5640  1.3919
  656MOL0     C86466   8.782   9.712   8.693 -0.0479 -0.5574 -0.8199
  656MOL0     C86467   8.758   9.673   8.557 -0.5993  0.9370  0.1653
  656MOL0     O86468   8.638   9.692   8.487 -0.1808 -0.4220  0.1511
  656MOL0     C86469   8.544   9.785   8.538  0.2036 -0.5733 -0.2876
  656MOL0     C86470   8.423   9.761   8.443  0.6292 -0.3934 -0.2051
  656MOL0     C86471   8.301   9.844   8.482  0.4192  0.3060  0.1925
  656MOL0     C86472   8.327   9.995   8.469  0.6330 -0.5394 -0.2274
  656MOL0     C86473   8.332  10.050   8.322 -0.5909 -0.0517 -0.7864
  656MOL0     C86474   8.337  10.198   8.329  0.5177 -0.1731  0.2131
  656MOL0     C86475   8.386  10.283   8.205 -0.1529 -0.6134 -0.2067
  656MOL0     C86476   8.376  10.435   8.211  0.7762  0.6143  0.7171
  656MOL0     N86477   8.382  10.492   8.080  0.6957 -1.0672  0.3300
  656MOL0     C86478   8.315  10.601   8.044  0.4532  0.5240  0.4824
  656MOL0     C86479   8.361  10.631   7.921 -0.5317 -0.1168 -0.4416
  656MOL0     C86480   8.323  10.751   7.837  0.0694  0.5447 -0.4267
  656MOL0     C86481   8.178  10.739   7.792  0.8211 -1.0916  0.2392
  656MOL0     C86482   8.123  10.884   7.785  0.1868  0.4475 -0.4235
  656MOL0     C86483   7.978  10.887   7.748  0.4757 -0.5735 -0.2533
  656MOL0     O86484   7.938  11.028   7.773  0.0550 -0.0720  0.3450
  656MOL0     C86485   7.812  11.062   7.741 -0.2736 -0.3989 -0.3569
  656MOL0     C86486   7.713  10.969   7.702 -0.2045 -0.1599  0.4097
  656MOL0     C86487   7.592  11.011   7.664 -0.1794  0.2678  0.3094
  656MOL0     C86488   7.557  11.149   7.686  0.3661 -0.2923  0.4203
  656MOL0     C86489   7.411  11.200   7.674 -0.1515 -0.3083  0.6110
  656MOL0     O86490   7.392  11.328   7.690 -0.0260 -0.1808 -0.4226
  656MOL0     C86491   7.265  11.377   7.657  0.4516  0.8190  0.0712
  656MOL0     C86492   7.251  11.486   7.567  0.7260 -1.3508  0.3958
  656MOL0     C86493   7.133  11.555   7.548  0.2608 -0.0948 -0.1842
  656MOL0     C86494   7.011  11.521   7.609  0.0103  0.5838  0.7190
  656MOL0     O86495   6.894  11.594   7.603 -0.6270  0.0191  0.2872
  656MOL0     C86496   6.770  11.545   7.651 -0.7627  0.5803  1.4603
  656MOL0     C86497   6.656  11.609   7.572 -0.7109 -0.5032  0.1656
  656MOL0     C86498   6.519  11.546   7.598 -0.4063  0.8786 -0.3012
  656MOL0     C86499   6.420  11.625   7.516  0.4052  0.5117  0.0933
  656MOL0     C86500   6.287  11.541   7.509  0.1011  0.1601  1.0768
  656MOL0     C86501   6.157  11.611   7.473 -0.4298  0.3208  0.3165
  656MOL0     C86502   6.042  11.516   7.467 -0.8719 -0.2936 -0.3450
  656MOL0     C86503   5.923  11.567   7.550 -0.1409  0.6029  0.8035
  656MOL0    Cl86504   5.887  11.745   7.514  0.4236 -0.1522 -0.0623
  656MOL0     C86505   7.023  11.420   7.708  0.0515  0.3603  0.3107
  656MOL0     C86506   7.143  11.344   7.727 -0.8598  0.6026 -0.4288
  656MOL0     O86507   7.322  11.114   7.664  0.4346 -0.1661 -0.8623
  656MOL0     C86508   7.654  11.230   7.737 -0.6183 -0.2738 -0.3679
  656MOL0     C86509   7.784  11.193   7.763 -0.7123  0.0714 -0.3120
  656MOL0     N86510   8.458  10.539   7.882 -0.1187  0.2257  0.6231
  656MOL0     N86511   8.466  10.456   7.982 -0.4782  0.2548  0.2048
  656MOL0     C86512   8.851   9.590   8.491  0.6538  1.2123 -0.0056
  656MOL0     C86513   8.963   9.544   8.557  0.6139  0.0140  0.9683
  656MOL0     C86514   9.323   9.587   8.849 -0.4569 -0.2182  0.4961
  656MOL0     C86515   9.343   9.452   8.890  1.3022 -0.6912 -0.1579
  656MOL0     C86516   9.461   9.403   8.966  0.6456  0.0074  0.4611
  656MOL0     C86517   9.569   9.499   8.977 -0.1737  0.7091 -0.6849
  656MOL0     O86518   9.690   9.478   9.036  0.4039 -0.1274 -0.1261
  656MOL0     C86519   9.728   9.350   9.069  0.1269  0.9153  0.8754
  656MOL0     C86520   9.866   9.336   9.128 -0.3096 -0.0823  0.1863
  656MOL0     C86521   9.865   9.391   9.266 -0.5039 -0.0063 -0.1574
  656MOL0     C86522  10.015   9.399   9.305  0.8884 -0.1652  0.0788
  656MOL0     C86523  10.020   9.452   9.439 -0.3672 -0.9402 -0.1898
  656MOL0     C86524  10.023   9.497   9.552  0.0509 -0.5427  0.3683
  656MOL0     C86525   9.547   9.627   8.935  0.3034 -0.0081  0.0575
  656MOL0     C86526   9.430   9.675   8.876  0.0429  0.2710  0.5794
  656MOL0     H86527   8.945   9.697   8.857  2.9038 -4.3927  1.5071
  656MOL0     H86528   8.712   9.775   8.747 -0.0316 -0.5185 -0.8438
  656MOL0     H86529   8.571   9.891   8.534 -0.5706 -0.1923  2.6461
  656MOL0     H86530   8.519   9.768   8.643  1.3247 -2.4747 -0.2840
  656MOL0     H86531   8.396   9.655   8.451 -0.1693 -0.4823 -3.0561
  656MOL0     H86532   8.441   9.769   8.336 -0.2805  0.0329 -0.3287
  656MOL0     H86533   8.258   9.818   8.580  1.3146 -0.8293  0.3092
  656MOL0     H86534   8.213   9.815   8.425 -0.2018  0.2473  1.1571
  656MOL0     H86535   8.238  10.035   8.518  1.2365 -1.8318  2.0780
  656MOL0     H86536   8.412  10.025   8.531  0.7177 -0.4485 -0.3886
  656MOL0     H86537   8.243  10.039   8.259  0.4204  3.2574 -3.0494
  656MOL0     H86538   8.416  10.012   8.264  1.2934  2.6648 -0.0362
  656MOL0     H86539   8.411  10.224   8.406  0.1485 -2.8507  1.6003
  656MOL0     H86540   8.242  10.239   8.365 -1.4119 -0.9848 -3.5226
  656MOL0     H86541   8.492  10.269   8.183 -0.1108 -1.0882  0.2995
  656MOL0     H86542   8.325  10.254   8.119  1.5779 -0.3313 -1.5786
  656MOL0     H86543   8.442  10.474   8.289  2.7292  1.4400 -1.2603
  656MOL0     H86544   8.271  10.445   8.242  0.5548  1.8830 -0.3626
  656MOL0     H86545   8.237  10.650   8.102 -0.6671 -0.3434 -0.2639
  656MOL0     H86546   8.385  10.771   7.749  0.8526  0.1176  0.0202
  656MOL0     H86547   8.336  10.836   7.904  2.3800 -0.6133  0.7230
  656MOL0     H86548   8.129  10.663   7.853  2.6881 -0.8517  2.1828
  656MOL0     H86549   8.180  10.718   7.685  2.7179 -0.7519  0.1740
  656MOL0     H86550   8.147  10.939   7.877  0.4159  0.5918 -0.5686
  656MOL0     H86551   8.165  10.940   7.701 -2.2639  1.8083 -0.8582
  656MOL0     H86552   7.913  10.814   7.796 -0.1212  0.1271  0.0148
  656MOL0     H86553   7.969  10.857   7.643 -5.7050  0.9126 -0.5174
  656MOL0     H86554   7.740  10.864   7.693 -0.8116 -0.1418 -2.1289
  656MOL0     H86555   7.513  10.942   7.636  0.7268 -0.1311 -1.4358
  656MOL0     H86556   7.341  11.520   7.516 -1.3755  0.6923 -2.2629
  656MOL0     H86557   7.125  11.646   7.489 -2.9303  0.8606  1.4821
  656MOL0     H86558   6.765  11.565   7.758 -0.3277 -0.4073  1.6713
  656MOL0     H86559   6.756  11.440   7.627  0.2786  1.2664 -3.2188
  656MOL0     H86560   6.677  11.591   7.466 -1.7223 -0.7240 -0.0044
  656MOL0     H86561   6.665  11.717   7.584  0.9717 -0.4608 -1.1220
  656MOL0     H86562   6.500  11.545   7.706  0.0562  3.3354 -0.1220
  656MOL0     H86563   6.512  11.442   7.564  2.2860  0.3498  0.5302
  656MOL0     H86564   6.396  11.726   7.549 -0.4591 -0.0816  1.3658
  656MOL0     H86565   6.461  11.637   7.415 -1.5302  1.3018 -0.6327
  656MOL0     H86566   6.268  11.514   7.613 -1.0002 -0.2639  0.7875
  656MOL0     H86567   6.288  11.462   7.432 -0.1133  0.6271  0.5856
  656MOL0     H86568   6.162  11.668   7.380  3.2848 -1.5271 -0.8389
  656MOL0     H86569   6.140  11.691   7.546 -0.9677 -0.4624  1.0724
  656MOL0     H86570   6.008  11.512   7.363 -1.3391  2.1690 -0.3586
  656MOL0     H86571   6.076  11.418   7.502  1.6224  0.6277  0.0306
  656MOL0     H86572   5.943  11.556   7.658 -0.4996  1.0712  0.9181
  656MOL0     H86573   5.836  11.504   7.531  0.3049  0.0921  0.4122
  656MOL0     H86574   6.935  11.405   7.771  1.4077  1.0771  2.4653
  656MOL0     H86575   7.153  11.275   7.810  2.6137 -0.6402 -1.7474
  656MOL0     H86576   7.629  11.335   7.749  0.5147 -0.0466  0.1386
  656MOL0     H86577   7.856  11.265   7.802 -1.7667  1.5215 -0.9403
  656MOL0     H86578   8.809   9.562   8.395  0.0920  2.2209 -0.0646
  656MOL0     H86579   9.025   9.476   8.499 -0.9023 -0.3446 -0.2939
  656MOL0     H86580   9.268   9.375   8.871  0.1764  0.0231  1.1977
  656MOL0     H86581   9.476   9.298   8.990  0.7239  0.3490  1.9818
  656MOL0     H86582   9.714   9.285   8.982  3.6058  0.5107  0.4765
  656MOL0     H86583   9.658   9.323   9.148  1.0741  1.9360  2.1102
  656MOL0     H86584   9.882   9.227   9.126  0.7697  0.0807 -1.2411
  656MOL0     H86585   9.942   9.378   9.062  0.5467 -0.0185  1.1916
  656MOL0     H86586   9.819   9.314   9.328 -1.1470  1.3626  1.1298
  656MOL0     H86587   9.808   9.485   9.267 -1.7157 -0.6280 -2.7613
  656MOL0     H86588  10.055   9.297   9.311 -0.1301 -0.5508  0.4614
  656MOL0     H86589  10.083   9.450   9.236 -0.1750  0.5940 -0.4218
  656MOL0     H86590  10.014   9.539   9.650 -1.3003  0.9391 -0.3582
  656MOL0     H86591   9.627   9.700   8.943 -0.6955  1.5721 -2.7434
  656MOL0     H86592   9.418   9.780   8.851 -5.3592 -0.5455 -1.7690
  657MOL0     O86593   3.182   7.383   7.541  0.1336  0.2160 -0.0546
  657MOL0     C86594   3.227   7.496   7.514 -0.6169 -0.2531 -0.1211
  657MOL0     O86595   3.206   7.570   7.399  0.2457 -0.0490  0.1652
  657MOL0     C86596   3.109   7.529   7.316  0.0474  0.1888  0.0838
  657MOL0     C86597   3.130   7.559   7.179 -0.3480 -0.5686 -0.3978
  657MOL0     C86598   3.037   7.524   7.071  0.0623 -1.1590 -0.2049
  657MOL0     C86599   2.924   7.450   7.105 -0.0464 -0.0778 -0.1445
  657MOL0     O86600   2.821   7.414   7.018 -0.5796  0.0341 -0.3833
  657MOL0     C86601   2.824   7.463   6.886 -0.1423  0.4411  0.0284
  657MOL0     C86602   2.716   7.383   6.821 -0.1457  0.3336  0.2162
  657MOL0     C86603   2.685   7.454   6.686 -0.8322 -0.1376 -0.2237
  657MOL0     C86604   2.586   7.372   6.604 -0.3815 -0.1374 -0.0319
  657MOL0     C86605   2.626   7.369   6.459  0.0819 -0.0845  1.1622
  657MOL0     C86606   2.640   7.509   6.387  0.1034 -0.5519  0.1258
  657MOL0     C86607   2.686   7.490   6.244 -0.3870 -0.0969  0.0199
  657MOL0     C86608   2.715   7.621   6.183 -0.4230  0.0269  0.5312
  657MOL0     N86609   2.837   7.691   6.227 -0.5533  0.2767 -0.2470
  657MOL0     C86610   2.970   7.654   6.212 -0.2772  0.5330  0.4853
  657MOL0     C86611   3.048   7.763   6.247  0.1439 -0.0257  0.1776
  657MOL0     C86612   3.189   7.772   6.269  1.0084 -0.4651  1.1764
  657MOL0     C86613   3.280   7.721   6.150  1.1416 -0.4890 -0.7033
  657MOL0     C86614   3.243   7.775   6.007 -0.5406 -1.6154  0.4701
  657MOL0     C86615   3.295   7.921   5.985 -1.4223 -0.6411 -0.7612
  657MOL0     O86616   3.431   7.938   6.022  0.1686 -0.8832  0.5380
  657MOL0     C86617   3.494   8.052   5.996  0.8788  0.2462 -0.0580
  657MOL0     C86618   3.602   8.060   6.071 -0.0922 -0.5221  0.0890
  657MOL0     C86619   3.691   8.168   6.061  0.6360  0.1305 -0.9508
  657MOL0     C86620   3.669   8.263   5.962 -0.6962  0.3049 -0.2074
  657MOL0     C86621   3.756   8.377   5.930  0.4706  0.2038  0.3287
  657MOL0     O86622   3.698   8.465   5.843 -0.7648 -0.4772  0.1291
  657MOL0     C86623   3.779   8.570   5.806  0.5781  0.6216  0.5301
  657MOL0     C86624   3.721   8.697   5.822  0.3925 -0.7579 -0.5590
  657MOL0     C86625   3.789   8.803   5.758  0.1157 -0.0193 -0.0791
  657MOL0     C86626   3.906   8.781   5.675  0.2450  0.1575 -0.3870
  657MOL0     O86627   3.985   8.889   5.641  0.1099 -0.0957 -0.1092
  657MOL0     C86628   4.071   8.935   5.744  0.1224 -0.1783 -0.3345
  657MOL0     C86629   4.202   8.849   5.743 -0.2995 -0.6364 -0.7529
  657MOL0     C86630   4.278   8.843   5.614 -0.7957  0.2680  0.0520
  657MOL0     C86631   4.403   8.762   5.631  0.1328 -0.3434  0.8023
  657MOL0     C86632   4.484   8.743   5.500 -0.9744  0.3803 -1.2014
  657MOL0     C86633   4.628   8.780   5.520  0.4471 -0.0513 -0.7237
  657MOL0     C86634   4.705   8.766   5.380  0.0547 -1.0346 -0.9050
  657MOL0     C86635   4.847   8.799   5.418 -0.5291  0.1645  0.0342
  657MOL0    Cl86636   4.944   8.803   5.268 -0.0641 -0.2070 -0.9048
  657MOL0     C86637   3.959   8.651   5.658 -0.0876 -0.1047  0.1084
  657MOL0     C86638   3.884   8.549   5.720  0.0858 -0.4709 -0.3604
  657MOL0     O86639   3.870   8.380   5.980  0.6783 -1.1562 -0.5749
  657MOL0     C86640   3.551   8.240   5.886 -0.3758 -0.0002  0.4738
  657MOL0     C86641   3.460   8.141   5.909  0.1405 -0.3224 -0.1248
  657MOL0     N86642   2.962   7.862   6.281 -0.2113 -0.3639 -1.3225
  657MOL0     N86643   2.843   7.819   6.284 -0.0913 -0.0704  0.1531
  657MOL0     C86644   2.906   7.413   7.243  0.3804 -0.7215  0.1889
  657MOL0     C86645   2.991   7.455   7.343 -0.8258  0.3441 -0.3918
  657MOL0     C86646   3.327   7.550   7.609  0.0383  0.1851 -0.2180
  657MOL0     C86647   3.409   7.656   7.572  0.6152 -0.8657 -0.1825
  657MOL0     C86648   3.517   7.701   7.658 -0.4671  0.0679 -0.4095
  657MOL0     C86649   3.527   7.642   7.786 -0.1206 -0.9538  0.4780
  657MOL0     O86650   3.629   7.673   7.875  0.0260 -0.6707 -0.3605
  657MOL0     C86651   3.692   7.802   7.859  0.7776 -0.2703 -0.3521
  657MOL0     C86652   3.722   7.866   7.985 -0.9179 -0.1562  0.0993
  657MOL0     C86653   3.795   7.779   8.090 -0.0366  0.2118  0.1461
  657MOL0     C86654   3.858   7.866   8.214  0.0655  0.6025  1.1529
  657MOL0     C86655   4.004   7.832   8.235  0.7344 -0.1886 -0.2219
  657MOL0     C86656   4.123   7.813   8.257 -0.3884  0.0663  0.1191
  657MOL0     C86657   3.449   7.536   7.828  0.7163  0.5014 -0.5165
  657MOL0     C86658   3.349   7.489   7.738  0.1052 -0.8225 -0.0877
  657MOL0     H86659   3.219   7.617   7.153 -1.4625  1.6175  0.3980
  657MOL0     H86660   3.070   7.554   6.972 -1.5687  1.7578  0.0015
  657MOL0     H86661   2.916   7.447   6.828 -0.1128  1.1882 -0.1390
  657MOL0     H86662   2.796   7.569   6.890 -1.5067  0.0731  0.7408
  657MOL0     H86663   2.636   7.370   6.896  0.7096  2.9866  1.7083
  657MOL0     H86664   2.757   7.289   6.784 -0.8791 -0.2693  0.8819
  657MOL0     H86665   2.778   7.455   6.628 -0.2617 -2.6852  0.5107
  657MOL0     H86666   2.650   7.555   6.708  2.9117  1.4244 -0.6383
  657MOL0     H86667   2.579   7.268   6.640  2.1552 -0.2353  0.3689
  657MOL0     H86668   2.490   7.424   6.612  0.1516  0.7184  1.1920
  657MOL0     H86669   2.568   7.308   6.390  1.5777  1.7232 -1.8698
  657MOL0     H86670   2.719   7.315   6.444  0.4011  0.1730  2.1116
  657MOL0     H86671   2.715   7.572   6.436  0.2145  0.2133 -0.9903
  657MOL0     H86672   2.542   7.557   6.385  0.6868  0.6892  0.3701
  657MOL0     H86673   2.775   7.426   6.232  1.0844  1.7881  0.3818
  657MOL0     H86674   2.603   7.454   6.184  0.0110 -1.6432  0.3431
  657MOL0     H86675   2.634   7.693   6.194  1.2917  1.8846  1.8603
  657MOL0     H86676   2.724   7.610   6.075  0.6196 -1.0761  0.7040
  657MOL0     H86677   3.010   7.556   6.188  0.5701  0.1676  3.1354
  657MOL0     H86678   3.208   7.726   6.366  1.2267 -0.0590  1.3301
  657MOL0     H86679   3.213   7.879   6.276  2.1645 -0.1900 -3.3644
  657MOL0     H86680   3.276   7.612   6.147  0.9943 -0.4544 -2.7275
  657MOL0     H86681   3.381   7.747   6.181  1.5779 -2.5929 -0.2590
  657MOL0     H86682   3.288   7.718   5.925 -3.2395 -2.0139 -0.8331
  657MOL0     H86683   3.136   7.778   5.982 -0.2452 -0.4034 -0.7715
  657MOL0     H86684   3.246   7.996   6.048 -0.1539  0.7342 -1.3372
  657MOL0     H86685   3.277   7.948   5.880 -2.6464  1.0039 -0.1691
  657MOL0     H86686   3.612   7.991   6.154 -2.4552 -0.8798  0.1331
  657MOL0     H86687   3.768   8.185   6.136 -0.9567  2.5036  0.2842
  657MOL0     H86688   3.629   8.714   5.878  0.6649  1.3746 -0.6728
  657MOL0     H86689   3.770   8.906   5.784 -0.3010  0.3073 -1.5697
  657MOL0     H86690   4.037   8.910   5.845  0.7385 -0.9523 -0.3104
  657MOL0     H86691   4.091   9.040   5.722  1.3148  0.5753  3.5387
  657MOL0     H86692   4.166   8.749   5.768  1.0467 -1.5467 -2.2357
  657MOL0     H86693   4.272   8.881   5.821  2.6616 -4.2677 -1.5991
  657MOL0     H86694   4.305   8.940   5.573  1.0847 -0.4207 -0.4222
  657MOL0     H86695   4.216   8.775   5.553 -0.8611 -0.5224  0.9692
  657MOL0     H86696   4.472   8.818   5.695  1.1324 -0.2631 -0.3103
  657MOL0     H86697   4.371   8.669   5.680 -0.1672  0.9663  3.2526
  657MOL0     H86698   4.441   8.804   5.421 -0.7762 -1.1673 -2.5659
  657MOL0     H86699   4.471   8.637   5.476  0.2586 -0.0176 -0.2476
  657MOL0     H86700   4.670   8.721   5.601  0.4768  1.8795  0.7557
  657MOL0     H86701   4.637   8.883   5.556  1.3182 -1.0676  2.2481
  657MOL0     H86702   4.706   8.664   5.341  1.2078 -0.2148 -3.2326
  657MOL0     H86703   4.661   8.832   5.304 -3.9841 -1.5649  0.7392
  657MOL0     H86704   4.891   8.717   5.476  0.9566  0.6305 -0.4211
  657MOL0     H86705   4.864   8.893   5.470  4.2232 -0.7991  0.6324
  657MOL0     H86706   4.052   8.622   5.610 -1.1211 -2.2746 -0.6672
  657MOL0     H86707   3.923   8.449   5.703  1.6758  0.0423  0.1011
  657MOL0     H86708   3.513   8.298   5.802  0.4959 -1.8734 -1.2810
  657MOL0     H86709   3.375   8.132   5.843  0.1316 -0.0062 -0.1566
  657MOL0     H86710   2.809   7.368   7.260 -0.9371  1.5768 -0.6976
  657MOL0     H86711   2.969   7.420   7.443  0.4309  0.1511 -0.1756
  657MOL0     H86712   3.386   7.695   7.473 -1.3770  1.8225  1.2033
  657MOL0     H86713   3.587   7.774   7.619  0.4573 -0.4248  0.2951
  657MOL0     H86714   3.622   7.874   7.817 -2.5396 -1.3189  2.8965
  657MOL0     H86715   3.779   7.785   7.795  1.1050 -0.2341  0.0774
  657MOL0     H86716   3.783   7.952   7.957  1.2450 -0.7816  2.4900
  657MOL0     H86717   3.630   7.907   8.027 -0.0043  0.9627  1.0768
  657MOL0     H86718   3.876   7.724   8.041 -0.8256  1.0805 -2.2657
  657MOL0     H86719   3.722   7.711   8.135 -0.5695  0.2219 -0.6835
  657MOL0     H86720   3.856   7.975   8.201  1.4460  0.3511 -1.8245
  657MOL0     H86721   3.794   7.838   8.299 -1.1434 -3.1788 -0.7808
  657MOL0     H86722   4.229   7.811   8.276 -0.4592  0.7947  0.6265
  657MOL0     H86723   3.464   7.481   7.920 -3.3949  0.0865  0.0585
  657MOL0     H86724   3.283   7.408   7.765  0.4483 -1.0573  0.0526
  658MOL0     O86725   9.315   8.301   9.337 -0.6984 -0.1019 -0.1195
  658MOL0     C86726   9.259   8.285   9.444 -0.3896  0.2826  0.4937
  658MOL0     O86727   9.324   8.266   9.564  0.0900 -0.2134  0.2178
  658MOL0     C86728   9.457   8.285   9.566 -0.2791 -0.2723 -0.0546
  658MOL0     C86729   9.514   8.373   9.652 -0.2720 -0.1445  0.8932
  658MOL0     C86730   9.649   8.382   9.664  0.4999  0.1166  0.6817
  658MOL0     C86731   9.740   8.310   9.588 -0.5874 -0.8267 -0.2299
  658MOL0     O86732   9.876   8.347   9.598  0.7945 -0.1481  0.3702
  658MOL0     C86733   9.975   8.248   9.547  0.6891 -0.6495  0.4614
  658MOL0     C86734  10.119   8.290   9.551  0.4333 -0.5741  0.1485
  658MOL0     C86735  10.157   8.407   9.450 -0.1552  0.7708  0.0582
  658MOL0     C86736  10.307   8.422   9.459 -0.6918  0.3718  0.4168
  658MOL0     C86737  10.371   8.535   9.381  0.9871  0.4796  0.1095
  658MOL0     C86738  10.307   8.566   9.248 -0.6468 -0.0956 -0.1516
  658MOL0     C86739  10.370   8.695   9.183  0.0473 -0.1334 -0.2136
  658MOL0     C86740  10.301   8.745   9.058 -0.2349 -1.0016  0.5811
  658MOL0     N86741  10.157   8.797   9.068  0.2134 -0.3737 -0.7072
  658MOL0     C86742  10.045   8.714   9.049  0.5133 -1.1306  0.1831
  658MOL0     C86743   9.943   8.808   9.066  0.3174  0.1641  0.4778
  658MOL0     C86744   9.787   8.783   9.072 -0.6804  0.7053  0.3620
  658MOL0     C86745   9.729   8.818   8.933  0.9005 -0.5465 -0.1324
  658MOL0     C86746   9.773   8.719   8.814  0.0942 -0.7861  0.5913
  658MOL0     C86747   9.648   8.706   8.718 -0.5085 -0.2283 -0.0232
  658MOL0     O86748   9.605   8.835   8.675  0.1866 -0.1024  0.8100
  658MOL0     C86749   9.480   8.837   8.613 -0.7547  1.1935 -0.5277
  658MOL0     C86750   9.412   8.959   8.602 -0.1407  0.0672  0.2229
  658MOL0     C86751   9.280   8.965   8.559 -0.2033  0.1417  0.2940
  658MOL0     C86752   9.215   8.853   8.504  0.6172  0.1765  1.2324
  658MOL0     C86753   9.082   8.871   8.424 -0.0178  0.4235  0.4888
  658MOL0     O86754   9.031   8.776   8.340  0.2142  0.4042 -0.1123
  658MOL0     C86755   8.930   8.803   8.257 -0.5459 -0.2331 -0.2464
  658MOL0     C86756   8.962   8.844   8.120  0.5675 -0.6248  0.3510
  658MOL0     C86757   8.864   8.842   8.020 -0.0992  0.4601 -0.5589
  658MOL0     C86758   8.734   8.789   8.046 -0.1531 -0.6326 -1.5805
  658MOL0     O86759   8.642   8.789   7.947 -0.3285 -0.0736  0.5333
  658MOL0     C86760   8.588   8.921   7.923 -0.6098  0.9106  0.2533
  658MOL0     C86761   8.448   8.920   7.853  0.8649  0.3130 -1.2923
  658MOL0     C86762   8.348   8.827   7.930 -0.2129  0.4649 -0.5146
  658MOL0     C86763   8.202   8.879   7.903 -0.0973  1.3793  0.9984
  658MOL0     C86764   8.154   9.007   7.979 -0.6020  1.1984 -0.3571
  658MOL0     C86765   8.005   9.013   7.963 -0.3282 -0.1101  0.0703
  658MOL0     C86766   7.922   8.935   8.073  0.4404 -0.2369 -0.3102
  658MOL0     C86767   7.768   8.954   8.046  0.5699  0.0538  0.1059
  658MOL0    Cl86768   7.735   8.884   7.875 -0.3703  0.1783  0.2672
  658MOL0     C86769   8.702   8.749   8.176 -0.2102 -1.3318 -0.5454
  658MOL0     C86770   8.800   8.754   8.275  0.6092 -0.1908  0.8151
  658MOL0     O86771   9.014   8.970   8.463 -0.1503 -0.2719  0.2800
  658MOL0     C86772   9.287   8.733   8.505  0.4732  0.5855  0.4501
  658MOL0     C86773   9.418   8.722   8.549 -0.9219  0.1100 -0.1839
  658MOL0     N86774   9.993   8.930   9.090 -0.0607 -0.1532 -0.6357
  658MOL0     N86775  10.122   8.924   9.081 -0.1947  0.6176  0.7268
  658MOL0     C86776   9.687   8.220   9.497  0.3066  0.0077 -0.0490
  658MOL0     C86777   9.549   8.207   9.490  0.4011 -0.4455  0.7391
  658MOL0     C86778   9.118   8.336   9.439 -0.2060 -0.2119  0.0316
  658MOL0     C86779   9.057   8.369   9.556  1.1051 -0.1483  0.4174
  658MOL0     C86780   8.914   8.371   9.555 -0.6105 -0.9436 -0.7012
  658MOL0     C86781   8.841   8.376   9.443  0.2253 -0.4102  0.7651
  658MOL0     O86782   8.701   8.402   9.437 -0.6828 -0.1339  0.4278
  658MOL0     C86783   8.637   8.375   9.561  0.0993 -0.2997  0.5283
  658MOL0     C86784   8.486   8.383   9.543 -0.1928  0.6637 -0.5909
  658MOL0     C86785   8.443   8.531   9.508 -0.1942 -1.1598 -1.2115
  658MOL0     C86786   8.338   8.571   9.609 -0.4556 -1.0333  0.3506
  658MOL0     C86787   8.289   8.706   9.611  0.6991 -0.1211  0.1107
  658MOL0     C86788   8.253   8.825   9.610  0.7233  0.4039  0.0427
  658MOL0     C86789   8.906   8.365   9.318  0.4684 -0.5400  0.0844
  658MOL0     C86790   9.046   8.344   9.315 -0.2566  0.4236 -0.1764
  658MOL0     H86791   9.448   8.447   9.696 -0.9906  2.2194 -3.6129
  658MOL0     H86792   9.685   8.454   9.737 -2.3041  1.8676  0.4810
  658MOL0     H86793   9.954   8.233   9.441 -0.1630  2.5562  0.0651
  658MOL0     H86794   9.962   8.155   9.603  1.3640 -0.5692  0.7655
  658MOL0     H86795  10.185   8.207   9.525  1.7394  0.3400  0.4605
  658MOL0     H86796  10.141   8.313   9.656  0.8181 -1.2996  0.2359
  658MOL0     H86797  10.105   8.495   9.489  0.4911  1.8662 -1.4485
  658MOL0     H86798  10.122   8.376   9.351 -0.6147 -3.0163  1.2390
  658MOL0     H86799  10.328   8.448   9.563  1.3617 -0.9049  0.3860
  658MOL0     H86800  10.359   8.338   9.412 -0.5384  2.3867 -3.4363
  658MOL0     H86801  10.478   8.519   9.368  0.6706 -2.3340  0.2884
  658MOL0     H86802  10.351   8.631   9.430 -0.3018  1.6164 -2.4416
  658MOL0     H86803  10.202   8.590   9.268 -1.6538 -3.2213 -1.0987
  658MOL0     H86804  10.312   8.489   9.170  0.5245  0.9108 -1.1198
  658MOL0     H86805  10.378   8.763   9.268  4.2836 -0.3261 -0.2422
  658MOL0     H86806  10.471   8.668   9.152  0.0155  0.4615 -0.8533
  658MOL0     H86807  10.300   8.663   8.986 -0.4925  0.4878 -1.1829
  658MOL0     H86808  10.366   8.819   9.010  1.9334 -2.5341  1.0166
  658MOL0     H86809  10.044   8.611   9.015 -0.7287 -0.7813 -0.8803
  658MOL0     H86810   9.733   8.832   9.153 -0.1567 -1.4130  2.0995
  658MOL0     H86811   9.786   8.674   9.089  2.4733  0.4611 -0.3307
  658MOL0     H86812   9.745   8.924   8.910  3.8113 -1.3663 -2.3988
  658MOL0     H86813   9.621   8.807   8.947  0.8761 -1.3726 -0.8982
  658MOL0     H86814   9.862   8.763   8.769  0.3500 -1.3344  0.5501
  658MOL0     H86815   9.799   8.614   8.834  0.9499 -0.5064  0.9684
  658MOL0     H86816   9.567   8.657   8.773  1.3845  0.6925  3.9775
  658MOL0     H86817   9.667   8.640   8.632 -1.3396 -1.7996  0.9455
  658MOL0     H86818   9.474   9.042   8.635 -1.2527  1.5427 -1.2238
  658MOL0     H86819   9.241   9.061   8.529  1.3952  0.7186 -0.0385
  658MOL0     H86820   9.059   8.887   8.100 -0.4860  1.1439 -1.3234
  658MOL0     H86821   8.894   8.882   7.923  1.8258 -0.2813 -0.3231
  658MOL0     H86822   8.658   8.980   7.863  0.4131  2.9865  3.2900
  658MOL0     H86823   8.579   8.966   8.022 -0.9257 -0.9677  1.1326
  658MOL0     H86824   8.454   8.883   7.750  0.0908 -1.1822 -0.8261
  658MOL0     H86825   8.418   9.025   7.849 -1.5022 -0.3207 -1.3501
  658MOL0     H86826   8.368   8.838   8.037 -0.4191 -0.6780 -0.3549
  658MOL0     H86827   8.364   8.721   7.910  2.1131 -0.4637  4.7890
  658MOL0     H86828   8.184   8.893   7.796  2.6340 -2.3991 -0.1616
  658MOL0     H86829   8.124   8.807   7.931  1.0053  0.4081  1.6566
  658MOL0     H86830   8.199   9.100   7.942 -0.5921  1.8713  1.2681
  658MOL0     H86831   8.192   8.999   8.081 -2.7620 -2.8100  0.3357
  658MOL0     H86832   7.975   8.975   7.865 -0.3439  1.3345 -0.5094
  658MOL0     H86833   7.972   9.118   7.965 -2.0104 -0.6141  0.6209
  658MOL0     H86834   7.932   8.827   8.064 -2.8056 -0.4639 -3.8898
  658MOL0     H86835   7.954   8.967   8.172  0.6279  0.3598 -0.5597
  658MOL0     H86836   7.738   9.059   8.054 -0.3733 -0.2098  0.1680
  658MOL0     H86837   7.734   8.887   8.126  2.6104 -1.7620 -0.4613
  658MOL0     H86838   8.606   8.710   8.208  0.3303 -0.5025  2.3873
  658MOL0     H86839   8.768   8.714   8.371  1.9014 -0.2726  1.2407
  658MOL0     H86840   9.240   8.649   8.455  0.5394  0.5104  0.5130
  658MOL0     H86841   9.466   8.626   8.534 -4.4123 -1.4864 -2.5746
  658MOL0     H86842   9.751   8.169   9.426  0.6194  0.4494 -0.0853
  658MOL0     H86843   9.493   8.144   9.421  0.3137 -1.7597  1.9727
  658MOL0     H86844   9.107   8.366   9.652 -0.3271  3.3478  1.4242
  658MOL0     H86845   8.864   8.370   9.652 -1.5925  1.3467 -1.1159
  658MOL0     H86846   8.664   8.456   9.629 -3.6157 -0.2023  2.1045
  658MOL0     H86847   8.662   8.274   9.595 -1.1444 -1.4869 -1.8254
  658MOL0     H86848   8.456   8.323   9.457  2.6709 -0.2341 -1.0887
  658MOL0     H86849   8.441   8.350   9.637  1.0861 -1.8964 -0.7857
  658MOL0     H86850   8.408   8.537   9.404 -0.7913 -1.8052 -1.0490
  658MOL0     H86851   8.527   8.600   9.521 -1.7738  0.7511 -0.6260
  658MOL0     H86852   8.255   8.507   9.576 -0.4379 -1.2396  0.6986
  658MOL0     H86853   8.368   8.551   9.712  2.1916 -1.0528 -0.3578
  658MOL0     H86854   8.224   8.928   9.604 -0.5338 -0.0282 -2.3375
  658MOL0     H86855   8.851   8.355   9.225  2.3236  1.5653 -1.3507
  658MOL0     H86856   9.100   8.329   9.222  3.7700  0.3513  1.9463
  659MOL0     O86857   6.411  10.394   6.695  0.0109 -0.3265  0.7873
  659MOL0     C86858   6.480  10.328   6.614  1.0264  0.7754  0.0454
  659MOL0     O86859   6.432  10.245   6.521  0.5089 -0.1483  0.2934
  659MOL0     C86860   6.303  10.221   6.498 -0.0321 -0.5600  0.2948
  659MOL0     C86861   6.245  10.279   6.385  0.7123 -0.3630 -0.5942
  659MOL0     C86862   6.107  10.265   6.361  0.3837 -0.6406  0.0627
  659MOL0     C86863   6.041  10.173   6.439 -0.7737 -0.2786  0.3250
  659MOL0     O86864   5.909  10.148   6.406 -0.3389  0.3822 -0.3702
  659MOL0     C86865   5.898  10.014   6.355 -0.5020  0.3862  0.3044
  659MOL0     C86866   5.749   9.980   6.366 -0.8159 -0.0463 -0.1006
  659MOL0     C86867   5.715   9.837   6.420 -0.4108  0.4603  0.7291
  659MOL0     C86868   5.566   9.830   6.461  0.1711  0.4608 -0.0096
  659MOL0     C86869   5.525   9.696   6.522 -0.4901 -0.3717 -0.6034
  659MOL0     C86870   5.369   9.726   6.542 -1.3261  0.0634 -0.2854
  659MOL0     C86871   5.317   9.595   6.601  0.8707  0.6630 -0.6113
  659MOL0     C86872   5.178   9.612   6.671  0.4354  0.2654  1.5710
  659MOL0     N86873   5.146   9.489   6.748  0.5750  0.3724  0.0611
  659MOL0     C86874   5.038   9.416   6.705  0.2323 -0.0967  0.2468
  659MOL0     C86875   4.997   9.353   6.816  0.9994  0.3253  0.4440
  659MOL0     C86876   4.868   9.279   6.835  0.3280 -0.6715 -0.0961
  659MOL0     C86877   4.747   9.372   6.887  0.5021 -0.0554 -0.6457
  659MOL0     C86878   4.618   9.292   6.935 -0.9339 -0.1405  0.2198
  659MOL0     C86879   4.633   9.243   7.082 -0.4572  0.3835  0.2359
  659MOL0     O86880   4.509   9.182   7.128 -0.2033  0.0155  0.1176
  659MOL0     C86881   4.498   9.124   7.252  0.0560  0.0625 -0.4494
  659MOL0     C86882   4.576   9.145   7.361  0.0209 -0.5571 -0.4172
  659MOL0     C86883   4.537   9.077   7.473  1.1726 -0.1496 -0.1095
  659MOL0     C86884   4.432   8.983   7.487  0.0114  0.1766  0.7438
  659MOL0     C86885   4.385   8.944   7.623 -0.3924  0.9511  0.2759
  659MOL0     O86886   4.444   9.003   7.733 -0.2936  0.2184  0.7330
  659MOL0     C86887   4.407   8.965   7.853  0.8277 -0.2022 -0.1565
  659MOL0     C86888   4.419   8.837   7.902  0.2601  0.1735  0.6638
  659MOL0     C86889   4.399   8.802   8.033  1.1530 -0.2358 -0.8131
  659MOL0     C86890   4.333   8.890   8.126 -0.4682 -0.0131 -0.2151
  659MOL0     O86891   4.289   8.842   8.251 -0.2792 -0.8540  0.5707
  659MOL0     C86892   4.237   8.939   8.338 -0.3887 -1.1064 -0.4186
  659MOL0     C86893   4.170   8.878   8.454  0.2651 -0.4904  0.5322
  659MOL0     C86894   4.107   8.992   8.527 -0.1810 -0.6877 -0.2053
  659MOL0     C86895   4.065   8.956   8.669 -0.5470  0.6964  0.1653
  659MOL0     C86896   3.981   9.067   8.726 -0.1717 -0.0845  0.4841
  659MOL0     C86897   3.970   9.049   8.875  0.7340  0.1546  0.0623
  659MOL0     C86898   3.875   9.152   8.950 -1.2294  0.3286 -0.6518
  659MOL0     C86899   3.915   9.151   9.098 -0.7178  0.1751  0.7200
  659MOL0    Cl86900   3.830   9.286   9.176 -0.2321 -0.1063 -0.1767
  659MOL0     C86901   4.324   9.019   8.079  0.7847  0.8863  0.2354
  659MOL0     C86902   4.367   9.058   7.948 -0.2851  0.5498 -0.0872
  659MOL0     O86903   4.300   8.853   7.626 -0.0138 -0.9046  0.6330
  659MOL0     C86904   4.355   8.964   7.372  1.0358 -0.2951 -0.1669
  659MOL0     C86905   4.393   9.036   7.257 -1.0912  0.4379 -0.0141
  659MOL0     N86906   5.072   9.383   6.918 -0.1083  1.0234 -0.9732
  659MOL0     N86907   5.173   9.454   6.883  0.2690 -0.4014 -0.5690
  659MOL0     C86908   6.101  10.097   6.546  0.1810  0.2478 -0.0355
  659MOL0     C86909   6.236  10.128   6.572 -0.6367 -0.9137 -0.1239
  659MOL0     C86910   6.628  10.353   6.602  0.9372 -0.3746 -0.6240
  659MOL0     C86911   6.693  10.446   6.689  0.3502 -0.2041  0.7068
  659MOL0     C86912   6.826  10.470   6.679 -0.1456 -0.0989  0.1000
  659MOL0     C86913   6.904  10.409   6.583  0.5140 -0.2333 -0.2214
  659MOL0     O86914   7.035  10.434   6.547 -0.3002 -0.2478 -0.4222
  659MOL0     C86915   7.094  10.540   6.634  0.6645 -0.5875 -0.3357
  659MOL0     C86916   7.231  10.565   6.601 -0.2290 -0.5042  0.2609
  659MOL0     C86917   7.310  10.429   6.603  0.4203 -0.0299 -0.4429
  659MOL0     C86918   7.451  10.449   6.551 -0.1850 -0.2970  0.2167
  659MOL0     C86919   7.526  10.325   6.568  0.1750 -0.8054  0.4083
  659MOL0     C86920   7.578  10.219   6.574  0.5547  0.9842 -0.9384
  659MOL0     C86921   6.842  10.321   6.498  0.7905 -0.4004  1.2542
  659MOL0     C86922   6.713  10.295   6.507  0.2206 -0.1550 -0.7692
  659MOL0     H86923   6.303  10.345   6.322  0.5268 -2.0961 -2.7248
  659MOL0     H86924   6.055  10.326   6.288  0.3057  0.8029  1.2680
  659MOL0     H86925   5.951   9.941   6.417  1.7514  1.3490 -0.3708
  659MOL0     H86926   5.926  10.006   6.249 -1.2127 -0.6174  0.1791
  659MOL0     H86927   5.690   9.987   6.274 -2.1581 -2.0493  0.5158
  659MOL0     H86928   5.701  10.052   6.434 -0.2356  0.9197 -0.6979
  659MOL0     H86929   5.783   9.821   6.505  1.4272 -1.0601 -0.9449
  659MOL0     H86930   5.742   9.768   6.340 -0.8953 -0.4897  1.3714
  659MOL0     H86931   5.535   9.912   6.525  1.8258  1.6567 -0.6609
  659MOL0     H86932   5.519   9.827   6.362 -0.3569 -0.1732  0.2541
  659MOL0     H86933   5.575   9.665   6.613 -1.9989  0.4130  0.5389
  659MOL0     H86934   5.537   9.617   6.447 -1.0777 -0.4108 -0.6661
  659MOL0     H86935   5.315   9.743   6.449  2.2018 -4.1342 -3.5276
  659MOL0     H86936   5.369   9.814   6.607  2.5479  1.7403 -2.2309
  659MOL0     H86937   5.313   9.523   6.519 -0.0849  0.7431 -0.6388
  659MOL0     H86938   5.394   9.566   6.674  0.9802 -1.1032 -1.3901
  659MOL0     H86939   5.107   9.629   6.590  0.9205  0.6771  1.2249
  659MOL0     H86940   5.170   9.702   6.733 -0.5452  2.4075 -1.4331
  659MOL0     H86941   4.990   9.417   6.608  1.6009  0.2691 -0.4543
  659MOL0     H86942   4.890   9.193   6.900  0.3587  1.1546  2.4462
  659MOL0     H86943   4.829   9.234   6.743  0.9636 -0.7494 -0.3262
  659MOL0     H86944   4.716   9.446   6.813  0.6629 -0.2201 -0.8787
  659MOL0     H86945   4.788   9.432   6.969 -1.9521  1.0926 -0.1628
  659MOL0     H86946   4.527   9.352   6.931 -2.1217 -1.8890 -0.2158
  659MOL0     H86947   4.615   9.208   6.865 -2.0767 -0.0730  0.1602
  659MOL0     H86948   4.662   9.322   7.152 -0.7154 -0.7665  1.6908
  659MOL0     H86949   4.721   9.179   7.093  0.0035  1.3350  2.7915
  659MOL0     H86950   4.644   9.229   7.363 -1.8641  1.2307 -3.4128
  659MOL0     H86951   4.593   9.086   7.566 -1.5153 -4.2282  2.2400
  659MOL0     H86952   4.452   8.768   7.825 -1.7411  1.5613 -1.5802
  659MOL0     H86953   4.438   8.706   8.066  1.7330 -0.2062 -1.3971
  659MOL0     H86954   4.154   8.986   8.283  0.1587 -1.8829 -1.9694
  659MOL0     H86955   4.315   9.006   8.375 -1.8305 -0.9786  2.7560
  659MOL0     H86956   4.246   8.819   8.506  0.2458  0.0376  1.1700
  659MOL0     H86957   4.089   8.811   8.424 -2.5860  2.0741  1.8956
  659MOL0     H86958   4.020   9.037   8.480 -0.4245  0.4229  1.2436
  659MOL0     H86959   4.174   9.078   8.525 -3.2699  1.9048 -1.8976
  659MOL0     H86960   4.014   8.859   8.665 -1.5106  0.8133  4.4546
  659MOL0     H86961   4.150   8.950   8.738  1.6885  0.9087 -2.4134
  659MOL0     H86962   3.879   9.060   8.689 -0.4309 -1.3087  1.3256
  659MOL0     H86963   4.007   9.172   8.711  0.7819 -0.4477 -0.5045
  659MOL0     H86964   4.069   9.045   8.923  0.6980 -2.9031  0.0974
  659MOL0     H86965   3.930   8.948   8.888  0.9195  0.0500 -0.1912
  659MOL0     H86966   3.889   9.250   8.904 -0.2717  1.0969  1.1589
  659MOL0     H86967   3.775   9.112   8.933 -0.1081 -3.9146  1.2986
  659MOL0     H86968   4.023   9.162   9.108 -0.5120  0.8832 -1.6793
  659MOL0     H86969   3.884   9.061   9.152 -0.9612  2.0926  4.1127
  659MOL0     H86970   4.288   9.104   8.137 -2.1489  1.8780 -2.7180
  659MOL0     H86971   4.367   9.162   7.919  2.7457 -0.1482 -3.3410
  659MOL0     H86972   4.269   8.900   7.352 -0.3807  2.2785 -3.0474
  659MOL0     H86973   4.332   9.018   7.170 -2.3526 -0.7243  1.0659
  659MOL0     H86974   6.029  10.042   6.605 -0.2657 -1.5294 -2.1146
  659MOL0     H86975   6.281  10.082   6.660 -1.6400 -3.5404 -0.8837
  659MOL0     H86976   6.638  10.501   6.765 -1.4197 -1.9981  0.8055
  659MOL0     H86977   6.853  10.556   6.738 -2.5699  0.7508  0.0523
  659MOL0     H86978   7.099  10.510   6.739 -0.6408  1.4360  0.3563
  659MOL0     H86979   7.038  10.633   6.634 -2.1756 -2.1884  0.2014
  659MOL0     H86980   7.232  10.612   6.502 -0.0683 -1.3868 -0.1674
  659MOL0     H86981   7.285  10.630   6.670 -0.4748 -0.4971  0.4485
  659MOL0     H86982   7.264  10.345   6.550  0.2790 -0.9645  1.0995
  659MOL0     H86983   7.308  10.402   6.709  2.1984 -1.5563 -0.7591
  659MOL0     H86984   7.447  10.469   6.443  0.9385  2.7822  0.6287
  659MOL0     H86985   7.505  10.534   6.594  0.7147  0.4601 -2.2462
  659MOL0     H86986   7.628  10.124   6.586 -3.0143 -1.0196 -0.4159
  659MOL0     H86987   6.897  10.277   6.415 -1.9702 -2.0240  0.1493
  659MOL0     H86988   6.662  10.214   6.457 -1.3720  0.7417 -0.6659
  660MOL0     O86989   5.697   8.337   9.115  0.4656 -0.1192  1.0081
  660MOL0     C86990   5.652   8.383   9.011  0.5019 -0.3304 -0.3471
  660MOL0     O86991   5.708   8.396   8.882  0.3367 -0.0314  0.8449
  660MOL0     C86992   5.846   8.361   8.862  1.0192  0.2178 -0.0022
  660MOL0     C86993   5.897   8.400   8.736 -0.0067  0.2511  0.8177
  660MOL0     C86994   6.024   8.367   8.693 -0.1779 -0.4591 -0.4424
  660MOL0     C86995   6.114   8.290   8.767  0.8553  0.1342  0.5983
  660MOL0     O86996   6.244   8.249   8.738 -0.3782  0.3329  0.1428
  660MOL0     C86997   6.288   8.298   8.603  0.4656  0.1551  0.2006
  660MOL0     C86998   6.417   8.234   8.559  0.6996 -0.4664  0.0193
  660MOL0     C86999   6.506   8.216   8.678  0.0522 -0.1287  0.0381
  660MOL0     C87000   6.657   8.190   8.638  0.3618 -0.0812  0.3312
  660MOL0     C87001   6.724   8.171   8.774 -0.3948 -0.4856 -1.2101
  660MOL0     C87002   6.881   8.191   8.771 -0.0780  0.4628  0.0549
  660MOL0     C87003   6.956   8.063   8.711  0.3418 -0.2721 -0.5493
  660MOL0     C87004   7.101   8.087   8.666 -0.5501 -0.4948 -0.3014
  660MOL0     N87005   7.181   8.171   8.760  0.3647  0.2780 -0.8555
  660MOL0     C87006   7.200   8.304   8.743 -0.4628 -0.1177  0.2042
  660MOL0     C87007   7.301   8.342   8.820 -0.0469  0.3173  0.2871
  660MOL0     C87008   7.397   8.455   8.806 -0.2459  0.2062  0.7058
  660MOL0     C87009   7.536   8.425   8.876  0.5121  0.0852 -0.6792
  660MOL0     C87010   7.650   8.500   8.813 -0.3742  0.6053  0.1021
  660MOL0     C87011   7.794   8.456   8.865 -0.2734  0.9472  0.4165
  660MOL0     O87012   7.813   8.309   8.854 -0.4785  0.5126 -0.8267
  660MOL0     C87013   7.943   8.264   8.817  0.7999 -0.2521  0.4431
  660MOL0     C87014   7.942   8.141   8.754 -0.8071 -0.6712 -0.5967
  660MOL0     C87015   8.059   8.103   8.692 -0.0793  0.1169 -0.2401
  660MOL0     C87016   8.179   8.177   8.696  0.2533  0.1887  0.8549
  660MOL0     C87017   8.310   8.130   8.632 -0.0067  0.3200 -0.3334
  660MOL0     O87018   8.331   7.994   8.612 -0.0227  1.0614  0.2242
  660MOL0     C87019   8.454   7.935   8.580  0.5560 -0.0873  0.0649
  660MOL0     C87020   8.577   7.969   8.644 -0.8299 -0.2854 -0.1343
  660MOL0     C87021   8.689   7.894   8.602  0.2491  0.6614 -0.2124
  660MOL0     C87022   8.676   7.796   8.503  0.8966  0.7706  0.2178
  660MOL0     O87023   8.795   7.751   8.458  0.1052 -0.2948  0.1284
  660MOL0     C87024   8.800   7.651   8.353  0.8236 -0.4813 -0.2909
  660MOL0     C87025   8.941   7.633   8.305  0.3188 -0.0069  0.6364
  660MOL0     C87026   8.937   7.525   8.204  0.0641 -0.2963  0.0989
  660MOL0     C87027   9.083   7.510   8.160 -0.3713 -0.1918 -0.6629
  660MOL0     C87028   9.116   7.386   8.070 -0.7058 -0.4254  0.5223
  660MOL0     C87029   9.049   7.380   7.932 -0.9018  0.3407 -0.0432
  660MOL0     C87030   9.099   7.491   7.838 -0.2131  1.1541 -0.8075
  660MOL0     C87031   9.063   7.473   7.696 -0.6215 -0.2999 -0.3249
  660MOL0    Cl87032   9.143   7.323   7.628 -0.4512  0.0837  0.3030
  660MOL0     C87033   8.554   7.768   8.440 -0.0673 -0.1025 -0.1668
  660MOL0     C87034   8.437   7.834   8.480  0.0665 -0.9917  0.7449
  660MOL0     O87035   8.401   8.213   8.617 -0.4196  0.1426 -0.2926
  660MOL0     C87036   8.179   8.294   8.771  1.0862  0.1454  0.9953
  660MOL0     C87037   8.058   8.346   8.814 -0.1781  1.1346  0.3180
  660MOL0     N87038   7.334   8.228   8.890  0.7070 -0.3602  1.0324
  660MOL0     N87039   7.264   8.128   8.859 -0.1255 -0.6733 -0.1737
  660MOL0     C87040   6.063   8.253   8.895 -0.1450  0.1884  0.7826
  660MOL0     C87041   5.937   8.285   8.946 -0.2615  0.1363  0.7781
  660MOL0     C87042   5.503   8.414   9.022  0.5860  0.2278 -0.7232
  660MOL0     C87043   5.446   8.493   9.131  0.9517 -0.2105  0.4060
  660MOL0     C87044   5.311   8.518   9.131  0.2856  0.3161  0.0006
  660MOL0     C87045   5.219   8.477   9.029  0.8368  0.0570 -0.0897
  660MOL0     O87046   5.085   8.509   9.053 -0.0043  0.1927 -0.0572
  660MOL0     C87047   4.989   8.493   8.937  0.1373 -0.0551 -0.4164
  660MOL0     C87048   5.000   8.614   8.842 -0.9305 -0.1893 -0.0691
  660MOL0     C87049   4.928   8.732   8.898 -0.7468  0.4696  0.1068
  660MOL0     C87050   5.017   8.863   8.910 -0.5055  0.7107  0.1940
  660MOL0     C87051   4.947   8.968   8.977 -0.2478  0.5437 -0.5107
  660MOL0     C87052   4.896   9.057   9.034  0.3241 -0.6849 -0.7278
  660MOL0     C87053   5.276   8.406   8.934  0.6509  0.4920 -0.0748
  660MOL0     C87054   5.406   8.377   8.922  0.9819  0.5861 -0.1512
  660MOL0     H87055   5.836   8.464   8.672  4.4355  2.4958 -1.6095
  660MOL0     H87056   6.051   8.405   8.595 -0.0855  1.6724  0.3561
  660MOL0     H87057   6.278   8.405   8.586 -1.0094 -0.0779 -0.5709
  660MOL0     H87058   6.224   8.262   8.522  1.9574  1.2553 -1.5423
  660MOL0     H87059   6.474   8.298   8.491 -0.1165  0.7967  0.4844
  660MOL0     H87060   6.400   8.143   8.501 -0.1176 -0.2436 -0.1021
  660MOL0     H87061   6.472   8.139   8.749  0.3501 -1.3092 -1.0685
  660MOL0     H87062   6.501   8.312   8.731  1.4057  0.3202 -0.6086
  660MOL0     H87063   6.662   8.099   8.578 -1.2434  0.2929 -0.4029
  660MOL0     H87064   6.705   8.270   8.582  0.3460  0.4176  1.0150
  660MOL0     H87065   6.709   8.071   8.815 -3.5845 -0.3144 -1.7673
  660MOL0     H87066   6.677   8.245   8.840  0.9494 -1.1849  0.6050
  660MOL0     H87067   6.908   8.205   8.876 -0.4781 -1.3026  0.4325
  660MOL0     H87068   6.901   8.279   8.710 -5.1896  1.8024 -0.1080
  660MOL0     H87069   6.948   7.985   8.787  0.4663  1.5493  1.4430
  660MOL0     H87070   6.905   8.041   8.617  0.8665  2.6480 -1.6414
  660MOL0     H87071   7.092   8.145   8.573 -2.1839 -2.8504 -1.7049
  660MOL0     H87072   7.152   7.992   8.646  0.2338 -0.1253 -0.1276
  660MOL0     H87073   7.168   8.370   8.663  1.8563  0.3435 -0.4160
  660MOL0     H87074   7.366   8.546   8.859 -3.6784  0.1735 -1.0145
  660MOL0     H87075   7.416   8.476   8.701  1.8092 -3.0749  0.2505
  660MOL0     H87076   7.558   8.318   8.876 -1.8888 -0.4700 -0.9604
  660MOL0     H87077   7.533   8.442   8.984  1.3801 -0.8630 -0.4917
  660MOL0     H87078   7.661   8.483   8.706  1.3218 -0.5512  0.4167
  660MOL0     H87079   7.642   8.607   8.833  3.1678  1.1762 -0.9024
  660MOL0     H87080   7.798   8.480   8.972 -0.2808 -1.0735  0.9093
  660MOL0     H87081   7.858   8.515   8.799 -2.9510  2.1599 -1.2721
  660MOL0     H87082   7.854   8.078   8.747  0.7578 -2.8783 -1.2054
  660MOL0     H87083   8.060   8.010   8.636 -1.2959 -0.8627  1.2756
  660MOL0     H87084   8.589   8.046   8.719 -1.8373 -0.4579  0.2199
  660MOL0     H87085   8.789   7.920   8.636  0.6896 -0.9385 -0.2168
  660MOL0     H87086   8.756   7.689   8.260  1.0298 -4.1376 -2.0586
  660MOL0     H87087   8.753   7.561   8.394 -0.1492  0.5505  0.9735
  660MOL0     H87088   9.006   7.605   8.388  0.4848 -1.4939  0.0365
  660MOL0     H87089   9.000   7.721   8.278  0.6153 -0.6004 -0.7381
  660MOL0     H87090   8.869   7.560   8.126 -0.4727 -0.3015  0.5650
  660MOL0     H87091   8.903   7.434   8.253  0.3847  0.0441  0.9618
  660MOL0     H87092   9.128   7.597   8.110  2.8375 -1.7258 -0.7367
  660MOL0     H87093   9.143   7.489   8.249  2.6281 -0.6547 -2.6476
  660MOL0     H87094   9.079   7.298   8.123  0.8256 -0.3770  1.7486
  660MOL0     H87095   9.224   7.390   8.056 -0.7831  0.6341  0.1248
  660MOL0     H87096   8.941   7.391   7.951 -1.2303 -2.1780 -0.0638
  660MOL0     H87097   9.082   7.288   7.883 -0.3458  0.5900 -0.1407
  660MOL0     H87098   9.053   7.585   7.868 -0.8316  0.2765  1.1458
  660MOL0     H87099   9.208   7.499   7.844  0.0819 -0.5823 -2.6591
  660MOL0     H87100   9.100   7.557   7.638  1.6189 -0.2016  1.1407
  660MOL0     H87101   8.955   7.467   7.679 -0.2846  1.3391 -3.9198
  660MOL0     H87102   8.547   7.677   8.382 -0.6624 -0.4502  0.4394
  660MOL0     H87103   8.339   7.812   8.438  0.3606  0.9201 -1.1169
  660MOL0     H87104   8.265   8.361   8.773  1.0344  0.4859 -2.4190
  660MOL0     H87105   8.056   8.445   8.860 -0.4583  1.1204  0.3392
  660MOL0     H87106   6.136   8.192   8.946  1.4177  1.8199  0.5821
  660MOL0     H87107   5.909   8.228   9.034  1.2169  0.6759  1.6315
  660MOL0     H87108   5.504   8.532   9.214 -0.7061 -0.4775  1.7503
  660MOL0     H87109   5.268   8.570   9.217 -2.8970 -0.5464 -0.9202
  660MOL0     H87110   4.891   8.486   8.985  0.1932 -2.0717 -0.4921
  660MOL0     H87111   5.001   8.396   8.887  0.8417 -1.1564  1.7452
  660MOL0     H87112   5.106   8.629   8.821 -0.6958 -2.4145 -0.7975
  660MOL0     H87113   4.955   8.578   8.749  0.2588 -0.6278 -0.4881
  660MOL0     H87114   4.888   8.714   8.999  0.4082  0.8012  0.6428
  660MOL0     H87115   4.845   8.745   8.828  0.6787  2.0832 -1.3557
  660MOL0     H87116   5.106   8.839   8.968  0.3570  3.0778 -0.0393
  660MOL0     H87117   5.051   8.902   8.813  2.5843  1.3166  1.3932
  660MOL0     H87118   4.835   9.133   9.078 -0.8233 -1.2753 -1.2501
  660MOL0     H87119   5.214   8.356   8.860 -0.5924 -0.9581  1.8709
  660MOL0     H87120   5.433   8.314   8.838  2.0238  0.9559 -0.1147
  661MOL0     O87121   4.436   5.728   3.269  0.3789 -0.1342  0.0679
  661MOL0     C87122   4.509   5.659   3.198 -0.1195  0.4747 -0.0753
  661MOL0     O87123   4.464   5.585   3.088 -0.2317 -0.0535  0.2583
  661MOL0     C87124   4.328   5.568   3.075 -0.0375 -0.2801 -0.0016
  661MOL0     C87125   4.264   5.447   3.037  0.2290  0.3452  0.2851
  661MOL0     C87126   4.117   5.440   3.031 -0.0618  0.4175  0.4099
  661MOL0     C87127   4.035   5.556   3.047  0.6572 -0.7005  0.1102
  661MOL0     O87128   3.907   5.537   3.036  0.4336  0.0011  0.1546
  661MOL0     C87129   3.845   5.599   2.925  0.6043  0.6438 -0.1676
  661MOL0     C87130   3.732   5.537   2.848 -0.3397 -0.3994  0.4180
  661MOL0     C87131   3.624   5.468   2.923 -0.4834  0.1772 -0.7367
  661MOL0     C87132   3.522   5.412   2.823  0.2603 -0.5611  0.3293
  661MOL0     C87133   3.400   5.347   2.896  0.4427  0.1415  0.0285
  661MOL0     C87134   3.268   5.348   2.806 -0.6004 -0.0120 -0.6303
  661MOL0     C87135   3.274   5.290   2.665  0.0940  0.6504 -0.5959
  661MOL0     C87136   3.129   5.265   2.622  0.9513  0.3196  0.1485
  661MOL0     N87137   3.077   5.368   2.531 -0.1080 -0.1796 -0.2719
  661MOL0     C87138   3.085   5.377   2.392  0.1840  0.1196 -0.0724
  661MOL0     C87139   3.006   5.479   2.357 -0.5237  0.9324  1.2639
  661MOL0     C87140   2.963   5.510   2.219  0.2770 -0.2630  0.8852
  661MOL0     C87141   2.829   5.578   2.202 -0.1575  0.2356 -0.9126
  661MOL0     C87142   2.703   5.496   2.242  0.0114  0.0495 -0.3480
  661MOL0     C87143   2.576   5.559   2.182  0.0158 -0.5033  0.9015
  661MOL0     O87144   2.472   5.475   2.215 -0.2813  0.6769 -0.1889
  661MOL0     C87145   2.352   5.527   2.177  0.3271  1.0678  0.6733
  661MOL0     C87146   2.251   5.426   2.193  0.4628 -0.3627 -0.0014
  661MOL0     C87147   2.128   5.449   2.146  0.8131 -0.2517 -0.4312
  661MOL0     C87148   2.094   5.571   2.078  0.2971  0.6390 -0.2334
  661MOL0     C87149   1.956   5.599   2.035  0.6364 -0.2735  0.1380
  661MOL0     O87150   1.874   5.496   2.065  0.1892  0.2785 -0.1418
  661MOL0     C87151   1.743   5.473   2.025  0.0932 -0.9654  0.4008
  661MOL0     C87152   1.659   5.558   1.945 -0.8248  0.8819  0.3332
  661MOL0     C87153   1.519   5.527   1.926  0.4733  1.4844 -0.8845
  661MOL0     C87154   1.462   5.415   1.992 -0.2920  1.5013  0.0280
  661MOL0     O87155   1.323   5.397   1.970  1.0985 -0.9528  0.2795
  661MOL0     C87156   1.260   5.281   2.014 -0.1473  0.0306 -0.3640
  661MOL0     C87157   1.109   5.295   1.981  0.0331  0.6413 -0.1374
  661MOL0     C87158   1.084   5.335   1.840  0.9998  0.6280  0.1980
  661MOL0     C87159   0.933   5.373   1.811 -0.7238  0.2377 -0.0842
  661MOL0     C87160   0.930   5.398   1.660  1.0583  0.4644 -0.6264
  661MOL0     C87161   0.796   5.473   1.629 -0.3039 -0.3371  0.4849
  661MOL0     C87162   0.809   5.627   1.599  0.5890 -0.2133 -0.3421
  661MOL0     C87163   0.714   5.687   1.495 -0.5328  0.1732  0.0151
  661MOL0    Cl87164   0.738   5.630   1.330  0.1716  0.4193 -0.2022
  661MOL0     C87165   1.539   5.332   2.070 -0.2456  1.0021 -0.8704
  661MOL0     C87166   1.675   5.364   2.093 -0.6334  0.6313 -0.0232
  661MOL0     O87167   1.917   5.711   1.991 -0.8522  0.9506 -0.3235
  661MOL0     C87168   2.188   5.666   2.071 -0.9952 -0.0044 -0.1707
  661MOL0     C87169   2.313   5.648   2.117 -1.1727 -0.1135 -0.9250
  661MOL0     N87170   2.962   5.544   2.472 -0.3789 -0.4453  0.0728
  661MOL0     N87171   2.992   5.470   2.578  0.2871  0.2824  1.1741
  661MOL0     C87172   4.099   5.679   3.069  0.2286  0.3801 -0.7060
  661MOL0     C87173   4.243   5.684   3.083  0.3764 -0.0924  0.1776
  661MOL0     C87174   4.658   5.654   3.242  0.5844 -0.3118  0.6337
  661MOL0     C87175   4.737   5.559   3.173 -0.1102 -0.6957  0.0347
  661MOL0     C87176   4.871   5.549   3.198 -1.1486  0.9670 -0.4759
  661MOL0     C87177   4.933   5.623   3.292 -0.0063  0.6560 -0.4630
  661MOL0     O87178   5.079   5.625   3.291  0.3558 -0.2380  0.6317
  661MOL0     C87179   5.149   5.711   3.384 -0.3656 -0.1997  0.8181
  661MOL0     C87180   5.297   5.720   3.393 -0.6101 -0.2156  0.8648
  661MOL0     C87181   5.367   5.586   3.434 -0.2622  0.1001  0.3243
  661MOL0     C87182   5.514   5.589   3.379  0.1399  0.2326 -0.3624
  661MOL0     C87183   5.582   5.463   3.432 -0.1008 -0.2548  0.1276
  661MOL0     C87184   5.663   5.371   3.456 -0.3125 -0.2270  0.4154
  661MOL0     C87185   4.850   5.708   3.371 -0.0778  0.7504  0.3084
  661MOL0     C87186   4.716   5.728   3.349  0.1627  0.1727  0.1479
  661MOL0     H87187   4.324   5.361   3.008  0.8406  0.8913 -0.1020
  661MOL0     H87188   4.065   5.346   3.017  0.8988  0.0926 -1.2886
  661MOL0     H87189   3.930   5.636   2.868  1.4220  0.6098  1.0024
  661MOL0     H87190   3.795   5.689   2.964  1.5277 -0.0448  2.8810
  661MOL0     H87191   3.785   5.460   2.792  0.4730  0.2307  0.2857
  661MOL0     H87192   3.694   5.610   2.776  0.7875 -1.9679 -1.9079
  661MOL0     H87193   3.575   5.538   2.990 -0.8368  0.6526 -1.4725
  661MOL0     H87194   3.658   5.378   2.975  1.9341  0.7481 -1.1767
  661MOL0     H87195   3.482   5.490   2.757 -3.5644 -2.1121  0.5502
  661MOL0     H87196   3.561   5.329   2.764  1.9182 -0.0454  0.6680
  661MOL0     H87197   3.394   5.401   2.992 -2.6510  2.6823 -1.4333
  661MOL0     H87198   3.429   5.247   2.930  1.2165 -0.1111 -1.3206
  661MOL0     H87199   3.242   5.454   2.796 -2.4081 -0.4035 -0.2576
  661MOL0     H87200   3.196   5.294   2.867  0.4800 -1.3054 -0.4468
  661MOL0     H87201   3.331   5.356   2.599  0.6156  1.5541  0.7142
  661MOL0     H87202   3.321   5.192   2.679  0.7451  1.1990  1.3130
  661MOL0     H87203   3.067   5.269   2.713  0.6890 -1.1468  0.0584
  661MOL0     H87204   3.123   5.173   2.564  1.6299  1.2633 -1.4586
  661MOL0     H87205   3.136   5.305   2.329  0.5123 -1.3616  1.8027
  661MOL0     H87206   2.969   5.418   2.161 -1.8673  1.1822 -1.8770
  661MOL0     H87207   3.038   5.573   2.171  0.9515 -1.1446  0.7625
  661MOL0     H87208   2.819   5.594   2.094  0.5262 -1.2183 -1.2241
  661MOL0     H87209   2.833   5.675   2.251  1.5295 -0.7636  1.0287
  661MOL0     H87210   2.704   5.388   2.225 -0.6736  0.0542 -0.4394
  661MOL0     H87211   2.690   5.505   2.351 -0.1621 -0.9772 -0.2715
  661MOL0     H87212   2.592   5.580   2.075  0.7463  1.0543  1.2880
  661MOL0     H87213   2.559   5.655   2.233 -0.6971  1.0145 -1.9615
  661MOL0     H87214   2.270   5.330   2.241 -4.2445 -1.5230  0.0166
  661MOL0     H87215   2.058   5.366   2.148 -0.2462  0.6248 -0.3725
  661MOL0     H87216   1.708   5.650   1.914 -0.6644  1.5318  2.3133
  661MOL0     H87217   1.462   5.596   1.865  1.4908  1.1176 -2.2812
  661MOL0     H87218   1.276   5.269   2.122 -2.5306 -1.4673 -0.0940
  661MOL0     H87219   1.283   5.189   1.960  3.0151  0.1417  0.5704
  661MOL0     H87220   1.048   5.359   2.044 -1.6363 -1.1005  0.1288
  661MOL0     H87221   1.056   5.199   1.991 -1.6754  1.5295 -0.2383
  661MOL0     H87222   1.105   5.241   1.788  0.8664 -0.7537  2.5304
  661MOL0     H87223   1.148   5.417   1.805  0.1245  0.7768 -1.1460
  661MOL0     H87224   0.876   5.284   1.837 -1.2774  0.4439 -0.5746
  661MOL0     H87225   0.908   5.458   1.876  2.3746  0.4216  1.0444
  661MOL0     H87226   0.928   5.298   1.616 -2.6567 -0.7934  1.9412
  661MOL0     H87227   1.017   5.452   1.620 -1.1439  3.8776 -1.1915
  661MOL0     H87228   0.723   5.461   1.710  1.3380 -1.1268  1.9216
  661MOL0     H87229   0.767   5.421   1.537  0.7799 -1.5491  0.8006
  661MOL0     H87230   0.790   5.691   1.686  2.9910 -1.4676  1.2055
  661MOL0     H87231   0.913   5.655   1.579  0.7495 -0.7358 -0.2549
  661MOL0     H87232   0.720   5.796   1.506  0.5564  0.0708  0.6013
  661MOL0     H87233   0.618   5.647   1.526  0.1060 -0.7958  0.7926
  661MOL0     H87234   1.509   5.237   2.113 -0.2708  1.4461  0.1199
  661MOL0     H87235   1.732   5.305   2.164  0.5343  2.4332  0.6087
  661MOL0     H87236   2.166   5.760   2.020 -2.1227  1.2948  2.4703
  661MOL0     H87237   2.382   5.727   2.089  0.8414 -0.8773  1.5283
  661MOL0     H87238   4.042   5.770   3.076  0.4065  0.4507  5.2064
  661MOL0     H87239   4.283   5.785   3.082 -1.2284  0.5912 -1.1279
  661MOL0     H87240   4.691   5.490   3.103 -0.1933 -1.4925  0.8604
  661MOL0     H87241   4.926   5.478   3.136 -2.5783 -0.6465  0.0349
  661MOL0     H87242   5.107   5.705   3.485  0.9498  3.2509  1.7203
  661MOL0     H87243   5.127   5.812   3.348  0.3079 -0.1499  0.5430
  661MOL0     H87244   5.335   5.762   3.300  1.6926  1.7296  2.5465
  661MOL0     H87245   5.315   5.801   3.464 -0.7556  0.3332  0.2802
  661MOL0     H87246   5.317   5.501   3.386  0.1335  0.0669 -0.0279
  661MOL0     H87247   5.377   5.577   3.543  0.3424  0.9229  0.3389
  661MOL0     H87248   5.500   5.586   3.270 -1.8817  0.4285 -0.1467
  661MOL0     H87249   5.564   5.676   3.422 -1.9311  0.4806  1.7478
  661MOL0     H87250   5.740   5.306   3.491 -1.7507 -1.2224  1.8757
  661MOL0     H87251   4.905   5.770   3.442 -1.1313  0.8380  1.0799
  661MOL0     H87252   4.652   5.786   3.415 -0.8666 -1.2413  0.4420
  662MOL0     O87253   4.016   5.346  11.216  0.2293 -0.0711  0.6217
  662MOL0     C87254   4.049   5.458  11.258 -0.0921 -0.4345  0.7537
  662MOL0     O87255   3.967   5.567  11.285  0.2986  0.4453  0.3565
  662MOL0     C87256   3.833   5.557  11.262 -0.2869  0.2087 -0.7791
  662MOL0     C87257   3.787   5.513  11.135 -0.0565 -0.4686 -0.0522
  662MOL0     C87258   3.658   5.511  11.112  0.7681 -0.4840  0.3423
  662MOL0     C87259   3.559   5.557  11.207 -0.2519 -0.1401  0.4286
  662MOL0     O87260   3.420   5.560  11.195  0.0236  0.2567  0.8672
  662MOL0     C87261   3.386   5.569  11.059 -0.3243  0.1682 -0.0377
  662MOL0     C87262   3.229   5.567  11.064 -0.4855 -0.0344 -0.2121
  662MOL0     C87263   3.163   5.425  11.044  0.1072 -0.2499 -0.0015
  662MOL0     C87264   3.220   5.314  11.129 -0.0397  0.1507  0.1330
  662MOL0     C87265   3.156   5.175  11.100  0.5220 -0.3942  0.1586
  662MOL0     C87266   3.011   5.177  11.146  0.8164 -0.0078  0.0486
  662MOL0     C87267   2.983   5.213  11.284 -0.2095 -0.1953  0.2537
  662MOL0     C87268   2.838   5.200  11.313  0.6552 -0.2266 -1.3986
  662MOL0     N87269   2.743   5.309  11.273  0.2295 -0.4397 -0.7543
  662MOL0     C87270   2.671   5.399  11.355 -0.4458  0.5327 -0.0657
  662MOL0     C87271   2.582   5.453  11.271  1.1933 -0.3964 -0.1711
  662MOL0     C87272   2.481   5.555  11.302 -0.1036 -0.2891 -0.1899
  662MOL0     C87273   2.541   5.675  11.376 -0.4076 -0.6740 -0.2534
  662MOL0     C87274   2.489   5.657  11.520 -0.7017  0.1914 -0.5057
  662MOL0     C87275   2.559   5.763  11.596 -0.0199 -0.3992  0.2197
  662MOL0     O87276   2.453   5.803  11.691  0.1972  0.4773  0.9457
  662MOL0     C87277   2.352   5.896  11.660  0.1359  0.2251  0.1069
  662MOL0     C87278   2.272   5.922  11.768 -0.3305  0.1473 -0.4610
  662MOL0     C87279   2.165   6.015  11.760  0.8552 -0.7819  0.6677
  662MOL0     C87280   2.129   6.072  11.635  0.1631 -0.1719 -0.5100
  662MOL0     C87281   2.012   6.156  11.616  0.1301  0.2768  0.0418
  662MOL0     O87282   1.968   6.171  11.486  0.3648  0.2146 -0.0044
  662MOL0     C87283   1.852   6.252  11.469  0.3829  0.0502  0.8432
  662MOL0     C87284   1.722   6.218  11.484 -0.1426  0.9651  0.3639
  662MOL0     C87285   1.622   6.316  11.468  0.1297 -0.7288  0.3951
  662MOL0     C87286   1.647   6.441  11.429  0.5893  0.5113  1.3009
  662MOL0     O87287   1.549   6.535  11.383 -0.8313 -0.2203  0.7848
  662MOL0     C87288   1.413   6.505  11.392  0.0537 -0.1893 -0.4124
  662MOL0     C87289   1.324   6.599  11.314  0.6471 -0.5019 -0.4961
  662MOL0     C87290   1.282   6.716  11.408 -0.3350 -0.1969  0.2708
  662MOL0     C87291   1.219   6.832  11.321 -0.2383  0.7190  0.9074
  662MOL0     C87292   1.150   6.934  11.406  0.3839  0.2707 -0.3140
  662MOL0     C87293   1.096   7.056  11.324 -0.8928  0.3044  0.2859
  662MOL0     C87294   1.048   7.163  11.427 -0.5056 -0.5373 -0.1271
  662MOL0     C87295   1.123   7.288  11.389 -0.2828 -0.0313 -0.2321
  662MOL0    Cl87296   1.302   7.279  11.433 -0.0884 -0.1455  0.7332
  662MOL0     C87297   1.780   6.472  11.405 -0.5054 -0.1902  0.0709
  662MOL0     C87298   1.888   6.386  11.437  1.2605  0.3368 -0.4290
  662MOL0     O87299   1.946   6.180  11.716 -0.4945 -1.2043  0.7463
  662MOL0     C87300   2.200   6.025  11.525 -0.4240  0.7908  0.3559
  662MOL0     C87301   2.312   5.943  11.535 -0.4132  0.1376  0.6797
  662MOL0     N87302   2.583   5.377  11.152 -0.3770 -0.4586  0.2223
  662MOL0     N87303   2.687   5.301  11.152  0.3245 -0.4370  0.5306
  662MOL0     C87304   3.611   5.603  11.328 -0.0666 -0.2281 -0.4606
  662MOL0     C87305   3.750   5.597  11.366  0.5560  0.6508 -0.2925
  662MOL0     C87306   4.197   5.466  11.291 -0.3872  0.4359  0.7654
  662MOL0     C87307   4.255   5.588  11.324  0.1495 -0.7125 -0.2696
  662MOL0     C87308   4.389   5.603  11.372  0.2197  0.6181  0.0964
  662MOL0     C87309   4.472   5.495  11.369  0.9412 -0.2031 -0.7909
  662MOL0     O87310   4.603   5.504  11.401 -0.1481  0.4376  0.3591
  662MOL0     C87311   4.623   5.523  11.543  0.0451  0.0794 -0.2036
  662MOL0     C87312   4.747   5.444  11.591 -1.3315 -0.6246 -0.3596
  662MOL0     C87313   4.724   5.292  11.618 -0.6798  0.4159 -0.1992
  662MOL0     C87314   4.861   5.218  11.615  0.2246  0.4789 -0.3109
  662MOL0     C87315   4.961   5.267  11.717 -0.6437  0.4326 -0.8763
  662MOL0     C87316   5.027   5.303  11.816 -0.8068 -0.1376 -0.2622
  662MOL0     C87317   4.428   5.369  11.328  0.9869  0.3886  0.4444
  662MOL0     C87318   4.292   5.358  11.278 -0.5079 -0.1258 -0.7504
  662MOL0     H87319   3.864   5.481  11.065 -0.7454  1.4774 -1.7821
  662MOL0     H87320   3.629   5.472  11.014 -0.8889  1.5674 -0.0615
  662MOL0     H87321   3.408   5.477  11.003 -2.2245  2.3132 -4.9442
  662MOL0     H87322   3.416   5.660  11.007  0.3346  0.3505  0.6522
  662MOL0     H87323   3.193   5.638  10.989 -1.3703 -1.5159 -1.2326
  662MOL0     H87324   3.198   5.612  11.159  0.5529 -0.5872  0.4102
  662MOL0     H87325   3.175   5.390  10.941 -1.2465 -0.8175  0.0211
  662MOL0     H87326   3.057   5.449  11.049  0.5550  1.6889  2.1843
  662MOL0     H87327   3.327   5.305  11.108  0.6771  3.3407  1.8643
  662MOL0     H87328   3.210   5.349  11.232 -3.4172 -0.2188  0.0464
  662MOL0     H87329   3.214   5.098  11.152 -0.6398 -1.1287  0.3995
  662MOL0     H87330   3.175   5.150  10.995 -0.9063  3.2239 -1.1348
  662MOL0     H87331   2.969   5.079  11.121  0.3415 -1.1385  4.3410
  662MOL0     H87332   2.960   5.256  11.091 -1.6764 -0.8347  0.9885
  662MOL0     H87333   3.045   5.139  11.335  2.2180  1.7553  0.3494
  662MOL0     H87334   3.024   5.314  11.296 -0.1268 -0.2237  0.2036
  662MOL0     H87335   2.823   5.183  11.420  2.6804 -2.8015 -1.4162
  662MOL0     H87336   2.800   5.103  11.280  0.9765 -1.0289  0.4680
  662MOL0     H87337   2.675   5.427  11.459 -0.4046 -0.8204  0.3239
  662MOL0     H87338   2.392   5.506  11.342  0.4275 -1.1570 -0.0537
  662MOL0     H87339   2.443   5.606  11.212  1.8919  0.3895 -0.7075
  662MOL0     H87340   2.508   5.767  11.326 -2.9010 -0.8097  1.0326
  662MOL0     H87341   2.650   5.688  11.376 -0.4997  0.5851  1.8081
  662MOL0     H87342   2.383   5.674  11.541  0.4004  2.8557  4.5399
  662MOL0     H87343   2.508   5.555  11.553 -0.2073  0.4158 -0.0714
  662MOL0     H87344   2.591   5.850  11.537  0.5232 -0.8153 -0.1010
  662MOL0     H87345   2.650   5.735  11.650 -0.9447  2.1731  3.5011
  662MOL0     H87346   2.302   5.869  11.858  0.1497 -4.0204 -2.8154
  662MOL0     H87347   2.108   6.038  11.850  0.9006 -0.0289  0.5129
  662MOL0     H87348   1.694   6.119  11.517  0.2390 -0.3792 -2.9199
  662MOL0     H87349   1.522   6.288  11.500  0.7527  0.6876  4.1417
  662MOL0     H87350   1.382   6.514  11.497 -2.7603  1.6500 -1.2605
  662MOL0     H87351   1.397   6.403  11.356  1.7239 -0.2263 -1.1006
  662MOL0     H87352   1.238   6.541  11.280 -0.2472  0.3869  0.2031
  662MOL0     H87353   1.384   6.626  11.227  1.7120 -3.2358 -0.7020
  662MOL0     H87354   1.356   6.771  11.467  0.9539  1.4569 -2.6783
  662MOL0     H87355   1.214   6.679  11.485  0.4407 -2.0723  0.1160
  662MOL0     H87356   1.298   6.891  11.274 -0.4895  0.9351  0.7537
  662MOL0     H87357   1.152   6.791  11.245  0.5652 -1.3636  1.2431
  662MOL0     H87358   1.228   6.979  11.468  1.2849 -0.9717 -0.5038
  662MOL0     H87359   1.076   6.880  11.466  0.0923  2.9862  1.9887
  662MOL0     H87360   1.008   7.027  11.266 -2.1738  1.5398  1.5401
  662MOL0     H87361   1.174   7.088  11.256 -2.9292  2.8697 -1.0192
  662MOL0     H87362   0.944   7.196  11.419 -0.7110 -0.1529  2.9937
  662MOL0     H87363   1.046   7.129  11.531 -1.5323  0.9427  0.3552
  662MOL0     H87364   1.078   7.373  11.442  1.3405  0.6942  0.0321
  662MOL0     H87365   1.112   7.313  11.282  0.8970 -0.3271 -0.4336
  662MOL0     H87366   1.813   6.564  11.358  0.4678 -1.6748 -2.3440
  662MOL0     H87367   1.991   6.420  11.429  1.3450  0.9935  2.4992
  662MOL0     H87368   2.162   6.052  11.427  0.6457 -1.9672 -0.9342
  662MOL0     H87369   2.365   5.914  11.445 -1.1064  0.8491  0.0244
  662MOL0     H87370   3.550   5.649  11.405  0.9971  2.0733 -0.9088
  662MOL0     H87371   3.792   5.643  11.455 -1.9934  0.3764  1.1531
  662MOL0     H87372   4.193   5.676  11.337  0.4770 -0.6019  0.5814
  662MOL0     H87373   4.439   5.697  11.395  0.3735  0.9080 -1.3689
  662MOL0     H87374   4.536   5.493  11.602  2.5729 -0.0879  3.7640
  662MOL0     H87375   4.640   5.630  11.554  3.4175 -0.6317  4.2565
  662MOL0     H87376   4.833   5.462  11.526 -0.8208  1.7113  0.8697
  662MOL0     H87377   4.775   5.475  11.692  0.2540  0.2324 -1.0229
  662MOL0     H87378   4.661   5.244  11.543  1.3048 -3.9253  0.5636
  662MOL0     H87379   4.679   5.279  11.716 -1.5649  1.5658 -0.4397
  662MOL0     H87380   4.839   5.113  11.638 -1.4552  1.0121  0.6767
  662MOL0     H87381   4.906   5.224  11.516  1.2754 -0.7945  0.0663
  662MOL0     H87382   5.093   5.339  11.892  1.0771 -0.7964 -1.5309
  662MOL0     H87383   4.499   5.287  11.334  1.7014  1.0744  1.7995
  662MOL0     H87384   4.252   5.260  11.253 -2.8432  0.3847  0.7210
  663MOL0     O87385   1.228   4.157   0.367  0.3829  0.3159 -0.0231
  663MOL0     C87386   1.242   4.102   0.475 -1.1515 -0.0654  1.4887
  663MOL0     O87387   1.173   4.136   0.586  0.6237  0.0530 -0.1928
  663MOL0     C87388   1.058   4.200   0.573  0.3108  0.5910 -1.2319
  663MOL0     C87389   0.941   4.121   0.581  0.0422 -1.3309  0.3124
  663MOL0     C87390   0.817   4.193   0.584  1.0325 -0.2091 -0.6998
  663MOL0     C87391   0.814   4.333   0.552  0.2638 -0.2014 -0.3939
  663MOL0     O87392   0.694   4.403   0.542 -0.2558 -0.4726 -0.9654
  663MOL0     C87393   0.594   4.343   0.466  0.5629 -0.6245 -0.1359
  663MOL0     C87394   0.497   4.266   0.535  0.7621  0.2778  0.1314
  663MOL0     C87395   0.346   4.268   0.495  0.5292 -0.3773  0.2709
  663MOL0     C87396   0.282   4.397   0.569 -0.0507  1.1590  0.1448
  663MOL0     C87397   0.139   4.397   0.543 -0.4725 -0.0827 -0.0265
  663MOL0     C87398   0.110   4.436   0.402  0.8482  0.3540  0.3520
  663MOL0     C87399  -0.042   4.408   0.369 -0.0830 -0.1000  0.5112
  663MOL0     C87400  -0.074   4.253   0.367  0.1529 -0.1129  0.9805
  663MOL0     N87401  -0.207   4.216   0.309  0.1948  0.1507 -0.4392
  663MOL0     C87402  -0.279   4.279   0.219  0.9777  0.7925  0.7295
  663MOL0     C87403  -0.403   4.215   0.221 -0.1727 -0.1731 -0.1120
  663MOL0     C87404  -0.509   4.268   0.125  0.1800  1.0104 -0.1099
  663MOL0     C87405  -0.657   4.238   0.170  0.7092  0.5472  0.0731
  663MOL0     C87406  -0.756   4.294   0.069  0.1435 -0.1681 -0.3500
  663MOL0     C87407  -0.896   4.243   0.087 -0.4166 -0.2905  0.0817
  663MOL0     O87408  -0.954   4.303   0.202 -0.0260 -0.5205  0.4449
  663MOL0     C87409  -1.090   4.284   0.232 -0.1236  0.5827 -0.1881
  663MOL0     C87410  -1.134   4.303   0.363 -0.3561  0.4361  0.6058
  663MOL0     C87411  -1.261   4.267   0.404  0.3847  0.7876  0.1359
  663MOL0     C87412  -1.354   4.232   0.311  0.0316  1.1127 -0.0227
  663MOL0     C87413  -1.497   4.199   0.355 -0.5298  0.8113  0.7092
  663MOL0     O87414  -1.571   4.145   0.253 -0.7039  0.4991  0.1738
  663MOL0     C87415  -1.705   4.136   0.280  0.4142  0.4703 -1.1954
  663MOL0     C87416  -1.784   4.214   0.202 -0.2536 -1.1434 -0.4502
  663MOL0     C87417  -1.923   4.220   0.211 -0.2804 -0.2407  0.1688
  663MOL0     C87418  -1.987   4.141   0.297 -0.1469 -0.0863 -0.5074
  663MOL0     O87419  -2.123   4.125   0.314 -0.0676  0.3737  0.1763
  663MOL0     C87420  -2.201   4.239   0.293  1.0950  0.1784 -1.4097
  663MOL0     C87421  -2.352   4.203   0.321 -0.5993 -0.5591 -0.5281
  663MOL0     C87422  -2.400   4.067   0.271 -0.4651  0.5913  1.3481
  663MOL0     C87423  -2.552   4.058   0.280  0.7061  0.9209 -0.4591
  663MOL0     C87424  -2.605   3.928   0.223 -0.9515  0.0516  0.3871
  663MOL0     C87425  -2.758   3.928   0.226  0.0994 -1.0799  0.3086
  663MOL0     C87426  -2.812   3.917   0.359  0.0977  0.1957 -1.1572
  663MOL0     C87427  -2.962   3.932   0.370 -0.8319 -0.7828  0.6433
  663MOL0    Cl87428  -3.020   3.877   0.529  0.2960  0.0401  0.1634
  663MOL0     C87429  -1.907   4.056   0.384  0.4787  0.4956  0.7590
  663MOL0     C87430  -1.768   4.049   0.377  0.2266 -0.3075  0.3208
  663MOL0     O87431  -1.531   4.212   0.474  0.1674  0.0428  0.0455
  663MOL0     C87432  -1.321   4.220   0.176 -0.4614  0.5601 -0.7762
  663MOL0     C87433  -1.182   4.246   0.142 -0.2885  0.3979  0.6450
  663MOL0     N87434  -0.399   4.112   0.308 -0.0976  0.7394  0.6847
  663MOL0     N87435  -0.282   4.116   0.360 -0.6198  0.7662 -0.3156
  663MOL0     C87436   0.937   4.402   0.533 -0.4669 -0.2357 -0.7555
  663MOL0     C87437   1.058   4.337   0.560 -0.0983 -0.2176  0.5299
  663MOL0     C87438   1.355   4.011   0.485 -0.2723 -0.7763 -0.5399
  663MOL0     C87439   1.389   3.972   0.612  0.0646  1.4649 -0.6148
  663MOL0     C87440   1.490   3.869   0.621  0.4265 -0.8731 -0.1121
  663MOL0     C87441   1.568   3.835   0.509 -0.7264  0.4135 -0.3957
  663MOL0     O87442   1.679   3.760   0.550  0.0075  0.1436 -0.7504
  663MOL0     C87443   1.805   3.833   0.517  1.1556 -0.2144 -0.1593
  663MOL0     C87444   1.927   3.745   0.521 -0.1348 -0.9476  0.0364
  663MOL0     C87445   2.057   3.825   0.508  0.4881 -0.3243 -0.5410
  663MOL0     C87446   2.180   3.736   0.500 -0.9395  0.3396  0.6534
  663MOL0     C87447   2.309   3.807   0.530 -0.0687 -0.4238  0.3212
  663MOL0     C87448   2.408   3.871   0.553  0.5288  0.2303 -0.5430
  663MOL0     C87449   1.532   3.883   0.383  0.3723  0.8954  0.4125
  663MOL0     C87450   1.426   3.969   0.367 -0.1952 -0.3224 -0.2963
  663MOL0     H87451   0.954   4.014   0.593  2.5456 -1.1023  0.0799
  663MOL0     H87452   0.729   4.133   0.602  1.0776  0.0890  0.5865
  663MOL0     H87453   0.630   4.283   0.382 -2.6541 -1.4509 -1.0784
  663MOL0     H87454   0.536   4.431   0.434 -1.9989 -2.4609 -0.8217
  663MOL0     H87455   0.500   4.295   0.641  1.2233 -0.9514  0.4816
  663MOL0     H87456   0.525   4.160   0.539 -0.9177 -0.1825  1.7006
  663MOL0     H87457   0.306   4.179   0.544 -2.9952  2.0305  2.2949
  663MOL0     H87458   0.332   4.254   0.387  4.5976 -1.9013 -0.2357
  663MOL0     H87459   0.300   4.395   0.677 -2.8705  0.5624  0.6824
  663MOL0     H87460   0.316   4.498   0.544 -2.3280  1.5792 -1.5958
  663MOL0     H87461   0.089   4.468   0.610 -2.0748 -2.6271  1.6254
  663MOL0     H87462   0.099   4.296   0.556 -1.1675  0.3539  1.4354
  663MOL0     H87463   0.166   4.379   0.327  2.3098  2.3245 -0.1459
  663MOL0     H87464   0.141   4.538   0.377  3.2057 -1.0569 -3.2965
  663MOL0     H87465  -0.102   4.469   0.437  3.1085  2.4638  1.2526
  663MOL0     H87466  -0.056   4.453   0.270 -0.5355  0.4525  0.8179
  663MOL0     H87467  -0.081   4.219   0.471 -1.1898  0.4192  1.0840
  663MOL0     H87468   0.004   4.190   0.323  0.4717 -0.2048  1.6579
  663MOL0     H87469  -0.242   4.368   0.168  0.8017  2.8725  3.9512
  663MOL0     H87470  -0.489   4.213   0.032  5.5458  1.4016  0.4797
  663MOL0     H87471  -0.496   4.374   0.101 -0.1851  0.4787 -3.0855
  663MOL0     H87472  -0.674   4.293   0.263  1.3341 -2.0069  1.8272
  663MOL0     H87473  -0.673   4.130   0.182  1.5477  0.4869  0.8423
  663MOL0     H87474  -0.752   4.403   0.083  3.6487  0.0474 -1.8813
  663MOL0     H87475  -0.712   4.269  -0.028  1.1774  1.3781 -0.3167
  663MOL0     H87476  -0.896   4.135   0.106 -1.4389 -0.1241  1.1623
  663MOL0     H87477  -0.943   4.274  -0.007  0.5732  3.9002  0.7893
  663MOL0     H87478  -1.065   4.347   0.435 -0.8542  1.4198  0.4959
  663MOL0     H87479  -1.286   4.272   0.509  0.8235 -0.6719  0.3284
  663MOL0     H87480  -1.727   4.286   0.145  2.5463 -1.1997  2.0563
  663MOL0     H87481  -1.967   4.303   0.157  0.7370  0.8398  0.9476
  663MOL0     H87482  -2.196   4.276   0.190 -2.0974  2.8271 -0.7740
  663MOL0     H87483  -2.157   4.316   0.357  0.5193 -0.6175 -0.0320
  663MOL0     H87484  -2.415   4.284   0.283 -1.0913 -1.2651 -1.2631
  663MOL0     H87485  -2.379   4.205   0.427 -3.3355  5.6249 -0.9195
  663MOL0     H87486  -2.354   3.982   0.321  0.6796  1.1115  1.1937
  663MOL0     H87487  -2.362   4.059   0.169 -0.5504 -0.5683  1.3938
  663MOL0     H87488  -2.567   4.070   0.388 -0.5996 -1.0449 -0.3849
  663MOL0     H87489  -2.609   4.142   0.239 -0.6409 -1.0047 -2.7441
  663MOL0     H87490  -2.563   3.839   0.271 -2.4174  0.4364  2.5118
  663MOL0     H87491  -2.562   3.918   0.123  1.2284 -2.9149  1.4659
  663MOL0     H87492  -2.794   3.842   0.170  1.5374 -2.1476  0.9692
  663MOL0     H87493  -2.800   4.020   0.184  2.5849  0.2541  0.5735
  663MOL0     H87494  -2.789   3.820   0.404 -1.7803 -0.2539 -1.1035
  663MOL0     H87495  -2.769   3.987   0.431  0.3601 -0.3859 -0.7395
  663MOL0     H87496  -3.018   3.875   0.295  0.6925  0.6614 -1.6912
  663MOL0     H87497  -2.983   4.036   0.345 -0.1518 -1.2119 -2.0461
  663MOL0     H87498  -1.944   3.979   0.450 -0.1651  0.7016  0.6483
  663MOL0     H87499  -1.712   3.980   0.440 -0.9590 -1.1895  0.4320
  663MOL0     H87500  -1.385   4.197   0.091 -0.3629 -1.3902 -0.3591
  663MOL0     H87501  -1.142   4.235   0.042 -1.7647 -1.1229  0.1609
  663MOL0     H87502   0.921   4.509   0.518  1.0365 -0.0401 -1.0772
  663MOL0     H87503   1.144   4.403   0.567 -1.3003  1.2722  2.4507
  663MOL0     H87504   1.338   4.003   0.702  2.6166  4.1898  0.0533
  663MOL0     H87505   1.538   3.854   0.717 -0.5877  1.2685  0.8084
  663MOL0     H87506   1.830   3.913   0.587 -0.6883  0.6006 -0.3783
  663MOL0     H87507   1.801   3.868   0.414 -0.0324 -1.3304 -0.5305
  663MOL0     H87508   1.918   3.692   0.617  0.7383 -3.2182 -1.0733
  663MOL0     H87509   1.926   3.658   0.455 -0.2575 -2.2293  1.6514
  663MOL0     H87510   2.049   3.895   0.592  1.0751 -1.1421  0.2131
  663MOL0     H87511   2.057   3.894   0.423 -0.5901  0.4819  0.0762
  663MOL0     H87512   2.181   3.649   0.565  2.5302 -0.9788 -0.9588
  663MOL0     H87513   2.195   3.696   0.399  3.2404  1.1512  0.7990
  663MOL0     H87514   2.488   3.938   0.576 -0.0195  1.0702 -1.0385
  663MOL0     H87515   1.581   3.852   0.291 -0.5435  1.7151 -0.3745
  663MOL0     H87516   1.408   4.019   0.272  1.9818  0.9233 -0.1193
  664MOL0     O87517   7.803   7.500  10.646 -0.1639 -0.3567  0.0461
  664MOL0     C87518   7.865   7.507  10.541 -0.1351 -0.0880  0.5244
  664MOL0     O87519   7.818   7.491  10.419  0.0302  0.6702  0.4556
  664MOL0     C87520   7.680   7.502  10.404 -0.3981 -0.7293  0.2006
  664MOL0     C87521   7.632   7.631  10.392  0.2984  0.2755 -0.0348
  664MOL0     C87522   7.497   7.661  10.404  0.5088  0.0502 -0.1484
  664MOL0     C87523   7.400   7.562  10.397 -0.2777  0.4326 -0.2371
  664MOL0     O87524   7.271   7.605  10.381 -0.1124  0.1995 -0.2971
  664MOL0     C87525   7.180   7.512  10.311  0.1982 -0.5839 -0.7229
  664MOL0     C87526   7.033   7.562  10.335 -0.2048 -0.3987 -0.7862
  664MOL0     C87527   6.938   7.466  10.276 -0.2077 -0.5021  0.2463
  664MOL0     C87528   6.792   7.498  10.314 -0.1831  0.1569 -0.1267
  664MOL0     C87529   6.681   7.416  10.236 -0.1839  0.0199 -0.3034
  664MOL0     C87530   6.641   7.495  10.119  0.4601 -0.7865  0.0323
  664MOL0     C87531   6.494   7.522  10.109 -0.4434  1.0582 -0.2375
  664MOL0     C87532   6.462   7.638  10.206  0.3236  0.8332 -0.0231
  664MOL0     N87533   6.332   7.698  10.171  1.0686  0.4593 -0.9479
  664MOL0     C87534   6.289   7.759  10.058  0.1527 -0.2581 -1.2080
  664MOL0     C87535   6.148   7.782  10.080 -1.0538  0.4556  0.2946
  664MOL0     C87536   6.052   7.818   9.971  0.0338  0.1586  0.1025
  664MOL0     C87537   5.911   7.838  10.020 -0.8437 -0.5463  0.4951
  664MOL0     C87538   5.838   7.722  10.083 -0.5563  1.2335  0.2051
  664MOL0     C87539   5.687   7.735  10.086 -0.0076 -0.1572 -0.5509
  664MOL0     O87540   5.651   7.855  10.156  0.7837  0.3208 -0.6389
  664MOL0     C87541   5.515   7.898  10.133  0.6346  0.1436 -0.6989
  664MOL0     C87542   5.406   7.821  10.090  0.8895 -0.1506 -0.3506
  664MOL0     C87543   5.284   7.885  10.068 -0.0217 -0.2944  0.1251
  664MOL0     C87544   5.258   8.018  10.075 -0.2976 -0.3450 -0.0570
  664MOL0     C87545   5.129   8.086  10.044 -0.2729  0.0970 -0.4082
  664MOL0     O87546   5.124   8.221  10.046 -0.1229  0.2773  0.0110
  664MOL0     C87547   5.023   8.289   9.982 -0.3601 -0.1156  0.5082
  664MOL0     C87548   4.961   8.390  10.049  0.0348  0.1510 -0.2990
  664MOL0     C87549   4.865   8.469   9.999  0.4571  0.0505 -0.5173
  664MOL0     C87550   4.826   8.450   9.865 -0.9753  0.1636  0.1825
  664MOL0     O87551   4.743   8.530   9.798  0.6859  0.8648  0.3110
  664MOL0     C87552   4.667   8.624   9.879 -0.3107  0.4444 -0.7309
  664MOL0     C87553   4.549   8.543   9.956 -0.0546  0.5630 -0.4411
  664MOL0     C87554   4.489   8.626  10.069  0.5105  0.2016  0.2631
  664MOL0     C87555   4.569   8.623  10.200  0.0694 -0.0826 -0.2177
  664MOL0     C87556   4.512   8.662  10.346 -0.3983  0.3727  0.0708
  664MOL0     C87557   4.446   8.798  10.346  0.7899 -1.0124 -0.7216
  664MOL0     C87558   4.373   8.848  10.477  0.4720 -0.0277 -0.3536
  664MOL0     C87559   4.250   8.939  10.458 -1.1027 -0.3993 -0.2305
  664MOL0    Cl87560   4.289   9.099  10.373  0.2866  0.1731  0.0135
  664MOL0     C87561   4.885   8.341   9.793  0.2521 -0.9715 -0.8204
  664MOL0     C87562   4.984   8.264   9.853  0.2458  0.3747 -0.4765
  664MOL0     O87563   5.037   8.011  10.027  0.9240 -0.4190  0.4855
  664MOL0     C87564   5.372   8.093  10.114  0.8144  0.5063 -0.3471
  664MOL0     C87565   5.490   8.027  10.148 -0.2066 -0.9846  0.6350
  664MOL0     N87566   6.132   7.761  10.213  0.3190  0.2755  0.3896
  664MOL0     N87567   6.230   7.699  10.263 -0.4326 -0.5190 -0.3809
  664MOL0     C87568   7.450   7.429  10.394 -0.3382  0.4833  0.2162
  664MOL0     C87569   7.587   7.397  10.394 -0.1254  0.4728 -0.1861
  664MOL0     C87570   8.013   7.528  10.542  0.5775 -1.1207  0.2117
  664MOL0     C87571   8.063   7.594  10.429 -0.0224 -0.2106 -0.5304
  664MOL0     C87572   8.198   7.612  10.418 -0.5938  0.3900 -0.2937
  664MOL0     C87573   8.290   7.577  10.515 -0.4068 -0.5379  0.5674
  664MOL0     O87574   8.421   7.619  10.515 -0.4872  0.7999  0.4835
  664MOL0     C87575   8.525   7.530  10.467  0.7538 -0.7363  0.6366
  664MOL0     C87576   8.640   7.634  10.422 -1.1691  1.3942 -0.7383
  664MOL0     C87577   8.759   7.551  10.381 -0.3062 -0.3294 -0.0138
  664MOL0     C87578   8.755   7.512  10.232 -0.1517  0.3707 -1.1741
  664MOL0     C87579   8.879   7.438  10.209  0.9265  1.7031 -0.4436
  664MOL0     C87580   8.961   7.354  10.195 -0.4691 -1.0749  1.1396
  664MOL0     C87581   8.240   7.514  10.627  0.4975 -1.2655 -0.0146
  664MOL0     C87582   8.099   7.490  10.646 -0.4713 -0.0485  0.2392
  664MOL0     H87583   7.708   7.709  10.396 -0.4179  0.9450  1.1305
  664MOL0     H87584   7.477   7.766  10.389 -1.6526 -0.3720 -0.6314
  664MOL0     H87585   7.186   7.409  10.347  0.3067 -0.2609  0.2043
  664MOL0     H87586   7.199   7.512  10.203  1.8693  0.8999 -0.4850
  664MOL0     H87587   7.015   7.663  10.298 -0.5124 -0.9673 -2.2629
  664MOL0     H87588   7.019   7.556  10.443  1.8029 -1.0993 -0.5059
  664MOL0     H87589   6.962   7.367  10.317 -3.2336 -0.9642  1.1171
  664MOL0     H87590   6.948   7.480  10.168 -0.5378  0.5741  0.3456
  664MOL0     H87591   6.790   7.459  10.416  1.3747 -1.8772 -0.7966
  664MOL0     H87592   6.784   7.606  10.304  0.7945  0.2459 -0.0451
  664MOL0     H87593   6.606   7.397  10.313 -0.8458 -0.1201 -0.9679
  664MOL0     H87594   6.721   7.318  10.212  0.7509 -0.5088  2.9444
  664MOL0     H87595   6.667   7.431  10.035  1.1333 -1.7325  0.9267
  664MOL0     H87596   6.692   7.591  10.109 -0.0895 -0.1421  2.6536
  664MOL0     H87597   6.464   7.544  10.006  2.7197 -0.9973 -1.7773
  664MOL0     H87598   6.435   7.436  10.140  0.2698  0.4242 -0.5996
  664MOL0     H87599   6.539   7.715  10.204  0.9357  0.2211 -1.5718
  664MOL0     H87600   6.466   7.601  10.309 -1.3151  0.0637 -0.2055
  664MOL0     H87601   6.343   7.755   9.965 -1.2654 -2.0388 -2.0217
  664MOL0     H87602   6.054   7.730   9.906  2.8705 -1.7437  2.4941
  664MOL0     H87603   6.094   7.902   9.916  1.8654 -1.0886 -0.5084
  664MOL0     H87604   5.864   7.871   9.927 -0.0404 -0.9239 -0.0587
  664MOL0     H87605   5.900   7.919  10.092 -0.9422 -0.7171  0.6738
  664MOL0     H87606   5.862   7.625  10.038  0.0872  1.5980 -0.2555
  664MOL0     H87607   5.859   7.713  10.190 -0.1836 -1.2214 -0.0200
  664MOL0     H87608   5.648   7.643  10.131  1.0796 -0.3054  0.1181
  664MOL0     H87609   5.646   7.747   9.986 -0.2399  1.1396 -0.3242
  664MOL0     H87610   5.406   7.715  10.066  1.5139 -0.0602 -0.8001
  664MOL0     H87611   5.204   7.818  10.038 -1.8642  1.1942  1.4605
  664MOL0     H87612   4.982   8.410  10.154 -0.8896 -2.1706  0.3842
  664MOL0     H87613   4.838   8.555  10.060  1.2022  0.8944 -1.3413
  664MOL0     H87614   4.611   8.690   9.812 -0.8064  0.1608 -0.6025
  664MOL0     H87615   4.723   8.684   9.952 -0.9948  0.5142 -0.2520
  664MOL0     H87616   4.582   8.446   9.996 -0.1607  0.5293 -0.4321
  664MOL0     H87617   4.471   8.517   9.884  0.2310 -1.0469 -0.2155
  664MOL0     H87618   4.388   8.588  10.087 -0.5139  3.1959  1.3600
  664MOL0     H87619   4.485   8.729  10.033  0.7961 -0.1870 -0.9297
  664MOL0     H87620   4.590   8.517  10.213 -1.9965 -0.6425 -1.1530
  664MOL0     H87621   4.651   8.695  10.188  1.3810 -1.4751  0.0285
  664MOL0     H87622   4.592   8.663  10.420  0.9989 -2.5689 -1.2217
  664MOL0     H87623   4.433   8.591  10.373 -1.2630  1.5458  0.6763
  664MOL0     H87624   4.383   8.801  10.257  1.5643  2.4529 -1.2987
  664MOL0     H87625   4.516   8.878  10.320  0.2411  0.6482  2.4694
  664MOL0     H87626   4.329   8.769  10.539  2.6978  0.7779  2.4571
  664MOL0     H87627   4.453   8.887  10.539  2.7483 -1.6954 -2.0566
  664MOL0     H87628   4.201   8.956  10.555  1.7325  2.7668  0.8483
  664MOL0     H87629   4.183   8.893  10.385  1.8742 -0.1976 -3.3584
  664MOL0     H87630   4.829   8.307   9.706 -2.8295  1.9652 -0.2089
  664MOL0     H87631   5.029   8.186   9.793  1.1903  1.2372 -0.9104
  664MOL0     H87632   5.348   8.196  10.136 -0.7337 -0.0777  0.9495
  664MOL0     H87633   5.567   8.099  10.175 -1.3817  0.3168  0.6599
  664MOL0     H87634   7.381   7.345  10.392  1.0265 -0.6780  0.0948
  664MOL0     H87635   7.620   7.295  10.375 -4.1783 -1.0511 -0.0370
  664MOL0     H87636   8.002   7.636  10.350 -2.4451 -1.3320  0.6360
  664MOL0     H87637   8.247   7.654  10.331 -1.2694  2.5597  0.3052
  664MOL0     H87638   8.498   7.488  10.370  2.4742  0.7009 -0.5431
  664MOL0     H87639   8.559   7.461  10.544  1.2027  0.1368  1.2401
  664MOL0     H87640   8.607   7.691  10.334  0.3726  2.6707 -0.5428
  664MOL0     H87641   8.666   7.707  10.499  1.8449 -0.1743 -0.1244
  664MOL0     H87642   8.749   7.456  10.434  1.2303 -0.5645 -0.1032
  664MOL0     H87643   8.848   7.611  10.403  1.9961 -4.3657  3.2013
  664MOL0     H87644   8.670   7.445  10.214 -1.2855  1.6264 -0.6482
  664MOL0     H87645   8.742   7.601  10.170  2.3891  2.8090  1.5153
  664MOL0     H87646   9.026   7.269  10.196 -1.3568 -1.8207  3.3999
  664MOL0     H87647   8.292   7.485  10.718  1.3427  0.5419  0.1233
  664MOL0     H87648   8.070   7.448  10.742  2.2631 -0.4383  0.9735
  665MOL0     O87649   0.051   1.135   9.431 -0.2941  0.6375 -0.8138
  665MOL0     C87650   0.132   1.059   9.483  0.5525 -0.3531 -0.3706
  665MOL0     O87651   0.111   0.943   9.541  0.4436  0.2065  0.0629
  665MOL0     C87652  -0.021   0.909   9.566 -0.4027  0.0258 -1.1132
  665MOL0     C87653  -0.073   0.912   9.698  0.3509 -0.2845  0.6301
  665MOL0     C87654  -0.211   0.879   9.725  0.0493  0.0223  0.4184
  665MOL0     C87655  -0.303   0.832   9.622 -1.9597 -0.8728  0.0682
  665MOL0     O87656  -0.432   0.800   9.655 -0.8158  0.0870  0.6534
  665MOL0     C87657  -0.513   0.742   9.551 -0.0442 -0.2707 -0.2888
  665MOL0     C87658  -0.658   0.722   9.592 -0.0587  0.0058  0.0998
  665MOL0     C87659  -0.739   0.850   9.605 -0.5205  0.0327  0.5903
  665MOL0     C87660  -0.780   0.906   9.464  0.2505  0.6271  0.1654
  665MOL0     C87661  -0.860   1.040   9.476  0.2543 -0.4739 -0.0208
  665MOL0     C87662  -1.002   1.019   9.521  0.7250 -0.3448 -0.4083
  665MOL0     C87663  -1.097   1.142   9.498 -0.0689 -0.4890 -0.7663
  665MOL0     C87664  -1.231   1.104   9.548  0.1868 -0.7071 -0.4242
  665MOL0     N87665  -1.256   1.108   9.699 -0.4582  0.0965 -0.0939
  665MOL0     C87666  -1.223   1.207   9.788  0.4075 -0.4775 -0.6621
  665MOL0     C87667  -1.254   1.151   9.904  0.4490  0.2025 -0.4646
  665MOL0     C87668  -1.207   1.241  10.024 -0.5296  0.4783  0.5902
  665MOL0     C87669  -1.067   1.208  10.074 -0.7948 -0.6907  0.2300
  665MOL0     C87670  -0.951   1.226   9.976  0.5278 -0.0862  0.6724
  665MOL0     C87671  -0.814   1.197  10.047 -0.1146  0.1191 -0.3940
  665MOL0     O87672  -0.716   1.199   9.935  0.1027 -0.1506 -0.6203
  665MOL0     C87673  -0.584   1.186   9.966 -0.3147  1.3121  0.2286
  665MOL0     C87674  -0.498   1.154   9.860 -1.5494  0.3936  0.1787
  665MOL0     C87675  -0.361   1.131   9.871 -1.0526  0.1852 -0.1244
  665MOL0     C87676  -0.304   1.141  10.005  0.2524  0.5117  0.5347
  665MOL0     C87677  -0.159   1.125  10.028 -0.2677  0.9517  0.7024
  665MOL0     O87678  -0.123   1.108  10.160 -0.0311  0.3120  0.1643
  665MOL0     C87679  -0.004   1.074  10.213  0.1305  0.0633  0.2535
  665MOL0     C87680   0.120   1.065  10.142  0.3624 -0.4878 -0.6231
  665MOL0     C87681   0.232   1.009  10.204  1.2368 -0.6209  0.3863
  665MOL0     C87682   0.225   0.973  10.340 -0.0892  0.3030 -0.9054
  665MOL0     O87683   0.321   0.922  10.424 -0.4715 -0.1834 -0.1117
  665MOL0     C87684   0.420   0.839  10.349  0.1241  0.4308  0.1176
  665MOL0     C87685   0.486   0.739  10.440  0.3519  0.2155 -0.7229
  665MOL0     C87686   0.398   0.653  10.539 -1.4928 -0.0392 -0.0665
  665MOL0     C87687   0.473   0.647  10.678  0.6042 -0.1017  0.0815
  665MOL0     C87688   0.440   0.515  10.761  0.4570 -0.6720 -0.1739
  665MOL0     C87689   0.425   0.544  10.911  0.7096  0.0193 -0.0595
  665MOL0     C87690   0.376   0.428  10.997 -0.2144 -0.0481  0.3503
  665MOL0     C87691   0.360   0.465  11.142 -1.0857 -0.0533  0.4236
  665MOL0    Cl87692   0.519   0.514  11.206 -0.4148 -0.4137  0.3388
  665MOL0     C87693   0.110   1.008  10.416  1.0282 -0.3596  0.0158
  665MOL0     C87694  -0.001   1.058  10.349 -0.4635  0.6755 -0.5319
  665MOL0     O87695  -0.085   1.151   9.932 -0.0561 -0.4283  0.7279
  665MOL0     C87696  -0.398   1.163  10.109  0.0495  0.4033 -0.6933
  665MOL0     C87697  -0.532   1.189  10.091 -0.3126  0.0326 -0.0191
  665MOL0     N87698  -1.334   1.041   9.900 -0.4625 -0.4658 -0.1392
  665MOL0     N87699  -1.324   1.016   9.769 -0.2124  0.1474  0.2325
  665MOL0     C87700  -0.244   0.842   9.491 -0.9532  0.4902 -0.4922
  665MOL0     C87701  -0.110   0.875   9.468  0.0442  0.4210  0.2065
  665MOL0     C87702   0.280   1.089   9.468 -0.8218 -0.6264 -0.0952
  665MOL0     C87703   0.383   1.041   9.549  0.0481 -0.2552  1.0829
  665MOL0     C87704   0.515   1.077   9.516 -0.3910 -0.5270 -0.3343
  665MOL0     C87705   0.548   1.177   9.425 -0.1308  0.4903  0.4869
  665MOL0     O87706   0.679   1.225   9.397  0.0857 -0.0255 -1.3538
  665MOL0     C87707   0.792   1.165   9.469  0.1661 -0.2920  0.9018
  665MOL0     C87708   0.820   1.231   9.595  0.0995 -0.5768  0.3542
  665MOL0     C87709   0.837   1.378   9.577  0.9723  0.4784 -0.1370
  665MOL0     C87710   0.975   1.421   9.531  0.0825  0.5721 -0.3776
  665MOL0     C87711   1.073   1.365   9.633  0.0563  0.3110  0.1320
  665MOL0     C87712   1.143   1.312   9.716 -0.6661  0.1259  0.2422
  665MOL0     C87713   0.447   1.243   9.357  0.0370 -0.6700 -0.2092
  665MOL0     C87714   0.318   1.197   9.383 -1.1114 -0.2410  0.2746
  665MOL0     H87715   0.008   0.941   9.764 -0.5371  3.3484  0.3198
  665MOL0     H87716  -0.237   0.870   9.830  0.3603 -1.5021  0.3990
  665MOL0     H87717  -0.486   0.639   9.529 -0.3455 -0.4055 -0.0369
  665MOL0     H87718  -0.515   0.806   9.463  0.5903 -1.0441 -0.8816
  665MOL0     H87719  -0.659   0.680   9.693 -3.4302  0.0562  0.2184
  665MOL0     H87720  -0.706   0.664   9.513  0.2590 -1.5910  1.0461
  665MOL0     H87721  -0.679   0.918   9.666  0.7435 -1.8567  1.5628
  665MOL0     H87722  -0.827   0.825   9.664 -0.5239 -0.3904  0.4098
  665MOL0     H87723  -0.687   0.896   9.408  0.9787  0.9037  1.2824
  665MOL0     H87724  -0.846   0.840   9.407  2.7782 -1.3023 -0.6916
  665MOL0     H87725  -0.871   1.096   9.383 -3.5185  1.5757  1.4440
  665MOL0     H87726  -0.798   1.115   9.527  0.6832  1.0898 -2.6286
  665MOL0     H87727  -1.002   0.978   9.622 -0.8594 -2.6190 -1.2654
  665MOL0     H87728  -1.042   0.941   9.457  0.3583  0.0534 -0.6710
  665MOL0     H87729  -1.065   1.233   9.551 -0.5954 -1.7621  1.9038
  665MOL0     H87730  -1.099   1.170   9.392  1.6140  2.6092 -0.1194
  665MOL0     H87731  -1.260   1.010   9.501 -1.9075 -0.4342  0.2033
  665MOL0     H87732  -1.309   1.171   9.511 -0.2039 -1.6395 -1.3561
  665MOL0     H87733  -1.183   1.306   9.768 -0.7047  0.0550 -0.3381
  665MOL0     H87734  -1.262   1.228  10.118  1.4303 -0.6726  1.6502
  665MOL0     H87735  -1.216   1.344   9.987  0.3261 -0.8758 -3.9811
  665MOL0     H87736  -1.065   1.104  10.108  0.0521 -1.5116 -2.1132
  665MOL0     H87737  -1.043   1.276  10.156  1.9340  0.1455 -1.1557
  665MOL0     H87738  -0.963   1.154   9.894 -3.0445  1.6547 -0.5572
  665MOL0     H87739  -0.945   1.325   9.930 -2.9487 -0.0697 -0.0385
  665MOL0     H87740  -0.817   1.103  10.103  2.9467  1.6416  2.7637
  665MOL0     H87741  -0.778   1.273  10.118 -2.3961  0.0129  0.9830
  665MOL0     H87742  -0.533   1.156   9.757 -1.9929 -2.7012  0.1597
  665MOL0     H87743  -0.292   1.131   9.788 -0.3277  2.6767  0.3707
  665MOL0     H87744   0.123   1.085  10.036  1.5166 -2.8178 -1.0819
  665MOL0     H87745   0.325   1.014  10.148  1.4354 -1.1655  0.6609
  665MOL0     H87746   0.505   0.897  10.313 -0.7634 -0.0740 -3.1168
  665MOL0     H87747   0.360   0.793  10.270  0.4806  1.3540 -0.7232
  665MOL0     H87748   0.566   0.792  10.494  0.2082 -0.4422  0.1675
  665MOL0     H87749   0.543   0.673  10.374  1.3574 -0.1110  0.4189
  665MOL0     H87750   0.396   0.550  10.503 -1.0793 -1.5557  3.8050
  665MOL0     H87751   0.299   0.693  10.562 -1.1554 -0.0024  1.4419
  665MOL0     H87752   0.582   0.647  10.663  1.3707  0.9029  4.3782
  665MOL0     H87753   0.447   0.737  10.734 -2.3315 -1.6775  1.4745
  665MOL0     H87754   0.516   0.437  10.747 -0.5960 -1.4783 -1.5982
  665MOL0     H87755   0.349   0.470  10.720 -0.2388 -0.4512  1.0806
  665MOL0     H87756   0.350   0.621  10.931  1.2322  0.0973  1.7473
  665MOL0     H87757   0.506   0.612  10.940 -0.2174  0.7858  0.8541
  665MOL0     H87758   0.276   0.410  10.957  0.2177  1.7689 -1.7265
  665MOL0     H87759   0.443   0.342  10.986 -1.7332 -1.0984 -1.4467
  665MOL0     H87760   0.326   0.387  11.212  0.7280  1.0416  2.6727
  665MOL0     H87761   0.298   0.554  11.148  1.8392  2.1026  1.0997
  665MOL0     H87762   0.120   0.996  10.524  2.2530 -1.6969 -0.2154
  665MOL0     H87763  -0.095   1.059  10.402  0.7039  0.2153  1.6488
  665MOL0     H87764  -0.350   1.171  10.206 -0.6265 -1.9380 -0.1003
  665MOL0     H87765  -0.595   1.200  10.179  1.9743 -3.4017  2.3200
  665MOL0     H87766  -0.315   0.837   9.409  1.8714  1.5957 -3.2203
  665MOL0     H87767  -0.072   0.873   9.366  1.6630  0.6859  0.7778
  665MOL0     H87768   0.357   0.959   9.615  1.2650 -1.2060  0.4315
  665MOL0     H87769   0.583   1.017   9.576 -0.4931  0.1542  0.4862
  665MOL0     H87770   0.882   1.178   9.408 -0.3004  2.1846  0.6655
  665MOL0     H87771   0.772   1.059   9.489 -1.4125  0.0252  1.0817
  665MOL0     H87772   0.738   1.228   9.667  0.6215  0.6916  1.0220
  665MOL0     H87773   0.897   1.170   9.643 -0.2818 -1.9250 -0.6666
  665MOL0     H87774   0.816   1.416   9.678 -0.5011  2.1999 -1.0203
  665MOL0     H87775   0.757   1.419   9.516 -2.4629 -2.2064  2.1840
  665MOL0     H87776   0.998   1.381   9.432 -1.1399 -1.4240  0.1069
  665MOL0     H87777   0.993   1.529   9.525 -2.7024  1.1386  0.3851
  665MOL0     H87778   1.199   1.279   9.802  1.4742  3.4106  0.2649
  665MOL0     H87779   0.467   1.326   9.290  3.3281 -0.3706  0.9600
  665MOL0     H87780   0.232   1.239   9.330 -0.8727 -3.1402 -2.7339
  666MOL0     O87781   6.954   5.037   1.998  0.4883 -0.0509  0.4413
  666MOL0     C87782   6.985   4.925   1.983 -0.1146  0.5565  0.1565
  666MOL0     O87783   6.900   4.821   2.007 -0.6871  0.6178  0.5945
  666MOL0     C87784   6.768   4.822   2.002  1.2061 -0.3711 -0.0420
  666MOL0     C87785   6.700   4.704   2.041  0.2402 -0.0089  0.6183
  666MOL0     C87786   6.560   4.699   2.041 -0.1417  0.4392 -0.5604
  666MOL0     C87787   6.477   4.820   2.020  0.4402 -0.0755  0.4456
  666MOL0     O87788   6.340   4.805   2.031  0.8083  0.1270  0.5350
  666MOL0     C87789   6.254   4.913   2.043  0.2267 -0.7699  0.1222
  666MOL0     C87790   6.104   4.860   2.013 -0.5250 -0.0250  0.6705
  666MOL0     C87791   6.000   4.972   2.040  0.5724  0.2718 -0.7836
  666MOL0     C87792   5.859   4.941   1.986 -0.2523 -0.0252 -0.1583
  666MOL0     C87793   5.764   5.048   2.022 -0.4983  0.6316 -0.7395
  666MOL0     C87794   5.628   5.001   1.974 -1.4009  0.1013 -0.5675
  666MOL0     C87795   5.506   5.077   2.026  0.9855 -0.0640 -0.6710
  666MOL0     C87796   5.370   5.007   2.013 -0.2068  0.3413 -0.3827
  666MOL0     N87797   5.266   5.061   2.107 -0.3916 -0.1338 -0.3558
  666MOL0     C87798   5.215   5.188   2.108 -0.6441  0.3688 -0.7616
  666MOL0     C87799   5.137   5.185   2.224  0.3193 -0.7269  0.2107
  666MOL0     C87800   5.063   5.299   2.285 -0.3615  0.0690  0.8431
  666MOL0     C87801   4.915   5.291   2.259  0.2652 -0.1176  0.2023
  666MOL0     C87802   4.840   5.373   2.359  0.5214  0.5257  1.0386
  666MOL0     C87803   4.691   5.357   2.338  0.3088  0.2326 -0.5284
  666MOL0     O87804   4.664   5.380   2.199  0.6690 -0.8889  0.9599
  666MOL0     C87805   4.547   5.445   2.163  0.7888 -0.3503 -0.7999
  666MOL0     C87806   4.436   5.445   2.253  0.0703 -0.1833  0.2703
  666MOL0     C87807   4.312   5.501   2.216 -0.2349 -0.3435 -0.1642
  666MOL0     C87808   4.304   5.557   2.089  0.8064  0.8934 -0.0429
  666MOL0     C87809   4.166   5.600   2.047 -0.2946 -0.2254 -0.1809
  666MOL0     O87810   4.160   5.633   1.911  0.6010 -0.5068 -0.2601
  666MOL0     C87811   4.042   5.627   1.835 -0.1176 -0.2737 -0.3449
  666MOL0     C87812   3.905   5.639   1.878 -0.7808  0.3230  0.4619
  666MOL0     C87813   3.801   5.625   1.786  0.1592  0.6712  0.0458
  666MOL0     C87814   3.829   5.610   1.648 -0.6477  0.0594  0.5275
  666MOL0     O87815   3.718   5.597   1.576  0.9603  0.5824  0.0930
  666MOL0     C87816   3.725   5.571   1.439  0.7977 -0.2904  0.1796
  666MOL0     C87817   3.587   5.532   1.388  0.5182 -0.6260  0.4251
  666MOL0     C87818   3.484   5.640   1.403 -0.2323  0.1387 -0.2274
  666MOL0     C87819   3.345   5.600   1.358 -1.1347 -0.4494 -0.6192
  666MOL0     C87820   3.282   5.511   1.471  0.1557 -1.0521  0.0668
  666MOL0     C87821   3.138   5.504   1.439  0.5366  0.1062 -0.2623
  666MOL0     C87822   3.063   5.635   1.457  0.0981 -0.1794  0.3624
  666MOL0     C87823   2.912   5.649   1.448  0.0212 -1.0976  0.2666
  666MOL0    Cl87824   2.861   5.547   1.315  0.0665  0.5254 -0.2594
  666MOL0     C87825   3.963   5.610   1.605 -0.1441 -0.3578 -0.7912
  666MOL0     C87826   4.063   5.616   1.699  0.0399  0.2120  0.0382
  666MOL0     O87827   4.069   5.594   2.122 -0.4464 -0.5006  0.7418
  666MOL0     C87828   4.416   5.558   2.002  0.3315  0.3015 -0.3413
  666MOL0     C87829   4.539   5.506   2.037 -0.2709  0.1029  0.9767
  666MOL0     N87830   5.130   5.067   2.279  0.1498  0.5645  0.1645
  666MOL0     N87831   5.199   4.987   2.200  0.1246  0.4720 -0.4628
  666MOL0     C87832   6.543   4.932   1.974  0.6688  0.3555 -0.2702
  666MOL0     C87833   6.684   4.927   1.952 -0.0234  0.4475 -0.4646
  666MOL0     C87834   7.128   4.905   1.955 -0.4825  0.0226 -0.9101
  666MOL0     C87835   7.178   4.783   1.923  1.1381  1.4644 -0.3014
  666MOL0     C87836   7.308   4.758   1.907 -0.6088  0.0838 -0.2946
  666MOL0     C87837   7.408   4.859   1.915 -0.3755  0.3712 -0.3536
  666MOL0     O87838   7.538   4.824   1.888 -0.3636 -1.0752  0.2759
  666MOL0     C87839   7.645   4.923   1.888 -0.0668 -0.1814 -0.0824
  666MOL0     C87840   7.761   4.832   1.849 -0.1073 -0.6781  0.1645
  666MOL0     C87841   7.887   4.915   1.832  0.5894 -0.0325 -0.4457
  666MOL0     C87842   8.002   4.820   1.801 -0.1874  0.3722  0.3415
  666MOL0     C87843   8.126   4.886   1.757  0.2817  0.3864 -0.4461
  666MOL0     C87844   8.221   4.948   1.744  0.3409 -1.0257  0.3005
  666MOL0     C87845   7.358   4.987   1.950 -0.9072 -0.2666  0.4119
  666MOL0     C87846   7.217   5.012   1.966 -0.8762  0.5030  0.2003
  666MOL0     H87847   6.761   4.622   2.076 -2.2091 -1.0156  2.9131
  666MOL0     H87848   6.521   4.604   2.076  2.9614 -0.8139 -0.2192
  666MOL0     H87849   6.270   4.993   1.970 -0.3649 -1.4563 -0.7839
  666MOL0     H87850   6.265   4.965   2.138  2.1489 -0.4686 -0.2226
  666MOL0     H87851   6.094   4.774   2.078 -1.9601  0.0882  0.6424
  666MOL0     H87852   6.105   4.825   1.909  3.5545 -2.7350  1.4044
  666MOL0     H87853   6.032   5.072   2.010 -2.1827  2.1314  1.8227
  666MOL0     H87854   5.997   4.967   2.149  0.1821 -1.1407 -0.8473
  666MOL0     H87855   5.861   4.926   1.877  3.4330 -1.0421 -0.0977
  666MOL0     H87856   5.812   4.853   2.029 -2.6213  1.7298  1.0177
  666MOL0     H87857   5.791   5.137   1.964  0.7241  0.0261 -1.1178
  666MOL0     H87858   5.759   5.071   2.129 -2.3676 -1.2527 -0.3616
  666MOL0     H87859   5.605   4.899   2.005  0.1221  0.3878  1.7305
  666MOL0     H87860   5.630   5.013   1.865  1.9642  1.0092 -0.4970
  666MOL0     H87861   5.520   5.102   2.131 -2.2551 -2.9578  0.6725
  666MOL0     H87862   5.487   5.170   1.973  2.1256 -0.3344 -1.6092
  666MOL0     H87863   5.380   4.900   2.035  1.9604  1.0800  3.0679
  666MOL0     H87864   5.335   5.017   1.910 -2.9017 -0.0199  0.4263
  666MOL0     H87865   5.228   5.279   2.052 -1.0283  1.1541  0.3877
  666MOL0     H87866   5.092   5.393   2.238 -3.3940  0.4116 -0.5809
  666MOL0     H87867   5.083   5.291   2.392  3.0938  0.1093  0.3053
  666MOL0     H87868   4.886   5.185   2.263 -0.4485  0.1031  3.2810
  666MOL0     H87869   4.889   5.317   2.156 -0.5369  1.0844  0.6855
  666MOL0     H87870   4.877   5.351   2.460  1.7708  4.5773  1.6349
  666MOL0     H87871   4.874   5.476   2.350  3.3391 -0.3798  0.3756
  666MOL0     H87872   4.641   5.426   2.406 -2.1223 -0.7724 -1.1819
  666MOL0     H87873   4.653   5.261   2.376  3.4981  0.3732  3.7599
  666MOL0     H87874   4.439   5.376   2.337  1.5792 -3.6041 -2.3625
  666MOL0     H87875   4.225   5.497   2.279 -0.5993  0.4944 -0.6006
  666MOL0     H87876   3.885   5.663   1.981  0.9240 -0.2994  0.9677
  666MOL0     H87877   3.699   5.621   1.823 -0.3881  1.0296 -1.3524
  666MOL0     H87878   3.784   5.481   1.423  0.0661 -1.5925  3.8327
  666MOL0     H87879   3.756   5.659   1.382  0.8344 -0.0046  0.6394
  666MOL0     H87880   3.554   5.439   1.436 -0.8674 -0.2878  0.1681
  666MOL0     H87881   3.588   5.508   1.281 -0.0139 -0.4456  0.3784
  666MOL0     H87882   3.513   5.719   1.333  1.5159 -2.5417 -2.7394
  666MOL0     H87883   3.477   5.675   1.507  2.0498  0.8071 -0.2506
  666MOL0     H87884   3.301   5.700   1.348 -0.4372  0.0418  0.8750
  666MOL0     H87885   3.359   5.548   1.264  0.3151 -0.3656 -0.4736
  666MOL0     H87886   3.291   5.556   1.570  0.4365 -2.4122  0.6759
  666MOL0     H87887   3.330   5.413   1.470  4.6369  0.8308  2.3494
  666MOL0     H87888   3.091   5.435   1.509  2.8428  1.2591  2.6573
  666MOL0     H87889   3.120   5.460   1.341  0.7774 -0.3966 -0.0857
  666MOL0     H87890   3.091   5.667   1.558  3.1638  0.1127 -0.4837
  666MOL0     H87891   3.108   5.714   1.396  2.4114 -0.3376  1.7212
  666MOL0     H87892   2.882   5.753   1.431 -0.8819 -0.8983  2.8101
  666MOL0     H87893   2.861   5.619   1.539 -3.5023 -0.3448 -1.3061
  666MOL0     H87894   3.975   5.617   1.497 -0.1142 -1.1993 -0.8433
  666MOL0     H87895   4.165   5.618   1.660 -0.2016 -1.0618 -0.7237
  666MOL0     H87896   4.414   5.605   1.905 -1.2324 -1.0000 -0.9867
  666MOL0     H87897   4.625   5.519   1.973 -0.1834  0.7863  1.2185
  666MOL0     H87898   6.490   5.024   1.955  1.1443  0.8481  0.6954
  666MOL0     H87899   6.737   5.013   1.912  6.9664 -0.4451  4.9718
  666MOL0     H87900   7.103   4.707   1.909 -1.1026  3.3998  0.5103
  666MOL0     H87901   7.332   4.657   1.878 -0.2546  0.3768 -1.0527
  666MOL0     H87902   7.659   4.972   1.985 -1.3262  2.2664 -1.0621
  666MOL0     H87903   7.630   5.008   1.821  0.8751  2.4207  2.7838
  666MOL0     H87904   7.768   4.753   1.924  0.1325 -0.3704  0.4651
  666MOL0     H87905   7.737   4.780   1.756  0.7994  1.3918 -1.3120
  666MOL0     H87906   7.906   4.984   1.914 -0.0573  0.2703 -0.5462
  666MOL0     H87907   7.870   4.982   1.747 -0.4644  3.8648  2.5328
  666MOL0     H87908   8.023   4.782   1.902  1.7312  2.1160  0.6575
  666MOL0     H87909   7.964   4.740   1.736 -2.2693 -2.0679  4.1590
  666MOL0     H87910   8.309   5.007   1.731 -0.2987 -0.7242 -4.3089
  666MOL0     H87911   7.415   5.079   1.959  2.2297 -2.0906  0.6098
  666MOL0     H87912   7.170   5.110   1.966 -2.2938 -0.0545 -2.6719
  667MOL0     O87913   5.062   5.922   7.896  0.0480 -0.7019  0.0552
  667MOL0     C87914   5.070   5.965   7.777  1.3329  0.1973  0.0933
  667MOL0     O87915   4.960   5.976   7.695 -0.2070 -0.6634  0.3262
  667MOL0     C87916   4.831   5.961   7.744  1.1923  0.0753 -0.2352
  667MOL0     C87917   4.767   6.059   7.825  0.0646 -0.5568 -1.3101
  667MOL0     C87918   4.631   6.051   7.860  1.1577 -0.4102 -0.0375
  667MOL0     C87919   4.555   5.937   7.815 -0.8999  0.4241 -1.2230
  667MOL0     O87920   4.413   5.924   7.828  0.3676  0.7416  0.3224
  667MOL0     C87921   4.353   5.998   7.930  0.4024  0.4006  0.7144
  667MOL0     C87922   4.203   5.981   7.922  0.3685  0.3485  0.5243
  667MOL0     C87923   4.139   5.964   8.050  0.1649  0.2845  0.4571
  667MOL0     C87924   3.977   5.930   8.036 -0.0360  0.4835 -0.8401
  667MOL0     C87925   3.954   5.779   8.007 -1.4289  0.0254  1.0578
  667MOL0     C87926   3.802   5.740   8.012 -0.0647 -0.3684 -0.1631
  667MOL0     C87927   3.722   5.804   7.903  0.8699 -0.0281  0.5238
  667MOL0     C87928   3.570   5.777   7.889 -0.4106 -0.7925 -1.0673
  667MOL0     N87929   3.489   5.847   7.990  0.2576  0.0437  0.4403
  667MOL0     C87930   3.374   5.912   7.953  0.7468  0.2720 -0.3926
  667MOL0     C87931   3.324   5.959   8.067  0.1502 -0.5404  0.3868
  667MOL0     C87932   3.188   6.016   8.103  0.0418 -0.5908 -0.1311
  667MOL0     C87933   3.094   5.901   8.071 -0.3106  0.1269  0.2864
  667MOL0     C87934   2.951   5.957   8.066  0.1934 -0.1465  0.3441
  667MOL0     C87935   2.850   5.850   8.080  0.3404  0.5435  0.0877
  667MOL0     O87936   2.716   5.901   8.081  0.6535  0.1766  0.2039
  667MOL0     C87937   2.617   5.814   8.063 -0.4971 -0.3557 -0.6445
  667MOL0     C87938   2.617   5.698   7.983 -0.3795  0.0687  0.0329
  667MOL0     C87939   2.505   5.619   7.970 -0.0164  0.2131  0.8016
  667MOL0     C87940   2.379   5.662   8.020  0.4265  0.5550  0.5186
  667MOL0     C87941   2.254   5.589   7.989 -1.1705  1.2040 -0.7464
  667MOL0     O87942   2.137   5.659   7.979  0.3960  1.0673  0.4332
  667MOL0     C87943   2.014   5.600   8.005  0.3413  0.1274 -0.5910
  667MOL0     C87944   1.899   5.667   7.960 -0.2440 -0.9560 -0.0195
  667MOL0     C87945   1.772   5.614   7.964 -0.8298  0.3374 -0.1104
  667MOL0     C87946   1.753   5.483   8.013 -0.1860 -0.7225  0.2504
  667MOL0     O87947   1.633   5.421   7.993 -0.3093 -0.2005  0.0128
  667MOL0     C87948   1.590   5.317   8.085  0.9485 -0.4001  0.3737
  667MOL0     C87949   1.437   5.308   8.081 -0.6836 -0.2517 -0.3156
  667MOL0     C87950   1.374   5.199   8.165 -1.5729 -0.4467  0.1717
  667MOL0     C87951   1.230   5.179   8.119  0.0919  0.6097  0.5470
  667MOL0     C87952   1.143   5.276   8.198 -0.4607  0.2007  0.0219
  667MOL0     C87953   0.995   5.269   8.185 -0.2634 -0.0888  0.5891
  667MOL0     C87954   0.923   5.316   8.306  0.4860 -0.2613 -0.5868
  667MOL0     C87955   0.770   5.295   8.300  0.9960  0.2797  0.3246
  667MOL0    Cl87956   0.696   5.342   8.142 -0.0974  0.5694  0.5979
  667MOL0     C87957   1.874   5.420   8.077 -0.0308 -0.5027 -0.6128
  667MOL0     C87958   1.995   5.482   8.078  0.5091  0.4284 -0.4072
  667MOL0     O87959   2.266   5.470   7.994  0.0128 -0.4315 -0.4559
  667MOL0     C87960   2.382   5.788   8.093  0.1822 -0.3324  0.7960
  667MOL0     C87961   2.494   5.861   8.116 -0.3419  0.9311 -0.0000
  667MOL0     N87962   3.413   5.931   8.172  0.9819  0.2145  0.3105
  667MOL0     N87963   3.513   5.865   8.122  0.3349 -0.2182 -0.2729
  667MOL0     C87964   4.622   5.831   7.759  0.9545  0.1016 -0.1804
  667MOL0     C87965   4.754   5.838   7.724  0.0133 -0.1992 -0.1604
  667MOL0     C87966   5.202   6.005   7.724  0.8167 -0.3285 -0.0264
  667MOL0     C87967   5.313   5.970   7.801 -0.0224  0.3254  0.0203
  667MOL0     C87968   5.440   5.990   7.760 -0.9972 -0.0941 -0.3307
  667MOL0     C87969   5.459   6.030   7.627  0.5659  1.0131 -0.2543
  667MOL0     O87970   5.578   6.053   7.572  0.0122  0.0620  0.0026
  667MOL0     C87971   5.699   6.001   7.614 -0.1871  0.4491 -0.4310
  667MOL0     C87972   5.820   6.041   7.536  0.8268  0.8618 -0.4805
  667MOL0     C87973   5.834   6.196   7.503  0.1045  0.4806 -0.6037
  667MOL0     C87974   5.957   6.243   7.431  0.2920 -0.1126  0.1340
  667MOL0     C87975   6.083   6.239   7.501 -1.0677  0.3484  1.3846
  667MOL0     C87976   6.178   6.240   7.572  0.2830  0.0822 -0.5150
  667MOL0     C87977   5.348   6.062   7.547 -0.1024  0.0528 -1.2863
  667MOL0     C87978   5.222   6.055   7.596 -0.0667  0.4804  0.5110
  667MOL0     H87979   4.817   6.153   7.843 -1.9725  0.4462 -0.5341
  667MOL0     H87980   4.589   6.137   7.912 -0.4732 -1.7572  0.9724
  667MOL0     H87981   4.384   6.102   7.929 -0.8048  0.7695  0.1093
  667MOL0     H87982   4.377   5.947   8.024 -0.9137  0.1087  0.9160
  667MOL0     H87983   4.194   5.883   7.876 -0.1350 -0.4556  2.2529
  667MOL0     H87984   4.156   6.053   7.854  2.4492  0.4326 -0.9242
  667MOL0     H87985   4.150   6.056   8.108 -3.0920 -0.1124  1.9162
  667MOL0     H87986   4.190   5.879   8.098  0.2842 -0.8118 -1.4781
  667MOL0     H87987   3.920   5.964   8.123 -1.2011 -1.8020 -0.6349
  667MOL0     H87988   3.933   5.988   7.954 -0.5620  0.7417 -0.3867
  667MOL0     H87989   4.007   5.713   8.076  1.5718 -1.6458 -2.4497
  667MOL0     H87990   3.994   5.751   7.909 -1.7754 -0.7724  1.1380
  667MOL0     H87991   3.764   5.774   8.109  2.6472  1.6039  0.3190
  667MOL0     H87992   3.803   5.631   8.011  1.4336 -0.3849  0.6403
  667MOL0     H87993   3.739   5.908   7.931  1.0361  1.1841 -3.5135
  667MOL0     H87994   3.764   5.789   7.803  2.9486  0.7675  1.2335
  667MOL0     H87995   3.549   5.670   7.891  1.7319 -1.2538  1.7310
  667MOL0     H87996   3.539   5.825   7.795 -2.4412  0.6529  0.2442
  667MOL0     H87997   3.323   5.903   7.858 -3.4706  0.3169  1.6369
  667MOL0     H87998   3.169   6.101   8.036  1.5418 -2.5846 -3.3539
  667MOL0     H87999   3.193   6.051   8.206  0.0537  0.7929 -0.5791
  667MOL0     H88000   3.099   5.816   8.140 -2.8642 -0.3237  0.0216
  667MOL0     H88001   3.107   5.854   7.973  2.4861  0.2314  0.5414
  667MOL0     H88002   2.931   6.037   8.138  2.6864  0.1972  0.7292
  667MOL0     H88003   2.944   6.004   7.967  1.8990  0.7095  0.5939
  667MOL0     H88004   2.862   5.790   8.171 -1.2011  1.2797  0.8111
  667MOL0     H88005   2.866   5.775   8.001 -1.6892 -2.2175  2.0945
  667MOL0     H88006   2.710   5.664   7.937  0.8566  3.6361 -0.3978
  667MOL0     H88007   2.493   5.524   7.919 -0.6314  2.0026 -2.6984
  667MOL0     H88008   1.907   5.763   7.911 -0.3635 -0.6022  0.6449
  667MOL0     H88009   1.690   5.673   7.925 -1.5970  0.7338  1.9856
  667MOL0     H88010   1.623   5.345   8.185  0.8707 -0.1902  0.3407
  667MOL0     H88011   1.638   5.222   8.062  2.8836  0.5732  0.1902
  667MOL0     H88012   1.415   5.297   7.974 -2.2331 -2.1447  0.1508
  667MOL0     H88013   1.399   5.407   8.109 -0.1865 -0.0817 -0.2304
  667MOL0     H88014   1.383   5.234   8.268  2.1371  0.2830 -0.2852
  667MOL0     H88015   1.432   5.107   8.154  2.4112  1.7649  0.7416
  667MOL0     H88016   1.235   5.191   8.010 -1.7432 -1.7735  0.1036
  667MOL0     H88017   1.202   5.076   8.144 -1.3130  0.3462 -1.7565
  667MOL0     H88018   1.176   5.380   8.197  0.7612 -0.1643  0.2841
  667MOL0     H88019   1.168   5.239   8.298  0.3685 -2.9481 -1.2294
  667MOL0     H88020   0.967   5.168   8.153 -2.5054  1.1881 -1.9212
  667MOL0     H88021   0.971   5.331   8.098  3.0845 -2.8612 -2.6577
  667MOL0     H88022   0.975   5.278   8.394  2.4015  1.5353 -0.8567
  667MOL0     H88023   0.935   5.424   8.322 -0.4349 -0.3527  0.8513
  667MOL0     H88024   0.715   5.354   8.375  0.6122  1.6095 -0.9458
  667MOL0     H88025   0.751   5.188   8.314  1.2911  0.1655 -0.1582
  667MOL0     H88026   1.879   5.319   8.116 -1.6353 -0.4098 -0.1218
  667MOL0     H88027   2.079   5.421   8.112  0.9489  0.4207 -1.4811
  667MOL0     H88028   2.289   5.827   8.134 -1.5349 -0.7931 -2.3138
  667MOL0     H88029   2.497   5.952   8.174 -1.4917  1.8068 -1.2484
  667MOL0     H88030   4.568   5.741   7.732  0.2849 -0.8255  3.7258
  667MOL0     H88031   4.813   5.762   7.674  2.7643  2.4659 -1.3133
  667MOL0     H88032   5.310   5.923   7.899  1.9597 -1.3776 -0.6540
  667MOL0     H88033   5.513   5.975   7.838 -2.8647 -1.7229  1.1908
  667MOL0     H88034   5.700   5.892   7.625  1.4282  0.6089  1.6427
  667MOL0     H88035   5.720   6.035   7.716 -2.7922 -1.3318  0.8089
  667MOL0     H88036   5.915   6.009   7.580  1.4831  1.8627 -1.0963
  667MOL0     H88037   5.818   5.978   7.447  1.8910 -1.1450  0.8396
  667MOL0     H88038   5.817   6.251   7.596 -1.2985 -0.6730 -0.1405
  667MOL0     H88039   5.758   6.209   7.425 -0.2041  0.5665 -0.2921
  667MOL0     H88040   5.960   6.190   7.336 -0.9633  1.3424 -0.7828
  667MOL0     H88041   5.951   6.352   7.416 -0.0895 -0.1176  0.2301
  667MOL0     H88042   6.269   6.230   7.627 -1.2372  0.0360  2.1990
  667MOL0     H88043   5.368   6.104   7.449  2.3697  2.3019  0.0466
  667MOL0     H88044   5.133   6.078   7.538 -0.7358  0.4109  1.4831
  668MOL0     O88045   1.022   2.700   9.976  0.4274  1.2836 -0.4362
  668MOL0     C88046   0.973   2.745   9.872 -0.6267  0.9025 -0.0008
  668MOL0     O88047   1.021   2.841   9.797 -0.8053  0.0808 -0.1528
  668MOL0     C88048   1.121   2.918   9.834  0.7406 -0.0998  0.2821
  668MOL0     C88049   1.197   2.962   9.729 -0.2002 -0.2060  0.3205
  668MOL0     C88050   1.298   3.065   9.747 -0.2635 -0.2988 -0.0671
  668MOL0     C88051   1.322   3.112   9.871  0.3010  0.4013  0.5543
  668MOL0     O88052   1.428   3.202   9.894  0.3505 -0.1950  0.7357
  668MOL0     C88053   1.531   3.145   9.970 -0.5619 -0.2130  0.2462
  668MOL0     C88054   1.642   3.235  10.011  0.3017 -0.8979  0.0005
  668MOL0     C88055   1.742   3.291   9.912  0.2771 -0.1834  0.8476
  668MOL0     C88056   1.808   3.178   9.824 -0.1097 -0.4137 -0.1830
  668MOL0     C88057   1.919   3.240   9.738  0.0835  0.2040  0.3723
  668MOL0     C88058   2.032   3.293   9.820 -0.5023  0.5794 -0.5380
  668MOL0     C88059   2.143   3.357   9.731  1.0114 -0.9849  0.9652
  668MOL0     C88060   2.271   3.372   9.812  0.2166  0.7939  0.3618
  668MOL0     N88061   2.342   3.249   9.789  0.3902  0.3787 -0.4745
  668MOL0     C88062   2.318   3.127   9.852 -0.8393  0.6156 -0.4057
  668MOL0     C88063   2.413   3.040   9.802 -0.0168  0.5149 -0.1443
  668MOL0     C88064   2.430   2.892   9.830 -0.3106 -0.0954  0.2331
  668MOL0     C88065   2.322   2.804   9.765  0.0930  0.1473 -0.5530
  668MOL0     C88066   2.333   2.786   9.611  0.7863  0.4104  0.1898
  668MOL0     C88067   2.469   2.771   9.542  0.3132 -0.2116 -0.1243
  668MOL0     O88068   2.450   2.713   9.410  0.7392 -0.1963 -1.0880
  668MOL0     C88069   2.530   2.748   9.306  0.0990  0.0652  1.1601
  668MOL0     C88070   2.483   2.735   9.172 -0.4434 -0.7052 -0.1195
  668MOL0     C88071   2.553   2.756   9.056  0.6330  0.2358 -0.3195
  668MOL0     C88072   2.686   2.806   9.075  0.9497 -0.0688 -0.3745
  668MOL0     C88073   2.787   2.837   8.963  0.7541  0.4805  0.7065
  668MOL0     O88074   2.914   2.880   9.002 -0.4877  0.2397 -1.1248
  668MOL0     C88075   2.994   2.925   8.899  0.0222 -0.4054 -0.3682
  668MOL0     C88076   3.114   2.866   8.884  0.2506 -0.9624 -0.0207
  668MOL0     C88077   3.204   2.921   8.794 -0.7381 -0.5611 -0.3721
  668MOL0     C88078   3.168   3.016   8.697  0.2475 -0.0228 -0.4796
  668MOL0     O88079   3.247   3.069   8.604 -0.4614 -0.4905 -0.5908
  668MOL0     C88080   3.367   2.995   8.558 -0.8678  0.1377 -0.0192
  668MOL0     C88081   3.378   3.012   8.405 -0.4980 -0.8011 -0.6952
  668MOL0     C88082   3.506   2.943   8.353 -0.8142  0.2341  0.2186
  668MOL0     C88083   3.492   2.914   8.205 -0.7662 -0.5096 -0.4019
  668MOL0     C88084   3.616   2.833   8.164  0.5190  0.5449  0.0073
  668MOL0     C88085   3.615   2.785   8.019 -0.6305 -0.5513 -0.2971
  668MOL0     C88086   3.747   2.719   7.993 -0.8381  0.2806 -0.0860
  668MOL0     C88087   3.765   2.593   8.077  0.4155  0.1596  0.9622
  668MOL0    Cl88088   3.906   2.508   8.033 -0.1211 -0.2357 -0.1519
  668MOL0     C88089   3.042   3.065   8.707 -0.1353 -0.6836 -0.0978
  668MOL0     C88090   2.960   3.027   8.808  0.0064  0.2290  0.5904
  668MOL0     O88091   2.736   2.834   8.850 -0.4590 -0.0228  0.6888
  668MOL0     C88092   2.732   2.841   9.205  0.0450  0.5100 -0.9765
  668MOL0     C88093   2.653   2.799   9.315  0.5585  0.8914  0.2946
  668MOL0     N88094   2.500   3.116   9.725 -1.3446  0.8528 -0.3748
  668MOL0     N88095   2.451   3.233   9.712  0.3380 -0.2032 -0.6076
  668MOL0     C88096   1.255   3.052   9.981 -0.1600  0.1316 -0.1678
  668MOL0     C88097   1.150   2.963   9.966  0.6832 -0.0295 -0.7924
  668MOL0     C88098   0.852   2.685   9.816 -0.0896  0.1298 -0.0932
  668MOL0     C88099   0.830   2.672   9.677 -0.8161  0.5590 -0.2477
  668MOL0     C88100   0.713   2.625   9.622  0.6174 -0.0201 -0.0795
  668MOL0     C88101   0.611   2.585   9.702  0.1127 -0.0645  0.4088
  668MOL0     O88102   0.492   2.540   9.637 -0.0968  0.2678 -0.7024
  668MOL0     C88103   0.375   2.493   9.719  0.0411 -1.0223 -0.6685
  668MOL0     C88104   0.261   2.498   9.627  0.5985 -0.7438 -1.3367
  668MOL0     C88105   0.250   2.394   9.521 -0.2224 -0.2880 -0.1741
  668MOL0     C88106   0.147   2.445   9.410 -0.8950  0.1231  0.2324
  668MOL0     C88107   0.198   2.553   9.322 -0.8244 -0.5393  0.0164
  668MOL0     C88108   0.221   2.662   9.274 -0.4146 -0.5752  0.4152
  668MOL0     C88109   0.632   2.604   9.841  0.1794 -0.0677  0.5027
  668MOL0     C88110   0.747   2.654   9.894 -1.4063  0.7818 -0.3615
  668MOL0     H88111   1.172   2.939   9.626 -0.7675  1.0916  0.1385
  668MOL0     H88112   1.352   3.113   9.666  1.0320 -1.9701 -0.2428
  668MOL0     H88113   1.581   3.072   9.906 -0.6765 -0.0384 -0.0467
  668MOL0     H88114   1.488   3.086  10.051  1.2162  2.9693  3.8224
  668MOL0     H88115   1.701   3.178  10.084  1.5778  2.3498  1.7207
  668MOL0     H88116   1.595   3.316  10.067  0.6493 -0.9366  0.3512
  668MOL0     H88117   1.823   3.344   9.964  0.1517  0.2124  0.6457
  668MOL0     H88118   1.698   3.360   9.840  0.3589 -1.0621 -0.0652
  668MOL0     H88119   1.842   3.096   9.887  1.9712  2.3419  2.5445
  668MOL0     H88120   1.733   3.144   9.752 -1.9492 -2.9059  2.6640
  668MOL0     H88121   1.884   3.321   9.673  0.4320  0.4386  0.4750
  668MOL0     H88122   1.962   3.157   9.682 -0.7242 -0.2770  0.4447
  668MOL0     H88123   2.062   3.201   9.871  4.5702  2.8042  1.1897
  668MOL0     H88124   2.001   3.364   9.897  2.1483 -0.5387  1.7353
  668MOL0     H88125   2.164   3.301   9.639  2.0988 -2.7093  2.1965
  668MOL0     H88126   2.109   3.458   9.707  3.1694 -0.0028  1.7733
  668MOL0     H88127   2.261   3.392   9.919 -1.8241 -1.3925  0.6704
  668MOL0     H88128   2.330   3.451   9.766 -1.0203  0.3442 -2.1393
  668MOL0     H88129   2.246   3.109   9.931  0.4204 -0.9029  0.4676
  668MOL0     H88130   2.443   2.885   9.939  0.4250  1.9683  0.3223
  668MOL0     H88131   2.532   2.861   9.807  0.3935  1.3827  1.2131
  668MOL0     H88132   2.225   2.850   9.784 -1.0303 -0.0144 -4.8936
  668MOL0     H88133   2.326   2.704   9.808  0.1893 -0.8748 -2.8030
  668MOL0     H88134   2.278   2.696   9.582  1.9209 -0.3509  0.3226
  668MOL0     H88135   2.284   2.877   9.575  3.3766  2.2827  1.1072
  668MOL0     H88136   2.518   2.696   9.606 -0.7870  2.2623  3.9317
  668MOL0     H88137   2.532   2.861   9.544  1.5358 -1.0289 -0.3713
  668MOL0     H88138   2.377   2.715   9.160 -0.8940  1.1299  0.4019
  668MOL0     H88139   2.514   2.744   8.955  0.1964 -0.7858 -0.0406
  668MOL0     H88140   3.149   2.788   8.952  1.6179 -0.7114 -0.4100
  668MOL0     H88141   3.304   2.879   8.785 -0.2318  0.1986  1.2701
  668MOL0     H88142   3.374   2.889   8.585  3.0571  1.0949  4.0392
  668MOL0     H88143   3.456   3.040   8.603 -1.1934 -1.3258  2.2852
  668MOL0     H88144   3.379   3.120   8.386  0.7015 -0.8125 -0.7817
  668MOL0     H88145   3.293   2.958   8.363 -0.9553 -0.1725 -0.5960
  668MOL0     H88146   3.509   2.845   8.402 -0.0317  0.1263 -0.0303
  668MOL0     H88147   3.603   2.991   8.368 -1.2102  1.9336 -2.0152
  668MOL0     H88148   3.401   2.856   8.189 -0.9493  0.1126 -1.7075
  668MOL0     H88149   3.486   3.001   8.139  4.1686  0.8232  0.5198
  668MOL0     H88150   3.605   2.743   8.226  1.4192 -0.8675 -1.7676
  668MOL0     H88151   3.709   2.878   8.197  0.1205  0.7836  0.8193
  668MOL0     H88152   3.594   2.861   7.944 -2.1973 -3.3075 -2.8901
  668MOL0     H88153   3.533   2.713   8.005 -1.0398 -0.7094  2.3704
  668MOL0     H88154   3.759   2.692   7.888 -1.1362  0.4024 -0.1538
  668MOL0     H88155   3.829   2.786   8.020 -1.3974  1.4016 -1.0662
  668MOL0     H88156   3.680   2.526   8.065  0.7665 -0.3447  1.2686
  668MOL0     H88157   3.785   2.616   8.182  1.8628  1.4214  0.4536
  668MOL0     H88158   3.014   3.132   8.627  0.8764 -0.0161  0.1006
  668MOL0     H88159   2.868   3.084   8.812 -0.6072 -0.7926  1.1920
  668MOL0     H88160   2.835   2.872   9.219  0.3880  0.3522 -2.9646
  668MOL0     H88161   2.686   2.835   9.412 -1.2155 -1.2001  1.7812
  668MOL0     H88162   1.287   3.082  10.081 -1.2463  0.6752  0.0229
  668MOL0     H88163   1.097   2.914  10.047 -0.5839  1.4320 -0.6799
  668MOL0     H88164   0.913   2.704   9.614 -2.1271  1.0437 -1.7907
  668MOL0     H88165   0.701   2.625   9.514 -5.4485 -2.6899  0.1551
  668MOL0     H88166   0.351   2.557   9.804  3.4852  2.2973 -1.9047
  668MOL0     H88167   0.386   2.390   9.754 -0.4473 -0.2574  1.8737
  668MOL0     H88168   0.169   2.503   9.687  3.3665  1.9077  3.2851
  668MOL0     H88169   0.269   2.597   9.582 -0.0549 -0.2174 -0.3511
  668MOL0     H88170   0.221   2.294   9.555  2.8842 -2.1849 -2.5349
  668MOL0     H88171   0.348   2.371   9.477  0.1518 -0.0194  0.5030
  668MOL0     H88172   0.129   2.365   9.338  3.9255  1.1623 -2.5410
  668MOL0     H88173   0.046   2.470   9.442 -0.1211  0.3578  2.6677
  668MOL0     H88174   0.244   2.756   9.229  1.3206 -0.9975  0.3343
  668MOL0     H88175   0.568   2.552   9.912 -0.5398  0.6136  0.3722
  668MOL0     H88176   0.765   2.646  10.001  0.2184 -0.3309 -0.6831
  669MOL0     O88177  10.124   9.109   5.520 -0.2143 -0.2999 -0.1023
  669MOL0     C88178  10.134   9.008   5.593  1.2825  0.6889  0.2091
  669MOL0     O88179  10.031   8.930   5.643 -0.4109 -0.3311  0.0541
  669MOL0     C88180   9.900   8.952   5.598 -1.1307  0.2257  0.1119
  669MOL0     C88181   9.853   9.030   5.490 -0.0357 -0.3102  0.1252
  669MOL0     C88182   9.716   9.026   5.459  0.3840  0.0602 -0.0769
  669MOL0     C88183   9.619   8.952   5.530 -0.8959  0.0431  0.1049
  669MOL0     O88184   9.488   8.936   5.498 -0.8963  0.1210  0.4142
  669MOL0     C88185   9.420   9.047   5.430  0.0757 -0.2589 -0.3563
  669MOL0     C88186   9.267   9.014   5.414 -0.7446  0.1036 -0.2756
  669MOL0     C88187   9.211   8.968   5.542 -0.2033  0.3696  0.6538
  669MOL0     C88188   9.062   8.951   5.536  0.2337 -0.2520  0.4224
  669MOL0     C88189   8.994   8.933   5.672  0.1397 -0.4500 -0.5093
  669MOL0     C88190   8.870   8.856   5.659 -0.7455 -0.3521  0.2775
  669MOL0     C88191   8.833   8.821   5.801  0.9787  0.1523  0.5263
  669MOL0     C88192   8.700   8.754   5.811 -0.5008  0.4767  0.5580
  669MOL0     N88193   8.599   8.838   5.742  0.7682 -0.2189 -0.1460
  669MOL0     C88194   8.491   8.800   5.671  1.3888 -0.3444  0.1271
  669MOL0     C88195   8.397   8.894   5.688  0.0029 -0.3467 -0.6045
  669MOL0     C88196   8.255   8.872   5.653 -0.1293  0.0242  0.0679
  669MOL0     C88197   8.170   8.794   5.765  0.2429 -0.5224  0.5301
  669MOL0     C88198   8.021   8.792   5.717 -0.5081 -0.8595  0.7328
  669MOL0     C88199   7.929   8.713   5.805  0.8971  0.0372 -0.2803
  669MOL0     O88200   7.799   8.717   5.748  0.1752  0.1237 -0.7127
  669MOL0     C88201   7.691   8.659   5.800 -0.0485 -0.2939 -0.4839
  669MOL0     C88202   7.698   8.588   5.929 -0.0016 -0.6002 -0.7409
  669MOL0     C88203   7.589   8.540   5.996  0.2223  0.2975  0.2556
  669MOL0     C88204   7.461   8.555   5.942  0.0564  0.1410 -0.7704
  669MOL0     C88205   7.341   8.492   6.000 -0.5985 -0.7622  0.1199
  669MOL0     O88206   7.215   8.505   5.944 -0.9812 -0.2217  0.4594
  669MOL0     C88207   7.108   8.436   5.990 -0.1684 -0.8824  0.0329
  669MOL0     C88208   6.983   8.506   5.976 -0.1570 -0.1254  0.3303
  669MOL0     C88209   6.866   8.444   6.014  0.3568  0.4585 -0.3752
  669MOL0     C88210   6.865   8.325   6.075 -0.0649 -0.4305 -0.5804
  669MOL0     O88211   6.734   8.278   6.107  0.8290 -0.1920 -0.5166
  669MOL0     C88212   6.725   8.212   6.240 -0.4660  0.2540 -0.1769
  669MOL0     C88213   6.591   8.194   6.303 -0.4495  0.6108 -0.2678
  669MOL0     C88214   6.498   8.116   6.208 -0.4056  0.3650  0.1611
  669MOL0     C88215   6.380   8.081   6.293 -0.5963 -1.0086  0.0309
  669MOL0     C88216   6.294   7.976   6.227  0.7843 -0.1608 -0.5981
  669MOL0     C88217   6.173   7.932   6.315  0.1782 -1.0308  0.4835
  669MOL0     C88218   6.210   7.872   6.453 -0.2582  0.5908 -0.8299
  669MOL0     C88219   6.305   7.755   6.458 -0.6098 -0.4506  0.0317
  669MOL0    Cl88220   6.323   7.694   6.628 -0.5670 -0.3187 -0.1399
  669MOL0     C88221   6.985   8.257   6.103 -0.2378 -1.0883  0.2341
  669MOL0     C88222   7.103   8.310   6.051 -0.3746  0.7987 -0.3527
  669MOL0     O88223   7.364   8.432   6.103 -0.0227  0.1460 -0.2404
  669MOL0     C88224   7.448   8.625   5.815 -0.7696 -0.0729 -0.0796
  669MOL0     C88225   7.560   8.692   5.753  0.3181  0.9214 -0.3123
  669MOL0     N88226   8.441   8.990   5.780  0.4511  0.5726 -0.5791
  669MOL0     N88227   8.565   8.963   5.793 -0.6905  0.7425  0.3569
  669MOL0     C88228   9.663   8.889   5.649  0.0152 -0.0911  0.3616
  669MOL0     C88229   9.804   8.892   5.680  0.5937 -0.9936 -0.4669
  669MOL0     C88230  10.271   8.976   5.636 -0.3349  0.6063  0.0721
  669MOL0     C88231  10.312   8.886   5.743  0.0687 -0.2162 -0.6302
  669MOL0     C88232  10.447   8.850   5.763  0.3232 -0.2214 -0.1004
  669MOL0     C88233  10.549   8.906   5.679  0.5607 -0.7577  0.1444
  669MOL0     O88234  10.683   8.865   5.690  0.0738  0.5442  0.2884
  669MOL0     C88235  10.725   8.740   5.762  0.6353  0.2034 -1.3256
  669MOL0     C88236  10.878   8.721   5.755  0.5602 -0.9846 -0.2621
  669MOL0     C88237  10.915   8.698   5.617  0.5113 -0.0564  0.3741
  669MOL0     C88238  11.067   8.691   5.610  0.0395 -0.1550 -0.2580
  669MOL0     C88239  11.117   8.712   5.475  0.9009 -0.4709  0.1697
  669MOL0     C88240  11.184   8.718   5.372 -0.9082 -0.7497 -0.0879
  669MOL0     C88241  10.507   8.996   5.576  0.1806 -0.4187 -0.5309
  669MOL0     C88242  10.375   9.030   5.557 -0.5801 -0.4266  0.4843
  669MOL0     H88243   9.901   9.095   5.418  0.8442 -0.8691  0.1853
  669MOL0     H88244   9.679   9.082   5.373  0.9844 -0.4813 -0.7095
  669MOL0     H88245   9.460   9.071   5.331 -0.8661  3.3407  0.0282
  669MOL0     H88246   9.426   9.145   5.477 -3.0176  2.5792 -5.1133
  669MOL0     H88247   9.250   8.922   5.357  0.1472  0.0938 -0.5339
  669MOL0     H88248   9.217   9.106   5.383 -1.3258  0.3833  1.3950
  669MOL0     H88249   9.222   9.052   5.612 -1.2703 -0.7362  2.2328
  669MOL0     H88250   9.260   8.879   5.582  0.4228  1.2727  1.9897
  669MOL0     H88251   9.015   9.034   5.484  1.0096  0.2724  0.5336
  669MOL0     H88252   9.040   8.865   5.472  1.7645 -0.4379  0.0888
  669MOL0     H88253   8.968   9.026   5.724 -1.9309 -1.4617  0.3532
  669MOL0     H88254   9.067   8.887   5.740  0.6579  2.4376  1.0650
  669MOL0     H88255   8.887   8.762   5.604  1.9875 -0.6896  1.5363
  669MOL0     H88256   8.793   8.913   5.607 -0.3874  0.0354  0.1638
  669MOL0     H88257   8.905   8.757   5.852  3.6891  1.1666 -1.8054
  669MOL0     H88258   8.821   8.919   5.848  0.2432  0.0833  0.5014
  669MOL0     H88259   8.662   8.731   5.911  0.7133 -1.2940  0.6781
  669MOL0     H88260   8.713   8.667   5.745 -0.2171  0.7569  0.2425
  669MOL0     H88261   8.474   8.708   5.616 -3.6364  0.8981 -0.9146
  669MOL0     H88262   8.251   8.818   5.558  2.2687  2.2670 -1.4249
  669MOL0     H88263   8.197   8.964   5.645 -1.9940 -1.1934 -1.3550
  669MOL0     H88264   8.181   8.830   5.868  5.5497  0.4071 -0.0423
  669MOL0     H88265   8.215   8.694   5.765  0.6533 -0.3714  2.2531
  669MOL0     H88266   7.997   8.897   5.701  0.8273 -0.6611 -0.0949
  669MOL0     H88267   8.016   8.728   5.628 -3.1077 -3.7570  2.7265
  669MOL0     H88268   7.926   8.756   5.905  0.0320  1.7866 -1.0141
  669MOL0     H88269   7.971   8.612   5.800 -3.0175 -1.7934  0.1601
  669MOL0     H88270   7.791   8.543   5.962 -0.4719 -0.5294  0.7861
  669MOL0     H88271   7.607   8.501   6.096 -1.3181 -2.2654 -0.3626
  669MOL0     H88272   6.979   8.593   5.911  0.0766  0.1055  0.6220
  669MOL0     H88273   6.769   8.490   5.997 -0.2184 -0.1711  1.0372
  669MOL0     H88274   6.782   8.281   6.302 -1.8762  0.8275  0.5138
  669MOL0     H88275   6.775   8.115   6.234  3.5183  2.1697 -2.2358
  669MOL0     H88276   6.538   8.285   6.335  0.7492  1.2989 -0.1926
  669MOL0     H88277   6.614   8.133   6.391 -0.6035 -1.0921 -1.3648
  669MOL0     H88278   6.564   8.034   6.178  0.7186  0.5490  2.0010
  669MOL0     H88279   6.457   8.172   6.124 -2.3368 -1.4621 -0.2154
  669MOL0     H88280   6.395   8.050   6.397 -6.9857 -1.7638  1.1864
  669MOL0     H88281   6.314   8.168   6.305  1.5164  0.7889 -0.7920
  669MOL0     H88282   6.351   7.883   6.218 -1.5501 -1.8201  0.6776
  669MOL0     H88283   6.259   8.009   6.129  1.3136  0.5622 -0.5465
  669MOL0     H88284   6.112   7.863   6.256 -0.2500  0.6149 -1.0948
  669MOL0     H88285   6.108   8.019   6.326 -0.2271 -0.7120 -3.3541
  669MOL0     H88286   6.258   7.948   6.516  0.0303 -0.3058  0.0690
  669MOL0     H88287   6.122   7.825   6.497  0.2016 -2.3011 -2.7420
  669MOL0     H88288   6.397   7.797   6.415 -1.2008 -0.4116 -1.2337
  669MOL0     H88289   6.266   7.679   6.390  1.7723 -0.3489 -1.5670
  669MOL0     H88290   6.989   8.162   6.156 -2.0014 -1.3376 -0.0355
  669MOL0     H88291   7.195   8.257   6.072 -0.5832 -0.5883 -2.6121
  669MOL0     H88292   7.353   8.625   5.762  0.5207  1.8962 -2.6203
  669MOL0     H88293   7.555   8.751   5.662 -1.3990  0.0127 -0.8453
  669MOL0     H88294   9.596   8.839   5.718  2.8082 -1.0043  2.6328
  669MOL0     H88295   9.816   8.857   5.782  0.1981  0.4100  0.0809
  669MOL0     H88296  10.248   8.825   5.806  1.3286 -0.7017  0.2417
  669MOL0     H88297  10.469   8.783   5.845 -1.9637 -1.2968 -0.2904
  669MOL0     H88298  10.681   8.643   5.739 -0.8471  1.1878 -2.7980
  669MOL0     H88299  10.698   8.747   5.868 -0.7881 -1.0890 -1.5729
  669MOL0     H88300  10.921   8.815   5.792 -2.4565  1.5848 -2.7260
  669MOL0     H88301  10.914   8.637   5.815 -0.3600 -1.6126 -0.5795
  669MOL0     H88302  10.875   8.779   5.555  0.2587 -1.3778 -1.2511
  669MOL0     H88303  10.882   8.600   5.582 -2.0014  1.0001 -0.4710
  669MOL0     H88304  11.113   8.769   5.673 -2.3147  1.4382 -0.3962
  669MOL0     H88305  11.104   8.595   5.647 -1.4823  0.3839  3.1148
  669MOL0     H88306  11.248   8.726   5.287 -1.9881  1.5740 -0.7501
  669MOL0     H88307  10.580   9.031   5.504  1.3704  0.0584  0.8428
  669MOL0     H88308  10.356   9.084   5.464 -0.7386  0.7386  1.1752
  670MOL0     O88309  10.071   9.172   4.947 -0.4926  0.6358 -0.4757
  670MOL0     C88310  10.105   9.177   5.066 -0.7312 -0.6805 -0.4110
  670MOL0     O88311  10.015   9.189   5.174  0.4410 -0.2789  0.6826
  670MOL0     C88312   9.882   9.187   5.129  0.6530  0.6539 -0.1320
  670MOL0     C88313   9.807   9.298   5.095  0.6310 -0.4339 -0.3416
  670MOL0     C88314   9.673   9.285   5.058 -0.3771 -0.2167 -0.3794
  670MOL0     C88315   9.608   9.159   5.050 -0.9680 -0.9587 -0.0896
  670MOL0     O88316   9.479   9.143   5.006  0.5702 -0.0387  0.4017
  670MOL0     C88317   9.369   9.238   5.010 -0.7540 -0.2689 -0.2767
  670MOL0     C88318   9.242   9.166   4.964 -0.2872 -0.9954 -0.2997
  670MOL0     C88319   9.185   9.046   5.046  0.5180 -0.1880 -0.9901
  670MOL0     C88320   9.078   8.963   4.979 -0.3774  0.5303 -0.2120
  670MOL0     C88321   8.994   8.886   5.079  0.6807  0.0505  1.1524
  670MOL0     C88322   8.876   8.810   5.010 -0.0516  0.5013  1.0970
  670MOL0     C88323   8.774   8.747   5.106  0.6329 -0.3984  0.7904
  670MOL0     C88324   8.665   8.844   5.166  1.1309  0.5471 -0.3800
  670MOL0     N88325   8.551   8.770   5.232 -0.3998 -0.6290 -0.0785
  670MOL0     C88326   8.419   8.773   5.193 -0.0242  0.6922  0.4702
  670MOL0     C88327   8.346   8.690   5.277 -0.0944 -0.1940 -0.5046
  670MOL0     C88328   8.198   8.660   5.272 -0.0254 -0.7886 -0.7230
  670MOL0     C88329   8.168   8.510   5.291  0.0368 -0.8788  0.2800
  670MOL0     C88330   8.029   8.466   5.235 -0.1541 -0.6464  0.6275
  670MOL0     C88331   7.899   8.518   5.296  0.0273  0.1507 -0.3354
  670MOL0     O88332   7.808   8.509   5.192  0.1269  0.0336 -0.1423
  670MOL0     C88333   7.673   8.478   5.229  0.0276 -0.1503  1.1176
  670MOL0     C88334   7.601   8.385   5.160 -0.3284 -0.0841  0.4304
  670MOL0     C88335   7.466   8.350   5.192 -0.1893 -0.6191  0.3800
  670MOL0     C88336   7.405   8.404   5.303 -0.1209  0.9946  0.2216
  670MOL0     C88337   7.268   8.355   5.337 -1.0512 -0.2936  0.4252
  670MOL0     O88338   7.186   8.448   5.391 -1.4134 -0.1954  0.2108
  670MOL0     C88339   7.066   8.408   5.427  0.8268  0.9385  0.2445
  670MOL0     C88340   7.046   8.361   5.562 -0.3261  0.2516 -0.0765
  670MOL0     C88341   6.917   8.342   5.609  0.4479 -0.4591 -0.3434
  670MOL0     C88342   6.817   8.355   5.525  0.3687 -0.8249  0.4882
  670MOL0     O88343   6.696   8.311   5.570  0.5187  0.0142  1.2390
  670MOL0     C88344   6.605   8.417   5.600  0.8190  0.1911  0.7694
  670MOL0     C88345   6.555   8.496   5.479 -0.1767 -0.7013 -0.1680
  670MOL0     C88346   6.435   8.585   5.508 -0.5332  0.0700  0.7906
  670MOL0     C88347   6.473   8.708   5.603 -0.4459 -0.3674 -0.6025
  670MOL0     C88348   6.358   8.803   5.627 -0.1260 -0.4932 -0.1368
  670MOL0     C88349   6.287   8.867   5.507 -0.1800  0.3752 -0.0959
  670MOL0     C88350   6.160   8.946   5.546 -0.0950 -1.1367 -0.5337
  670MOL0     C88351   6.106   9.014   5.421 -0.0050  0.1814 -0.1166
  670MOL0    Cl88352   5.926   9.020   5.426 -0.4094 -0.4699 -0.4631
  670MOL0     C88353   6.832   8.378   5.384  0.3885 -0.2465  0.5039
  670MOL0     C88354   6.963   8.411   5.337  0.5342  0.6872 -0.9662
  670MOL0     O88355   7.251   8.236   5.325  0.2535  0.6895 -0.2901
  670MOL0     C88356   7.479   8.498   5.380  0.2294 -0.5168  0.5332
  670MOL0     C88357   7.612   8.534   5.335 -0.5140 -0.0549 -0.6844
  670MOL0     N88358   8.434   8.650   5.379  0.1707 -0.5711 -1.1463
  670MOL0     N88359   8.553   8.696   5.347  0.6462 -0.4022  0.0475
  670MOL0     C88360   9.680   9.050   5.077 -0.7385  0.4518  0.6076
  670MOL0     C88361   9.816   9.062   5.121  1.1301 -0.2669 -0.0836
  670MOL0     C88362  10.254   9.186   5.095  0.3702  0.8488 -0.3488
  670MOL0     C88363  10.353   9.135   5.008  0.1197  0.4343 -0.0289
  670MOL0     C88364  10.489   9.147   5.029  0.2064 -0.3052  0.6050
  670MOL0     C88365  10.537   9.217   5.139 -0.4923 -0.3472  0.2581
  670MOL0     O88366  10.669   9.237   5.175 -0.1672 -0.3043  0.0440
  670MOL0     C88367  10.768   9.190   5.078  0.1163 -0.1471  0.0205
  670MOL0     C88368  10.786   9.042   5.060 -0.2558 -0.4956  0.0729
  670MOL0     C88369  10.813   8.964   5.192 -0.1734 -0.4053 -0.7094
  670MOL0     C88370  10.889   9.027   5.310 -0.4243 -0.6825 -0.5352
  670MOL0     C88371  11.020   9.077   5.280 -1.3404  0.2529 -0.3701
  670MOL0     C88372  11.142   9.098   5.256 -0.3040  0.0836 -0.5445
  670MOL0     C88373  10.441   9.251   5.245  0.1699  0.7359 -0.7481
  670MOL0     C88374  10.304   9.237   5.222  1.1733 -1.0290  0.6426
  670MOL0     H88375   9.848   9.398   5.107 -1.0178  0.1370  1.1780
  670MOL0     H88376   9.627   9.382   5.041  0.8150  0.6369  1.0553
  670MOL0     H88377   9.395   9.323   4.946 -3.7131  3.2428  2.7135
  670MOL0     H88378   9.354   9.277   5.111 -0.2039 -1.3861  0.2565
  670MOL0     H88379   9.276   9.136   4.865  0.9001 -1.4636  0.2323
  670MOL0     H88380   9.164   9.243   4.965  0.7369  0.2220  3.4340
  670MOL0     H88381   9.142   9.092   5.135  0.4832  0.8291 -1.5071
  670MOL0     H88382   9.270   8.981   5.069  0.4950 -1.6340 -4.3760
  670MOL0     H88383   9.012   9.019   4.913 -1.6209 -0.4007  0.1927
  670MOL0     H88384   9.124   8.881   4.922 -2.1039  0.6364 -1.8441
  670MOL0     H88385   8.952   8.964   5.144 -0.9468 -0.5422  0.8773
  670MOL0     H88386   9.059   8.811   5.125  0.3247 -0.3594  0.9959
  670MOL0     H88387   8.922   8.731   4.950 -0.3726  2.2449 -1.6083
  670MOL0     H88388   8.832   8.885   4.944  1.2983  0.7980  0.5038
  670MOL0     H88389   8.724   8.668   5.049  0.3269  0.6565 -0.4444
  670MOL0     H88390   8.828   8.695   5.185  2.3741 -0.2743 -0.2774
  670MOL0     H88391   8.630   8.907   5.083 -0.8696 -2.3281 -1.9125
  670MOL0     H88392   8.716   8.901   5.243 -1.7296  0.8315  1.4483
  670MOL0     H88393   8.383   8.815   5.100  0.0727 -0.4721 -0.1214
  670MOL0     H88394   8.167   8.700   5.175  2.5359  0.9485 -0.9077
  670MOL0     H88395   8.147   8.723   5.346  1.5551  1.0589 -1.1470
  670MOL0     H88396   8.177   8.489   5.398  0.4558 -2.4107 -0.0252
  670MOL0     H88397   8.238   8.451   5.231  1.6445  1.0270  0.1934
  670MOL0     H88398   8.014   8.482   5.128 -3.8263  1.7775  1.3381
  670MOL0     H88399   8.034   8.357   5.243  2.2493 -0.6544 -0.0210
  670MOL0     H88400   7.909   8.623   5.326 -1.7094  0.9846 -2.4458
  670MOL0     H88401   7.872   8.456   5.382  1.7264 -0.8111 -0.4538
  670MOL0     H88402   7.652   8.334   5.079 -1.0667  0.6558 -0.5228
  670MOL0     H88403   7.412   8.271   5.140 -1.8401 -1.8119  3.6217
  670MOL0     H88404   7.136   8.358   5.623 -0.7334  1.4095  0.6055
  670MOL0     H88405   6.913   8.310   5.712 -2.2626 -1.6751 -0.7467
  670MOL0     H88406   6.639   8.485   5.678 -1.7043  2.2583  0.1915
  670MOL0     H88407   6.511   8.369   5.629  0.1531 -0.0687 -1.5688
  670MOL0     H88408   6.532   8.416   5.408 -2.4331 -0.1112 -0.1650
  670MOL0     H88409   6.629   8.564   5.435 -0.8372  0.3743  0.3356
  670MOL0     H88410   6.358   8.524   5.556 -0.8965 -0.7967 -0.8290
  670MOL0     H88411   6.387   8.605   5.411 -1.4957 -2.6775  0.6237
  670MOL0     H88412   6.517   8.666   5.694  2.0730 -0.3135 -1.7221
  670MOL0     H88413   6.555   8.765   5.559  0.1924  0.5881  1.7052
  670MOL0     H88414   6.408   8.889   5.673  0.1539 -0.8959  0.3295
  670MOL0     H88415   6.285   8.768   5.700  1.7667 -1.4166  1.4151
  670MOL0     H88416   6.264   8.793   5.430  1.2346 -0.0245 -0.1606
  670MOL0     H88417   6.357   8.934   5.457  2.3158 -2.2922 -0.4159
  670MOL0     H88418   6.090   8.865   5.567 -1.4293 -0.0481 -0.6130
  670MOL0     H88419   6.164   9.013   5.633 -1.6979 -2.4172  0.5865
  670MOL0     H88420   6.142   8.960   5.333  0.4102  1.1892 -0.5760
  670MOL0     H88421   6.140   9.117   5.410 -2.7147  1.0707 -0.9693
  670MOL0     H88422   6.753   8.395   5.311  1.4769  0.5828 -0.5216
  670MOL0     H88423   6.978   8.463   5.243  1.0492  1.7739 -0.3116
  670MOL0     H88424   7.443   8.535   5.475 -0.0965 -0.8339  0.5360
  670MOL0     H88425   7.660   8.609   5.396 -3.2845  1.6113 -0.3489
  670MOL0     H88426   9.626   8.958   5.060 -1.8400  1.4464 -1.7077
  670MOL0     H88427   9.875   8.979   5.156  1.7008  0.5294  0.8951
  670MOL0     H88428  10.320   9.099   4.911 -0.7287 -1.6847  0.9737
  670MOL0     H88429  10.558   9.106   4.957  1.0075 -1.5299  2.0047
  670MOL0     H88430  10.862   9.233   5.113  1.7384 -1.5292 -2.3050
  670MOL0     H88431  10.750   9.225   4.976  2.1247  0.8314 -0.0558
  670MOL0     H88432  10.709   8.994   4.999  2.3223 -0.8332 -3.2312
  670MOL0     H88433  10.871   9.025   4.992 -1.0528  2.6593 -1.9166
  670MOL0     H88434  10.875   8.877   5.170  2.1775  0.4669  1.9119
  670MOL0     H88435  10.717   8.931   5.234 -1.2074  0.4216 -2.3188
  670MOL0     H88436  10.832   9.105   5.362 -1.8591 -2.0461  0.0095
  670MOL0     H88437  10.889   8.952   5.389 -1.0378  2.1593  2.4166
  670MOL0     H88438  11.248   9.089   5.243 -0.2841 -0.4811 -0.0332
  670MOL0     H88439  10.485   9.299   5.332 -0.2538 -0.5938  0.2386
  670MOL0     H88440  10.241   9.267   5.305 -0.6070  3.0168 -1.8903
  671MOL0     O88441   3.307   3.618   5.810 -0.1055  0.3990 -0.0580
  671MOL0     C88442   3.211   3.544   5.801 -0.2333 -0.4505  0.4144
  671MOL0     O88443   3.213   3.409   5.833  0.5716  0.3111  0.5350
  671MOL0     C88444   3.334   3.338   5.862  0.2432 -0.3393 -0.2279
  671MOL0     C88445   3.343   3.256   5.977  0.1210  0.8776  0.2016
  671MOL0     C88446   3.463   3.182   6.001  0.2382 -0.6501 -0.3839
  671MOL0     C88447   3.571   3.196   5.919  0.0548  0.3916  0.0112
  671MOL0     O88448   3.693   3.138   5.958  0.2871  0.7426  0.0834
  671MOL0     C88449   3.792   3.108   5.858  1.3097 -0.8823  0.1579
  671MOL0     C88450   3.885   3.221   5.868  0.0299  0.4048  0.0534
  671MOL0     C88451   3.940   3.245   5.725 -0.8064 -0.0030 -0.0917
  671MOL0     C88452   4.085   3.303   5.719  0.8624 -0.8667  0.5641
  671MOL0     C88453   4.182   3.190   5.690 -0.0230 -0.3991  0.0024
  671MOL0     C88454   4.168   3.142   5.540 -0.9395 -0.1943  0.3248
  671MOL0     C88455   4.218   3.252   5.439  0.2635  0.0216  0.8242
  671MOL0     C88456   4.120   3.320   5.356 -0.6446 -0.8062  0.1862
  671MOL0     N88457   4.179   3.408   5.255 -0.3843  0.5471  0.0847
  671MOL0     C88458   4.221   3.532   5.283 -0.0177  0.4136 -0.5889
  671MOL0     C88459   4.316   3.560   5.185 -0.3182  0.6221 -0.3861
  671MOL0     C88460   4.396   3.685   5.161  0.4461 -0.2979  0.3240
  671MOL0     C88461   4.525   3.666   5.254  0.0951  0.4798  0.2417
  671MOL0     C88462   4.605   3.795   5.233  0.1454 -0.0156 -1.4369
  671MOL0     C88463   4.665   3.795   5.085  0.3943 -0.9399 -0.6265
  671MOL0     O88464   4.757   3.695   5.055 -0.2926  0.6757 -0.2900
  671MOL0     C88465   4.879   3.677   5.109  0.0022  0.5274  0.3026
  671MOL0     C88466   4.947   3.759   5.201 -0.2058  1.1536 -0.9078
  671MOL0     C88467   5.082   3.741   5.234 -0.6562 -0.6909  0.3873
  671MOL0     C88468   5.151   3.621   5.182 -0.1702  0.4520 -0.0644
  671MOL0     C88469   5.292   3.582   5.215  0.0285 -0.6297 -1.0942
  671MOL0     O88470   5.355   3.658   5.323 -0.4095  0.4899  0.0328
  671MOL0     C88471   5.461   3.598   5.388  1.0624  0.2032  1.3058
  671MOL0     C88472   5.441   3.503   5.491 -0.2962 -0.5160 -0.2420
  671MOL0     C88473   5.552   3.453   5.560 -0.0863 -0.0975  0.4210
  671MOL0     C88474   5.681   3.505   5.520 -0.2704 -0.2393 -0.5063
  671MOL0     O88475   5.790   3.463   5.591  0.8072 -0.3045 -0.5794
  671MOL0     C88476   5.865   3.355   5.533 -0.4605  1.2922  0.2611
  671MOL0     C88477   5.919   3.260   5.641 -0.3190  0.7689  0.3697
  671MOL0     C88478   5.814   3.208   5.752  0.0087 -0.2522  0.9289
  671MOL0     C88479   5.883   3.087   5.823 -0.5218  0.4561 -0.2986
  671MOL0     C88480   5.810   3.038   5.952  0.5092  0.4482  0.4992
  671MOL0     C88481   5.849   3.133   6.073  0.2918  0.1641 -0.5834
  671MOL0     C88482   5.994   3.132   6.129  0.2149  0.1409  0.5915
  671MOL0     C88483   5.992   3.101   6.276 -0.0360  0.5350  0.4816
  671MOL0    Cl88484   6.142   3.168   6.360 -0.6599 -0.1205  0.3223
  671MOL0     C88485   5.699   3.592   5.407 -0.9239  0.4266  0.8098
  671MOL0     C88486   5.583   3.643   5.349 -0.1434  0.1518 -0.0733
  671MOL0     O88487   5.341   3.471   5.173 -0.3148  0.3438  0.6986
  671MOL0     C88488   5.075   3.537   5.097  0.7622  0.6471 -0.5993
  671MOL0     C88489   4.947   3.565   5.058  1.0366 -1.2170 -0.3659
  671MOL0     N88490   4.326   3.461   5.093  0.2285 -0.0257 -0.7667
  671MOL0     N88491   4.246   3.369   5.143  0.2232  0.1042  0.5648
  671MOL0     C88492   3.561   3.286   5.814  0.0099  0.2373 -0.6439
  671MOL0     C88493   3.445   3.354   5.783 -0.7070  0.0324 -0.7100
  671MOL0     C88494   3.089   3.589   5.738 -0.7903  0.4238  0.7528
  671MOL0     C88495   2.988   3.503   5.704  0.0614 -0.1820  0.2870
  671MOL0     C88496   2.879   3.553   5.639  0.1785 -0.2505 -0.1285
  671MOL0     C88497   2.860   3.690   5.618 -0.5598 -0.5768 -0.4400
  671MOL0     O88498   2.753   3.721   5.546 -0.3454  0.9673  0.4427
  671MOL0     C88499   2.625   3.697   5.608  0.0435  0.2885 -1.2657
  671MOL0     C88500   2.612   3.808   5.712  0.3758 -0.2385  0.5074
  671MOL0     C88501   2.498   3.793   5.810 -0.4790  0.5411  0.3884
  671MOL0     C88502   2.490   3.660   5.881  0.6381  0.1302  0.6279
  671MOL0     C88503   2.351   3.656   5.943  0.5701  0.2506  0.2628
  671MOL0     C88504   2.235   3.656   5.988  0.2297 -0.0618 -0.6068
  671MOL0     C88505   2.972   3.775   5.639 -0.9805  1.0538  0.0751
  671MOL0     C88506   3.080   3.730   5.710  0.4383  0.1140 -0.0471
  671MOL0     H88507   3.263   3.238   6.048 -1.5377 -0.2852 -1.8454
  671MOL0     H88508   3.469   3.114   6.085 -2.6020  0.4765  0.8454
  671MOL0     H88509   3.743   3.099   5.761 -1.8279  2.3695  1.1923
  671MOL0     H88510   3.849   3.017   5.877  4.6552  1.2808  1.6467
  671MOL0     H88511   3.961   3.201   5.944  1.2667  1.3138 -0.9099
  671MOL0     H88512   3.831   3.310   5.901 -1.0527 -1.1465  2.9279
  671MOL0     H88513   3.882   3.330   5.688  0.5266  1.6822  1.4880
  671MOL0     H88514   3.938   3.154   5.664 -0.2706 -1.3852  1.8353
  671MOL0     H88515   4.090   3.374   5.636  2.2015 -0.2043  1.1899
  671MOL0     H88516   4.110   3.352   5.813  2.2158 -1.8051  0.7229
  671MOL0     H88517   4.158   3.118   5.768 -2.3196  0.1085 -0.1801
  671MOL0     H88518   4.284   3.226   5.710 -0.4453  1.4107 -0.8867
  671MOL0     H88519   4.066   3.110   5.518 -0.8051  0.8993 -2.3379
  671MOL0     H88520   4.240   3.059   5.535  2.6136  2.6628 -1.2121
  671MOL0     H88521   4.293   3.311   5.493  0.2530 -1.1811  2.2204
  671MOL0     H88522   4.286   3.203   5.368  1.7458  1.7630  0.9659
  671MOL0     H88523   4.056   3.374   5.427 -0.9918 -2.1673  0.9374
  671MOL0     H88524   4.068   3.245   5.295  1.4526 -1.4047 -1.0016
  671MOL0     H88525   4.182   3.588   5.368 -0.2430  2.1195 -1.7714
  671MOL0     H88526   4.334   3.773   5.182 -2.3587 -1.7131 -1.4513
  671MOL0     H88527   4.416   3.704   5.055 -1.3481  2.2635  0.3558
  671MOL0     H88528   4.589   3.587   5.214  1.7729  0.5809  2.5392
  671MOL0     H88529   4.518   3.648   5.362 -1.5938 -0.4528  0.0282
  671MOL0     H88530   4.539   3.883   5.237 -3.0799 -2.3058 -0.2194
  671MOL0     H88531   4.686   3.807   5.305  2.5567 -1.3567 -3.7746
  671MOL0     H88532   4.717   3.891   5.082 -0.6083 -0.1153  2.9989
  671MOL0     H88533   4.580   3.804   5.016 -0.7919  0.4683  0.9244
  671MOL0     H88534   4.899   3.849   5.238 -0.8873 -0.2888  2.0294
  671MOL0     H88535   5.128   3.823   5.289  0.5423 -1.6064  0.8041
  671MOL0     H88536   5.339   3.470   5.506 -0.8221  0.3322 -1.7310
  671MOL0     H88537   5.537   3.397   5.652 -0.7373  2.1998  1.7978
  671MOL0     H88538   5.950   3.394   5.476  0.2934 -0.4914  0.0966
  671MOL0     H88539   5.802   3.295   5.467 -2.3303  1.5271  1.7696
  671MOL0     H88540   6.009   3.301   5.688  2.0954 -0.8871 -2.4570
  671MOL0     H88541   5.972   3.176   5.594 -1.6380 -1.0042  1.8572
  671MOL0     H88542   5.722   3.179   5.702  1.5038 -2.2904 -0.8108
  671MOL0     H88543   5.786   3.286   5.823 -2.7285 -0.0369 -0.2699
  671MOL0     H88544   5.883   3.003   5.752 -2.2450 -0.0383  0.2318
  671MOL0     H88545   5.988   3.112   5.841  0.2076  0.4078 -3.7269
  671MOL0     H88546   5.854   2.941   5.978 -0.0220 -0.4376 -1.7210
  671MOL0     H88547   5.702   3.024   5.946  0.6135  0.1447 -0.9535
  671MOL0     H88548   5.784   3.097   6.153 -0.7020  1.8901 -0.5666
  671MOL0     H88549   5.816   3.233   6.044 -2.3895 -1.2290 -2.8047
  671MOL0     H88550   6.054   3.054   6.083  2.0610 -0.1342  3.2020
  671MOL0     H88551   6.029   3.236   6.134 -0.4468  0.3447  1.3614
  671MOL0     H88552   6.000   2.994   6.297  0.4420  0.1716 -1.3590
  671MOL0     H88553   5.903   3.141   6.325  0.8223  1.7384  1.1158
  671MOL0     H88554   5.796   3.633   5.383  1.1047 -2.6130  3.0970
  671MOL0     H88555   5.580   3.705   5.259  1.5388 -0.0946 -0.3422
  671MOL0     H88556   5.127   3.451   5.057 -0.1932 -0.4742  0.4898
  671MOL0     H88557   4.903   3.508   4.977 -1.8149 -1.1514  0.9953
  671MOL0     H88558   3.646   3.311   5.751  0.6234  2.1431  0.8433
  671MOL0     H88559   3.454   3.428   5.705  3.9307  2.5808  1.8212
  671MOL0     H88560   3.009   3.396   5.706  0.9675 -0.3124 -4.5365
  671MOL0     H88561   2.803   3.486   5.601 -2.6899  1.6549  1.7850
  671MOL0     H88562   2.617   3.595   5.645 -0.8318  0.6425 -0.4445
  671MOL0     H88563   2.554   3.711   5.527  0.1534 -0.8050 -1.5645
  671MOL0     H88564   2.709   3.820   5.762  1.3425 -1.2727 -1.0487
  671MOL0     H88565   2.595   3.903   5.661  2.8010 -0.6439 -1.2216
  671MOL0     H88566   2.409   3.802   5.748  1.1713  2.9143 -1.8609
  671MOL0     H88567   2.509   3.875   5.880 -0.2699  0.9417 -0.1052
  671MOL0     H88568   2.482   3.580   5.807 -2.5804  2.3682 -1.7775
  671MOL0     H88569   2.562   3.639   5.960  1.2156 -1.6581 -0.3283
  671MOL0     H88570   2.137   3.669   6.029  0.0429 -2.1249 -0.2920
  671MOL0     H88571   2.964   3.883   5.625 -3.0175  0.7182 -1.8629
  671MOL0     H88572   3.158   3.800   5.738  1.3921 -1.0994  0.4720
  672MOL0     O88573   7.688   6.814   1.345  0.1341  0.1537 -0.4212
  672MOL0     C88574   7.798   6.799   1.393  0.3148 -0.2094  0.1617
  672MOL0     O88575   7.842   6.875   1.502 -0.8477  0.1069  0.3046
  672MOL0     C88576   7.752   6.949   1.572  0.6213 -0.2886 -0.4976
  672MOL0     C88577   7.646   6.897   1.653  0.0601  0.6624  0.6376
  672MOL0     C88578   7.571   6.981   1.728  0.6991 -0.9336 -0.8336
  672MOL0     C88579   7.593   7.116   1.737 -0.8580  0.3923 -0.3250
  672MOL0     O88580   7.509   7.194   1.800  0.4965  1.3039 -0.5754
  672MOL0     C88581   7.519   7.332   1.829  0.0231 -0.0938  0.5523
  672MOL0     C88582   7.380   7.391   1.863 -1.4281 -0.0893 -0.0500
  672MOL0     C88583   7.314   7.302   1.970  0.5819 -0.0591 -0.1091
  672MOL0     C88584   7.182   7.366   2.013 -0.0635  0.1017 -0.1197
  672MOL0     C88585   7.139   7.364   2.159 -0.7737  0.1076 -0.1225
  672MOL0     C88586   7.142   7.226   2.215  0.1268 -0.3903  0.8157
  672MOL0     C88587   7.031   7.128   2.190 -0.3213  0.1672  0.0491
  672MOL0     C88588   7.065   7.007   2.281  0.7727  0.5285 -0.0383
  672MOL0     N88589   6.997   6.884   2.229 -0.5525 -0.2106  0.2508
  672MOL0     C88590   6.871   6.840   2.259 -0.0061 -0.3605 -0.0435
  672MOL0     C88591   6.853   6.726   2.200 -0.0413  0.3346  0.4272
  672MOL0     C88592   6.729   6.630   2.207 -0.3391 -0.6542  0.6848
  672MOL0     C88593   6.660   6.636   2.341  0.4906 -0.3140 -0.0587
  672MOL0     C88594   6.735   6.622   2.473  0.5800  0.0671  0.2424
  672MOL0     C88595   6.801   6.480   2.490  0.1062 -0.8672  0.0042
  672MOL0     O88596   6.914   6.481   2.578 -0.4433  0.4536 -0.0182
  672MOL0     C88597   7.030   6.544   2.534  0.4753 -0.9451 -0.8889
  672MOL0     C88598   7.095   6.621   2.629  0.1420  0.5727 -0.2204
  672MOL0     C88599   7.206   6.701   2.586 -0.0390 -0.3847 -0.5253
  672MOL0     C88600   7.244   6.719   2.457 -0.2995  0.1349 -0.7106
  672MOL0     C88601   7.367   6.802   2.426 -0.2778 -0.3138 -0.3760
  672MOL0     O88602   7.420   6.785   2.303  0.3876 -0.0193 -1.0081
  672MOL0     C88603   7.522   6.857   2.253 -0.5249  0.2952 -0.0642
  672MOL0     C88604   7.493   6.953   2.151 -0.1586  0.3027  1.1455
  672MOL0     C88605   7.602   7.027   2.103 -0.4149 -0.8882 -0.0916
  672MOL0     C88606   7.738   7.005   2.134 -0.3350  0.0068 -0.1669
  672MOL0     O88607   7.850   7.075   2.090  0.4941 -0.4196  0.0772
  672MOL0     C88608   7.826   7.209   2.031  0.1049 -0.0371 -0.2404
  672MOL0     C88609   7.953   7.284   1.985 -0.7458 -0.2165 -0.3191
  672MOL0     C88610   8.044   7.330   2.094  0.5208  0.1732 -0.3138
  672MOL0     C88611   8.140   7.439   2.040 -0.0023  0.2421  0.7364
  672MOL0     C88612   8.235   7.478   2.157 -0.5515 -0.2415 -0.0083
  672MOL0     C88613   8.358   7.391   2.174 -0.0286  0.6135  0.1098
  672MOL0     C88614   8.466   7.442   2.268  0.8892  0.4151 -0.9376
  672MOL0     C88615   8.567   7.335   2.304 -0.3136 -0.2616 -0.4763
  672MOL0    Cl88616   8.519   7.173   2.360  0.0070 -0.5049  0.1960
  672MOL0     C88617   7.761   6.927   2.247 -0.6774 -0.2258 -0.3006
  672MOL0     C88618   7.648   6.848   2.297 -0.9292  0.4720 -0.9382
  672MOL0     O88619   7.397   6.889   2.505 -0.4108  0.5741  0.0629
  672MOL0     C88620   7.183   6.643   2.363  0.4795 -1.2947  0.5526
  672MOL0     C88621   7.072   6.559   2.398 -0.8575 -0.2903 -0.9363
  672MOL0     N88622   6.952   6.724   2.103 -0.1894 -0.1536 -0.2718
  672MOL0     N88623   7.039   6.820   2.119  1.0451 -0.0770 -0.4813
  672MOL0     C88624   7.700   7.175   1.669  0.7778  0.1481 -0.1437
  672MOL0     C88625   7.780   7.090   1.595  0.1984  0.2680 -0.6423
  672MOL0     C88626   7.893   6.716   1.319 -0.7029 -1.5801  0.6011
  672MOL0     C88627   7.858   6.676   1.186 -0.4876 -0.4551 -0.2797
  672MOL0     C88628   7.952   6.604   1.114  0.0477  0.3201  0.0336
  672MOL0     C88629   8.084   6.592   1.154 -0.7872 -0.2079  0.6158
  672MOL0     O88630   8.170   6.526   1.074 -0.4841  0.3920  0.7312
  672MOL0     C88631   8.159   6.380   1.080  0.1396  0.3092  0.0535
  672MOL0     C88632   8.250   6.316   1.176 -1.0278  0.1379 -0.3700
  672MOL0     C88633   8.406   6.336   1.150 -0.1893  0.1177  0.4405
  672MOL0     C88634   8.498   6.282   1.262 -0.0192 -0.3532 -0.5787
  672MOL0     C88635   8.641   6.299   1.236  0.4839 -1.0721  0.0240
  672MOL0     C88636   8.756   6.328   1.220  0.1532 -0.3166  0.6054
  672MOL0     C88637   8.121   6.641   1.277 -0.1507  0.2877 -0.8362
  672MOL0     C88638   8.025   6.700   1.357  0.2121  0.8671 -0.6215
  672MOL0     H88639   7.626   6.791   1.639  2.9799  0.1245 -0.1523
  672MOL0     H88640   7.490   6.939   1.787 -1.7674  0.4364 -2.9890
  672MOL0     H88641   7.566   7.398   1.756 -2.9312  0.2302 -1.2151
  672MOL0     H88642   7.581   7.339   1.919  0.9483 -0.2077 -0.0643
  672MOL0     H88643   7.321   7.392   1.771  0.9562 -0.0722 -1.6707
  672MOL0     H88644   7.394   7.493   1.900  0.0647  0.2277 -1.3709
  672MOL0     H88645   7.379   7.283   2.056  0.1352 -1.8029 -0.1169
  672MOL0     H88646   7.303   7.201   1.929  2.0592 -0.3516  0.1518
  672MOL0     H88647   7.180   7.469   1.976  1.7142  0.7200  1.3093
  672MOL0     H88648   7.101   7.310   1.965 -0.8114 -1.6363  2.8511
  672MOL0     H88649   7.034   7.393   2.166 -1.0398 -0.2407 -2.0913
  672MOL0     H88650   7.201   7.432   2.218 -0.5812  2.5166 -2.9026
  672MOL0     H88651   7.150   7.241   2.323 -3.0975 -2.7470  1.5380
  672MOL0     H88652   7.240   7.189   2.183 -0.3044 -0.2234 -0.7562
  672MOL0     H88653   6.934   7.174   2.208 -1.0973 -0.8086 -1.3858
  672MOL0     H88654   7.042   7.105   2.083  0.8877  2.9069 -0.4837
  672MOL0     H88655   7.017   7.027   2.378 -1.9590  0.0933 -1.1963
  672MOL0     H88656   7.172   6.989   2.283  0.6212 -0.4495  2.0078
  672MOL0     H88657   6.792   6.885   2.319 -1.2955 -0.5497 -1.5420
  672MOL0     H88658   6.772   6.531   2.190  3.4935  0.9487 -0.0514
  672MOL0     H88659   6.658   6.644   2.125  0.3398 -1.0830  0.0087
  672MOL0     H88660   6.576   6.567   2.339  0.5437 -0.4571  1.4749
  672MOL0     H88661   6.611   6.734   2.334  0.5630 -0.2927 -0.2935
  672MOL0     H88662   6.807   6.704   2.478 -0.4567  1.4214 -3.7996
  672MOL0     H88663   6.667   6.634   2.558 -0.5448  0.5470 -0.7049
  672MOL0     H88664   6.819   6.433   2.393  0.5452 -1.2441  0.2650
  672MOL0     H88665   6.737   6.403   2.534  0.7416 -0.4108  1.7900
  672MOL0     H88666   7.059   6.615   2.731  0.8567 -0.1831 -0.0027
  672MOL0     H88667   7.256   6.765   2.658 -1.6832  1.1359 -0.6956
  672MOL0     H88668   7.393   6.966   2.113  1.3396  0.5330 -3.2924
  672MOL0     H88669   7.583   7.104   2.029  1.1563  1.2988  1.6184
  672MOL0     H88670   7.768   7.282   2.088  0.4497  1.0713 -1.2728
  672MOL0     H88671   7.769   7.196   1.939  0.5569  1.4761 -0.7740
  672MOL0     H88672   7.912   7.374   1.938 -1.2592  0.1149  0.7250
  672MOL0     H88673   8.012   7.227   1.913 -1.6933 -0.4252 -0.9534
  672MOL0     H88674   8.091   7.243   2.141  0.5480  0.6669  0.5828
  672MOL0     H88675   7.978   7.380   2.165  0.7147  1.5091 -1.0280
  672MOL0     H88676   8.194   7.410   1.950  1.0924  1.4817  0.9655
  672MOL0     H88677   8.076   7.522   2.008  0.1042  0.4053  0.9488
  672MOL0     H88678   8.176   7.476   2.248 -2.2055 -1.3029 -1.0462
  672MOL0     H88679   8.266   7.581   2.135 -0.8248  0.2920  1.9298
  672MOL0     H88680   8.398   7.378   2.073 -0.8358 -2.5917  0.0817
  672MOL0     H88681   8.320   7.294   2.209  0.1278  0.2115 -0.8043
  672MOL0     H88682   8.511   7.528   2.218 -1.0388  0.5199 -2.6231
  672MOL0     H88683   8.421   7.490   2.356 -0.5357 -0.6586 -1.0471
  672MOL0     H88684   8.629   7.373   2.386 -0.3586  1.1966 -1.0924
  672MOL0     H88685   8.643   7.319   2.226  3.6733  3.3357  2.2469
  672MOL0     H88686   7.855   6.932   2.301 -1.0444 -2.7906  0.7443
  672MOL0     H88687   7.654   6.776   2.378 -1.1779  2.3353  0.8285
  672MOL0     H88688   7.203   6.641   2.256  0.0331 -3.5940  0.4779
  672MOL0     H88689   7.020   6.493   2.329 -1.6038 -2.2458  1.3335
  672MOL0     H88690   7.718   7.281   1.654  2.2669 -0.3171 -2.1082
  672MOL0     H88691   7.847   7.143   1.529  2.1428 -3.9334 -2.4396
  672MOL0     H88692   7.754   6.679   1.156 -0.9935  1.2156  1.4459
  672MOL0     H88693   7.927   6.566   1.016 -0.0582 -0.3296  0.3063
  672MOL0     H88694   8.170   6.347   0.976 -1.8264  0.1544 -0.1497
  672MOL0     H88695   8.057   6.349   1.106  0.1265  1.2187  1.1252
  672MOL0     H88696   8.225   6.340   1.280 -2.0591  0.8291 -0.7639
  672MOL0     H88697   8.229   6.210   1.157  0.3635 -0.6954  2.2079
  672MOL0     H88698   8.425   6.442   1.129 -0.1397 -0.2005 -1.2775
  672MOL0     H88699   8.421   6.275   1.060 -0.4963 -0.7668  0.9802
  672MOL0     H88700   8.468   6.316   1.362  1.1761 -3.7374  1.1082
  672MOL0     H88701   8.483   6.174   1.273 -1.6514  0.1026  3.2714
  672MOL0     H88702   8.861   6.335   1.203  0.0007  2.6383  0.3978
  672MOL0     H88703   8.218   6.622   1.321 -0.8608  1.2532  1.2645
  672MOL0     H88704   8.055   6.739   1.454 -2.5345  0.5453  0.4447
  673MOL0     O88705   9.879   2.609   1.201  0.3390  0.2411 -0.3340
  673MOL0     C88706   9.916   2.612   1.321  0.6984 -0.0847  0.5530
  673MOL0     O88707   9.862   2.693   1.420  0.0967 -0.1051  0.2737
  673MOL0     C88708   9.755   2.779   1.401  0.6152  0.0111 -0.5213
  673MOL0     C88709   9.764   2.893   1.481  0.1659 -0.3209  0.1303
  673MOL0     C88710   9.658   2.986   1.474  0.2140 -0.5558  0.4170
  673MOL0     C88711   9.542   2.959   1.400  0.0691  0.1453  0.3726
  673MOL0     O88712   9.451   3.060   1.405 -0.6633  0.1716 -0.0391
  673MOL0     C88713   9.313   3.031   1.372 -0.7264  0.2225  0.9836
  673MOL0     C88714   9.210   3.134   1.434  0.6375  0.3445  0.2190
  673MOL0     C88715   9.237   3.284   1.404  0.5245 -0.3213 -0.5857
  673MOL0     C88716   9.166   3.386   1.492  0.3827  0.5399  0.2113
  673MOL0     C88717   9.239   3.520   1.484  0.6219  0.0067 -0.2021
  673MOL0     C88718   9.182   3.625   1.582  0.2403 -0.7123  0.2760
  673MOL0     C88719   9.289   3.732   1.614  0.4245  0.8907 -0.1005
  673MOL0     C88720   9.248   3.825   1.735  0.0605 -0.0992  0.0848
  673MOL0     N88721   9.114   3.885   1.712  0.3905 -0.5177 -0.2899
  673MOL0     C88722   9.005   3.871   1.795 -0.2968  0.5913  0.2933
  673MOL0     C88723   8.910   3.946   1.737 -0.4314 -0.2505 -1.0341
  673MOL0     C88724   8.767   3.967   1.792 -0.1805 -0.7612 -0.2499
  673MOL0     C88725   8.669   3.855   1.751 -0.7408  0.3845  0.1894
  673MOL0     C88726   8.534   3.862   1.827 -0.1469 -0.4349 -0.0404
  673MOL0     C88727   8.431   3.761   1.777  0.2036 -0.3718  0.7491
  673MOL0     O88728   8.338   3.752   1.887 -0.1164  0.0043  0.2408
  673MOL0     C88729   8.207   3.786   1.854  0.5654 -0.3700 -0.8689
  673MOL0     C88730   8.157   3.889   1.930  0.4625  0.0969  0.0566
  673MOL0     C88731   8.030   3.937   1.894  0.6357 -0.9617  0.4623
  673MOL0     C88732   7.948   3.869   1.797  0.1852 -1.3127  0.1257
  673MOL0     C88733   7.817   3.929   1.761 -0.0698 -0.3890 -0.1323
  673MOL0     O88734   7.724   3.845   1.698 -0.5358 -0.3246 -1.1293
  673MOL0     C88735   7.614   3.906   1.640  0.3517  0.1487  0.5999
  673MOL0     C88736   7.514   3.938   1.730  1.4292  0.2671  0.7820
  673MOL0     C88737   7.398   4.004   1.677  0.4054 -0.7205 -0.3345
  673MOL0     C88738   7.378   4.008   1.535  0.2609 -0.5125  0.0297
  673MOL0     O88739   7.265   4.067   1.489 -0.0359 -0.5223  0.8263
  673MOL0     C88740   7.138   4.029   1.546  0.5671  0.0782  0.4784
  673MOL0     C88741   7.069   4.139   1.619 -0.6586  0.0347  0.8063
  673MOL0     C88742   6.917   4.132   1.596 -0.4527  0.5804 -0.7155
  673MOL0     C88743   6.857   4.019   1.686 -0.2421  0.1830 -0.6156
  673MOL0     C88744   6.708   4.011   1.668 -0.9773 -0.3828 -0.6193
  673MOL0     C88745   6.632   4.132   1.721  0.7408 -0.4186  0.6785
  673MOL0     C88746   6.473   4.105   1.710  0.5573 -0.3566 -0.1333
  673MOL0     C88747   6.422   4.131   1.574  0.6082 -0.5668  0.4816
  673MOL0    Cl88748   6.423   4.304   1.517  0.2429  0.2341 -0.3868
  673MOL0     C88749   7.483   3.978   1.446  0.5504  0.1116 -0.1442
  673MOL0     C88750   7.606   3.933   1.504 -0.8208 -0.1528  0.4078
  673MOL0     O88751   7.806   4.053   1.775  0.3578  0.6921 -0.2536
  673MOL0     C88752   8.004   3.753   1.728  0.6258 -0.5277  0.9471
  673MOL0     C88753   8.131   3.710   1.763 -0.4822 -0.5772 -0.6829
  673MOL0     N88754   8.974   4.011   1.641  0.8122 -0.8842 -0.2398
  673MOL0     N88755   9.098   3.988   1.626  0.6070  0.1662  0.4292
  673MOL0     C88756   9.535   2.835   1.332 -0.1045  0.3665  0.5867
  673MOL0     C88757   9.639   2.734   1.334  0.1741 -0.0659 -0.5789
  673MOL0     C88758  10.001   2.508   1.377  0.6588 -0.0829  1.0973
  673MOL0     C88759   9.971   2.452   1.505  0.0931  0.4065  1.1445
  673MOL0     C88760  10.044   2.355   1.548 -0.8502 -0.0317 -0.2054
  673MOL0     C88761  10.154   2.301   1.480 -0.4230  0.2322 -0.4357
  673MOL0     O88762  10.228   2.196   1.536  0.5497  0.9893  0.2724
  673MOL0     C88763  10.284   2.099   1.440 -0.0987 -0.6794 -0.7650
  673MOL0     C88764  10.292   1.970   1.516 -0.0578  0.3783 -0.1223
  673MOL0     C88765  10.429   1.949   1.576  0.3497 -0.4315  0.2706
  673MOL0     C88766  10.446   2.023   1.704  0.7025 -0.3715 -0.6140
  673MOL0     C88767  10.589   1.996   1.738  0.6119 -0.3803 -0.8482
  673MOL0     C88768  10.708   2.000   1.778 -0.5670  0.4865 -0.6703
  673MOL0     C88769  10.188   2.350   1.359  1.0482  0.5226  0.5349
  673MOL0     C88770  10.105   2.453   1.296 -0.5753 -0.1916  0.0031
  673MOL0     H88771   9.851   2.908   1.543 -0.7653  2.1834  0.9556
  673MOL0     H88772   9.665   3.085   1.519 -1.6127 -0.5086  0.6509
  673MOL0     H88773   9.278   2.931   1.401 -1.8656  0.7552  1.4960
  673MOL0     H88774   9.307   3.035   1.263 -0.1322 -1.8110  0.8321
  673MOL0     H88775   9.220   3.118   1.542  1.0647  0.5947  0.2191
  673MOL0     H88776   9.111   3.106   1.396  0.3196  3.2567 -1.3866
  673MOL0     H88777   9.220   3.298   1.296 -0.9809 -2.5898 -0.7181
  673MOL0     H88778   9.343   3.292   1.428  0.4109  0.9709 -0.4391
  673MOL0     H88779   9.064   3.421   1.474  0.2960  0.1358 -0.0829
  673MOL0     H88780   9.166   3.347   1.594  0.0067  1.1172  0.4391
  673MOL0     H88781   9.239   3.560   1.382  0.3612 -0.2757 -0.3156
  673MOL0     H88782   9.339   3.502   1.522  0.1266  1.8365  2.1973
  673MOL0     H88783   9.164   3.582   1.681 -3.4625 -1.4366 -0.5492
  673MOL0     H88784   9.087   3.669   1.548 -0.6670 -1.9800  1.1056
  673MOL0     H88785   9.386   3.687   1.635  1.3851  2.0865 -1.7628
  673MOL0     H88786   9.308   3.796   1.527 -0.1715 -1.9539 -2.4965
  673MOL0     H88787   9.313   3.910   1.758 -2.1685  1.3246  1.5294
  673MOL0     H88788   9.247   3.761   1.824  1.2042 -1.4690 -0.8347
  673MOL0     H88789   9.007   3.802   1.878 -0.7252 -1.8413 -1.6021
  673MOL0     H88790   8.729   4.064   1.757 -0.6582  0.4316  3.1338
  673MOL0     H88791   8.785   3.978   1.900 -2.0537  0.0290  0.0265
  673MOL0     H88792   8.714   3.758   1.769 -1.6851 -0.6643 -2.5098
  673MOL0     H88793   8.653   3.864   1.643  0.4646  1.2453  0.0677
  673MOL0     H88794   8.552   3.843   1.933 -1.9965 -2.0906  0.0253
  673MOL0     H88795   8.498   3.966   1.821 -1.7207 -0.9175  0.5586
  673MOL0     H88796   8.477   3.663   1.760  0.0786 -0.2817 -0.1315
  673MOL0     H88797   8.388   3.787   1.680 -0.6907 -0.0753  1.2170
  673MOL0     H88798   8.218   3.924   2.012  0.7742  0.2734 -0.2497
  673MOL0     H88799   7.988   4.011   1.961 -1.4535 -1.3920 -0.2909
  673MOL0     H88800   7.518   3.915   1.836  0.2330 -1.8731  0.4266
  673MOL0     H88801   7.321   4.029   1.748  1.4582 -0.3698  0.7220
  673MOL0     H88802   7.143   3.937   1.605 -1.2580  1.3454  2.7819
  673MOL0     H88803   7.071   3.991   1.468 -1.2001  1.1368  1.4149
  673MOL0     H88804   7.093   4.228   1.561  0.4088 -0.0742  1.0756
  673MOL0     H88805   7.106   4.146   1.722 -0.8217 -2.9325  1.1519
  673MOL0     H88806   6.905   4.110   1.490  3.3015 -1.6510 -0.8689
  673MOL0     H88807   6.879   4.226   1.638  1.6462  0.4797  1.6064
  673MOL0     H88808   6.898   3.922   1.658 -1.7119 -1.0679  1.2861
  673MOL0     H88809   6.881   4.039   1.791  1.0218  0.1842 -0.8884
  673MOL0     H88810   6.668   3.921   1.715  1.4579  0.3158  3.2488
  673MOL0     H88811   6.687   4.014   1.561  1.8249 -0.5343 -1.2525
  673MOL0     H88812   6.662   4.214   1.655 -0.2758 -0.3198  0.3178
  673MOL0     H88813   6.658   4.153   1.825  1.6193 -0.1988  0.4207
  673MOL0     H88814   6.459   4.000   1.737  1.4828  0.0559  2.2367
  673MOL0     H88815   6.426   4.163   1.790 -0.2196 -2.2139  0.8177
  673MOL0     H88816   6.322   4.087   1.566  1.5177 -2.8371  0.8007
  673MOL0     H88817   6.475   4.067   1.502 -1.6466 -1.9760 -0.0253
  673MOL0     H88818   7.477   4.001   1.341  1.8376 -0.9144 -0.4779
  673MOL0     H88819   7.689   3.903   1.442 -0.7286 -0.8950  0.8712
  673MOL0     H88820   7.950   3.691   1.656  2.2349 -0.5726 -0.2846
  673MOL0     H88821   8.161   3.617   1.715  1.9704  0.3478 -1.1065
  673MOL0     H88822   9.452   2.809   1.267 -0.1001  1.3965  0.1567
  673MOL0     H88823   9.639   2.639   1.282 -0.9644 -1.8959  2.4782
  673MOL0     H88824   9.897   2.492   1.573 -1.8804 -1.5571  0.2665
  673MOL0     H88825  10.036   2.314   1.648  0.9372 -1.4383 -0.5870
  673MOL0     H88826  10.382   2.123   1.398  2.3475 -3.2618  2.8954
  673MOL0     H88827  10.214   2.098   1.356  0.8130  1.6435 -1.6256
  673MOL0     H88828  10.210   1.959   1.588 -1.2894  2.3327 -1.1409
  673MOL0     H88829  10.282   1.893   1.439 -4.3307 -0.5427  1.0972
  673MOL0     H88830  10.505   1.984   1.506  1.7051 -0.2261  1.7600
  673MOL0     H88831  10.428   1.841   1.594 -5.7693 -0.9648 -1.2374
  673MOL0     H88832  10.424   2.130   1.695 -5.9223 -1.1989  0.3324
  673MOL0     H88833  10.393   1.990   1.794  1.3562 -1.6393 -0.6701
  673MOL0     H88834  10.810   1.997   1.810 -0.4446  2.3266 -0.7972
  673MOL0     H88835  10.279   2.305   1.319  1.9968  1.8996  1.0641
  673MOL0     H88836  10.117   2.486   1.194 -1.9023 -4.0074 -1.5716
  674MOL0     O88837   1.441   8.664  10.904  0.1216  0.1794 -0.6285
  674MOL0     C88838   1.473   8.772  10.951 -1.0592  0.4677 -0.4504
  674MOL0     O88839   1.393   8.881  10.970  0.1139 -0.0007  0.6194
  674MOL0     C88840   1.256   8.891  10.934  0.7100  0.3192  0.2302
  674MOL0     C88841   1.171   8.784  10.907 -0.2815  0.4405 -0.4129
  674MOL0     C88842   1.044   8.800  10.858 -0.7189 -1.2884  0.0745
  674MOL0     C88843   0.988   8.925  10.834  0.2341  0.2597 -0.1762
  674MOL0     O88844   0.885   8.948  10.754  0.3070  0.0508 -0.1825
  674MOL0     C88845   0.776   8.855  10.775  0.2417 -0.4613 -0.2995
  674MOL0     C88846   0.655   8.923  10.712 -0.3676  0.6910  1.0799
  674MOL0     C88847   0.536   8.829  10.752  0.6247 -0.2290  0.3005
  674MOL0     C88848   0.408   8.882  10.683 -0.6994  0.3133 -0.4710
  674MOL0     C88849   0.281   8.814  10.743  0.1223  0.5257 -0.0183
  674MOL0     C88850   0.260   8.660  10.720  0.4618 -0.3040 -0.0428
  674MOL0     C88851   0.120   8.606  10.761  0.3464 -1.0236  0.1563
  674MOL0     C88852   0.102   8.481  10.694 -0.5963  0.2333 -0.1750
  674MOL0     N88853  -0.000   8.405  10.756 -0.0942  0.0301 -0.3267
  674MOL0     C88854  -0.124   8.448  10.790  0.3534 -0.3236 -0.3825
  674MOL0     C88855  -0.190   8.342  10.842 -0.6995  0.6382 -0.1160
  674MOL0     C88856  -0.322   8.332  10.918  0.4151 -0.6421  0.9700
  674MOL0     C88857  -0.403   8.216  10.868 -0.2112 -0.6199 -0.4643
  674MOL0     C88858  -0.441   8.210  10.718 -0.6269  0.6444 -0.7835
  674MOL0     C88859  -0.530   8.320  10.663 -0.2594 -1.0705  0.1684
  674MOL0     O88860  -0.660   8.316  10.717  0.1710 -0.4321 -0.4058
  674MOL0     C88861  -0.761   8.231  10.662 -0.0161  0.2251 -0.3042
  674MOL0     C88862  -0.728   8.132  10.563  0.5000 -0.2246 -0.8207
  674MOL0     C88863  -0.834   8.066  10.507  0.4616  0.5759  0.3609
  674MOL0     C88864  -0.967   8.095  10.539  0.2012 -0.2884  0.3643
  674MOL0     C88865  -1.083   8.024  10.473  0.1625 -0.2643  0.0845
  674MOL0     O88866  -1.188   7.989  10.550 -0.0651 -0.5976  0.2634
  674MOL0     C88867  -1.286   7.922  10.489 -0.1871 -0.6371  0.5265
  674MOL0     C88868  -1.361   8.001  10.404 -0.1171 -0.2374 -0.5679
  674MOL0     C88869  -1.462   7.931  10.329  0.0041  1.1936  0.7552
  674MOL0     C88870  -1.485   7.789  10.344 -0.8095  0.5998 -0.8143
  674MOL0     O88871  -1.571   7.704  10.291  0.6551  0.0014  0.0071
  674MOL0     C88872  -1.633   7.750  10.176  0.3399  0.0121 -0.6579
  674MOL0     C88873  -1.718   7.639  10.102  0.6765 -0.0606 -0.3862
  674MOL0     C88874  -1.828   7.584  10.196 -1.2286 -0.4358  0.7627
  674MOL0     C88875  -1.941   7.507  10.144 -0.4327  0.4843  0.1133
  674MOL0     C88876  -2.061   7.464  10.233  0.5345 -0.5506  0.2573
  674MOL0     C88877  -2.024   7.414  10.369 -0.1599  0.6332 -0.0408
  674MOL0     C88878  -2.129   7.337  10.457 -0.5035 -0.2446  0.1639
  674MOL0     C88879  -2.060   7.287  10.583  0.8573 -0.7991  0.0645
  674MOL0    Cl88880  -2.142   7.134  10.637 -0.1715 -0.4439 -0.2333
  674MOL0     C88881  -1.408   7.726  10.450 -0.2255  0.0387 -0.0306
  674MOL0     C88882  -1.304   7.791  10.506 -0.0679  0.6492  0.7550
  674MOL0     O88883  -1.064   7.997  10.352 -0.0004  0.7082  0.0659
  674MOL0     C88884  -0.996   8.178  10.647 -0.3004  0.4111 -0.2033
  674MOL0     C88885  -0.889   8.251  10.704 -0.6417 -0.1012 -1.0909
  674MOL0     N88886  -0.115   8.226  10.828 -0.2245 -0.2138 -0.9412
  674MOL0     N88887  -0.000   8.267  10.774  0.4784  0.5425 -0.0242
  674MOL0     C88888   1.061   9.036  10.881 -0.5666  0.3801  0.5540
  674MOL0     C88889   1.193   9.018  10.933 -0.4048  0.3230 -0.6344
  674MOL0     C88890   1.615   8.785  11.003  0.1071  0.1249  0.1454
  674MOL0     C88891   1.712   8.684  10.990 -0.8899  0.3476  0.4307
  674MOL0     C88892   1.849   8.717  11.014  0.1237  0.7963 -1.4864
  674MOL0     C88893   1.887   8.840  11.076 -0.4286 -0.9154 -0.4708
  674MOL0     O88894   2.018   8.894  11.104  0.4669  0.3925 -0.6179
  674MOL0     C88895   2.116   8.805  11.154  0.2496 -0.0960 -0.4237
  674MOL0     C88896   2.070   8.740  11.291  0.0684 -0.2824  0.8228
  674MOL0     C88897   2.192   8.664  11.341  0.2888 -0.0193  0.2544
  674MOL0     C88898   2.159   8.593  11.473 -1.0063 -0.4943  0.1746
  674MOL0     C88899   2.105   8.679  11.570 -0.3459 -0.3194 -0.8784
  674MOL0     C88900   2.053   8.749  11.651  0.3119 -0.5884  0.0450
  674MOL0     C88901   1.781   8.931  11.099 -0.8417  0.3812  0.1231
  674MOL0     C88902   1.648   8.906  11.055 -0.2345 -0.0849 -1.7603
  674MOL0     H88903   1.205   8.682  10.921 -1.6983 -0.4588 -2.8000
  674MOL0     H88904   0.992   8.709  10.830 -3.3476  0.1217  0.0341
  674MOL0     H88905   0.753   8.837  10.881  1.1501 -0.9041 -0.1686
  674MOL0     H88906   0.801   8.761  10.725 -1.2871 -1.1672  0.1942
  674MOL0     H88907   0.662   8.933  10.603 -0.5584 -3.4495  0.5330
  674MOL0     H88908   0.638   9.018  10.763 -0.8289 -0.2939  2.8126
  674MOL0     H88909   0.519   8.835  10.860 -3.2841  2.2388 -0.2508
  674MOL0     H88910   0.563   8.727  10.725  1.2500 -0.1253  0.4971
  674MOL0     H88911   0.415   8.990  10.700  0.5355  0.0655  0.8393
  674MOL0     H88912   0.421   8.865  10.576  1.2404  0.7138 -0.3339
  674MOL0     H88913   0.200   8.863  10.689 -0.4987 -1.5970 -1.1567
  674MOL0     H88914   0.270   8.844  10.848 -1.1635  1.2067 -0.3274
  674MOL0     H88915   0.335   8.609  10.780  0.4667 -2.7173 -1.9438
  674MOL0     H88916   0.281   8.653  10.613  2.7143 -0.6415  0.3742
  674MOL0     H88917   0.115   8.605  10.870 -1.8619 -1.6804  0.1166
  674MOL0     H88918   0.038   8.671  10.729  1.7291 -0.0296 -1.5280
  674MOL0     H88919   0.191   8.417  10.692 -1.5810 -1.1751 -0.5909
  674MOL0     H88920   0.075   8.495  10.589 -1.5058 -2.5064 -0.3837
  674MOL0     H88921  -0.158   8.551  10.789 -0.4844 -0.5963 -0.4066
  674MOL0     H88922  -0.387   8.419  10.908 -0.4068 -1.3460  0.0217
  674MOL0     H88923  -0.304   8.321  11.025  2.5790  1.2379  0.8783
  674MOL0     H88924  -0.497   8.218  10.924 -0.3648 -1.9118 -0.6574
  674MOL0     H88925  -0.356   8.119  10.883  0.2673 -0.1935  0.9457
  674MOL0     H88926  -0.349   8.197  10.662 -0.5348 -2.1600 -0.1163
  674MOL0     H88927  -0.480   8.110  10.698  3.2755 -1.1619 -0.2470
  674MOL0     H88928  -0.523   8.333  10.555 -2.1756  1.4363  0.2740
  674MOL0     H88929  -0.475   8.407  10.700  3.1115 -3.0692  0.2973
  674MOL0     H88930  -0.625   8.113  10.535  0.1317 -0.3446 -2.1788
  674MOL0     H88931  -0.834   7.979  10.443 -1.5433  2.5166 -2.5368
  674MOL0     H88932  -1.337   8.105  10.380  0.0245 -0.0869  0.2121
  674MOL0     H88933  -1.514   7.987  10.251  0.4818  0.2376 -0.2837
  674MOL0     H88934  -1.563   7.785  10.100  1.2722  0.7970  0.5231
  674MOL0     H88935  -1.688   7.838  10.213  1.4524 -0.0764  1.3238
  674MOL0     H88936  -1.654   7.559  10.065  1.6867  0.3653  0.3892
  674MOL0     H88937  -1.765   7.686  10.015 -1.3698 -0.0504  0.6763
  674MOL0     H88938  -1.859   7.674  10.250  2.1126  0.1391  1.9747
  674MOL0     H88939  -1.778   7.522  10.272 -0.9045 -1.6409 -0.4064
  674MOL0     H88940  -1.987   7.555  10.056  0.8688  0.6439 -0.5028
  674MOL0     H88941  -1.893   7.417  10.105  1.2367  1.3614  0.0750
  674MOL0     H88942  -2.109   7.388  10.171  1.1438 -0.0306 -0.8888
  674MOL0     H88943  -2.133   7.546  10.242  3.0524  1.8084  0.2832
  674MOL0     H88944  -1.993   7.501  10.429  0.2749  0.6972 -0.3534
  674MOL0     H88945  -1.934   7.353  10.358  0.8011  2.0296 -0.1439
  674MOL0     H88946  -2.219   7.396  10.476 -0.4551  0.4195 -1.4470
  674MOL0     H88947  -2.140   7.247  10.395 -1.8401 -0.0971  0.1535
  674MOL0     H88948  -2.060   7.365  10.660  3.9847  1.1764 -1.6969
  674MOL0     H88949  -1.957   7.255  10.565 -0.0002 -3.7982  0.0342
  674MOL0     H88950  -1.421   7.619  10.455 -0.4545  0.1252  3.1417
  674MOL0     H88951  -1.234   7.739  10.570 -0.7748  2.4805  3.1862
  674MOL0     H88952  -1.094   8.198  10.691  0.1797  1.8626  0.2698
  674MOL0     H88953  -0.924   8.315  10.784  2.2941 -1.5085  1.5322
  674MOL0     H88954   1.025   9.139  10.884  0.8384  0.9026  0.1195
  674MOL0     H88955   1.257   9.097  10.970 -0.4022  0.8302 -1.7073
  674MOL0     H88956   1.671   8.593  10.946 -0.5244 -1.1687  3.0503
  674MOL0     H88957   1.921   8.644  10.980  0.4917  0.9461 -1.0330
  674MOL0     H88958   2.207   8.865  11.166 -0.4682  0.8873  0.2905
  674MOL0     H88959   2.139   8.733  11.075 -0.2981  1.3628 -2.0105
  674MOL0     H88960   2.034   8.818  11.359  0.0333  0.4387 -0.0023
  674MOL0     H88961   1.988   8.671  11.270 -1.3390  1.7890 -0.8862
  674MOL0     H88962   2.270   8.737  11.360  0.8997 -0.9404  1.4381
  674MOL0     H88963   2.213   8.586  11.267 -1.8946 -1.4351  1.0114
  674MOL0     H88964   2.083   8.517  11.454 -0.3044 -1.0666 -0.4175
  674MOL0     H88965   2.246   8.538  11.508  0.5536  1.6633 -0.1158
  674MOL0     H88966   2.004   8.810  11.725 -0.4698 -1.5178  0.3170
  674MOL0     H88967   1.816   9.022  11.146 -0.2840 -1.1089  2.8040
  674MOL0     H88968   1.574   8.985  11.063 -2.3707 -2.0982 -0.0447
  675MOL0     O88969   1.809   3.704   4.592  0.3895  0.3573  0.3882
  675MOL0     C88970   1.869   3.628   4.508  0.5094 -0.3640  0.0568
  675MOL0     O88971   1.811   3.571   4.397  0.0200 -0.6989 -0.3154
  675MOL0     C88972   1.681   3.605   4.359  0.3793  0.4513  0.8506
  675MOL0     C88973   1.655   3.596   4.221  0.5699  0.9906 -0.1406
  675MOL0     C88974   1.539   3.636   4.158 -0.6441 -0.2044 -1.0774
  675MOL0     C88975   1.427   3.660   4.238  0.2679  0.2478  0.0841
  675MOL0     O88976   1.312   3.692   4.178 -0.2946 -0.0051 -0.4617
  675MOL0     C88977   1.205   3.610   4.196  0.1279  0.7018  0.7648
  675MOL0     C88978   1.137   3.600   4.067 -0.3515 -0.8090 -1.2850
  675MOL0     C88979   0.992   3.557   4.088  0.9110  0.5103 -0.0808
  675MOL0     C88980   0.924   3.522   3.955 -0.5239  0.1385  0.1943
  675MOL0     C88981   0.944   3.640   3.854  0.1527 -1.0528  0.2630
  675MOL0     C88982   0.858   3.612   3.736  0.8169  0.3038 -0.1292
  675MOL0     C88983   0.713   3.654   3.764  0.6676  0.9130 -0.4190
  675MOL0     C88984   0.619   3.619   3.650  0.4817  1.2632 -0.3619
  675MOL0     N88985   0.488   3.671   3.691  0.3743 -0.2353 -0.0857
  675MOL0     C88986   0.456   3.801   3.666 -0.7493  0.9391  0.6300
  675MOL0     C88987   0.321   3.808   3.683  0.1144  0.0549  0.1805
  675MOL0     C88988   0.234   3.920   3.654  0.5286 -0.7549 -0.0693
  675MOL0     C88989   0.296   4.048   3.585 -0.7330  0.1825 -0.4313
  675MOL0     C88990   0.174   4.153   3.574 -0.7185  0.4201 -1.0490
  675MOL0     C88991   0.183   4.255   3.460 -0.9214  0.4435 -0.4532
  675MOL0     O88992   0.086   4.359   3.476  0.4078 -0.1609  0.6238
  675MOL0     C88993  -0.036   4.371   3.400 -0.4481 -1.0741 -0.1008
  675MOL0     C88994  -0.115   4.262   3.343  0.7266  0.4240 -0.3247
  675MOL0     C88995  -0.210   4.286   3.248 -0.0011 -1.5581 -0.2505
  675MOL0     C88996  -0.258   4.425   3.229  0.6522  0.8530  0.7374
  675MOL0     C88997  -0.362   4.441   3.136 -0.2812 -0.8802  0.3580
  675MOL0     O88998  -0.358   4.558   3.059 -0.6346  0.0309  0.1526
  675MOL0     C88999  -0.457   4.566   2.971  1.2136  0.1110  0.7061
  675MOL0     C89000  -0.573   4.633   3.001  0.2366  0.5649  0.1236
  675MOL0     C89001  -0.689   4.625   2.922  0.2359  0.0331  0.4068
  675MOL0     C89002  -0.679   4.587   2.791 -0.0176  0.3029 -0.4315
  675MOL0     O89003  -0.767   4.594   2.695 -1.1851 -0.2941 -0.1934
  675MOL0     C89004  -0.884   4.671   2.716 -0.2579  0.1132 -0.2985
  675MOL0     C89005  -0.957   4.679   2.585 -0.7388  0.5675  0.7100
  675MOL0     C89006  -1.046   4.551   2.568  0.0918  0.3855  0.0255
  675MOL0     C89007  -1.101   4.524   2.430 -0.4604 -0.5689  0.4151
  675MOL0     C89008  -1.233   4.611   2.402  0.9962 -0.1417  1.1792
  675MOL0     C89009  -1.295   4.576   2.267 -1.0820 -0.3841  0.6572
  675MOL0     C89010  -1.211   4.639   2.151 -0.9043 -0.3189 -0.2168
  675MOL0     C89011  -1.288   4.657   2.020 -0.1414 -0.6446 -0.2021
  675MOL0    Cl89012  -1.450   4.734   2.048 -0.0859 -0.0249 -0.3091
  675MOL0     C89013  -0.559   4.531   2.750  0.1817 -0.3335 -0.1343
  675MOL0     C89014  -0.451   4.511   2.838 -0.2278 -0.5464 -0.0395
  675MOL0     O89015  -0.434   4.344   3.120 -0.3588 -0.7486 -0.1927
  675MOL0     C89016  -0.190   4.523   3.294 -1.2577 -0.4514 -0.7123
  675MOL0     C89017  -0.073   4.503   3.358  0.0548  1.5292  0.4290
  675MOL0     N89018   0.276   3.679   3.727  0.5130 -0.1351 -0.6196
  675MOL0     N89019   0.376   3.602   3.738 -0.1547  0.1650  0.6960
  675MOL0     C89020   1.444   3.654   4.378  0.0951  0.7771  0.1501
  675MOL0     C89021   1.573   3.640   4.441  0.3221  1.2195 -0.2695
  675MOL0     C89022   2.004   3.577   4.545 -0.2873  0.8571 -0.5987
  675MOL0     C89023   2.081   3.501   4.452 -0.2806  0.0088 -0.0793
  675MOL0     C89024   2.206   3.454   4.480  0.2175  0.0231 -0.0630
  675MOL0     C89025   2.256   3.475   4.610  0.1161  0.6033  0.3882
  675MOL0     O89026   2.381   3.425   4.639  0.0807 -0.4264 -0.4309
  675MOL0     C89027   2.401   3.284   4.627 -0.1405  0.2118 -0.4838
  675MOL0     C89028   2.548   3.240   4.664 -0.9574 -0.8863  0.3534
  675MOL0     C89029   2.644   3.319   4.564  0.5559  0.5527 -0.1345
  675MOL0     C89030   2.632   3.253   4.426 -0.6530 -0.1074 -0.9092
  675MOL0     C89031   2.683   3.352   4.334  0.5028  0.7715 -0.1376
  675MOL0     C89032   2.724   3.429   4.253  0.2004 -0.0922 -0.0336
  675MOL0     C89033   2.185   3.550   4.701 -0.1834  0.3786  0.6556
  675MOL0     C89034   2.062   3.599   4.671  0.3964 -0.0307 -0.7163
  675MOL0     H89035   1.733   3.570   4.150  0.0702 -1.3925  0.0908
  675MOL0     H89036   1.533   3.652   4.051  0.1922 -2.0262 -1.4405
  675MOL0     H89037   1.149   3.669   4.269 -1.4002 -1.2591  1.2445
  675MOL0     H89038   1.237   3.510   4.226 -0.7178  0.7467  1.8711
  675MOL0     H89039   1.186   3.521   4.010  0.9572 -0.2946 -0.8995
  675MOL0     H89040   1.136   3.692   4.006 -0.0575 -0.3783 -0.6467
  675MOL0     H89041   0.932   3.640   4.127 -0.8898  0.1735 -1.9829
  675MOL0     H89042   0.989   3.478   4.163  2.2635  0.2892 -0.2315
  675MOL0     H89043   0.968   3.434   3.907 -1.0705 -0.3428  0.5564
  675MOL0     H89044   0.819   3.506   3.979 -1.6229  3.2931 -1.9673
  675MOL0     H89045   1.044   3.640   3.808 -0.9651 -0.8213 -2.3735
  675MOL0     H89046   0.925   3.740   3.893  2.4756 -0.2896 -0.3525
  675MOL0     H89047   0.849   3.508   3.704  2.7330 -0.0768  0.4450
  675MOL0     H89048   0.897   3.671   3.652  2.2566  1.5501  1.3452
  675MOL0     H89049   0.679   3.601   3.853  3.3982 -2.9987 -1.4187
  675MOL0     H89050   0.710   3.761   3.787  1.8400  0.7360  0.6581
  675MOL0     H89051   0.602   3.512   3.634 -1.9819  1.5243  0.0505
  675MOL0     H89052   0.662   3.661   3.559  1.5820  0.0611 -0.4302
  675MOL0     H89053   0.518   3.882   3.631 -2.1434  2.0223  0.5854
  675MOL0     H89054   0.194   3.959   3.748  3.1526  1.5376  0.2138
  675MOL0     H89055   0.143   3.880   3.607 -0.8175  1.9271  0.0492
  675MOL0     H89056   0.321   4.019   3.483 -0.7302  0.0461 -0.3914
  675MOL0     H89057   0.380   4.091   3.640  0.7515 -2.4151 -0.5179
  675MOL0     H89058   0.079   4.099   3.570 -0.6009  0.0306  0.6054
  675MOL0     H89059   0.178   4.214   3.665 -1.6118 -0.9514 -0.0623
  675MOL0     H89060   0.163   4.202   3.367 -0.3128  1.6662 -1.3147
  675MOL0     H89061   0.281   4.302   3.453 -0.3933 -0.2264  1.6641
  675MOL0     H89062  -0.089   4.158   3.354 -0.7649 -0.0617 -1.1631
  675MOL0     H89063  -0.254   4.197   3.205 -1.1562 -0.4433 -1.4464
  675MOL0     H89064  -0.557   4.691   3.092  2.9982  0.1512 -0.0156
  675MOL0     H89065  -0.780   4.670   2.960  2.5881  2.4338  3.6741
  675MOL0     H89066  -0.850   4.771   2.742 -2.8761  1.9201 -3.0904
  675MOL0     H89067  -0.944   4.627   2.796 -1.4693 -2.5845 -2.4904
  675MOL0     H89068  -0.886   4.685   2.502 -2.4820 -0.5208 -0.9556
  675MOL0     H89069  -1.026   4.764   2.582 -0.5725  0.6887  0.1157
  675MOL0     H89070  -1.135   4.548   2.632  0.6897 -2.0911  0.8878
  675MOL0     H89071  -1.003   4.453   2.594  1.6640  1.2941  1.0057
  675MOL0     H89072  -1.023   4.542   2.355 -0.0267 -0.4164  0.8996
  675MOL0     H89073  -1.129   4.419   2.416  0.6214 -0.7838 -0.2491
  675MOL0     H89074  -1.207   4.717   2.406 -0.3244  0.3145 -0.6537
  675MOL0     H89075  -1.306   4.584   2.479  0.0732 -2.3601 -0.3565
  675MOL0     H89076  -1.391   4.626   2.279 -0.4384  0.6595  1.6255
  675MOL0     H89077  -1.303   4.470   2.242 -0.1645 -1.0117  2.7955
  675MOL0     H89078  -1.172   4.733   2.192 -0.7064 -1.0118  1.2662
  675MOL0     H89079  -1.117   4.591   2.121 -0.0643  1.5846 -0.7843
  675MOL0     H89080  -1.302   4.566   1.961 -4.2422  0.6555 -1.5391
  675MOL0     H89081  -1.217   4.724   1.970 -2.0091  0.3083 -1.6916
  675MOL0     H89082  -0.541   4.503   2.647 -0.4744 -0.6312 -0.1748
  675MOL0     H89083  -0.361   4.468   2.794  0.2873 -1.8725  2.0948
  675MOL0     H89084  -0.209   4.630   3.294  1.2200  0.0666  0.8024
  675MOL0     H89085  -0.009   4.585   3.392 -0.2477  1.6458  0.7192
  675MOL0     H89086   1.358   3.679   4.439 -0.0897 -0.0487  0.2344
  675MOL0     H89087   1.567   3.651   4.549  1.7965 -0.0708 -0.0133
  675MOL0     H89088   2.031   3.489   4.356 -0.1038  2.3803 -0.5207
  675MOL0     H89089   2.267   3.406   4.404 -0.0437  0.9317 -0.8591
  675MOL0     H89090   2.382   3.255   4.523  3.3213 -0.1350 -1.1673
  675MOL0     H89091   2.323   3.240   4.690 -2.0163  1.3235 -1.9308
  675MOL0     H89092   2.581   3.259   4.767  0.4896  1.5765 -0.4863
  675MOL0     H89093   2.561   3.133   4.646  2.1422 -0.6443  0.5606
  675MOL0     H89094   2.746   3.307   4.602  0.8962  3.0878 -0.0576
  675MOL0     H89095   2.610   3.422   4.579 -1.9055 -0.2756  0.4445
  675MOL0     H89096   2.710   3.176   4.438  0.3360  0.9529 -0.3138
  675MOL0     H89097   2.532   3.219   4.400 -0.7497 -0.8919  0.3936
  675MOL0     H89098   2.768   3.484   4.172 -1.8913 -0.6868 -1.6661
  675MOL0     H89099   2.234   3.579   4.793  2.8987  3.0648 -1.6015
  675MOL0     H89100   1.991   3.655   4.731  0.2019 -0.8879 -0.1241
  676MOL0     O89101   2.325   7.199  11.285  0.2651  0.1328 -0.5028
  676MOL0     C89102   2.276   7.107  11.219 -0.3161 -0.3281  0.6660
  676MOL0     O89103   2.170   7.118  11.135 -0.3134  0.7552  0.0878
  676MOL0     C89104   2.084   7.229  11.164  1.2004 -0.2657 -0.3221
  676MOL0     C89105   2.003   7.274  11.068  0.7263 -0.5024  0.8172
  676MOL0     C89106   1.904   7.371  11.091 -0.2035 -0.9354  0.7724
  676MOL0     C89107   1.884   7.421  11.219 -0.8222  0.6134 -0.0264
  676MOL0     O89108   1.790   7.516  11.231 -0.2005 -0.3692  0.1278
  676MOL0     C89109   1.710   7.494  11.346  0.7591 -0.6495 -0.6340
  676MOL0     C89110   1.637   7.630  11.379 -0.1305 -0.8283 -0.3765
  676MOL0     C89111   1.543   7.600  11.489  0.0448 -1.0503 -0.1868
  676MOL0     C89112   1.436   7.717  11.517 -0.5546 -0.3121 -0.3997
  676MOL0     C89113   1.344   7.692  11.632  0.5382 -0.4804  0.6479
  676MOL0     C89114   1.290   7.551  11.635  0.2163 -0.3705 -0.2837
  676MOL0     C89115   1.159   7.541  11.722  0.1945  0.1391 -0.7628
  676MOL0     C89116   1.129   7.401  11.758  0.9911  0.5512 -0.0233
  676MOL0     N89117   0.987   7.369  11.783  0.4388  0.0612  0.4407
  676MOL0     C89118   0.924   7.244  11.791  0.3167  1.2070  0.1125
  676MOL0     C89119   0.812   7.276  11.854 -0.1156  0.2951  0.0008
  676MOL0     C89120   0.709   7.178  11.899 -0.9164  0.1870 -0.1116
  676MOL0     C89121   0.635   7.140  11.770  0.4948  1.0805  0.3235
  676MOL0     C89122   0.558   7.002  11.782 -0.5066  0.1029 -0.0538
  676MOL0     C89123   0.447   7.023  11.888  0.5645 -0.0896  0.8891
  676MOL0     O89124   0.378   6.903  11.911  0.3133  0.3126  0.4637
  676MOL0     C89125   0.258   6.906  11.986  0.1545 -0.0359 -0.2770
  676MOL0     C89126   0.170   6.804  11.966 -1.2572  0.7310 -0.3139
  676MOL0     C89127   0.059   6.792  12.045 -0.2988 -0.8390  0.3065
  676MOL0     C89128   0.012   6.899  12.130  0.4119  0.6797 -0.6113
  676MOL0     C89129  -0.121   6.888  12.191 -0.1118 -0.4376  0.1511
  676MOL0     O89130  -0.205   6.784  12.149 -0.4917 -0.9049 -0.0328
  676MOL0     C89131  -0.335   6.793  12.180  0.8543 -0.6648  0.1301
  676MOL0     C89132  -0.378   6.753  12.309 -0.0305 -0.2722 -0.2336
  676MOL0     C89133  -0.511   6.766  12.342  0.5059 -0.2712  0.0254
  676MOL0     C89134  -0.606   6.799  12.254 -0.2023  0.6103  0.0372
  676MOL0     O89135  -0.738   6.789  12.302 -0.2442 -0.0587  0.3816
  676MOL0     C89136  -0.827   6.896  12.273 -0.9933  0.3436  0.1093
  676MOL0     C89137  -0.964   6.842  12.312  0.7425 -0.2318 -0.2816
  676MOL0     C89138  -0.995   6.846  12.462 -0.1049  0.9341 -0.4547
  676MOL0     C89139  -0.928   6.725  12.529  0.3152 -0.0479 -0.5917
  676MOL0     C89140  -0.976   6.683  12.672 -0.1754  1.1002  0.0922
  676MOL0     C89141  -0.889   6.571  12.732 -0.0245 -0.3873 -0.0823
  676MOL0     C89142  -0.908   6.560  12.881 -0.1201 -0.0981 -0.0007
  676MOL0     C89143  -0.873   6.415  12.931  0.6471  0.1785  0.4903
  676MOL0    Cl89144  -1.006   6.297  12.916  0.4222 -0.2167  0.0782
  676MOL0     C89145  -0.563   6.839  12.120  0.1662  0.1452  0.3533
  676MOL0     C89146  -0.430   6.844  12.091 -0.5257 -0.4880  0.1471
  676MOL0     O89147  -0.154   6.983  12.270 -0.0283 -0.3818  0.2887
  676MOL0     C89148   0.096   7.014  12.144  0.7565  0.6856  0.4744
  676MOL0     C89149   0.221   7.012  12.075 -0.2924  0.1320  0.2254
  676MOL0     N89150   0.792   7.407  11.858 -0.0821 -0.3890 -0.4689
  676MOL0     N89151   0.901   7.467  11.836 -0.2591  0.4487 -0.1177
  676MOL0     C89152   1.969   7.373  11.317  0.0301 -0.2761  0.0912
  676MOL0     C89153   2.064   7.274  11.292  0.5984 -0.0554 -0.6463
  676MOL0     C89154   2.337   6.974  11.234  0.2531  0.0277  0.3622
  676MOL0     C89155   2.251   6.864  11.217 -0.2058  0.5643  0.5120
  676MOL0     C89156   2.284   6.734  11.247 -1.1539  0.0307 -0.0632
  676MOL0     C89157   2.421   6.711  11.258  0.7416 -0.1076 -0.3146
  676MOL0     O89158   2.455   6.578  11.257 -0.1688 -0.8086 -0.6677
  676MOL0     C89159   2.583   6.539  11.204 -0.3827  0.5258 -0.8205
  676MOL0     C89160   2.620   6.574  11.063 -0.6780  0.2959  0.8495
  676MOL0     C89161   2.768   6.536  11.035 -0.2520  0.1835  0.4357
  676MOL0     C89162   2.817   6.585  10.901 -0.2816  1.2530  0.1679
  676MOL0     C89163   2.762   6.507  10.788  0.3409 -0.2326  0.0363
  676MOL0     C89164   2.731   6.441  10.689  0.6612 -1.2308 -0.0811
  676MOL0     C89165   2.519   6.815  11.269 -0.6313  0.1749  0.8429
  676MOL0     C89166   2.470   6.950  11.265  0.4036 -0.1132 -0.3839
  676MOL0     H89167   2.006   7.223  10.972 -2.8798 -0.0233  0.3097
  676MOL0     H89168   1.839   7.409  11.012  0.9076 -1.1738 -0.2943
  676MOL0     H89169   1.758   7.453  11.435  1.3794 -0.5427 -0.9121
  676MOL0     H89170   1.635   7.422  11.310 -0.6462  0.5509 -0.2187
  676MOL0     H89171   1.588   7.677  11.293 -0.0161 -1.2766 -0.6900
  676MOL0     H89172   1.717   7.698  11.410 -0.4275 -0.7906  0.3225
  676MOL0     H89173   1.610   7.572  11.571  0.9449 -2.2163 -1.2821
  676MOL0     H89174   1.477   7.516  11.467 -1.0519 -0.2746  0.0465
  676MOL0     H89175   1.469   7.821  11.525  1.2644 -0.6458 -2.6379
  676MOL0     H89176   1.381   7.733  11.424  0.7676  0.5979 -1.0535
  676MOL0     H89177   1.261   7.762  11.620 -0.8806 -1.8769  1.8012
  676MOL0     H89178   1.398   7.722  11.722  0.0845 -0.3301  0.8738
  676MOL0     H89179   1.374   7.504  11.686  3.3035  4.1329 -0.6789
  676MOL0     H89180   1.267   7.514  11.534  1.8157  0.7786 -1.1044
  676MOL0     H89181   1.178   7.605  11.809  0.7129 -1.3721  0.2620
  676MOL0     H89182   1.074   7.586  11.670 -0.3849 -1.3123 -1.1026
  676MOL0     H89183   1.187   7.385  11.850  1.8317 -0.2219 -0.6679
  676MOL0     H89184   1.163   7.334  11.679  0.4431  1.9426 -1.4846
  676MOL0     H89185   0.956   7.143  11.768 -3.4501  0.2852 -1.7417
  676MOL0     H89186   0.641   7.221  11.973 -3.4233 -2.5056 -0.6710
  676MOL0     H89187   0.764   7.094  11.944  1.1180  1.3775 -0.2371
  676MOL0     H89188   0.705   7.116  11.689  0.5896  3.0156 -0.2171
  676MOL0     H89189   0.579   7.222  11.726 -0.3639 -0.2559 -1.1847
  676MOL0     H89190   0.521   6.972  11.684 -0.9140  1.1064 -0.2166
  676MOL0     H89191   0.637   6.933  11.814 -1.1881 -1.0657 -0.8076
  676MOL0     H89192   0.386   7.108  11.854  0.1764  0.2656  2.3746
  676MOL0     H89193   0.496   7.058  11.979  0.3710 -0.8471  1.2957
  676MOL0     H89194   0.186   6.728  11.889  3.0735  2.0255 -0.9286
  676MOL0     H89195  -0.001   6.703  12.030  0.9971 -1.7366  0.2706
  676MOL0     H89196  -0.302   6.702  12.369 -2.1555 -1.0348  1.9701
  676MOL0     H89197  -0.542   6.756  12.445 -2.8839 -2.8784 -1.0798
  676MOL0     H89198  -0.825   6.931  12.170  0.6210  5.7019  1.6482
  676MOL0     H89199  -0.796   6.976  12.341  0.7252  0.4145 -0.7192
  676MOL0     H89200  -0.986   6.739  12.281  2.2469 -0.4705 -0.6711
  676MOL0     H89201  -1.030   6.915  12.264  2.5411 -0.6998 -3.7995
  676MOL0     H89202  -1.103   6.831  12.464  0.0518 -0.1922  0.5193
  676MOL0     H89203  -0.971   6.941  12.510 -1.0367  1.2415 -0.5870
  676MOL0     H89204  -0.953   6.640  12.465 -2.2964  1.0651 -1.1839
  676MOL0     H89205  -0.820   6.741  12.531  0.4625 -0.6789  2.7980
  676MOL0     H89206  -1.079   6.648  12.672  0.3434 -0.6290  2.1160
  676MOL0     H89207  -0.962   6.770  12.737 -0.7078 -0.9190  3.0707
  676MOL0     H89208  -0.783   6.596  12.720 -0.2021  0.2177 -0.4810
  676MOL0     H89209  -0.902   6.476  12.681  1.6594  0.6347 -2.6135
  676MOL0     H89210  -0.868   6.645  12.938  0.4856 -0.6840  0.4642
  676MOL0     H89211  -1.016   6.570  12.892 -0.5488 -2.8843 -0.8373
  676MOL0     H89212  -0.852   6.420  13.038  2.4163  2.0123  0.1177
  676MOL0     H89213  -0.786   6.366  12.888  0.2164  0.1342 -0.3461
  676MOL0     H89214  -0.640   6.859  12.046 -2.8667 -0.0822  3.2261
  676MOL0     H89215  -0.404   6.878  11.990 -2.2451  1.1647  0.2033
  676MOL0     H89216   0.063   7.100  12.201  1.3645  0.4163  1.2419
  676MOL0     H89217   0.285   7.099  12.090  0.9823 -0.8451  0.5486
  676MOL0     H89218   1.975   7.410  11.419  3.7018  0.6781 -0.3060
  676MOL0     H89219   2.115   7.245  11.383 -0.0964 -3.0814 -1.1084
  676MOL0     H89220   2.148   6.877  11.185 -0.3894 -1.6155  0.0513
  676MOL0     H89221   2.206   6.659  11.251  0.9631 -2.2626  3.1526
  676MOL0     H89222   2.577   6.429  11.203  4.2892  0.0604 -2.0043
  676MOL0     H89223   2.665   6.565  11.271 -0.7582 -2.6957  1.1300
  676MOL0     H89224   2.552   6.521  10.996 -1.5492  0.6340  1.4467
  676MOL0     H89225   2.606   6.682  11.052  0.9280  0.6041  1.4122
  676MOL0     H89226   2.789   6.428  11.041  0.2167  0.2476 -0.0196
  676MOL0     H89227   2.836   6.588  11.103  0.4446 -0.0536 -0.0680
  676MOL0     H89228   2.790   6.691  10.896 -0.3929  1.2220  0.0973
  676MOL0     H89229   2.926   6.577  10.906 -0.4484 -2.3971  0.8158
  676MOL0     H89230   2.693   6.365  10.624 -0.2052 -0.8326 -0.0579
  676MOL0     H89231   2.628   6.807  11.265 -0.3775  2.8564  0.3700
  676MOL0     H89232   2.536   7.035  11.278 -1.2287  1.2229 -0.4550
  677MOL0     O89233   1.084   8.085   4.693  0.5095  0.3253  0.0248
  677MOL0     C89234   1.176   8.020   4.641  0.4424  0.0204 -0.5435
  677MOL0     O89235   1.167   7.956   4.532 -0.6975  0.4523 -0.0865
  677MOL0     C89236   1.046   7.962   4.464  0.3530 -0.1293 -0.7080
  677MOL0     C89237   1.031   8.057   4.358  0.0860 -0.5582  0.1482
  677MOL0     C89238   0.910   8.067   4.289 -0.1820 -1.0816  0.1104
  677MOL0     C89239   0.801   7.979   4.326 -0.3918  0.2290  0.4497
  677MOL0     O89240   0.684   7.989   4.254 -0.7976 -0.7209  0.7101
  677MOL0     C89241   0.556   7.954   4.317 -0.6518 -0.1982 -0.1664
  677MOL0     C89242   0.508   7.825   4.258 -0.3853  0.4898 -0.8550
  677MOL0     C89243   0.374   7.771   4.321  0.0853 -0.9716  0.1089
  677MOL0     C89244   0.327   7.646   4.243 -0.1198  0.2062  0.4934
  677MOL0     C89245   0.171   7.643   4.263  0.7695 -0.0310  0.0105
  677MOL0     C89246   0.094   7.752   4.194 -0.6819  0.1743 -0.2462
  677MOL0     C89247  -0.036   7.689   4.143 -0.4790  0.4556 -0.2967
  677MOL0     C89248  -0.120   7.600   4.241 -0.1952  0.0257 -0.0460
  677MOL0     N89249  -0.252   7.575   4.185 -0.1023 -0.7471 -0.0422
  677MOL0     C89250  -0.359   7.569   4.260 -0.4983 -0.4245  0.0996
  677MOL0     C89251  -0.456   7.526   4.187  0.1132  0.3203  0.3850
  677MOL0     C89252  -0.604   7.480   4.212 -0.9830  0.4965 -0.6371
  677MOL0     C89253  -0.700   7.607   4.203  0.5893 -0.5107  0.7583
  677MOL0     C89254  -0.663   7.732   4.297 -0.4415 -0.0286  0.2679
  677MOL0     C89255  -0.698   7.690   4.440  0.8678 -0.3513 -0.4240
  677MOL0     O89256  -0.682   7.805   4.532  0.8087 -0.3389 -0.1453
  677MOL0     C89257  -0.812   7.868   4.540 -0.3576  1.0983  0.0916
  677MOL0     C89258  -0.858   7.959   4.443 -1.0462 -0.0738  0.4995
  677MOL0     C89259  -0.987   8.015   4.456 -0.1948  0.2906  0.4225
  677MOL0     C89260  -1.059   7.995   4.576  0.3637  0.0494 -0.2830
  677MOL0     C89261  -1.196   8.051   4.598 -0.6243  0.0245 -0.5498
  677MOL0     O89262  -1.236   8.055   4.730 -0.2224  0.3934 -0.4685
  677MOL0     C89263  -1.375   8.070   4.752 -0.4557 -1.1717 -1.5373
  677MOL0     C89264  -1.434   8.004   4.862 -1.0216  0.0525  0.0573
  677MOL0     C89265  -1.562   8.026   4.908 -0.4092 -0.1980 -0.3671
  677MOL0     C89266  -1.643   8.129   4.847  0.0721  0.6555  0.8783
  677MOL0     O89267  -1.774   8.158   4.887  0.1427 -0.0448 -0.1631
  677MOL0     C89268  -1.868   8.207   4.789  0.2421 -0.3587  0.3620
  677MOL0     C89269  -2.014   8.183   4.836  0.7490  0.3095 -0.1247
  677MOL0     C89270  -2.074   8.041   4.804 -0.8008 -0.2609  0.1859
  677MOL0     C89271  -2.212   8.024   4.863 -0.1039  1.0173  0.3729
  677MOL0     C89272  -2.286   7.908   4.798 -0.6569  0.6367 -0.8112
  677MOL0     C89273  -2.427   7.889   4.852  0.1926  0.6446  0.2513
  677MOL0     C89274  -2.489   7.755   4.790 -0.2647  0.1558  0.2193
  677MOL0     C89275  -2.569   7.779   4.661  0.7756 -1.3469 -0.7143
  677MOL0    Cl89276  -2.702   7.896   4.682 -0.3866 -0.3179 -0.0117
  677MOL0     C89277  -1.586   8.197   4.737  0.4294  0.4794 -0.5143
  677MOL0     C89278  -1.449   8.175   4.699 -0.0314 -0.1598 -0.7804
  677MOL0     O89279  -1.269   8.058   4.500  0.0684  0.1030 -0.3609
  677MOL0     C89280  -1.014   7.907   4.679 -0.7606 -0.4038  0.3175
  677MOL0     C89281  -0.886   7.849   4.659 -0.4567  0.1888  0.1489
  677MOL0     N89282  -0.407   7.517   4.060 -0.0408 -0.4796  0.1398
  677MOL0     N89283  -0.275   7.536   4.061  0.5747 -0.5353  0.8669
  677MOL0     C89284   0.823   7.880   4.423  0.7001  0.5764 -0.2458
  677MOL0     C89285   0.946   7.872   4.489  0.7816 -0.1602  0.0935
  677MOL0     C89286   1.309   8.017   4.709  0.8169  0.2844 -0.4907
  677MOL0     C89287   1.328   8.103   4.819  0.6956 -0.6528 -0.0331
  677MOL0     C89288   1.457   8.122   4.871  0.4972  1.1231  0.7334
  677MOL0     C89289   1.563   8.054   4.831 -0.1841 -0.3621  0.3520
  677MOL0     O89290   1.684   8.087   4.897 -0.7264 -0.2115 -0.0226
  677MOL0     C89291   1.802   8.010   4.880 -0.3973  0.6412 -0.0848
  677MOL0     C89292   1.814   7.913   4.998 -0.0857 -0.5436 -0.0422
  677MOL0     C89293   1.939   7.830   4.984 -0.1139 -0.2217 -0.6167
  677MOL0     C89294   1.941   7.714   4.889 -0.1963 -0.5855  0.5578
  677MOL0     C89295   1.826   7.623   4.910  0.3639 -0.4361 -0.9290
  677MOL0     C89296   1.745   7.542   4.928 -0.0054 -0.1734  0.2014
  677MOL0     C89297   1.546   7.956   4.735  0.1244 -0.2647  0.3595
  677MOL0     C89298   1.422   7.936   4.673 -0.6105  0.4234  0.8144
  677MOL0     H89299   1.113   8.127   4.343 -1.3177  1.2497  0.5062
  677MOL0     H89300   0.906   8.143   4.211  3.8230  3.2524  3.5581
  677MOL0     H89301   0.484   8.034   4.295 -0.8092 -0.2861  0.0217
  677MOL0     H89302   0.549   7.950   4.426  0.9094  0.7474 -0.0011
  677MOL0     H89303   0.583   7.746   4.268  1.7096  2.4506 -0.0587
  677MOL0     H89304   0.504   7.836   4.149 -3.3655 -3.1419 -1.3057
  677MOL0     H89305   0.300   7.851   4.314  2.5596  1.5843  1.2269
  677MOL0     H89306   0.383   7.733   4.423 -1.0970 -4.8425 -1.0631
  677MOL0     H89307   0.330   7.659   4.135 -2.4979  2.5631  0.5925
  677MOL0     H89308   0.380   7.556   4.274  2.0801  0.8195 -1.2183
  677MOL0     H89309   0.159   7.651   4.371  2.7504  5.7273  0.2056
  677MOL0     H89310   0.156   7.546   4.217  0.9446 -0.0804  0.0572
  677MOL0     H89311   0.155   7.792   4.112  0.3101  0.3936  0.5867
  677MOL0     H89312   0.072   7.825   4.272  1.8470 -0.5710  1.2955
  677MOL0     H89313  -0.089   7.767   4.086  4.7345  3.1957 -2.0213
  677MOL0     H89314  -0.015   7.618   4.063 -3.3106  2.7623 -3.3797
  677MOL0     H89315  -0.124   7.635   4.344 -1.7524  1.7555 -0.6385
  677MOL0     H89316  -0.070   7.503   4.248 -1.1619 -0.4169  0.7771
  677MOL0     H89317  -0.357   7.595   4.366 -0.8719 -1.5839  0.4106
  677MOL0     H89318  -0.609   7.426   4.306  4.7764 -1.4859 -1.0646
  677MOL0     H89319  -0.633   7.412   4.131 -0.7851 -0.5027  0.1239
  677MOL0     H89320  -0.799   7.568   4.229 -0.6969 -1.1498 -4.2416
  677MOL0     H89321  -0.710   7.634   4.098 -1.1097  2.8185  1.6266
  677MOL0     H89322  -0.559   7.765   4.286 -0.0074 -0.3464  2.8047
  677MOL0     H89323  -0.730   7.809   4.258  0.1018  0.0823 -0.4714
  677MOL0     H89324  -0.639   7.602   4.467 -1.0689 -0.7224  3.2029
  677MOL0     H89325  -0.801   7.657   4.454  0.8846  0.3635  1.8897
  677MOL0     H89326  -0.809   7.995   4.352 -1.1873  1.1441  0.8795
  677MOL0     H89327  -1.019   8.083   4.378  1.7292  1.3749  0.5136
  677MOL0     H89328  -1.361   7.946   4.917 -0.1904 -0.5987 -1.6480
  677MOL0     H89329  -1.588   7.975   5.000  3.2813  1.6696  1.9457
  677MOL0     H89330  -1.846   8.152   4.698  1.9695  0.6517  0.1213
  677MOL0     H89331  -1.854   8.315   4.774  1.0125 -0.4616  0.2945
  677MOL0     H89332  -2.072   8.257   4.780 -2.8133 -1.0618  1.4347
  677MOL0     H89333  -2.018   8.214   4.941  1.2673  5.2312 -1.3226
  677MOL0     H89334  -2.009   7.966   4.850 -1.7452 -1.4103 -0.2975
  677MOL0     H89335  -2.067   8.024   4.696 -1.5383 -1.3591  0.2879
  677MOL0     H89336  -2.205   8.003   4.970  2.0058 -0.5307 -0.0106
  677MOL0     H89337  -2.271   8.111   4.831  1.7045  1.5852 -1.6899
  677MOL0     H89338  -2.221   7.822   4.817 -0.5941  1.1778  1.7916
  677MOL0     H89339  -2.297   7.921   4.690 -2.8287  2.9893 -0.4202
  677MOL0     H89340  -2.485   7.977   4.824  0.8477  0.3334 -2.4365
  677MOL0     H89341  -2.430   7.879   4.960 -0.3105 -2.9013  0.0183
  677MOL0     H89342  -2.408   7.690   4.757 -0.1507 -0.1703  1.1085
  677MOL0     H89343  -2.546   7.703   4.868  0.4353  0.2621  0.8088
  677MOL0     H89344  -2.614   7.683   4.634 -0.5936 -0.8537 -0.2433
  677MOL0     H89345  -2.501   7.814   4.582  1.7572 -0.4515  0.4874
  677MOL0     H89346  -1.640   8.276   4.687 -0.4167 -0.0922 -0.5349
  677MOL0     H89347  -1.405   8.241   4.624 -1.9587 -2.3359 -4.0750
  677MOL0     H89348  -1.071   7.877   4.766  0.4256 -2.6948  0.3775
  677MOL0     H89349  -0.857   7.788   4.744 -2.6410 -0.1834  0.6878
  677MOL0     H89350   0.753   7.798   4.437  2.2653 -0.4393  2.4218
  677MOL0     H89351   0.974   7.802   4.568  1.4630  0.5369  0.4801
  677MOL0     H89352   1.253   8.175   4.853 -0.2100  0.6706 -4.2362
  677MOL0     H89353   1.473   8.193   4.952 -0.2987 -1.2650  3.1296
  677MOL0     H89354   1.889   8.076   4.885  1.1890 -1.3470 -0.0954
  677MOL0     H89355   1.804   7.952   4.787 -1.3835 -1.5941  1.2134
  677MOL0     H89356   1.829   7.970   5.091 -3.8645  1.6656 -0.5739
  677MOL0     H89357   1.724   7.852   5.007 -0.6039 -0.8474 -4.9378
  677MOL0     H89358   1.953   7.792   5.086 -2.0600  0.8028  0.0852
  677MOL0     H89359   2.025   7.890   4.957  1.9668 -2.3650  0.8114
  677MOL0     H89360   1.943   7.740   4.783  1.1697 -2.2448  0.1414
  677MOL0     H89361   2.034   7.657   4.902 -0.1112 -0.6689 -0.3444
  677MOL0     H89362   1.665   7.471   4.930  1.0338 -1.3591  1.9269
  677MOL0     H89363   1.627   7.890   4.704 -0.6142 -2.0545  2.0739
  677MOL0     H89364   1.416   7.865   4.591  2.2219 -0.1680  1.0035
  678MOL0     O89365   4.907   0.606   3.801 -0.1175 -0.8617  0.2895
  678MOL0     C89366   4.955   0.617   3.688  0.5562  0.4810  0.7318
  678MOL0     O89367   4.905   0.558   3.572  0.5804 -0.3374 -0.4153
  678MOL0     C89368   4.789   0.475   3.578  0.0979 -0.6536 -0.5964
  678MOL0     C89369   4.794   0.343   3.626 -0.5901  0.4548  0.4339
  678MOL0     C89370   4.680   0.258   3.635 -0.5193  0.9237 -0.0150
  678MOL0     C89371   4.552   0.307   3.600  0.5258  0.6869 -0.5343
  678MOL0     O89372   4.445   0.229   3.611  0.1763  0.5236  0.2407
  678MOL0     C89373   4.324   0.252   3.545  0.1108 -0.0240 -0.2725
  678MOL0     C89374   4.233   0.128   3.557 -0.2648 -0.3949  0.1626
  678MOL0     C89375   4.240   0.029   3.428  0.7674 -0.3394  0.2264
  678MOL0     C89376   4.134  -0.078   3.454 -0.3049  0.9746 -0.5653
  678MOL0     C89377   4.003  -0.041   3.375 -0.1555 -0.2299 -0.0287
  678MOL0     C89378   3.888  -0.114   3.438 -0.2995  0.2316 -0.3637
  678MOL0     C89379   3.757  -0.102   3.360 -0.2205 -0.2063  0.4906
  678MOL0     C89380   3.627  -0.106   3.444  0.6266  0.3003  0.9993
  678MOL0     N89381   3.508  -0.105   3.351  0.2253 -0.1990  0.0438
  678MOL0     C89382   3.395  -0.045   3.390 -0.8624 -0.6218  0.1127
  678MOL0     C89383   3.313  -0.075   3.288  0.9833  0.4676 -0.8002
  678MOL0     C89384   3.160  -0.056   3.288 -0.0820  0.2747 -0.3854
  678MOL0     C89385   3.108   0.063   3.198  0.3521  0.8469  0.4727
  678MOL0     C89386   2.966   0.105   3.247 -0.2044 -0.0656  0.0256
  678MOL0     C89387   2.961   0.199   3.359 -0.0294 -0.0136  1.0080
  678MOL0     O89388   2.838   0.209   3.430 -0.0490  0.7897  0.2853
  678MOL0     C89389   2.718   0.263   3.386 -0.7409 -0.7169  0.2140
  678MOL0     C89390   2.605   0.254   3.465 -0.0886 -0.0535 -0.1574
  678MOL0     C89391   2.483   0.290   3.414 -0.2126 -0.6763 -0.1812
  678MOL0     C89392   2.476   0.340   3.280  0.3958  0.4977  0.3927
  678MOL0     C89393   2.346   0.373   3.212  0.5246 -0.7151  0.6165
  678MOL0     O89394   2.340   0.462   3.109 -0.4495 -0.2251  0.2704
  678MOL0     C89395   2.224   0.515   3.078 -0.8584 -0.1084 -0.0003
  678MOL0     C89396   2.115   0.449   3.021  0.1601  0.7081 -0.4354
  678MOL0     C89397   2.002   0.519   2.980  0.1060 -1.0000  0.7255
  678MOL0     C89398   1.982   0.645   3.029  0.2358 -1.3254  0.0182
  678MOL0     O89399   1.869   0.716   3.018  0.4799  0.0004 -0.3055
  678MOL0     C89400   1.759   0.670   3.097 -0.2071  0.7181 -0.7394
  678MOL0     C89401   1.626   0.728   3.053 -0.1175  0.2741  0.3108
  678MOL0     C89402   1.501   0.650   3.110  0.5730 -0.1491 -0.5505
  678MOL0     C89403   1.499   0.608   3.258 -0.0566  0.2592  0.0963
  678MOL0     C89404   1.390   0.503   3.290 -0.2378 -0.2473  0.0961
  678MOL0     C89405   1.252   0.569   3.261 -0.5554  0.0756 -1.0180
  678MOL0     C89406   1.148   0.501   3.335  0.1097 -0.0839  0.2794
  678MOL0     C89407   1.016   0.547   3.268 -0.0493 -0.5236  0.6777
  678MOL0    Cl89408   0.952   0.710   3.308 -0.6586 -0.2219  0.3543
  678MOL0     C89409   2.088   0.711   3.097  0.0374 -0.6802  0.4406
  678MOL0     C89410   2.213   0.656   3.118 -0.0718  0.0287 -0.6594
  678MOL0     O89411   2.242   0.336   3.270 -0.8662 -0.4818  0.1932
  678MOL0     C89412   2.601   0.372   3.216 -0.4023  0.2740 -0.3429
  678MOL0     C89413   2.717   0.322   3.260  0.2828 -0.4399 -0.0875
  678MOL0     N89414   3.377  -0.118   3.184 -0.3993  0.1912  0.1297
  678MOL0     N89415   3.496  -0.153   3.228 -0.8307  0.0401  0.2176
  678MOL0     C89416   4.544   0.436   3.551 -0.5567  0.1856  0.7818
  678MOL0     C89417   4.653   0.520   3.541 -1.1506  0.1546 -0.2001
  678MOL0     C89418   5.070   0.711   3.660 -0.3093 -0.7046  0.3952
  678MOL0     C89419   5.132   0.713   3.532 -0.0097 -0.0446 -0.4807
  678MOL0     C89420   5.230   0.811   3.502  0.0659 -0.2221 -0.0282
  678MOL0     C89421   5.269   0.912   3.593 -0.1906  0.6115  0.0005
  678MOL0     O89422   5.360   1.009   3.562 -0.0722  0.7529  0.1812
  678MOL0     C89423   5.465   1.043   3.653 -0.1626  0.9911  0.9374
  678MOL0     C89424   5.490   1.190   3.680 -0.0166  0.0575  0.4222
  678MOL0     C89425   5.366   1.276   3.675  0.7965 -0.9447  0.8980
  678MOL0     C89426   5.406   1.414   3.712  0.3315  0.4784  0.2978
  678MOL0     C89427   5.297   1.511   3.705  0.3504  0.5035 -0.4890
  678MOL0     C89428   5.196   1.583   3.716 -0.4469 -0.2079  0.8044
  678MOL0     C89429   5.209   0.905   3.716  0.5069  0.8579  1.0346
  678MOL0     C89430   5.107   0.804   3.749 -0.2759 -0.3452 -0.2639
  678MOL0     H89431   4.889   0.304   3.662 -0.2064 -1.2357 -2.1369
  678MOL0     H89432   4.688   0.157   3.673 -1.6572  0.9658  0.3571
  678MOL0     H89433   4.343   0.268   3.438  2.9083 -3.0179 -0.4092
  678MOL0     H89434   4.277   0.339   3.590  0.6726  0.2784 -0.2663
  678MOL0     H89435   4.132   0.168   3.565  0.0216  0.2556  0.7507
  678MOL0     H89436   4.253   0.072   3.649 -0.9484 -0.6249  0.1772
  678MOL0     H89437   4.344  -0.006   3.417  0.8571  0.2411 -0.9378
  678MOL0     H89438   4.217   0.083   3.336  0.3641 -2.1108 -0.7515
  678MOL0     H89439   4.174  -0.176   3.425  0.7440  1.3670 -0.4965
  678MOL0     H89440   4.111  -0.094   3.560  0.9698  1.3049 -0.2230
  678MOL0     H89441   4.014  -0.062   3.268 -1.5713  1.9219 -0.6749
  678MOL0     H89442   3.993   0.067   3.392  1.0315  0.7138 -4.0787
  678MOL0     H89443   3.871  -0.077   3.539 -0.7902 -2.0069  0.4132
  678MOL0     H89444   3.893  -0.222   3.448 -0.1317  0.2480 -0.2673
  678MOL0     H89445   3.767   0.003   3.330 -0.0590 -0.0537  1.0627
  678MOL0     H89446   3.756  -0.161   3.267  0.3850  1.8123 -0.8685
  678MOL0     H89447   3.626  -0.031   3.523  2.4059 -1.1416  2.4883
  678MOL0     H89448   3.621  -0.203   3.494 -0.9815  0.1103  0.4773
  678MOL0     H89449   3.369  -0.004   3.487  1.6325 -1.8457  1.4163
  678MOL0     H89450   3.130  -0.042   3.392 -0.1599 -0.6958 -0.2704
  678MOL0     H89451   3.114  -0.152   3.261  1.0036 -0.4376  0.2199
  678MOL0     H89452   3.100   0.040   3.091  1.4634  2.3971  0.0295
  678MOL0     H89453   3.185   0.136   3.226  0.1928  0.2682  2.5842
  678MOL0     H89454   2.926   0.155   3.158 -1.6974  0.4919  0.9674
  678MOL0     H89455   2.897   0.022   3.268 -1.0674  0.9636  1.4690
  678MOL0     H89456   2.989   0.300   3.328 -3.5541  0.7546 -0.1563
  678MOL0     H89457   3.031   0.162   3.434  1.7719 -1.3347 -1.1955
  678MOL0     H89458   2.611   0.212   3.565 -1.2806 -0.8476 -0.3921
  678MOL0     H89459   2.400   0.283   3.483  0.0239  2.4599  0.5819
  678MOL0     H89460   2.130   0.344   2.998 -0.0924  0.4598  0.4892
  678MOL0     H89461   1.922   0.470   2.925 -1.2876 -1.4820  3.0461
  678MOL0     H89462   1.777   0.709   3.197 -0.8074  0.3984 -0.5023
  678MOL0     H89463   1.758   0.563   3.075 -0.5695  0.5791 -0.0677
  678MOL0     H89464   1.617   0.724   2.944 -2.5778  3.0080  0.2902
  678MOL0     H89465   1.619   0.834   3.082 -1.7070 -0.2838  2.2741
  678MOL0     H89466   1.499   0.562   3.046  4.9055  1.3393 -3.1813
  678MOL0     H89467   1.413   0.713   3.094  1.1373  1.6414  2.5381
  678MOL0     H89468   1.592   0.558   3.287 -0.3553 -0.4336 -0.1364
  678MOL0     H89469   1.488   0.696   3.323  0.0676  0.2371  0.1475
  678MOL0     H89470   1.395   0.466   3.392  2.4921  0.3984  0.2578
  678MOL0     H89471   1.408   0.421   3.220  3.2521 -0.9667  1.6587
  678MOL0     H89472   1.235   0.563   3.153 -2.8589  1.0816 -0.7615
  678MOL0     H89473   1.254   0.676   3.285  2.7635 -0.0925 -0.0543
  678MOL0     H89474   1.165   0.394   3.319  2.3340  0.4157 -1.0197
  678MOL0     H89475   1.153   0.537   3.439  0.8599  1.8454 -0.3801
  678MOL0     H89476   0.940   0.472   3.290  0.6529 -1.7284 -0.8319
  678MOL0     H89477   1.023   0.544   3.159  0.8856  2.4795  0.5667
  678MOL0     H89478   2.076   0.813   3.133 -1.3903 -0.5654 -0.2895
  678MOL0     H89479   2.297   0.714   3.154 -1.9796  1.7425  1.2976
  678MOL0     H89480   2.588   0.418   3.119 -3.4009  1.3546  0.4600
  678MOL0     H89481   2.808   0.331   3.203 -0.3551  0.1152 -1.0579
  678MOL0     H89482   4.446   0.466   3.517 -0.9460  1.7288  3.0489
  678MOL0     H89483   4.643   0.619   3.498 -0.0613  0.5824  0.4978
  678MOL0     H89484   5.099   0.643   3.456 -2.6363  2.9043 -2.2761
  678MOL0     H89485   5.270   0.816   3.401 -0.5992 -0.6493 -0.3149
  678MOL0     H89486   5.563   1.009   3.618  0.1203  1.3513  1.3569
  678MOL0     H89487   5.451   0.982   3.743  2.2661  1.6033  1.8299
  678MOL0     H89488   5.550   1.189   3.771 -0.3973 -3.2074  0.7332
  678MOL0     H89489   5.571   1.216   3.611 -0.5196 -1.5200 -0.8162
  678MOL0     H89490   5.290   1.240   3.745  3.1149 -2.6560  2.7273
  678MOL0     H89491   5.324   1.277   3.574  2.1817  0.1514  0.2943
  678MOL0     H89492   5.452   1.411   3.811  0.9895  1.4074  0.0359
  678MOL0     H89493   5.478   1.458   3.642 -1.7891  2.4797 -0.8039
  678MOL0     H89494   5.117   1.651   3.740 -0.8793 -1.0098  1.7111
  678MOL0     H89495   5.211   0.974   3.800  0.1714  0.8862  1.0189
  678MOL0     H89496   5.061   0.801   3.847 -0.9247  2.2138 -0.4301
  679MOL0     O89497   1.625   6.311  10.005  0.3889  0.1083  0.4056
  679MOL0     C89498   1.636   6.406  10.077 -0.6921  0.1009 -0.4068
  679MOL0     O89499   1.535   6.501  10.111 -0.2428  1.2211 -0.8983
  679MOL0     C89500   1.413   6.481  10.044  0.5064  0.5882 -0.8432
  679MOL0     C89501   1.300   6.441  10.117 -1.0651 -0.0749 -0.3463
  679MOL0     C89502   1.171   6.426  10.058 -0.9549  0.1394  0.9010
  679MOL0     C89503   1.163   6.447   9.917  0.2992  0.4891 -0.1713
  679MOL0     O89504   1.044   6.420   9.857 -0.5602  0.5139 -0.0152
  679MOL0     C89505   0.917   6.444   9.925 -0.7341  0.0438  0.0576
  679MOL0     C89506   0.793   6.448   9.834 -0.0407 -0.0367  0.1003
  679MOL0     C89507   0.803   6.351   9.713 -0.4395 -0.1666  0.1290
  679MOL0     C89508   0.672   6.325   9.644 -0.4268 -0.0999  0.8351
  679MOL0     C89509   0.552   6.287   9.736 -0.4870 -0.1014 -0.2409
  679MOL0     C89510   0.420   6.252   9.661 -0.2270  0.2342 -0.4565
  679MOL0     C89511   0.389   6.379   9.573 -0.2322  1.3290  0.5413
  679MOL0     C89512   0.259   6.356   9.506 -0.2826  1.0424  0.2967
  679MOL0     N89513   0.136   6.362   9.588  0.2668  0.2619 -0.1932
  679MOL0     C89514   0.122   6.428   9.707 -0.8427  1.2385 -0.1991
  679MOL0     C89515   0.016   6.378   9.769  0.0408 -1.0310  0.0783
  679MOL0     C89516  -0.027   6.407   9.917 -0.1161  0.8689  0.0860
  679MOL0     C89517  -0.161   6.331   9.942 -0.3369  0.8388  0.9900
  679MOL0     C89518  -0.206   6.340  10.087  0.1307  0.2131 -0.6564
  679MOL0     C89519  -0.333   6.271  10.115  0.5996 -0.6085  0.4199
  679MOL0     O89520  -0.370   6.171  10.025  0.6199 -0.0385  0.5293
  679MOL0     C89521  -0.484   6.093  10.055  0.2452  0.0033  0.1332
  679MOL0     C89522  -0.537   6.013   9.952  0.4727  0.4209  0.4355
  679MOL0     C89523  -0.632   5.917   9.983 -0.0046 -0.2054 -0.1385
  679MOL0     C89524  -0.690   5.901  10.109 -0.3361 -1.0891 -0.2914
  679MOL0     C89525  -0.791   5.811  10.144  0.1832  0.2665  0.2343
  679MOL0     O89526  -0.846   5.730  10.051  0.1224  0.3422  0.4973
  679MOL0     C89527  -0.954   5.658  10.080 -0.2294  0.4685 -0.3771
  679MOL0     C89528  -1.084   5.710  10.076 -0.5539 -0.2456 -0.0532
  679MOL0     C89529  -1.188   5.632  10.105  0.1321  0.8400 -0.9376
  679MOL0     C89530  -1.171   5.490  10.108 -0.0019  0.7394 -0.0156
  679MOL0     O89531  -1.279   5.398  10.114  0.7034  0.6625 -0.4400
  679MOL0     C89532  -1.398   5.444  10.183 -0.3317 -0.5735 -0.7237
  679MOL0     C89533  -1.467   5.323  10.247  0.0019  1.5849  0.2042
  679MOL0     C89534  -1.567   5.261  10.158  0.3320  0.0856 -0.0951
  679MOL0     C89535  -1.621   5.138  10.232  0.2872  0.9834 -0.7385
  679MOL0     C89536  -1.712   5.057  10.145 -0.4271  0.7318 -0.5073
  679MOL0     C89537  -1.836   5.002  10.225 -0.3420 -0.0826 -0.2233
  679MOL0     C89538  -1.945   4.941  10.133 -0.0619  0.1336  0.3646
  679MOL0     C89539  -2.066   4.909  10.214  0.2492 -0.2626  0.0882
  679MOL0    Cl89540  -2.157   5.056  10.266 -0.6923 -0.1253 -0.0073
  679MOL0     C89541  -1.043   5.439  10.106 -0.0758  0.4216  0.5202
  679MOL0     C89542  -0.928   5.521  10.087  0.5147  0.2518 -0.0811
  679MOL0     O89543  -0.830   5.803  10.264 -0.4099  0.0602 -0.0165
  679MOL0     C89544  -0.653   6.002  10.207 -0.0157 -0.3092  0.1349
  679MOL0     C89545  -0.553   6.095  10.178  0.8204 -0.1020  0.4263
  679MOL0     N89546  -0.041   6.285   9.681 -1.3234 -0.1793  0.9464
  679MOL0     N89547   0.026   6.281   9.570  0.7532  0.4408  0.1090
  679MOL0     C89548   1.271   6.482   9.843  0.7872 -0.1466  0.2351
  679MOL0     C89549   1.401   6.498   9.905 -0.2060  0.2553  1.0749
  679MOL0     C89550   1.773   6.435  10.129 -0.3642 -0.5511 -1.4708
  679MOL0     C89551   1.797   6.553  10.203  0.7262 -1.1524 -0.4676
  679MOL0     C89552   1.919   6.573  10.269 -0.3765 -0.7790  0.1520
  679MOL0     C89553   2.011   6.467  10.275 -0.1351 -0.0555 -0.1369
  679MOL0     O89554   2.120   6.461  10.352 -0.0143  0.2032  0.3441
  679MOL0     C89555   2.154   6.551  10.461 -0.5800 -0.5322  0.4467
  679MOL0     C89556   2.068   6.516  10.587 -1.2794 -0.0566  0.5964
  679MOL0     C89557   2.101   6.387  10.655  0.1282 -0.0245  0.1426
  679MOL0     C89558   2.247   6.367  10.696 -0.0709  0.4949 -0.1956
  679MOL0     C89559   2.309   6.486  10.754 -0.2954 -0.1458  0.4687
  679MOL0     C89560   2.349   6.591  10.801 -0.4254  0.6808  0.6611
  679MOL0     C89561   1.985   6.360  10.184 -1.0045  0.1674 -0.2752
  679MOL0     C89562   1.875   6.337  10.126 -0.2194  0.3582 -0.7245
  679MOL0     H89563   1.310   6.425  10.224  0.1315 -3.3882 -0.8624
  679MOL0     H89564   1.097   6.377  10.120 -1.5847  1.4900  1.2366
  679MOL0     H89565   0.924   6.539   9.979 -2.6586  2.2528 -3.1923
  679MOL0     H89566   0.909   6.353   9.986 -0.1213  0.0509  0.1556
  679MOL0     H89567   0.786   6.551   9.797  0.4145  0.2133  0.6931
  679MOL0     H89568   0.705   6.428   9.895 -0.4979  0.2844 -0.4446
  679MOL0     H89569   0.832   6.259   9.765  0.3380  1.0986  2.0519
  679MOL0     H89570   0.873   6.398   9.643  0.0499  2.2136  2.0703
  679MOL0     H89571   0.637   6.411   9.585  0.6145  0.1977  0.6362
  679MOL0     H89572   0.699   6.239   9.583  2.0452 -0.2547  2.0384
  679MOL0     H89573   0.529   6.378   9.793 -0.5355 -0.6636  0.6645
  679MOL0     H89574   0.572   6.211   9.812  1.4601 -1.5252 -2.0521
  679MOL0     H89575   0.336   6.238   9.729 -0.4700  0.4725 -0.7052
  679MOL0     H89576   0.424   6.154   9.612  3.1730 -0.3003  0.6026
  679MOL0     H89577   0.401   6.466   9.639  3.1811 -0.7127  2.9340
  679MOL0     H89578   0.464   6.384   9.493 -1.1775 -0.4658 -0.5241
  679MOL0     H89579   0.255   6.265   9.444 -2.9200 -0.6583  2.7321
  679MOL0     H89580   0.241   6.447   9.447 -1.0146  2.0727  2.0286
  679MOL0     H89581   0.205   6.482   9.751  1.4480 -0.9536 -1.5636
  679MOL0     H89582  -0.028   6.514   9.943 -2.6629  0.8510  0.2564
  679MOL0     H89583   0.057   6.370   9.977  0.4762 -2.5475 -2.5677
  679MOL0     H89584  -0.143   6.224   9.931  1.5984  1.0476  1.7103
  679MOL0     H89585  -0.233   6.375   9.872 -0.4605  0.1291  0.6678
  679MOL0     H89586  -0.129   6.291  10.148 -1.3776  0.5823  1.6664
  679MOL0     H89587  -0.219   6.445  10.112 -0.3680  1.3984 -5.0421
  679MOL0     H89588  -0.406   6.352  10.110  0.1071 -1.1525 -2.3508
  679MOL0     H89589  -0.338   6.238  10.219 -0.5346  1.2805  1.0272
  679MOL0     H89590  -0.508   6.010   9.847 -2.1887  1.5576 -0.4171
  679MOL0     H89591  -0.645   5.843   9.904  1.1108 -0.9400  0.3451
  679MOL0     H89592  -1.088   5.814  10.044 -2.1272 -0.4246 -0.4823
  679MOL0     H89593  -1.285   5.679  10.107 -2.3799 -3.5406 -3.5604
  679MOL0     H89594  -1.472   5.488  10.116 -1.6384  0.4071  1.2480
  679MOL0     H89595  -1.383   5.527  10.252  1.1078  0.3526 -2.0965
  679MOL0     H89596  -1.529   5.359  10.329 -0.4397 -0.0069  0.6108
  679MOL0     H89597  -1.382   5.257  10.270  0.1151  0.9600 -1.8161
  679MOL0     H89598  -1.515   5.226  10.069  1.4655  2.2343 -0.3487
  679MOL0     H89599  -1.646   5.331  10.129  0.1159  0.7550  1.9280
  679MOL0     H89600  -1.557   5.069  10.289 -2.8640 -1.9447 -0.4074
  679MOL0     H89601  -1.693   5.162  10.311 -1.1173 -0.5013 -1.5176
  679MOL0     H89602  -1.646   4.976  10.115 -1.4070 -1.6624  3.2551
  679MOL0     H89603  -1.737   5.127  10.064  2.1715  1.4153 -0.7973
  679MOL0     H89604  -1.890   5.083  10.275 -0.9783 -0.8355  0.3438
  679MOL0     H89605  -1.801   4.928  10.297 -0.2148  0.1146 -0.0797
  679MOL0     H89606  -1.957   5.007  10.046 -0.7554  2.3920  2.0817
  679MOL0     H89607  -1.908   4.846  10.093  0.3706  0.3391  0.2660
  679MOL0     H89608  -2.038   4.854  10.304  0.7998  0.0402  0.1069
  679MOL0     H89609  -2.131   4.847  10.151 -0.4945  1.5661 -1.0081
  679MOL0     H89610  -1.036   5.331  10.096 -4.7809 -0.2701  2.0297
  679MOL0     H89611  -0.825   5.484  10.082  1.1664  1.6684  1.9002
  679MOL0     H89612  -0.703   6.016  10.302  1.8226  3.8637  0.6907
  679MOL0     H89613  -0.529   6.160  10.262 -0.7120  2.1474 -0.7813
  679MOL0     H89614   1.262   6.504   9.737  1.5703 -3.5989 -0.6612
  679MOL0     H89615   1.486   6.509   9.838  0.8167 -1.7775  1.9575
  679MOL0     H89616   1.726   6.635  10.202  2.6221  0.6842  2.1501
  679MOL0     H89617   1.936   6.660  10.331 -4.2457 -0.8821  1.6083
  679MOL0     H89618   2.130   6.654  10.432  0.7905 -0.3627 -0.1937
  679MOL0     H89619   2.263   6.548  10.476 -0.5113 -1.1978 -0.1210
  679MOL0     H89620   2.075   6.598  10.659  1.3229 -0.2286  0.6173
  679MOL0     H89621   1.964   6.514  10.552 -1.2114 -1.9317  0.4216
  679MOL0     H89622   2.069   6.306  10.589 -1.3630  0.6006  0.0563
  679MOL0     H89623   2.042   6.375  10.746 -1.1087 -2.9180 -0.9142
  679MOL0     H89624   2.238   6.287  10.770 -2.2497 -0.5258 -1.4574
  679MOL0     H89625   2.316   6.339  10.616  1.3587 -0.3177  1.2640
  679MOL0     H89626   2.374   6.691  10.833  1.5101  1.1450 -2.0143
  679MOL0     H89627   2.059   6.285  10.159 -3.6537 -2.8601  0.2584
  679MOL0     H89628   1.860   6.247  10.067  1.3188 -1.1450  1.0204
  680MOL0     O89629   5.561   7.373  10.055  0.8393  0.2598  0.4252
  680MOL0     C89630   5.612   7.387  10.161 -0.6404 -0.8051 -0.1966
  680MOL0     O89631   5.546   7.454  10.269 -0.3565  0.4147 -0.5685
  680MOL0     C89632   5.415   7.497  10.255 -0.1004 -0.2772 -0.4644
  680MOL0     C89633   5.314   7.440  10.168 -0.1530 -0.4396  0.3780
  680MOL0     C89634   5.189   7.498  10.144  0.4873 -0.0463 -0.6997
  680MOL0     C89635   5.152   7.600  10.232 -0.2665  0.1574  0.8941
  680MOL0     O89636   5.021   7.640  10.223  0.8160  0.4384 -0.1754
  680MOL0     C89637   4.953   7.711  10.324 -0.8877  0.5807  0.2650
  680MOL0     C89638   4.954   7.860  10.283 -0.9892  0.9584  0.5482
  680MOL0     C89639   4.887   7.952  10.381  1.1067  0.4055  0.9641
  680MOL0     C89640   4.890   8.096  10.338  0.7297  0.8215  0.3706
  680MOL0     C89641   4.861   8.188  10.461  0.3976 -0.7434  0.6194
  680MOL0     C89642   4.880   8.331  10.408  1.1751  0.8545 -0.3617
  680MOL0     C89643   4.884   8.435  10.521  0.4264 -0.5551 -1.0859
  680MOL0     C89644   4.875   8.577  10.453  0.4611 -0.1002  0.5163
  680MOL0     N89645   4.997   8.619  10.384 -0.9881  0.0750 -1.0173
  680MOL0     C89646   5.130   8.614  10.404 -0.4390 -0.9577  0.2367
  680MOL0     C89647   5.187   8.667  10.288  0.1488 -0.1230 -0.8046
  680MOL0     C89648   5.328   8.697  10.255  0.1175 -0.7662 -0.4667
  680MOL0     C89649   5.361   8.836  10.309  0.0866  0.0578  0.0700
  680MOL0     C89650   5.509   8.876  10.250 -0.1681  0.1884 -0.3393
  680MOL0     C89651   5.531   9.029  10.280  0.7482  0.4017 -0.1417
  680MOL0     O89652   5.563   9.060  10.421 -0.3065  0.1468 -0.4543
  680MOL0     C89653   5.697   9.060  10.448 -0.2215  0.4039  0.2416
  680MOL0     C89654   5.811   9.018  10.377  0.0440  0.0320 -0.4459
  680MOL0     C89655   5.945   9.033  10.406  0.2583  0.8273  0.6781
  680MOL0     C89656   5.975   9.083  10.535  0.2792 -0.3971 -0.2718
  680MOL0     C89657   6.117   9.101  10.573  0.9299  0.4408 -0.7472
  680MOL0     O89658   6.221   9.097  10.471  0.6505  0.1620 -0.2977
  680MOL0     C89659   6.349   9.093  10.532  0.2610 -0.2955 -0.3541
  680MOL0     C89660   6.426   9.209  10.524 -0.2933 -0.4711 -0.3666
  680MOL0     C89661   6.561   9.198  10.560 -0.2458 -0.3279 -1.0950
  680MOL0     C89662   6.620   9.077  10.589 -0.4872  0.2724  0.4642
  680MOL0     O89663   6.747   9.067  10.624 -0.2798 -0.2104 -0.5236
  680MOL0     C89664   6.849   9.087  10.530 -0.3264 -0.2509  0.6522
  680MOL0     C89665   6.960   9.177  10.580  0.4337 -0.7140 -0.7502
  680MOL0     C89666   7.081   9.180  10.482  0.8627 -0.2240 -0.1990
  680MOL0     C89667   7.196   9.244  10.561 -0.0807 -0.1463 -0.5253
  680MOL0     C89668   7.320   9.245  10.484 -0.2142 -0.7344  0.2465
  680MOL0     C89669   7.438   9.317  10.549 -0.3783 -0.2764  0.1597
  680MOL0     C89670   7.542   9.366  10.449 -0.1536  0.9339 -0.3922
  680MOL0     C89671   7.632   9.250  10.395 -0.2724  0.0937  0.5432
  680MOL0    Cl89672   7.755   9.320  10.286 -0.5944 -0.0088 -0.1829
  680MOL0     C89673   6.538   8.964  10.608 -1.1166 -0.1216  0.9755
  680MOL0     C89674   6.403   8.980  10.572 -0.1991  0.1688 -0.3226
  680MOL0     O89675   6.135   9.111  10.694  0.1616  0.4538 -0.7503
  680MOL0     C89676   5.868   9.115  10.624  1.1618  0.8716 -0.0153
  680MOL0     C89677   5.733   9.109  10.578  0.1692  0.0281 -0.2556
  680MOL0     N89678   5.085   8.697  10.196  0.5955 -0.4104 -0.2058
  680MOL0     N89679   4.979   8.670  10.261 -0.4685 -0.1526 -0.3492
  680MOL0     C89680   5.247   7.656  10.315  0.4254  0.0522  0.2663
  680MOL0     C89681   5.375   7.607  10.334  0.3488 -0.1406 -0.5102
  680MOL0     C89682   5.748   7.341  10.179 -0.2689  0.1779  0.4339
  680MOL0     C89683   5.789   7.220  10.116  0.5412 -0.1514 -0.4652
  680MOL0     C89684   5.920   7.174  10.111 -0.1647 -0.4794  0.0504
  680MOL0     C89685   6.026   7.257  10.151  0.4257  0.5218 -0.7754
  680MOL0     O89686   6.155   7.218  10.153 -0.1273  0.0877 -0.6611
  680MOL0     C89687   6.184   7.085  10.123 -0.2283  0.5968 -0.1462
  680MOL0     C89688   6.320   7.052  10.197 -0.8986  0.9498  0.7925
  680MOL0     C89689   6.373   6.922  10.154  0.1084  0.3719  0.4311
  680MOL0     C89690   6.458   6.934  10.035  0.3285  0.2581  0.6167
  680MOL0     C89691   6.592   6.979  10.067 -0.6406  0.0967 -0.6431
  680MOL0     C89692   6.711   7.001  10.088 -0.4257  1.0512  0.5574
  680MOL0     C89693   5.990   7.387  10.208 -0.4784  0.4508  0.1946
  680MOL0     C89694   5.856   7.424  10.225  0.8005  0.4448 -1.0239
  680MOL0     H89695   5.347   7.345  10.126  0.5456 -0.2881  0.5677
  680MOL0     H89696   5.112   7.466  10.074  0.2125  0.0366 -0.4362
  680MOL0     H89697   5.010   7.682  10.413 -2.8207 -1.2470  1.0049
  680MOL0     H89698   4.851   7.678  10.348 -0.7297  1.5369  2.5529
  680MOL0     H89699   4.897   7.870  10.190  1.6998  0.2583 -1.2604
  680MOL0     H89700   5.057   7.887  10.258 -1.5041 -0.0292 -3.2666
  680MOL0     H89701   4.929   7.951  10.482  2.4464 -0.1521  0.4336
  680MOL0     H89702   4.782   7.928  10.395  0.2266  1.8561 -2.2331
  680MOL0     H89703   4.990   8.112  10.295 -0.4268  0.5957 -2.6172
  680MOL0     H89704   4.814   8.115  10.262  0.3279  2.4933  1.1282
  680MOL0     H89705   4.930   8.174  10.545 -1.7611  2.4706  3.1623
  680MOL0     H89706   4.761   8.170  10.500 -1.5174  3.7168 -1.5523
  680MOL0     H89707   4.798   8.364  10.343  1.8207 -1.1389 -2.2786
  680MOL0     H89708   4.966   8.322  10.342  0.6295  2.6061 -1.3906
  680MOL0     H89709   4.806   8.422  10.596  1.9699  1.2036  0.9568
  680MOL0     H89710   4.982   8.437  10.569  0.5625  0.6852 -1.3816
  680MOL0     H89711   4.871   8.660  10.525  1.2953 -0.6117  1.1817
  680MOL0     H89712   4.794   8.581  10.380  0.9430  5.8387 -0.1508
  680MOL0     H89713   5.188   8.581  10.490 -1.1214 -0.6204  0.8402
  680MOL0     H89714   5.327   8.703  10.145 -0.1698  0.5119 -0.4154
  680MOL0     H89715   5.393   8.617  10.291 -0.5821 -1.0163  0.2636
  680MOL0     H89716   5.363   8.843  10.419 -1.9402  0.0430  0.1430
  680MOL0     H89717   5.285   8.904  10.269 -2.0797 -1.1930  1.7851
  680MOL0     H89718   5.596   8.817  10.279 -1.9198 -0.9832  3.2623
  680MOL0     H89719   5.495   8.853  10.144 -2.0601 -0.6113  0.0449
  680MOL0     H89720   5.447   9.091  10.250  0.2454 -0.3877 -0.4121
  680MOL0     H89721   5.603   9.063  10.205  0.0792  1.0571 -0.4901
  680MOL0     H89722   5.794   8.953  10.291  1.8760 -3.7065  1.7777
  680MOL0     H89723   6.020   9.006  10.333 -0.4349 -0.7576  0.5214
  680MOL0     H89724   6.392   9.312  10.515  2.5994  1.0180  3.0186
  680MOL0     H89725   6.624   9.286  10.546  0.9471 -0.7963  0.8360
  680MOL0     H89726   6.808   9.141  10.445  1.9002 -0.5587 -0.6970
  680MOL0     H89727   6.893   8.991  10.501 -0.9694 -0.5950  0.8031
  680MOL0     H89728   6.994   9.159  10.682 -0.9835  1.3505  0.1676
  680MOL0     H89729   6.914   9.276  10.586 -0.1915 -0.9479 -1.5063
  680MOL0     H89730   7.069   9.251  10.399  0.2613  0.9998  0.9088
  680MOL0     H89731   7.105   9.078  10.450 -1.8024 -1.5798  1.6796
  680MOL0     H89732   7.166   9.347  10.582 -0.3088 -0.4023  0.4540
  680MOL0     H89733   7.212   9.198  10.658 -1.5854 -1.5045 -0.8824
  680MOL0     H89734   7.292   9.306  10.397  0.1995  1.0749  1.3234
  680MOL0     H89735   7.339   9.145  10.445 -0.3744 -0.2467 -1.1462
  680MOL0     H89736   7.483   9.257  10.628  1.7141  1.8937  0.7343
  680MOL0     H89737   7.399   9.410  10.591 -0.2939  0.2822 -0.9451
  680MOL0     H89738   7.505   9.417  10.359  1.7625  0.7709 -1.3204
  680MOL0     H89739   7.610   9.442  10.491 -2.4565  1.5111  2.6532
  680MOL0     H89740   7.572   9.175  10.343  0.7961 -0.4940  0.1277
  680MOL0     H89741   7.681   9.211  10.484 -1.8353 -1.8752  0.6100
  680MOL0     H89742   6.584   8.873  10.643  2.4001  0.4459 -1.6336
  680MOL0     H89743   6.349   8.886  10.563  0.5823 -0.1986 -1.2348
  680MOL0     H89744   5.885   9.156  10.723 -3.9302  1.8108  0.7753
  680MOL0     H89745   5.649   9.144  10.637 -0.1286 -0.3955 -0.4194
  680MOL0     H89746   5.211   7.742  10.370  0.2042  0.6186 -0.7298
  680MOL0     H89747   5.437   7.658  10.407 -0.8931 -0.1514  0.6047
  680MOL0     H89748   5.714   7.155  10.072  1.9390 -1.2790 -1.2777
  680MOL0     H89749   5.930   7.075  10.069  0.2213 -1.2522  1.8472
  680MOL0     H89750   6.187   7.087  10.013 -1.6353  1.1360 -0.2070
  680MOL0     H89751   6.119   7.001  10.147  1.1634 -0.6675 -0.6745
  680MOL0     H89752   6.381   7.133  10.155 -2.3563  0.6821 -2.1374
  680MOL0     H89753   6.321   7.068  10.305 -0.8431 -0.9925  1.1021
  680MOL0     H89754   6.287   6.863  10.119  1.4062 -0.7302 -1.0756
  680MOL0     H89755   6.430   6.869  10.231  3.0522 -1.0220 -2.4574
  680MOL0     H89756   6.470   6.836   9.988 -1.2590  0.7728 -0.9604
  680MOL0     H89757   6.410   7.002   9.964 -0.6941 -0.3035  0.7581
  680MOL0     H89758   6.815   7.003  10.115  0.2987 -2.1933 -1.4139
  680MOL0     H89759   6.058   7.471  10.212  1.8370 -1.2737 -0.4633
  680MOL0     H89760   5.833   7.516  10.277  2.3298 -0.2438  0.9996
  681MOL0     O89761   9.767   4.509   5.777 -0.1583  0.0801 -0.1395
  681MOL0     C89762   9.811   4.619   5.783  0.3941 -0.3332  1.0924
  681MOL0     O89763   9.849   4.706   5.679  0.3466 -0.0579 -0.0926
  681MOL0     C89764   9.822   4.648   5.555  0.1160  0.7864 -0.5089
  681MOL0     C89765   9.697   4.661   5.491 -0.9383  0.5473 -0.7500
  681MOL0     C89766   9.666   4.604   5.374  0.2064 -0.9323 -0.6325
  681MOL0     C89767   9.759   4.516   5.307  0.4302  0.8123  0.7341
  681MOL0     O89768   9.699   4.444   5.207 -0.3729  0.0790 -0.0212
  681MOL0     C89769   9.771   4.399   5.087  0.0789 -0.2433  1.2755
  681MOL0     C89770   9.687   4.335   4.978 -0.0737 -0.4642  0.0547
  681MOL0     C89771   9.620   4.448   4.891  0.6707 -0.3647 -0.8406
  681MOL0     C89772   9.555   4.404   4.757 -0.3229 -0.7991  0.4283
  681MOL0     C89773   9.424   4.328   4.791  0.1398  0.3842 -0.0773
  681MOL0     C89774   9.355   4.300   4.651  1.1971 -0.1292  0.3029
  681MOL0     C89775   9.218   4.227   4.679 -0.7854 -0.1674 -0.3923
  681MOL0     C89776   9.236   4.077   4.657  0.3479 -0.0472  0.6825
  681MOL0     N89777   9.095   4.029   4.688 -0.0887 -0.5336  0.0288
  681MOL0     C89778   8.985   4.036   4.613 -0.2432 -0.6836  0.2389
  681MOL0     C89779   8.882   4.008   4.694 -0.3941 -0.6940 -0.6271
  681MOL0     C89780   8.740   4.017   4.671  0.6655 -0.2236  0.3317
  681MOL0     C89781   8.712   4.105   4.551  0.3231  0.0602  0.9062
  681MOL0     C89782   8.709   4.018   4.417 -0.7369 -0.1678  0.0275
  681MOL0     C89783   8.561   3.970   4.411 -0.6179 -0.1242 -0.6922
  681MOL0     O89784   8.469   3.975   4.519 -0.2370  0.4119 -0.3877
  681MOL0     C89785   8.337   3.963   4.481  0.4647  0.6102  0.0299
  681MOL0     C89786   8.289   3.943   4.349 -0.7922 -0.6406 -1.0218
  681MOL0     C89787   8.153   3.934   4.317  0.5144 -1.1115  0.2582
  681MOL0     C89788   8.060   3.956   4.421 -0.6076 -0.4380 -0.8434
  681MOL0     C89789   7.916   3.943   4.391  0.2691  0.2404  0.1125
  681MOL0     O89790   7.888   3.965   4.249 -0.2656 -0.5803 -0.4191
  681MOL0     C89791   7.764   3.963   4.198 -0.1515  0.2210 -0.4373
  681MOL0     C89792   7.640   3.995   4.262 -0.2408 -0.0416 -0.2933
  681MOL0     C89793   7.512   3.972   4.199 -0.3161 -0.8241  0.8421
  681MOL0     C89794   7.509   3.910   4.080 -0.7994  0.4656 -0.5608
  681MOL0     O89795   7.390   3.873   4.022  0.1299  0.7104  0.1217
  681MOL0     C89796   7.303   3.975   3.984 -0.2509 -0.3090  0.2096
  681MOL0     C89797   7.162   3.914   3.973  0.3445 -0.2946 -0.1361
  681MOL0     C89798   7.051   4.019   3.963  0.2939 -1.0244  0.1736
  681MOL0     C89799   6.917   3.967   4.002  0.8396 -0.6424  0.5519
  681MOL0     C89800   6.809   4.073   4.022  0.4446 -0.2856  0.7678
  681MOL0     C89801   6.673   4.004   4.031 -0.4319 -0.9324  0.1619
  681MOL0     C89802   6.577   4.118   4.064  0.2147 -0.1719  1.1186
  681MOL0     C89803   6.434   4.074   4.126  0.3523  0.1167 -0.4502
  681MOL0    Cl89804   6.457   4.043   4.306  0.3559 -0.9049 -0.1039
  681MOL0     C89805   7.624   3.872   4.021  0.0757  0.1508  0.4162
  681MOL0     C89806   7.754   3.908   4.069  0.5837  0.6971 -0.1445
  681MOL0     O89807   7.833   3.906   4.469  0.3417 -0.4401 -0.7125
  681MOL0     C89808   8.107   3.978   4.555  0.8859 -0.2243  0.3784
  681MOL0     C89809   8.239   3.986   4.584 -0.5531 -0.6247 -0.6709
  681MOL0     N89810   8.928   3.994   4.822 -0.1404 -0.8194  0.6810
  681MOL0     N89811   9.056   4.007   4.815 -0.0879 -0.0688  0.1211
  681MOL0     C89812   9.892   4.504   5.359 -0.0414 -0.1610 -0.3302
  681MOL0     C89813   9.923   4.574   5.479 -1.3253 -0.2028 -0.7620
  681MOL0     C89814   9.828   4.674   5.917  0.7874  0.1623  0.1486
  681MOL0     C89815   9.803   4.595   6.028  0.2372  0.5539  0.3975
  681MOL0     C89816   9.822   4.635   6.160  0.6091  0.1270 -0.1895
  681MOL0     C89817   9.861   4.773   6.173 -0.4197 -0.1031  0.8222
  681MOL0     O89818   9.853   4.830   6.295 -0.3067  0.1710  0.0491
  681MOL0     C89819   9.868   4.757   6.419  0.0268 -0.8042 -0.4293
  681MOL0     C89820   9.930   4.848   6.533  1.4874 -0.6514 -0.3741
  681MOL0     C89821  10.072   4.879   6.488  0.7007  0.7967 -0.2293
  681MOL0     C89822  10.121   4.990   6.578 -0.0339  0.1829 -0.4065
  681MOL0     C89823  10.265   5.020   6.545  0.7585 -0.0161 -0.0204
  681MOL0     C89824  10.385   5.036   6.530 -0.4262 -1.0355 -0.4542
  681MOL0     C89825   9.892   4.855   6.065 -1.1295 -0.1814  0.0735
  681MOL0     C89826   9.882   4.801   5.940  0.0229 -0.7942 -0.1415
  681MOL0     H89827   9.626   4.733   5.533  1.6617  1.5700  2.3363
  681MOL0     H89828   9.560   4.618   5.353 -0.0663  1.0483  1.7251
  681MOL0     H89829   9.838   4.325   5.131 -2.8522 -1.4487  4.1292
  681MOL0     H89830   9.818   4.489   5.047 -0.0865 -0.0223  1.5729
  681MOL0     H89831   9.623   4.267   5.035  0.1109 -0.0875  0.7323
  681MOL0     H89832   9.749   4.276   4.911 -0.5592  0.2518 -1.0566
  681MOL0     H89833   9.692   4.527   4.869  0.4927 -0.3528 -1.4145
  681MOL0     H89834   9.543   4.496   4.952  0.7481 -2.4302  1.0020
  681MOL0     H89835   9.520   4.496   4.709  0.8881  0.6745  2.2125
  681MOL0     H89836   9.627   4.345   4.700 -0.1644 -1.1047  0.9367
  681MOL0     H89837   9.370   4.388   4.865  4.8394  1.3143  3.0455
  681MOL0     H89838   9.458   4.236   4.839 -1.6728 -0.4135 -0.2687
  681MOL0     H89839   9.416   4.225   4.598 -2.4418 -1.9548 -1.7003
  681MOL0     H89840   9.327   4.391   4.598 -2.6508 -0.2547  1.8507
  681MOL0     H89841   9.186   4.252   4.781  0.3367 -3.1824  0.8505
  681MOL0     H89842   9.158   4.266   4.597 -0.7072  0.4503 -0.1576
  681MOL0     H89843   9.305   4.032   4.729 -2.0755 -1.9348  1.9474
  681MOL0     H89844   9.249   4.067   4.549  1.2545  3.2392  0.3820
  681MOL0     H89845   8.975   4.056   4.506 -1.7121  1.1875  0.6624
  681MOL0     H89846   8.686   4.036   4.764  0.2943  0.7308 -0.0737
  681MOL0     H89847   8.702   3.917   4.647  2.7228 -0.8947 -0.3359
  681MOL0     H89848   8.779   4.190   4.540 -0.3939  0.5390  0.0618
  681MOL0     H89849   8.614   4.152   4.565  1.6406  3.1528  0.4234
  681MOL0     H89850   8.728   4.077   4.326 -0.2177 -1.2724 -0.6014
  681MOL0     H89851   8.791   3.946   4.409  0.4279  1.2033 -0.9691
  681MOL0     H89852   8.564   3.868   4.371  2.9776 -0.0169 -1.0247
  681MOL0     H89853   8.518   4.031   4.330 -3.2127  0.8010  1.2634
  681MOL0     H89854   8.357   3.926   4.266  0.6916 -0.2415  0.0588
  681MOL0     H89855   8.120   3.923   4.214  1.8565  0.4161 -0.3797
  681MOL0     H89856   7.640   4.014   4.368 -2.7241 -1.2768  0.0070
  681MOL0     H89857   7.419   3.977   4.255 -0.0354  0.3604  1.2269
  681MOL0     H89858   7.324   4.015   3.885 -3.1675  0.0495 -0.3731
  681MOL0     H89859   7.284   4.057   4.054 -0.6215  0.1212 -0.3894
  681MOL0     H89860   7.159   3.845   4.058 -0.6657 -1.5707 -1.1665
  681MOL0     H89861   7.158   3.849   3.885  0.6180 -0.5201  0.0175
  681MOL0     H89862   7.055   4.067   3.864 -1.3673  1.0771  1.0263
  681MOL0     H89863   7.082   4.096   4.034 -0.1372  0.0516 -0.7673
  681MOL0     H89864   6.892   3.888   3.930  2.4057  0.1060 -0.8705
  681MOL0     H89865   6.920   3.915   4.098 -1.9282  1.3165  1.8188
  681MOL0     H89866   6.804   4.129   3.928 -0.1698  0.2436  1.1100
  681MOL0     H89867   6.827   4.131   4.113  0.4277  1.6817 -0.4236
  681MOL0     H89868   6.677   3.935   4.115 -1.9153 -0.6237  0.5186
  681MOL0     H89869   6.651   3.957   3.935  0.8914  0.0725 -0.6652
  681MOL0     H89870   6.604   4.203   4.128 -2.0243  3.3210 -2.1451
  681MOL0     H89871   6.550   4.163   3.968  2.0037 -1.3391  0.0201
  681MOL0     H89872   6.396   3.988   4.070  0.2699 -0.4887  0.5076
  681MOL0     H89873   6.365   4.157   4.110 -0.0106 -0.1728 -0.4245
  681MOL0     H89874   7.605   3.837   3.920 -2.0107  0.5989  0.5894
  681MOL0     H89875   7.838   3.882   4.006  0.1815 -1.3175  0.0881
  681MOL0     H89876   8.035   3.997   4.635  1.5986 -0.5586  1.1117
  681MOL0     H89877   8.278   3.999   4.685  0.5815 -1.0877 -1.0365
  681MOL0     H89878   9.974   4.451   5.312 -0.2303 -1.9032  1.1887
  681MOL0     H89879  10.019   4.548   5.522 -2.7454 -0.7639  2.4254
  681MOL0     H89880   9.771   4.493   6.007  3.9702 -0.8244  0.7805
  681MOL0     H89881   9.799   4.575   6.247 -0.1693 -0.9059 -1.0734
  681MOL0     H89882   9.925   4.663   6.419 -2.9236 -2.7362  0.1611
  681MOL0     H89883   9.774   4.715   6.456  0.7217 -3.3482 -1.3516
  681MOL0     H89884   9.871   4.939   6.546  3.0619  0.0034  3.3428
  681MOL0     H89885   9.933   4.802   6.632  1.6191 -1.5231 -0.7789
  681MOL0     H89886  10.083   4.901   6.382  2.8573  0.8777 -0.0366
  681MOL0     H89887  10.127   4.786   6.503 -1.9764 -0.7627  0.5563
  681MOL0     H89888  10.050   5.074   6.570  0.2675  0.3586 -1.4127
  681MOL0     H89889  10.114   4.952   6.680 -1.0783 -4.2345 -1.8914
  681MOL0     H89890  10.492   5.036   6.529 -0.3429 -1.7117  2.0921
  681MOL0     H89891   9.929   4.955   6.087  0.0659 -0.4440 -0.6688
  681MOL0     H89892   9.918   4.862   5.857  1.3508  0.0552  1.0181
  682MOL0     O89893   6.934   6.673   4.204  0.2536  0.2748 -1.1344
  682MOL0     C89894   6.989   6.776   4.225 -0.4966 -0.4159  0.1821
  682MOL0     O89895   6.976   6.858   4.337  0.4791 -0.0181 -0.0829
  682MOL0     C89896   6.872   6.837   4.424  0.3711 -0.1632 -0.1084
  682MOL0     C89897   6.750   6.780   4.393  0.1302 -0.6619 -0.5452
  682MOL0     C89898   6.648   6.770   4.487  0.0263 -0.0237 -0.3478
  682MOL0     C89899   6.674   6.803   4.617 -0.5025  0.6929 -1.0435
  682MOL0     O89900   6.588   6.792   4.731 -0.5724 -0.3943  0.9169
  682MOL0     C89901   6.473   6.700   4.729  0.3359  0.4311 -0.0040
  682MOL0     C89902   6.349   6.762   4.680 -0.3203  0.1852  0.8408
  682MOL0     C89903   6.240   6.656   4.671  0.4057 -0.1688 -0.2774
  682MOL0     C89904   6.119   6.718   4.592 -0.6444 -0.3415  0.2562
  682MOL0     C89905   5.981   6.690   4.657 -0.6080  0.4499 -1.3676
  682MOL0     C89906   5.869   6.752   4.570 -1.2770 -0.8569  0.4177
  682MOL0     C89907   5.738   6.732   4.642  0.8935 -0.8960  0.2882
  682MOL0     C89908   5.700   6.850   4.727  0.4092  0.2567 -0.4403
  682MOL0     N89909   5.558   6.842   4.769 -0.3262  0.5487 -0.3463
  682MOL0     C89910   5.457   6.841   4.681  1.0073  0.0360 -0.3539
  682MOL0     C89911   5.346   6.809   4.750 -0.7239 -0.8586  0.1359
  682MOL0     C89912   5.206   6.797   4.698 -0.1888  0.1180 -0.6554
  682MOL0     C89913   5.192   6.711   4.576  0.4597  0.4250  0.4501
  682MOL0     C89914   5.250   6.570   4.577 -0.7648  0.0848 -0.1172
  682MOL0     C89915   5.251   6.497   4.707 -0.7522  0.7683 -1.0202
  682MOL0     O89916   5.223   6.359   4.700  0.3702 -0.2969  0.5022
  682MOL0     C89917   5.310   6.273   4.632 -0.4572 -0.0863 -0.5677
  682MOL0     C89918   5.253   6.153   4.597  0.0791  1.5394 -0.1770
  682MOL0     C89919   5.328   6.045   4.560 -0.9471  1.1514  0.4299
  682MOL0     C89920   5.464   6.059   4.532  0.1509  0.0708 -0.7602
  682MOL0     C89921   5.546   5.942   4.497 -0.9764  0.2864  0.2590
  682MOL0     O89922   5.684   5.959   4.488 -0.2517  0.0815 -0.0645
  682MOL0     C89923   5.763   5.865   4.417  0.8036 -0.2970  0.5235
  682MOL0     C89924   5.832   5.917   4.311 -0.8642  0.2802  0.9933
  682MOL0     C89925   5.924   5.842   4.240 -0.5247 -0.2522  0.0970
  682MOL0     C89926   5.952   5.713   4.282  0.1239 -0.6733  1.0577
  682MOL0     O89927   6.064   5.649   4.237  0.2343  0.3443 -0.1133
  682MOL0     C89928   6.180   5.731   4.223 -0.6352 -0.1910 -0.4626
  682MOL0     C89929   6.289   5.629   4.246 -0.7757  0.6375  0.1928
  682MOL0     C89930   6.429   5.676   4.195 -0.2143  0.1494 -0.1528
  682MOL0     C89931   6.540   5.598   4.264 -0.2857 -0.4358  0.9122
  682MOL0     C89932   6.692   5.611   4.219  1.0138 -0.8339  0.4314
  682MOL0     C89933   6.763   5.716   4.299  0.2682  0.4875  0.7822
  682MOL0     C89934   6.909   5.733   4.267 -0.2459 -0.2824  0.2238
  682MOL0     C89935   6.959   5.772   4.119  1.0674 -0.2369  1.2017
  682MOL0    Cl89936   6.909   5.937   4.054 -0.2877  0.2447  0.3309
  682MOL0     C89937   5.868   5.650   4.374 -1.4683  0.4077  0.2110
  682MOL0     C89938   5.775   5.728   4.440 -0.6189 -0.4628  0.3127
  682MOL0     O89939   5.485   5.837   4.469 -0.1589 -0.3901 -0.2402
  682MOL0     C89940   5.516   6.192   4.556 -0.2310 -0.4433 -0.4607
  682MOL0     C89941   5.444   6.294   4.616  0.1401 -0.1479  0.3003
  682MOL0     N89942   5.382   6.781   4.880  0.9438 -0.3318  0.8944
  682MOL0     N89943   5.505   6.793   4.888  0.7126 -0.5503  0.1789
  682MOL0     C89944   6.800   6.864   4.648  1.5012  0.4235  0.1755
  682MOL0     C89945   6.901   6.886   4.548 -0.5178 -0.3515 -0.3100
  682MOL0     C89946   7.091   6.820   4.128  0.3642 -0.5118  0.5273
  682MOL0     C89947   7.191   6.912   4.151 -0.0128  0.0325 -0.1261
  682MOL0     C89948   7.283   6.951   4.058  0.6212  0.2958  0.0771
  682MOL0     C89949   7.267   6.913   3.922  0.3680  0.4067  1.1261
  682MOL0     O89950   7.352   6.962   3.831 -0.0996  0.8186  0.2057
  682MOL0     C89951   7.385   6.877   3.717  1.0816  0.4041 -0.1429
  682MOL0     C89952   7.520   6.910   3.660 -0.0093 -0.4942  0.1193
  682MOL0     C89953   7.644   6.858   3.727  0.5009  0.3700  0.3297
  682MOL0     C89954   7.702   6.737   3.674  0.2275 -0.3532  0.4128
  682MOL0     C89955   7.651   6.621   3.739 -0.6174 -0.0595  0.0831
  682MOL0     C89956   7.620   6.530   3.800  0.2208 -0.2854 -1.2801
  682MOL0     C89957   7.162   6.818   3.891 -1.1564 -0.0458  0.1915
  682MOL0     C89958   7.080   6.782   3.989 -0.4039  0.2122  0.3025
  682MOL0     H89959   6.729   6.733   4.297  2.4124 -1.0187 -0.9336
  682MOL0     H89960   6.559   6.717   4.458  0.0820  0.4830 -1.4999
  682MOL0     H89961   6.450   6.653   4.825  1.0478 -0.6876 -0.3644
  682MOL0     H89962   6.502   6.613   4.670  2.1468 -0.7609  2.5085
  682MOL0     H89963   6.366   6.802   4.580 -0.5231  0.5864  0.9595
  682MOL0     H89964   6.324   6.850   4.740  2.1868 -0.0907  2.4364
  682MOL0     H89965   6.201   6.639   4.771  1.5883 -1.0677  0.0490
  682MOL0     H89966   6.268   6.561   4.624 -1.6625 -0.5625 -0.8113
  682MOL0     H89967   6.129   6.825   4.575 -0.1556 -0.7312 -2.3457
  682MOL0     H89968   6.127   6.663   4.498  2.0062  1.0124 -0.4033
  682MOL0     H89969   5.972   6.720   4.762 -0.3955  2.2235 -1.8314
  682MOL0     H89970   5.971   6.581   4.655  0.8966  0.3000 -1.6147
  682MOL0     H89971   5.867   6.706   4.471 -0.0158 -0.8119  0.3533
  682MOL0     H89972   5.883   6.858   4.551  1.1935 -0.8137  1.9485
  682MOL0     H89973   5.662   6.716   4.565  1.2488 -1.5116  0.0670
  682MOL0     H89974   5.742   6.644   4.708 -0.1153 -0.1791  1.3666
  682MOL0     H89975   5.715   6.945   4.675  0.4590 -0.4218 -1.7265
  682MOL0     H89976   5.763   6.843   4.815 -0.1228 -1.7604 -0.1507
  682MOL0     H89977   5.463   6.857   4.574  1.7981 -3.8414 -1.0570
  682MOL0     H89978   5.162   6.893   4.669 -0.8559 -0.2826 -0.9874
  682MOL0     H89979   5.152   6.751   4.781  2.1130 -0.1910  0.7923
  682MOL0     H89980   5.238   6.763   4.491  2.4334  1.0231  1.8108
  682MOL0     H89981   5.087   6.705   4.548  0.1096  2.5620  1.0654
  682MOL0     H89982   5.196   6.505   4.508  0.8557 -3.1031  1.3989
  682MOL0     H89983   5.355   6.571   4.545  0.6758 -0.6721  3.9540
  682MOL0     H89984   5.188   6.540   4.785  1.0857 -0.2051  1.1152
  682MOL0     H89985   5.353   6.511   4.744 -0.2613 -1.5370 -1.3909
  682MOL0     H89986   5.146   6.144   4.616  0.1890  1.4873  0.4458
  682MOL0     H89987   5.273   5.951   4.558  0.7832  0.0137 -3.1216
  682MOL0     H89988   5.831   6.022   4.284  0.8537  0.5477  1.8714
  682MOL0     H89989   5.987   5.907   4.180 -0.4156 -1.0263 -0.6463
  682MOL0     H89990   6.190   5.824   4.279  3.0731 -0.3374 -0.6381
  682MOL0     H89991   6.183   5.773   4.122  0.7113  3.1582  0.8064
  682MOL0     H89992   6.256   5.535   4.201 -0.3791  0.1984  0.7978
  682MOL0     H89993   6.290   5.614   4.354 -2.1749  5.8284  1.1793
  682MOL0     H89994   6.434   5.784   4.213  0.4812  0.4150 -1.7569
  682MOL0     H89995   6.439   5.647   4.090 -0.0556 -3.7980  0.8124
  682MOL0     H89996   6.542   5.631   4.368 -0.6619 -0.9538  1.0888
  682MOL0     H89997   6.513   5.494   4.243  0.4043 -0.0146 -2.6896
  682MOL0     H89998   6.700   5.635   4.113 -2.3188 -2.2653 -0.2653
  682MOL0     H89999   6.740   5.513   4.229  4.0718  0.1062 -2.9759
  682MOL0     H90000   6.759   5.690   4.405 -0.0899 -2.2509  0.1836
  682MOL0     H90001   6.723   5.817   4.284  0.0397  0.5767  1.9318
  682MOL0     H90002   6.938   5.820   4.327 -0.1256  0.1077 -0.3889
  682MOL0     H90003   6.958   5.643   4.306 -1.7959 -0.6549  1.4069
  682MOL0     H90004   6.923   5.695   4.049 -2.7982  3.1513 -0.9616
  682MOL0     H90005   7.068   5.767   4.110  0.8990 -1.1616 -1.3305
  682MOL0     H90006   5.892   5.549   4.406  0.3082  1.2465  1.7437
  682MOL0     H90007   5.733   5.692   4.533  2.3372 -0.2917  1.8538
  682MOL0     H90008   5.620   6.219   4.537 -1.5475  4.0199 -2.3831
  682MOL0     H90009   5.503   6.374   4.658  1.5324 -2.6355  3.5676
  682MOL0     H90010   6.820   6.902   4.748 -1.8363  1.4248  0.5858
  682MOL0     H90011   6.999   6.926   4.570 -0.7834  1.2615 -1.7952
  682MOL0     H90012   7.212   6.936   4.255  1.7818 -3.2162  0.4036
  682MOL0     H90013   7.367   7.010   4.094  1.2244  0.2370 -1.1788
  682MOL0     H90014   7.307   6.879   3.640  1.0011  1.5617 -0.0567
  682MOL0     H90015   7.390   6.777   3.760 -0.2798  0.2888 -0.1953
  682MOL0     H90016   7.521   6.868   3.559  0.2752 -2.8726  1.0478
  682MOL0     H90017   7.533   7.018   3.663  3.8572 -0.8268  0.4602
  682MOL0     H90018   7.613   6.853   3.832  1.0777  4.3747  0.8475
  682MOL0     H90019   7.718   6.938   3.718 -1.1761  1.8956 -0.6015
  682MOL0     H90020   7.674   6.746   3.569  1.5311  0.5439  0.1116
  682MOL0     H90021   7.811   6.735   3.690  0.0274 -3.9612  2.3051
  682MOL0     H90022   7.581   6.456   3.867  0.7949  0.4125 -0.1373
  682MOL0     H90023   7.139   6.781   3.792 -0.1880 -0.1811  0.0072
  682MOL0     H90024   6.998   6.717   3.959 -0.6548 -0.1546  1.7153
  683MOL0     O90025   8.207   5.058   9.728 -0.0266 -0.5360  0.1577
  683MOL0     C90026   8.085   5.089   9.710 -0.4725 -0.4116  0.6925
  683MOL0     O90027   8.048   5.149   9.603  0.3143 -0.1842  0.4926
  683MOL0     C90028   8.131   5.249   9.555  0.0590 -0.5302 -0.1737
  683MOL0     C90029   8.158   5.267   9.417 -0.1831 -0.5859  0.0524
  683MOL0     C90030   8.253   5.356   9.370 -1.3057 -0.9653 -0.2607
  683MOL0     C90031   8.320   5.460   9.455  0.2134  0.4418  0.5457
  683MOL0     O90032   8.408   5.554   9.411 -0.2084 -0.3182  0.5650
  683MOL0     C90033   8.482   5.514   9.295  0.2028  0.1009 -0.2964
  683MOL0     C90034   8.572   5.381   9.291  0.1089 -0.3727 -0.7005
  683MOL0     C90035   8.647   5.365   9.157  0.5351 -0.3748 -0.0853
  683MOL0     C90036   8.753   5.252   9.165 -0.2489  0.3797  0.1382
  683MOL0     C90037   8.808   5.220   9.025 -0.1601  0.8669 -0.1694
  683MOL0     C90038   8.887   5.087   9.005 -0.1723 -0.6983 -0.0949
  683MOL0     C90039   9.032   5.101   9.043  0.2944  0.0140  0.1401
  683MOL0     C90040   9.116   5.192   8.962  0.4439 -0.6295  0.1100
  683MOL0     N90041   9.251   5.171   8.999  0.0573 -0.1427  0.5526
  683MOL0     C90042   9.329   5.078   8.942  0.2079 -0.2141  0.1459
  683MOL0     C90043   9.458   5.110   8.976  0.9761  0.0811 -0.6673
  683MOL0     C90044   9.575   5.038   8.936 -0.2613 -0.1459 -0.0957
  683MOL0     C90045   9.699   5.126   8.968 -0.2150  0.7516  0.0120
  683MOL0     C90046   9.819   5.067   8.898  0.2038 -0.8324  0.0449
  683MOL0     C90047   9.941   5.158   8.912  0.5282 -0.1794 -0.5465
  683MOL0     O90048  10.050   5.084   8.856  0.0664  0.2994 -0.0092
  683MOL0     C90049  10.173   5.155   8.840  0.5618 -0.4381 -0.1919
  683MOL0     C90050  10.285   5.074   8.807  1.5147 -0.1494  0.6555
  683MOL0     C90051  10.410   5.131   8.790 -0.5386 -0.3750  0.4528
  683MOL0     C90052  10.429   5.271   8.794  0.2821 -0.6246  0.0749
  683MOL0     C90053  10.568   5.332   8.784  0.6614  0.1036 -0.0582
  683MOL0     O90054  10.589   5.458   8.747 -0.0361 -1.5749  0.4245
  683MOL0     C90055  10.721   5.495   8.725 -0.2536  0.0048 -0.2914
  683MOL0     C90056  10.773   5.465   8.596 -0.4337  1.2465  0.1248
  683MOL0     C90057  10.903   5.504   8.576 -0.0509  0.3622 -0.3508
  683MOL0     C90058  10.989   5.550   8.677 -0.2541 -0.1770  0.7330
  683MOL0     O90059  11.119   5.578   8.656 -0.1756  0.0371 -1.1520
  683MOL0     C90060  11.218   5.498   8.724  0.6735  0.2695 -0.4799
  683MOL0     C90061  11.356   5.535   8.667  0.7327  0.4716  0.1675
  683MOL0     C90062  11.456   5.470   8.762 -0.1644 -0.5303 -0.1229
  683MOL0     C90063  11.609   5.494   8.736 -0.3133  0.1765 -0.3080
  683MOL0     C90064  11.711   5.392   8.789  1.3775  1.0335  0.4258
  683MOL0     C90065  11.855   5.427   8.743  0.6220  0.2784 -0.4431
  683MOL0     C90066  11.945   5.314   8.801  0.0883 -0.5436 -0.1258
  683MOL0     C90067  11.934   5.175   8.734 -0.1921  0.9248  0.3897
  683MOL0    Cl90068  12.006   5.158   8.572  0.0448  0.3817 -0.4127
  683MOL0     C90069  10.937   5.570   8.801  0.3744 -0.3059 -0.1717
  683MOL0     C90070  10.808   5.532   8.828 -0.2175 -0.4852  0.8639
  683MOL0     O90071  10.656   5.251   8.810  0.0641  0.0033 -0.9764
  683MOL0     C90072  10.321   5.358   8.821  0.1804  0.5891  0.7773
  683MOL0     C90073  10.197   5.295   8.831 -0.0189  0.0558  0.3779
  683MOL0     N90074   9.444   5.221   9.064  0.8229 -0.7314  0.4039
  683MOL0     N90075   9.320   5.259   9.084 -0.1525 -0.2225  0.3694
  683MOL0     C90076   8.287   5.441   9.589  0.0375  0.4778  0.2507
  683MOL0     C90077   8.188   5.343   9.640  0.2771  0.1680 -0.0673
  683MOL0     C90078   7.981   5.016   9.787 -0.0383  0.0936  0.4029
  683MOL0     C90079   8.021   4.944   9.897 -0.1689 -0.0077  0.1213
  683MOL0     C90080   7.918   4.885   9.980  0.6655  0.5326  0.2853
  683MOL0     C90081   7.782   4.892   9.953  0.9769 -0.7605  0.3754
  683MOL0     O90082   7.702   4.820  10.032  0.4033  0.1312 -0.6635
  683MOL0     C90083   7.555   4.793  10.006  0.7840  1.1516  0.5098
  683MOL0     C90084   7.470   4.917  10.048 -0.9782  0.3702  0.0419
  683MOL0     C90085   7.322   4.875  10.071 -0.9160  0.0677  0.1477
  683MOL0     C90086   7.243   4.977  10.161  0.1496  1.0940 -0.5923
  683MOL0     C90087   7.097   4.971  10.130  0.7376  0.2798 -0.8720
  683MOL0     C90088   6.985   4.966  10.089  0.3979 -1.2674  0.2611
  683MOL0     C90089   7.747   4.942   9.822 -0.1308  0.4894 -0.3470
  683MOL0     C90090   7.844   5.020   9.752  0.6785 -0.7305 -0.2063
  683MOL0     H90091   8.105   5.207   9.344 -0.4714  0.1220 -0.3232
  683MOL0     H90092   8.284   5.351   9.266  2.2568  0.1114  0.6009
  683MOL0     H90093   8.549   5.599   9.280 -2.0655  1.9926 -0.3162
  683MOL0     H90094   8.418   5.514   9.207  0.8373 -1.6803 -0.8001
  683MOL0     H90095   8.523   5.286   9.312 -2.1606  0.0363 -3.5790
  683MOL0     H90096   8.646   5.387   9.372 -1.9917 -1.5189  1.4453
  683MOL0     H90097   8.695   5.464   9.154  0.2054 -0.2269 -0.7717
  683MOL0     H90098   8.583   5.345   9.070 -0.4228 -0.3280  0.5870
  683MOL0     H90099   8.829   5.281   9.239 -0.1350  0.6926 -0.1022
  683MOL0     H90100   8.708   5.157   9.193 -0.2719  0.6439  1.0532
  683MOL0     H90101   8.874   5.302   8.994  0.2832 -0.3835 -2.8540
  683MOL0     H90102   8.722   5.222   8.958  0.3557 -1.3434 -0.9942
  683MOL0     H90103   8.872   5.055   8.902  1.2693 -0.0976 -0.5042
  683MOL0     H90104   8.837   5.009   9.063 -2.7016  0.8951  0.0066
  683MOL0     H90105   9.028   5.133   9.148 -3.4615 -0.5977  0.3147
  683MOL0     H90106   9.064   4.997   9.047 -5.2342 -1.9830  2.4347
  683MOL0     H90107   9.073   5.290   8.982 -0.6330 -0.4799 -2.5467
  683MOL0     H90108   9.110   5.174   8.854 -0.7566  2.6088 -0.4755
  683MOL0     H90109   9.289   4.992   8.891 -0.5160  0.8437 -1.1276
  683MOL0     H90110   9.575   5.018   8.828  2.3286 -3.9185  0.3968
  683MOL0     H90111   9.572   4.941   8.986 -0.7135 -1.8231 -3.1260
  683MOL0     H90112   9.722   5.096   9.071 -1.6376 -0.0999  0.1074
  683MOL0     H90113   9.681   5.233   8.956  0.2843  1.0212  1.4448
  683MOL0     H90114   9.838   4.971   8.946 -2.0741 -0.2945  2.1941
  683MOL0     H90115   9.790   5.054   8.793 -0.6339  3.2687 -0.4257
  683MOL0     H90116   9.960   5.177   9.018 -1.2221  0.2096 -0.2717
  683MOL0     H90117   9.935   5.255   8.861 -0.3787  0.8099  1.3645
  683MOL0     H90118  10.291   4.966   8.797 -0.7873 -0.1515 -1.5862
  683MOL0     H90119  10.482   5.054   8.761 -0.2494  0.7235 -2.0385
  683MOL0     H90120  10.716   5.423   8.513  0.7242  0.7232 -0.4235
  683MOL0     H90121  10.937   5.487   8.474  2.3395 -2.7581  0.7899
  683MOL0     H90122  11.195   5.394   8.701  0.0059  0.5519 -1.1320
  683MOL0     H90123  11.219   5.502   8.833 -0.2871  2.0388 -0.4914
  683MOL0     H90124  11.358   5.644   8.670 -0.1816  0.4824  1.2231
  683MOL0     H90125  11.370   5.488   8.570  1.3650  1.2528 -0.1268
  683MOL0     H90126  11.441   5.362   8.769  2.8566 -0.9241  2.1770
  683MOL0     H90127  11.444   5.504   8.865  1.5498  2.2406 -0.7192
  683MOL0     H90128  11.628   5.489   8.628  1.4220  0.6214 -0.0589
  683MOL0     H90129  11.642   5.593   8.767  4.5122 -1.1449 -0.2644
  683MOL0     H90130  11.677   5.307   8.730 -3.4710  2.2668  1.0301
  683MOL0     H90131  11.691   5.366   8.894 -0.9529  0.5008 -0.0919
  683MOL0     H90132  11.878   5.527   8.778  0.6693  0.3210 -0.5980
  683MOL0     H90133  11.855   5.439   8.635  0.2418 -0.8260 -0.5852
  683MOL0     H90134  12.051   5.342   8.803 -0.2487  0.8494  2.4791
  683MOL0     H90135  11.923   5.307   8.908 -1.0285 -0.4857 -0.3427
  683MOL0     H90136  11.830   5.142   8.734  0.5114 -1.5425  0.9355
  683MOL0     H90137  11.996   5.111   8.798  0.5616 -0.1711 -1.3463
  683MOL0     H90138  10.994   5.619   8.879  0.0510  1.5572 -1.0601
  683MOL0     H90139  10.760   5.547   8.924 -0.5415  1.5746  0.4401
  683MOL0     H90140  10.317   5.465   8.808 -1.2282  0.6315  1.4432
  683MOL0     H90141  10.113   5.364   8.838 -2.5166 -2.7680  0.4904
  683MOL0     H90142   8.329   5.512   9.660 -3.2253  1.0516  1.8214
  683MOL0     H90143   8.169   5.353   9.746 -2.0344  0.0752 -0.4244
  683MOL0     H90144   8.118   4.920   9.940  0.1432  2.4590  0.9835
  683MOL0     H90145   7.958   4.818  10.055  0.5868  2.0706  1.7548
  683MOL0     H90146   7.536   4.706  10.070  3.7409  0.7013  0.9225
  683MOL0     H90147   7.527   4.762   9.905 -0.5747  1.7726  0.6642
  683MOL0     H90148   7.529   4.943  10.136 -0.7918 -0.7640  0.2689
  683MOL0     H90149   7.469   4.992   9.968 -1.2176 -0.5561 -0.8507
  683MOL0     H90150   7.312   4.771  10.104 -0.8663  0.5615  1.8068
  683MOL0     H90151   7.268   4.871   9.976 -0.3669 -0.2805 -0.1501
  683MOL0     H90152   7.256   4.947  10.266 -1.1198  1.2552 -0.3730
  683MOL0     H90153   7.276   5.080  10.144  0.1145  1.1327 -0.4259
  683MOL0     H90154   6.898   4.947  10.029  1.8745 -0.7920 -2.1784
  683MOL0     H90155   7.643   4.945   9.790 -0.6974  2.2927  1.4089
  683MOL0     H90156   7.793   5.068   9.669 -0.0025 -0.8661  0.1336
  684MOL0     O90157   3.088   2.532   9.027 -0.5576 -0.1263 -0.2108
  684MOL0     C90158   3.100   2.408   9.002  0.2379 -0.1370  0.1337
  684MOL0     O90159   3.194   2.317   9.054 -0.7189 -0.2589 -0.9671
  684MOL0     C90160   3.314   2.366   9.102 -0.1535  0.8075  0.1840
  684MOL0     C90161   3.382   2.473   9.032  0.7723 -0.3043 -1.3380
  684MOL0     C90162   3.508   2.505   9.069 -0.1603 -0.0811 -0.6798
  684MOL0     C90163   3.574   2.452   9.184  0.5157 -0.1883 -0.9122
  684MOL0     O90164   3.704   2.488   9.218 -0.4224 -0.3143  0.4705
  684MOL0     C90165   3.785   2.575   9.129  1.2388 -0.1762 -0.0550
  684MOL0     C90166   3.754   2.729   9.150 -0.1461  0.3806  0.6697
  684MOL0     C90167   3.743   2.793   9.287 -0.2430 -0.3700 -0.1522
  684MOL0     C90168   3.880   2.784   9.361 -0.4372  0.3903  0.6454
  684MOL0     C90169   3.883   2.844   9.500  0.0053 -0.7814 -0.0994
  684MOL0     C90170   4.021   2.827   9.547 -0.3713 -0.2876  0.3104
  684MOL0     C90171   4.030   2.689   9.616 -0.5617 -0.1540  0.1147
  684MOL0     C90172   4.160   2.681   9.702 -0.1894 -1.2722 -0.5772
  684MOL0     N90173   4.159   2.595   9.817  0.7486  0.3866  0.0089
  684MOL0     C90174   4.208   2.633   9.938 -0.2496 -0.6834 -0.7482
  684MOL0     C90175   4.168   2.535  10.018 -1.1807  0.3717  0.0665
  684MOL0     C90176   4.199   2.517  10.166 -0.0163 -0.1345  0.1457
  684MOL0     C90177   4.258   2.377  10.200 -0.9719  0.8313  0.1542
  684MOL0     C90178   4.293   2.379  10.353 -0.5735  0.2929  0.7771
  684MOL0     C90179   4.323   2.235  10.406  0.0061 -0.2859 -0.2022
  684MOL0     O90180   4.377   2.253  10.542  0.3155  0.3985 -0.4394
  684MOL0     C90181   4.515   2.239  10.549  0.4375  0.0778 -1.0116
  684MOL0     C90182   4.593   2.353  10.587  1.1477 -0.4087 -0.9348
  684MOL0     C90183   4.727   2.342  10.620 -0.9446  0.3792 -0.5484
  684MOL0     C90184   4.791   2.218  10.606 -0.2546  0.4842 -0.1450
  684MOL0     C90185   4.932   2.213  10.652 -0.7275 -0.9411 -0.2880
  684MOL0     O90186   4.990   2.086  10.651 -0.2207  0.4695  0.1088
  684MOL0     C90187   5.124   2.070  10.697  0.3957 -0.0249  0.0956
  684MOL0     C90188   5.173   2.135  10.811 -1.0579 -0.3650  0.5165
  684MOL0     C90189   5.294   2.084  10.854  0.7870 -0.3181 -0.2579
  684MOL0     C90190   5.357   1.984  10.799 -0.6851  0.1035  1.0324
  684MOL0     O90191   5.459   1.937  10.879  0.4925  0.7059  0.1164
  684MOL0     C90192   5.514   1.811  10.844  0.9459 -0.9958  0.2253
  684MOL0     C90193   5.599   1.766  10.961  0.0155  1.1915 -0.5122
  684MOL0     C90194   5.614   1.610  10.964  0.5757 -0.7340  0.5819
  684MOL0     C90195   5.738   1.571  11.038  0.7435 -0.2966 -0.4034
  684MOL0     C90196   5.746   1.413  11.060  0.3030 -0.1429  1.1339
  684MOL0     C90197   5.867   1.390  11.155 -0.2913 -0.5178  0.3157
  684MOL0     C90198   5.866   1.250  11.214  0.3219 -0.5375  0.6297
  684MOL0     C90199   5.999   1.226  11.299 -0.0297 -0.0972  0.7493
  684MOL0    Cl90200   6.141   1.283  11.199  0.5058 -0.6351 -0.3507
  684MOL0     C90201   5.308   1.927  10.676 -0.3608 -1.4110 -0.0288
  684MOL0     C90202   5.194   1.981  10.623  0.1429  0.3344  1.3261
  684MOL0     O90203   4.991   2.317  10.691 -0.3579 -0.2107  0.0717
  684MOL0     C90204   4.718   2.099  10.575 -0.6230 -0.0404 -0.1068
  684MOL0     C90205   4.583   2.111  10.537  0.3161  0.0837 -0.4121
  684MOL0     N90206   4.105   2.435   9.943  0.6484  0.6812 -0.7032
  684MOL0     N90207   4.087   2.471   9.826  0.2654  0.1357  0.8327
  684MOL0     C90208   3.505   2.359   9.260 -0.0852 -0.1083  0.4640
  684MOL0     C90209   3.375   2.313   9.216 -0.1677  0.3080 -0.0993
  684MOL0     C90210   2.999   2.349   8.920 -0.1935  0.0740 -0.3997
  684MOL0     C90211   2.875   2.412   8.909 -0.0284  0.1603  0.9930
  684MOL0     C90212   2.762   2.350   8.860 -0.6171 -0.8836  0.4765
  684MOL0     C90213   2.787   2.215   8.810 -0.3502 -0.0395  0.5794
  684MOL0     O90214   2.671   2.158   8.762  0.3285 -0.1054  0.3094
  684MOL0     C90215   2.649   2.019   8.790 -0.2881  0.4711  0.1137
  684MOL0     C90216   2.559   2.015   8.913 -0.1265  0.9115  0.1652
  684MOL0     C90217   2.539   1.866   8.971 -0.6580 -1.0198  0.4481
  684MOL0     C90218   2.661   1.807   9.039 -0.5070 -0.6535 -0.0971
  684MOL0     C90219   2.728   1.906   9.131  0.6907  0.0852  0.3180
  684MOL0     C90220   2.773   1.999   9.192 -0.2854 -0.1994  0.2902
  684MOL0     C90221   2.908   2.152   8.816 -0.4548 -0.4812  0.2205
  684MOL0     C90222   3.013   2.224   8.872  0.0680  1.0335 -0.2914
  684MOL0     H90223   3.353   2.528   8.943 -1.0405  0.9437 -0.0595
  684MOL0     H90224   3.569   2.573   9.011  1.5235  1.4867  2.6178
  684MOL0     H90225   3.769   2.544   9.026 -0.5909  2.4215 -0.6264
  684MOL0     H90226   3.884   2.563   9.176  1.2447  1.9687  0.5652
  684MOL0     H90227   3.657   2.757   9.108 -0.3925  2.1613  2.2689
  684MOL0     H90228   3.830   2.780   9.090 -1.7572 -1.2313 -3.0725
  684MOL0     H90229   3.664   2.732   9.332  0.4833 -1.7652 -0.7337
  684MOL0     H90230   3.721   2.900   9.280  0.5596 -0.3073 -2.4650
  684MOL0     H90231   3.912   2.681   9.379  0.7052  0.4062 -1.0280
  684MOL0     H90232   3.953   2.824   9.289 -1.3681 -0.1099 -0.6201
  684MOL0     H90233   3.801   2.813   9.565 -0.6484 -0.0002 -0.5322
  684MOL0     H90234   3.860   2.949   9.484  0.8894 -0.4111  0.9399
  684MOL0     H90235   4.035   2.900   9.628 -1.7921  1.2280 -0.7391
  684MOL0     H90236   4.096   2.831   9.468 -1.8123 -1.4766 -1.1895
  684MOL0     H90237   3.933   2.661   9.660 -0.8798 -0.9598 -1.0477
  684MOL0     H90238   4.048   2.610   9.542 -0.0128 -2.8449  2.8923
  684MOL0     H90239   4.177   2.779   9.747 -1.0990 -1.9634  1.3921
  684MOL0     H90240   4.252   2.652   9.649  2.6866  0.1420  3.1695
  684MOL0     H90241   4.255   2.725   9.971 -1.3293  0.5889 -2.5850
  684MOL0     H90242   4.109   2.530  10.226  1.2153 -0.4809  2.1646
  684MOL0     H90243   4.256   2.606  10.195  0.7971 -0.7262  0.4148
  684MOL0     H90244   4.340   2.340  10.139 -2.3842 -1.8074 -0.3117
  684MOL0     H90245   4.175   2.310  10.174 -0.5800  0.4896 -0.2126
  684MOL0     H90246   4.380   2.443  10.368  0.9665 -1.4963 -0.1334
  684MOL0     H90247   4.202   2.410  10.406 -1.2874  0.1053 -0.3068
  684MOL0     H90248   4.403   2.191  10.347 -0.6631 -2.6256  0.5525
  684MOL0     H90249   4.237   2.168  10.401 -0.5233  0.4471 -1.5513
  684MOL0     H90250   4.543   2.448  10.603  0.2326 -0.6751 -2.0928
  684MOL0     H90251   4.783   2.427  10.658  0.0635 -1.2621  1.7903
  684MOL0     H90252   5.125   2.211  10.872  1.9383  2.5551 -0.4710
  684MOL0     H90253   5.314   2.133  10.949 -1.0893 -0.4340  0.2377
  684MOL0     H90254   5.584   1.822  10.761 -1.5768  2.2055 -1.7204
  684MOL0     H90255   5.436   1.736  10.826  0.7012 -1.0755  1.4712
  684MOL0     H90256   5.557   1.798  11.057  2.6869 -1.2406  1.6782
  684MOL0     H90257   5.699   1.810  10.950 -0.0569  1.9376  1.3975
  684MOL0     H90258   5.623   1.573  10.862  0.2865  0.7260 -0.0012
  684MOL0     H90259   5.525   1.562  11.006 -0.7912  1.5904  0.5037
  684MOL0     H90260   5.817   1.606  10.971  1.2430 -0.7935 -0.0809
  684MOL0     H90261   5.750   1.615  11.137  1.6645 -1.8896  0.2319
  684MOL0     H90262   5.759   1.360  10.965 -1.7920  0.4702  0.4486
  684MOL0     H90263   5.656   1.371  11.104  0.5441 -0.9106  0.9159
  684MOL0     H90264   5.871   1.470  11.229  2.5195 -1.0390  0.8126
  684MOL0     H90265   5.954   1.387  11.088 -0.7517 -2.3132 -0.2574
  684MOL0     H90266   5.777   1.237  11.277  0.0597  1.3505  0.6934
  684MOL0     H90267   5.857   1.168  11.142  1.1080 -1.5244  1.5945
  684MOL0     H90268   5.998   1.116  11.304  1.2821 -0.3944 -2.7871
  684MOL0     H90269   5.991   1.286  11.390 -3.2047  1.3873 -0.3680
  684MOL0     H90270   5.354   1.851  10.615  1.7355 -1.9883  2.1131
  684MOL0     H90271   5.145   1.945  10.533  2.0206  1.3782 -0.1987
  684MOL0     H90272   4.767   2.003  10.581  0.0597  0.2697 -0.6097
  684MOL0     H90273   4.510   2.032  10.518  1.0155 -0.6570 -0.0842
  684MOL0     H90274   3.556   2.292   9.329 -2.5669 -2.1630  0.4413
  684MOL0     H90275   3.342   2.234   9.283  3.8457 -0.9854  0.6219
  684MOL0     H90276   2.863   2.508   8.960 -0.5812  0.2483  0.7052
  684MOL0     H90277   2.668   2.404   8.863  0.6674  1.3773  2.4147
  684MOL0     H90278   2.739   1.961   8.814  0.2888 -0.3253 -3.4830
  684MOL0     H90279   2.602   1.961   8.711  1.5432 -0.3649 -0.4055
  684MOL0     H90280   2.603   2.079   8.990  0.3883  2.5652 -1.4194
  684MOL0     H90281   2.456   2.043   8.890 -1.1293 -1.4907  1.3949
  684MOL0     H90282   2.506   1.812   8.882 -0.5462 -0.0329 -0.2092
  684MOL0     H90283   2.459   1.850   9.043 -0.8436 -2.9387 -0.1276
  684MOL0     H90284   2.640   1.715   9.093  0.4503 -0.5129  0.5236
  684MOL0     H90285   2.730   1.792   8.956 -0.3436  1.1007 -0.3161
  684MOL0     H90286   2.819   2.068   9.260  0.4749  1.2780 -1.6648
  684MOL0     H90287   2.927   2.062   8.758  1.7594  1.0139 -1.5761
  684MOL0     H90288   3.106   2.168   8.865  0.1110  1.0692 -0.0228
  685MOL0     O90289   7.379  10.912   1.160 -0.4122 -0.0103 -0.3430
  685MOL0     C90290   7.292  10.995   1.190 -0.8706  0.3379 -0.4036
  685MOL0     O90291   7.287  11.132   1.170 -0.3221  0.3945  0.1040
  685MOL0     C90292   7.393  11.216   1.129  0.5573 -0.2688 -0.6869
  685MOL0     C90293   7.351  11.348   1.116  0.7670 -0.0057 -1.0004
  685MOL0     C90294   7.441  11.446   1.079  0.2555 -0.1850  0.8368
  685MOL0     C90295   7.569  11.417   1.060  0.2430  1.2211 -0.8262
  685MOL0     O90296   7.675  11.499   1.040 -0.4897  0.2961 -0.3666
  685MOL0     C90297   7.655  11.646   1.051  0.9983 -0.0394 -0.5895
  685MOL0     C90298   7.786  11.714   1.025  0.4726 -0.1846  0.2734
  685MOL0     C90299   7.763  11.864   1.038  1.0741  0.2980  0.4185
  685MOL0     C90300   7.900  11.936   1.027  0.3498  0.8871  0.1040
  685MOL0     C90301   7.889  12.087   1.052  1.3268  0.5285 -0.4680
  685MOL0     C90302   8.025  12.140   1.083  0.3854  0.0400 -0.2962
  685MOL0     C90303   8.027  12.280   1.151 -0.4396  0.0957 -0.2949
  685MOL0     C90304   7.976  12.390   1.057  0.5284 -0.2937  0.0603
  685MOL0     N90305   8.022  12.390   0.913 -0.3514 -0.4264 -0.5059
  685MOL0     C90306   8.120  12.466   0.849  0.4022  0.0404 -0.6396
  685MOL0     C90307   8.114  12.438   0.712 -0.4219  0.5116  0.0586
  685MOL0     C90308   8.202  12.469   0.588 -0.5533 -0.3157 -1.4169
  685MOL0     C90309   8.198  12.620   0.564 -0.2062  0.3367 -0.6475
  685MOL0     C90310   8.263  12.670   0.437  0.1984 -0.1611 -0.7986
  685MOL0     C90311   8.229  12.817   0.404 -0.2217 -0.6244  0.1074
  685MOL0     O90312   8.262  12.893   0.516  0.4930 -0.4279 -0.0062
  685MOL0     C90313   8.393  12.928   0.541 -0.4617  0.1933  0.0126
  685MOL0     C90314   8.501  12.908   0.458 -0.9132 -0.3063 -0.3698
  685MOL0     C90315   8.630  12.951   0.486 -0.3138  0.0747  0.1798
  685MOL0     C90316   8.654  13.023   0.600 -0.5323 -0.5841  0.3934
  685MOL0     C90317   8.797  13.077   0.626  0.0415  0.3469  0.1810
  685MOL0     O90318   8.830  13.103   0.754 -1.0666 -0.3476 -0.2792
  685MOL0     C90319   8.963  13.126   0.788 -0.2540 -0.5500  0.2939
  685MOL0     C90320   9.047  13.218   0.729 -0.2684  0.3972  0.1795
  685MOL0     C90321   9.174  13.236   0.772 -1.1141  0.0949 -0.3341
  685MOL0     C90322   9.230  13.172   0.881 -0.2325 -0.4292 -1.1161
  685MOL0     O90323   9.349  13.204   0.951  0.0417 -0.3955 -0.2786
  685MOL0     C90324   9.344  13.332   1.010 -0.8507  0.5300 -0.6315
  685MOL0     C90325   9.243  13.329   1.127 -0.7540 -0.0602 -0.0660
  685MOL0     C90326   9.242  13.449   1.232 -0.0211 -0.7263  0.4759
  685MOL0     C90327   9.387  13.496   1.262 -0.8009  0.3480 -0.7016
  685MOL0     C90328   9.400  13.592   1.386 -0.0290  0.3016 -0.2509
  685MOL0     C90329   9.545  13.626   1.410  0.6440  0.2641 -0.0357
  685MOL0     C90330   9.565  13.709   1.534  0.5256 -0.5183 -0.4291
  685MOL0     C90331   9.588  13.627   1.662 -0.3191  0.1044  1.3201
  685MOL0    Cl90332   9.746  13.544   1.644  0.2936  0.0286  0.3131
  685MOL0     C90333   9.142  13.075   0.940 -0.0110 -0.3434 -0.7205
  685MOL0     C90334   9.014  13.054   0.896  0.1628 -0.4028  0.6736
  685MOL0     O90335   8.863  13.087   0.524  0.1118  0.3434 -0.2297
  685MOL0     C90336   8.551  13.047   0.687 -0.1901 -0.2722 -0.7111
  685MOL0     C90337   8.416  13.004   0.659  0.5000 -0.2464  0.7955
  685MOL0     N90338   8.007  12.350   0.692 -0.3489  0.5015 -0.4957
  685MOL0     N90339   7.962  12.312   0.813  0.1822 -1.0156 -0.0020
  685MOL0     C90340   7.612  11.286   1.077 -0.0702  0.1317  0.8446
  685MOL0     C90341   7.522  11.184   1.107 -0.0096  0.3567 -0.6415
  685MOL0     C90342   7.171  10.937   1.244  0.9102 -0.6598 -0.1516
  685MOL0     C90343   7.099  10.993   1.348  0.0877  0.3986  0.3210
  685MOL0     C90344   6.978  10.939   1.395 -0.4302  0.9672 -0.3341
  685MOL0     C90345   6.928  10.830   1.339  0.0402 -0.3831  0.3697
  685MOL0     O90346   6.818  10.774   1.397 -0.3603  0.0533 -0.1952
  685MOL0     C90347   6.778  10.631   1.375  1.1069 -0.9475  0.2856
  685MOL0     C90348   6.638  10.616   1.448 -0.4214  0.1532  0.1722
  685MOL0     C90349   6.518  10.665   1.363  0.3504  0.3898  0.8827
  685MOL0     C90350   6.385  10.608   1.421 -0.1036  0.4917  0.2991
  685MOL0     C90351   6.351  10.673   1.547  0.0307  0.8240 -0.1095
  685MOL0     C90352   6.336  10.734   1.650  0.7414 -0.9501 -0.3525
  685MOL0     C90353   7.008  10.760   1.242 -0.5184 -0.5983 -0.0059
  685MOL0     C90354   7.121  10.821   1.184 -0.2252  1.1062  0.0807
  685MOL0     H90355   7.244  11.370   1.116  0.5413 -0.8948  0.7361
  685MOL0     H90356   7.415  11.550   1.063  1.8921  0.3941  1.7747
  685MOL0     H90357   7.607  11.669   1.147  0.7534 -1.4716 -0.3404
  685MOL0     H90358   7.579  11.673   0.976 -0.8838 -2.6566  0.1994
  685MOL0     H90359   7.826  11.685   0.928 -1.0986  2.9308 -1.4556
  685MOL0     H90360   7.839  11.688   1.117  0.5575 -1.2036 -0.0615
  685MOL0     H90361   7.718  11.890   1.134 -2.6658  0.6493 -1.2526
  685MOL0     H90362   7.690  11.901   0.965 -0.0378  1.5286  2.0676
  685MOL0     H90363   7.976  11.901   1.097  0.7868  2.2355  0.3406
  685MOL0     H90364   7.941  11.912   0.928  0.3955  0.8614  0.1297
  685MOL0     H90365   7.817  12.104   1.133 -0.8857  1.2322 -2.4435
  685MOL0     H90366   7.851  12.150   0.971 -2.4528 -1.5909 -0.5627
  685MOL0     H90367   8.087  12.139   0.993 -1.2182 -2.6808 -1.4896
  685MOL0     H90368   8.079  12.064   1.141 -0.5214  0.1655  0.7441
  685MOL0     H90369   7.967  12.292   1.242 -1.0729  0.1598 -0.7123
  685MOL0     H90370   8.132  12.304   1.169 -0.0949 -1.3881 -0.2052
  685MOL0     H90371   8.008  12.484   1.103 -0.3131 -0.9718  2.1265
  685MOL0     H90372   7.867  12.386   1.058  0.5031  0.2370 -0.4321
  685MOL0     H90373   8.194  12.531   0.892  0.5430 -1.1237  0.9744
  685MOL0     H90374   8.180  12.409   0.498  4.3120 -2.8155 -1.2883
  685MOL0     H90375   8.304  12.436   0.609 -2.0176 -3.1075  2.3395
  685MOL0     H90376   8.245  12.671   0.649  1.4589 -1.8337 -0.1589
  685MOL0     H90377   8.094  12.654   0.558  0.1009  1.0737 -1.8996
  685MOL0     H90378   8.372  12.671   0.447  0.1453 -0.7111 -0.0241
  685MOL0     H90379   8.234  12.606   0.354 -0.0617 -2.0680  0.6790
  685MOL0     H90380   8.123  12.818   0.378  0.1350 -0.3576 -1.4586
  685MOL0     H90381   8.279  12.851   0.313 -0.7095 -0.0388  0.0511
  685MOL0     H90382   8.476  12.860   0.364 -2.9159  2.4105 -1.3537
  685MOL0     H90383   8.716  12.933   0.422 -0.9344 -2.0760 -0.1336
  685MOL0     H90384   9.011  13.285   0.651  0.7849 -0.4073 -1.0447
  685MOL0     H90385   9.223  13.326   0.734 -2.1490  1.3844  1.2875
  685MOL0     H90386   9.297  13.401   0.938 -0.0786  0.3197 -1.3520
  685MOL0     H90387   9.443  13.372   1.033 -0.1075 -0.0620 -2.5831
  685MOL0     H90388   9.247  13.234   1.182  0.1109  0.2712  0.4495
  685MOL0     H90389   9.144  13.318   1.082  0.3277 -0.0343 -2.5983
  685MOL0     H90390   9.177  13.421   1.315 -0.0810 -2.2543 -0.0444
  685MOL0     H90391   9.184  13.536   1.197  0.7082  1.1275  3.5260
  685MOL0     H90392   9.430  13.399   1.291 -0.4012  0.9011  0.6440
  685MOL0     H90393   9.445  13.542   1.182  1.6757 -1.7496 -0.2560
  685MOL0     H90394   9.359  13.538   1.472 -3.6102  2.6881 -0.2080
  685MOL0     H90395   9.351  13.688   1.366  0.2732  0.3481 -0.7802
  685MOL0     H90396   9.602  13.671   1.328  0.1265  1.7366  0.3861
  685MOL0     H90397   9.592  13.530   1.434 -3.1793 -1.9164 -0.5487
  685MOL0     H90398   9.656  13.767   1.518 -0.3432  1.9645  2.5403
  685MOL0     H90399   9.474  13.768   1.550 -0.4509 -2.2867  0.9126
  685MOL0     H90400   9.504  13.559   1.676  0.0690 -0.2096  2.1705
  685MOL0     H90401   9.593  13.687   1.753  0.5919 -0.3735  1.5948
  685MOL0     H90402   9.169  13.021   1.030  1.1689  0.2432 -0.7043
  685MOL0     H90403   8.951  12.985   0.951  0.5150 -1.4322 -0.1895
  685MOL0     H90404   8.572  13.103   0.777  0.3111 -1.3054 -0.1814
  685MOL0     H90405   8.333  13.015   0.729 -0.8205  3.0405 -1.0742
  685MOL0     H90406   7.717  11.272   1.053  0.3350  1.0057  2.0010
  685MOL0     H90407   7.554  11.081   1.103 -1.4992 -0.3600  2.8814
  685MOL0     H90408   7.128  11.086   1.396 -1.4145  1.0598  0.0068
  685MOL0     H90409   6.931  10.975   1.486 -1.9987 -0.3096 -0.5917
  685MOL0     H90410   6.839  10.555   1.424 -1.8743 -2.6882  1.5703
  685MOL0     H90411   6.776  10.606   1.268  0.0811 -0.7218  0.2344
  685MOL0     H90412   6.609  10.511   1.458 -0.2841 -0.0149 -1.0495
  685MOL0     H90413   6.634  10.656   1.550 -2.8028 -2.4524  1.2394
  685MOL0     H90414   6.518  10.631   1.259 -4.7402  1.2357  0.3137
  685MOL0     H90415   6.534  10.773   1.371  2.3210  0.0427  2.1507
  685MOL0     H90416   6.308  10.618   1.344 -3.7379 -3.5084  2.9123
  685MOL0     H90417   6.395  10.499   1.435  1.3226  0.2302 -2.1859
  685MOL0     H90418   6.316  10.805   1.728 -0.9276  1.4676 -2.7726
  685MOL0     H90419   6.986  10.663   1.197 -1.7525 -0.1341 -0.4486
  685MOL0     H90420   7.169  10.776   1.097 -0.4200 -3.9847  2.2584
  686MOL0     O90421   5.213   5.863   2.879 -0.1026 -0.3256  0.0627
  686MOL0     C90422   5.235   5.924   2.983  0.2593 -0.6509  0.4135
  686MOL0     O90423   5.159   6.027   3.036 -0.2775 -0.1263  0.5262
  686MOL0     C90424   5.024   6.021   3.017  0.0729  0.4554  0.5224
  686MOL0     C90425   4.958   5.906   2.999  0.3636  0.3792 -0.1287
  686MOL0     C90426   4.819   5.899   2.982 -0.4558  1.1863 -0.8587
  686MOL0     C90427   4.750   6.017   2.972 -0.0072 -0.3393 -0.0646
  686MOL0     O90428   4.616   5.995   2.941 -0.5936 -0.9453  0.3245
  686MOL0     C90429   4.540   6.109   2.962 -0.6369  0.6512 -0.4990
  686MOL0     C90430   4.390   6.070   2.930 -1.3192  0.1378 -0.3688
  686MOL0     C90431   4.304   6.201   2.942  0.2131  0.0875  0.0112
  686MOL0     C90432   4.160   6.171   2.904  0.2976 -0.1127 -0.4100
  686MOL0     C90433   4.069   6.298   2.937 -0.3251  0.0582  0.7316
  686MOL0     C90434   3.925   6.246   2.940  0.0179 -0.5887 -0.3816
  686MOL0     C90435   3.820   6.358   2.965 -0.0804  0.0385 -0.1086
  686MOL0     C90436   3.693   6.332   2.891  0.4069 -0.8225  0.6036
  686MOL0     N90437   3.573   6.366   2.972 -1.0008  0.3120 -0.3095
  686MOL0     C90438   3.507   6.286   3.069  0.9124 -0.2262 -0.4724
  686MOL0     C90439   3.384   6.334   3.073 -0.2248 -0.8789  0.6136
  686MOL0     C90440   3.266   6.292   3.162  0.2462 -0.0157  0.6018
  686MOL0     C90441   3.126   6.300   3.093  0.2123 -0.4621  0.9222
  686MOL0     C90442   3.075   6.161   3.052 -0.9492  0.9790 -0.3172
  686MOL0     C90443   2.950   6.163   2.975 -0.1675  0.3328  0.1538
  686MOL0     O90444   2.943   6.036   2.900  0.1552  0.0893 -1.0378
  686MOL0     C90445   2.833   6.009   2.820  0.1399 -0.4116  0.0265
  686MOL0     C90446   2.713   6.081   2.825 -0.8277  0.2143 -0.0488
  686MOL0     C90447   2.602   6.041   2.752  0.2037  0.9324  0.1050
  686MOL0     C90448   2.605   5.944   2.652 -1.3486 -0.3820 -0.0952
  686MOL0     C90449   2.480   5.901   2.578 -0.9495  0.6087 -0.2768
  686MOL0     O90450   2.364   5.967   2.609  0.0399 -0.0132 -0.1893
  686MOL0     C90451   2.247   5.952   2.534  0.0461 -0.0741  0.6735
  686MOL0     C90452   2.160   6.062   2.552  1.0587 -0.4110  0.2074
  686MOL0     C90453   2.039   6.074   2.476 -0.5502 -0.5505 -1.1012
  686MOL0     C90454   2.011   5.974   2.385 -0.3187 -0.2237 -0.2590
  686MOL0     O90455   1.891   5.987   2.325 -0.0384  0.5629  0.7235
  686MOL0     C90456   1.862   5.901   2.218  0.2849  0.1765  0.5269
  686MOL0     C90457   1.745   5.973   2.143 -0.1189  0.5033  0.3493
  686MOL0     C90458   1.612   5.975   2.221 -0.4602  0.1566  0.3480
  686MOL0     C90459   1.509   6.034   2.123 -0.1808  0.2507 -1.1315
  686MOL0     C90460   1.375   5.986   2.167 -0.0901  0.5080 -0.1038
  686MOL0     C90461   1.255   6.025   2.078 -1.3550 -0.3376 -0.2434
  686MOL0     C90462   1.247   5.936   1.955  0.5792 -0.0989  0.7395
  686MOL0     C90463   1.102   5.941   1.893 -0.2414 -0.2034 -0.1250
  686MOL0    Cl90464   1.094   5.802   1.773 -0.5635 -0.7543 -0.1722
  686MOL0     C90465   2.096   5.853   2.375 -0.8746  0.0505  0.1261
  686MOL0     C90466   2.215   5.850   2.452 -0.0587 -0.0961  0.8708
  686MOL0     O90467   2.491   5.797   2.516 -0.4773  0.4186  0.4152
  686MOL0     C90468   2.727   5.870   2.644 -0.2502  0.1541 -0.3128
  686MOL0     C90469   2.836   5.901   2.729 -0.3257  0.2001 -1.1004
  686MOL0     N90470   3.387   6.449   2.998  0.4313 -0.4892 -0.4208
  686MOL0     N90471   3.499   6.472   2.941 -0.4547 -0.0202  0.1372
  686MOL0     C90472   4.822   6.139   2.975 -0.2139 -0.9271 -0.4330
  686MOL0     C90473   4.954   6.137   3.020  0.7877 -0.5003 -0.7717
  686MOL0     C90474   5.377   5.903   3.036  0.3501  0.4536  0.1516
  686MOL0     C90475   5.453   6.003   3.096 -0.8768 -0.0171  0.5660
  686MOL0     C90476   5.589   5.978   3.128  0.9610  0.0139 -0.2435
  686MOL0     C90477   5.643   5.853   3.101 -0.9398 -0.1832  0.2194
  686MOL0     O90478   5.769   5.820   3.136 -0.3108 -0.4016  0.3244
  686MOL0     C90479   5.861   5.768   3.033  0.0701 -0.3634 -0.6932
  686MOL0     C90480   5.973   5.680   3.098  1.1726  0.4794 -0.3306
  686MOL0     C90481   5.915   5.571   3.192 -0.5468  1.0244  0.1158
  686MOL0     C90482   6.018   5.464   3.249 -0.3662  0.6678 -0.1206
  686MOL0     C90483   6.166   5.511   3.234 -0.3996 -0.3517  0.5488
  686MOL0     C90484   6.282   5.542   3.215  0.4273 -0.1574 -0.1186
  686MOL0     C90485   5.562   5.747   3.057  0.1370 -1.1724  0.3434
  686MOL0     C90486   5.429   5.771   3.012 -0.8967  0.0705 -0.2591
  686MOL0     H90487   5.017   5.815   2.992  1.0839  0.8004  0.3595
  686MOL0     H90488   4.761   5.811   2.958 -0.0411  0.8684 -0.6984
  686MOL0     H90489   4.573   6.195   2.904 -1.3482  2.9331  2.2647
  686MOL0     H90490   4.555   6.143   3.065  1.9493  2.4064 -1.3626
  686MOL0     H90491   4.356   5.983   2.987 -1.7436 -0.0303 -0.8738
  686MOL0     H90492   4.393   6.038   2.825  0.4270 -0.9633 -0.0225
  686MOL0     H90493   4.347   6.284   2.885  1.2762 -0.6152 -0.2604
  686MOL0     H90494   4.312   6.238   3.045  1.5572  4.7763 -1.5215
  686MOL0     H90495   4.154   6.146   2.797 -2.9239 -1.2951 -0.0562
  686MOL0     H90496   4.132   6.087   2.968 -1.5952  0.8177  0.0392
  686MOL0     H90497   4.090   6.362   2.851  0.5506 -1.3342 -0.1322
  686MOL0     H90498   4.092   6.341   3.035  1.2095 -2.0857  1.3805
  686MOL0     H90499   3.921   6.174   3.022  0.5998  0.6991  0.8257
  686MOL0     H90500   3.902   6.190   2.849 -0.8075 -2.0836  0.6958
  686MOL0     H90501   3.803   6.352   3.073 -0.1799 -3.3067 -0.2277
  686MOL0     H90502   3.869   6.453   2.940  4.0761 -2.2645 -1.7014
  686MOL0     H90503   3.693   6.224   2.872  1.2660 -1.2391  2.7433
  686MOL0     H90504   3.684   6.387   2.797 -1.0293 -0.1749  1.0884
  686MOL0     H90505   3.537   6.204   3.133 -1.1178 -0.0412  0.7858
  686MOL0     H90506   3.258   6.340   3.260  1.6690  1.1825  0.1651
  686MOL0     H90507   3.277   6.186   3.189  0.6276 -0.6855 -1.8669
  686MOL0     H90508   3.128   6.358   3.000  0.7743  0.7011  1.6241
  686MOL0     H90509   3.062   6.356   3.162  0.9104 -0.9416  1.9829
  686MOL0     H90510   3.151   6.120   2.985  1.5233  1.6942  1.8997
  686MOL0     H90511   3.066   6.104   3.145  1.3846  1.5433  0.3166
  686MOL0     H90512   2.949   6.238   2.895  0.7925  1.1078  0.8487
  686MOL0     H90513   2.867   6.167   3.046  0.0212  0.0202  0.3965
  686MOL0     H90514   2.697   6.164   2.894 -0.2830 -1.1379  1.7829
  686MOL0     H90515   2.508   6.088   2.780 -2.0490 -2.1763 -1.5827
  686MOL0     H90516   2.188   6.131   2.631 -1.7695  1.6502 -0.4258
  686MOL0     H90517   1.973   6.160   2.481 -3.3972 -2.6809  1.8207
  686MOL0     H90518   1.833   5.808   2.268  1.0513 -0.1068  0.4717
  686MOL0     H90519   1.950   5.900   2.153 -0.0896 -1.3282  0.0074
  686MOL0     H90520   1.729   5.918   2.050  1.4420 -3.0248  1.9800
  686MOL0     H90521   1.793   6.070   2.126  3.8285 -0.7298  2.9001
  686MOL0     H90522   1.621   6.027   2.316  0.5245  0.1331  0.2849
  686MOL0     H90523   1.575   5.874   2.241 -2.0109  0.1718 -2.0379
  686MOL0     H90524   1.511   6.143   2.126 -5.0544  0.5487 -0.0542
  686MOL0     H90525   1.520   5.988   2.024 -1.0860 -0.8076 -0.7698
  686MOL0     H90526   1.353   6.033   2.263  2.8379 -1.4583  1.6810
  686MOL0     H90527   1.357   5.879   2.182 -6.0463  1.0205 -1.2518
  686MOL0     H90528   1.264   6.129   2.046  0.4512 -0.1903  0.6342
  686MOL0     H90529   1.157   6.024   2.127 -1.3002 -0.8907 -0.1435
  686MOL0     H90530   1.318   5.973   1.881  0.3782 -1.0995  0.0346
  686MOL0     H90531   1.273   5.834   1.984  1.8704  0.0493  0.1386
  686MOL0     H90532   1.097   6.042   1.853 -4.5696  0.6133  1.9683
  686MOL0     H90533   1.030   5.925   1.974 -0.1323  0.0618  0.0259
  686MOL0     H90534   2.055   5.770   2.320  0.2729 -0.1210 -0.4996
  686MOL0     H90535   2.278   5.762   2.440 -0.3103  0.0425 -2.5797
  686MOL0     H90536   2.737   5.789   2.572 -0.4895 -0.0608 -0.1046
  686MOL0     H90537   2.923   5.841   2.704 -0.7653 -1.2858  0.6827
  686MOL0     H90538   4.773   6.236   2.971 -0.4656 -1.0260  0.2342
  686MOL0     H90539   5.001   6.229   3.052  1.1092 -0.8551 -0.2174
  686MOL0     H90540   5.405   6.099   3.109 -1.7362  0.0971 -2.5681
  686MOL0     H90541   5.651   6.061   3.160  0.1603  0.4493  0.2047
  686MOL0     H90542   5.921   5.849   2.991 -1.4903  0.5331 -1.2796
  686MOL0     H90543   5.791   5.727   2.959 -2.2012  0.4666  0.8769
  686MOL0     H90544   6.024   5.633   3.013  0.1713  2.1616 -1.9369
  686MOL0     H90545   6.043   5.755   3.137  0.5213  0.6788  0.4953
  686MOL0     H90546   5.828   5.518   3.153 -0.8826  1.3830  0.3646
  686MOL0     H90547   5.871   5.624   3.277 -0.6279  0.7321  0.2569
  686MOL0     H90548   5.998   5.441   3.354  0.3042 -0.5788 -0.2524
  686MOL0     H90549   6.005   5.373   3.190 -3.1580  0.7629  0.2128
  686MOL0     H90550   6.388   5.555   3.201  0.4419  0.5946  0.6494
  686MOL0     H90551   5.605   5.649   3.041  3.0575 -0.1012  1.0376
  686MOL0     H90552   5.375   5.689   2.967 -0.6640 -0.8964  1.1768
  687MOL0     O90553   4.360   0.253   8.623 -1.2324  0.7360 -0.4499
  687MOL0     C90554   4.459   0.178   8.619 -0.5556 -0.7620  0.4706
  687MOL0     O90555   4.489   0.101   8.509  0.2583  0.3236  0.0710
  687MOL0     C90556   4.396   0.096   8.410  0.1802 -0.1786 -0.4924
  687MOL0     C90557   4.432   0.090   8.277  0.8265 -0.7805  0.5224
  687MOL0     C90558   4.342   0.071   8.174  0.2023 -0.3291  0.9395
  687MOL0     C90559   4.208   0.043   8.198 -0.3805 -0.4177 -1.1624
  687MOL0     O90560   4.113   0.001   8.112 -0.2728  0.1746  0.3320
  687MOL0     C90561   4.143  -0.043   7.986 -0.3462  0.3651  0.0141
  687MOL0     C90562   4.021  -0.104   7.927 -0.0709  0.5119  1.1986
  687MOL0     C90563   3.915  -0.007   7.901  0.5982 -0.5624  0.4648
  687MOL0     C90564   3.817  -0.078   7.806  0.5205 -0.5000 -0.3914
  687MOL0     C90565   3.689  -0.011   7.783 -0.5360 -0.2995  0.8130
  687MOL0     C90566   3.577  -0.036   7.890 -0.2418  0.7300  0.4422
  687MOL0     C90567   3.460   0.061   7.904  0.1827  0.2863 -0.2499
  687MOL0     C90568   3.351   0.009   7.816 -0.5727  0.0013 -0.3921
  687MOL0     N90569   3.284  -0.098   7.888  0.0702 -0.3484 -0.0196
  687MOL0     C90570   3.177  -0.158   7.831  0.8729  1.0379  0.8444
  687MOL0     C90571   3.142  -0.249   7.928  0.9727  0.6132 -0.1887
  687MOL0     C90572   3.009  -0.334   7.925 -0.4717  0.3083 -0.3593
  687MOL0     C90573   3.000  -0.427   8.056 -0.4581  0.3467 -0.0993
  687MOL0     C90574   2.889  -0.530   8.056  0.3624  0.0267 -0.3295
  687MOL0     C90575   2.751  -0.479   8.002  0.2450  0.2101  0.5891
  687MOL0     O90576   2.681  -0.604   7.967  0.0640 -0.6540 -0.0381
  687MOL0     C90577   2.550  -0.597   7.923  0.3842 -0.1055  0.2937
  687MOL0     C90578   2.477  -0.487   7.888 -0.1483 -0.2708 -0.2313
  687MOL0     C90579   2.340  -0.497   7.844 -0.3405  0.6815 -0.2129
  687MOL0     C90580   2.282  -0.633   7.832 -0.0200 -0.0383 -0.7021
  687MOL0     C90581   2.142  -0.665   7.782 -0.1790 -0.6190 -0.4787
  687MOL0     O90582   2.066  -0.555   7.751 -0.7197  0.1809 -0.0511
  687MOL0     C90583   1.965  -0.555   7.659  0.8568 -0.6391  0.7411
  687MOL0     C90584   1.913  -0.426   7.639  0.6728  0.3672 -0.2133
  687MOL0     C90585   1.809  -0.403   7.552  0.5164 -0.3977  0.2790
  687MOL0     C90586   1.755  -0.520   7.477 -0.2652 -0.8721 -0.3397
  687MOL0     O90587   1.641  -0.504   7.398 -0.6406  0.1432  0.0066
  687MOL0     C90588   1.599  -0.607   7.315 -0.6204 -0.8195  0.4553
  687MOL0     C90589   1.515  -0.540   7.206 -0.2931  0.3795  0.0688
  687MOL0     C90590   1.383  -0.483   7.266 -0.4105 -0.1968  0.6053
  687MOL0     C90591   1.291  -0.427   7.148  0.6094  0.1385  0.1530
  687MOL0     C90592   1.159  -0.368   7.186  1.0179  0.0025 -0.6702
  687MOL0     C90593   1.062  -0.488   7.191  1.4137  0.3542 -0.1458
  687MOL0     C90594   0.935  -0.433   7.253  0.3646 -0.0012  0.2448
  687MOL0     C90595   0.814  -0.507   7.196 -0.2758  1.1468  0.2840
  687MOL0    Cl90596   0.671  -0.426   7.266 -0.3497  0.2981  0.2954
  687MOL0     C90597   1.821  -0.643   7.482  1.3490 -0.0504 -0.5322
  687MOL0     C90598   1.925  -0.658   7.572  0.6954 -0.8663 -0.3407
  687MOL0     O90599   2.103  -0.782   7.766  0.6206  0.0556 -0.0815
  687MOL0     C90600   2.367  -0.746   7.860  0.0749 -0.8164  0.1020
  687MOL0     C90601   2.502  -0.729   7.907  0.0168 -0.4632 -0.4235
  687MOL0     N90602   3.217  -0.229   8.040  0.4162 -0.1690  0.3783
  687MOL0     N90603   3.302  -0.142   8.022 -0.1377  0.3107  0.2010
  687MOL0     C90604   4.165   0.056   8.325  0.5876 -0.4024 -0.2879
  687MOL0     C90605   4.260   0.083   8.432 -0.2332  0.6525 -0.2922
  687MOL0     C90606   4.543   0.153   8.736 -0.1234 -1.1897  0.6066
  687MOL0     C90607   4.498   0.216   8.854  0.3651  0.4895  0.5148
  687MOL0     C90608   4.566   0.193   8.966 -0.3781 -0.5017 -0.5779
  687MOL0     C90609   4.676   0.117   8.973 -0.1226  0.2281 -0.5577
  687MOL0     O90610   4.732   0.096   9.100 -0.3438 -0.7075 -0.6263
  687MOL0     C90611   4.855   0.018   9.109  0.2495 -0.9059  0.0417
  687MOL0     C90612   4.898  -0.001   9.254 -0.6018  0.4474  0.5299
  687MOL0     C90613   5.044  -0.009   9.306 -0.8278 -0.7420 -0.0308
  687MOL0     C90614   5.118  -0.122   9.230 -0.0237 -0.0008  0.9255
  687MOL0     C90615   5.125  -0.117   9.085 -1.1684 -0.5917 -0.1649
  687MOL0     C90616   5.106  -0.121   8.964 -0.4002  0.2886  0.2814
  687MOL0     C90617   4.724   0.055   8.855  0.1810  0.2671 -0.3707
  687MOL0     C90618   4.653   0.068   8.738 -0.7585  0.2152 -0.4268
  687MOL0     H90619   4.536   0.104   8.248 -0.2109 -0.7117 -3.8618
  687MOL0     H90620   4.400   0.085   8.084 -0.4743  0.5277  0.6207
  687MOL0     H90621   4.221  -0.121   7.988 -3.3775 -2.9792  3.3264
  687MOL0     H90622   4.179   0.033   7.916 -2.1515  2.2405  1.0517
  687MOL0     H90623   3.974  -0.180   7.990 -0.2852 -0.8039 -0.4993
  687MOL0     H90624   4.059  -0.146   7.834  1.7569 -2.4235  3.1038
  687MOL0     H90625   3.952   0.088   7.863  0.8277 -0.0683  1.9068
  687MOL0     H90626   3.856   0.026   7.987 -0.8502  0.3660 -0.8165
  687MOL0     H90627   3.852  -0.098   7.705  1.9980 -3.2214  0.5621
  687MOL0     H90628   3.783  -0.168   7.859  1.1320 -0.5823 -0.1307
  687MOL0     H90629   3.649  -0.042   7.686  1.9210 -0.7156 -0.1291
  687MOL0     H90630   3.701   0.098   7.784 -0.8996 -0.2384  2.6284
  687MOL0     H90631   3.625  -0.027   7.988 -1.7290 -0.1036  1.2797
  687MOL0     H90632   3.549  -0.141   7.886  0.4774  0.3371  3.3183
  687MOL0     H90633   3.430   0.063   8.009 -0.8885  0.6482 -0.5601
  687MOL0     H90634   3.483   0.161   7.866 -3.1010  0.6757 -1.4740
  687MOL0     H90635   3.395  -0.027   7.723  0.3535  0.8900 -0.3244
  687MOL0     H90636   3.280   0.091   7.803  0.1275  0.6526 -0.2251
  687MOL0     H90637   3.117  -0.139   7.743 -0.9554 -2.6414  1.0923
  687MOL0     H90638   2.998  -0.385   7.828 -1.7562  0.9812 -0.5859
  687MOL0     H90639   2.924  -0.266   7.932 -0.0043  0.8076  5.4338
  687MOL0     H90640   2.999  -0.367   8.148 -2.2867 -0.9227  0.7747
  687MOL0     H90641   3.096  -0.479   8.066  0.7335  2.5608  0.6699
  687MOL0     H90642   2.925  -0.613   7.995  4.1360 -0.7839  2.6226
  687MOL0     H90643   2.872  -0.592   8.144  1.7496  0.2052  0.0774
  687MOL0     H90644   2.746  -0.429   7.905 -4.0993 -0.2823  0.3628
  687MOL0     H90645   2.687  -0.423   8.071  0.3995  0.7140  0.3287
  687MOL0     H90646   2.524  -0.390   7.891  1.4046 -1.0020  0.1647
  687MOL0     H90647   2.294  -0.408   7.803  0.5418 -0.2024 -3.4179
  687MOL0     H90648   1.953  -0.337   7.687 -0.3826  1.3519 -1.0915
  687MOL0     H90649   1.777  -0.300   7.540  1.5242 -0.3202 -2.5155
  687MOL0     H90650   1.540  -0.686   7.361 -0.4989 -0.4748  1.2204
  687MOL0     H90651   1.686  -0.661   7.275 -1.1600 -0.1491 -1.7875
  687MOL0     H90652   1.504  -0.627   7.141  0.4202 -1.2259  2.0152
  687MOL0     H90653   1.577  -0.464   7.157  0.4959  0.0697  0.5707
  687MOL0     H90654   1.392  -0.399   7.334 -0.9039  0.3048  0.0533
  687MOL0     H90655   1.331  -0.562   7.321 -2.9545  1.1428  0.2451
  687MOL0     H90656   1.353  -0.354   7.095  1.0081  0.0683  0.5164
  687MOL0     H90657   1.276  -0.503   7.072 -0.6311  0.3678  0.1458
  687MOL0     H90658   1.128  -0.306   7.101  0.7019 -1.2415 -1.4834
  687MOL0     H90659   1.176  -0.309   7.276  1.5156 -4.3535  2.4215
  687MOL0     H90660   1.097  -0.565   7.261  0.8536  0.2190 -0.0130
  687MOL0     H90661   1.045  -0.529   7.092  0.3480  0.0921  0.1320
  687MOL0     H90662   0.928  -0.468   7.356 -0.8531 -5.8963 -1.4433
  687MOL0     H90663   0.916  -0.325   7.252  1.3400  0.1943  1.2963
  687MOL0     H90664   0.804  -0.614   7.218 -1.2572  1.1994  0.1340
  687MOL0     H90665   0.817  -0.513   7.087 -1.3403 -3.2159  0.3016
  687MOL0     H90666   1.776  -0.732   7.438 -1.3607  0.7111  0.4999
  687MOL0     H90667   1.966  -0.759   7.569  1.7529 -0.4383 -2.6428
  687MOL0     H90668   2.330  -0.848   7.866 -0.9394 -0.3904  1.8221
  687MOL0     H90669   2.567  -0.807   7.946 -0.5739  0.3063  2.3061
  687MOL0     H90670   4.060   0.038   8.348  0.1051  0.7110 -1.5039
  687MOL0     H90671   4.213   0.097   8.529 -1.7642  3.6668 -1.3464
  687MOL0     H90672   4.402   0.266   8.852 -0.0563 -0.3102  0.0781
  687MOL0     H90673   4.535   0.229   9.064 -0.9313  0.7056 -1.1859
  687MOL0     H90674   4.943   0.072   9.073 -1.2046  2.1856  0.8347
  687MOL0     H90675   4.853  -0.074   9.050  2.4249 -1.0110  0.0535
  687MOL0     H90676   4.853   0.087   9.302 -0.0780  1.1277 -0.1903
  687MOL0     H90677   4.844  -0.092   9.281 -1.1571  1.2160  2.1524
  687MOL0     H90678   5.048  -0.041   9.411 -0.6421 -1.0759 -0.1387
  687MOL0     H90679   5.099   0.084   9.288 -0.7844 -0.6279  0.6677
  687MOL0     H90680   5.217  -0.136   9.275  0.3852 -1.6571 -0.3592
  687MOL0     H90681   5.065  -0.214   9.253 -1.0264  0.0476 -0.9969
  687MOL0     H90682   5.083  -0.121   8.860  0.3810 -3.1936 -0.0265
  687MOL0     H90683   4.806  -0.015   8.852 -1.2189 -1.4195 -0.7068
  687MOL0     H90684   4.679   0.016   8.646  1.0013  0.6118 -0.1989
  688MOL0     O90685   4.847   0.860   2.327 -0.1699 -0.4096 -1.1918
  688MOL0     C90686   4.903   0.755   2.333 -0.3872  0.0762 -0.7740
  688MOL0     O90687   4.853   0.629   2.368 -0.4541 -0.1111 -0.4918
  688MOL0     C90688   4.727   0.594   2.328  0.3654  0.4365 -0.3873
  688MOL0     C90689   4.651   0.487   2.390  1.0454 -0.6792  0.4914
  688MOL0     C90690   4.523   0.455   2.350  1.1056 -0.0155  0.6154
  688MOL0     C90691   4.462   0.533   2.248  0.8810  0.4909  0.1885
  688MOL0     O90692   4.331   0.500   2.197 -0.8822 -1.1141 -0.2981
  688MOL0     C90693   4.228   0.578   2.264  0.8592  0.5405 -0.2709
  688MOL0     C90694   4.174   0.497   2.390 -0.5541 -0.0082  0.5986
  688MOL0     C90695   4.074   0.584   2.467  0.2375  0.5258 -0.1582
  688MOL0     C90696   3.947   0.643   2.393 -0.2180 -0.0801 -0.1408
  688MOL0     C90697   3.857   0.537   2.341  0.2455  0.1002  0.7094
  688MOL0     C90698   3.726   0.594   2.284  0.4340 -0.3873 -1.1723
  688MOL0     C90699   3.649   0.481   2.221 -0.1609  0.3649 -0.8207
  688MOL0     C90700   3.536   0.547   2.144  0.0520  0.2628  1.5373
  688MOL0     N90701   3.457   0.445   2.083 -0.1047  0.9645 -0.1573
  688MOL0     C90702   3.414   0.323   2.160  0.6720 -0.0568  0.2625
  688MOL0     C90703   3.357   0.247   2.059  0.0389  0.2321 -1.0877
  688MOL0     C90704   3.288   0.111   2.095 -0.1846 -0.5636  0.5530
  688MOL0     C90705   3.285   0.017   1.974 -0.5851  0.3899  0.1369
  688MOL0     C90706   3.179   0.053   1.867 -0.3408 -0.1248  1.1265
  688MOL0     C90707   3.035   0.009   1.900 -2.3272 -0.1046  0.0226
  688MOL0     O90708   2.972  -0.044   1.781  0.5833 -0.6239 -0.3129
  688MOL0     C90709   2.886   0.035   1.714 -0.0679  0.0170 -0.4249
  688MOL0     C90710   2.941   0.098   1.607  0.1848 -0.0897 -1.1391
  688MOL0     C90711   2.855   0.180   1.530 -0.6669 -0.1266  0.9926
  688MOL0     C90712   2.721   0.187   1.546  0.6008  0.7436 -1.0420
  688MOL0     C90713   2.634   0.252   1.445 -0.4682 -0.7290  0.1337
  688MOL0     O90714   2.499   0.263   1.480  0.1979  0.1898 -0.0102
  688MOL0     C90715   2.412   0.352   1.426  0.7781 -0.6926 -0.0928
  688MOL0     C90716   2.276   0.341   1.476  0.6119  0.0948 -0.4255
  688MOL0     C90717   2.179   0.444   1.460  0.2432 -0.1671 -0.4814
  688MOL0     C90718   2.216   0.556   1.390  0.6758  0.1500 -0.0563
  688MOL0     O90719   2.135   0.663   1.370  0.2445  0.3668  0.5942
  688MOL0     C90720   1.999   0.649   1.415 -0.3662 -0.7744 -0.5340
  688MOL0     C90721   1.929   0.778   1.374  0.4055  0.3457  0.1867
  688MOL0     C90722   1.774   0.757   1.378  0.8641  0.3849  0.0200
  688MOL0     C90723   1.710   0.884   1.315 -0.6643 -0.6115  0.2787
  688MOL0     C90724   1.568   0.914   1.365 -0.9113  0.9664  0.7204
  688MOL0     C90725   1.462   0.801   1.315 -0.1134 -0.1588  0.6449
  688MOL0     C90726   1.320   0.814   1.383 -1.0014 -0.9415 -0.1457
  688MOL0     C90727   1.215   0.872   1.287 -0.6012 -0.0295 -0.2154
  688MOL0    Cl90728   1.048   0.877   1.347  0.1166  0.2250  0.1769
  688MOL0     C90729   2.347   0.574   1.342  0.0448 -0.3832 -0.1492
  688MOL0     C90730   2.443   0.472   1.355 -0.6770  0.0224 -0.4678
  688MOL0     O90731   2.684   0.290   1.340  0.2750 -0.1419  0.2025
  688MOL0     C90732   2.672   0.120   1.655  1.1019 -0.0313 -0.0297
  688MOL0     C90733   2.757   0.052   1.752  0.2204 -0.4574  0.6126
  688MOL0     N90734   3.354   0.320   1.945  0.0184 -0.3672  0.1302
  688MOL0     N90735   3.420   0.428   1.949 -0.1292  0.3625 -0.1199
  688MOL0     C90736   4.522   0.634   2.187 -0.6091  0.2774  0.4205
  688MOL0     C90737   4.654   0.664   2.226 -0.4956  1.1598  0.5240
  688MOL0     C90738   5.046   0.757   2.344  0.5842 -0.2614 -0.6783
  688MOL0     C90739   5.121   0.871   2.339 -1.1958 -0.8784  1.5525
  688MOL0     C90740   5.262   0.879   2.336 -0.4697  0.0945 -0.0044
  688MOL0     C90741   5.341   0.768   2.358  0.5795 -0.2134  0.8483
  688MOL0     O90742   5.473   0.758   2.369  0.7989  0.5413  0.4092
  688MOL0     C90743   5.538   0.859   2.443 -0.3954  0.3432 -0.2383
  688MOL0     C90744   5.679   0.806   2.474 -0.0876 -1.0185 -0.3071
  688MOL0     C90745   5.673   0.738   2.610 -0.6523 -0.7365  0.5209
  688MOL0     C90746   5.808   0.656   2.643  0.2974  0.0793  0.3029
  688MOL0     C90747   5.792   0.598   2.768  0.0832 -0.9194 -0.2800
  688MOL0     C90748   5.763   0.550   2.876 -1.0304 -0.3756  0.6395
  688MOL0     C90749   5.274   0.652   2.379 -0.0389  0.7982 -0.4256
  688MOL0     C90750   5.130   0.641   2.369  0.5261 -0.8316  0.1508
  688MOL0     H90751   4.708   0.442   2.471  0.0478 -0.1128  1.5261
  688MOL0     H90752   4.467   0.374   2.395 -0.2308 -0.0129 -0.9330
  688MOL0     H90753   4.149   0.588   2.189  1.6357 -1.6977 -1.4584
  688MOL0     H90754   4.256   0.681   2.289  1.3053  0.4169 -0.2441
  688MOL0     H90755   4.253   0.462   2.458  0.4580 -0.9780 -0.9946
  688MOL0     H90756   4.138   0.405   2.342  1.4416  0.4744 -2.0984
  688MOL0     H90757   4.134   0.668   2.504  1.0502  0.1837 -0.6806
  688MOL0     H90758   4.041   0.514   2.545  2.3618 -0.9614 -0.5044
  688MOL0     H90759   3.896   0.713   2.458 -2.5538  0.0497 -1.9964
  688MOL0     H90760   3.985   0.710   2.315  0.6893 -0.1940  0.1813
  688MOL0     H90761   3.843   0.469   2.426  4.7129  0.0691  1.6694
  688MOL0     H90762   3.913   0.488   2.261  1.5352  1.1840  0.9231
  688MOL0     H90763   3.743   0.667   2.204  0.5834  0.1247 -0.6839
  688MOL0     H90764   3.663   0.649   2.355 -2.0476 -2.6429 -1.4851
  688MOL0     H90765   3.720   0.426   2.158  1.2392 -1.6276  2.2402
  688MOL0     H90766   3.620   0.418   2.305  1.9712 -1.5666 -1.4390
  688MOL0     H90767   3.570   0.607   2.059 -0.4466 -0.9670  0.4318
  688MOL0     H90768   3.465   0.602   2.205 -2.7393 -1.6070  0.1770
  688MOL0     H90769   3.423   0.311   2.267  2.8606  1.3052  0.2979
  688MOL0     H90770   3.184   0.132   2.120 -0.1973 -0.4549  0.4110
  688MOL0     H90771   3.334   0.079   2.188  0.6074  1.0564  0.7626
  688MOL0     H90772   3.263  -0.078   2.022  4.0865 -0.3952  1.1829
  688MOL0     H90773   3.384   0.012   1.929  0.9708 -2.4349  3.3933
  688MOL0     H90774   3.178   0.160   1.846 -1.1978  0.0857  2.1668
  688MOL0     H90775   3.206   0.004   1.774  1.6219  0.2190  1.4544
  688MOL0     H90776   2.984   0.083   1.962 -2.8993 -0.5767  0.1342
  688MOL0     H90777   3.044  -0.080   1.963  1.4103  0.9320  1.1888
  688MOL0     H90778   3.046   0.090   1.580 -0.3703  0.2074 -3.6016
  688MOL0     H90779   2.900   0.230   1.444 -1.8460  2.0227  1.5516
  688MOL0     H90780   2.241   0.246   1.515 -3.9347  2.3324  1.5796
  688MOL0     H90781   2.080   0.422   1.499 -0.8476  0.2341 -2.8314
  688MOL0     H90782   1.996   0.664   1.523  2.5101 -0.9305 -0.3602
  688MOL0     H90783   1.954   0.554   1.387  1.0126 -2.4188  2.3501
  688MOL0     H90784   1.940   0.805   1.269  0.4962  2.0196  0.5866
  688MOL0     H90785   1.968   0.864   1.430  0.7995  0.0969  0.3000
  688MOL0     H90786   1.741   0.738   1.481  1.3297  0.7779  0.2462
  688MOL0     H90787   1.747   0.671   1.316 -2.7255  0.9790  0.5481
  688MOL0     H90788   1.767   0.976   1.331  0.1348 -1.0178 -0.1908
  688MOL0     H90789   1.703   0.881   1.206  2.1963 -0.0762  0.0131
  688MOL0     H90790   1.547   1.013   1.326  2.7518  2.0354  1.0971
  688MOL0     H90791   1.563   0.907   1.475  0.0160 -0.8947  0.6815
  688MOL0     H90792   1.492   0.697   1.333 -3.0841 -1.5265 -1.3205
  688MOL0     H90793   1.458   0.819   1.208  2.1710 -0.0790  0.5305
  688MOL0     H90794   1.293   0.718   1.427  0.3829 -2.6000 -2.6467
  688MOL0     H90795   1.323   0.880   1.471  0.3487  1.4458 -1.8673
  688MOL0     H90796   1.223   0.806   1.200  2.7300  0.8708 -0.7202
  688MOL0     H90797   1.240   0.974   1.257 -1.2229  0.7782  1.8352
  688MOL0     H90798   2.384   0.671   1.310  4.1937 -1.9631 -0.7878
  688MOL0     H90799   2.545   0.484   1.320 -0.6320 -1.9752 -1.1765
  688MOL0     H90800   2.568   0.118   1.686  0.9639  0.6879 -0.4296
  688MOL0     H90801   2.714   0.002   1.838 -0.2492 -1.6649 -0.2841
  688MOL0     H90802   4.470   0.678   2.102 -2.5323 -1.1393  0.8147
  688MOL0     H90803   4.704   0.740   2.167 -1.4288 -1.4272 -4.1367
  688MOL0     H90804   5.070   0.965   2.321 -2.7700 -2.1809 -1.5283
  688MOL0     H90805   5.286   0.985   2.326 -4.2959  1.1618  0.4402
  688MOL0     H90806   5.491   0.883   2.539 -1.2217  0.1967 -0.5971
  688MOL0     H90807   5.555   0.944   2.377  1.1090 -0.5033 -0.9860
  688MOL0     H90808   5.710   0.729   2.402 -0.9022  0.2776 -2.1254
  688MOL0     H90809   5.756   0.883   2.473  0.5742 -1.6631 -1.0691
  688MOL0     H90810   5.588   0.670   2.609  0.1520 -1.7706  0.1594
  688MOL0     H90811   5.639   0.810   2.685  0.8387 -0.7598  1.2754
  688MOL0     H90812   5.816   0.577   2.568  3.1364 -0.1388  0.6993
  688MOL0     H90813   5.901   0.715   2.639  1.2074 -0.9812  3.1929
  688MOL0     H90814   5.732   0.519   2.973  1.2700 -3.1306  0.6185
  688MOL0     H90815   5.338   0.567   2.404 -2.2475 -0.4190  1.4899
  688MOL0     H90816   5.076   0.548   2.388  1.7262 -1.4562  0.6108
  689MOL0     O90817   6.132   6.252   5.659 -0.2170  0.3867 -0.6624
  689MOL0     C90818   6.204   6.204   5.742 -1.6606 -0.1238 -0.1261
  689MOL0     O90819   6.340   6.205   5.741  0.0724  0.1218 -0.2040
  689MOL0     C90820   6.390   6.241   5.617  0.4186 -0.1830 -0.5167
  689MOL0     C90821   6.474   6.352   5.617  0.5175  0.9658 -0.3391
  689MOL0     C90822   6.548   6.390   5.504 -0.3481  0.0746  0.0086
  689MOL0     C90823   6.558   6.294   5.398 -1.0596 -0.6511  0.4450
  689MOL0     O90824   6.644   6.326   5.294 -0.5951 -0.1012 -0.0863
  689MOL0     C90825   6.778   6.288   5.324  0.5861  0.0643  0.7340
  689MOL0     C90826   6.863   6.287   5.199  1.0927  0.3752 -0.6713
  689MOL0     C90827   7.001   6.235   5.221  0.6417  0.4923  0.0327
  689MOL0     C90828   7.074   6.248   5.089  0.3092 -0.0943 -0.7832
  689MOL0     C90829   7.209   6.181   5.120 -0.7500  0.2269 -1.5605
  689MOL0     C90830   7.275   6.154   4.990 -0.4268 -1.2112 -0.4280
  689MOL0     C90831   7.428   6.122   4.997 -0.5325  0.1663  0.5825
  689MOL0     C90832   7.447   5.972   5.043  0.4222  0.6415 -0.2532
  689MOL0     N90833   7.586   5.926   5.037 -0.3832 -0.0067 -0.1612
  689MOL0     C90834   7.678   5.943   5.136  0.1095  0.1973 -0.5322
  689MOL0     C90835   7.784   5.879   5.094 -0.3642  0.2697  0.5287
  689MOL0     C90836   7.910   5.846   5.162  0.1461 -0.3834  0.7292
  689MOL0     C90837   8.030   5.842   5.070 -0.1327  0.0606  0.2340
  689MOL0     C90838   8.156   5.838   5.162 -0.2865 -0.1649 -1.0462
  689MOL0     C90839   8.292   5.853   5.087 -0.0031  0.3807 -0.7948
  689MOL0     O90840   8.290   5.960   4.995  0.4319 -0.2482  0.5869
  689MOL0     C90841   8.389   5.957   4.900  0.0990 -1.3660  0.2553
  689MOL0     C90842   8.526   5.930   4.934 -0.4596 -0.0190 -0.5179
  689MOL0     C90843   8.634   5.948   4.843  0.6709  0.1443  0.5865
  689MOL0     C90844   8.600   5.979   4.710 -0.2817  0.7260 -0.2707
  689MOL0     C90845   8.711   6.009   4.614  0.1006 -0.6256 -0.2580
  689MOL0     O90846   8.669   6.013   4.475 -0.3487  0.5851 -0.3221
  689MOL0     C90847   8.763   6.056   4.381  0.5763 -0.0757 -0.1618
  689MOL0     C90848   8.888   6.003   4.368  0.5492  0.5684 -0.0065
  689MOL0     C90849   8.980   6.046   4.269  0.6115 -0.4248  0.0869
  689MOL0     C90850   8.951   6.166   4.204 -0.2645 -0.0259 -0.7324
  689MOL0     O90851   9.041   6.210   4.105 -0.5214 -0.7571 -0.0088
  689MOL0     C90852   9.182   6.228   4.154 -0.3295 -0.0590 -0.0344
  689MOL0     C90853   9.261   6.315   4.052  0.3316  0.3056 -0.0552
  689MOL0     C90854   9.399   6.329   4.098  0.1661 -0.5383 -0.1111
  689MOL0     C90855   9.485   6.362   3.977 -0.1096  0.2414 -0.8192
  689MOL0     C90856   9.615   6.417   4.009  0.2469  0.4844  0.2782
  689MOL0     C90857   9.705   6.438   3.885  0.4962  0.9947 -0.7227
  689MOL0     C90858   9.835   6.519   3.930 -0.3046 -0.2420  0.3813
  689MOL0     C90859   9.950   6.531   3.809 -0.5430 -0.3910 -1.0184
  689MOL0    Cl90860  10.015   6.374   3.773 -0.0792 -0.0152  0.2286
  689MOL0     C90861   8.828   6.222   4.221  0.9920  0.5554  0.9776
  689MOL0     C90862   8.734   6.170   4.304  0.4755  0.3874 -0.8505
  689MOL0     O90863   8.823   6.016   4.660 -0.0303  1.0414  0.3882
  689MOL0     C90864   8.466   5.995   4.668 -0.3146 -0.1630 -0.0985
  689MOL0     C90865   8.362   5.986   4.766 -0.4908  0.4622 -0.4209
  689MOL0     N90866   7.757   5.830   4.967  0.1084 -0.1057  0.0438
  689MOL0     N90867   7.641   5.870   4.937 -1.0802  0.2524  0.4436
  689MOL0     C90868   6.474   6.188   5.401  0.4500  0.1558 -0.1570
  689MOL0     C90869   6.379   6.157   5.505 -0.6767 -0.5785  0.0300
  689MOL0     C90870   6.124   6.133   5.840  0.0255  0.2249 -0.3046
  689MOL0     C90871   6.185   6.066   5.942  0.0548 -0.1480  0.2188
  689MOL0     C90872   6.111   6.007   6.046  0.5228  0.3030 -0.3724
  689MOL0     C90873   5.972   5.991   6.020 -0.0629  0.1104 -0.9916
  689MOL0     O90874   5.890   5.916   6.097  0.3043 -0.3620  0.2035
  689MOL0     C90875   5.922   5.879   6.235  0.4053  0.1186 -0.4209
  689MOL0     C90876   5.799   5.888   6.324 -0.6983 -0.5411  0.2634
  689MOL0     C90877   5.666   5.841   6.260  0.8668 -0.0999 -0.9826
  689MOL0     C90878   5.546   5.840   6.355 -0.2579  0.3675  0.3100
  689MOL0     C90879   5.459   5.960   6.353  0.0110 -0.4973 -0.2445
  689MOL0     C90880   5.384   6.055   6.355  0.1101 -0.2470 -0.6986
  689MOL0     C90881   5.901   6.060   5.926 -0.5134  0.1470  0.1284
  689MOL0     C90882   5.980   6.131   5.836  0.3520 -0.4358 -0.4406
  689MOL0     H90883   6.482   6.404   5.713 -1.5859 -1.0840  1.0622
  689MOL0     H90884   6.604   6.483   5.516 -1.2120  0.4699  1.2428
  689MOL0     H90885   6.791   6.187   5.365  2.4024  0.4426  1.1768
  689MOL0     H90886   6.827   6.362   5.387 -0.7943  2.1986 -0.6026
  689MOL0     H90887   6.870   6.395   5.180 -2.6514  1.4076  2.3634
  689MOL0     H90888   6.812   6.221   5.128  0.1450  0.4776 -0.1143
  689MOL0     H90889   6.996   6.132   5.257 -1.1071  1.1729  1.9600
  689MOL0     H90890   7.063   6.295   5.290  0.5381 -0.5739  1.0902
  689MOL0     H90891   7.015   6.187   5.020 -1.3187 -0.8646  1.1733
  689MOL0     H90892   7.081   6.351   5.053  0.2502 -0.0708 -0.7279
  689MOL0     H90893   7.198   6.088   5.177 -0.6785  2.3479  2.2866
  689MOL0     H90894   7.273   6.249   5.178  0.7202 -0.1450 -2.7005
  689MOL0     H90895   7.268   6.245   4.929 -1.0050 -1.4080 -0.6581
  689MOL0     H90896   7.218   6.077   4.938  0.8577 -0.7935 -2.6031
  689MOL0     H90897   7.474   6.135   4.898  1.0553 -0.1746  1.2516
  689MOL0     H90898   7.476   6.186   5.071  0.2508 -0.2694  0.4660
  689MOL0     H90899   7.386   5.905   4.981  0.0471 -0.9327  1.7338
  689MOL0     H90900   7.409   5.964   5.145 -1.4918  3.7617 -0.5982
  689MOL0     H90901   7.658   5.991   5.232 -1.7553  2.2173 -1.8243
  689MOL0     H90902   7.898   5.749   5.211 -1.2455 -1.1304 -1.0101
  689MOL0     H90903   7.926   5.918   5.243 -1.4313 -0.6661  1.3244
  689MOL0     H90904   8.034   5.933   5.010 -2.1141  0.3084  0.4332
  689MOL0     H90905   8.015   5.756   5.004 -0.8609  0.5075 -0.1971
  689MOL0     H90906   8.147   5.917   5.238  2.0601 -1.8179  1.1126
  689MOL0     H90907   8.162   5.750   5.227 -1.0855 -0.8337 -1.8538
  689MOL0     H90908   8.318   5.764   5.029 -1.5985  1.1192 -2.7746
  689MOL0     H90909   8.368   5.880   5.161 -0.7772 -0.1758  0.2235
  689MOL0     H90910   8.544   5.909   5.039 -2.2500  2.4847  0.3755
  689MOL0     H90911   8.733   5.950   4.888  0.3462 -0.2609  1.3316
  689MOL0     H90912   8.907   5.915   4.429 -0.5830  0.1247 -0.2666
  689MOL0     H90913   9.074   5.995   4.248  2.1203  2.0002  0.5116
  689MOL0     H90914   9.226   6.130   4.174 -1.9973 -0.5160  1.6776
  689MOL0     H90915   9.180   6.273   4.253 -1.3462 -0.5222  0.1658
  689MOL0     H90916   9.211   6.412   4.044  0.3718  0.2217 -1.8521
  689MOL0     H90917   9.245   6.261   3.958  1.4693 -3.1298  1.5570
  689MOL0     H90918   9.436   6.236   4.144  1.3411 -1.3783 -2.5808
  689MOL0     H90919   9.394   6.414   4.167 -0.9841 -0.3204 -0.4419
  689MOL0     H90920   9.497   6.273   3.914 -3.8934 -0.8876 -0.2066
  689MOL0     H90921   9.433   6.443   3.926 -0.4646  0.2526 -0.4393
  689MOL0     H90922   9.675   6.362   4.082 -0.1301  0.3565  0.4905
  689MOL0     H90923   9.582   6.512   4.051 -2.2432 -0.0635 -0.3282
  689MOL0     H90924   9.648   6.482   3.804 -0.0765 -2.1555 -2.1804
  689MOL0     H90925   9.741   6.341   3.849  0.3316  1.3596 -1.8899
  689MOL0     H90926   9.811   6.623   3.953 -2.6083 -0.4825 -0.6115
  689MOL0     H90927   9.886   6.458   4.005  3.4881  2.8014  0.5894
  689MOL0     H90928  10.041   6.582   3.841  1.0152 -3.9637  0.8331
  689MOL0     H90929   9.913   6.575   3.716  1.7426 -0.1770 -1.8880
  689MOL0     H90930   8.809   6.297   4.145  0.4542  2.5118  2.9372
  689MOL0     H90931   8.640   6.224   4.305  0.6557  0.6950  0.1990
  689MOL0     H90932   8.448   6.033   4.567  1.5610  0.4724 -0.2468
  689MOL0     H90933   8.257   6.008   4.746 -0.5241  0.7937  0.0954
  689MOL0     H90934   6.492   6.120   5.319 -1.7026 -0.3397 -0.2740
  689MOL0     H90935   6.325   6.063   5.512  1.1782 -1.6496  0.5752
  689MOL0     H90936   6.293   6.070   5.952  0.1841  1.4866 -1.3692
  689MOL0     H90937   6.164   5.960   6.127  0.3481  0.0626 -0.3976
  689MOL0     H90938   5.986   5.952   6.285 -0.4521  2.2173 -2.2305
  689MOL0     H90939   5.969   5.782   6.250 -1.3548 -0.5146  1.4133
  689MOL0     H90940   5.812   5.831   6.417 -0.7071  0.3980  0.8543
  689MOL0     H90941   5.798   5.994   6.351  4.2602 -0.5287  1.3853
  689MOL0     H90942   5.674   5.733   6.242 -3.0707 -0.7995  0.4887
  689MOL0     H90943   5.646   5.892   6.166 -2.2120  2.5916  0.9434
  689MOL0     H90944   5.482   5.765   6.307  1.4671  0.4309 -2.2713
  689MOL0     H90945   5.570   5.809   6.457 -1.9724  0.6337  0.8240
  689MOL0     H90946   5.317   6.133   6.383 -1.9576 -2.1561 -0.0255
  689MOL0     H90947   5.794   6.042   5.920 -0.5699  0.3841  0.3868
  689MOL0     H90948   5.923   6.189   5.764  2.4958  0.3730 -1.5553
  690MOL0     O90949   3.248   3.979   8.405 -0.2796  0.4554  0.0909
  690MOL0     C90950   3.286   3.869   8.350  0.5858  0.4031  0.5929
  690MOL0     O90951   3.200   3.770   8.311 -1.0044  0.9047 -0.3426
  690MOL0     C90952   3.064   3.759   8.324 -0.6594 -1.1512  0.1887
  690MOL0     C90953   2.979   3.865   8.327  0.6122  0.6355 -0.2182
  690MOL0     C90954   2.834   3.849   8.330 -1.0840  0.3318 -0.0514
  690MOL0     C90955   2.783   3.725   8.345  0.7238  0.4638 -1.0250
  690MOL0     O90956   2.646   3.721   8.364 -0.3699 -0.3299 -0.1349
  690MOL0     C90957   2.593   3.588   8.385  0.5287  0.0380  0.6877
  690MOL0     C90958   2.452   3.604   8.443 -0.1596  0.1436 -0.3468
  690MOL0     C90959   2.366   3.480   8.477 -0.0015  0.5561 -0.3014
  690MOL0     C90960   2.244   3.504   8.561  0.0463  0.0131  1.0817
  690MOL0     C90961   2.283   3.556   8.706  0.0045 -0.0505 -0.4802
  690MOL0     C90962   2.161   3.577   8.799 -0.3583 -0.0664 -0.1150
  690MOL0     C90963   2.190   3.593   8.945  0.8730 -1.4163 -0.0491
  690MOL0     C90964   2.257   3.732   8.967  0.1599  0.5827  0.4389
  690MOL0     N90965   2.237   3.748   9.116  0.1562 -0.4677  0.1264
  690MOL0     C90966   2.290   3.679   9.219 -0.9939  0.0654 -0.4750
  690MOL0     C90967   2.271   3.748   9.328 -0.0288  0.1061  0.4398
  690MOL0     C90968   2.324   3.723   9.472  0.3130  0.3871  0.5987
  690MOL0     C90969   2.369   3.855   9.530 -0.4578  0.7773 -0.8220
  690MOL0     C90970   2.502   3.912   9.458 -0.0227  0.7256 -0.0837
  690MOL0     C90971   2.567   4.033   9.510  0.0942 -1.1204 -1.5232
  690MOL0     O90972   2.613   3.996   9.634  0.4623 -0.0195  0.1303
  690MOL0     C90973   2.740   3.958   9.643  0.1661  0.7462 -0.3955
  690MOL0     C90974   2.766   3.926   9.771 -0.4989 -0.1894  0.3191
  690MOL0     C90975   2.888   3.873   9.810  0.2037 -0.1281 -0.9759
  690MOL0     C90976   2.987   3.846   9.729 -0.3396 -0.5483  1.1463
  690MOL0     C90977   3.120   3.796   9.768 -0.4792  0.0791 -0.2341
  690MOL0     O90978   3.227   3.845   9.692 -0.0682 -1.0508  0.2489
  690MOL0     C90979   3.348   3.845   9.746 -0.9423 -0.2849 -0.8717
  690MOL0     C90980   3.449   3.766   9.701 -0.1185  0.4445 -0.5951
  690MOL0     C90981   3.576   3.765   9.761  0.7231 -0.5573 -0.2368
  690MOL0     C90982   3.603   3.858   9.864  0.4243  0.2126  0.5483
  690MOL0     O90983   3.731   3.878   9.920  1.0854 -0.3556  0.4638
  690MOL0     C90984   3.831   3.794   9.882  0.4583 -0.4238 -0.2550
  690MOL0     C90985   3.943   3.794   9.985  0.5536  0.5226 -0.4604
  690MOL0     C90986   4.065   3.714   9.946 -0.5212 -0.8555  0.6736
  690MOL0     C90987   4.184   3.750  10.031 -0.6618 -0.1608 -0.0502
  690MOL0     C90988   4.301   3.658   9.969  1.3104 -1.0685 -0.3317
  690MOL0     C90989   4.429   3.686  10.026 -0.0011  0.8636  0.1632
  690MOL0     C90990   4.535   3.588   9.978  0.2445  0.7327 -0.5693
  690MOL0     C90991   4.675   3.645  10.027 -0.1752  0.4214 -0.2335
  690MOL0    Cl90992   4.669   3.628  10.205 -0.5972  0.2418 -0.9799
  690MOL0     C90993   3.503   3.942   9.915  0.0960  0.9882 -0.6686
  690MOL0     C90994   3.378   3.934   9.855 -0.6280 -0.1751 -0.4562
  690MOL0     O90995   3.126   3.740   9.877 -0.0289 -0.5576  1.3587
  690MOL0     C90996   2.965   3.878   9.592  0.9757  0.0759  0.7245
  690MOL0     C90997   2.836   3.924   9.547  0.2097  0.2678 -0.1362
  690MOL0     N90998   2.171   3.847   9.302 -0.5504 -0.8544  0.0484
  690MOL0     N90999   2.169   3.860   9.167 -0.7202  0.1009 -0.2257
  690MOL0     C91000   2.870   3.620   8.351 -0.3661  0.0916  0.1711
  690MOL0     C91001   3.007   3.635   8.335  0.0484  0.8388  0.3547
  690MOL0     C91002   3.438   3.850   8.342 -0.1810  0.4406 -0.2265
  690MOL0     C91003   3.497   3.757   8.268 -0.8879  0.8933  0.3658
  690MOL0     C91004   3.633   3.755   8.249  0.8055 -0.7422 -0.0752
  690MOL0     C91005   3.714   3.846   8.310  0.8033  0.1608  0.0795
  690MOL0     O91006   3.855   3.831   8.287  0.5349  0.0363 -0.1553
  690MOL0     C91007   3.938   3.924   8.351  0.7245 -0.1182 -0.4544
  690MOL0     C91008   3.971   3.884   8.488  0.6313 -0.3032  0.2275
  690MOL0     C91009   4.121   3.842   8.518 -1.3483 -0.1958  0.0849
  690MOL0     C91010   4.151   3.785   8.648  0.0732  0.2570  0.3206
  690MOL0     C91011   4.110   3.883   8.745 -0.4552 -0.3200 -1.1659
  690MOL0     C91012   4.071   3.964   8.826  0.2194 -0.2516 -0.0796
  690MOL0     C91013   3.661   3.939   8.401  0.5055  0.6148  0.4507
  690MOL0     C91014   3.517   3.946   8.407  0.0964 -0.4078 -0.0445
  690MOL0     H91015   3.021   3.964   8.318  2.4371 -0.0432  0.3839
  690MOL0     H91016   2.786   3.946   8.338 -0.8524  0.3839  0.7536
  690MOL0     H91017   2.650   3.534   8.461  1.4597  0.6286  0.4166
  690MOL0     H91018   2.583   3.538   8.288  0.3857  1.1803  0.1036
  690MOL0     H91019   2.398   3.669   8.373  0.1300  2.6090  1.5926
  690MOL0     H91020   2.461   3.658   8.538 -1.0009 -1.9914  1.0178
  690MOL0     H91021   2.438   3.406   8.513 -0.6517 -0.5498 -1.2251
  690MOL0     H91022   2.319   3.447   8.384  0.9192 -2.5391  0.2127
  690MOL0     H91023   2.185   3.582   8.511  0.2694  1.6464  3.2308
  690MOL0     H91024   2.171   3.423   8.567 -0.8765  0.8055  0.8325
  690MOL0     H91025   2.346   3.645   8.709  0.5841 -0.4665 -0.2291
  690MOL0     H91026   2.348   3.477   8.744  2.3451  1.3574 -1.3575
  690MOL0     H91027   2.088   3.497   8.780  0.6475 -1.0560  0.0705
  690MOL0     H91028   2.112   3.668   8.765 -0.0468  0.1754  0.0751
  690MOL0     H91029   2.097   3.592   9.002  1.7821 -0.5188  1.5116
  690MOL0     H91030   2.268   3.525   8.980  2.7721  0.5430 -0.2503
  690MOL0     H91031   2.201   3.810   8.915  2.3751  1.8904 -0.1306
  690MOL0     H91032   2.360   3.736   8.930  0.6400 -4.2692  0.5764
  690MOL0     H91033   2.358   3.597   9.198 -1.2199 -0.4743  0.8261
  690MOL0     H91034   2.406   3.650   9.463 -1.2925 -1.4166 -0.1638
  690MOL0     H91035   2.245   3.695   9.542 -1.0495  2.2891 -0.1147
  690MOL0     H91036   2.378   3.848   9.639  1.0950  1.1002 -0.9106
  690MOL0     H91037   2.290   3.930   9.522  0.7765  2.2382  0.2291
  690MOL0     H91038   2.574   3.830   9.453 -0.5253  0.1527  1.4929
  690MOL0     H91039   2.472   3.936   9.355 -0.5800 -1.4046 -0.4770
  690MOL0     H91040   2.493   4.114   9.518  0.2172 -1.1544  0.6605
  690MOL0     H91041   2.656   4.069   9.459  0.3367  2.4089  1.0270
  690MOL0     H91042   2.685   3.932   9.843 -0.9881 -3.1977  0.1410
  690MOL0     H91043   2.894   3.844   9.914 -0.1445 -3.1882 -1.6953
  690MOL0     H91044   3.429   3.689   9.626  1.9600  1.5837 -2.4097
  690MOL0     H91045   3.652   3.700   9.718  3.4720  1.6073  0.9990
  690MOL0     H91046   3.873   3.824   9.785 -0.3566 -2.3760 -1.2727
  690MOL0     H91047   3.806   3.688   9.877  1.9921 -0.7574 -1.7717
  690MOL0     H91048   3.889   3.749  10.069 -0.4853  0.1429 -1.3009
  690MOL0     H91049   3.970   3.896  10.015 -2.3810  0.9900  1.0314
  690MOL0     H91050   4.097   3.736   9.844 -1.6891  2.6729  0.9205
  690MOL0     H91051   4.032   3.610   9.944 -1.5758 -0.5530  1.4705
  690MOL0     H91052   4.213   3.854  10.013  0.6385  0.5554  4.8021
  690MOL0     H91053   4.170   3.725  10.136 -1.3007 -2.0261 -0.5369
  690MOL0     H91054   4.300   3.669   9.861  0.4304  0.1792 -0.2106
  690MOL0     H91055   4.272   3.558  10.003  2.0540 -0.9875  0.5854
  690MOL0     H91056   4.407   3.685  10.133 -0.3490  1.2436  0.0963
  690MOL0     H91057   4.445   3.790   9.993 -3.2927  1.0729 -1.1588
  690MOL0     H91058   4.515   3.489  10.020 -3.4658  1.6355  0.1453
  690MOL0     H91059   4.532   3.594   9.869 -0.2626  4.1809 -0.4881
  690MOL0     H91060   4.699   3.750  10.005  0.9555  0.7938  2.3953
  690MOL0     H91061   4.755   3.589   9.978 -0.1511  2.4107 -2.6612
  690MOL0     H91062   3.521   4.009   9.998 -1.5091  1.3768 -0.5994
  690MOL0     H91063   3.296   3.998   9.886 -1.7524 -1.3108 -1.0293
  690MOL0     H91064   3.044   3.879   9.518 -0.2158 -0.7660 -0.6041
  690MOL0     H91065   2.806   3.940   9.444 -1.2201  1.4418  0.4308
  690MOL0     H91066   2.841   3.516   8.361 -1.7390  0.2908 -1.3469
  690MOL0     H91067   3.077   3.551   8.332  0.6022  1.1968  2.0447
  690MOL0     H91068   3.433   3.685   8.218 -0.8711  0.1114  1.4377
  690MOL0     H91069   3.694   3.697   8.181  1.9239  1.2817 -0.9021
  690MOL0     H91070   3.900   4.026   8.342  1.9544  0.8203  3.3207
  690MOL0     H91071   4.034   3.927   8.298  1.5547 -0.1013  1.0054
  690MOL0     H91072   3.960   3.982   8.535 -0.1488  0.4371 -1.4407
  690MOL0     H91073   3.896   3.818   8.532 -2.5234  3.2166  0.6005
  690MOL0     H91074   4.178   3.934   8.503 -0.0575 -0.5233  2.4265
  690MOL0     H91075   4.152   3.779   8.434 -1.9063  1.6457 -1.5699
  690MOL0     H91076   4.093   3.693   8.663 -1.3674  1.2529  1.0406
  690MOL0     H91077   4.256   3.760   8.665  0.4885  2.9019  2.1065
  690MOL0     H91078   4.032   4.019   8.910  1.9673  1.5672 -0.3723
  690MOL0     H91079   3.734   4.011   8.437  2.2924 -0.2151 -1.3308
  690MOL0     H91080   3.474   4.026   8.467  3.5501 -0.4058  2.7470
  691MOL0     O91081   4.837   0.403   3.183 -0.1338  0.6680 -0.2648
  691MOL0     C91082   4.939   0.451   3.131 -0.4686 -0.5555 -0.1113
  691MOL0     O91083   5.014   0.392   3.036  0.4489 -0.5348 -1.2057
  691MOL0     C91084   4.970   0.267   2.984 -0.5834 -0.6862  0.7662
  691MOL0     C91085   5.061   0.166   2.985 -0.2401  0.0750 -0.5465
  691MOL0     C91086   5.021   0.034   2.964  0.4501  0.1066  0.5382
  691MOL0     C91087   4.891   0.001   2.935  0.6408  1.3108 -0.2637
  691MOL0     O91088   4.861  -0.129   2.903  0.4155  0.1976 -0.2543
  691MOL0     C91089   4.725  -0.168   2.866 -0.8142  0.2093  0.3115
  691MOL0     C91090   4.736  -0.306   2.820  0.9209  0.5387 -0.0499
  691MOL0     C91091   4.598  -0.360   2.788  0.3718 -0.5203 -0.7181
  691MOL0     C91092   4.600  -0.435   2.652 -0.0618 -1.1160 -0.6765
  691MOL0     C91093   4.452  -0.484   2.622  1.0349 -0.4616  0.1509
  691MOL0     C91094   4.358  -0.369   2.580  1.0016 -0.5490 -0.7180
  691MOL0     C91095   4.209  -0.413   2.556 -0.5735 -0.5777  0.1702
  691MOL0     C91096   4.112  -0.305   2.521 -0.0819 -0.5796  0.5681
  691MOL0     N91097   4.129  -0.242   2.393  0.5046 -0.1925 -0.8467
  691MOL0     C91098   4.196  -0.287   2.277 -1.2902 -0.1153 -0.3300
  691MOL0     C91099   4.190  -0.188   2.198  0.1678 -0.4963  0.3653
  691MOL0     C91100   4.266  -0.187   2.065  0.4570 -0.1593  0.7460
  691MOL0     C91101   4.195  -0.262   1.943 -0.1273  0.5268  0.1013
  691MOL0     C91102   4.288  -0.287   1.816 -0.6408  0.2660  0.1291
  691MOL0     C91103   4.241  -0.374   1.699 -0.2446 -0.9418 -0.3628
  691MOL0     O91104   4.114  -0.311   1.655 -0.4270  0.0292 -0.4446
  691MOL0     C91105   4.020  -0.406   1.652 -0.2619  1.0087  0.3324
  691MOL0     C91106   3.938  -0.427   1.768 -0.2956 -0.2071  0.2534
  691MOL0     C91107   3.838  -0.525   1.753  0.3795 -0.2623  0.3462
  691MOL0     C91108   3.818  -0.602   1.632 -0.2249 -0.3747  1.0385
  691MOL0     C91109   3.699  -0.677   1.609  0.3267 -0.1898  0.2746
  691MOL0     O91110   3.616  -0.682   1.714 -0.2235  0.4546 -0.1834
  691MOL0     C91111   3.526  -0.788   1.715 -0.4754 -0.2084  0.6489
  691MOL0     C91112   3.399  -0.755   1.730 -0.6883 -0.5085  0.5640
  691MOL0     C91113   3.299  -0.858   1.747 -0.6664 -1.0012  0.6912
  691MOL0     C91114   3.325  -0.991   1.756  0.8578 -0.5246 -0.1322
  691MOL0     O91115   3.223  -1.077   1.770  0.1119  0.0741  0.0758
  691MOL0     C91116   3.266  -1.216   1.783  1.2086  0.1788 -0.1904
  691MOL0     C91117   3.140  -1.302   1.801 -1.1028  0.4878 -0.1528
  691MOL0     C91118   3.174  -1.453   1.769 -0.0093 -0.4267 -1.0321
  691MOL0     C91119   3.056  -1.554   1.808 -0.2948  1.2162 -0.4142
  691MOL0     C91120   3.107  -1.703   1.787  0.5973  0.2370 -0.1036
  691MOL0     C91121   3.008  -1.802   1.855 -0.8813  0.2407  0.5847
  691MOL0     C91122   3.052  -1.950   1.839  0.1101  0.1766  0.1991
  691MOL0     C91123   2.989  -1.994   1.707  0.5788 -0.0755 -0.4877
  691MOL0    Cl91124   3.098  -2.118   1.637 -0.2967  0.1167 -0.2763
  691MOL0     C91125   3.453  -1.022   1.738 -1.9946  0.3828  0.5011
  691MOL0     C91126   3.557  -0.932   1.719 -0.1363 -0.3002  1.1058
  691MOL0     O91127   3.673  -0.725   1.494 -0.2761 -0.1048 -0.2238
  691MOL0     C91128   3.905  -0.574   1.521  1.0838  0.1588 -0.2778
  691MOL0     C91129   4.006  -0.479   1.532 -0.7722  0.5820  0.2830
  691MOL0     N91130   4.128  -0.079   2.259  0.3384  0.0532 -0.0170
  691MOL0     N91131   4.099  -0.113   2.382 -0.5707  0.5483  0.7631
  691MOL0     C91132   4.790   0.099   2.946 -0.0059  0.3318 -0.4338
  691MOL0     C91133   4.832   0.232   2.969  0.4653  0.4181 -0.4387
  691MOL0     C91134   4.981   0.583   3.173  0.0619  0.2417  0.2317
  691MOL0     C91135   5.088   0.642   3.103  0.3236 -0.6357 -0.1780
  691MOL0     C91136   5.115   0.785   3.117  0.6410  1.1458 -0.0316
  691MOL0     C91137   5.036   0.867   3.188 -0.3628  0.8269  0.0162
  691MOL0     O91138   5.071   0.998   3.206 -0.2461 -0.1923  0.4160
  691MOL0     C91139   4.999   1.099   3.277 -0.4445 -0.3663 -0.3387
  691MOL0     C91140   5.043   1.229   3.216  0.0580  1.0236  0.5146
  691MOL0     C91141   4.984   1.351   3.283 -0.4787 -0.8532  0.0472
  691MOL0     C91142   5.024   1.476   3.200  0.5334  0.2902 -0.9228
  691MOL0     C91143   4.935   1.489   3.085  0.5515  0.0263  0.4666
  691MOL0     C91144   4.880   1.514   2.984 -0.3879  0.1679  1.2710
  691MOL0     C91145   4.933   0.807   3.263  0.3839  0.8497 -0.9529
  691MOL0     C91146   4.908   0.671   3.253 -1.2850  0.9996  0.0536
  691MOL0     H91147   5.167   0.186   2.990 -0.0636 -0.4672 -1.7534
  691MOL0     H91148   5.099  -0.039   2.947  3.0968  2.4033  2.1603
  691MOL0     H91149   4.673  -0.106   2.793  2.3692  1.9677 -0.6356
  691MOL0     H91150   4.661  -0.177   2.955 -0.4412  1.3543  0.7147
  691MOL0     H91151   4.777  -0.374   2.894 -0.3891  1.4013  1.5381
  691MOL0     H91152   4.792  -0.294   2.726  1.7754  0.1822  0.4081
  691MOL0     H91153   4.529  -0.276   2.774  0.7582  0.2085  1.4160
  691MOL0     H91154   4.561  -0.424   2.869  2.0237 -1.9732 -1.0594
  691MOL0     H91155   4.642  -0.367   2.577  1.1908  1.5583  2.2415
  691MOL0     H91156   4.669  -0.520   2.655  2.2392  0.6787  1.1418
  691MOL0     H91157   4.418  -0.539   2.711  0.1596  1.2382  0.9106
  691MOL0     H91158   4.455  -0.551   2.537  0.1417 -0.1920 -0.0958
  691MOL0     H91159   4.400  -0.319   2.492  2.9424  0.8679  0.8935
  691MOL0     H91160   4.357  -0.294   2.660  1.6946 -1.9384  0.6454
  691MOL0     H91161   4.211  -0.495   2.485  2.5448 -1.2126  0.8622
  691MOL0     H91162   4.171  -0.460   2.647 -3.4087  0.0474 -0.5609
  691MOL0     H91163   4.108  -0.232   2.602  1.7328  1.1450 -0.8235
  691MOL0     H91164   4.010  -0.345   2.512 -0.0278 -0.5704 -0.2193
  691MOL0     H91165   4.245  -0.382   2.258  0.7583  0.2120  2.6843
  691MOL0     H91166   4.369  -0.218   2.084 -0.2750 -1.3794  3.1182
  691MOL0     H91167   4.277  -0.082   2.037  3.1376 -0.6161 -0.1352
  691MOL0     H91168   4.111  -0.200   1.912 -1.7519 -0.7045  1.7822
  691MOL0     H91169   4.157  -0.361   1.970 -1.4271  0.8550 -0.4680
  691MOL0     H91170   4.313  -0.194   1.765  0.9719  0.5383  1.3357
  691MOL0     H91171   4.389  -0.325   1.836 -0.7046 -2.1015 -3.1238
  691MOL0     H91172   4.216  -0.473   1.740  1.3673 -1.2133  0.0453
  691MOL0     H91173   4.312  -0.383   1.616 -3.2572 -3.9491 -2.9146
  691MOL0     H91174   3.954  -0.374   1.861 -1.0268  1.0700 -0.3235
  691MOL0     H91175   3.775  -0.547   1.838 -1.4524 -1.0362 -1.1501
  691MOL0     H91176   3.374  -0.650   1.726  0.4857 -0.1538  1.9123
  691MOL0     H91177   3.198  -0.821   1.765  0.5636  2.1584  1.9403
  691MOL0     H91178   3.345  -1.240   1.854  0.1884 -3.0350  0.0344
  691MOL0     H91179   3.317  -1.245   1.691  0.0160  0.3915 -0.9400
  691MOL0     H91180   3.053  -1.270   1.743 -1.2062  0.3169 -0.0942
  691MOL0     H91181   3.102  -1.295   1.903 -0.0974  1.2900  0.1825
  691MOL0     H91182   3.269  -1.490   1.811 -1.6309 -4.4164 -0.4315
  691MOL0     H91183   3.183  -1.456   1.660 -0.1965  0.5377 -1.0767
  691MOL0     H91184   3.030  -1.547   1.914  1.2692 -1.3169  0.2320
  691MOL0     H91185   2.958  -1.541   1.760 -0.1614  3.0049 -0.2372
  691MOL0     H91186   3.207  -1.725   1.828  0.3152 -0.8418  0.0485
  691MOL0     H91187   3.119  -1.719   1.680  0.6383  0.7321 -0.1757
  691MOL0     H91188   2.905  -1.782   1.824 -1.3529 -0.7937  1.4062
  691MOL0     H91189   3.001  -1.774   1.961  0.4322  1.4125  0.3892
  691MOL0     H91190   3.161  -1.963   1.844  0.0677  0.1898  2.7045
  691MOL0     H91191   3.013  -2.009   1.923  1.7039 -2.1168 -0.5571
  691MOL0     H91192   2.981  -1.916   1.631 -2.6983  0.9358  0.7182
  691MOL0     H91193   2.889  -2.033   1.725 -1.5515  4.3810 -1.3459
  691MOL0     H91194   3.481  -1.125   1.754 -3.4232 -0.0480  0.3588
  691MOL0     H91195   3.662  -0.958   1.713  0.9130  3.0992  2.2714
  691MOL0     H91196   3.897  -0.619   1.423  1.9046  2.5778 -1.5406
  691MOL0     H91197   4.076  -0.473   1.450 -3.9093  1.0884 -2.5537
  691MOL0     H91198   4.684   0.081   2.953  0.0203  0.1745 -0.4437
  691MOL0     H91199   4.757   0.310   2.968 -1.9407 -1.6799 -3.4587
  691MOL0     H91200   5.155   0.587   3.037 -1.2311 -3.1560  0.2082
  691MOL0     H91201   5.203   0.821   3.064  1.7151 -2.6509 -1.1056
  691MOL0     H91202   5.021   1.106   3.384 -0.4431 -2.8044 -0.1202
  691MOL0     H91203   4.894   1.085   3.247 -1.8734  2.8291  2.4595
  691MOL0     H91204   5.151   1.243   3.226  0.2929 -1.4421  2.5880
  691MOL0     H91205   5.019   1.219   3.109  0.8469  1.5482  0.2802
  691MOL0     H91206   5.035   1.362   3.379 -0.2295 -1.9003  0.0484
  691MOL0     H91207   4.875   1.351   3.290 -0.9015  1.9260 -3.3657
  691MOL0     H91208   4.995   1.560   3.265 -0.3826 -2.1340  2.0484
  691MOL0     H91209   5.131   1.483   3.177  0.2073 -1.0261 -3.0467
  691MOL0     H91210   4.825   1.534   2.895 -2.6452  0.8563  2.7432
  691MOL0     H91211   4.885   0.870   3.337  1.9155 -0.5436  1.3733
  691MOL0     H91212   4.828   0.631   3.314  0.6180  0.7417  2.5425
  692MOL0     O91213   9.684   0.074  10.728 -0.5600  0.4940 -0.0478
  692MOL0     C91214   9.731   0.060  10.613 -0.9702 -0.7658 -0.5046
  692MOL0     O91215   9.855   0.106  10.574 -0.4307  0.1648 -0.4031
  692MOL0     C91216   9.919   0.181  10.659  0.3259  1.1500  0.1257
  692MOL0     C91217  10.027   0.131  10.723 -0.7970 -0.7078  0.4996
  692MOL0     C91218  10.113   0.212  10.794 -0.2172  0.2449  0.4915
  692MOL0     C91219  10.080   0.348  10.815  0.4380  0.6182  0.1569
  692MOL0     O91220  10.159   0.431  10.884 -0.3860  0.4761 -0.6872
  692MOL0     C91221  10.278   0.400  10.965  0.2133 -0.1730  0.3333
  692MOL0     C91222  10.351   0.528  11.021 -0.6178  0.4775 -0.4915
  692MOL0     C91223  10.268   0.597  11.140  0.1742  0.2673 -0.2399
  692MOL0     C91224  10.333   0.724  11.199  0.1865 -0.4008 -1.0441
  692MOL0     C91225  10.261   0.795  11.326  0.9237  0.8887 -0.2335
  692MOL0     C91226  10.347   0.898  11.390 -0.2710 -0.7919  0.5152
  692MOL0     C91227  10.468   0.844  11.459  0.0534 -0.6642  0.3029
  692MOL0     C91228  10.564   0.958  11.512 -0.0349  0.0112  0.1543
  692MOL0     N91229  10.682   0.887  11.572 -0.0182  0.2012  1.2010
  692MOL0     C91230  10.709   0.887  11.701 -1.4972  0.1006 -0.2929
  692MOL0     C91231  10.811   0.800  11.719 -0.0777  0.0243  0.9009
  692MOL0     C91232  10.869   0.761  11.854  0.3776  0.3813  0.7043
  692MOL0     C91233  11.025   0.783  11.862  0.2733  0.0124  0.7503
  692MOL0     C91234  11.095   0.650  11.904  0.2474  0.2760 -0.6520
  692MOL0     C91235  11.241   0.666  11.916 -0.4409 -1.2629  0.2926
  692MOL0     O91236  11.283   0.747  12.031  0.0465  0.0901  0.9386
  692MOL0     C91237  11.414   0.748  12.067 -0.4236 -0.2599  0.0364
  692MOL0     C91238  11.514   0.668  12.015 -0.1704  0.3216  0.5684
  692MOL0     C91239  11.651   0.681  12.051 -0.4621 -0.4200 -0.0728
  692MOL0     C91240  11.688   0.785  12.140  0.1787  0.2808 -0.5821
  692MOL0     C91241  11.828   0.792  12.182  0.1972  0.9350 -0.4362
  692MOL0     O91242  11.849   0.856  12.299 -0.2068  0.1229 -0.2525
  692MOL0     C91243  11.979   0.904  12.316  0.5044  0.2857 -1.0921
  692MOL0     C91244  12.027   1.010  12.245  0.0457  0.0409  0.0401
  692MOL0     C91245  12.165   1.038  12.261 -0.0140 -0.0875 -0.8739
  692MOL0     C91246  12.234   0.996  12.376 -0.0452 -0.3027  1.1504
  692MOL0     O91247  12.357   1.055  12.394  0.0470  0.5978 -0.1231
  692MOL0     C91248  12.440   1.067  12.281 -0.8247  0.2110 -0.5438
  692MOL0     C91249  12.596   1.080  12.322 -0.0146 -0.8773  0.1055
  692MOL0     C91250  12.609   1.193  12.430 -0.1254  0.0070  0.6256
  692MOL0     C91251  12.759   1.234  12.443 -0.1992 -0.3047  0.4338
  692MOL0     C91252  12.788   1.318  12.561 -0.4080 -0.3220 -0.4978
  692MOL0     C91253  12.943   1.332  12.579  0.1655  0.0356  0.3473
  692MOL0     C91254  12.970   1.415  12.709  0.1150  0.1559  0.2225
  692MOL0     C91255  13.116   1.436  12.741 -0.4950 -0.2893  0.8626
  692MOL0    Cl91256  13.183   1.505  12.589 -0.1790 -0.1468 -0.1787
  692MOL0     C91257  12.184   0.888  12.457  0.2080  0.3064  0.2277
  692MOL0     C91258  12.059   0.839  12.416 -0.2305 -0.0562 -1.1623
  692MOL0     O91259  11.919   0.751  12.101  0.7454 -0.8837 -0.4675
  692MOL0     C91260  11.588   0.881  12.182 -0.1567 -0.1998  0.8525
  692MOL0     C91261  11.453   0.855  12.146 -1.0012 -0.1417  0.1999
  692MOL0     N91262  10.835   0.747  11.590 -0.6255 -0.9498 -0.2178
  692MOL0     N91263  10.760   0.798  11.503 -0.1350 -0.0459  0.7302
  692MOL0     C91264   9.960   0.398  10.767  0.3681 -0.4059  0.4662
  692MOL0     C91265   9.881   0.314  10.686  0.2372  0.4500  0.3360
  692MOL0     C91266   9.665  -0.027  10.524  0.0869  0.5710  0.9090
  692MOL0     C91267   9.522  -0.036  10.514  0.9000 -0.0912  0.4959
  692MOL0     C91268   9.452  -0.121  10.434  0.4090  0.0708  0.6289
  692MOL0     C91269   9.526  -0.215  10.356 -0.7205 -0.1186  0.1248
  692MOL0     O91270   9.453  -0.308  10.283 -0.1932  0.1196 -0.0680
  692MOL0     C91271   9.480  -0.365  10.148  0.1185 -0.5756  0.0729
  692MOL0     C91272   9.350  -0.409  10.073 -0.4552 -0.7331 -0.6066
  692MOL0     C91273   9.243  -0.298  10.059 -0.7335 -0.6487 -0.9904
  692MOL0     C91274   9.099  -0.336  10.019 -0.7696 -0.7130  0.6741
  692MOL0     C91275   9.070  -0.378   9.884 -0.1578 -0.4599  0.1712
  692MOL0     C91276   9.064  -0.442   9.786 -0.5275  0.1851 -0.0923
  692MOL0     C91277   9.669  -0.216  10.371 -0.2389 -0.2904 -0.4605
  692MOL0     C91278   9.737  -0.126  10.457 -0.1883  0.3388  0.1089
  692MOL0     H91279  10.071   0.039  10.685  1.6676  0.3076  0.7206
  692MOL0     H91280  10.211   0.178  10.826 -0.1912  0.2961  0.4623
  692MOL0     H91281  10.353   0.356  10.899  2.1692  1.9075  1.0526
  692MOL0     H91282  10.249   0.328  11.042 -0.4449 -0.8624 -0.5253
  692MOL0     H91283  10.385   0.594  10.941 -0.6680 -1.3806 -2.1428
  692MOL0     H91284  10.448   0.501  11.063  0.9202  0.9983 -3.4270
  692MOL0     H91285  10.266   0.524  11.221  2.8815  0.8644  0.4680
  692MOL0     H91286  10.166   0.615  11.106  0.2626  1.7590  0.1843
  692MOL0     H91287  10.434   0.697  11.230  0.0371  1.0647  0.8822
  692MOL0     H91288  10.346   0.803  11.125  2.9700 -1.5392 -1.9224
  692MOL0     H91289  10.225   0.733  11.408  0.0390  2.8978  0.9915
  692MOL0     H91290  10.179   0.848  11.276  2.0329 -0.2090 -3.4494
  692MOL0     H91291  10.284   0.951  11.462  0.7346 -0.0288  0.8484
  692MOL0     H91292  10.371   0.968  11.310  1.2337 -1.5940  0.2218
  692MOL0     H91293  10.440   0.794  11.552  1.1964  0.0032  1.0272
  692MOL0     H91294  10.529   0.789  11.388  2.5406  1.4692  0.6279
  692MOL0     H91295  10.516   1.020  11.588  0.0208  0.3442 -0.0801
  692MOL0     H91296  10.590   1.019  11.425  0.8939  1.7854  1.6301
  692MOL0     H91297  10.663   0.947  11.779 -2.3494  1.0907 -1.5078
  692MOL0     H91298  10.858   0.652  11.851  0.4975  0.3754  0.5306
  692MOL0     H91299  10.825   0.808  11.943  2.7923  3.3013  0.4992
  692MOL0     H91300  11.042   0.857  11.941  4.7816  0.0309 -0.0115
  692MOL0     H91301  11.064   0.804  11.762 -0.0052 -2.4004  0.0884
  692MOL0     H91302  11.047   0.610  11.994  1.1744 -3.3882 -1.5987
  692MOL0     H91303  11.061   0.573  11.834 -2.6660 -0.4145  1.3523
  692MOL0     H91304  11.268   0.712  11.820 -2.3111  0.0891  0.3569
  692MOL0     H91305  11.284   0.565  11.919  2.1074 -0.2512  0.4975
  692MOL0     H91306  11.484   0.594  11.941  0.8435  0.7151 -0.2568
  692MOL0     H91307  11.720   0.609  12.010 -1.9725 -1.5080 -0.7799
  692MOL0     H91308  11.965   1.059  12.171  0.6629  1.6521  0.5314
  692MOL0     H91309  12.203   1.114  12.194  0.7381  0.6940  0.3905
  692MOL0     H91310  12.414   1.154  12.220  1.2059  2.1170  1.1550
  692MOL0     H91311  12.420   0.979  12.219 -2.7188 -1.2656  1.9527
  692MOL0     H91312  12.662   1.109  12.239 -0.1572  0.6952  0.5014
  692MOL0     H91313  12.625   0.984  12.365  1.1342 -1.3464 -1.5967
  692MOL0     H91314  12.567   1.172  12.529 -2.4967 -0.5179 -0.4445
  692MOL0     H91315  12.545   1.275  12.396 -0.9433 -1.4821 -1.5840
  692MOL0     H91316  12.809   1.140  12.468  0.7994 -0.0200 -0.4160
  692MOL0     H91317  12.796   1.269  12.346  0.8813  0.4450  1.0979
  692MOL0     H91318  12.754   1.270  12.653 -0.8164  1.7845  0.5011
  692MOL0     H91319  12.739   1.415  12.551  2.1672  1.0133 -0.9896
  692MOL0     H91320  12.978   1.382  12.488  0.3690  3.1183  1.9921
  692MOL0     H91321  12.991   1.234  12.592 -0.5562  0.0319  4.0623
  692MOL0     H91322  12.925   1.515  12.700  1.5649  0.6217 -4.5228
  692MOL0     H91323  12.922   1.358  12.789 -1.3743 -0.7216 -1.2366
  692MOL0     H91324  13.169   1.341  12.756  1.5557  0.4568 -1.1182
  692MOL0     H91325  13.126   1.505  12.824  1.0572  2.0298 -1.1128
  692MOL0     H91326  12.246   0.840  12.532  1.3774 -1.4752 -1.7692
  692MOL0     H91327  12.011   0.755  12.466 -0.6824  2.2420  2.6719
  692MOL0     H91328  11.612   0.958  12.254 -0.5189 -1.1314  2.0036
  692MOL0     H91329  11.380   0.926  12.181  0.6327  1.0670  1.2860
  692MOL0     H91330   9.925   0.495  10.800 -5.1072 -1.9259  0.1750
  692MOL0     H91331   9.786   0.358  10.657 -1.4433 -0.9787  3.2264
  692MOL0     H91332   9.465   0.042  10.563 -0.7477 -0.7609 -0.2950
  692MOL0     H91333   9.347  -0.108  10.410  0.4286  2.6368  1.5804
  692MOL0     H91334   9.549  -0.450  10.145  1.4603  0.4830 -0.3992
  692MOL0     H91335   9.537  -0.289  10.094  0.2035  0.3307  1.3888
  692MOL0     H91336   9.395  -0.428   9.975 -0.2521  1.6077 -1.0077
  692MOL0     H91337   9.307  -0.491  10.132 -0.0155  0.8838  2.0830
  692MOL0     H91338   9.284  -0.222   9.993 -1.5684  2.3030  1.5985
  692MOL0     H91339   9.242  -0.253  10.159  0.2295  0.1896 -1.3385
  692MOL0     H91340   9.058  -0.406  10.092 -1.3854 -0.7494  0.3034
  692MOL0     H91341   9.037  -0.247  10.033  1.4893  1.0650 -0.0022
  692MOL0     H91342   9.081  -0.492   9.693  2.1509 -1.1879  1.0309
  692MOL0     H91343   9.724  -0.294  10.319 -0.4746 -1.2943  0.7617
  692MOL0     H91344   9.844  -0.133  10.476  0.6347  1.2057 -3.3794
  693MOL0     O91345  10.790   9.483   3.698 -0.1290 -0.2231  0.4299
  693MOL0     C91346  10.825   9.385   3.634  0.3062 -1.2085  0.9471
  693MOL0     O91347  10.738   9.307   3.560 -0.0923 -0.2687 -1.1923
  693MOL0     C91348  10.605   9.317   3.569  0.0360 -0.6909 -1.0734
  693MOL0     C91349  10.520   9.275   3.465 -0.4352  0.3931 -0.3538
  693MOL0     C91350  10.389   9.243   3.475  1.4918  0.4471  0.1139
  693MOL0     C91351  10.332   9.246   3.600  0.0746 -1.4457 -0.1893
  693MOL0     O91352  10.206   9.211   3.613  0.2368  0.1682  0.1645
  693MOL0     C91353  10.117   9.307   3.689 -0.3251  0.3070  0.6649
  693MOL0     C91354   9.973   9.278   3.653 -0.6445 -0.9904  0.8520
  693MOL0     C91355   9.921   9.139   3.680  1.2424 -0.6263 -0.4629
  693MOL0     C91356   9.788   9.102   3.613 -0.6854  1.1942 -0.4537
  693MOL0     C91357   9.706   9.001   3.685  0.8367 -0.0083 -0.4444
  693MOL0     C91358   9.750   8.856   3.712  0.4971 -0.2435  0.1879
  693MOL0     C91359   9.636   8.750   3.721 -0.8069 -0.1767  0.5629
  693MOL0     C91360   9.686   8.614   3.768  0.6319 -0.8023 -0.1210
  693MOL0     N91361   9.781   8.550   3.674 -0.7996 -0.1647  0.1685
  693MOL0     C91362   9.753   8.481   3.559 -0.2270  0.5425  0.5026
  693MOL0     C91363   9.867   8.428   3.509  0.5563 -0.6067 -0.3844
  693MOL0     C91364   9.898   8.349   3.376 -0.3361 -0.7485 -0.1639
  693MOL0     C91365   9.896   8.203   3.388 -0.2197 -0.5356  0.3480
  693MOL0     C91366   9.754   8.159   3.377 -0.0369 -0.2863 -0.2615
  693MOL0     C91367   9.748   8.009   3.383 -0.6757 -1.2418 -0.3897
  693MOL0     O91368   9.804   7.960   3.512 -0.0919  0.7012  0.0864
  693MOL0     C91369   9.710   7.950   3.612 -0.9728 -0.3820  0.8810
  693MOL0     C91370   9.604   7.856   3.590  0.0529 -0.6097  0.2192
  693MOL0     C91371   9.493   7.843   3.680  0.0080  0.4837  1.0537
  693MOL0     C91372   9.493   7.922   3.789 -0.2565 -0.1691 -0.6486
  693MOL0     C91373   9.389   7.893   3.891 -0.2463  0.5990  0.4071
  693MOL0     O91374   9.316   7.779   3.879  0.0495 -0.2683  0.4929
  693MOL0     C91375   9.200   7.765   3.950  0.2259 -1.1114 -0.8698
  693MOL0     C91376   9.084   7.718   3.886  0.1670 -0.2857  0.2388
  693MOL0     C91377   8.961   7.712   3.939  0.0855  0.5194  0.1415
  693MOL0     C91378   8.946   7.731   4.082  0.5106  0.4176  0.1317
  693MOL0     O91379   8.828   7.725   4.154 -0.1270 -0.3431  0.9002
  693MOL0     C91380   8.705   7.755   4.077 -0.0384 -0.9773  0.9100
  693MOL0     C91381   8.607   7.809   4.176 -0.1847  0.5803  0.2128
  693MOL0     C91382   8.575   7.715   4.289 -0.6711  0.7012  0.3628
  693MOL0     C91383   8.482   7.786   4.381 -0.0971  0.1313  0.1322
  693MOL0     C91384   8.467   7.695   4.505 -0.0749 -0.4705  0.0534
  693MOL0     C91385   8.362   7.756   4.594  0.1359 -0.7659 -1.2416
  693MOL0     C91386   8.365   7.679   4.721 -0.1800  0.4578  0.0486
  693MOL0     C91387   8.237   7.621   4.771  0.3072  0.1119  0.0712
  693MOL0    Cl91388   8.266   7.521   4.919  0.1508 -0.3332  0.3747
  693MOL0     C91389   9.068   7.771   4.144 -0.3113 -0.7859  0.3916
  693MOL0     C91390   9.194   7.787   4.089  0.6721 -0.5063  0.1608
  693MOL0     O91391   9.360   7.991   3.962  0.7634  0.7496 -0.1312
  693MOL0     C91392   9.581   8.034   3.799  1.1188 -0.3110 -0.7999
  693MOL0     C91393   9.690   8.052   3.714 -0.2033  0.2180 -0.0009
  693MOL0     N91394   9.964   8.469   3.599  1.1278 -0.0740  0.1675
  693MOL0     N91395   9.911   8.541   3.697 -0.9514 -0.1063 -1.2002
  693MOL0     C91396  10.409   9.303   3.713 -0.4141  1.1914 -0.3191
  693MOL0     C91397  10.542   9.342   3.693 -0.2348  0.3321 -0.9520
  693MOL0     C91398  10.969   9.372   3.638 -0.3392 -0.8568  0.3206
  693MOL0     C91399  11.046   9.447   3.729  0.4324 -0.0038 -0.6068
  693MOL0     C91400  11.181   9.434   3.734 -0.1539  0.4234  0.3924
  693MOL0     C91401  11.254   9.358   3.640 -0.4124 -0.2770 -0.4856
  693MOL0     O91402  11.391   9.367   3.634  0.3904  0.2100  0.1000
  693MOL0     C91403  11.449   9.427   3.514  0.6043  1.2432  0.3128
  693MOL0     C91404  11.597   9.452   3.537 -0.3338  0.7085 -0.3578
  693MOL0     C91405  11.630   9.575   3.617 -0.3267  0.7935  0.8013
  693MOL0     C91406  11.630   9.700   3.538  0.1885  0.7339 -0.3444
  693MOL0     C91407  11.697   9.804   3.614 -0.4996  0.3803 -0.2733
  693MOL0     C91408  11.752   9.886   3.686  1.0880  0.0492  0.5412
  693MOL0     C91409  11.184   9.277   3.548  0.0499  0.3021  0.1456
  693MOL0     C91410  11.048   9.292   3.542  0.4659 -0.0135 -0.1147
  693MOL0     H91411  10.570   9.263   3.370 -0.7763 -0.0984 -0.4745
  693MOL0     H91412  10.344   9.195   3.389  3.0153 -1.0712  0.1123
  693MOL0     H91413  10.147   9.405   3.650 -0.9270 -1.1446 -4.1569
  693MOL0     H91414  10.128   9.308   3.798  0.1780  0.1848  0.6185
  693MOL0     H91415   9.965   9.299   3.546  1.9616  0.6165  0.8848
  693MOL0     H91416   9.908   9.359   3.688  1.0011  0.9356 -0.3130
  693MOL0     H91417   9.903   9.132   3.788 -2.2982 -0.0882 -0.8833
  693MOL0     H91418   9.995   9.062   3.657  0.0271 -2.4829  1.4380
  693MOL0     H91419   9.727   9.189   3.589  0.7089  1.5991 -2.8595
  693MOL0     H91420   9.823   9.051   3.523 -1.8520  0.8519 -0.7227
  693MOL0     H91421   9.617   8.980   3.625  0.3217 -2.8166  1.0798
  693MOL0     H91422   9.649   9.039   3.771  0.7300  1.0532 -0.9665
  693MOL0     H91423   9.805   8.850   3.807  0.1123 -0.5790  0.3930
  693MOL0     H91424   9.813   8.830   3.626 -1.2988 -1.6219 -0.7854
  693MOL0     H91425   9.558   8.774   3.794  1.6144 -0.9301  3.6132
  693MOL0     H91426   9.601   8.745   3.618 -0.5743  0.8092  0.4272
  693MOL0     H91427   9.593   8.557   3.774 -1.6327  2.3588 -1.7682
  693MOL0     H91428   9.722   8.628   3.870 -1.2507  0.7148  0.4088
  693MOL0     H91429   9.652   8.472   3.520  0.0043 -0.9107  0.2208
  693MOL0     H91430   9.995   8.380   3.335 -0.8957 -0.3560 -1.2076
  693MOL0     H91431   9.821   8.380   3.306 -1.9193 -2.3936  0.7805
  693MOL0     H91432   9.932   8.174   3.487 -0.2795 -1.7483  0.0242
  693MOL0     H91433   9.957   8.163   3.306 -2.5358 -3.2128 -0.2229
  693MOL0     H91434   9.697   8.200   3.461 -3.1805 -4.6302  0.0960
  693MOL0     H91435   9.705   8.206   3.291  1.5442 -0.3508 -1.2408
  693MOL0     H91436   9.798   7.971   3.294  2.1205 -0.3284  0.6799
  693MOL0     H91437   9.647   7.976   3.357  0.4316 -2.1749 -4.0474
  693MOL0     H91438   9.627   7.790   3.507 -1.5039  3.3209 -3.7135
  693MOL0     H91439   9.420   7.764   3.668  2.5588 -1.7963 -0.7183
  693MOL0     H91440   9.094   7.689   3.782  3.3821  1.9145 -0.2192
  693MOL0     H91441   8.878   7.682   3.876  0.5316 -1.3048  0.3590
  693MOL0     H91442   8.676   7.672   4.012  2.8974 -0.1190 -1.7290
  693MOL0     H91443   8.723   7.834   4.004 -2.2411  0.0453  1.3651
  693MOL0     H91444   8.516   7.839   4.122  0.4379 -0.2142 -1.3301
  693MOL0     H91445   8.664   7.896   4.210  1.6834 -1.3450  2.3476
  693MOL0     H91446   8.665   7.700   4.349 -1.0612 -1.2599  0.5255
  693MOL0     H91447   8.527   7.625   4.249  2.9315 -1.2861  0.0791
  693MOL0     H91448   8.520   7.883   4.412  2.6825 -1.5745  2.6568
  693MOL0     H91449   8.385   7.808   4.336  1.4157  0.9168 -3.0648
  693MOL0     H91450   8.567   7.674   4.542  0.6506  1.0393 -0.9248
  693MOL0     H91451   8.420   7.601   4.474  0.8134 -0.7716 -0.4072
  693MOL0     H91452   8.267   7.745   4.540 -1.8343 -0.6965  1.9470
  693MOL0     H91453   8.381   7.862   4.613 -0.2503 -0.7811 -0.7666
  693MOL0     H91454   8.447   7.608   4.708  1.0142  1.9135 -0.5787
  693MOL0     H91455   8.399   7.748   4.798  0.0755 -0.4621  0.7801
  693MOL0     H91456   8.183   7.558   4.700 -2.8234  2.0134  0.6157
  693MOL0     H91457   8.173   7.702   4.804  0.8529 -0.1543  1.8939
  693MOL0     H91458   9.051   7.792   4.249 -2.6467  1.3699 -0.3064
  693MOL0     H91459   9.280   7.815   4.149  1.5744  0.1617 -1.3823
  693MOL0     H91460   9.573   8.092   3.890 -0.6453  0.8568 -1.6383
  693MOL0     H91461   9.761   8.134   3.720 -0.5714  0.4726  1.0227
  693MOL0     H91462  10.365   9.300   3.812 -2.4176 -0.6265 -1.2092
  693MOL0     H91463  10.591   9.366   3.786 -4.4072  0.2925  1.4903
  693MOL0     H91464  10.995   9.515   3.797  1.2474  2.2056 -2.1013
  693MOL0     H91465  11.241   9.497   3.799  1.8454  0.6157 -1.5169
  693MOL0     H91466  11.409   9.519   3.471  4.1853  2.4865 -0.7172
  693MOL0     H91467  11.431   9.357   3.432  2.8042  1.5400 -0.4749
  693MOL0     H91468  11.639   9.363   3.586  2.9880  0.9415 -2.4826
  693MOL0     H91469  11.650   9.456   3.442  2.2656  1.0559  0.9900
  693MOL0     H91470  11.734   9.563   3.651 -0.7449  2.0775  2.7374
  693MOL0     H91471  11.560   9.590   3.700 -0.4795 -0.4627  0.9131
  693MOL0     H91472  11.674   9.686   3.439  2.1682 -2.3005  0.7968
  693MOL0     H91473  11.528   9.738   3.528  0.0386  1.3878  2.6452
  693MOL0     H91474  11.808   9.955   3.747 -1.7174  3.9023 -0.8233
  693MOL0     H91475  11.233   9.207   3.482 -0.6528  0.2880 -0.3695
  693MOL0     H91476  11.001   9.227   3.469 -2.1881  0.0469  1.4114
  694MOL0     O91477   2.429   0.324   4.839  0.4555 -0.1306 -1.1260
  694MOL0     C91478   2.428   0.339   4.963 -1.2275 -0.0720 -0.0760
  694MOL0     O91479   2.327   0.375   5.053 -0.0196  0.4624  0.1610
  694MOL0     C91480   2.212   0.398   4.984  0.3614  0.1020 -0.0638
  694MOL0     C91481   2.130   0.288   4.950 -0.1500 -0.5496 -0.5332
  694MOL0     C91482   2.009   0.306   4.887  0.1732 -0.2493  0.3079
  694MOL0     C91483   1.973   0.432   4.851 -0.4657 -0.2430  0.0731
  694MOL0     O91484   1.845   0.441   4.803  0.1017 -0.5828 -0.2259
  694MOL0     C91485   1.778   0.571   4.812  0.2339  0.6053 -0.2413
  694MOL0     C91486   1.638   0.541   4.776  0.1964 -0.6105 -0.0694
  694MOL0     C91487   1.552   0.430   4.829  0.0699  0.5831 -0.0519
  694MOL0     C91488   1.413   0.403   4.758  0.2692 -0.3680 -0.2965
  694MOL0     C91489   1.415   0.347   4.613  0.5619 -0.7631 -0.3625
  694MOL0     C91490   1.277   0.347   4.550  0.3435  0.0105  0.3386
  694MOL0     C91491   1.199   0.253   4.626  1.0511  0.1455 -0.5292
  694MOL0     C91492   1.092   0.186   4.542 -0.6597  0.6787 -0.8068
  694MOL0     N91493   1.022   0.074   4.618  0.1710  0.5181 -0.8686
  694MOL0     C91494   0.906   0.088   4.682 -0.3527  0.0022  0.0229
  694MOL0     C91495   0.857  -0.035   4.704  0.4434 -0.1458 -0.4664
  694MOL0     C91496   0.719  -0.051   4.761  1.1038  0.8222  0.4847
  694MOL0     C91497   0.725  -0.072   4.917 -0.3888  0.3959  0.7193
  694MOL0     C91498   0.593  -0.124   4.975 -0.8295 -0.7163  0.2197
  694MOL0     C91499   0.467  -0.032   4.939 -0.2703 -0.3394  0.1679
  694MOL0     O91500   0.357  -0.090   5.012 -0.2770  0.0563 -0.1485
  694MOL0     C91501   0.281  -0.185   4.954  0.5240  0.1184  0.5713
  694MOL0     C91502   0.271  -0.221   4.818  0.0900 -0.6587 -0.5188
  694MOL0     C91503   0.200  -0.335   4.774 -0.0274 -0.4394  0.9108
  694MOL0     C91504   0.135  -0.428   4.862  0.3488 -0.6774 -1.0571
  694MOL0     C91505   0.055  -0.541   4.824  0.6816  0.0776  0.6681
  694MOL0     O91506  -0.040  -0.588   4.917 -0.8793  0.4434  0.3055
  694MOL0     C91507  -0.142  -0.674   4.874  0.8817 -0.1591  0.1083
  694MOL0     C91508  -0.123  -0.803   4.829 -0.2952  0.7134 -0.3967
  694MOL0     C91509  -0.229  -0.877   4.771 -0.7921  0.1798  0.1762
  694MOL0     C91510  -0.358  -0.839   4.789  0.2618 -0.5086  0.7609
  694MOL0     O91511  -0.471  -0.927   4.758 -0.2466 -0.3932 -0.4650
  694MOL0     C91512  -0.451  -1.068   4.748  0.5651 -1.1471  0.4974
  694MOL0     C91513  -0.579  -1.143   4.698 -0.2790 -0.4275  0.1409
  694MOL0     C91514  -0.715  -1.120   4.777 -0.0164 -0.4870  0.5021
  694MOL0     C91515  -0.835  -1.192   4.699 -0.2959  0.0698  0.4039
  694MOL0     C91516  -0.950  -1.186   4.792  0.7406  0.3608  0.0487
  694MOL0     C91517  -1.076  -1.261   4.740  0.0054  0.8450  0.1219
  694MOL0     C91518  -1.171  -1.181   4.642  1.5525 -0.2413  0.2983
  694MOL0     C91519  -1.298  -1.259   4.628 -0.5119 -0.7038  0.0906
  694MOL0    Cl91520  -1.264  -1.405   4.528 -0.0341 -0.0343  0.0510
  694MOL0     C91521  -0.387  -0.707   4.839  0.1277  0.2338 -0.1248
  694MOL0     C91522  -0.280  -0.621   4.870 -0.3712  0.3614 -1.0289
  694MOL0     O91523   0.047  -0.559   4.702 -0.0855 -0.0145 -1.0350
  694MOL0     C91524   0.147  -0.398   4.993 -0.2489 -0.3456  0.9853
  694MOL0     C91525   0.224  -0.284   5.039 -0.4762  0.8286  0.0006
  694MOL0     N91526   0.945  -0.134   4.661 -0.1050 -0.2818  0.0058
  694MOL0     N91527   1.033  -0.058   4.601 -0.4407 -0.4382  0.0074
  694MOL0     C91528   2.063   0.537   4.880 -0.4352 -1.0858 -0.0867
  694MOL0     C91529   2.180   0.525   4.951  0.2528 -0.1614  0.0980
  694MOL0     C91530   2.557   0.297   5.036  0.3646  0.2639 -0.4105
  694MOL0     C91531   2.676   0.263   4.960  0.0219 -0.5751  0.3368
  694MOL0     C91532   2.788   0.228   5.039  0.3298 -0.0553 -1.0355
  694MOL0     C91533   2.779   0.199   5.183 -1.1046 -0.2233  0.8397
  694MOL0     O91534   2.886   0.154   5.267  0.4430  0.4009  0.1123
  694MOL0     C91535   2.917   0.012   5.238  0.6375  0.8100 -0.4996
  694MOL0     C91536   3.048  -0.030   5.300 -0.3728  0.6238 -0.7950
  694MOL0     C91537   3.170   0.062   5.273 -0.0209  0.4337  0.4552
  694MOL0     C91538   3.217   0.056   5.128  0.0292 -0.2816 -0.3613
  694MOL0     C91539   3.350   0.110   5.109 -0.5112  0.4365  0.6848
  694MOL0     C91540   3.469   0.143   5.088  0.0235  1.0026 -0.0180
  694MOL0     C91541   2.670   0.239   5.245 -0.7222 -0.4047 -0.2241
  694MOL0     C91542   2.559   0.289   5.182 -0.0043  1.5884 -0.0447
  694MOL0     H91543   2.149   0.183   4.973 -2.6302 -0.7830  0.8341
  694MOL0     H91544   1.948   0.217   4.873 -0.5312  0.5895 -2.7515
  694MOL0     H91545   1.825   0.640   4.742  1.4443 -0.6725 -0.7440
  694MOL0     H91546   1.779   0.609   4.915  0.5620 -0.0705  0.0122
  694MOL0     H91547   1.637   0.522   4.669  1.6783 -0.9618 -0.0324
  694MOL0     H91548   1.586   0.634   4.801  3.9342  1.3793  0.9127
  694MOL0     H91549   1.543   0.436   4.937  2.0359  1.1558  0.1109
  694MOL0     H91550   1.610   0.339   4.812 -0.5674  0.2487 -0.5115
  694MOL0     H91551   1.360   0.323   4.809  0.5267 -1.3888 -1.5929
  694MOL0     H91552   1.360   0.498   4.769  0.0512 -0.2349 -2.1748
  694MOL0     H91553   1.453   0.245   4.620 -1.9513 -1.7455  0.3012
  694MOL0     H91554   1.491   0.407   4.563  2.0594 -1.2329  1.2424
  694MOL0     H91555   1.303   0.310   4.450 -1.1531  1.1574 -0.5077
  694MOL0     H91556   1.222   0.441   4.547  1.9119  0.9509 -0.4449
  694MOL0     H91557   1.260   0.173   4.669  2.4620  1.5362  0.1635
  694MOL0     H91558   1.152   0.307   4.709  1.3420 -0.6931  0.1996
  694MOL0     H91559   1.147   0.131   4.465 -0.4529 -0.3117  0.0272
  694MOL0     H91560   1.022   0.258   4.501  0.9193  1.9528 -1.3851
  694MOL0     H91561   0.871   0.188   4.707  3.5111  1.2777  1.0359
  694MOL0     H91562   0.679  -0.140   4.711  1.1321  1.1940 -0.2018
  694MOL0     H91563   0.645   0.025   4.735  0.2586  0.3013  1.2854
  694MOL0     H91564   0.748   0.030   4.949 -0.4990  1.5672 -2.4832
  694MOL0     H91565   0.795  -0.145   4.959  0.6789  0.8979 -0.1237
  694MOL0     H91566   0.585  -0.228   4.941 -0.4213 -0.6589 -0.0573
  694MOL0     H91567   0.603  -0.118   5.084 -1.5328  3.3249  0.2091
  694MOL0     H91568   0.447  -0.012   4.833 -2.1227 -1.0577  0.3455
  694MOL0     H91569   0.479   0.071   4.972  2.4522  1.3497 -5.0561
  694MOL0     H91570   0.303  -0.151   4.741  0.2050 -3.6368 -3.4644
  694MOL0     H91571   0.185  -0.353   4.668  0.4025 -2.0112  1.0949
  694MOL0     H91572  -0.020  -0.836   4.819 -0.9886 -1.2968 -1.2852
  694MOL0     H91573  -0.214  -0.978   4.733 -0.4410  0.8258 -1.5068
  694MOL0     H91574  -0.417  -1.114   4.841 -1.8740  1.4726  2.8524
  694MOL0     H91575  -0.368  -1.080   4.677  2.1854  0.3922  2.0263
  694MOL0     H91576  -0.569  -1.249   4.673  2.0966  0.1278 -1.6361
  694MOL0     H91577  -0.587  -1.088   4.603 -2.4334  1.9824  1.5970
  694MOL0     H91578  -0.742  -1.017   4.802 -3.0017 -1.5091  2.0326
  694MOL0     H91579  -0.707  -1.171   4.874 -2.4066 -0.5390  0.7349
  694MOL0     H91580  -0.864  -1.128   4.616  1.2210  1.5133  0.9232
  694MOL0     H91581  -0.809  -1.294   4.670  1.2500  1.6221 -4.7140
  694MOL0     H91582  -0.982  -1.082   4.807  2.1455  0.9079 -0.5513
  694MOL0     H91583  -0.924  -1.227   4.890  1.9248 -0.4044 -0.5743
  694MOL0     H91584  -1.131  -1.279   4.832  1.4394 -0.0222  0.8493
  694MOL0     H91585  -1.044  -1.356   4.696  1.1760  1.2658  0.0377
  694MOL0     H91586  -1.201  -1.082   4.678 -5.4844 -1.9158  0.4351
  694MOL0     H91587  -1.139  -1.171   4.538 -0.4066  0.8170 -0.2542
  694MOL0     H91588  -1.370  -1.200   4.570 -1.5226 -2.5757 -0.6309
  694MOL0     H91589  -1.329  -1.289   4.728  1.5938 -0.8503  0.7531
  694MOL0     H91590  -0.484  -0.662   4.853  1.4122  2.3533  3.3254
  694MOL0     H91591  -0.288  -0.523   4.914 -3.6295 -0.8738  1.5409
  694MOL0     H91592   0.083  -0.447   5.065 -0.5533 -0.6549  0.5122
  694MOL0     H91593   0.247  -0.286   5.146 -0.3832 -0.5067 -0.0295
  694MOL0     H91594   2.026   0.636   4.854  0.9784 -0.3363  0.6657
  694MOL0     H91595   2.247   0.608   4.972  0.1781 -0.0683 -0.0311
  694MOL0     H91596   2.681   0.265   4.852  0.3886  1.6308  0.3583
  694MOL0     H91597   2.888   0.211   5.000  1.3004  1.2615  0.7466
  694MOL0     H91598   2.941  -0.014   5.134  1.7535  0.4742 -0.1734
  694MOL0     H91599   2.826  -0.041   5.266  0.1727  1.5164 -0.6367
  694MOL0     H91600   3.029  -0.028   5.408  2.2207  0.5400 -0.2719
  694MOL0     H91601   3.074  -0.134   5.281 -2.3343  0.0612 -0.6103
  694MOL0     H91602   3.253   0.044   5.342  1.5494 -1.7964 -1.8262
  694MOL0     H91603   3.128   0.154   5.313 -0.2676 -0.2778  1.8810
  694MOL0     H91604   3.228  -0.049   5.099  0.0817 -0.1377 -0.8688
  694MOL0     H91605   3.151   0.105   5.056 -1.1562  0.7322  1.3506
  694MOL0     H91606   3.575   0.153   5.075  0.6397 -1.4421  2.2791
  694MOL0     H91607   2.662   0.213   5.350 -1.0923 -0.4947 -0.2747
  694MOL0     H91608   2.465   0.311   5.231 -1.4366 -0.4419 -1.7264
  695MOL0     O91609   8.695   1.466  10.503  0.0176 -0.2302  0.2687
  695MOL0     C91610   8.725   1.579  10.529  0.1604  0.3591 -0.7176
  695MOL0     O91611   8.656   1.695  10.487  0.3050 -0.1832 -0.4669
  695MOL0     C91612   8.519   1.687  10.469 -0.0225 -0.5173  0.6101
  695MOL0     C91613   8.427   1.584  10.488  1.1088 -0.4223  0.0555
  695MOL0     C91614   8.293   1.600  10.455 -0.8306 -0.3706  0.1449
  695MOL0     C91615   8.249   1.726  10.402  0.4841 -0.1982  0.5565
  695MOL0     O91616   8.112   1.745  10.372 -0.2970 -0.6146  0.5199
  695MOL0     C91617   8.020   1.745  10.476  0.0121 -0.0189 -0.0153
  695MOL0     C91618   7.902   1.822  10.417  0.3385 -0.0338 -0.6832
  695MOL0     C91619   7.785   1.823  10.513  0.2546 -0.4221 -0.3458
  695MOL0     C91620   7.664   1.908  10.454 -0.8325  0.0478 -0.6257
  695MOL0     C91621   7.553   1.889  10.550  0.5034 -0.5293  0.6209
  695MOL0     C91622   7.434   1.960  10.489  0.3698 -1.1681  0.3025
  695MOL0     C91623   7.306   1.966  10.575 -0.2975  0.1449  1.0419
  695MOL0     C91624   7.243   1.821  10.585 -0.0681  0.7831  0.7786
  695MOL0     N91625   7.103   1.820  10.630 -0.0923  0.2567  0.6388
  695MOL0     C91626   7.039   1.705  10.633  0.5000  0.5539 -0.2069
  695MOL0     C91627   6.924   1.732  10.700 -0.7416 -0.6079  1.4234
  695MOL0     C91628   6.835   1.628  10.753 -0.3779 -0.6842  0.0639
  695MOL0     C91629   6.694   1.646  10.708 -0.4360 -1.2321  0.3739
  695MOL0     C91630   6.599   1.545  10.756 -0.6257  0.4002  1.0504
  695MOL0     C91631   6.454   1.578  10.758  0.6785 -0.3749  1.1204
  695MOL0     O91632   6.412   1.630  10.628  0.3743  0.0919 -0.7943
  695MOL0     C91633   6.287   1.691  10.613 -0.2402  0.4366 -0.8461
  695MOL0     C91634   6.236   1.711  10.486 -0.1271  1.0783  0.2031
  695MOL0     C91635   6.113   1.778  10.469  0.2001  0.0739  0.2380
  695MOL0     C91636   6.029   1.817  10.579  0.3129 -0.4993  1.0133
  695MOL0     C91637   5.916   1.910  10.553  0.0770  0.0024  0.3840
  695MOL0     O91638   5.880   1.939  10.421  0.2132  0.7909  0.6123
  695MOL0     C91639   5.757   1.995  10.401 -0.5854  0.1360 -1.3108
  695MOL0     C91640   5.749   2.132  10.358 -0.2790  0.7401  0.2711
  695MOL0     C91641   5.624   2.189  10.322 -0.1001  0.2355  0.3749
  695MOL0     C91642   5.504   2.111  10.341 -0.4976  0.3156 -0.3943
  695MOL0     O91643   5.377   2.155  10.313  0.2890 -0.6254  0.3452
  695MOL0     C91644   5.367   2.252  10.208 -0.3496  0.1848 -0.2341
  695MOL0     C91645   5.231   2.279  10.154  0.0134 -0.1079  0.9397
  695MOL0     C91646   5.122   2.304  10.266 -0.4880  0.1095 -0.5610
  695MOL0     C91647   5.002   2.374  10.203 -0.2224  0.7392 -0.1352
  695MOL0     C91648   4.918   2.423  10.318 -0.0126  0.1341 -1.3157
  695MOL0     C91649   4.773   2.444  10.281  0.3374  0.7825 -0.9579
  695MOL0     C91650   4.755   2.540  10.171  1.0771 -0.4413 -0.4033
  695MOL0     C91651   4.606   2.603  10.153 -0.2573  0.2284 -0.0605
  695MOL0    Cl91652   4.549   2.665  10.308 -0.2021 -0.0018 -0.1278
  695MOL0     C91653   5.516   1.978  10.391  0.8880  0.8717 -0.0058
  695MOL0     C91654   5.642   1.922  10.422  0.9081 -0.3293  0.6328
  695MOL0     O91655   5.849   1.952  10.649 -0.6149  0.3684  0.0267
  695MOL0     C91656   6.073   1.789  10.711 -0.4081 -0.5196 -0.2014
  695MOL0     C91657   6.195   1.713  10.722 -0.0353 -0.3532 -0.8038
  695MOL0     N91658   6.916   1.868  10.712  0.5512  0.7004 -0.0383
  695MOL0     N91659   7.027   1.925  10.671 -1.1603  0.3914  0.4717
  695MOL0     C91660   8.334   1.833  10.398 -0.6315  0.9451  0.0863
  695MOL0     C91661   8.472   1.816  10.428  0.5650  0.3268 -0.1187
  695MOL0     C91662   8.849   1.606  10.602 -0.0936  0.7331 -0.4498
  695MOL0     C91663   8.914   1.724  10.593  0.5086 -0.4981 -0.2353
  695MOL0     C91664   9.038   1.735  10.670 -0.4328 -1.0611 -0.3311
  695MOL0     C91665   9.092   1.641  10.754 -0.7844  0.5206  0.1547
  695MOL0     O91666   9.212   1.658  10.820 -0.8560  0.2130 -0.8351
  695MOL0     C91667   9.317   1.753  10.788  0.7051 -0.6147  0.1187
  695MOL0     C91668   9.425   1.726  10.887 -0.0412 -0.1000 -0.0341
  695MOL0     C91669   9.551   1.819  10.892  1.7776  0.0461  0.2716
  695MOL0     C91670   9.642   1.776  11.006  0.2893  0.7603 -0.1483
  695MOL0     C91671   9.705   1.890  11.076  0.6393  0.1450 -0.0941
  695MOL0     C91672   9.729   1.992  11.128  0.6465  0.2132 -0.5293
  695MOL0     C91673   9.006   1.537  10.785 -0.7232 -0.3418  1.0750
  695MOL0     C91674   8.888   1.515  10.713  1.2676 -0.2728  0.4646
  695MOL0     H91675   8.448   1.480  10.511 -1.4335 -1.2101 -0.8572
  695MOL0     H91676   8.225   1.517  10.470  0.7047 -1.4284  1.5600
  695MOL0     H91677   8.045   1.792  10.572 -1.2021 -2.0833  1.4015
  695MOL0     H91678   7.986   1.646  10.509  2.3754 -0.7025  0.5369
  695MOL0     H91679   7.872   1.782  10.320  0.5419  0.9475 -1.1660
  695MOL0     H91680   7.948   1.921  10.419 -1.6472  1.1355  4.7809
  695MOL0     H91681   7.816   1.860  10.611  0.5407 -1.9369  0.1630
  695MOL0     H91682   7.742   1.727  10.543 -2.4856 -0.0541 -2.7052
  695MOL0     H91683   7.685   2.013  10.435  1.2309 -0.3411 -0.7564
  695MOL0     H91684   7.647   1.867  10.354  0.1151  1.3922 -1.3708
  695MOL0     H91685   7.568   1.930  10.650 -0.8199 -1.0758  1.0718
  695MOL0     H91686   7.539   1.782  10.569 -0.4672 -0.2719  1.4648
  695MOL0     H91687   7.413   1.900  10.399  1.3511 -1.7818  0.4729
  695MOL0     H91688   7.461   2.063  10.465 -1.5595  0.0502  2.8332
  695MOL0     H91689   7.336   1.989  10.678 -0.4364 -0.1601  1.1517
  695MOL0     H91690   7.243   2.048  10.540 -2.0513 -1.2189  0.8422
  695MOL0     H91691   7.306   1.760  10.651 -0.8899  2.4463  3.2333
  695MOL0     H91692   7.246   1.762  10.493  1.8389  0.5141  0.9620
  695MOL0     H91693   7.070   1.603  10.611 -0.7992 -0.5606  2.5324
  695MOL0     H91694   6.823   1.643  10.861  0.3034  1.7359 -0.1217
  695MOL0     H91695   6.874   1.531  10.724  4.1516  0.6826  0.7622
  695MOL0     H91696   6.687   1.633  10.600 -1.3085 -1.6662  0.4691
  695MOL0     H91697   6.650   1.745  10.727  0.9855 -0.2452 -1.2607
  695MOL0     H91698   6.605   1.457  10.692 -4.4268 -0.2614  1.3229
  695MOL0     H91699   6.625   1.523  10.860  3.1698  2.9008  0.8023
  695MOL0     H91700   6.445   1.668  10.821  2.4390  0.2589  0.5390
  695MOL0     H91701   6.390   1.493  10.783  0.1777 -0.1983  0.4711
  695MOL0     H91702   6.281   1.682  10.391 -3.6494 -3.0119 -0.5241
  695MOL0     H91703   6.072   1.796  10.370  0.3005 -0.2004  0.1449
  695MOL0     H91704   5.839   2.189  10.335  0.5975 -0.8757 -0.4842
  695MOL0     H91705   5.608   2.293  10.293  1.5060  1.3344  2.9710
  695MOL0     H91706   5.430   2.222  10.123 -0.1482 -1.5469  0.4909
  695MOL0     H91707   5.410   2.350  10.231 -2.7584  1.6884 -1.6220
  695MOL0     H91708   5.195   2.196  10.092  0.6142 -0.5326  1.1446
  695MOL0     H91709   5.247   2.367  10.092 -1.8811 -0.0087  0.5234
  695MOL0     H91710   5.165   2.367  10.345  0.7418 -0.3544 -0.8377
  695MOL0     H91711   5.076   2.215  10.310 -1.2736  2.1588  3.1817
  695MOL0     H91712   5.027   2.465  10.146 -2.8143  1.1462 -0.7505
  695MOL0     H91713   4.942   2.305  10.143 -0.5758  0.7421  0.2183
  695MOL0     H91714   4.941   2.522  10.359 -3.2535  0.5276 -0.0984
  695MOL0     H91715   4.916   2.341  10.391  0.5620 -1.3437 -2.9083
  695MOL0     H91716   4.709   2.470  10.366  0.5389 -1.3794 -0.0920
  695MOL0     H91717   4.732   2.350  10.244 -1.8590  0.6433  1.5474
  695MOL0     H91718   4.824   2.621  10.194 -0.1359  0.2556  0.9287
  695MOL0     H91719   4.788   2.493  10.078  2.5141 -1.7305  0.7157
  695MOL0     H91720   4.532   2.543  10.100 -0.6529  1.8083 -1.3752
  695MOL0     H91721   4.615   2.694  10.094 -0.6366  1.1299  1.2269
  695MOL0     H91722   5.425   1.921  10.410  0.7532  0.0170 -2.8437
  695MOL0     H91723   5.649   1.826  10.472  2.6629  0.5197  2.1193
  695MOL0     H91724   6.019   1.805  10.804  0.5048  0.5470  0.1744
  695MOL0     H91725   6.217   1.686  10.825 -3.2553 -3.4089 -0.7560
  695MOL0     H91726   8.307   1.932  10.363 -0.7531  0.8884  0.0214
  695MOL0     H91727   8.535   1.901  10.450  2.1309 -0.7648 -0.2192
  695MOL0     H91728   8.886   1.803  10.524 -2.5764 -1.2285  0.0021
  695MOL0     H91729   9.098   1.822  10.644  0.5459 -2.1887 -2.0791
  695MOL0     H91730   9.284   1.856  10.803 -0.2338 -0.8272 -0.3838
  695MOL0     H91731   9.366   1.743  10.691  1.8400  1.2286  0.4509
  695MOL0     H91732   9.382   1.738  10.987 -0.5879  3.6228 -0.5456
  695MOL0     H91733   9.464   1.630  10.854  0.8312  0.7611 -1.6154
  695MOL0     H91734   9.521   1.922  10.911 -2.4898 -0.2726 -3.2222
  695MOL0     H91735   9.603   1.815  10.796 -1.1830 -0.0062 -1.4498
  695MOL0     H91736   9.585   1.722  11.082 -0.4801  1.0284 -0.5225
  695MOL0     H91737   9.717   1.707  10.968 -1.2554 -2.0696  1.5959
  695MOL0     H91738   9.761   2.085  11.171 -1.7496  0.9366 -0.1918
  695MOL0     H91739   9.030   1.464  10.861  1.9633  1.4708  2.0926
  695MOL0     H91740   8.822   1.435  10.745  1.5098 -0.2154  1.1142
  696MOL0     O91741   0.953   0.566  11.203 -0.4866  0.2950  0.1446
  696MOL0     C91742   1.030   0.546  11.292  0.3929  0.3307  0.1051
  696MOL0     O91743   1.017   0.455  11.391 -0.4173  0.9595  0.2151
  696MOL0     C91744   0.907   0.367  11.380 -0.3104 -0.6954  0.4194
  696MOL0     C91745   0.896   0.267  11.286  0.0085  0.2716 -0.0275
  696MOL0     C91746   0.802   0.161  11.288 -0.4634 -0.4836 -0.3918
  696MOL0     C91747   0.705   0.164  11.387 -0.2413 -0.5203 -0.1868
  696MOL0     O91748   0.612   0.064  11.412 -0.0513 -1.1608  0.2462
  696MOL0     C91749   0.641  -0.062  11.347 -0.1791  0.4744  0.1957
  696MOL0     C91750   0.512  -0.134  11.325 -0.1249  1.1991 -0.4480
  696MOL0     C91751   0.423  -0.079  11.208 -0.2451 -0.1160  0.2856
  696MOL0     C91752   0.281  -0.116  11.241 -0.2484 -0.1755 -0.0340
  696MOL0     C91753   0.176  -0.070  11.137 -0.0072 -0.3636  0.5235
  696MOL0     C91754   0.029  -0.101  11.179  0.3335 -0.1402 -0.5158
  696MOL0     C91755  -0.072  -0.082  11.061  0.1467 -0.0160  0.0383
  696MOL0     C91756  -0.211  -0.109  11.121  0.0118  0.1400 -0.1521
  696MOL0     N91757  -0.327  -0.081  11.032 -0.1732  0.6823 -0.5927
  696MOL0     C91758  -0.434   0.014  11.055  0.0093 -0.0815  0.5924
  696MOL0     C91759  -0.537  -0.034  10.978 -0.6329  0.0154 -0.4376
  696MOL0     C91760  -0.671   0.016  10.965 -0.2678  0.3702 -0.5081
  696MOL0     C91761  -0.652   0.086  10.833 -0.3880 -1.0410  0.3862
  696MOL0     C91762  -0.784   0.148  10.782 -1.5301  0.1855 -0.2349
  696MOL0     C91763  -0.764   0.228  10.651  0.0802  0.7216  0.5796
  696MOL0     O91764  -0.884   0.298  10.608 -0.2964 -0.0985 -0.3029
  696MOL0     C91765  -0.981   0.229  10.529 -0.2417  0.3730 -0.8024
  696MOL0     C91766  -1.094   0.307  10.497 -0.3019 -0.3881  0.3171
  696MOL0     C91767  -1.200   0.247  10.431  0.4181  0.3273  0.4504
  696MOL0     C91768  -1.205   0.106  10.407 -0.5861 -0.5589 -0.1915
  696MOL0     C91769  -1.315   0.042  10.342 -0.1783  0.2325 -0.1387
  696MOL0     O91770  -1.394   0.125  10.263 -0.3697  0.3426  1.0851
  696MOL0     C91771  -1.507   0.067  10.200  0.1838  0.1278  1.0479
  696MOL0     C91772  -1.495  -0.018  10.088  1.0919  0.2055 -0.1576
  696MOL0     C91773  -1.608  -0.059  10.015 -0.7900  0.6851 -0.2328
  696MOL0     C91774  -1.730  -0.004  10.043 -0.0186 -0.1018 -0.0981
  696MOL0     O91775  -1.826  -0.043   9.954  0.4352  0.1368 -0.5580
  696MOL0     C91776  -1.908   0.059   9.890 -0.3906  0.1487 -0.5990
  696MOL0     C91777  -2.026   0.108   9.972 -0.1752 -0.3899  0.0502
  696MOL0     C91778  -2.096   0.218   9.888  0.9022 -0.2268  0.1127
  696MOL0     C91779  -2.241   0.176   9.842  0.0244 -0.2031 -0.4869
  696MOL0     C91780  -2.307   0.293   9.774  0.2373  0.4762  0.4608
  696MOL0     C91781  -2.466   0.275   9.764  0.5037  1.4611 -0.4214
  696MOL0     C91782  -2.514   0.407   9.713  1.9459 -0.6533  0.1734
  696MOL0     C91783  -2.656   0.450   9.753  0.7650  0.3912  0.0567
  696MOL0    Cl91784  -2.772   0.309   9.740 -0.2096  0.4988  0.1128
  696MOL0     C91785  -1.740   0.078  10.151  0.1126  0.5792 -0.6538
  696MOL0     C91786  -1.630   0.107  10.231 -0.1035 -0.4764  0.3889
  696MOL0     O91787  -1.324  -0.076  10.353 -0.1935  0.4960  0.1642
  696MOL0     C91788  -1.087   0.035  10.439  0.0419 -0.2075 -1.2208
  696MOL0     C91789  -0.971   0.090  10.494  1.0946 -0.6641  0.0262
  696MOL0     N91790  -0.495  -0.143  10.906 -0.4185  1.3234 -0.0984
  696MOL0     N91791  -0.372  -0.175  10.940 -0.6023 -0.4719  0.3631
  696MOL0     C91792   0.708   0.269  11.483 -0.5448 -0.2209  0.9878
  696MOL0     C91793   0.811   0.369  11.478 -0.2803 -0.1226 -0.2260
  696MOL0     C91794   1.152   0.623  11.312  0.4381 -1.1001  0.1860
  696MOL0     C91795   1.172   0.760  11.264  0.4758  0.0145  0.5656
  696MOL0     C91796   1.285   0.832  11.303 -1.3275 -0.0919 -1.1091
  696MOL0     C91797   1.379   0.784  11.395 -0.9131  0.1752  0.2996
  696MOL0     O91798   1.480   0.856  11.451 -0.0155  0.1487  0.3889
  696MOL0     C91799   1.552   0.956  11.363  0.4343 -0.2175 -0.1609
  696MOL0     C91800   1.694   0.964  11.412 -0.1002  0.0586  0.1464
  696MOL0     C91801   1.788   0.849  11.364  0.0795  0.0313 -1.3125
  696MOL0     C91802   1.741   0.706  11.373 -0.1936  0.6974 -0.2016
  696MOL0     C91803   1.742   0.655  11.515  0.5575 -0.2842 -0.9344
  696MOL0     C91804   1.728   0.635  11.636 -0.1847 -0.8443  0.2635
  696MOL0     C91805   1.358   0.657  11.440 -1.2805  0.0337  0.6505
  696MOL0     C91806   1.251   0.579  11.403 -0.4162 -0.2380  0.4549
  696MOL0     H91807   0.980   0.276  11.218  1.1034  0.1629  1.2821
  696MOL0     H91808   0.809   0.077  11.221 -3.7073  0.4730 -2.1298
  696MOL0     H91809   0.715  -0.111  11.411 -0.4750  1.5324  1.3879
  696MOL0     H91810   0.685  -0.058  11.247  2.3567  3.0127  1.2784
  696MOL0     H91811   0.458  -0.130  11.420 -0.1400 -0.5358 -0.3449
  696MOL0     H91812   0.530  -0.241  11.308  0.4581  1.4799 -1.7041
  696MOL0     H91813   0.458  -0.122  11.113 -2.7689 -0.5102 -0.5463
  696MOL0     H91814   0.433   0.030  11.207  0.0651 -0.1359  1.1497
  696MOL0     H91815   0.270  -0.224  11.256 -1.3434  0.0808  1.2391
  696MOL0     H91816   0.244  -0.084  11.339 -2.4799 -0.2702 -0.7809
  696MOL0     H91817   0.203  -0.117  11.042 -2.4501  0.8356 -0.8654
  696MOL0     H91818   0.179   0.038  11.119 -1.7224  0.0952  2.5838
  696MOL0     H91819   0.003  -0.036  11.263  2.4035  2.1811 -1.5525
  696MOL0     H91820   0.017  -0.203  11.217  2.2596  0.1686  1.0963
  696MOL0     H91821  -0.075   0.015  11.010 -1.4784 -0.0843 -0.0597
  696MOL0     H91822  -0.050  -0.163  10.991 -2.5785  0.8867 -2.0482
  696MOL0     H91823  -0.233  -0.040  11.203 -2.4827 -0.3376 -0.3158
  696MOL0     H91824  -0.209  -0.210  11.163  0.1120 -0.0688 -0.6493
  696MOL0     H91825  -0.432   0.103  11.115  2.0470  1.8373 -2.0826
  696MOL0     H91826  -0.690   0.075  11.055  2.2501 -1.6966  1.5208
  696MOL0     H91827  -0.754  -0.055  10.962 -1.2593  1.3967  0.8981
  696MOL0     H91828  -0.616   0.021  10.752 -3.8368 -3.2654  0.4558
  696MOL0     H91829  -0.570   0.158  10.844  0.4184 -1.2651 -3.0933
  696MOL0     H91830  -0.851   0.066  10.753  1.4320 -1.8449 -1.7790
  696MOL0     H91831  -0.835   0.208  10.859 -3.1756  0.4609 -1.4850
  696MOL0     H91832  -0.726   0.159  10.575  0.2102 -0.6778  1.8561
  696MOL0     H91833  -0.699   0.315  10.658 -0.2147  1.3514 -2.7448
  696MOL0     H91834  -1.122   0.411  10.508 -2.0263 -0.3285 -3.2538
  696MOL0     H91835  -1.280   0.314  10.400  1.2147  0.1895 -2.1219
  696MOL0     H91836  -1.395  -0.052  10.062  1.8400  1.2859  1.1586
  696MOL0     H91837  -1.596  -0.119   9.926  0.1858 -0.8396  0.8731
  696MOL0     H91838  -1.945   0.014   9.797  1.0639 -1.4489 -0.4637
  696MOL0     H91839  -1.856   0.145   9.846  1.7450 -1.9303 -2.4742
  696MOL0     H91840  -2.000   0.153  10.069  0.9297 -0.9422  0.0237
  696MOL0     H91841  -2.102   0.030   9.985 -1.8698  1.1855  0.1368
  696MOL0     H91842  -2.043   0.237   9.794  1.8711  1.2458  0.9076
  696MOL0     H91843  -2.088   0.307   9.950  0.1604 -1.6655  2.3875
  696MOL0     H91844  -2.245   0.094   9.769  0.6920  1.2597 -2.2297
  696MOL0     H91845  -2.291   0.135   9.930 -2.1652  0.5451 -1.3205
  696MOL0     H91846  -2.264   0.307   9.674 -1.6105  2.2501 -0.1635
  696MOL0     H91847  -2.275   0.377   9.836  0.6612 -1.1737  2.5958
  696MOL0     H91848  -2.509   0.263   9.864  2.6609 -3.4940  0.2002
  696MOL0     H91849  -2.498   0.194   9.699 -0.4267  0.6794  0.9729
  696MOL0     H91850  -2.453   0.490   9.749  0.9427  0.6771 -1.0755
  696MOL0     H91851  -2.521   0.412   9.604  0.7090 -0.4321  0.2486
  696MOL0     H91852  -2.690   0.529   9.686 -0.2591 -0.8053 -0.8985
  696MOL0     H91853  -2.653   0.479   9.858  3.6312 -1.5199  0.6322
  696MOL0     H91854  -1.840   0.111  10.177 -0.7465 -2.1614 -0.2166
  696MOL0     H91855  -1.646   0.173  10.315  0.7006 -0.3385  0.4454
  696MOL0     H91856  -1.088  -0.072  10.424 -2.7780 -0.4982  0.3560
  696MOL0     H91857  -0.881   0.033  10.515  0.9897 -0.0535  2.5171
  696MOL0     H91858   0.636   0.273  11.565 -1.5709  0.7797  0.0719
  696MOL0     H91859   0.828   0.440  11.559  2.1769 -0.0303 -0.7336
  696MOL0     H91860   1.096   0.793  11.194  0.7642  0.5608  0.5067
  696MOL0     H91861   1.300   0.932  11.263 -0.4696 -0.0083 -0.5974
  696MOL0     H91862   1.513   1.058  11.375  0.0573 -0.4639  0.8586
  696MOL0     H91863   1.550   0.924  11.259  1.4803 -0.7453 -0.0295
  696MOL0     H91864   1.741   1.053  11.370 -0.1607 -0.5799 -1.3239
  696MOL0     H91865   1.695   0.978  11.521  0.0930  1.5088 -0.0137
  696MOL0     H91866   1.883   0.864  11.417 -0.6359 -2.2395  0.7615
  696MOL0     H91867   1.826   0.873  11.264 -0.9707 -0.1454 -1.7690
  696MOL0     H91868   1.646   0.695  11.320  0.5687 -0.0279 -1.4583
  696MOL0     H91869   1.812   0.641  11.323  0.2286  0.9142  0.1125
  696MOL0     H91870   1.709   0.619  11.740 -1.5173 -0.9676  0.0209
  696MOL0     H91871   1.424   0.610  11.513  1.2110  1.1948 -0.7060
  696MOL0     H91872   1.252   0.476  11.439 -0.3547 -0.7228 -0.8467
  697MOL0     O91873   2.119   3.935   1.073 -0.4864 -0.9233  0.1416
  697MOL0     C91874   2.166   3.904   0.965 -0.3314 -0.9236 -0.9847
  697MOL0     O91875   2.099   3.926   0.850 -0.3322 -0.3191  0.1179
  697MOL0     C91876   2.003   4.019   0.864 -0.2939  0.4888  0.1424
  697MOL0     C91877   1.872   3.984   0.889 -0.0034 -0.2557  0.5067
  697MOL0     C91878   1.779   4.081   0.906  0.3879  0.3563  0.0549
  697MOL0     C91879   1.814   4.215   0.905  0.6117  0.3068  0.2995
  697MOL0     O91880   1.711   4.298   0.938  0.0578 -0.1622  0.3183
  697MOL0     C91881   1.698   4.419   0.860 -0.9270 -0.3833  1.1513
  697MOL0     C91882   1.565   4.489   0.876 -0.4655  0.1424  0.1141
  697MOL0     C91883   1.449   4.406   0.824  0.2928 -0.0247 -0.0735
  697MOL0     C91884   1.469   4.338   0.685  0.5708  0.3803 -0.6615
  697MOL0     C91885   1.489   4.447   0.575 -0.2657 -0.0728 -0.2291
  697MOL0     C91886   1.522   4.367   0.449 -0.1824  1.4391  0.3092
  697MOL0     C91887   1.486   4.441   0.325 -0.1279 -0.5966 -1.1987
  697MOL0     C91888   1.498   4.360   0.199  0.6405  0.9957 -0.1239
  697MOL0     N91889   1.481   4.438   0.072  0.5938  0.4150  0.1974
  697MOL0     C91890   1.549   4.549   0.029  0.0645 -0.1379  0.1584
  697MOL0     C91891   1.465   4.607  -0.066  0.4658 -0.9100  0.3227
  697MOL0     C91892   1.493   4.724  -0.169 -0.5610 -1.0358 -0.9032
  697MOL0     C91893   1.380   4.836  -0.160 -0.5767  0.2696 -0.7605
  697MOL0     C91894   1.383   4.950  -0.269  1.0653  1.3819 -0.6757
  697MOL0     C91895   1.261   5.043  -0.244 -0.8610  0.5664 -0.2099
  697MOL0     O91896   1.135   4.970  -0.278 -0.1447  0.0105 -0.1929
  697MOL0     C91897   1.017   5.031  -0.230  0.0562 -0.6061  0.1127
  697MOL0     C91898   0.909   4.951  -0.224 -0.2734  0.3642 -0.0996
  697MOL0     C91899   0.787   4.996  -0.186 -0.8062  0.3936 -0.2262
  697MOL0     C91900   0.763   5.133  -0.149 -0.4552  0.3642 -0.7669
  697MOL0     C91901   0.623   5.178  -0.117 -0.9140  0.3918 -0.8962
  697MOL0     O91902   0.535   5.097  -0.174 -0.8685 -0.4768  0.6749
  697MOL0     C91903   0.409   5.108  -0.130 -0.3383  0.7334  0.0011
  697MOL0     C91904   0.371   5.019  -0.023  0.2636 -0.7024 -0.8703
  697MOL0     C91905   0.252   5.052   0.045  0.5639  0.2335 -1.1238
  697MOL0     C91906   0.158   5.147   0.001  0.1958 -0.2197 -0.1771
  697MOL0     O91907   0.044   5.164   0.075  0.1452  0.3733 -0.5051
  697MOL0     C91908  -0.079   5.203   0.016  0.5460 -0.3341  0.4731
  697MOL0     C91909  -0.149   5.089  -0.053  0.0899 -0.2758 -1.0356
  697MOL0     C91910  -0.293   5.119  -0.105  0.7533  0.1515 -0.2882
  697MOL0     C91911  -0.385   5.159   0.020  1.0316  0.5635 -0.2999
  697MOL0     C91912  -0.527   5.122  -0.014 -0.2831 -0.1726 -0.1349
  697MOL0     C91913  -0.622   5.142   0.105  0.3055 -0.4143 -1.1918
  697MOL0     C91914  -0.762   5.158   0.068  0.2494 -0.3849 -1.3698
  697MOL0     C91915  -0.816   5.051  -0.029 -0.5434 -0.8481 -0.0300
  697MOL0    Cl91916  -0.941   5.102  -0.144  0.1648 -0.3103  0.2984
  697MOL0     C91917   0.192   5.204  -0.120  0.0611 -0.0112 -0.3206
  697MOL0     C91918   0.320   5.191  -0.180  0.0178 -0.5747 -0.0287
  697MOL0     O91919   0.607   5.269  -0.043 -0.2050 -0.1146 -0.4903
  697MOL0     C91920   0.882   5.211  -0.138  0.8518  0.4373  0.1439
  697MOL0     C91921   1.008   5.161  -0.182 -0.3248  0.2490 -0.2315
  697MOL0     N91922   1.356   4.531  -0.090 -0.0557 -0.0276 -0.8920
  697MOL0     N91923   1.366   4.427  -0.010 -0.2931 -0.1578 -0.5178
  697MOL0     C91924   1.946   4.250   0.868 -0.0397 -1.0981  0.3598
  697MOL0     C91925   2.044   4.157   0.855  0.4939  0.7271 -0.1520
  697MOL0     C91926   2.295   3.837   0.965 -0.1437 -0.8139 -0.2827
  697MOL0     C91927   2.324   3.754   0.863  0.3849  0.1095  0.6619
  697MOL0     C91928   2.442   3.688   0.858  0.0266  1.8911  0.4693
  697MOL0     C91929   2.528   3.697   0.967  0.1819 -0.3761  0.1031
  697MOL0     O91930   2.634   3.631   0.954 -0.3861  0.0686  0.0085
  697MOL0     C91931   2.712   3.585   1.068  0.3613 -0.5464  0.7128
  697MOL0     C91932   2.832   3.522   1.002 -0.2154  0.7762  0.5956
  697MOL0     C91933   2.942   3.507   1.102 -0.5485  0.4320 -0.7710
  697MOL0     C91934   3.001   3.652   1.137  0.1559  0.8965 -0.6388
  697MOL0     C91935   3.134   3.633   1.191  0.6633  1.3103  0.3726
  697MOL0     C91936   3.249   3.647   1.232  0.5082  0.8942 -0.2845
  697MOL0     C91937   2.493   3.784   1.068  0.1499 -0.2926 -0.3469
  697MOL0     C91938   2.380   3.863   1.067  0.1376 -0.2297 -0.0531
  697MOL0     H91939   1.854   3.878   0.900 -0.8040  0.1705  5.0062
  697MOL0     H91940   1.675   4.054   0.923  0.1152 -2.0269 -4.0376
  697MOL0     H91941   1.703   4.398   0.753 -2.7733  0.2162  0.9154
  697MOL0     H91942   1.779   4.485   0.895 -0.2943  0.1645 -1.2144
  697MOL0     H91943   1.572   4.590   0.834  1.6892  0.0531  0.1884
  697MOL0     H91944   1.544   4.499   0.983 -0.0036  0.5858  0.1659
  697MOL0     H91945   1.352   4.456   0.825 -1.4271 -3.0116 -2.1304
  697MOL0     H91946   1.429   4.324   0.894 -0.7280 -0.2194 -0.5685
  697MOL0     H91947   1.553   4.267   0.687  0.0029 -0.3977 -2.7172
  697MOL0     H91948   1.379   4.280   0.667  0.0457  0.7256  0.7274
  697MOL0     H91949   1.569   4.520   0.591 -0.1497  0.1384 -1.6257
  697MOL0     H91950   1.392   4.496   0.568 -0.8521 -1.0563  0.6887
  697MOL0     H91951   1.460   4.277   0.448 -0.9884  1.9433 -2.2152
  697MOL0     H91952   1.627   4.339   0.449 -0.6724 -0.5520 -0.4822
  697MOL0     H91953   1.379   4.459   0.332 -0.8321 -3.6239 -2.2875
  697MOL0     H91954   1.541   4.535   0.318  1.2687 -1.2165  0.4340
  697MOL0     H91955   1.426   4.280   0.180 -0.4031  1.5395  1.3403
  697MOL0     H91956   1.593   4.306   0.196  0.3038  0.4212 -1.7777
  697MOL0     H91957   1.655   4.568   0.042 -0.0412  3.2234 -2.5445
  697MOL0     H91958   1.498   4.676  -0.267  3.2645 -2.2552 -0.2845
  697MOL0     H91959   1.588   4.776  -0.152 -0.9541 -0.1574 -1.3366
  697MOL0     H91960   1.392   4.879  -0.060  2.7413 -0.3137 -0.8097
  697MOL0     H91961   1.283   4.786  -0.167  0.4057 -1.5560 -2.1059
  697MOL0     H91962   1.484   4.991  -0.271  2.3159 -1.3091  1.5170
  697MOL0     H91963   1.367   4.897  -0.363  0.1219 -3.7685  2.0122
  697MOL0     H91964   1.290   5.125  -0.310  4.4781  0.2695  1.3053
  697MOL0     H91965   1.260   5.067  -0.137 -2.8992 -2.4407  0.5550
  697MOL0     H91966   0.912   4.848  -0.259  0.3660  0.3631 -0.0411
  697MOL0     H91967   0.703   4.926  -0.189 -1.4547  0.8898  2.8858
  697MOL0     H91968   0.426   4.933   0.014 -2.8538 -3.1596 -1.3899
  697MOL0     H91969   0.223   4.984   0.125  2.3536 -0.1003 -0.7164
  697MOL0     H91970  -0.071   5.284  -0.057  1.7130 -2.9602 -2.5186
  697MOL0     H91971  -0.143   5.225   0.102  1.1909 -1.3327  1.2385
  697MOL0     H91972  -0.159   5.005   0.016 -0.9155  0.7469  0.1174
  697MOL0     H91973  -0.093   5.059  -0.142  2.6981 -2.5128  1.1790
  697MOL0     H91974  -0.337   5.030  -0.150  0.7865 -0.4255  0.7822
  697MOL0     H91975  -0.289   5.203  -0.174  1.3018 -0.9040 -1.5821
  697MOL0     H91976  -0.353   5.111   0.113  1.5747  0.9280 -0.2927
  697MOL0     H91977  -0.384   5.269   0.026  1.8844  0.6301 -1.2673
  697MOL0     H91978  -0.530   5.024  -0.061  3.9907  0.2097 -1.6505
  697MOL0     H91979  -0.549   5.184  -0.101  0.8111 -0.7801 -0.8722
  697MOL0     H91980  -0.598   5.241   0.147 -0.0876 -0.8539  0.1264
  697MOL0     H91981  -0.621   5.062   0.180 -1.6521  1.1675  0.6912
  697MOL0     H91982  -0.823   5.164   0.158  0.9325  1.1224 -0.9761
  697MOL0     H91983  -0.753   5.253   0.015  1.4554  0.0104 -0.4859
  697MOL0     H91984  -0.858   4.977   0.039 -0.3415  2.9535  4.7835
  697MOL0     H91985  -0.731   5.006  -0.080 -0.1133 -0.4748  0.3415
  697MOL0     H91986   0.120   5.277  -0.155  1.5643  1.3586 -0.6751
  697MOL0     H91987   0.342   5.241  -0.274 -1.2193 -0.9906 -0.5572
  697MOL0     H91988   0.877   5.315  -0.111 -1.8749  0.1156  1.2144
  697MOL0     H91989   1.103   5.214  -0.177  1.5535 -2.7473 -1.1528
  697MOL0     H91990   1.970   4.354   0.853  2.0683 -1.4237  1.1457
  697MOL0     H91991   2.152   4.166   0.845  0.4283  0.1328 -1.8752
  697MOL0     H91992   2.249   3.722   0.791 -1.4104  0.1378  2.4212
  697MOL0     H91993   2.461   3.613   0.782  0.1013  0.3302  1.9710
  697MOL0     H91994   2.664   3.497   1.113 -1.7765 -0.5389 -1.3561
  697MOL0     H91995   2.723   3.663   1.143  0.2197 -1.5470  1.8045
  697MOL0     H91996   2.800   3.428   0.956 -1.7868  3.0047 -3.4900
  697MOL0     H91997   2.860   3.588   0.919 -1.8574 -2.5931 -3.0059
  697MOL0     H91998   3.015   3.436   1.063  0.7716  2.1167 -1.4847
  697MOL0     H91999   2.904   3.458   1.192 -0.2119 -1.3459 -1.5570
  697MOL0     H92000   3.033   3.707   1.048  1.2393 -1.7952 -2.0331
  697MOL0     H92001   2.940   3.703   1.211  0.0628 -0.5672  0.3397
  697MOL0     H92002   3.351   3.650   1.264  1.3971 -0.0265 -2.7416
  697MOL0     H92003   2.555   3.791   1.156 -0.5896 -2.1088  0.3707
  697MOL0     H92004   2.366   3.923   1.156  1.3279 -1.7673  1.2389
  698MOL0     O92005   7.647   8.720   3.936 -0.2399 -0.3286  0.0570
  698MOL0     C92006   7.715   8.757   4.024 -0.2601 -0.0681 -0.5082
  698MOL0     O92007   7.686   8.732   4.159 -0.2655 -0.1469 -0.7220
  698MOL0     C92008   7.568   8.665   4.180  0.3026 -0.0862  0.7500
  698MOL0     C92009   7.552   8.539   4.129  0.3417 -0.9108  1.0186
  698MOL0     C92010   7.432   8.462   4.149 -0.1386  0.7214  0.1351
  698MOL0     C92011   7.335   8.517   4.238  0.3495 -0.9181 -0.1328
  698MOL0     O92012   7.221   8.448   4.265 -0.1275  1.1818 -0.4062
  698MOL0     C92013   7.103   8.514   4.308  0.3858 -0.3125 -0.2069
  698MOL0     C92014   7.026   8.413   4.394 -0.3929 -0.1712  0.2030
  698MOL0     C92015   6.887   8.476   4.412 -0.1503  0.7402 -0.0195
  698MOL0     C92016   6.789   8.376   4.468  0.1550 -0.3090 -0.2994
  698MOL0     C92017   6.654   8.421   4.431 -0.1664  0.1098 -0.2472
  698MOL0     C92018   6.550   8.320   4.440  0.5820  0.2720 -0.5521
  698MOL0     C92019   6.403   8.365   4.467  0.0062  0.2704 -0.4871
  698MOL0     C92020   6.331   8.398   4.345  0.4308  0.7165 -0.1748
  698MOL0     N92021   6.386   8.487   4.241 -0.1629  0.2718 -0.7805
  698MOL0     C92022   6.387   8.629   4.248 -0.2091  0.4176  0.5613
  698MOL0     C92023   6.468   8.665   4.147  0.0613 -0.6002 -0.9689
  698MOL0     C92024   6.505   8.809   4.107  0.0037  0.3926  0.2789
  698MOL0     C92025   6.628   8.883   4.172 -0.6437 -0.0040  0.0309
  698MOL0     C92026   6.745   8.782   4.169  0.5192  0.1895  0.8238
  698MOL0     C92027   6.882   8.853   4.185  0.4398 -0.0300 -0.3264
  698MOL0     O92028   6.987   8.786   4.117 -0.4057 -0.2378  0.0168
  698MOL0     C92029   7.104   8.853   4.113  0.5401 -0.0292  0.7740
  698MOL0     C92030   7.206   8.797   4.034 -0.0932  0.8187  0.5540
  698MOL0     C92031   7.328   8.860   4.025  0.4682 -0.3005  0.6844
  698MOL0     C92032   7.363   8.976   4.101  0.3753 -0.8647  0.0060
  698MOL0     C92033   7.500   9.035   4.079 -0.5217 -0.0532 -1.2071
  698MOL0     O92034   7.552   9.087   4.195  0.4069 -0.3725  0.7110
  698MOL0     C92035   7.673   9.157   4.184 -0.2541 -0.1348 -0.1397
  698MOL0     C92036   7.679   9.255   4.083 -0.7772 -1.2127  0.1246
  698MOL0     C92037   7.795   9.338   4.069 -0.4127  0.4073  0.4560
  698MOL0     C92038   7.903   9.309   4.150  0.1375 -0.1218  0.4237
  698MOL0     O92039   8.022   9.371   4.158  0.1666  0.5983  0.2455
  698MOL0     C92040   8.045   9.493   4.094  0.1229 -1.1923  0.4008
  698MOL0     C92041   7.987   9.617   4.177 -1.4499 -0.0169  0.3565
  698MOL0     C92042   8.040   9.753   4.125  0.0423  0.9151 -0.8658
  698MOL0     C92043   7.957   9.871   4.172  0.4785 -0.2448  0.4432
  698MOL0     C92044   7.976   9.975   4.063  0.4964  0.1266  0.1729
  698MOL0     C92045   7.963  10.118   4.124  0.4848  0.0582  0.1049
  698MOL0     C92046   7.826  10.154   4.172  0.7606  0.4992 -0.2309
  698MOL0     C92047   7.823  10.174   4.327 -0.0855 -0.3612 -0.3589
  698MOL0    Cl92048   7.662  10.216   4.394 -0.0425  0.2394 -0.1359
  698MOL0     C92049   7.891   9.224   4.260 -0.6407  0.4333 -0.1351
  698MOL0     C92050   7.785   9.132   4.266  0.2563 -0.0992 -0.1392
  698MOL0     O92051   7.542   9.043   3.964  0.0420  0.3209  0.7164
  698MOL0     C92052   7.263   9.031   4.185 -0.3714  0.5281 -0.8423
  698MOL0     C92053   7.138   8.968   4.193 -0.2585  0.5127  0.3615
  698MOL0     N92054   6.518   8.556   4.082 -0.4328 -0.5426  0.6261
  698MOL0     N92055   6.484   8.457   4.148  0.6439 -0.0890  0.8192
  698MOL0     C92056   7.359   8.647   4.291  0.1789 -0.5890  0.1472
  698MOL0     C92057   7.470   8.723   4.266 -0.9917 -0.3225 -0.4460
  698MOL0     C92058   7.847   8.820   3.993 -0.2356  0.2070 -0.3444
  698MOL0     C92059   7.960   8.804   4.081  0.7745 -1.6252  0.1825
  698MOL0     C92060   8.071   8.870   4.057  0.6851 -0.7570  0.1384
  698MOL0     C92061   8.089   8.958   3.946 -0.1120  0.0256 -0.0519
  698MOL0     O92062   8.198   9.033   3.926  0.4270 -0.0258  0.7081
  698MOL0     C92063   8.323   8.961   3.931  0.5973 -0.7849  0.3950
  698MOL0     C92064   8.430   9.047   3.869  0.6024 -0.4271  0.3326
  698MOL0     C92065   8.385   9.092   3.725 -1.4416 -0.2034 -0.3188
  698MOL0     C92066   8.325   8.978   3.633  0.0947 -0.3802  0.8077
  698MOL0     C92067   8.319   9.033   3.493  0.3674 -0.2171  0.1355
  698MOL0     C92068   8.318   9.084   3.382  0.3935  0.8931  0.6861
  698MOL0     C92069   7.978   8.970   3.862  0.0649 -0.0919  0.4621
  698MOL0     C92070   7.854   8.915   3.889 -1.2090  0.0386 -0.3206
  698MOL0     H92071   7.638   8.494   4.080  0.4811  0.6627 -0.2736
  698MOL0     H92072   7.406   8.382   4.080 -1.1526  0.6530  0.5858
  698MOL0     H92073   7.033   8.555   4.235 -1.0578 -0.4417  1.0502
  698MOL0     H92074   7.126   8.590   4.383 -0.5172 -0.4063  0.1765
  698MOL0     H92075   7.076   8.422   4.491 -0.5033 -2.1556  0.4676
  698MOL0     H92076   7.028   8.311   4.356  0.2954 -1.0231  2.4331
  698MOL0     H92077   6.846   8.497   4.313 -2.8533 -1.0892  0.5977
  698MOL0     H92078   6.893   8.561   4.481 -0.6656 -0.4994  1.6294
  698MOL0     H92079   6.810   8.277   4.427 -0.6583  0.2836 -2.2472
  698MOL0     H92080   6.805   8.363   4.575 -1.4351 -3.7086 -0.3360
  698MOL0     H92081   6.646   8.458   4.328 -0.3522 -1.6917 -0.9190
  698MOL0     H92082   6.624   8.505   4.495 -1.3949  0.0375 -0.7032
  698MOL0     H92083   6.571   8.258   4.528 -3.4795 -1.4184 -0.5168
  698MOL0     H92084   6.558   8.253   4.354 -3.2990 -0.2160 -0.7315
  698MOL0     H92085   6.345   8.284   4.514  1.8604 -0.7818  0.0786
  698MOL0     H92086   6.394   8.446   4.540  0.7853 -0.1295  0.0707
  698MOL0     H92087   6.233   8.440   4.371 -0.9170 -0.6264 -2.6877
  698MOL0     H92088   6.297   8.310   4.290  0.3262  0.8302 -0.2947
  698MOL0     H92089   6.328   8.675   4.327 -2.1563 -1.0407  0.0458
  698MOL0     H92090   6.421   8.871   4.141 -0.0810  2.4093 -3.1603
  698MOL0     H92091   6.510   8.806   3.998 -3.7695  3.0241 -0.1924
  698MOL0     H92092   6.600   8.916   4.272  2.0147  2.0512  0.1672
  698MOL0     H92093   6.650   8.978   4.124 -0.5311  0.5007  1.0582
  698MOL0     H92094   6.729   8.715   4.254 -0.6963 -0.2827  0.2470
  698MOL0     H92095   6.753   8.720   4.079  0.4779  2.0720 -0.5432
  698MOL0     H92096   6.908   8.848   4.291  0.7714 -0.5442 -0.4262
  698MOL0     H92097   6.861   8.959   4.167 -0.7042 -0.6541 -3.2472
  698MOL0     H92098   7.181   8.706   3.981 -0.4662  1.0934  0.2480
  698MOL0     H92099   7.411   8.827   3.963  1.9851 -0.6684  2.8027
  698MOL0     H92100   7.602   9.277   4.010  0.7242  0.9962 -0.8986
  698MOL0     H92101   7.792   9.401   3.981  1.5649 -2.2342 -1.6898
  698MOL0     H92102   7.995   9.504   3.997 -0.4545 -1.7154  0.6318
  698MOL0     H92103   8.152   9.508   4.078 -0.6413  3.0207 -2.3959
  698MOL0     H92104   8.009   9.609   4.283  2.9025  2.5500 -0.1287
  698MOL0     H92105   7.877   9.616   4.171 -1.4366 -1.7056 -0.2017
  698MOL0     H92106   8.036   9.749   4.016  0.7074 -1.3188 -0.8532
  698MOL0     H92107   8.140   9.762   4.167 -0.2939  0.6400  0.0175
  698MOL0     H92108   7.852   9.840   4.186  0.9557 -2.6126 -0.7095
  698MOL0     H92109   7.992   9.906   4.270 -1.1873  3.3999 -0.0969
  698MOL0     H92110   7.900   9.965   3.985  3.1605  0.6324 -2.6762
  698MOL0     H92111   8.076   9.976   4.020  0.4915  3.0818 -0.0007
  698MOL0     H92112   8.006  10.203   4.070  2.1933 -0.6766  0.2663
  698MOL0     H92113   8.025  10.111   4.213  0.3855  0.7545  0.2396
  698MOL0     H92114   7.792  10.247   4.126 -0.3045 -0.3748 -1.2647
  698MOL0     H92115   7.756  10.073   4.149 -0.6183  0.9371  2.0256
  698MOL0     H92116   7.895  10.249   4.361 -0.0138 -0.9024  0.7313
  698MOL0     H92117   7.840  10.078   4.376 -1.9592 -0.1945  0.7009
  698MOL0     H92118   7.976   9.203   4.324  0.6387 -0.4197 -2.0107
  698MOL0     H92119   7.783   9.048   4.335  2.1714 -2.1613 -2.4214
  698MOL0     H92120   7.275   9.122   4.242 -0.4689  0.3051 -0.4577
  698MOL0     H92121   7.063   9.003   4.264 -1.2700 -0.9034  0.0469
  698MOL0     H92122   7.281   8.692   4.351  1.9016  0.2105  1.9042
  698MOL0     H92123   7.471   8.825   4.302  1.8299  0.7873 -3.2406
  698MOL0     H92124   7.962   8.742   4.170 -0.9543 -2.6028 -0.4060
  698MOL0     H92125   8.155   8.866   4.126 -0.8906 -1.7808  2.1135
  698MOL0     H92126   8.317   8.864   3.880 -3.0117 -0.3925 -0.2079
  698MOL0     H92127   8.346   8.936   4.035  0.8336 -1.6650  0.1418
  698MOL0     H92128   8.465   9.122   3.939 -1.1685  0.6750  0.1084
  698MOL0     H92129   8.522   8.992   3.849 -0.2617 -2.2128  0.9670
  698MOL0     H92130   8.471   9.129   3.669 -0.3846 -2.3108 -0.1876
  698MOL0     H92131   8.301   9.163   3.729 -1.7257 -0.5763  0.5732
  698MOL0     H92132   8.380   8.884   3.619  0.8039  0.3108 -1.4911
  698MOL0     H92133   8.226   8.940   3.662 -1.1066  0.1047 -2.2855
  698MOL0     H92134   8.316   9.129   3.285 -4.0813 -0.7129 -0.1812
  698MOL0     H92135   7.993   9.035   3.776  5.0079  0.0299  1.1400
  698MOL0     H92136   7.766   8.916   3.827 -1.9513  1.3831  0.7080
  699MOL0     O92137   1.643   8.707   1.562 -0.1626 -0.2728 -0.6562
  699MOL0     C92138   1.594   8.815   1.608 -0.3948  0.5181  0.3548
  699MOL0     O92139   1.671   8.914   1.654  0.7136 -1.3583  0.0897
  699MOL0     C92140   1.805   8.902   1.656 -0.1599  0.3263 -0.2331
  699MOL0     C92141   1.893   8.803   1.713 -0.2715  0.2819  0.8007
  699MOL0     C92142   2.032   8.800   1.677  0.4496 -0.0576 -0.7488
  699MOL0     C92143   2.082   8.906   1.603 -0.6373  0.6096 -0.0591
  699MOL0     O92144   2.214   8.935   1.580  0.0406 -0.2103 -0.3031
  699MOL0     C92145   2.323   8.853   1.631  0.4302 -0.0954  0.5069
  699MOL0     C92146   2.454   8.928   1.597 -0.3101 -0.1196 -0.0807
  699MOL0     C92147   2.496   8.944   1.455  0.0922 -0.0743  0.1055
  699MOL0     C92148   2.640   8.978   1.456  0.0269  0.1234 -0.1201
  699MOL0     C92149   2.689   9.058   1.320  0.3078  0.2320 -0.9377
  699MOL0     C92150   2.843   9.057   1.325 -0.7503 -0.6224  0.7777
  699MOL0     C92151   2.917   9.192   1.348 -0.5863  0.0384 -0.2365
  699MOL0     C92152   3.062   9.209   1.304  0.1599  0.0299  0.6798
  699MOL0     N92153   3.114   9.349   1.322 -0.2680  1.0106  0.5900
  699MOL0     C92154   3.235   9.367   1.378  0.7193 -0.1891 -0.8693
  699MOL0     C92155   3.241   9.494   1.421  0.6296  0.1028 -1.0888
  699MOL0     C92156   3.353   9.556   1.506 -0.4980  0.3839 -0.9509
  699MOL0     C92157   3.500   9.536   1.456 -0.0514 -0.4993  0.5667
  699MOL0     C92158   3.588   9.514   1.578  1.0750  0.1504 -0.6409
  699MOL0     C92159   3.737   9.518   1.556  1.2744 -0.8450  0.5286
  699MOL0     O92160   3.771   9.643   1.493 -1.4105  0.1262 -0.3114
  699MOL0     C92161   3.906   9.664   1.458  1.0011 -0.2879  0.3462
  699MOL0     C92162   4.003   9.705   1.549  0.3603 -0.1357  0.8815
  699MOL0     C92163   4.134   9.737   1.510  0.2755  0.0964  0.5790
  699MOL0     C92164   4.178   9.713   1.379 -0.5418  0.5031  0.2580
  699MOL0     C92165   4.320   9.720   1.339  0.0667 -0.1494 -0.6160
  699MOL0     O92166   4.405   9.688   1.439  0.0669  0.2511  0.3533
  699MOL0     C92167   4.535   9.674   1.425  0.3672  0.3471  0.6844
  699MOL0     C92168   4.600   9.764   1.506 -0.6033  0.0152  0.3851
  699MOL0     C92169   4.741   9.764   1.495 -0.0031 -0.6251 -0.0479
  699MOL0     C92170   4.811   9.681   1.403  0.0859  0.3311 -0.8400
  699MOL0     O92171   4.951   9.692   1.377 -0.8592  0.0560 -0.0375
  699MOL0     C92172   5.022   9.569   1.393 -0.4815  0.5101 -0.1863
  699MOL0     C92173   5.166   9.581   1.446  0.3076  0.1801  0.4558
  699MOL0     C92174   5.250   9.632   1.328  0.8069  0.4027  0.0157
  699MOL0     C92175   5.397   9.624   1.364  0.4356 -1.5090 -0.2941
  699MOL0     C92176   5.487   9.659   1.244  0.7260 -0.2203 -0.0132
  699MOL0     C92177   5.635   9.638   1.277 -0.3269  0.2097 -1.1660
  699MOL0     C92178   5.724   9.645   1.160 -0.9197  0.3541 -0.2655
  699MOL0     C92179   5.762   9.791   1.129 -0.1734  0.2805  0.1202
  699MOL0    Cl92180   5.888   9.800   1.004  0.0774 -0.2851 -0.1002
  699MOL0     C92181   4.736   9.593   1.319 -0.1818  0.9192  0.6790
  699MOL0     C92182   4.602   9.591   1.335 -0.5829 -0.4678  0.6081
  699MOL0     O92183   4.358   9.745   1.229 -0.1141 -0.2320  0.0462
  699MOL0     C92184   4.079   9.663   1.289 -0.0924  0.4355 -0.4881
  699MOL0     C92185   3.946   9.638   1.322  0.2125 -0.3261  0.4585
  699MOL0     N92186   3.134   9.562   1.383 -0.2028 -0.5069  0.2660
  699MOL0     N92187   3.055   9.474   1.322  0.3626 -0.6173  0.2405
  699MOL0     C92188   1.997   8.997   1.565  0.6095 -0.1465  0.4724
  699MOL0     C92189   1.857   9.003   1.580  0.0147 -0.5561  0.5886
  699MOL0     C92190   1.445   8.827   1.613  0.4208  0.3825 -0.1556
  699MOL0     C92191   1.364   8.736   1.549  0.0406  0.0459 -0.0735
  699MOL0     C92192   1.227   8.750   1.549 -0.5310  0.0105  0.1266
  699MOL0     C92193   1.165   8.851   1.628 -0.2332  0.2179 -0.2892
  699MOL0     O92194   1.026   8.850   1.631 -0.2330  0.0012  0.6299
  699MOL0     C92195   0.966   8.729   1.674  0.7292 -0.2000  0.0762
  699MOL0     C92196   0.840   8.777   1.770  0.7561 -0.3732  1.0054
  699MOL0     C92197   0.716   8.808   1.677 -0.5568  0.0906 -0.0223
  699MOL0     C92198   0.598   8.865   1.764  0.0259 -0.2593 -0.3066
  699MOL0     C92199   0.462   8.818   1.709  0.2702 -0.3472  0.6001
  699MOL0     C92200   0.352   8.773   1.675  0.9930  0.3876 -0.6184
  699MOL0     C92201   1.246   8.938   1.700  0.5151  0.9905 -0.2246
  699MOL0     C92202   1.387   8.931   1.687 -0.4725  0.1308  1.0151
  699MOL0     H92203   1.863   8.733   1.790  2.0952 -0.5483  1.0494
  699MOL0     H92204   2.087   8.714   1.713 -3.2016 -1.7320  1.5029
  699MOL0     H92205   2.324   8.754   1.585 -1.1107  1.1641 -2.4734
  699MOL0     H92206   2.299   8.849   1.738 -4.5445  2.3055 -0.2495
  699MOL0     H92207   2.531   8.877   1.657  1.2308  1.8097 -0.3073
  699MOL0     H92208   2.461   9.030   1.636  0.8754  0.3653 -1.4604
  699MOL0     H92209   2.442   9.025   1.405 -1.2268 -1.3985 -0.6853
  699MOL0     H92210   2.464   8.856   1.399  0.7291 -0.6625  0.6544
  699MOL0     H92211   2.661   9.044   1.541  2.7112  0.2043 -0.7540
  699MOL0     H92212   2.701   8.889   1.472  0.1512  0.3162  0.5011
  699MOL0     H92213   2.646   9.156   1.297 -1.8768 -1.1420 -3.1643
  699MOL0     H92214   2.655   8.982   1.249 -1.3943  2.0212 -2.1294
  699MOL0     H92215   2.871   9.026   1.223  1.2160  1.5199  0.6011
  699MOL0     H92216   2.885   8.977   1.386 -0.0936 -1.7108 -0.9941
  699MOL0     H92217   2.856   9.272   1.305 -0.6834  0.0761 -0.0284
  699MOL0     H92218   2.921   9.214   1.456  0.3257 -0.1174 -0.2280
  699MOL0     H92219   3.053   9.188   1.197 -0.5725 -4.5333  1.4365
  699MOL0     H92220   3.133   9.132   1.337  0.3324 -2.0564 -3.9012
  699MOL0     H92221   3.309   9.290   1.398  0.7342 -0.1080 -0.6044
  699MOL0     H92222   3.336   9.498   1.597  2.2686  0.5667 -0.2257
  699MOL0     H92223   3.345   9.665   1.510 -0.9091  0.4023 -2.0432
  699MOL0     H92224   3.536   9.628   1.410  1.4289 -0.0518  2.5053
  699MOL0     H92225   3.501   9.446   1.393 -0.9294 -2.6484  3.3874
  699MOL0     H92226   3.570   9.593   1.651 -2.1814 -0.2119 -0.9322
  699MOL0     H92227   3.559   9.427   1.637 -0.7752  3.4696  3.9675
  699MOL0     H92228   3.766   9.436   1.491  3.9628  0.4824 -0.0849
  699MOL0     H92229   3.794   9.505   1.648 -0.2572  1.3161  1.9015
  699MOL0     H92230   3.973   9.711   1.653  2.9596  0.9461  1.6332
  699MOL0     H92231   4.202   9.782   1.582 -0.0735  0.0063  0.9623
  699MOL0     H92232   4.541   9.821   1.576  0.3735  2.1319 -0.4454
  699MOL0     H92233   4.801   9.809   1.574  5.3515 -0.3217 -3.7681
  699MOL0     H92234   5.013   9.522   1.295 -4.0631 -0.3067  0.3895
  699MOL0     H92235   4.975   9.497   1.460  1.1992 -1.5564 -1.1072
  699MOL0     H92236   5.198   9.491   1.498  1.5083  0.7322  0.7124
  699MOL0     H92237   5.179   9.664   1.517  1.6047  0.9800 -0.6592
  699MOL0     H92238   5.234   9.737   1.301  2.8903  0.8752  0.5080
  699MOL0     H92239   5.226   9.573   1.238  3.4936  0.5558 -0.8727
  699MOL0     H92240   5.432   9.697   1.437 -0.0098 -0.6806 -0.8881
  699MOL0     H92241   5.416   9.521   1.397  1.8096 -1.2834 -0.3347
  699MOL0     H92242   5.476   9.762   1.209  0.1076  0.4622  2.0426
  699MOL0     H92243   5.462   9.594   1.159 -0.5705  1.0024 -0.6151
  699MOL0     H92244   5.652   9.543   1.328  0.6500  1.4905  1.0370
  699MOL0     H92245   5.654   9.714   1.353 -4.0966  0.7083 -0.5462
  699MOL0     H92246   5.818   9.592   1.174  0.1696  1.6087 -2.4751
  699MOL0     H92247   5.674   9.609   1.069  3.3360 -0.4423 -2.5182
  699MOL0     H92248   5.801   9.846   1.215  1.6227  1.9763 -1.6741
  699MOL0     H92249   5.676   9.838   1.081 -0.8807 -0.2882  0.8152
  699MOL0     H92250   4.780   9.528   1.245  2.0129  1.9912  0.9346
  699MOL0     H92251   4.540   9.530   1.270 -0.6850 -1.2471  1.4254
  699MOL0     H92252   4.102   9.648   1.184 -3.2760 -0.8080 -1.1150
  699MOL0     H92253   3.875   9.607   1.246 -0.6537  0.0570  1.0945
  699MOL0     H92254   2.045   9.067   1.497 -2.7499  1.9693 -0.0060
  699MOL0     H92255   1.805   9.088   1.537  3.3129  1.7838  0.9172
  699MOL0     H92256   1.400   8.653   1.489 -3.2911 -0.9273 -0.9195
  699MOL0     H92257   1.182   8.681   1.479  0.0751  1.0237 -1.3015
  699MOL0     H92258   1.037   8.686   1.745  1.7720 -2.0709 -1.9786
  699MOL0     H92259   0.943   8.642   1.611  1.0059 -1.3196  1.4441
  699MOL0     H92260   0.817   8.696   1.839 -1.9810 -0.0608  0.5776
  699MOL0     H92261   0.859   8.860   1.838  1.0241  1.7245 -1.4599
  699MOL0     H92262   0.679   8.713   1.640 -0.5974 -0.4950  1.4728
  699MOL0     H92263   0.741   8.873   1.592 -0.4753 -0.5028 -0.4592
  699MOL0     H92264   0.612   8.846   1.871 -2.2249  0.9875  0.2638
  699MOL0     H92265   0.609   8.973   1.753 -0.4841  0.2539  3.1446
  699MOL0     H92266   0.264   8.722   1.641  0.5147  0.5295  0.3875
  699MOL0     H92267   1.188   9.002   1.766 -0.6696  0.1688 -0.4412
  699MOL0     H92268   1.446   9.010   1.733  0.4225  1.0371 -1.5257
  700MOL0     O92269   0.014   4.087   0.911 -0.1594 -0.7601  1.0088
  700MOL0     C92270   0.014   4.053   0.794  1.0709  1.0081  0.6593
  700MOL0     O92271  -0.082   4.090   0.705 -0.0617  0.1926 -0.4196
  700MOL0     C92272  -0.199   4.139   0.765  0.6300  0.7063  0.6846
  700MOL0     C92273  -0.331   4.085   0.725 -0.0965  0.2778 -0.4334
  700MOL0     C92274  -0.448   4.126   0.791 -0.0036 -0.9929  1.2389
  700MOL0     C92275  -0.448   4.223   0.890  0.2826  0.1482 -0.3726
  700MOL0     O92276  -0.571   4.256   0.958 -0.5191  0.0834  0.3060
  700MOL0     C92277  -0.583   4.197   1.089  0.0329 -0.2937  0.3671
  700MOL0     C92278  -0.727   4.166   1.129 -0.4331  0.7084  0.1989
  700MOL0     C92279  -0.796   4.058   1.040 -0.0650  0.3956 -0.4773
  700MOL0     C92280  -0.930   4.025   1.093  0.8234  0.5938  0.7214
  700MOL0     C92281  -0.997   3.916   1.006  0.8331 -0.1143  0.5821
  700MOL0     C92282  -1.114   3.841   1.085 -0.0605  0.0615 -0.3145
  700MOL0     C92283  -1.158   3.708   1.012  0.0167  0.9368 -0.7094
  700MOL0     C92284  -1.269   3.642   1.094 -1.0334 -0.7988  0.1283
  700MOL0     N92285  -1.334   3.532   1.017  0.4083 -0.1722  0.2216
  700MOL0     C92286  -1.278   3.435   0.932 -1.0745 -1.0660 -0.5547
  700MOL0     C92287  -1.390   3.370   0.883 -1.1581 -0.4300  0.3285
  700MOL0     C92288  -1.372   3.253   0.785  0.5824 -0.8683  0.9886
  700MOL0     C92289  -1.488   3.240   0.686 -0.1193 -0.1958 -0.6649
  700MOL0     C92290  -1.613   3.179   0.746  0.0170 -0.0444  0.4662
  700MOL0     C92291  -1.724   3.177   0.639  0.3151  0.4103 -0.2821
  700MOL0     O92292  -1.759   3.312   0.591  0.2345 -0.2251 -0.3861
  700MOL0     C92293  -1.878   3.300   0.529 -0.2651  0.5892  0.5086
  700MOL0     C92294  -1.868   3.284   0.386  0.1232 -0.1622  0.5191
  700MOL0     C92295  -1.988   3.278   0.313  0.3185  0.2933  1.1089
  700MOL0     C92296  -2.115   3.305   0.376  0.2465 -0.5460  0.1701
  700MOL0     C92297  -2.233   3.286   0.295 -0.3497  0.0901 -0.9686
  700MOL0     O92298  -2.350   3.292   0.361  0.5199 -0.2121  0.1141
  700MOL0     C92299  -2.468   3.278   0.292 -0.4946 -0.6066 -0.0480
  700MOL0     C92300  -2.501   3.180   0.203  0.0571  0.6829  0.2402
  700MOL0     C92301  -2.625   3.169   0.151  0.6121  0.6411  0.7587
  700MOL0     C92302  -2.726   3.250   0.198  0.8587 -0.3691 -0.7928
  700MOL0     O92303  -2.854   3.225   0.138  0.3691 -0.5007 -0.1597
  700MOL0     C92304  -2.958   3.224   0.243  0.0752  0.1186  0.3376
  700MOL0     C92305  -3.092   3.214   0.166  0.8390 -0.8276  0.8097
  700MOL0     C92306  -3.097   3.078   0.090 -0.1909 -0.5775  0.9091
  700MOL0     C92307  -3.078   2.952   0.187 -0.1925  0.3886 -0.5326
  700MOL0     C92308  -3.113   2.823   0.124  0.6837 -0.4904 -0.5412
  700MOL0     C92309  -3.057   2.702   0.202  0.7527 -0.0757 -0.1789
  700MOL0     C92310  -3.140   2.673   0.335 -0.2823  0.1187 -0.1636
  700MOL0     C92311  -3.073   2.548   0.391  0.0789  0.4739 -0.6553
  700MOL0    Cl92312  -3.163   2.496   0.529  0.3864  0.4102  0.0547
  700MOL0     C92313  -2.688   3.360   0.274 -0.0029 -0.3990 -0.4608
  700MOL0     C92314  -2.558   3.375   0.321  0.4753 -0.3762 -1.1392
  700MOL0     O92315  -2.223   3.273   0.168 -0.5110  0.0092 -0.0016
  700MOL0     C92316  -2.122   3.308   0.522  0.4523  0.1111 -0.6808
  700MOL0     C92317  -2.003   3.301   0.594  0.1597  0.3222 -0.3350
  700MOL0     N92318  -1.507   3.428   0.927  0.8437  0.6887  0.3281
  700MOL0     N92319  -1.472   3.527   1.001 -0.2749 -1.4405 -1.1339
  700MOL0     C92320  -0.326   4.279   0.912  0.0985  0.2287  0.9276
  700MOL0     C92321  -0.202   4.241   0.856 -0.2890  0.1649  0.6261
  700MOL0     C92322   0.132   3.984   0.730  0.4249  0.2195  1.4032
  700MOL0     C92323   0.246   3.943   0.799 -1.3739  0.3287  0.3975
  700MOL0     C92324   0.357   3.881   0.731 -0.2107  0.9151 -0.6020
  700MOL0     C92325   0.344   3.847   0.595 -0.7273 -0.6425 -0.8640
  700MOL0     O92326   0.424   3.767   0.521  0.1003 -0.2325  0.3004
  700MOL0     C92327   0.538   3.705   0.582 -0.0470  0.0190 -0.5596
  700MOL0     C92328   0.642   3.663   0.475  1.0521  0.6170  0.2660
  700MOL0     C92329   0.772   3.724   0.501  0.0668 -0.2318  0.1025
  700MOL0     C92330   0.873   3.663   0.409 -0.2202  0.6449  0.2844
  700MOL0     C92331   1.014   3.678   0.461  0.5797  0.3707 -0.5914
  700MOL0     C92332   1.124   3.706   0.508 -0.0792 -0.2784  0.5160
  700MOL0     C92333   0.235   3.889   0.526 -0.5908 -0.1155 -0.6530
  700MOL0     C92334   0.129   3.958   0.591 -0.3734  0.0142  0.4227
  700MOL0     H92335  -0.345   4.024   0.637 -1.0368  1.1092 -0.8747
  700MOL0     H92336  -0.540   4.074   0.767  0.1994 -1.9943  2.5078
  700MOL0     H92337  -0.552   4.271   1.163  1.4977 -1.0845  0.5814
  700MOL0     H92338  -0.523   4.105   1.093 -1.2807 -1.2497 -0.7549
  700MOL0     H92339  -0.784   4.259   1.128  1.4353  1.9217 -1.0259
  700MOL0     H92340  -0.730   4.128   1.231 -4.6817  2.2977  0.8421
  700MOL0     H92341  -0.744   3.961   1.034 -1.9470 -0.7145  0.3338
  700MOL0     H92342  -0.812   4.087   0.936 -0.6722 -2.2254 -1.1974
  700MOL0     H92343  -0.943   3.979   1.192 -3.2830 -1.6963 -0.6692
  700MOL0     H92344  -0.995   4.113   1.089 -0.5144 -0.4235 -1.2256
  700MOL0     H92345  -0.928   3.838   0.972 -0.5752 -1.2910  0.3523
  700MOL0     H92346  -1.046   3.957   0.917 -0.6696  0.0003  1.4367
  700MOL0     H92347  -1.203   3.903   1.091 -1.0448 -0.7437 -4.1361
  700MOL0     H92348  -1.076   3.801   1.179  2.2670 -0.1157 -1.2622
  700MOL0     H92349  -1.204   3.726   0.915  1.7033 -0.0433 -1.7333
  700MOL0     H92350  -1.072   3.641   1.010  0.6374  1.6698  0.1721
  700MOL0     H92351  -1.336   3.723   1.123  0.2339  0.1836  0.3873
  700MOL0     H92352  -1.221   3.602   1.184 -0.0255 -1.6161 -0.7490
  700MOL0     H92353  -1.173   3.423   0.905 -1.2228 -1.2319 -1.0708
  700MOL0     H92354  -1.354   3.158   0.835  0.6748 -1.6440 -0.4784
  700MOL0     H92355  -1.289   3.267   0.715 -1.5340  1.4508 -1.2674
  700MOL0     H92356  -1.475   3.172   0.600 -1.8989  0.1690 -1.2580
  700MOL0     H92357  -1.519   3.339   0.653  0.7707  1.6133  3.3495
  700MOL0     H92358  -1.594   3.073   0.766 -0.5094 -0.1462  0.4430
  700MOL0     H92359  -1.632   3.230   0.842  1.0104 -1.1093  1.2553
  700MOL0     H92360  -1.810   3.125   0.681  0.2423  1.4495  0.8743
  700MOL0     H92361  -1.689   3.123   0.550 -0.0829 -2.0844  0.9805
  700MOL0     H92362  -1.771   3.258   0.345 -1.2164 -1.1852 -2.2444
  700MOL0     H92363  -1.982   3.249   0.208 -0.0826  3.1878  0.2088
  700MOL0     H92364  -2.425   3.114   0.163 -1.7662  0.2315 -2.8219
  700MOL0     H92365  -2.652   3.087   0.086 -0.9719  0.6577  1.3609
  700MOL0     H92366  -2.953   3.316   0.301  1.2355 -0.5439  1.3574
  700MOL0     H92367  -2.937   3.141   0.311  0.7782 -1.5309 -1.7768
  700MOL0     H92368  -3.121   3.291   0.095 -4.1704 -0.3771  2.9638
  700MOL0     H92369  -3.171   3.214   0.242  0.5862 -1.2933  0.5519
  700MOL0     H92370  -3.013   3.079   0.020 -1.0796 -0.5473 -0.1874
  700MOL0     H92371  -3.179   3.069   0.018  3.0982 -2.3854 -3.0452
  700MOL0     H92372  -2.983   2.950   0.241 -0.5501  2.5723  0.2974
  700MOL0     H92373  -3.154   2.970   0.264  0.0452 -0.2623 -0.1416
  700MOL0     H92374  -3.077   2.823   0.020 -0.9581 -1.2217 -1.1378
  700MOL0     H92375  -3.221   2.811   0.133  0.5288  1.5958  1.4060
  700MOL0     H92376  -2.952   2.726   0.217  1.2527 -0.4493 -2.6979
  700MOL0     H92377  -3.071   2.617   0.134 -1.8619  1.2805 -1.4862
  700MOL0     H92378  -3.128   2.754   0.408  3.2839  0.4083 -0.9120
  700MOL0     H92379  -3.246   2.655   0.315 -0.2532 -0.8407  0.4446
  700MOL0     H92380  -2.977   2.565   0.442 -1.8145  0.2216  3.3836
  700MOL0     H92381  -3.081   2.466   0.319 -3.1394 -0.8082  0.9901
  700MOL0     H92382  -2.769   3.430   0.295 -1.5860 -1.8376 -1.4813
  700MOL0     H92383  -2.522   3.456   0.384 -1.3550  0.4124 -1.0411
  700MOL0     H92384  -2.213   3.313   0.580 -0.0410  2.3645 -1.5419
  700MOL0     H92385  -2.013   3.302   0.702  4.3191  1.1604  0.2063
  700MOL0     H92386  -0.305   4.366   0.974 -1.9755  1.7245 -0.3477
  700MOL0     H92387  -0.110   4.298   0.870 -0.3751  0.7041 -0.8285
  700MOL0     H92388   0.264   3.954   0.905  0.3513 -4.2912  0.8026
  700MOL0     H92389   0.442   3.854   0.793 -1.2687 -2.9566 -0.5653
  700MOL0     H92390   0.505   3.623   0.647  0.6634 -0.0413 -0.2546
  700MOL0     H92391   0.594   3.780   0.639 -0.4030  1.1229 -1.6387
  700MOL0     H92392   0.644   3.554   0.467  0.2054  0.7241 -2.3335
  700MOL0     H92393   0.601   3.697   0.379 -2.3697 -0.5384  1.1909
  700MOL0     H92394   0.803   3.712   0.606  0.8599  1.2108  0.0513
  700MOL0     H92395   0.774   3.831   0.482  4.8962 -0.3944 -1.6009
  700MOL0     H92396   0.865   3.555   0.397  2.6748  0.2866  0.7348
  700MOL0     H92397   0.863   3.715   0.313 -1.1454  0.2124  0.1341
  700MOL0     H92398   1.225   3.706   0.543 -0.2886 -1.0516  1.1175
  700MOL0     H92399   0.235   3.854   0.423 -0.0343 -0.7093 -0.4518
  700MOL0     H92400   0.046   3.983   0.526 -0.3349 -2.1759 -0.5599
  701MOL0     O92401   4.978   9.922   9.201  0.4803 -0.3080  0.1274
  701MOL0     C92402   5.014  10.039   9.220 -0.4309  0.4190 -0.9380
  701MOL0     O92403   4.931  10.135   9.244  0.0276  0.0241  0.3412
  701MOL0     C92404   4.790  10.128   9.241 -0.3192  0.0249 -0.1632
  701MOL0     C92405   4.728  10.240   9.222  0.8586 -0.8502  0.1431
  701MOL0     C92406   4.588  10.244   9.208  0.5079 -0.7433 -0.2863
  701MOL0     C92407   4.514  10.123   9.211  0.8063 -0.2069 -0.9523
  701MOL0     O92408   4.386  10.136   9.173  0.9181 -0.2364  0.0615
  701MOL0     C92409   4.304  10.017   9.165  1.1451 -0.0263 -0.8605
  701MOL0     C92410   4.162  10.067   9.131 -0.9369 -0.0336 -0.7154
  701MOL0     C92411   4.110  10.186   9.207 -0.0413 -0.2929  0.1916
  701MOL0     C92412   3.959  10.171   9.238  0.9574 -0.2967  0.2573
  701MOL0     C92413   3.858  10.142   9.125  0.0322  0.8552 -0.6747
  701MOL0     C92414   3.873  10.220   8.989 -1.3846 -0.1082 -0.4406
  701MOL0     C92415   3.863  10.379   9.006 -0.6629  0.4445 -1.3811
  701MOL0     C92416   3.874  10.445   8.867  0.1967  0.1742  0.6249
  701MOL0     N92417   4.007  10.442   8.808 -1.0051 -1.6032  0.0164
  701MOL0     C92418   4.130  10.430   8.863  0.4975  0.8765 -0.4074
  701MOL0     C92419   4.218  10.415   8.757  0.3448 -0.5655  1.0766
  701MOL0     C92420   4.370  10.392   8.753  0.2967  0.3678  0.3239
  701MOL0     C92421   4.441  10.395   8.888  0.7909 -1.2082  0.2424
  701MOL0     C92422   4.599  10.395   8.882 -0.7628  0.2200 -0.7853
  701MOL0     C92423   4.629  10.257   8.850  0.3191  0.4968 -0.3266
  701MOL0     O92424   4.771  10.240   8.868 -1.2484  0.4480  0.5565
  701MOL0     C92425   4.817  10.133   8.793  0.2503  0.0335 -0.3842
  701MOL0     C92426   4.809  10.107   8.656 -0.8449  0.1115  0.6610
  701MOL0     C92427   4.853   9.993   8.592  0.1308 -0.7962  0.2254
  701MOL0     C92428   4.919   9.898   8.677  1.0401 -0.1622 -0.1035
  701MOL0     C92429   4.969   9.773   8.616  1.1419  0.2168  0.5761
  701MOL0     O92430   4.988   9.774   8.476 -0.2210 -0.0291 -0.8326
  701MOL0     C92431   5.057   9.668   8.429  0.2921  1.0406  0.0420
  701MOL0     C92432   4.986   9.555   8.425  0.1744  1.0085 -1.0066
  701MOL0     C92433   5.051   9.435   8.379 -1.0808  0.6672 -0.1915
  701MOL0     C92434   5.180   9.429   8.329 -0.3093  0.5091 -0.4073
  701MOL0     O92435   5.241   9.318   8.272  0.2603 -0.1871 -0.3021
  701MOL0     C92436   5.172   9.187   8.274 -0.2980  0.3723 -0.5453
  701MOL0     C92437   5.233   9.078   8.186  0.0348 -0.5800 -0.1517
  701MOL0     C92438   5.194   9.096   8.042  0.7640  0.3607  0.2649
  701MOL0     C92439   5.244   8.974   7.976 -0.8478 -0.2157  0.4238
  701MOL0     C92440   5.223   8.984   7.824  0.2131 -0.3381  0.2423
  701MOL0     C92441   5.252   8.856   7.749  0.5262 -0.2851 -0.4742
  701MOL0     C92442   5.204   8.853   7.599 -0.6349 -0.3097 -0.3069
  701MOL0     C92443   5.243   8.724   7.519  0.0728  0.3318 -0.0852
  701MOL0    Cl92444   5.406   8.727   7.473 -0.3727 -0.0037  0.0580
  701MOL0     C92445   5.239   9.554   8.329 -0.5723  0.2166  0.3802
  701MOL0     C92446   5.184   9.670   8.381  0.0421 -0.0127 -0.9271
  701MOL0     O92447   4.993   9.681   8.688  0.0473 -0.6622 -0.8064
  701MOL0     C92448   4.940   9.921   8.809  1.3165 -0.1844 -0.5848
  701MOL0     C92449   4.884  10.043   8.872 -1.0427 -0.0528 -0.1903
  701MOL0     N92450   4.139  10.435   8.642 -0.5376 -0.3567 -0.4137
  701MOL0     N92451   4.015  10.440   8.673  0.3721 -0.1541  0.4412
  701MOL0     C92452   4.574  10.009   9.246 -0.6694 -0.2878 -0.0108
  701MOL0     C92453   4.710  10.010   9.256 -0.4584  0.7428  0.3888
  701MOL0     C92454   5.149  10.077   9.171  0.1706 -0.1562 -0.6437
  701MOL0     C92455   5.156  10.191   9.087  0.1093 -0.5922 -0.7833
  701MOL0     C92456   5.279  10.230   9.032  0.0580  0.0133 -0.3217
  701MOL0     C92457   5.392  10.151   9.048 -0.1550 -0.5307 -0.1989
  701MOL0     O92458   5.510  10.200   8.997  0.1228  0.4644 -0.1590
  701MOL0     C92459   5.620  10.113   8.968 -0.8723 -0.1269 -0.1227
  701MOL0     C92460   5.732  10.187   8.893  0.4030  0.1228  0.3075
  701MOL0     C92461   5.748  10.336   8.927 -0.9547  0.3598  0.7176
  701MOL0     C92462   5.811  10.360   9.067 -0.1715  0.0660 -0.2309
  701MOL0     C92463   5.943  10.298   9.074 -0.2815 -0.5807  0.5447
  701MOL0     C92464   6.044  10.229   9.103 -0.2124 -0.8443  0.3211
  701MOL0     C92465   5.386  10.039   9.137 -0.2283  0.0763  0.4781
  701MOL0     C92466   5.265  10.009   9.198 -0.2697 -0.3586 -0.0501
  701MOL0     H92467   4.789  10.330   9.212  0.4787 -0.5428  0.5328
  701MOL0     H92468   4.524  10.328   9.182  1.6768  0.2173 -0.1465
  701MOL0     H92469   4.299   9.964   9.261 -0.4953 -4.1264 -2.9482
  701MOL0     H92470   4.335   9.940   9.093  0.0842 -0.2010 -1.1417
  701MOL0     H92471   4.094   9.981   9.126  1.5831 -2.3352  1.4403
  701MOL0     H92472   4.163  10.106   9.029 -2.1639  3.0400  0.3199
  701MOL0     H92473   4.126  10.271   9.140  3.9138 -1.8137 -1.1014
  701MOL0     H92474   4.172  10.201   9.296  1.4029 -0.3437 -0.7684
  701MOL0     H92475   3.938  10.098   9.317  0.1608  1.8746  2.2034
  701MOL0     H92476   3.923  10.269   9.271  2.7224  0.6536 -0.4991
  701MOL0     H92477   3.755  10.163   9.154 -0.0439  0.7936 -0.8982
  701MOL0     H92478   3.859  10.034   9.105  0.9755  0.7313 -0.0258
  701MOL0     H92479   3.795  10.192   8.917  0.0622  1.6005 -2.8204
  701MOL0     H92480   3.966  10.195   8.938  0.6679  3.1100  1.4114
  701MOL0     H92481   3.776  10.410   9.064  0.2331 -1.1034  0.9488
  701MOL0     H92482   3.952  10.421   9.055 -1.1620 -0.1923  0.1556
  701MOL0     H92483   3.857  10.552   8.876  1.8619  0.8316 -2.6927
  701MOL0     H92484   3.811  10.402   8.788  3.0866  0.6454 -2.1042
  701MOL0     H92485   4.158  10.416   8.967  0.6793  0.5861 -0.4941
  701MOL0     H92486   4.409  10.469   8.687  0.5428  0.3653  0.4669
  701MOL0     H92487   4.392  10.295   8.708  1.1595  0.6351  0.1662
  701MOL0     H92488   4.409  10.303   8.938  0.2698 -0.7228  0.8193
  701MOL0     H92489   4.407  10.476   8.952  1.4239 -0.6563 -0.1054
  701MOL0     H92490   4.641  10.459   8.804  1.4501  1.8425  1.5892
  701MOL0     H92491   4.640  10.428   8.978  3.1896 -0.0801 -2.2151
  701MOL0     H92492   4.592  10.217   8.755 -0.5700  0.1477  0.1541
  701MOL0     H92493   4.582  10.196   8.927  0.1986  2.6792  1.4417
  701MOL0     H92494   4.771  10.189   8.596 -1.2885 -2.1120 -2.2779
  701MOL0     H92495   4.843   9.980   8.485  1.9037 -0.5828  0.0036
  701MOL0     H92496   4.882   9.550   8.456  1.6898 -0.6988  5.0904
  701MOL0     H92497   5.003   9.339   8.390 -2.5781  1.4622  0.4588
  701MOL0     H92498   5.066   9.190   8.247 -0.9476  0.8924  1.8038
  701MOL0     H92499   5.181   9.153   8.378 -0.6931 -2.0181 -1.2216
  701MOL0     H92500   5.204   8.983   8.231  0.5528 -0.9686 -0.6298
  701MOL0     H92501   5.343   9.078   8.186  0.1036  1.9653 -1.0372
  701MOL0     H92502   5.245   9.185   8.002  0.1199  0.5033 -0.2713
  701MOL0     H92503   5.085   9.105   8.038  0.6635  0.1504  1.8444
  701MOL0     H92504   5.349   8.960   8.002 -0.8013 -1.6024 -0.4071
  701MOL0     H92505   5.206   8.881   8.017  2.1301 -1.1202  1.3768
  701MOL0     H92506   5.285   9.067   7.789  1.3126 -1.1427  0.2418
  701MOL0     H92507   5.115   9.002   7.816  0.0075 -0.6658  1.9223
  701MOL0     H92508   5.194   8.780   7.802 -0.8051  2.1755  1.7743
  701MOL0     H92509   5.358   8.829   7.741  0.5902 -0.2617  0.2938
  701MOL0     H92510   5.094   8.850   7.594 -0.5559 -2.4974 -3.3237
  701MOL0     H92511   5.229   8.943   7.543  0.2557 -0.5674 -0.3350
  701MOL0     H92512   5.183   8.717   7.428 -0.7358 -0.1068  0.4733
  701MOL0     H92513   5.230   8.628   7.570 -1.4689 -0.9822 -2.7704
  701MOL0     H92514   5.336   9.571   8.283 -0.2151 -1.2302  0.5582
  701MOL0     H92515   5.238   9.764   8.380 -0.4778  0.3603  1.1552
  701MOL0     H92516   4.992   9.853   8.876  1.2645  0.1452 -0.2045
  701MOL0     H92517   4.886  10.055   8.980  0.1722  1.2529 -0.3281
  701MOL0     H92518   4.521   9.916   9.261  1.2964 -1.3489  0.5635
  701MOL0     H92519   4.751   9.913   9.282 -0.3532  0.7303  0.1783
  701MOL0     H92520   5.070  10.253   9.062 -0.5690 -0.9719  0.4895
  701MOL0     H92521   5.286  10.322   8.975 -2.1011  0.8344  0.6254
  701MOL0     H92522   5.581  10.033   8.905 -1.1260  0.6413 -0.9728
  701MOL0     H92523   5.656  10.066   9.060  0.3944  0.1025 -0.4779
  701MOL0     H92524   5.831  10.147   8.920  0.5528  2.1006  3.1662
  701MOL0     H92525   5.710  10.170   8.788  0.5867  2.1721 -0.0955
  701MOL0     H92526   5.654  10.385   8.904  0.4405  2.4886 -0.7896
  701MOL0     H92527   5.812  10.384   8.853 -0.2278  0.4282  1.3797
  701MOL0     H92528   5.818  10.467   9.090  1.2570 -0.1925  0.6737
  701MOL0     H92529   5.759  10.304   9.145  0.0765 -1.1067 -0.8860
  701MOL0     H92530   6.134  10.173   9.119  1.1663  1.6133  1.6958
  701MOL0     H92531   5.478   9.985   9.157 -0.4078 -0.2543  0.4235
  701MOL0     H92532   5.275   9.931   9.273 -1.2791 -1.4540 -1.0003
  702MOL0     O92533   7.639  10.322   2.302  0.4956 -0.2409  0.9356
  702MOL0     C92534   7.653  10.195   2.313  0.0089 -0.4400  0.4600
  702MOL0     O92535   7.549  10.102   2.295  0.8619  0.6136  0.3152
  702MOL0     C92536   7.426  10.143   2.260  1.1430  0.2461 -0.6190
  702MOL0     C92537   7.355  10.235   2.345  1.1180  0.4517 -0.4552
  702MOL0     C92538   7.219  10.266   2.310 -0.4292 -1.1235 -0.8518
  702MOL0     C92539   7.165  10.226   2.184 -0.5536  0.1317 -0.6222
  702MOL0     O92540   7.036  10.255   2.151 -0.5069  0.9797 -0.1159
  702MOL0     C92541   6.940  10.280   2.243  0.7839 -0.0117  0.2527
  702MOL0     C92542   6.796  10.312   2.194 -1.5207  0.2870 -0.1360
  702MOL0     C92543   6.715  10.289   2.330 -0.3456 -0.4231  0.9926
  702MOL0     C92544   6.563  10.311   2.303  0.2128 -0.1549  0.5406
  702MOL0     C92545   6.477  10.253   2.414 -0.2421 -1.2173  0.1438
  702MOL0     C92546   6.498  10.308   2.553 -0.0864 -0.0083 -0.6005
  702MOL0     C92547   6.446  10.226   2.671  0.0447 -0.4180  0.4528
  702MOL0     C92548   6.294  10.183   2.644 -0.4865 -0.3690  0.4015
  702MOL0     N92549   6.295  10.047   2.591 -0.2523 -0.6604  0.1632
  702MOL0     C92550   6.173   9.989   2.568 -0.0313 -0.9480 -0.3634
  702MOL0     C92551   6.203   9.855   2.541  0.0390  0.1508 -0.2328
  702MOL0     C92552   6.108   9.744   2.501 -0.3903  0.6481  0.7396
  702MOL0     C92553   5.964   9.749   2.557 -0.2678 -0.3464 -0.5420
  702MOL0     C92554   5.960   9.735   2.710 -0.1945  0.5740 -0.1336
  702MOL0     C92555   5.816   9.705   2.756  0.2718 -0.2953  0.4217
  702MOL0     O92556   5.809   9.639   2.878 -0.6847  0.5383 -0.5528
  702MOL0     C92557   5.704   9.577   2.918 -1.3050 -0.1856 -0.2267
  702MOL0     C92558   5.722   9.479   3.009  0.7142 -0.5215  0.3920
  702MOL0     C92559   5.609   9.415   3.062  0.4179  0.4442  0.0095
  702MOL0     C92560   5.480   9.447   3.001 -0.3513  0.6275 -1.2579
  702MOL0     C92561   5.357   9.390   3.065  0.6931 -1.2544  0.5855
  702MOL0     O92562   5.254   9.471   3.039  0.1871  0.2094  0.7904
  702MOL0     C92563   5.120   9.440   3.061 -0.2208  0.0658  0.7747
  702MOL0     C92564   5.074   9.370   3.176  0.2387 -0.2703 -0.6901
  702MOL0     C92565   4.937   9.357   3.186 -0.2527  0.0137  0.0235
  702MOL0     C92566   4.837   9.409   3.104  0.9881 -1.1486 -0.3607
  702MOL0     O92567   4.705   9.405   3.135 -0.3361  0.7609 -0.3064
  702MOL0     C92568   4.618   9.512   3.083  1.3558  0.0881  0.0442
  702MOL0     C92569   4.473   9.497   3.122 -0.3032  0.3979  0.6391
  702MOL0     C92570   4.454   9.489   3.269 -0.2153 -0.4360 -0.1010
  702MOL0     C92571   4.310   9.481   3.303  0.8804 -0.6138  0.6537
  702MOL0     C92572   4.266   9.602   3.392  0.3600  0.2619  1.2083
  702MOL0     C92573   4.108   9.598   3.407  0.0716  0.4166 -0.2039
  702MOL0     C92574   4.071   9.488   3.513  0.0429  0.0695 -0.0093
  702MOL0     C92575   3.911   9.454   3.516 -1.2194 -1.0303  0.1694
  702MOL0    Cl92576   3.823   9.608   3.524 -0.0667 -0.1097 -0.0374
  702MOL0     C92577   4.888   9.469   2.990 -0.5040 -0.9635  0.0285
  702MOL0     C92578   5.025   9.484   2.964 -0.6729 -0.8434 -0.0044
  702MOL0     O92579   5.354   9.288   3.118 -0.2175 -0.0187 -0.5293
  702MOL0     C92580   5.468   9.545   2.914  0.5990 -0.9248  0.5741
  702MOL0     C92581   5.577   9.611   2.868 -0.8498  0.9960 -1.0686
  702MOL0     N92582   6.343   9.842   2.539 -0.5552  0.4006  0.5885
  702MOL0     N92583   6.394   9.955   2.562  0.5214 -0.4144  0.1811
  702MOL0     C92584   7.242  10.153   2.101  0.7654 -0.2409 -0.2552
  702MOL0     C92585   7.367  10.108   2.136  0.5241  0.0142 -1.0298
  702MOL0     C92586   7.779  10.137   2.348  0.3931  0.0890 -1.2840
  702MOL0     C92587   7.897  10.216   2.338  0.0731  0.4803  0.2534
  702MOL0     C92588   8.019  10.154   2.344  0.1632 -0.7506  0.3196
  702MOL0     C92589   8.035  10.029   2.403  0.1400 -0.7319  0.3802
  702MOL0     O92590   8.154   9.959   2.425  1.2896  0.6090  0.1163
  702MOL0     C92591   8.192   9.995   2.565  0.1650  0.9362  0.2414
  702MOL0     C92592   8.333   9.936   2.606 -0.3839 -1.2476  0.1982
  702MOL0     C92593   8.364   9.963   2.765 -0.8368  0.0204  0.6530
  702MOL0     C92594   8.430  10.104   2.806 -0.1310  0.2073 -0.3812
  702MOL0     C92595   8.551  10.106   2.729  0.5874  0.3082 -0.3896
  702MOL0     C92596   8.652  10.094   2.658 -0.1000 -0.6124 -0.6237
  702MOL0     C92597   7.919   9.957   2.431 -0.0713  0.9003 -0.2514
  702MOL0     C92598   7.787  10.004   2.398  0.4173  0.1183 -0.4050
  702MOL0     H92599   7.395  10.257   2.444  0.2217 -1.7330  0.4666
  702MOL0     H92600   7.155  10.323   2.377  3.1712  1.9887  0.3488
  702MOL0     H92601   6.964  10.374   2.293 -1.5157  1.2015 -0.7337
  702MOL0     H92602   6.936  10.201   2.318  1.0345  0.0645  0.3457
  702MOL0     H92603   6.761  10.244   2.115 -2.9051  0.0191  0.6634
  702MOL0     H92604   6.781  10.413   2.157  0.2925 -0.0469 -1.9558
  702MOL0     H92605   6.745  10.362   2.406 -1.5482  0.3264  0.7705
  702MOL0     H92606   6.739  10.193   2.377 -3.5442 -1.7287  0.2395
  702MOL0     H92607   6.547  10.420   2.301  1.2329 -0.0038 -1.0696
  702MOL0     H92608   6.540  10.277   2.201  0.0280 -0.2377  0.6093
  702MOL0     H92609   6.492  10.145   2.423 -1.1888 -1.2949  0.9409
  702MOL0     H92610   6.374  10.274   2.383 -0.9232 -2.2881  1.5416
  702MOL0     H92611   6.463  10.411   2.561 -2.7724 -1.0163  3.9090
  702MOL0     H92612   6.603  10.321   2.578  0.8213  4.4861 -5.0379
  702MOL0     H92613   6.509  10.138   2.690 -1.2282 -1.7183 -1.1197
  702MOL0     H92614   6.464  10.294   2.756  0.4162 -1.5382  1.2933
  702MOL0     H92615   6.243  10.254   2.578  0.5438  1.7862  1.8122
  702MOL0     H92616   6.255  10.185   2.746 -0.9626 -0.7806  0.2283
  702MOL0     H92617   6.071  10.026   2.569  0.9112  2.2930  3.9373
  702MOL0     H92618   6.159   9.649   2.517  0.0627  0.1660 -2.8298
  702MOL0     H92619   6.097   9.753   2.392  0.5745  0.9264  0.6508
  702MOL0     H92620   5.913   9.672   2.499  0.8624 -2.3999  1.0867
  702MOL0     H92621   5.922   9.846   2.526 -1.6282 -1.6194 -2.9999
  702MOL0     H92622   6.009   9.639   2.726 -3.7308 -1.2456  0.8238
  702MOL0     H92623   6.007   9.821   2.759  1.2273 -0.2765  0.0396
  702MOL0     H92624   5.779   9.639   2.677 -0.2804  2.5194 -1.8355
  702MOL0     H92625   5.753   9.795   2.763 -1.5975 -1.5765  0.7649
  702MOL0     H92626   5.824   9.458   3.039  1.1856  1.2272  0.1216
  702MOL0     H92627   5.614   9.347   3.147 -0.4963 -0.7649 -0.8766
  702MOL0     H92628   5.144   9.330   3.248 -0.9681 -1.8202 -0.3271
  702MOL0     H92629   4.899   9.301   3.271  0.1599 -0.6775 -0.2408
  702MOL0     H92630   4.620   9.515   2.973 -1.7604  0.1107 -0.0848
  702MOL0     H92631   4.647   9.615   3.109 -3.1911  1.5909 -0.0812
  702MOL0     H92632   4.442   9.401   3.080  2.4164  0.7018 -2.5883
  702MOL0     H92633   4.420   9.581   3.076 -0.2360 -0.6508 -1.4796
  702MOL0     H92634   4.499   9.581   3.306 -3.0851  0.6005  1.0781
  702MOL0     H92635   4.512   9.408   3.314  0.8807  1.1253  1.4339
  702MOL0     H92636   4.246   9.471   3.215 -0.9620  3.7307  1.2433
  702MOL0     H92637   4.299   9.393   3.367  2.9197 -0.6686  0.9954
  702MOL0     H92638   4.298   9.694   3.342  2.0768 -0.5541  0.7361
  702MOL0     H92639   4.310   9.608   3.491 -0.2844 -1.6917  1.6566
  702MOL0     H92640   4.055   9.584   3.312  1.6740  0.9123 -1.1983
  702MOL0     H92641   4.080   9.694   3.452 -2.0383  0.2055 -0.9256
  702MOL0     H92642   4.128   9.399   3.486 -3.0194 -1.7095 -1.1430
  702MOL0     H92643   4.103   9.524   3.612 -0.9472 -2.5187  1.3328
  702MOL0     H92644   3.883   9.390   3.600 -0.2964  2.4096  3.3349
  702MOL0     H92645   3.885   9.386   3.434  2.6374 -2.8562  0.2450
  702MOL0     H92646   4.815   9.489   2.912 -2.6793 -1.3615  1.8415
  702MOL0     H92647   5.045   9.545   2.877 -1.9502 -0.9544 -0.3930
  702MOL0     H92648   5.371   9.571   2.873 -1.6545 -1.1930  5.1184
  702MOL0     H92649   5.574   9.692   2.796 -0.9090  0.5400 -1.5903
  702MOL0     H92650   7.193  10.119   2.010  0.8340 -0.3671 -0.2463
  702MOL0     H92651   7.409  10.037   2.064  0.3433 -1.1978  0.0238
  702MOL0     H92652   7.896  10.307   2.280  1.2027 -0.8574 -2.0171
  702MOL0     H92653   8.107  10.215   2.329  0.4498 -0.6900  1.9848
  702MOL0     H92654   8.115   9.966   2.637  1.9353  0.6658  2.0892
  702MOL0     H92655   8.214  10.102   2.561  2.9482  0.4363 -0.0342
  702MOL0     H92656   8.337   9.830   2.577 -0.1189 -0.4945 -2.8706
  702MOL0     H92657   8.411   9.978   2.542 -1.8605 -0.3455 -1.0990
  702MOL0     H92658   8.433   9.888   2.805  1.0139  0.8777 -0.8173
  702MOL0     H92659   8.265   9.956   2.812 -1.0659  2.2165  0.5800
  702MOL0     H92660   8.365  10.189   2.782 -2.8046 -0.9193  2.2677
  702MOL0     H92661   8.442  10.118   2.913  2.2891  2.5668 -0.8516
  702MOL0     H92662   8.744  10.099   2.604  0.3306  2.6698  0.2293
  702MOL0     H92663   7.921   9.853   2.460 -1.5745  0.3531 -1.9411
  702MOL0     H92664   7.704   9.939   2.423  1.9505 -1.6995  0.1944
  703MOL0     O92665   1.067   7.881   7.083  0.1090 -0.1677  0.1718
  703MOL0     C92666   1.077   7.845   7.202  0.4806  0.4583 -1.2398
  703MOL0     O92667   0.977   7.798   7.284 -0.6896 -0.1409  0.3890
  703MOL0     C92668   0.849   7.799   7.249 -0.5316  0.0708 -0.4660
  703MOL0     C92669   0.763   7.702   7.313 -0.2591 -0.6220  0.3319
  703MOL0     C92670   0.625   7.701   7.286 -1.0705 -0.4650 -0.4785
  703MOL0     C92671   0.566   7.804   7.211 -0.7942 -0.9009 -0.6636
  703MOL0     O92672   0.437   7.807   7.170  0.5538  0.3496 -0.0878
  703MOL0     C92673   0.354   7.792   7.279  0.1501  0.0167 -0.6421
  703MOL0     C92674   0.207   7.820   7.232 -0.1617 -0.3191  0.7074
  703MOL0     C92675   0.104   7.777   7.327  0.1238  0.0176 -0.1725
  703MOL0     C92676  -0.032   7.855   7.305 -0.6323 -0.2601 -0.2712
  703MOL0     C92677  -0.142   7.773   7.377 -0.0618 -0.0518  1.0702
  703MOL0     C92678  -0.281   7.807   7.350 -0.0244 -0.1583 -0.0777
  703MOL0     C92679  -0.380   7.765   7.461 -0.7177 -0.2889 -0.4378
  703MOL0     C92680  -0.508   7.834   7.466 -0.0648 -0.5625 -0.1551
  703MOL0     N92681  -0.592   7.802   7.575  0.4392  1.1008 -0.6270
  703MOL0     C92682  -0.578   7.721   7.690 -0.9030  0.0453 -0.9788
  703MOL0     C92683  -0.677   7.746   7.774  1.0857  0.8570  0.0739
  703MOL0     C92684  -0.708   7.687   7.917  0.3538 -0.0758  0.2897
  703MOL0     C92685  -0.597   7.713   8.016  0.7545 -0.1829  0.3382
  703MOL0     C92686  -0.604   7.851   8.086 -0.4532 -0.7288 -0.4368
  703MOL0     C92687  -0.479   7.895   8.166 -0.3459 -0.1726 -0.3069
  703MOL0     O92688  -0.458   7.819   8.282  0.4960 -0.2254 -1.3021
  703MOL0     C92689  -0.553   7.824   8.390 -0.2674 -0.1142  0.4012
  703MOL0     C92690  -0.623   7.934   8.431  0.0489  0.3207 -0.4970
  703MOL0     C92691  -0.721   7.925   8.521  0.5857  0.4694 -0.3279
  703MOL0     C92692  -0.767   7.797   8.571 -1.0949  0.5939 -0.2732
  703MOL0     C92693  -0.888   7.790   8.651 -0.9135  1.7967 -0.4453
  703MOL0     O92694  -0.954   7.898   8.683  0.4652 -0.5249  0.3046
  703MOL0     C92695  -1.065   7.873   8.765 -0.0636 -0.5288  0.2853
  703MOL0     C92696  -1.182   7.867   8.696 -0.2474  0.3491  0.1245
  703MOL0     C92697  -1.302   7.841   8.770 -0.9146 -0.4911 -0.7122
  703MOL0     C92698  -1.296   7.811   8.916 -0.3864  0.1008 -0.4768
  703MOL0     O92699  -1.411   7.799   8.995 -0.2875  0.1537 -0.2773
  703MOL0     C92700  -1.524   7.722   8.937 -0.1989  0.5185 -0.6239
  703MOL0     C92701  -1.491   7.589   8.870  0.4207 -0.1839  0.3869
  703MOL0     C92702  -1.460   7.475   8.966  0.4869 -0.1462 -0.3527
  703MOL0     C92703  -1.425   7.342   8.893 -0.3615 -0.0235 -0.1889
  703MOL0     C92704  -1.437   7.221   8.982  0.0043 -0.3095 -0.1457
  703MOL0     C92705  -1.385   7.075   8.953 -0.3047  0.4610  0.1239
  703MOL0     C92706  -1.365   6.991   9.088 -0.2125 -0.9605  0.5485
  703MOL0     C92707  -1.307   6.853   9.056 -0.5057  0.1463  0.0064
  703MOL0    Cl92708  -1.139   6.883   9.043  0.5903 -0.2199 -0.1656
  703MOL0     C92709  -1.172   7.814   8.978 -0.6387 -0.2174 -0.5799
  703MOL0     C92710  -1.062   7.848   8.902  0.4214 -0.1328 -0.4100
  703MOL0     O92711  -0.922   7.681   8.692  0.9331  0.0792  0.1212
  703MOL0     C92712  -0.693   7.683   8.523  0.5372  0.5045 -0.6820
  703MOL0     C92713  -0.580   7.697   8.446  0.2805 -0.6045  0.8115
  703MOL0     N92714  -0.752   7.846   7.718 -0.0107 -0.4241 -0.1714
  703MOL0     N92715  -0.698   7.880   7.603 -0.4332 -0.0480  0.1999
  703MOL0     C92716   0.647   7.897   7.150 -0.2937  0.2004 -0.4300
  703MOL0     C92717   0.789   7.896   7.166  0.8013 -0.5093 -0.0607
  703MOL0     C92718   1.209   7.849   7.261 -0.8330 -0.2000 -0.4053
  703MOL0     C92719   1.218   7.804   7.394  0.0223  0.1280 -0.1111
  703MOL0     C92720   1.334   7.820   7.467 -0.7122  0.6976  0.1203
  703MOL0     C92721   1.446   7.867   7.410 -0.5728  0.6678 -0.1024
  703MOL0     O92722   1.564   7.854   7.486  0.1025  0.3772  0.6698
  703MOL0     C92723   1.684   7.927   7.452  0.5063 -0.7304 -0.2146
  703MOL0     C92724   1.794   7.839   7.406 -0.7415  0.0081 -0.3842
  703MOL0     C92725   1.826   7.723   7.494 -0.8736  0.1229 -0.1712
  703MOL0     C92726   1.943   7.625   7.455 -0.0157 -1.1011  0.1005
  703MOL0     C92727   2.063   7.699   7.431 -0.5288 -1.0608  0.4206
  703MOL0     C92728   2.166   7.770   7.429 -0.4680 -0.1919 -0.2250
  703MOL0     C92729   1.438   7.914   7.272 -0.5054  0.4421  1.0137
  703MOL0     C92730   1.318   7.907   7.201  0.4137  0.0668 -0.3191
  703MOL0     H92731   0.817   7.625   7.367  1.2552  1.1185  1.4255
  703MOL0     H92732   0.568   7.626   7.340 -1.5807  0.0654 -0.2771
  703MOL0     H92733   0.375   7.851   7.368  2.8696 -1.1309 -0.4352
  703MOL0     H92734   0.357   7.688   7.314 -2.4748  0.5177  1.3717
  703MOL0     H92735   0.187   7.788   7.130  0.9057  3.0272 -0.6958
  703MOL0     H92736   0.194   7.929   7.226  0.8346 -0.2767 -1.8971
  703MOL0     H92737   0.135   7.783   7.431 -1.1861 -4.4167  0.6708
  703MOL0     H92738   0.099   7.669   7.312  1.8805 -0.2541  0.9913
  703MOL0     H92739  -0.027   7.955   7.348 -1.8370 -0.0504 -0.6020
  703MOL0     H92740  -0.049   7.867   7.198  1.9550 -1.6447 -0.9334
  703MOL0     H92741  -0.115   7.787   7.482 -2.6753  0.3369  1.7506
  703MOL0     H92742  -0.135   7.664   7.365  1.3746  0.2537 -1.3648
  703MOL0     H92743  -0.321   7.763   7.258  0.3584 -0.8561  0.0817
  703MOL0     H92744  -0.266   7.915   7.343  0.2576 -0.1329  0.8197
  703MOL0     H92745  -0.397   7.657   7.458 -3.0996  0.0408 -1.2226
  703MOL0     H92746  -0.323   7.785   7.552 -2.6080 -0.7579  0.9046
  703MOL0     H92747  -0.560   7.820   7.370 -1.9372  3.9480 -0.0387
  703MOL0     H92748  -0.499   7.943   7.463  1.2889 -0.6883 -2.3273
  703MOL0     H92749  -0.501   7.647   7.708 -0.7398 -0.0565 -2.0476
  703MOL0     H92750  -0.716   7.579   7.901  0.8434 -0.1793  0.7068
  703MOL0     H92751  -0.799   7.729   7.961 -1.2773 -2.3349 -0.7612
  703MOL0     H92752  -0.497   7.715   7.971  0.9437  1.1341  0.7724
  703MOL0     H92753  -0.605   7.636   8.093  0.0998  0.6013  1.0651
  703MOL0     H92754  -0.622   7.929   8.012  0.2999  1.2441  1.3542
  703MOL0     H92755  -0.686   7.864   8.157  1.6375 -0.5726  2.0919
  703MOL0     H92756  -0.502   7.994   8.208  1.1579  0.4815 -0.9812
  703MOL0     H92757  -0.386   7.900   8.110  3.7175 -1.2630  5.4532
  703MOL0     H92758  -0.603   8.038   8.407  1.9839 -0.2122 -1.3729
  703MOL0     H92759  -0.767   8.011   8.568 -1.3476 -0.4268 -0.4401
  703MOL0     H92760  -1.180   7.880   8.588  1.2738 -3.0041 -0.3791
  703MOL0     H92761  -1.393   7.845   8.711 -1.3026 -0.1198 -0.0857
  703MOL0     H92762  -1.589   7.791   8.883 -0.9441  0.1151 -0.2546
  703MOL0     H92763  -1.591   7.705   9.022 -0.8615  0.2016 -1.2081
  703MOL0     H92764  -1.411   7.611   8.799 -0.0606 -0.6146 -0.3053
  703MOL0     H92765  -1.574   7.551   8.811  2.1902  2.2447 -4.1969
  703MOL0     H92766  -1.543   7.463   9.036  0.7468  1.6847  0.3251
  703MOL0     H92767  -1.368   7.504   9.017  1.6058  0.7447 -2.7138
  703MOL0     H92768  -1.482   7.326   8.801 -0.7458  0.2548  0.0009
  703MOL0     H92769  -1.320   7.354   8.864 -1.2007  3.6651 -2.2912
  703MOL0     H92770  -1.543   7.203   9.005 -1.1568  3.8231 -1.4678
  703MOL0     H92771  -1.388   7.259   9.072 -0.2488  1.0091 -0.5352
  703MOL0     H92772  -1.291   7.078   8.898 -1.1752 -1.2418 -1.5768
  703MOL0     H92773  -1.448   7.016   8.886 -0.7750  0.9379  0.1399
  703MOL0     H92774  -1.305   7.050   9.157  1.0475 -0.8777 -0.5654
  703MOL0     H92775  -1.462   6.981   9.137  0.2202 -1.4969  1.3010
  703MOL0     H92776  -1.331   6.836   8.950  1.1630 -1.1410 -0.2154
  703MOL0     H92777  -1.336   6.775   9.127 -2.9996 -0.6514 -1.7535
  703MOL0     H92778  -1.154   7.787   9.082 -1.3535 -1.4288 -0.7567
  703MOL0     H92779  -0.971   7.848   8.962 -0.3336 -3.5438  0.9628
  703MOL0     H92780  -0.722   7.585   8.559  0.3881  0.6940 -0.2830
  703MOL0     H92781  -0.504   7.625   8.420  0.5398  1.0157 -3.8094
  703MOL0     H92782   0.598   7.967   7.083 -0.6562  1.0686  0.7150
  703MOL0     H92783   0.841   7.969   7.105  1.0324 -1.2562 -0.7894
  703MOL0     H92784   1.137   7.750   7.442  0.3165 -3.0843 -2.8842
  703MOL0     H92785   1.326   7.776   7.565 -1.8997 -1.0746 -0.7149
  703MOL0     H92786   1.714   7.977   7.545  2.6877  0.8078 -1.6470
  703MOL0     H92787   1.666   8.007   7.381  0.1228  0.0112  0.6969
  703MOL0     H92788   1.763   7.809   7.305 -0.7710  1.1851 -0.7474
  703MOL0     H92789   1.879   7.908   7.403 -3.8555  4.4428  1.8003
  703MOL0     H92790   1.729   7.673   7.489 -1.3711  1.1033 -0.4413
  703MOL0     H92791   1.842   7.754   7.598 -2.2514  2.4833 -0.5927
  703MOL0     H92792   1.956   7.545   7.529  0.9424 -1.2931 -0.2617
  703MOL0     H92793   1.900   7.580   7.365 -0.0458 -1.1328  0.1309
  703MOL0     H92794   2.255   7.827   7.444  1.3911 -2.4202 -1.9870
  703MOL0     H92795   1.519   7.953   7.211 -0.2764  1.3078  1.8325
  703MOL0     H92796   1.315   7.967   7.111  1.6686  1.6390  0.6339
  704MOL0     O92797   4.600   3.387   6.832 -0.5717 -0.5577 -0.1352
  704MOL0     C92798   4.603   3.337   6.715  0.2364 -0.4059 -0.7134
  704MOL0     O92799   4.495   3.332   6.628  0.1679 -0.0202  0.2103
  704MOL0     C92800   4.371   3.343   6.682  0.4086  0.2395 -0.4715
  704MOL0     C92801   4.273   3.257   6.647  1.1273  0.9363  0.1660
  704MOL0     C92802   4.136   3.288   6.676 -0.3030  0.0123  0.4115
  704MOL0     C92803   4.108   3.395   6.767 -0.7094 -0.3033 -0.5543
  704MOL0     O92804   3.978   3.423   6.784  0.5832 -0.9850  0.1011
  704MOL0     C92805   3.943   3.534   6.878  0.2117  0.1007  0.1411
  704MOL0     C92806   3.789   3.550   6.881  0.0192 -0.4078  1.1085
  704MOL0     C92807   3.770   3.678   6.945  1.0308  0.4987  0.7334
  704MOL0     C92808   3.614   3.703   6.994 -0.3805  0.5117  0.9016
  704MOL0     C92809   3.606   3.650   7.139 -0.1619 -0.0811 -0.0766
  704MOL0     C92810   3.469   3.673   7.205 -0.3224 -0.2303 -0.2425
  704MOL0     C92811   3.358   3.609   7.133 -0.1945  0.9360  0.8789
  704MOL0     C92812   3.224   3.619   7.214  0.4071  0.9540  0.1281
  704MOL0     N92813   3.111   3.605   7.117 -0.5674  0.5426 -0.3175
  704MOL0     C92814   3.032   3.498   7.084 -0.0998  0.3646  0.4468
  704MOL0     C92815   2.940   3.558   7.012  0.2925 -0.2822 -0.3909
  704MOL0     C92816   2.838   3.484   6.941  0.2426  0.1318 -0.7371
  704MOL0     C92817   2.722   3.467   7.042  0.8263  0.4138  0.2292
  704MOL0     C92818   2.626   3.365   6.994 -0.5746 -0.7125  0.5639
  704MOL0     C92819   2.510   3.351   7.098 -1.2016  0.3215 -0.0689
  704MOL0     O92820   2.395   3.332   7.009 -0.2366 -0.1913  0.0858
  704MOL0     C92821   2.269   3.333   7.062  0.2833 -0.2219  0.1156
  704MOL0     C92822   2.248   3.343   7.201 -0.0541  0.3827 -0.0916
  704MOL0     C92823   2.120   3.364   7.251 -0.0609 -0.8291  1.2670
  704MOL0     C92824   2.013   3.374   7.158  0.5605 -0.1008 -1.1848
  704MOL0     C92825   1.874   3.415   7.207 -0.1227 -0.4686 -0.7839
  704MOL0     O92826   1.857   3.471   7.332 -0.3902  0.8320 -0.0741
  704MOL0     C92827   1.740   3.483   7.396 -0.2905  0.8953  1.2445
  704MOL0     C92828   1.722   3.602   7.463  0.9327 -0.0274 -0.2182
  704MOL0     C92829   1.620   3.628   7.546  0.7851 -0.9241  0.8294
  704MOL0     C92830   1.518   3.539   7.562 -1.4441  0.0752 -0.2927
  704MOL0     O92831   1.408   3.549   7.646  0.2078  0.0925 -0.2489
  704MOL0     C92832   1.372   3.683   7.686  0.3368 -0.2680 -0.3571
  704MOL0     C92833   1.226   3.703   7.735  0.9707  0.5228 -1.0378
  704MOL0     C92834   1.193   3.668   7.884 -0.5983 -0.1497  0.5130
  704MOL0     C92835   1.247   3.538   7.946 -0.5339  0.7332  0.1070
  704MOL0     C92836   1.222   3.539   8.097  0.3294 -0.7656  0.1049
  704MOL0     C92837   1.254   3.410   8.171  0.8697 -1.3793 -0.5431
  704MOL0     C92838   1.349   3.436   8.275  0.2221 -0.4325  0.1193
  704MOL0     C92839   1.489   3.484   8.220 -0.7993  0.3191 -0.2388
  704MOL0    Cl92840   1.571   3.357   8.111 -0.1373 -0.6642 -0.0449
  704MOL0     C92841   1.516   3.425   7.481 -0.2119  0.9428  0.3566
  704MOL0     C92842   1.631   3.392   7.404 -0.3544  0.2058 -0.8044
  704MOL0     O92843   1.785   3.380   7.134  0.5239 -0.0338 -0.8735
  704MOL0     C92844   2.038   3.353   7.023  0.1764  0.7531 -0.7648
  704MOL0     C92845   2.163   3.326   6.985  0.1213 -0.1377  0.1494
  704MOL0     N92846   2.950   3.693   7.005  0.2043 -0.0339 -0.2687
  704MOL0     N92847   3.053   3.718   7.074  0.2016  0.1266  0.2290
  704MOL0     C92848   4.216   3.477   6.811 -0.7933 -0.0310  0.1167
  704MOL0     C92849   4.339   3.457   6.755 -0.0813 -0.2559 -0.8447
  704MOL0     C92850   4.749   3.315   6.664  0.6288 -0.0286 -0.3110
  704MOL0     C92851   4.862   3.350   6.740  0.0219  0.2450 -0.0826
  704MOL0     C92852   4.990   3.323   6.687 -0.0216  0.3664 -0.5159
  704MOL0     C92853   5.007   3.268   6.563 -1.1787 -0.2490 -0.4051
  704MOL0     O92854   5.126   3.248   6.503 -0.3968  0.1152  0.0941
  704MOL0     C92855   5.180   3.364   6.430  0.0776 -0.0331 -0.5937
  704MOL0     C92856   5.289   3.316   6.339  0.3571 -0.6108 -0.0314
  704MOL0     C92857   5.231   3.262   6.205  1.6006 -1.2011  0.3735
  704MOL0     C92858   5.228   3.108   6.183 -0.1327 -0.1388 -0.1665
  704MOL0     C92859   5.362   3.050   6.173  0.1491  0.3975  0.4001
  704MOL0     C92860   5.476   3.012   6.168  0.0184  0.4682  0.0580
  704MOL0     C92861   4.901   3.248   6.479  0.7401  1.0289 -0.1542
  704MOL0     C92862   4.773   3.275   6.533  0.5531  0.3562  0.1149
  704MOL0     H92863   4.282   3.173   6.578  0.9322 -0.7198  2.0745
  704MOL0     H92864   4.054   3.228   6.638 -0.0605  0.7771 -1.4206
  704MOL0     H92865   4.001   3.621   6.844 -0.1949  1.5090  2.7770
  704MOL0     H92866   3.982   3.514   6.978 -0.9912  1.9945  1.0562
  704MOL0     H92867   3.734   3.471   6.934 -0.8776 -0.0411  0.7383
  704MOL0     H92868   3.750   3.552   6.779 -0.6594 -1.8909  1.3232
  704MOL0     H92869   3.792   3.752   6.867  1.7608 -0.4360  0.0341
  704MOL0     H92870   3.833   3.714   7.027  1.7625  2.8763 -0.7551
  704MOL0     H92871   3.585   3.808   6.988  2.4118  1.3581  0.3304
  704MOL0     H92872   3.547   3.650   6.925 -1.6748 -0.5618  2.8896
  704MOL0     H92873   3.689   3.689   7.200 -2.3972  1.6264  2.0898
  704MOL0     H92874   3.622   3.541   7.141 -0.3585 -0.2327 -2.8746
  704MOL0     H92875   3.462   3.782   7.205 -2.5124 -0.3035 -2.4441
  704MOL0     H92876   3.472   3.626   7.304 -0.3782 -0.1866 -0.2207
  704MOL0     H92877   3.343   3.667   7.041 -0.4859  2.6672  1.9632
  704MOL0     H92878   3.380   3.506   7.103  0.3740  0.6305  2.2717
  704MOL0     H92879   3.215   3.697   7.290  0.6602  0.9511  0.1620
  704MOL0     H92880   3.234   3.538   7.287  0.7965  2.0921  1.3631
  704MOL0     H92881   3.045   3.393   7.108  1.2426  1.0343  2.9480
  704MOL0     H92882   2.875   3.385   6.913 -1.3332 -0.5131 -0.6252
  704MOL0     H92883   2.820   3.541   6.849  0.8142  2.1518  0.3251
  704MOL0     H92884   2.669   3.563   7.055  2.4267  2.0460 -3.6238
  704MOL0     H92885   2.758   3.422   7.135 -1.8785 -2.0270  0.2187
  704MOL0     H92886   2.593   3.401   6.896 -0.5566 -3.1192 -0.3946
  704MOL0     H92887   2.686   3.277   6.970  0.9570  1.1230 -2.9952
  704MOL0     H92888   2.494   3.437   7.163  0.0630  1.5277 -1.2902
  704MOL0     H92889   2.514   3.261   7.161 -2.5216 -0.0130 -0.4224
  704MOL0     H92890   2.327   3.338   7.275 -2.9519 -0.7176  3.2190
  704MOL0     H92891   2.107   3.381   7.358 -2.7559 -0.0824  0.8831
  704MOL0     H92892   1.812   3.662   7.458 -0.5250  2.1909 -1.9106
  704MOL0     H92893   1.632   3.720   7.603 -3.1618  0.1952  0.1700
  704MOL0     H92894   1.388   3.754   7.605  0.9020  2.1950  1.7689
  704MOL0     H92895   1.441   3.720   7.763 -0.9145  0.4294  0.4662
  704MOL0     H92896   1.163   3.633   7.678  1.0247 -0.4218  0.0346
  704MOL0     H92897   1.200   3.808   7.724  2.6502  1.0107 -0.6461
  704MOL0     H92898   1.086   3.680   7.901 -0.9309 -0.2916 -1.2743
  704MOL0     H92899   1.242   3.746   7.943 -1.4338  1.8300 -1.2612
  704MOL0     H92900   1.191   3.452   7.909  1.8455 -3.0661  4.1738
  704MOL0     H92901   1.353   3.523   7.924 -0.7939 -0.5355 -0.3624
  704MOL0     H92902   1.115   3.557   8.108  0.3581 -1.1939  1.1886
  704MOL0     H92903   1.281   3.618   8.146 -1.8381 -0.9183  3.2319
  704MOL0     H92904   1.277   3.332   8.098 -4.2792 -1.6706 -2.2911
  704MOL0     H92905   1.171   3.374   8.233  2.1566 -1.8479  0.9798
  704MOL0     H92906   1.306   3.518   8.333  0.1205  1.3467 -2.3034
  704MOL0     H92907   1.367   3.349   8.338  1.6209 -1.3405 -1.4364
  704MOL0     H92908   1.544   3.509   8.310  1.1944  0.8009 -1.5262
  704MOL0     H92909   1.493   3.575   8.158 -0.9093 -0.1245 -0.9129
  704MOL0     H92910   1.441   3.347   7.490 -0.1579  0.5348 -2.1023
  704MOL0     H92911   1.643   3.290   7.369 -2.2118 -0.4777  0.3763
  704MOL0     H92912   1.953   3.348   6.955 -0.0830 -3.3714 -0.4196
  704MOL0     H92913   2.195   3.300   6.884  3.4646  1.8145  0.5606
  704MOL0     H92914   4.203   3.567   6.869 -0.1666  1.9673 -2.6359
  704MOL0     H92915   4.402   3.540   6.785  0.0057 -0.5096 -0.2990
  704MOL0     H92916   4.867   3.382   6.844  4.2287 -2.2274  0.7280
  704MOL0     H92917   5.076   3.336   6.752  1.2373 -1.7561 -1.6489
  704MOL0     H92918   5.219   3.453   6.480 -1.6937  2.5666 -3.5214
  704MOL0     H92919   5.093   3.397   6.373 -1.2873  1.7323  2.2968
  704MOL0     H92920   5.358   3.399   6.321  1.1494 -0.9118  1.5143
  704MOL0     H92921   5.336   3.228   6.384 -0.7393 -0.1508  2.1396
  704MOL0     H92922   5.291   3.300   6.121  2.4188 -0.6720  1.1738
  704MOL0     H92923   5.131   3.302   6.187  1.5062 -0.2408  2.6788
  704MOL0     H92924   5.174   3.056   6.263 -2.4133  1.2600 -0.7280
  704MOL0     H92925   5.176   3.084   6.090  0.7511 -1.7756 -0.2916
  704MOL0     H92926   5.579   2.985   6.164  0.1681  0.9914  0.3447
  704MOL0     H92927   4.906   3.227   6.373 -0.5906 -0.4165  0.0353
  704MOL0     H92928   4.687   3.252   6.471  1.3438  0.4536 -1.0435
  705MOL0     O92929   8.658   2.036   9.721  0.4021  0.2745  0.3911
  705MOL0     C92930   8.606   1.976   9.632 -0.5606  0.0832  0.4207
  705MOL0     O92931   8.644   1.855   9.595 -0.3102 -0.1742  0.5917
  705MOL0     C92932   8.748   1.795   9.653  0.7927 -0.0208  0.1754
  705MOL0     C92933   8.730   1.666   9.691 -0.0082  0.4050 -0.2901
  705MOL0     C92934   8.847   1.585   9.710 -0.3387 -0.1243  0.2012
  705MOL0     C92935   8.976   1.642   9.705 -0.0608  0.3548 -0.0626
  705MOL0     O92936   9.078   1.555   9.730  0.2150  0.5119 -0.0102
  705MOL0     C92937   9.187   1.603   9.811 -0.3371  1.1079  0.1457
  705MOL0     C92938   9.273   1.492   9.861 -0.3247  1.7439  0.3879
  705MOL0     C92939   9.306   1.398   9.734 -0.5831 -0.5283 -0.1916
  705MOL0     C92940   9.388   1.282   9.768  0.5025  0.1041 -0.6806
  705MOL0     C92941   9.407   1.190   9.654  0.0574  0.0918  0.7835
  705MOL0     C92942   9.486   1.064   9.695  0.3336  0.5381 -0.9765
  705MOL0     C92943   9.635   1.078   9.732  0.1328  0.5241  0.1165
  705MOL0     C92944   9.713   1.164   9.636 -0.0968  0.8608 -0.2315
  705MOL0     N92945   9.736   1.096   9.508  1.0498 -0.5813 -0.4326
  705MOL0     C92946   9.818   0.988   9.489 -0.7968  0.6298  0.0784
  705MOL0     C92947   9.827   0.979   9.350  0.2980  0.5281 -0.0418
  705MOL0     C92948   9.923   0.877   9.275  0.7489 -0.2325  0.2169
  705MOL0     C92949   9.878   0.871   9.126 -0.7073 -0.0974 -0.1561
  705MOL0     C92950   9.967   0.764   9.062 -0.1906  0.2552  0.0916
  705MOL0     C92951  10.120   0.789   9.069  0.3654  0.4951  0.3199
  705MOL0     O92952  10.168   0.732   9.189 -0.3074 -0.5613 -0.1459
  705MOL0     C92953  10.301   0.694   9.203  0.3625 -0.2334  0.1368
  705MOL0     C92954  10.406   0.762   9.142  0.0085 -0.5929  0.0632
  705MOL0     C92955  10.543   0.713   9.148 -0.9594  0.2156  0.0420
  705MOL0     C92956  10.581   0.598   9.219  0.2730  0.7369 -0.0928
  705MOL0     C92957  10.721   0.541   9.220 -0.0321  0.2798 -0.1114
  705MOL0     O92958  10.812   0.633   9.192 -0.4927 -0.7754  0.5542
  705MOL0     C92959  10.950   0.619   9.206 -0.4846  0.6915 -0.1918
  705MOL0     C92960  11.019   0.530   9.294  0.0240 -1.0261 -0.7635
  705MOL0     C92961  11.157   0.535   9.306  0.2598 -0.0868  0.7964
  705MOL0     C92962  11.241   0.604   9.221 -0.3096  0.0806 -0.4655
  705MOL0     O92963  11.381   0.600   9.242  0.8809  0.3174  0.7596
  705MOL0     C92964  11.472   0.583   9.134  0.7300 -0.2364  0.0985
  705MOL0     C92965  11.611   0.525   9.182 -0.1421  0.7395  1.0694
  705MOL0     C92966  11.665   0.632   9.281  0.4608  0.3251  1.5372
  705MOL0     C92967  11.805   0.589   9.325 -0.1368 -0.1473  0.5588
  705MOL0     C92968  11.909   0.709   9.319  0.3003 -0.0379  1.0996
  705MOL0     C92969  12.048   0.678   9.358  0.0177 -0.0996  0.1957
  705MOL0     C92970  12.104   0.557   9.275  0.1410  0.5488  0.8838
  705MOL0     C92971  12.246   0.543   9.317  0.2405 -0.1000 -0.1278
  705MOL0    Cl92972  12.341   0.432   9.202  0.1866 -0.1714  0.0579
  705MOL0     C92973  11.180   0.692   9.131  0.3620  0.7636 -0.5794
  705MOL0     C92974  11.034   0.700   9.126 -0.0936 -0.0306  0.7301
  705MOL0     O92975  10.735   0.421   9.235 -0.9894  0.3981 -0.4232
  705MOL0     C92976  10.476   0.533   9.282 -0.0417  1.0647 -0.3922
  705MOL0     C92977  10.339   0.576   9.271 -0.0708 -0.9197 -0.1307
  705MOL0     N92978   9.742   1.077   9.294 -0.6835  1.2053  0.5014
  705MOL0     N92979   9.695   1.149   9.389 -0.0870  0.3981 -0.3736
  705MOL0     C92980   8.992   1.778   9.672 -1.6882  0.3483 -0.3417
  705MOL0     C92981   8.876   1.852   9.651  0.4523 -1.3292  0.6440
  705MOL0     C92982   8.482   2.027   9.591  0.5448  0.4782  0.3356
  705MOL0     C92983   8.460   2.162   9.576  0.0698 -0.6918  0.8591
  705MOL0     C92984   8.343   2.207   9.520 -0.0362 -0.0625  0.7633
  705MOL0     C92985   8.246   2.112   9.490 -0.2307 -0.2151 -0.0659
  705MOL0     O92986   8.118   2.149   9.448  1.5166  0.5367  0.0376
  705MOL0     C92987   8.038   2.193   9.561  0.0268  0.4789 -0.1863
  705MOL0     C92988   7.907   2.122   9.560 -0.6604 -0.9716  0.0773
  705MOL0     C92989   7.821   2.138   9.696  0.5559  0.4828  0.5904
  705MOL0     C92990   7.696   2.054   9.689 -0.0881 -0.8667 -0.4261
  705MOL0     C92991   7.588   2.142   9.644  0.0478 -0.1527 -1.0690
  705MOL0     C92992   7.499   2.216   9.608  0.3982 -0.8488  0.1668
  705MOL0     C92993   8.262   1.978   9.513 -0.0556 -0.6673 -0.4751
  705MOL0     C92994   8.384   1.931   9.551  0.5193  0.3234 -0.2650
  705MOL0     H92995   8.636   1.614   9.677  1.0503 -1.0960 -2.2760
  705MOL0     H92996   8.846   1.477   9.716  0.7991 -0.0771  2.0493
  705MOL0     H92997   9.137   1.640   9.901 -2.8960 -2.1094  0.2325
  705MOL0     H92998   9.259   1.666   9.758 -1.2531 -0.3115 -3.0277
  705MOL0     H92999   9.214   1.429   9.928 -1.5139  0.2344 -1.9182
  705MOL0     H93000   9.366   1.526   9.907  0.1123  1.9108 -0.5911
  705MOL0     H93001   9.363   1.449   9.656  1.4657  0.5698  1.8664
  705MOL0     H93002   9.215   1.363   9.685 -1.0553  0.5020 -0.0855
  705MOL0     H93003   9.487   1.310   9.806  1.8533 -0.3432 -3.5345
  705MOL0     H93004   9.329   1.229   9.842  0.2674  0.9469 -0.2543
  705MOL0     H93005   9.457   1.242   9.572 -1.8005  1.5464  0.5260
  705MOL0     H93006   9.314   1.146   9.616  2.0331 -2.4531 -1.4931
  705MOL0     H93007   9.463   0.988   9.620  0.8229 -2.7401  1.9678
  705MOL0     H93008   9.433   1.021   9.780  0.1217 -2.5044 -2.5191
  705MOL0     H93009   9.643   1.122   9.832  1.5460 -1.3659  0.9064
  705MOL0     H93010   9.670   0.975   9.736 -0.3865  0.3191 -0.4571
  705MOL0     H93011   9.817   1.166   9.671 -0.2330 -3.4210  0.9104
  705MOL0     H93012   9.665   1.259   9.612 -0.7998  0.2663 -1.2214
  705MOL0     H93013   9.874   0.933   9.564 -2.1157 -1.3693 -0.3240
  705MOL0     H93014   9.898   0.775   9.306 -3.2684  0.7304  0.7772
  705MOL0     H93015  10.027   0.909   9.286  0.7450  1.0597 -2.6809
  705MOL0     H93016   9.892   0.971   9.082  3.0525  0.0205  0.9800
  705MOL0     H93017   9.778   0.836   9.100 -0.6730  0.7221 -1.4622
  705MOL0     H93018   9.958   0.661   9.096  1.7067  0.3870  1.1412
  705MOL0     H93019   9.934   0.778   8.959  2.9239  2.2507 -0.7504
  705MOL0     H93020  10.132   0.898   9.067  2.0917  0.3306 -0.1421
  705MOL0     H93021  10.163   0.742   8.980 -1.3535 -0.0138 -0.2782
  705MOL0     H93022  10.399   0.845   9.073  3.2015 -1.4499 -1.5016
  705MOL0     H93023  10.619   0.778   9.106  0.7598  2.0490  5.2013
  705MOL0     H93024  10.964   0.460   9.355 -0.0746  0.1637  0.5773
  705MOL0     H93025  11.199   0.485   9.393  0.5714 -0.0628  0.6593
  705MOL0     H93026  11.495   0.675   9.078 -0.1451 -0.0646  0.0179
  705MOL0     H93027  11.424   0.524   9.056  1.6592 -1.3049  0.3156
  705MOL0     H93028  11.685   0.505   9.104 -4.0025 -0.8451 -2.5371
  705MOL0     H93029  11.600   0.434   9.242  2.4051  0.5080  1.2775
  705MOL0     H93030  11.601   0.641   9.369  0.2494  1.0175  1.3129
  705MOL0     H93031  11.662   0.728   9.230  2.1109 -0.0560  0.6646
  705MOL0     H93032  11.798   0.543   9.424 -0.6792 -0.4784  0.3689
  705MOL0     H93033  11.832   0.507   9.258 -2.8129 -0.7181  0.0607
  705MOL0     H93034  11.879   0.788   9.388 -2.3213 -0.0593  0.1262
  705MOL0     H93035  11.888   0.747   9.218 -2.2016  0.8953  1.8863
  705MOL0     H93036  12.046   0.649   9.464  0.5732  1.2601  0.5949
  705MOL0     H93037  12.113   0.764   9.338 -2.0124  1.4136 -0.2230
  705MOL0     H93038  12.056   0.465   9.311 -1.7463  1.8103  1.6992
  705MOL0     H93039  12.088   0.576   9.169 -0.7900 -1.7750  0.5403
  705MOL0     H93040  12.257   0.491   9.413 -1.1315  1.2146  0.7836
  705MOL0     H93041  12.307   0.633   9.326 -0.2460  0.2421 -0.2434
  705MOL0     H93042  11.235   0.748   9.057  0.5499  1.9331  0.4185
  705MOL0     H93043  10.985   0.765   9.054  0.4719  1.4411  1.6429
  705MOL0     H93044  10.507   0.448   9.343 -2.3780 -1.5095 -2.5392
  705MOL0     H93045  10.258   0.529   9.325  2.2437 -1.0577  3.5259
  705MOL0     H93046   9.090   1.822   9.661 -0.7439 -1.0388  1.7905
  705MOL0     H93047   8.891   1.953   9.616 -0.6292 -1.4571 -0.2620
  705MOL0     H93048   8.525   2.239   9.617 -0.5985 -0.4083  1.4219
  705MOL0     H93049   8.328   2.313   9.504  1.0286 -0.1382 -1.0572
  705MOL0     H93050   8.021   2.301   9.567 -0.0975  0.3789  1.7487
  705MOL0     H93051   8.089   2.170   9.655 -0.3170 -3.4416 -0.7777
  705MOL0     H93052   7.843   2.159   9.480  1.0109  3.1186  0.3688
  705MOL0     H93053   7.934   2.017   9.548 -1.0803 -0.9575 -1.1865
  705MOL0     H93054   7.812   2.243   9.727 -5.1294  0.3434  0.4880
  705MOL0     H93055   7.878   2.088   9.775  0.8995  0.5740  0.3989
  705MOL0     H93056   7.729   1.966   9.633 -0.7516 -1.9718  0.8514
  705MOL0     H93057   7.665   2.013   9.785 -1.7057 -0.9427 -0.9481
  705MOL0     H93058   7.429   2.293   9.582 -1.1906 -2.0257  0.7190
  705MOL0     H93059   8.179   1.908   9.509  0.6134 -1.4478 -1.2812
  705MOL0     H93060   8.396   1.823   9.561 -0.2955  0.2953  0.6042
  706MOL0     O93061   2.428   7.568   0.986  0.4472 -0.2068  0.2275
  706MOL0     C93062   2.501   7.500   0.917 -0.9530 -0.8784 -0.8853
  706MOL0     O93063   2.485   7.465   0.790 -0.3974 -0.2818  0.5905
  706MOL0     C93064   2.378   7.495   0.715  0.7904  0.1891  0.5547
  706MOL0     C93065   2.277   7.392   0.692  1.2422  0.1443  0.2058
  706MOL0     C93066   2.169   7.428   0.616 -0.5326  1.0103 -0.9844
  706MOL0     C93067   2.164   7.557   0.557  0.4092 -0.6957  0.0776
  706MOL0     O93068   2.060   7.576   0.466  0.4501 -0.0954 -0.5023
  706MOL0     C93069   2.067   7.694   0.389  0.9467 -0.7390  0.0008
  706MOL0     C93070   1.925   7.728   0.342  0.6417  0.5201  0.1289
  706MOL0     C93071   1.847   7.793   0.453  0.3814 -0.0046  0.3446
  706MOL0     C93072   1.707   7.853   0.399 -0.3174  0.0580 -0.2266
  706MOL0     C93073   1.632   7.908   0.516  0.2397 -0.1721  0.1034
  706MOL0     C93074   1.518   7.991   0.457  1.3853 -0.8280  0.1546
  706MOL0     C93075   1.433   8.053   0.571  1.0167 -0.1376  0.2541
  706MOL0     C93076   1.307   8.133   0.517 -0.4631 -0.1164 -0.3649
  706MOL0     N93077   1.211   8.040   0.456  0.5087  0.3562  0.5092
  706MOL0     C93078   1.143   7.939   0.516 -1.2986 -0.1706 -0.2791
  706MOL0     C93079   1.050   7.889   0.437  0.2046 -1.1942  0.2078
  706MOL0     C93080   0.933   7.798   0.472  0.8135 -0.4701  0.4357
  706MOL0     C93081   0.811   7.877   0.502  0.8245  0.2035  0.4904
  706MOL0     C93082   0.713   7.765   0.551  1.4627 -0.7792  0.6890
  706MOL0     C93083   0.580   7.842   0.583  0.3053 -0.4977  0.3284
  706MOL0     O93084   0.474   7.806   0.489 -0.0882 -0.7796  0.0993
  706MOL0     C93085   0.337   7.833   0.514  0.4051 -0.1483 -0.0714
  706MOL0     C93086   0.292   7.915   0.618 -0.5614 -0.2470 -0.7219
  706MOL0     C93087   0.155   7.950   0.640 -0.0472 -0.2439  0.3141
  706MOL0     C93088   0.062   7.870   0.574 -1.0688 -0.7918  1.0435
  706MOL0     C93089  -0.081   7.894   0.582  0.9253  0.7052 -0.7448
  706MOL0     O93090  -0.158   7.809   0.508  0.4326 -0.4278 -0.3273
  706MOL0     C93091  -0.298   7.820   0.498 -0.4902  0.6695  0.1605
  706MOL0     C93092  -0.376   7.807   0.383  0.5502  0.8327  0.1283
  706MOL0     C93093  -0.517   7.824   0.394  0.2379 -0.4117  0.9046
  706MOL0     C93094  -0.574   7.856   0.513  0.4287  0.2210 -0.0196
  706MOL0     O93095  -0.706   7.866   0.518  0.3306 -0.0188 -0.6099
  706MOL0     C93096  -0.766   7.742   0.486 -0.4438  0.5805  0.0713
  706MOL0     C93097  -0.912   7.724   0.522  0.5230 -0.7493  0.3181
  706MOL0     C93098  -0.933   7.698   0.665  0.3927 -0.2564  0.4223
  706MOL0     C93099  -1.079   7.700   0.705  0.9477  0.0944  0.1727
  706MOL0     C93100  -1.102   7.692   0.854 -0.3104 -0.6582 -0.2341
  706MOL0     C93101  -1.237   7.636   0.907  0.7598 -0.0982  0.0172
  706MOL0     C93102  -1.226   7.641   1.059 -0.7651 -0.6172 -0.5262
  706MOL0     C93103  -1.363   7.630   1.124  0.1946 -0.1754  0.2485
  706MOL0    Cl93104  -1.450   7.489   1.088  0.1213  0.2158 -0.5369
  706MOL0     C93105  -0.493   7.872   0.625  0.0230  0.1011  0.3033
  706MOL0     C93106  -0.355   7.855   0.616 -0.1934  0.6938 -0.5700
  706MOL0     O93107  -0.124   7.978   0.660  0.0514  0.4616  1.0974
  706MOL0     C93108   0.116   7.775   0.480  0.3598 -0.8964  0.4402
  706MOL0     C93109   0.249   7.754   0.447  0.0221 -0.1904  0.4780
  706MOL0     N93110   1.066   7.956   0.317  0.5584  0.3874  0.3270
  706MOL0     N93111   1.150   8.047   0.334 -1.2812 -0.4631  0.1657
  706MOL0     C93112   2.266   7.653   0.577 -0.1961 -0.5164  0.9899
  706MOL0     C93113   2.372   7.622   0.654 -0.6411 -0.9820 -0.9405
  706MOL0     C93114   2.622   7.458   0.996  0.0739 -0.8370  0.0982
  706MOL0     C93115   2.645   7.507   1.124  0.6306 -0.5947 -0.1848
  706MOL0     C93116   2.754   7.451   1.195 -0.2013  0.0593 -0.0204
  706MOL0     C93117   2.858   7.379   1.130  0.6962  0.4027  0.3004
  706MOL0     O93118   2.972   7.326   1.191  0.5260 -0.3838  0.5362
  706MOL0     C93119   3.031   7.402   1.307  0.1477 -0.2155 -0.1764
  706MOL0     C93120   3.182   7.370   1.296 -0.8899  0.2921  0.0268
  706MOL0     C93121   3.233   7.413   1.155 -0.7694 -0.3103  0.4764
  706MOL0     C93122   3.242   7.297   1.056 -0.4573  0.6144  0.8769
  706MOL0     C93123   3.328   7.333   0.942 -0.2366  1.0172  0.8290
  706MOL0     C93124   3.404   7.354   0.854  0.4103  0.3473  0.0109
  706MOL0     C93125   2.837   7.348   0.994  0.2391  0.2437  0.6017
  706MOL0     C93126   2.723   7.388   0.930 -0.2737 -0.1852 -0.6879
  706MOL0     H93127   2.262   7.295   0.739  1.4418 -0.2404 -0.5005
  706MOL0     H93128   2.087   7.358   0.604  1.1942 -1.0640 -1.3339
  706MOL0     H93129   2.116   7.674   0.294 -0.3613 -3.6062 -0.1508
  706MOL0     H93130   2.097   7.781   0.448  0.1474 -0.3510 -0.1445
  706MOL0     H93131   1.870   7.641   0.306 -0.7477  2.1646 -1.9755
  706MOL0     H93132   1.923   7.794   0.255 -1.2580  0.6584  0.2380
  706MOL0     H93133   1.909   7.870   0.499  0.6755  0.2842 -0.5087
  706MOL0     H93134   1.824   7.717   0.528  2.2718  0.7828  1.7932
  706MOL0     H93135   1.724   7.940   0.335 -1.3626  1.7010  1.5874
  706MOL0     H93136   1.641   7.776   0.358  0.6818 -0.1572 -1.4778
  706MOL0     H93137   1.698   7.963   0.583  1.3141 -1.7549  0.4218
  706MOL0     H93138   1.590   7.832   0.582 -2.4139  2.9945  2.3948
  706MOL0     H93139   1.444   7.954   0.386  2.0019 -0.7491 -0.5509
  706MOL0     H93140   1.565   8.074   0.403  3.2589 -0.8553  1.6350
  706MOL0     H93141   1.390   7.977   0.636 -2.2579  0.4160 -1.0724
  706MOL0     H93142   1.485   8.129   0.632  1.1400 -0.0031 -0.0136
  706MOL0     H93143   1.359   8.213   0.464  1.9683  0.2786  2.3686
  706MOL0     H93144   1.262   8.165   0.611 -0.6028  2.0017 -1.1022
  706MOL0     H93145   1.159   7.898   0.615  0.6246  2.5661  0.6618
  706MOL0     H93146   0.970   7.747   0.562 -2.1253 -0.4940  1.7345
  706MOL0     H93147   0.916   7.731   0.388 -3.2438 -1.6715  1.9728
  706MOL0     H93148   0.765   7.922   0.414  2.2823  0.8274  0.0242
  706MOL0     H93149   0.829   7.950   0.581  0.4916 -0.2889  1.0328
  706MOL0     H93150   0.697   7.693   0.471 -0.6105  1.5034 -1.1159
  706MOL0     H93151   0.751   7.716   0.642  2.0735  0.9896  1.4380
  706MOL0     H93152   0.590   7.950   0.572  0.0724 -0.5455 -0.4552
  706MOL0     H93153   0.556   7.808   0.684 -1.9769 -0.3771 -0.1369
  706MOL0     H93154   0.369   7.962   0.680 -0.9528  0.0310 -0.4400
  706MOL0     H93155   0.123   8.024   0.713  1.9740 -1.7308  2.8721
  706MOL0     H93156  -0.323   7.781   0.292 -0.1539 -1.2330  0.2639
  706MOL0     H93157  -0.576   7.815   0.303 -1.7779  1.0325  1.9959
  706MOL0     H93158  -0.709   7.663   0.535  2.4341  2.4595 -0.0338
  706MOL0     H93159  -0.760   7.728   0.378  2.1521 -1.6190  0.3885
  706MOL0     H93160  -0.951   7.637   0.468  0.0364 -1.2279  1.4171
  706MOL0     H93161  -0.968   7.814   0.494 -0.2448 -0.7995  1.6198
  706MOL0     H93162  -0.891   7.777   0.728  2.5732  0.1034 -1.3790
  706MOL0     H93163  -0.878   7.606   0.684  2.1525  0.4105 -1.2183
  706MOL0     H93164  -1.136   7.785   0.666 -1.4774 -0.7108  1.7090
  706MOL0     H93165  -1.131   7.608   0.674  0.9884  0.0667  0.1877
  706MOL0     H93166  -1.085   7.791   0.898  3.0504 -1.5158  0.7245
  706MOL0     H93167  -1.012   7.646   0.898  0.7401  2.0969  0.7012
  706MOL0     H93168  -1.252   7.537   0.863  1.5296  0.5811 -1.8668
  706MOL0     H93169  -1.321   7.694   0.867  0.3300 -0.0725  0.9338
  706MOL0     H93170  -1.156   7.575   1.111 -0.3574 -0.1553 -0.4827
  706MOL0     H93171  -1.186   7.740   1.085 -3.4181  0.3556  0.2880
  706MOL0     H93172  -1.430   7.711   1.092  1.8133  1.3378  0.4873
  706MOL0     H93173  -1.350   7.642   1.232 -1.0614 -1.3472  0.5534
  706MOL0     H93174  -0.546   7.893   0.717 -0.6785  0.4431 -0.1725
  706MOL0     H93175  -0.304   7.865   0.711  0.7743  0.4259 -1.0470
  706MOL0     H93176   0.051   7.707   0.426  1.1789 -1.2264 -0.1538
  706MOL0     H93177   0.273   7.681   0.370  1.5642  0.0284  0.7088
  706MOL0     H93178   2.278   7.751   0.532 -2.1056  1.3312  4.1173
  706MOL0     H93179   2.454   7.685   0.689 -2.9854  1.0742  1.2494
  706MOL0     H93180   2.578   7.574   1.177  0.6884  3.0980 -4.2894
  706MOL0     H93181   2.764   7.476   1.300  0.8725  3.2049 -0.7724
  706MOL0     H93182   2.982   7.369   1.399 -1.5291 -0.0601 -0.9641
  706MOL0     H93183   3.013   7.509   1.307 -1.2370 -0.3567  2.6759
  706MOL0     H93184   3.243   7.416   1.373  1.0054 -2.7818  0.5398
  706MOL0     H93185   3.197   7.262   1.306  0.7385  0.6268  1.4735
  706MOL0     H93186   3.329   7.462   1.172 -0.1191 -0.1621 -2.9781
  706MOL0     H93187   3.171   7.491   1.110 -1.7000 -0.0816  2.0860
  706MOL0     H93188   3.293   7.209   1.096 -1.4819 -0.5234 -0.1832
  706MOL0     H93189   3.146   7.260   1.016  0.6570 -2.4895  0.8032
  706MOL0     H93190   3.468   7.358   0.768 -0.8542  2.7563 -0.9284
  706MOL0     H93191   2.915   7.296   0.939 -0.1726 -1.5623  1.6425
  706MOL0     H93192   2.719   7.352   0.828 -1.0926  4.5472 -2.6112
  707MOL0     O93193   0.295   8.741  11.116 -0.1390 -0.4113 -0.0710
  707MOL0     C93194   0.321   8.763  11.229 -0.3398 -0.2853  0.5523
  707MOL0     O93195   0.229   8.803  11.324 -0.1315 -0.3149  0.1226
  707MOL0     C93196   0.104   8.788  11.287 -0.1982  0.6055 -0.3932
  707MOL0     C93197   0.020   8.895  11.245 -0.3972  0.8602  0.5550
  707MOL0     C93198  -0.118   8.873  11.232 -0.3553  0.9346 -0.2130
  707MOL0     C93199  -0.169   8.745  11.244 -0.4751  0.1680  0.5778
  707MOL0     O93200  -0.304   8.718  11.232 -0.0337 -0.4098  0.4346
  707MOL0     C93201  -0.343   8.672  11.100 -0.1686 -0.1811  0.2691
  707MOL0     C93202  -0.495   8.678  11.081  0.3825  0.1702 -0.6596
  707MOL0     C93203  -0.571   8.597  11.195 -0.4327  0.0239  0.4957
  707MOL0     C93204  -0.708   8.585  11.155  0.5472  0.6081  0.5480
  707MOL0     C93205  -0.790   8.484  11.237 -0.4450  0.3545  0.2249
  707MOL0     C93206  -0.761   8.339  11.216  1.3770 -0.5708  0.2821
  707MOL0     C93207  -0.765   8.294  11.068  0.0884 -0.4520 -0.5255
  707MOL0     C93208  -0.797   8.144  11.055 -0.7380 -0.2888  0.9112
  707MOL0     N93209  -0.927   8.111  11.105  0.2948  0.3691  0.0078
  707MOL0     C93210  -0.967   8.057  11.229 -1.0440 -0.0388 -0.8345
  707MOL0     C93211  -1.098   8.057  11.231 -0.6034 -1.1179  0.3861
  707MOL0     C93212  -1.173   8.012  11.356 -0.5955  0.0978  1.3845
  707MOL0     C93213  -1.324   8.026  11.327 -0.0218 -0.7877  0.3360
  707MOL0     C93214  -1.387   7.917  11.241  0.2529 -0.5713 -0.2651
  707MOL0     C93215  -1.530   7.940  11.209 -0.7113  0.3948  0.1553
  707MOL0     O93216  -1.621   7.910  11.312 -0.1691 -0.2531  0.0228
  707MOL0     C93217  -1.757   7.876  11.281 -0.4597 -0.1596 -0.6512
  707MOL0     C93218  -1.805   7.807  11.171 -1.1563 -0.3213 -0.4850
  707MOL0     C93219  -1.941   7.791  11.155 -0.5405 -0.1760  0.2053
  707MOL0     C93220  -2.033   7.828  11.252 -1.6086 -0.6402 -0.3653
  707MOL0     C93221  -2.174   7.806  11.234  0.3495 -0.0760 -0.1713
  707MOL0     O93222  -2.214   7.676  11.225 -0.2806  0.1281 -0.2765
  707MOL0     C93223  -2.340   7.634  11.229  0.2149 -0.0373  0.0356
  707MOL0     C93224  -2.433   7.694  11.316  1.1350  0.5540 -0.0016
  707MOL0     C93225  -2.563   7.651  11.332 -0.1779 -0.2124  0.1560
  707MOL0     C93226  -2.596   7.536  11.261 -0.5793 -0.0810  0.6071
  707MOL0     O93227  -2.718   7.486  11.273 -0.4361 -0.3195 -0.2089
  707MOL0     C93228  -2.790   7.465  11.155 -0.3938  0.4921  0.1276
  707MOL0     C93229  -2.923   7.540  11.158 -0.1661 -0.2613  0.8287
  707MOL0     C93230  -2.928   7.675  11.088 -0.1646 -0.9637  0.3204
  707MOL0     C93231  -3.046   7.754  11.135 -0.1385  0.0116 -0.1867
  707MOL0     C93232  -3.080   7.884  11.069 -0.5306 -0.3452 -0.0612
  707MOL0     C93233  -3.113   7.893  10.924  0.5753 -0.0026 -0.2155
  707MOL0     C93234  -3.252   7.819  10.899  0.6789  0.4773 -0.7831
  707MOL0     C93235  -3.270   7.805  10.752 -1.0419  1.0918 -0.2733
  707MOL0    Cl93236  -3.290   7.958  10.665 -0.0467 -0.2728  0.2955
  707MOL0     C93237  -2.494   7.462  11.182  0.1377 -0.0076 -0.2008
  707MOL0     C93238  -2.366   7.510  11.174  0.8999  0.3122  0.6904
  707MOL0     O93239  -2.246   7.899  11.234  0.1746 -0.0391  0.2811
  707MOL0     C93240  -1.985   7.878  11.377  0.0642 -0.4116  0.2800
  707MOL0     C93241  -1.848   7.905  11.386  0.3832 -0.6378  1.1701
  707MOL0     N93242  -1.145   8.103  11.122 -0.2455 -1.0572  0.5130
  707MOL0     N93243  -1.045   8.139  11.048 -0.1566 -0.2399 -0.3178
  707MOL0     C93244  -0.087   8.641  11.282 -0.6392 -0.4951  0.6467
  707MOL0     C93245   0.043   8.665  11.312  0.8741 -0.8248 -0.2293
  707MOL0     C93246   0.462   8.754  11.271 -0.9836  0.5794  0.3840
  707MOL0     C93247   0.558   8.722  11.177 -0.2421  0.3890  0.5033
  707MOL0     C93248   0.692   8.717  11.217 -0.2262  0.1165 -0.1682
  707MOL0     C93249   0.722   8.739  11.350 -0.3315 -0.5119  0.1273
  707MOL0     O93250   0.858   8.730  11.381 -0.1605  0.2240 -0.3087
  707MOL0     C93251   0.933   8.858  11.378 -0.5865  0.8600  0.3681
  707MOL0     C93252   1.074   8.843  11.325 -0.1561  0.6978 -0.6899
  707MOL0     C93253   1.164   8.963  11.342 -0.4764 -0.1631 -0.1897
  707MOL0     C93254   1.303   8.924  11.303 -1.3649  0.3154  1.1069
  707MOL0     C93255   1.406   9.031  11.311 -0.5529  0.4829 -0.2661
  707MOL0     C93256   1.495   9.118  11.319 -0.3614  0.7404 -0.5582
  707MOL0     C93257   0.626   8.773  11.442  0.7394  0.2566 -0.2580
  707MOL0     C93258   0.493   8.789  11.405 -1.0844 -0.0356 -0.5288
  707MOL0     H93259   0.073   8.988  11.228  0.7860 -0.2817 -2.8306
  707MOL0     H93260  -0.183   8.957  11.206 -2.8431  0.4822  3.7179
  707MOL0     H93261  -0.310   8.568  11.086  0.7943 -0.0709  1.5784
  707MOL0     H93262  -0.287   8.729  11.025  1.2399 -0.5334  1.0129
  707MOL0     H93263  -0.510   8.620  10.990 -0.0954  0.5567 -0.8281
  707MOL0     H93264  -0.530   8.781  11.075 -0.3785  0.3469  3.5830
  707MOL0     H93265  -0.581   8.653  11.289  1.0493 -0.8724  1.2361
  707MOL0     H93266  -0.525   8.498  11.208  0.1483  0.2042 -0.1501
  707MOL0     H93267  -0.762   8.679  11.169  2.7814  1.5818  3.8251
  707MOL0     H93268  -0.717   8.555  11.050  0.1012 -2.1782  1.2895
  707MOL0     H93269  -0.891   8.504  11.201 -0.7402 -3.7241 -1.7711
  707MOL0     H93270  -0.780   8.510  11.343  4.4035  0.8635 -0.1341
  707MOL0     H93271  -0.830   8.285  11.282  0.1113  0.0289 -0.5038
  707MOL0     H93272  -0.662   8.316  11.257  2.1405  2.1216  0.1262
  707MOL0     H93273  -0.844   8.336  11.004 -0.6598 -3.1371 -1.5466
  707MOL0     H93274  -0.668   8.315  11.021  0.1588  0.8379  0.1575
  707MOL0     H93275  -0.721   8.080  11.101 -0.0616  2.2853  3.6619
  707MOL0     H93276  -0.795   8.118  10.948 -1.1316 -1.2353  1.1185
  707MOL0     H93277  -0.900   8.033  11.311  0.8173  1.2990 -1.8885
  707MOL0     H93278  -1.131   8.080  11.431  1.7167 -0.0106  0.2652
  707MOL0     H93279  -1.157   7.906  11.378  1.4542  0.1137  0.2584
  707MOL0     H93280  -1.322   8.127  11.286  0.5996  0.0530  2.3120
  707MOL0     H93281  -1.380   8.025  11.421 -0.7485 -1.0873 -0.0908
  707MOL0     H93282  -1.335   7.912  11.145  0.1735 -2.1716 -0.2419
  707MOL0     H93283  -1.392   7.821  11.292 -0.0460 -1.1042 -1.2663
  707MOL0     H93284  -1.555   7.867  11.132  2.0416 -1.4189  0.8032
  707MOL0     H93285  -1.553   8.043  11.183 -1.4657  0.7974  2.2052
  707MOL0     H93286  -1.737   7.769  11.095  1.5783  1.5666  0.8569
  707MOL0     H93287  -1.981   7.749  11.064  0.3921 -0.0482 -0.2787
  707MOL0     H93288  -2.404   7.782  11.372 -2.0741  1.7155  0.0366
  707MOL0     H93289  -2.641   7.696  11.392  0.1104 -0.6116  0.8443
  707MOL0     H93290  -2.810   7.357  11.150 -0.4382  0.5417 -0.9983
  707MOL0     H93291  -2.733   7.485  11.065  1.1128  0.8642  1.1348
  707MOL0     H93292  -2.953   7.558  11.261 -0.0938  2.0359  0.4891
  707MOL0     H93293  -2.991   7.474  11.102 -1.7506  1.9619 -0.0253
  707MOL0     H93294  -2.931   7.667  10.979  1.7657  2.7670 -0.1477
  707MOL0     H93295  -2.844   7.734  11.124 -1.0664 -0.9343  2.5529
  707MOL0     H93296  -3.134   7.691  11.119 -0.8147  1.2014 -1.3165
  707MOL0     H93297  -3.025   7.776  11.240  1.3478  1.3079 -0.7146
  707MOL0     H93298  -2.991   7.946  11.082  0.6487 -2.0779  0.5295
  707MOL0     H93299  -3.168   7.925  11.118 -1.4362 -0.4019 -1.5793
  707MOL0     H93300  -3.018   7.869  10.875  2.5666  1.0240  2.8713
  707MOL0     H93301  -3.131   7.998  10.896 -0.8497  0.5056  2.3300
  707MOL0     H93302  -3.255   7.730  10.963  1.9833  2.8826  2.9288
  707MOL0     H93303  -3.337   7.881  10.929  0.8410 -1.0438  3.5569
  707MOL0     H93304  -3.356   7.741  10.727 -2.0434  2.5162 -0.5878
  707MOL0     H93305  -3.175   7.766  10.715 -0.3768  1.3112  1.1475
  707MOL0     H93306  -2.527   7.372  11.130 -1.9593 -0.7662  2.1924
  707MOL0     H93307  -2.292   7.458  11.115  1.0312  0.3768  0.7985
  707MOL0     H93308  -2.068   7.889  11.446 -2.8464 -4.0225 -2.1701
  707MOL0     H93309  -1.798   7.955  11.468  2.9350 -3.2535  1.3602
  707MOL0     H93310  -0.127   8.541  11.294 -0.2598 -0.6346  0.7441
  707MOL0     H93311   0.101   8.578  11.339 -0.5985 -2.7588 -2.8146
  707MOL0     H93312   0.531   8.700  11.074 -2.9379  1.6342  0.8531
  707MOL0     H93313   0.774   8.698  11.148 -0.5526  0.0841 -0.5548
  707MOL0     H93314   0.949   8.885  11.483  1.2026 -0.6321  0.5399
  707MOL0     H93315   0.877   8.933  11.322  4.1666  3.5864 -1.3302
  707MOL0     H93316   1.128   8.757  11.366  2.6413  2.6519  0.0675
  707MOL0     H93317   1.066   8.815  11.220 -0.3792 -1.4968 -0.1378
  707MOL0     H93318   1.159   8.990  11.448  0.7632 -0.1695 -0.1157
  707MOL0     H93319   1.130   9.044  11.276  0.0804 -2.1599 -3.1401
  707MOL0     H93320   1.323   8.839  11.369 -0.9070 -1.2161 -0.9172
  707MOL0     H93321   1.304   8.908  11.195  0.5784  0.4167  1.0794
  707MOL0     H93322   1.571   9.189  11.345 -0.6156  0.7355  0.2428
  707MOL0     H93323   0.654   8.793  11.545 -3.8885 -1.4335  1.5871
  707MOL0     H93324   0.424   8.817  11.484 -0.4129 -1.9014  0.7704
  708MOL0     O93325   7.163  11.302   9.570 -0.0154  0.1177  0.9998
  708MOL0     C93326   7.178  11.378   9.663  0.1784  1.0000 -1.2200
  708MOL0     O93327   7.081  11.465   9.715  0.4265  0.4207 -0.5362
  708MOL0     C93328   6.974  11.499   9.634 -0.6408 -1.0930  0.2391
  708MOL0     C93329   6.932  11.631   9.625 -0.0474  0.5755 -0.4707
  708MOL0     C93330   6.805  11.663   9.571  0.3119  0.1288  0.0325
  708MOL0     C93331   6.724  11.570   9.513  0.7895 -1.0336  0.1643
  708MOL0     O93332   6.600  11.616   9.471  0.6465  0.0670  0.1418
  708MOL0     C93333   6.511  11.533   9.390 -0.3131 -0.0027 -0.4166
  708MOL0     C93334   6.359  11.564   9.422 -0.5202  0.0396 -0.0047
  708MOL0     C93335   6.305  11.679   9.341  0.0720 -1.1193  0.4481
  708MOL0     C93336   6.155  11.687   9.362 -0.1149  0.9182  0.8699
  708MOL0     C93337   6.085  11.773   9.262 -0.3071  1.0010  1.0884
  708MOL0     C93338   5.931  11.753   9.270 -0.5872 -0.0979  0.1076
  708MOL0     C93339   5.864  11.824   9.149 -0.2584 -0.1436 -0.5955
  708MOL0     C93340   5.713  11.809   9.144  0.1694 -0.4157 -0.7207
  708MOL0     N93341   5.642  11.904   9.054 -0.0883 -0.6433 -0.1240
  708MOL0     C93342   5.507  11.904   9.028  0.6514  0.1836 -0.7227
  708MOL0     C93343   5.496  12.016   8.946  0.3245 -0.3518  0.6604
  708MOL0     C93344   5.366  12.059   8.881  0.5076  0.4967 -0.3958
  708MOL0     C93345   5.345  12.205   8.930 -0.1980  0.2560 -0.2182
  708MOL0     C93346   5.218  12.269   8.864  0.5755  0.5163 -0.3613
  708MOL0     C93347   5.178  12.392   8.938 -0.4264  0.3508 -0.2507
  708MOL0     O93348   5.129  12.379   9.075 -0.1965 -0.5338 -0.2791
  708MOL0     C93349   4.997  12.356   9.097 -0.3834  0.8801 -0.0343
  708MOL0     C93350   4.934  12.385   9.218  0.1206 -0.6743  0.2454
  708MOL0     C93351   4.801  12.361   9.246  0.0903  0.1777  0.0576
  708MOL0     C93352   4.725  12.298   9.145  0.1148  0.0998 -0.1151
  708MOL0     C93353   4.579  12.275   9.173  1.0273  1.1797 -0.0806
  708MOL0     O93354   4.509  12.220   9.073 -0.1969  1.0440  0.0031
  708MOL0     C93355   4.380  12.176   9.098 -0.4376 -0.0529 -0.0426
  708MOL0     C93356   4.277  12.266   9.144  0.2075 -1.3080  0.5810
  708MOL0     C93357   4.149  12.220   9.135 -0.4715 -0.5058  0.1661
  708MOL0     C93358   4.127  12.083   9.114 -0.6101  0.1472 -0.2376
  708MOL0     O93359   3.995  12.042   9.128  0.5913 -0.0429  0.3379
  708MOL0     C93360   3.968  11.899   9.160 -0.1015 -0.1090  0.3731
  708MOL0     C93361   3.824  11.861   9.198 -0.2810 -0.3908  0.5508
  708MOL0     C93362   3.731  11.919   9.084  0.3764  0.2340 -0.2738
  708MOL0     C93363   3.588  11.868   9.116  0.4812  0.0854 -0.2082
  708MOL0     C93364   3.503  11.921   9.004 -0.1335 -0.2477  0.3974
  708MOL0     C93365   3.363  11.864   9.027 -0.0417  0.5097  0.5979
  708MOL0     C93366   3.243  11.948   8.962 -0.5670  0.2784 -0.2264
  708MOL0     C93367   3.112  11.876   8.992  0.0226  0.6739 -0.2059
  708MOL0    Cl93368   3.098  11.714   8.907 -0.1860 -0.0681  0.0130
  708MOL0     C93369   4.236  11.991   9.073 -0.8213 -0.4944  0.5343
  708MOL0     C93370   4.362  12.042   9.059  0.4204 -0.3624 -0.7633
  708MOL0     O93371   4.525  12.326   9.272  0.7140  0.7519  0.0941
  708MOL0     C93372   4.781  12.278   9.020  0.1138  0.2170 -0.5148
  708MOL0     C93373   4.913  12.311   8.990 -0.5530 -0.4523  0.3980
  708MOL0     N93374   5.615  12.071   8.928 -0.0783  0.3227  0.6127
  708MOL0     N93375   5.699  12.012   9.003  0.3246  0.5688  0.7871
  708MOL0     C93376   6.770  11.434   9.514 -0.3131  0.5429  0.0224
  708MOL0     C93377   6.893  11.396   9.569 -0.1897 -0.1839  0.8074
  708MOL0     C93378   7.313  11.360   9.730 -0.6455 -0.4399 -0.2002
  708MOL0     C93379   7.366  11.459   9.807 -0.2907 -0.9200 -0.7095
  708MOL0     C93380   7.498  11.456   9.863  0.4223  0.0499 -0.7021
  708MOL0     C93381   7.570  11.341   9.847 -0.4087  0.4457  0.9921
  708MOL0     O93382   7.686  11.323   9.911 -0.0882 -0.4429 -0.5819
  708MOL0     C93383   7.720  11.406  10.010 -0.7404  0.1624 -0.0515
  708MOL0     C93384   7.860  11.364  10.061  0.7156  0.0680  0.6132
  708MOL0     C93385   7.971  11.377   9.950  0.8173  0.3015 -0.2095
  708MOL0     C93386   8.104  11.445  10.004 -0.0478 -1.0038  0.9774
  708MOL0     C93387   8.194  11.342  10.059  0.1988  0.1468  0.5881
  708MOL0     C93388   8.253  11.264  10.134  0.6804  0.9662  0.7225
  708MOL0     C93389   7.521  11.238   9.765  0.3517  0.4425  1.0139
  708MOL0     C93390   7.392  11.244   9.714 -0.3619  0.7388  0.4329
  708MOL0     H93391   6.993  11.705   9.676 -0.5394  2.7858 -2.8840
  708MOL0     H93392   6.770  11.763   9.592 -0.7484  0.5130 -3.0106
  708MOL0     H93393   6.529  11.426   9.410  0.4138  0.0232 -0.8933
  708MOL0     H93394   6.532  11.551   9.284  0.2652  0.9501 -0.1475
  708MOL0     H93395   6.351  11.580   9.530 -0.6284  1.0990 -0.1552
  708MOL0     H93396   6.302  11.471   9.419  1.1106 -0.9831 -1.0340
  708MOL0     H93397   6.326  11.665   9.235 -0.4493 -0.0896  0.1993
  708MOL0     H93398   6.359  11.769   9.373 -1.3818 -0.1784  0.3539
  708MOL0     H93399   6.119  11.584   9.352 -0.1191  0.8850  1.2204
  708MOL0     H93400   6.132  11.709   9.467 -0.3590  0.3715  0.9379
  708MOL0     H93401   6.109  11.748   9.158 -0.2936  4.9845 -0.0314
  708MOL0     H93402   6.118  11.876   9.276  0.1924  1.0362 -0.1899
  708MOL0     H93403   5.882  11.774   9.366  0.1349 -0.1781  0.5048
  708MOL0     H93404   5.902  11.650   9.247  0.4962 -0.7711  1.5754
  708MOL0     H93405   5.893  11.928   9.137 -0.3899 -0.1540 -1.0318
  708MOL0     H93406   5.900  11.771   9.060 -2.9522 -1.0525 -1.2419
  708MOL0     H93407   5.674  11.828   9.244 -0.3715 -0.2721 -0.9587
  708MOL0     H93408   5.692  11.705   9.121  0.3252  0.0342 -3.2171
  708MOL0     H93409   5.424  11.844   9.064  1.4614 -1.0008 -0.7977
  708MOL0     H93410   5.283  11.996   8.914 -0.3822  2.0331  0.3701
  708MOL0     H93411   5.374  12.054   8.772 -1.5961 -0.1610 -0.5683
  708MOL0     H93412   5.436  12.263   8.912 -0.3000 -0.3087 -2.9722
  708MOL0     H93413   5.314  12.192   9.034  1.6621 -1.4192  0.2064
  708MOL0     H93414   5.244  12.292   8.760 -1.7273  2.8108 -0.5263
  708MOL0     H93415   5.142  12.190   8.859  2.4444 -1.5540  1.8046
  708MOL0     H93416   5.105  12.448   8.878 -0.9294  0.5077  0.4943
  708MOL0     H93417   5.260  12.463   8.949  0.4614 -0.8282  1.1390
  708MOL0     H93418   4.996  12.436   9.290 -1.7432  0.2393  1.2835
  708MOL0     H93419   4.757  12.369   9.344 -0.1720 -2.3831  0.2397
  708MOL0     H93420   4.306  12.369   9.162  1.2820 -1.3967 -0.4623
  708MOL0     H93421   4.061  12.279   9.158  0.3406  1.4115 -1.3315
  708MOL0     H93422   4.045  11.880   9.235  1.5421  1.6024 -0.7758
  708MOL0     H93423   3.998  11.833   9.078  0.0995 -0.9842  1.1414
  708MOL0     H93424   3.803  11.895   9.300 -1.5348  2.3894 -0.5304
  708MOL0     H93425   3.812  11.752   9.203 -1.2396 -0.2973  0.4948
  708MOL0     H93426   3.760  11.893   8.982  2.0579  1.4497 -0.1528
  708MOL0     H93427   3.722  12.028   9.093 -2.2370  0.0592 -0.0699
  708MOL0     H93428   3.590  11.761   9.137  2.7082  0.4607  1.8169
  708MOL0     H93429   3.554  11.917   9.208  0.6588  0.9455 -0.5870
  708MOL0     H93430   3.542  11.883   8.909  1.8443 -0.6533  1.3079
  708MOL0     H93431   3.503  12.031   9.002 -3.5034 -0.0891 -3.1423
  708MOL0     H93432   3.332  11.864   9.132 -4.1278  0.0243 -0.4300
  708MOL0     H93433   3.366  11.761   8.992 -1.9550  1.1311 -1.7080
  708MOL0     H93434   3.243  12.045   9.013 -2.7445 -0.4512  1.2948
  708MOL0     H93435   3.246  11.969   8.854 -0.5326  3.0165  0.2307
  708MOL0     H93436   3.027  11.936   8.960 -0.4102  1.2667  1.9044
  708MOL0     H93437   3.103  11.875   9.101 -0.1239  1.9628 -0.1933
  708MOL0     H93438   4.222  11.885   9.051 -0.0271 -0.4112 -0.3721
  708MOL0     H93439   4.445  11.984   9.021  2.6395  1.1398  1.4325
  708MOL0     H93440   4.723  12.229   8.943 -0.0033 -1.3618  0.5234
  708MOL0     H93441   4.954  12.288   8.893  0.2217 -0.3327  0.6928
  708MOL0     H93442   6.716  11.346   9.482  0.7765  0.5788 -2.0568
  708MOL0     H93443   6.909  11.290   9.585 -2.7023 -0.8341 -0.5030
  708MOL0     H93444   7.299  11.542   9.827  1.4585 -0.1211  2.6570
  708MOL0     H93445   7.530  11.538   9.926 -0.2222  0.2224 -0.5876
  708MOL0     H93446   7.643  11.403  10.088 -0.2007 -0.5864  0.4658
  708MOL0     H93447   7.734  11.512   9.984  0.9128 -0.1582 -0.5720
  708MOL0     H93448   7.877  11.428  10.148 -1.1933  1.3505  0.1163
  708MOL0     H93449   7.846  11.261  10.096 -2.8415 -1.1989 -3.4967
  708MOL0     H93450   7.933  11.442   9.870  3.8060 -0.8923 -2.8090
  708MOL0     H93451   7.989  11.280   9.904 -1.6110 -0.6727  0.7242
  708MOL0     H93452   8.165  11.498   9.929  0.3892 -1.4430  1.0139
  708MOL0     H93453   8.076  11.519  10.079 -0.3992  0.3676 -0.4507
  708MOL0     H93454   8.319  11.205  10.196  1.4992  2.3266  1.1941
  708MOL0     H93455   7.582  11.152   9.740 -0.0312 -0.0223  1.6680
  708MOL0     H93456   7.352  11.159   9.660  0.6101  0.1994  0.5405
  709MOL0     O93457   9.401   6.712   3.924  0.1628  0.4712 -1.1115
  709MOL0     C93458   9.358   6.826   3.918  0.3046  0.7344  0.0571
  709MOL0     O93459   9.431   6.932   3.883  0.0150 -0.0669  0.4606
  709MOL0     C93460   9.563   6.913   3.851  0.4819  0.9109  0.6402
  709MOL0     C93461   9.596   6.861   3.725 -1.3010  0.6057 -0.7859
  709MOL0     C93462   9.731   6.855   3.690  0.2705 -0.1137  0.0501
  709MOL0     C93463   9.831   6.888   3.787 -0.2135 -0.9206  0.3470
  709MOL0     O93464   9.962   6.879   3.743 -0.0256 -0.0258 -0.0225
  709MOL0     C93465  10.062   6.933   3.839  0.6554 -0.5937  1.2183
  709MOL0     C93466  10.212   6.930   3.775  0.3294 -0.4256 -0.3346
  709MOL0     C93467  10.275   6.792   3.778 -0.5080 -0.0534  1.1437
  709MOL0     C93468  10.422   6.806   3.721 -0.0218 -0.3137 -0.3798
  709MOL0     C93469  10.490   6.674   3.694 -0.6810 -0.2580  0.2989
  709MOL0     C93470  10.611   6.698   3.599 -0.1262  0.1507  0.0216
  709MOL0     C93471  10.721   6.780   3.665  0.0001 -0.2777 -0.5460
  709MOL0     C93472  10.839   6.787   3.562  0.2692 -0.6349  0.4458
  709MOL0     N93473  10.952   6.849   3.625  0.1923  0.3286  0.2686
  709MOL0     C93474  10.945   6.971   3.699  1.0797  0.7901 -0.1535
  709MOL0     C93475  11.081   7.011   3.707  0.0729  0.1305 -0.3745
  709MOL0     C93476  11.137   7.134   3.770  0.3523  0.6121  0.0530
  709MOL0     C93477  11.211   7.098   3.900  0.1197 -0.2237  0.6945
  709MOL0     C93478  11.148   7.146   4.028 -0.1661  0.6264 -0.1852
  709MOL0     C93479  11.003   7.107   4.051 -0.3373  0.0993  0.1780
  709MOL0     O93480  11.001   6.971   4.069 -0.2834 -0.6728  0.4493
  709MOL0     C93481  10.887   6.900   4.064  0.1032  0.7274  0.1991
  709MOL0     C93482  10.758   6.951   4.078  1.0356 -0.3280  0.6579
  709MOL0     C93483  10.644   6.876   4.095  0.5580 -0.4494  1.3431
  709MOL0     C93484  10.645   6.739   4.072  0.8210  0.1833 -0.0738
  709MOL0     C93485  10.524   6.656   4.086  0.1860  0.6417  0.5961
  709MOL0     O93486  10.411   6.698   4.143  0.0336 -0.0177  0.2998
  709MOL0     C93487  10.329   6.597   4.203  0.4635 -0.3830  0.4171
  709MOL0     C93488  10.204   6.591   4.151  0.0217  0.4291  0.9776
  709MOL0     C93489  10.115   6.496   4.212 -0.7159  0.2571  0.6411
  709MOL0     C93490  10.153   6.406   4.312  0.2256  0.1639  0.0087
  709MOL0     O93491  10.071   6.320   4.377  0.7433  0.0584 -0.0698
  709MOL0     C93492   9.939   6.301   4.332  0.8510  0.5342  0.2559
  709MOL0     C93493   9.867   6.204   4.425  0.8642 -0.1674  1.0478
  709MOL0     C93494   9.713   6.208   4.404  1.0589 -0.3474 -0.2662
  709MOL0     C93495   9.647   6.110   4.504 -0.2820 -0.1729 -0.1727
  709MOL0     C93496   9.497   6.093   4.492 -0.3078 -0.4550  0.1180
  709MOL0     C93497   9.454   6.004   4.612 -0.3746 -0.4268 -0.0262
  709MOL0     C93498   9.303   6.038   4.638 -0.7036  0.0338  1.0430
  709MOL0     C93499   9.223   5.933   4.718  0.6004  0.1077 -0.0443
  709MOL0    Cl93500   9.263   5.936   4.889 -0.0166  0.2514  0.7795
  709MOL0     C93501  10.286   6.409   4.346  0.5496 -0.8018  0.9599
  709MOL0     C93502  10.367   6.499   4.288  0.2299  0.9799 -0.7510
  709MOL0     O93503  10.539   6.542   4.036  0.4788 -0.5566 -0.1683
  709MOL0     C93504  10.779   6.685   4.041  0.9501 -0.0240 -0.7797
  709MOL0     C93505  10.899   6.757   4.048 -0.8005  0.3144  0.0486
  709MOL0     N93506  11.154   6.917   3.641 -0.8598 -0.2074  1.1373
  709MOL0     N93507  11.083   6.821   3.601 -1.0376  0.3702 -0.3484
  709MOL0     C93508   9.790   6.930   3.915 -0.2828  0.0308  0.0323
  709MOL0     C93509   9.663   6.943   3.948  0.6901  0.3455 -0.5966
  709MOL0     C93510   9.217   6.850   3.968  0.8235 -0.0088  0.8772
  709MOL0     C93511   9.167   6.984   3.962 -0.1658 -0.2963  0.5433
  709MOL0     C93512   9.039   7.017   3.994 -0.4435  0.4337 -0.4996
  709MOL0     C93513   8.951   6.921   4.031  0.2608  0.9617 -0.2021
  709MOL0     O93514   8.818   6.963   4.051  0.0231  0.1661 -0.6329
  709MOL0     C93515   8.712   6.909   3.967  0.3103  0.3287 -0.2094
  709MOL0     C93516   8.596   7.010   3.961  0.2503  0.3848 -0.1242
  709MOL0     C93517   8.482   6.962   3.869 -0.3697 -0.4819  0.9276
  709MOL0     C93518   8.339   7.018   3.895 -0.4396 -0.9369 -0.0395
  709MOL0     C93519   8.330   7.160   3.885  0.3480  0.0749 -0.2203
  709MOL0     C93520   8.323   7.277   3.868  0.2025  0.0997  0.7394
  709MOL0     C93521   8.989   6.781   4.031  0.3642 -0.2706 -0.8593
  709MOL0     C93522   9.125   6.747   3.999  0.2325  0.5207 -0.4530
  709MOL0     H93523   9.509   6.848   3.661 -1.2345  0.6509 -0.8852
  709MOL0     H93524   9.747   6.817   3.589 -0.3068 -2.6275  0.8210
  709MOL0     H93525  10.057   6.888   3.938 -0.1289  0.5783  1.7302
  709MOL0     H93526  10.026   7.036   3.851 -0.5572 -0.6216 -1.3566
  709MOL0     H93527  10.283   6.993   3.830  1.1008 -0.8838 -0.7877
  709MOL0     H93528  10.188   6.964   3.674 -3.3612 -2.0381 -0.1607
  709MOL0     H93529  10.205   6.732   3.720  0.1412  1.1648 -0.9827
  709MOL0     H93530  10.287   6.759   3.882  3.5014  0.6184  1.0724
  709MOL0     H93531  10.402   6.855   3.625 -4.3053 -0.5141  0.2097
  709MOL0     H93532  10.477   6.873   3.788  1.3665 -1.1340 -0.6546
  709MOL0     H93533  10.420   6.610   3.639  0.2157 -0.3919 -0.7138
  709MOL0     H93534  10.523   6.621   3.784  0.6649 -1.6890 -0.9922
  709MOL0     H93535  10.587   6.763   3.514  0.9399 -1.3134 -1.4627
  709MOL0     H93536  10.644   6.597   3.577 -1.0209 -0.2386  0.4131
  709MOL0     H93537  10.675   6.876   3.690 -1.4906 -0.3728 -2.6137
  709MOL0     H93538  10.759   6.729   3.754  0.2028  0.3367 -0.2736
  709MOL0     H93539  10.804   6.838   3.472 -0.1328  1.7507  1.8590
  709MOL0     H93540  10.862   6.688   3.522  1.9113  0.0865 -0.5179
  709MOL0     H93541  10.867   7.024   3.753 -0.7702 -0.1601 -1.7608
  709MOL0     H93542  11.054   7.205   3.781  0.4554  0.4829  1.9738
  709MOL0     H93543  11.202   7.186   3.699  0.1955  2.0364  0.8924
  709MOL0     H93544  11.313   7.136   3.887  0.6769 -2.3471 -2.2842
  709MOL0     H93545  11.235   6.991   3.907  1.0909 -0.0299  0.5255
  709MOL0     H93546  11.203   7.104   4.113 -1.4525 -0.6956  0.0275
  709MOL0     H93547  11.163   7.254   4.036 -3.6230  1.3545 -1.6804
  709MOL0     H93548  10.934   7.132   3.970  1.7857  0.2408 -1.6898
  709MOL0     H93549  10.970   7.163   4.139  2.5574  2.1275  0.0964
  709MOL0     H93550  10.733   7.057   4.073  0.1012 -0.5594  0.1090
  709MOL0     H93551  10.553   6.933   4.113 -0.0256  0.3437 -3.0115
  709MOL0     H93552  10.181   6.658   4.069  1.1112 -0.1007  0.2225
  709MOL0     H93553  10.020   6.506   4.160  0.3272  0.8061 -1.2542
  709MOL0     H93554   9.935   6.264   4.229  0.0114 -1.4644  0.9588
  709MOL0     H93555   9.873   6.388   4.329  0.0613 -0.0441  0.6265
  709MOL0     H93556   9.894   6.216   4.530  0.2467 -2.9761  1.6098
  709MOL0     H93557   9.901   6.107   4.387 -0.6537 -1.2552  2.3177
  709MOL0     H93558   9.685   6.182   4.302 -0.0631 -6.0932  1.1678
  709MOL0     H93559   9.672   6.307   4.425 -1.3995 -1.2656 -0.3810
  709MOL0     H93560   9.699   6.014   4.497  1.0192  0.6249 -2.2323
  709MOL0     H93561   9.653   6.159   4.602 -0.1633  3.2874 -1.7663
  709MOL0     H93562   9.464   6.057   4.394 -0.3948 -1.1964  0.4151
  709MOL0     H93563   9.452   6.193   4.497  0.8057 -0.0009  1.7091
  709MOL0     H93564   9.515   6.024   4.701 -0.3849 -0.6003  0.0202
  709MOL0     H93565   9.455   5.900   4.578 -3.2492 -0.2422 -1.0048
  709MOL0     H93566   9.279   6.140   4.670 -1.0034 -0.1630  1.4514
  709MOL0     H93567   9.255   6.026   4.541  0.8058 -0.0561  0.2741
  709MOL0     H93568   9.242   5.836   4.671  2.3528  0.0418  0.7452
  709MOL0     H93569   9.116   5.954   4.711  0.7068  1.2852  1.5241
  709MOL0     H93570  10.332   6.347   4.423  0.8768 -0.2156  1.2364
  709MOL0     H93571  10.468   6.490   4.327  0.4055  0.7732 -1.2455
  709MOL0     H93572  10.769   6.586   3.999  1.4397  0.6061 -2.4842
  709MOL0     H93573  10.994   6.707   4.032 -0.6101  0.6083  0.2390
  709MOL0     H93574   9.865   6.955   3.991  0.8003 -3.2245  0.1726
  709MOL0     H93575   9.626   6.968   4.047 -3.0624 -1.1419 -1.4609
  709MOL0     H93576   9.217   7.070   3.917  2.7803 -1.6459  1.0323
  709MOL0     H93577   9.009   7.121   3.991  1.9871  1.4814  3.7087
  709MOL0     H93578   8.673   6.813   4.002 -0.0004  0.6980  0.4615
  709MOL0     H93579   8.754   6.913   3.866  1.5969  2.1380  0.3354
  709MOL0     H93580   8.570   7.016   4.067  2.5473  1.2721  0.4517
  709MOL0     H93581   8.618   7.113   3.930  2.1109  0.7109  1.9832
  709MOL0     H93582   8.484   6.853   3.869 -0.8497 -0.4965  1.3774
  709MOL0     H93583   8.528   6.988   3.773 -0.8300  1.5039  1.1999
  709MOL0     H93584   8.259   6.979   3.831 -1.6979 -1.5939  1.8655
  709MOL0     H93585   8.328   6.989   4.000  0.8038 -1.3275  0.0057
  709MOL0     H93586   8.320   7.381   3.843  0.6368 -0.3639 -1.4138
  709MOL0     H93587   8.915   6.712   4.071  0.4560  1.0473  1.7841
  709MOL0     H93588   9.146   6.641   4.004 -3.2046 -0.4557 -2.8409
  710MOL0     O93589   8.370   1.518   6.757  0.2906 -0.2086 -0.3223
  710MOL0     C93590   8.393   1.558   6.871  0.2616  0.6508  0.3503
  710MOL0     O93591   8.302   1.593   6.968 -0.1528 -0.1929  0.0643
  710MOL0     C93592   8.167   1.609   6.934 -1.3557 -0.3520 -0.0250
  710MOL0     C93593   8.078   1.580   7.042 -0.3807 -0.3599 -0.3009
  710MOL0     C93594   7.945   1.602   7.017  0.1380  0.1393  0.5319
  710MOL0     C93595   7.901   1.635   6.891 -0.3585 -0.0663  0.9242
  710MOL0     O93596   7.768   1.651   6.845  0.2762 -0.1453 -0.5837
  710MOL0     C93597   7.668   1.653   6.952 -0.7705  0.8356  0.3643
  710MOL0     C93598   7.532   1.676   6.885 -0.1541 -0.1144  0.7084
  710MOL0     C93599   7.534   1.631   6.731 -0.0862  0.0145  0.0360
  710MOL0     C93600   7.396   1.603   6.669  0.2800  0.7656 -0.4313
  710MOL0     C93601   7.389   1.485   6.567  0.6726 -0.6959  0.1875
  710MOL0     C93602   7.253   1.484   6.498 -0.2194  0.8435 -0.2102
  710MOL0     C93603   7.212   1.605   6.416 -0.1904  0.2976  0.1461
  710MOL0     C93604   7.101   1.702   6.477  0.2640  0.3049  0.2987
  710MOL0     N93605   6.968   1.630   6.493  0.4055 -0.2394 -0.3351
  710MOL0     C93606   6.862   1.673   6.563  0.2883  0.6103  0.0635
  710MOL0     C93607   6.761   1.581   6.542 -0.5179  0.2663 -0.0100
  710MOL0     C93608   6.624   1.563   6.593  0.1269 -0.5590  1.3103
  710MOL0     C93609   6.529   1.658   6.508 -0.3118 -0.9059 -0.2759
  710MOL0     C93610   6.388   1.609   6.522 -0.4613  0.5080 -0.4654
  710MOL0     C93611   6.275   1.675   6.443 -0.0441  0.2615 -0.4562
  710MOL0     O93612   6.153   1.608   6.476  0.2683 -0.0037 -0.8497
  710MOL0     C93613   6.042   1.632   6.395  0.3861 -0.2952 -0.2059
  710MOL0     C93614   6.038   1.726   6.290 -1.0079  0.0036 -0.3475
  710MOL0     C93615   5.917   1.765   6.238  0.1990 -0.0281  0.8686
  710MOL0     C93616   5.792   1.717   6.283 -0.4562  0.2909 -0.4183
  710MOL0     C93617   5.673   1.774   6.235  0.2726  0.2537  0.1486
  710MOL0     O93618   5.586   1.801   6.333  0.4286 -0.4138  0.2382
  710MOL0     C93619   5.455   1.809   6.302 -0.3011  1.0282  0.1838
  710MOL0     C93620   5.360   1.865   6.393 -0.7114 -0.9191 -0.5007
  710MOL0     C93621   5.219   1.860   6.375  0.1150 -0.6318 -0.4450
  710MOL0     C93622   5.160   1.813   6.261  0.0335  0.0596 -0.1359
  710MOL0     O93623   5.023   1.805   6.240 -0.0630 -0.0989 -0.1039
  710MOL0     C93624   4.940   1.902   6.300 -0.1418 -0.1939  0.1332
  710MOL0     C93625   4.833   1.951   6.208  0.2748  0.7386  0.4673
  710MOL0     C93626   4.708   1.859   6.180 -0.1842 -0.3902 -0.0663
  710MOL0     C93627   4.592   1.870   6.284  1.2340  0.8456 -0.2884
  710MOL0     C93628   4.459   1.802   6.245 -0.1614 -0.9340 -0.2377
  710MOL0     C93629   4.351   1.819   6.359 -0.2583  0.8463 -0.1079
  710MOL0     C93630   4.381   1.759   6.501  0.3043 -0.3028 -0.4926
  710MOL0     C93631   4.347   1.606   6.527 -0.7241 -0.2187  0.2305
  710MOL0    Cl93632   4.451   1.513   6.631 -0.3779 -0.0480 -0.4961
  710MOL0     C93633   5.249   1.749   6.176 -0.1262  0.7273  0.3114
  710MOL0     C93634   5.390   1.752   6.192  0.3472 -0.1230  1.0869
  710MOL0     O93635   5.666   1.795   6.114 -0.6164  0.1295  0.7691
  710MOL0     C93636   5.798   1.630   6.391 -0.2909  0.9759 -0.2704
  710MOL0     C93637   5.925   1.583   6.446 -0.2512 -0.4238 -0.8889
  710MOL0     N93638   6.822   1.471   6.480  0.0220  0.3060  0.4218
  710MOL0     N93639   6.943   1.509   6.437 -0.5090  0.0490  0.0346
  710MOL0     C93640   7.986   1.661   6.785 -0.6341  0.5601  0.7258
  710MOL0     C93641   8.119   1.645   6.804  0.1662 -0.4591  0.2765
  710MOL0     C93642   8.539   1.561   6.914 -0.3772  0.7728  0.1947
  710MOL0     C93643   8.567   1.606   7.040 -0.2912 -0.6020 -0.5984
  710MOL0     C93644   8.694   1.593   7.094 -0.1385 -0.3164  0.3668
  710MOL0     C93645   8.798   1.556   7.011  0.1770 -0.9417 -0.5764
  710MOL0     O93646   8.921   1.558   7.077  0.6535  0.0877 -0.1231
  710MOL0     C93647   9.038   1.549   6.996 -0.6642  0.2630  0.5902
  710MOL0     C93648   9.162   1.561   7.085 -0.3627  1.0432  0.2188
  710MOL0     C93649   9.157   1.684   7.176 -0.4097 -0.2506  0.6717
  710MOL0     C93650   9.289   1.696   7.262 -0.8279  0.0200  1.0728
  710MOL0     C93651   9.401   1.739   7.185  0.1925 -0.8758 -0.6594
  710MOL0     C93652   9.500   1.760   7.112 -1.1699  0.3900  0.3996
  710MOL0     C93653   8.775   1.518   6.877  0.6118  0.6171  0.2723
  710MOL0     C93654   8.643   1.513   6.840 -0.2059 -0.4643  0.3678
  710MOL0     H93655   8.113   1.543   7.138  1.4559  0.7762 -0.5058
  710MOL0     H93656   7.882   1.567   7.098 -1.7904  2.0643 -0.0428
  710MOL0     H93657   7.684   1.736   7.021  0.5023  0.0766  1.0357
  710MOL0     H93658   7.670   1.558   7.007  1.3075 -0.4113 -1.6615
  710MOL0     H93659   7.499   1.780   6.890  0.0477 -0.0639  1.0314
  710MOL0     H93660   7.456   1.621   6.940 -0.7374  1.6223  1.6942
  710MOL0     H93661   7.591   1.538   6.721  2.4131  1.4400  0.2760
  710MOL0     H93662   7.581   1.714   6.677 -0.8887 -0.6734 -1.8198
  710MOL0     H93663   7.329   1.563   6.745  0.6188 -0.9181 -0.9708
  710MOL0     H93664   7.357   1.693   6.621  3.0637  2.0027 -0.5726
  710MOL0     H93665   7.411   1.390   6.617 -1.5929 -1.2467  0.2336
  710MOL0     H93666   7.471   1.496   6.496  1.1903 -0.4346  0.8065
  710MOL0     H93667   7.176   1.454   6.569 -1.3181 -1.0902 -2.0775
  710MOL0     H93668   7.254   1.391   6.440  1.9527 -0.8467  2.3171
  710MOL0     H93669   7.302   1.663   6.392 -0.3044  2.0071  3.2872
  710MOL0     H93670   7.180   1.568   6.318 -1.6950  1.5479  0.1141
  710MOL0     H93671   7.068   1.779   6.407 -2.6945 -1.2010 -0.1214
  710MOL0     H93672   7.120   1.749   6.574  0.3365  0.2822  0.2961
  710MOL0     H93673   6.841   1.768   6.611 -0.0779  0.7711 -0.4067
  710MOL0     H93674   6.604   1.578   6.699 -0.1673 -1.9922  1.4874
  710MOL0     H93675   6.603   1.456   6.585 -2.7807  0.0611 -1.3784
  710MOL0     H93676   6.547   1.653   6.400  0.0299  0.6101 -0.3094
  710MOL0     H93677   6.538   1.763   6.539 -0.9642 -0.7254 -0.6756
  710MOL0     H93678   6.390   1.507   6.482 -0.6683  0.9546 -1.6714
  710MOL0     H93679   6.363   1.611   6.628  2.0866 -0.7627  0.2204
  710MOL0     H93680   6.297   1.669   6.336  0.5511  0.4640 -0.3499
  710MOL0     H93681   6.270   1.778   6.477 -0.3418  0.8439 -2.1754
  710MOL0     H93682   6.132   1.774   6.267 -0.8545  0.0775  0.3949
  710MOL0     H93683   5.920   1.831   6.152  0.9730 -1.6465 -0.4039
  710MOL0     H93684   5.397   1.896   6.491 -1.0108 -4.6807  0.9774
  710MOL0     H93685   5.159   1.885   6.463  0.4760 -3.7782  0.8048
  710MOL0     H93686   5.003   1.991   6.307 -1.7975  1.1424 -1.0172
  710MOL0     H93687   4.909   1.854   6.393 -2.3009  1.6328  0.4695
  710MOL0     H93688   4.883   1.971   6.113 -0.2187 -0.4954 -0.0813
  710MOL0     H93689   4.796   2.052   6.232  0.2814 -0.0867  4.6344
  710MOL0     H93690   4.736   1.755   6.161 -2.1804 -0.9196 -0.3977
  710MOL0     H93691   4.662   1.900   6.089 -0.9912  1.0584  0.9575
  710MOL0     H93692   4.627   1.826   6.377 -1.3625  0.5063  0.5917
  710MOL0     H93693   4.568   1.975   6.304 -1.8436 -0.0700  1.5002
  710MOL0     H93694   4.468   1.693   6.238 -2.3700 -1.3538  2.1167
  710MOL0     H93695   4.422   1.828   6.145  0.4969 -2.2755 -0.8621
  710MOL0     H93696   4.253   1.783   6.328 -0.0010  1.5688 -1.9060
  710MOL0     H93697   4.357   1.927   6.374  1.9542  0.4736  2.3368
  710MOL0     H93698   4.483   1.779   6.534 -0.2511  2.1424 -0.0859
  710MOL0     H93699   4.310   1.818   6.560 -0.6738 -0.2365 -1.6726
  710MOL0     H93700   4.342   1.544   6.436 -0.9074  0.4350 -0.2107
  710MOL0     H93701   4.245   1.591   6.562  0.1498 -3.2962  1.8371
  710MOL0     H93702   5.206   1.705   6.087  1.2122  0.1837 -0.0853
  710MOL0     H93703   5.442   1.687   6.123 -0.1300 -2.0163  2.4084
  710MOL0     H93704   5.703   1.589   6.423 -0.9990  1.5748 -1.5315
  710MOL0     H93705   5.934   1.519   6.533 -0.8596  1.7369  0.8533
  710MOL0     H93706   7.948   1.665   6.684  0.4957  0.4608  0.2852
  710MOL0     H93707   8.188   1.659   6.721  1.2431 -1.8332  0.8899
  710MOL0     H93708   8.487   1.636   7.107 -1.9812 -0.8888 -2.3878
  710MOL0     H93709   8.710   1.628   7.196 -2.6064 -2.1096  1.4598
  710MOL0     H93710   9.035   1.632   6.925  0.7250 -0.4176 -0.3170
  710MOL0     H93711   9.045   1.455   6.940 -0.1352  0.0428  1.0114
  710MOL0     H93712   9.170   1.471   7.146 -2.3620  0.2268 -0.6752
  710MOL0     H93713   9.250   1.563   7.019 -0.9480 -1.0638 -0.6829
  710MOL0     H93714   9.075   1.679   7.248  0.6315  0.1074  1.9299
  710MOL0     H93715   9.143   1.776   7.118  0.0022 -0.9031 -0.4911
  710MOL0     H93716   9.278   1.768   7.343  2.5634  0.6175  1.1547
  710MOL0     H93717   9.303   1.598   7.309  2.2133 -0.3569 -0.3785
  710MOL0     H93718   9.578   1.785   7.043 -0.2096  0.0260  1.3187
  710MOL0     H93719   8.853   1.491   6.807 -2.3224 -1.4812 -2.5102
  710MOL0     H93720   8.622   1.491   6.736  0.4830  0.1773  0.0851
  711MOL0     O93721   3.669  10.506   6.998  0.2597  0.3320 -0.2123
  711MOL0     C93722   3.719  10.570   7.093  1.1367  0.1329  0.7373
  711MOL0     O93723   3.654  10.672   7.159  0.0675  1.0901 -0.0855
  711MOL0     C93724   3.517  10.683   7.133 -0.7245 -0.1425 -0.9846
  711MOL0     C93725   3.424  10.575   7.117 -0.1977  0.6189 -0.0222
  711MOL0     C93726   3.291  10.608   7.085  0.5553 -0.3424 -0.1336
  711MOL0     C93727   3.248  10.741   7.054 -0.9180 -0.1928 -0.3762
  711MOL0     O93728   3.122  10.764   7.002 -0.7839  0.0371 -0.3276
  711MOL0     C93729   3.117  10.873   6.913 -0.1458  0.7246 -0.1964
  711MOL0     C93730   2.974  10.870   6.853 -0.3042  0.5743 -0.2495
  711MOL0     C93731   2.947  10.742   6.764 -0.4916 -0.3773  1.0684
  711MOL0     C93732   3.061  10.663   6.702 -0.1535 -0.3673  0.6074
  711MOL0     C93733   3.024  10.545   6.615  0.0673 -0.0516 -0.7470
  711MOL0     C93734   2.941  10.433   6.680  0.5989  0.6785  0.6707
  711MOL0     C93735   2.806  10.392   6.603 -0.0770  0.1030  0.0187
  711MOL0     C93736   2.715  10.286   6.662 -0.1994 -0.3161  0.5224
  711MOL0     N93737   2.612  10.242   6.564  0.1963  0.4259 -0.0213
  711MOL0     C93738   2.628  10.141   6.483  0.0892  0.3316 -0.2580
  711MOL0     C93739   2.509  10.110   6.426 -0.6447  0.5269 -0.2061
  711MOL0     C93740   2.468   9.992   6.345  0.7325  0.8649  0.6418
  711MOL0     C93741   2.317   9.984   6.302  0.0704  0.1522 -0.3557
  711MOL0     C93742   2.219   9.928   6.406 -0.0198  0.2749 -0.1589
  711MOL0     C93743   2.073   9.898   6.360  0.2132 -1.2377 -0.8562
  711MOL0     O93744   2.059   9.784   6.277 -0.7755  0.4029 -0.3972
  711MOL0     C93745   1.941   9.766   6.223  0.0969  0.5021 -0.2115
  711MOL0     C93746   1.950   9.705   6.091  0.4858 -0.7574 -0.3020
  711MOL0     C93747   1.844   9.695   6.002 -0.5641  0.4492 -0.0820
  711MOL0     C93748   1.717   9.734   6.042  0.7462  0.6667  0.0886
  711MOL0     C93749   1.608   9.690   5.958  0.2968  0.2506 -0.4735
  711MOL0     O93750   1.484   9.724   6.005 -0.5319  0.2499  1.0422
  711MOL0     C93751   1.367   9.710   5.929 -1.2547  0.1882  0.4721
  711MOL0     C93752   1.248   9.722   6.003 -0.3967 -0.6674  0.4933
  711MOL0     C93753   1.131   9.735   5.926  1.4555 -0.3152  0.1934
  711MOL0     C93754   1.123   9.713   5.789  1.0935  0.3204  0.5517
  711MOL0     O93755   0.997   9.726   5.733  0.4142  1.0445  0.8761
  711MOL0     C93756   0.981   9.746   5.590 -0.2909  0.7986 -0.9508
  711MOL0     C93757   0.845   9.702   5.539  0.0419 -0.7497  0.8632
  711MOL0     C93758   0.807   9.556   5.562 -0.0275  0.4162  0.4235
  711MOL0     C93759   0.680   9.518   5.495 -0.0383  0.6494  0.5741
  711MOL0     C93760   0.615   9.391   5.554  0.0915 -0.6367  0.8301
  711MOL0     C93761   0.562   9.392   5.705 -0.0982 -0.1226 -0.2726
  711MOL0     C93762   0.495   9.254   5.739 -0.2802 -0.3682 -0.2641
  711MOL0     C93763   0.363   9.273   5.795  0.2496  0.1856  0.0334
  711MOL0    Cl93764   0.259   9.126   5.762  0.0682 -0.0193 -0.0096
  711MOL0     C93765   1.238   9.689   5.717 -0.0025 -0.2080  0.1348
  711MOL0     C93766   1.358   9.687   5.790 -0.5025 -0.0558 -0.3692
  711MOL0     O93767   1.628   9.617   5.867 -0.0942  0.1894  0.5053
  711MOL0     C93768   1.702   9.783   6.168 -0.2474  0.9598  0.8330
  711MOL0     C93769   1.810   9.805   6.257  0.4305 -0.2175  1.0811
  711MOL0     N93770   2.419  10.209   6.473 -0.1522 -0.7938 -0.5511
  711MOL0     N93771   2.484  10.286   6.557  0.4332 -1.0034  0.7087
  711MOL0     C93772   3.343  10.848   7.070 -0.3524  0.2964  0.0603
  711MOL0     C93773   3.470  10.809   7.108 -0.4440 -1.0426 -0.2393
  711MOL0     C93774   3.858  10.555   7.126  0.1423 -0.1250 -0.3486
  711MOL0     C93775   3.936  10.659   7.172 -0.0655 -0.6445  0.1646
  711MOL0     C93776   4.071  10.650   7.169 -0.0601 -0.3891  0.1601
  711MOL0     C93777   4.146  10.541   7.124 -0.0006 -0.0914  0.4805
  711MOL0     O93778   4.283  10.536   7.113  0.2005 -0.0808  0.9501
  711MOL0     C93779   4.351  10.650   7.166 -0.3033  0.5102  0.3579
  711MOL0     C93780   4.501  10.622   7.171 -0.1504 -0.5974  0.3861
  711MOL0     C93781   4.568  10.621   7.042  1.4779 -0.6523 -1.3018
  711MOL0     C93782   4.708  10.565   7.047  0.9926 -0.4438 -0.0011
  711MOL0     C93783   4.681  10.420   7.027 -0.1460 -0.1840 -0.1145
  711MOL0     C93784   4.639  10.311   7.027  0.3681 -0.3245  0.9184
  711MOL0     C93785   4.065  10.432   7.084  0.2967  0.6782 -0.2393
  711MOL0     C93786   3.929  10.436   7.079 -0.0506  0.1683  0.4843
  711MOL0     H93787   3.449  10.471   7.133 -1.5940  0.3153  0.3322
  711MOL0     H93788   3.211  10.536   7.077  0.3662  0.0656 -2.8756
  711MOL0     H93789   3.185  10.857   6.829 -1.3358 -1.7656 -0.7746
  711MOL0     H93790   3.138  10.966   6.968  1.4563  0.8684 -1.0103
  711MOL0     H93791   2.956  10.957   6.789  1.4076  1.5166  0.4645
  711MOL0     H93792   2.902  10.871   6.935  0.3318 -0.3364  0.3525
  711MOL0     H93793   2.878  10.769   6.684 -1.3205 -1.0173  1.5442
  711MOL0     H93794   2.886  10.674   6.825 -0.4870 -1.4890 -0.1368
  711MOL0     H93795   3.114  10.731   6.635 -0.5963 -0.5480  0.0619
  711MOL0     H93796   3.120  10.614   6.780  1.0605 -0.6982 -0.4841
  711MOL0     H93797   3.114  10.497   6.576 -0.8771 -1.9856 -0.6345
  711MOL0     H93798   2.969  10.586   6.530  1.0938 -0.1026 -1.4559
  711MOL0     H93799   2.909  10.470   6.777 -1.3734  2.2882 -0.4963
  711MOL0     H93800   3.012  10.350   6.690  2.5702  2.0302 -1.1200
  711MOL0     H93801   2.751  10.484   6.582 -0.7156 -0.3487 -0.3100
  711MOL0     H93802   2.837  10.358   6.503  3.5277  2.8802 -0.0276
  711MOL0     H93803   2.665  10.333   6.748 -0.3738 -0.5734  0.5642
  711MOL0     H93804   2.779  10.203   6.694 -0.4548 -1.7953 -2.4566
  711MOL0     H93805   2.711  10.071   6.471 -0.1701  0.3067 -2.2133
  711MOL0     H93806   2.504   9.905   6.402  3.2574  0.9428 -0.7045
  711MOL0     H93807   2.530  10.003   6.256 -0.6922  1.3145 -0.3229
  711MOL0     H93808   2.305   9.926   6.210 -0.6866  1.1021 -0.8831
  711MOL0     H93809   2.288  10.088   6.281  1.3229  0.4807 -0.5301
  711MOL0     H93810   2.263   9.838   6.451  1.3288 -0.1161 -2.1362
  711MOL0     H93811   2.207  10.002   6.486 -1.7711 -0.0239 -0.1124
  711MOL0     H93812   2.034   9.992   6.320  1.7729  0.7784  1.9609
  711MOL0     H93813   2.020   9.874   6.453  0.4759 -2.5702 -1.0331
  711MOL0     H93814   2.042   9.669   6.046  1.1531  1.9840 -1.3501
  711MOL0     H93815   1.853   9.677   5.895 -0.3239  3.0492 -0.5607
  711MOL0     H93816   1.261   9.740   6.109  2.4117 -0.8342  0.2656
  711MOL0     H93817   1.042   9.759   5.984  2.5955  2.0326  1.1131
  711MOL0     H93818   1.054   9.699   5.523  1.0696  2.8519 -1.0198
  711MOL0     H93819   1.002   9.853   5.574 -2.5151  1.4600  0.1358
  711MOL0     H93820   0.834   9.710   5.431 -0.0669 -0.6061  0.8839
  711MOL0     H93821   0.769   9.774   5.572  0.4487  0.4274 -0.6496
  711MOL0     H93822   0.799   9.539   5.670  0.4316  0.9836  0.5531
  711MOL0     H93823   0.876   9.475   5.536 -0.8627 -0.0106 -0.5286
  711MOL0     H93824   0.602   9.594   5.511  1.8383  2.7472  0.2080
  711MOL0     H93825   0.695   9.505   5.388 -0.2884 -0.0574  0.6202
  711MOL0     H93826   0.697   9.321   5.536 -0.4808 -1.1221  0.0643
  711MOL0     H93827   0.542   9.354   5.482 -0.8864 -1.4804  2.2183
  711MOL0     H93828   0.494   9.478   5.710  1.3277  0.9735  1.4918
  711MOL0     H93829   0.640   9.411   5.778  0.4420  0.8241 -1.0720
  711MOL0     H93830   0.496   9.181   5.658 -3.1678 -5.1185  3.4763
  711MOL0     H93831   0.552   9.196   5.811  1.8203  4.3109  2.3461
  711MOL0     H93832   0.312   9.355   5.744 -1.6997  0.6204  2.4513
  711MOL0     H93833   0.370   9.278   5.904  0.6574 -3.1809  0.2697
  711MOL0     H93834   1.238   9.682   5.609 -1.3041  0.0072  0.1066
  711MOL0     H93835   1.441   9.676   5.722  0.3369 -0.2136  0.6556
  711MOL0     H93836   1.603   9.807   6.204 -0.5746  1.8360 -0.5919
  711MOL0     H93837   1.780   9.845   6.354 -1.6092  0.6502  0.1425
  711MOL0     H93838   3.324  10.953   7.054 -1.8059  0.2105  1.0017
  711MOL0     H93839   3.549  10.884   7.101  1.2155 -2.7707 -1.1096
  711MOL0     H93840   3.885  10.753   7.193 -3.0881 -2.6129  2.5131
  711MOL0     H93841   4.114  10.742   7.206 -1.3363 -1.1139  3.8326
  711MOL0     H93842   4.324  10.674   7.269  0.8302  2.8019  0.1992
  711MOL0     H93843   4.328  10.739   7.108  2.6252  1.0284 -0.1785
  711MOL0     H93844   4.562  10.685   7.236  2.0305 -4.2424  2.2071
  711MOL0     H93845   4.519  10.523   7.214 -0.9136 -1.5108 -1.2760
  711MOL0     H93846   4.595  10.725   7.023  1.4173 -0.0239  1.5531
  711MOL0     H93847   4.512  10.573   6.961  0.8184  0.7404 -1.7006
  711MOL0     H93848   4.766  10.614   6.968 -2.0590  0.1086 -2.0843
  711MOL0     H93849   4.763  10.586   7.140  0.2755  2.6230 -0.1670
  711MOL0     H93850   4.615  10.207   7.015 -1.7954  0.0785  1.3546
  711MOL0     H93851   4.117  10.340   7.060  0.4759  0.1754  1.9197
  711MOL0     H93852   3.875  10.348   7.046  0.0254  0.2856  0.0480
  712MOL0     O93853   8.979  10.980   4.217 -0.0715 -0.3201  0.2786
  712MOL0     C93854   9.021  11.030   4.109 -0.8940 -0.6913 -0.1790
  712MOL0     O93855   8.945  11.069   4.008  0.3397  0.0237 -0.1788
  712MOL0     C93856   8.813  11.096   4.034  0.1811  0.2619  0.0260
  712MOL0     C93857   8.728  11.076   3.922 -1.4364 -0.5492  0.5678
  712MOL0     C93858   8.599  11.119   3.916  0.2129  0.7176  0.8244
  712MOL0     C93859   8.544  11.176   4.032  0.3450 -0.2908 -0.9666
  712MOL0     O93860   8.415  11.215   4.054 -0.8731  0.1566  0.4876
  712MOL0     C93861   8.304  11.151   3.987  0.8593  0.4742 -0.1727
  712MOL0     C93862   8.177  11.148   4.072  0.2035  0.5412  0.9934
  712MOL0     C93863   8.046  11.089   4.015 -0.2892  0.3142  0.6015
  712MOL0     C93864   7.932  11.100   4.109  0.1611 -0.2628  0.1661
  712MOL0     C93865   7.802  11.042   4.049  0.2167  0.1016 -0.2406
  712MOL0     C93866   7.704  11.007   4.157  0.8768 -0.0676 -0.7712
  712MOL0     C93867   7.585  10.930   4.105  0.5075 -0.5525 -0.0434
  712MOL0     C93868   7.462  10.932   4.190  0.8030 -0.2246 -0.1740
  712MOL0     N93869   7.341  10.873   4.110 -0.5153  1.0947 -0.2138
  712MOL0     C93870   7.246  10.944   4.046 -0.0203  0.8230  0.6218
  712MOL0     C93871   7.169  10.853   3.981  0.2630  0.1022  0.3137
  712MOL0     C93872   7.058  10.912   3.891  1.0710 -0.7443 -0.0616
  712MOL0     C93873   6.917  10.898   3.948 -0.4272 -0.0053  0.6855
  712MOL0     C93874   6.881  10.990   4.071 -0.4767 -0.0205  0.9553
  712MOL0     C93875   6.732  10.985   4.091  0.1271 -0.9419  0.8339
  712MOL0     O93876   6.675  11.028   4.217 -0.3924 -0.0491 -0.5764
  712MOL0     C93877   6.543  10.997   4.248 -0.1546 -0.5206  0.4778
  712MOL0     C93878   6.527  10.978   4.386 -0.3715 -0.1015  0.9454
  712MOL0     C93879   6.401  10.947   4.439 -0.4686  0.1534  0.0691
  712MOL0     C93880   6.290  10.914   4.353  0.1907 -0.0084  0.7572
  712MOL0     C93881   6.163  10.866   4.402 -0.1778  0.3939  0.2920
  712MOL0     O93882   6.155  10.856   4.534  0.2585 -0.4730  0.0751
  712MOL0     C93883   6.027  10.825   4.584 -0.8490 -0.0177 -0.1010
  712MOL0     C93884   5.978  10.892   4.700 -0.1982 -0.9501  0.4741
  712MOL0     C93885   5.862  10.852   4.767  0.5150  0.1209  0.0909
  712MOL0     C93886   5.801  10.735   4.737 -0.0470 -0.2943 -0.2510
  712MOL0     O93887   5.691  10.699   4.811 -0.2693  0.0757  0.4554
  712MOL0     C93888   5.591  10.611   4.761  0.5498  0.3937  0.4660
  712MOL0     C93889   5.477  10.621   4.864  0.0463 -0.3272  0.3890
  712MOL0     C93890   5.353  10.536   4.816 -0.0640  0.6023 -0.9060
  712MOL0     C93891   5.267  10.498   4.947 -0.8576  1.0583  0.5268
  712MOL0     C93892   5.187  10.372   4.923  0.0809  0.0524 -0.6803
  712MOL0     C93893   5.048  10.389   4.869 -0.5096 -0.0260 -0.8830
  712MOL0     C93894   5.003  10.280   4.776  0.9163  0.0067  0.1122
  712MOL0     C93895   4.960  10.141   4.840  0.6387  0.8317 -1.0298
  712MOL0    Cl93896   4.822  10.157   4.942 -0.5386 -0.0283 -0.1126
  712MOL0     C93897   5.841  10.670   4.624  0.8859 -0.5518  0.1397
  712MOL0     C93898   5.958  10.711   4.558  0.1975 -0.2117 -0.9844
  712MOL0     O93899   6.076  10.849   4.314 -0.2180  0.0036 -0.8030
  712MOL0     C93900   6.314  10.928   4.216  0.3063 -0.1657  0.2963
  712MOL0     C93901   6.439  10.965   4.163 -0.0072  0.0768  0.2626
  712MOL0     N93902   7.213  10.731   4.024 -0.8618 -0.1505 -0.2929
  712MOL0     N93903   7.323  10.742   4.092 -0.3548  0.1726 -0.1540
  712MOL0     C93904   8.630  11.194   4.147  0.6786 -0.6722  0.0046
  712MOL0     C93905   8.768  11.168   4.144 -0.1885  0.2102  0.3205
  712MOL0     C93906   9.165  11.040   4.076 -0.2358  0.0030 -0.0338
  712MOL0     C93907   9.253  10.988   4.173 -0.0488  0.0094 -0.4814
  712MOL0     C93908   9.391  11.002   4.151 -0.1972 -0.4902 -0.6598
  712MOL0     C93909   9.439  11.061   4.035 -0.3007 -0.4371 -0.0092
  712MOL0     O93910   9.579  11.082   4.009  1.1241 -0.4917 -0.6058
  712MOL0     C93911   9.670  11.061   4.111  1.1174  0.6502 -0.7708
  712MOL0     C93912   9.803  11.072   4.046 -0.8850 -0.3409 -0.5570
  712MOL0     C93913   9.919  11.101   4.152  0.4148  0.0398 -0.5321
  712MOL0     C93914  10.060  11.052   4.113  0.7486  0.6400 -0.0722
  712MOL0     C93915  10.163  11.071   4.216 -0.4004  0.2826 -0.4651
  712MOL0     C93916  10.255  11.078   4.299  0.7571 -0.2825 -0.2088
  712MOL0     C93917   9.351  11.108   3.942  0.6369 -1.1302 -0.0054
  712MOL0     C93918   9.212  11.091   3.955  0.0563 -0.3354  0.4688
  712MOL0     H93919   8.760  11.034   3.826  2.3623 -1.3725  2.0030
  712MOL0     H93920   8.545  11.111   3.822  0.7144  3.5345  0.2032
  712MOL0     H93921   8.329  11.047   3.969 -0.6672  0.1870 -0.7230
  712MOL0     H93922   8.290  11.200   3.891  1.2707  2.3666  0.6734
  712MOL0     H93923   8.151  11.253   4.086  0.7151  1.4110 -3.2485
  712MOL0     H93924   8.193  11.102   4.170  2.2084 -4.2037 -1.2632
  712MOL0     H93925   8.057  10.984   3.984  1.0460  0.2742  1.1745
  712MOL0     H93926   8.018  11.147   3.927  0.6278 -0.6181 -0.3289
  712MOL0     H93927   7.956  11.051   4.204  1.7675 -1.5253 -0.8477
  712MOL0     H93928   7.912  11.200   4.149  1.6427 -0.0804  0.5015
  712MOL0     H93929   7.825  10.952   3.991  1.5947 -0.2410  0.7836
  712MOL0     H93930   7.766  11.129   3.994 -0.4788  2.6412  3.7861
  712MOL0     H93931   7.676  11.090   4.223  1.0902 -1.3003  0.9527
  712MOL0     H93932   7.758  10.945   4.229 -1.7065 -1.9330 -0.3017
  712MOL0     H93933   7.562  10.980   4.010  1.4545  0.5457  0.2807
  712MOL0     H93934   7.610  10.824   4.099 -2.2953 -1.3669  1.1172
  712MOL0     H93935   7.447  11.031   4.236  0.2723 -1.0063  1.3995
  712MOL0     H93936   7.481  10.876   4.282 -0.0625 -2.4192 -1.2836
  712MOL0     H93937   7.251  11.050   4.022  3.1551  0.1048 -2.6219
  712MOL0     H93938   7.054  10.859   3.796 -0.7849 -4.4507  1.8517
  712MOL0     H93939   7.068  11.019   3.870 -2.9168 -0.5016 -1.6132
  712MOL0     H93940   6.896  10.792   3.969  3.7744 -1.1707 -0.0352
  712MOL0     H93941   6.837  10.916   3.875 -1.2968  1.6110  1.9957
  712MOL0     H93942   6.920  10.946   4.164 -1.7520  0.3863  1.7013
  712MOL0     H93943   6.922  11.089   4.048  0.3431 -0.4515  0.5282
  712MOL0     H93944   6.699  10.883   4.068 -0.6380 -0.6447  0.5746
  712MOL0     H93945   6.684  11.034   4.005  0.5889  0.0971  1.1521
  712MOL0     H93946   6.604  10.987   4.462 -0.7185  1.5576  1.1348
  712MOL0     H93947   6.388  10.932   4.546 -0.0742  0.8526  0.2163
  712MOL0     H93948   6.035  10.974   4.742  0.4600  0.9131 -3.5834
  712MOL0     H93949   5.815  10.916   4.841 -1.9711 -2.1078  0.5949
  712MOL0     H93950   5.627  10.508   4.756  1.2920  0.3186  4.1483
  712MOL0     H93951   5.550  10.646   4.666  2.9541 -0.3392 -0.9161
  712MOL0     H93952   5.448  10.725   4.880 -0.2108 -0.7511  3.0263
  712MOL0     H93953   5.518  10.573   4.953  0.4136 -3.4513 -1.3178
  712MOL0     H93954   5.388  10.451   4.757 -0.0087  1.3229 -1.9312
  712MOL0     H93955   5.290  10.589   4.745 -1.9166  2.1543  1.7024
  712MOL0     H93956   5.341  10.475   5.025 -1.9143  1.0092  1.5450
  712MOL0     H93957   5.208  10.585   4.978  0.2434  2.2038 -0.4687
  712MOL0     H93958   5.185  10.310   5.014  0.6195  0.1163 -0.6232
  712MOL0     H93959   5.252  10.304   4.867 -0.9124  0.1336 -1.9894
  712MOL0     H93960   5.047  10.487   4.821  1.3697 -0.5612 -2.1506
  712MOL0     H93961   4.982  10.400   4.955  0.9397  2.2595  0.0177
  712MOL0     H93962   4.914  10.314   4.721  2.0778  0.3429 -1.6479
  712MOL0     H93963   5.075  10.265   4.695 -0.6303 -1.1338 -1.1202
  712MOL0     H93964   5.045  10.107   4.899 -0.5910  1.7655  1.4007
  712MOL0     H93965   4.946  10.060   4.767 -3.5399 -0.2267  0.6228
  712MOL0     H93966   5.803  10.576   4.585  0.3402  0.1647 -1.1398
  712MOL0     H93967   6.001  10.654   4.476 -0.1052 -1.0919 -0.5397
  712MOL0     H93968   6.233  10.907   4.146 -0.6971 -1.4798  1.7878
  712MOL0     H93969   6.458  10.972   4.056  1.8789 -1.7142  0.4110
  712MOL0     H93970   8.585  11.236   4.236 -0.7431 -2.4988  0.2065
  712MOL0     H93971   8.838  11.175   4.227  0.3968  0.9043 -0.2218
  712MOL0     H93972   9.204  10.929   4.250  1.7371 -3.5846 -1.8576
  712MOL0     H93973   9.460  10.976   4.230  0.0542 -1.1394 -1.0862
  712MOL0     H93974   9.656  10.957   4.143 -3.7917  1.3112  0.0093
  712MOL0     H93975   9.663  11.138   4.188  2.0242  1.0367 -1.0590
  712MOL0     H93976   9.836  10.990   3.982 -3.7306 -0.1317 -2.4832
  712MOL0     H93977   9.798  11.155   3.974 -1.6630 -1.3345 -1.6762
  712MOL0     H93978   9.892  11.046   4.243  1.2819 -3.0262 -2.0172
  712MOL0     H93979   9.925  11.207   4.179  2.0049 -0.5150  1.5491
  712MOL0     H93980  10.050  10.945   4.092  2.1668  0.9582 -2.9589
  712MOL0     H93981  10.091  11.096   4.017  0.1492  1.1496 -0.0370
  712MOL0     H93982  10.341  11.080   4.363 -0.0176 -0.2936  0.8657
  712MOL0     H93983   9.378  11.170   3.858  0.7377 -0.8529  0.2300
  712MOL0     H93984   9.152  11.116   3.869  0.0373 -1.3423  0.1672
  713MOL0     O93985   1.040   7.303   7.940  0.3616  0.7240 -0.0305
  713MOL0     C93986   0.954   7.278   8.030  0.8688  0.2465  0.8310
  713MOL0     O93987   0.977   7.224   8.155 -0.0769 -0.3067 -0.1332
  713MOL0     C93988   1.109   7.229   8.199 -0.0121 -0.3660 -0.2453
  713MOL0     C93989   1.176   7.350   8.190 -0.3592 -0.0930 -0.0310
  713MOL0     C93990   1.315   7.348   8.213 -0.4853 -0.2980  0.1201
  713MOL0     C93991   1.387   7.242   8.258 -0.3575  0.1542 -0.9305
  713MOL0     O93992   1.519   7.238   8.303  0.8355 -0.5131 -0.0889
  713MOL0     C93993   1.605   7.349   8.280  0.1448 -0.1649 -0.8076
  713MOL0     C93994   1.749   7.335   8.343  0.7198  0.7842 -1.0996
  713MOL0     C93995   1.845   7.437   8.282  0.0847 -0.0419 -1.0772
  713MOL0     C93996   1.952   7.489   8.385  0.5943 -0.5446 -0.0688
  713MOL0     C93997   2.061   7.558   8.299 -0.2462  0.0378 -0.1353
  713MOL0     C93998   2.149   7.637   8.395  0.2247 -0.1693  0.9641
  713MOL0     C93999   2.272   7.698   8.324  0.1384 -0.2335 -1.2116
  713MOL0     C94000   2.398   7.607   8.327  0.5253  0.1334 -0.1068
  713MOL0     N94001   2.519   7.669   8.289  0.1232  0.0561 -0.3636
  713MOL0     C94002   2.537   7.772   8.199  0.1766  0.0528  0.0243
  713MOL0     C94003   2.666   7.777   8.165  0.6028 -0.3501  0.3477
  713MOL0     C94004   2.721   7.859   8.050  0.4913 -0.5522  1.0735
  713MOL0     C94005   2.751   8.009   8.076 -0.5624  0.6999 -0.1512
  713MOL0     C94006   2.658   8.109   8.000  1.0095  0.7572  0.5588
  713MOL0     C94007   2.513   8.112   8.053 -0.5427 -0.4218  0.6100
  713MOL0     O94008   2.418   8.034   7.983 -0.7167  0.6980  0.1863
  713MOL0     C94009   2.284   8.049   8.014  0.1786 -0.1410 -0.5648
  713MOL0     C94010   2.176   7.991   7.928  0.2665  0.6043  0.1183
  713MOL0     C94011   2.039   7.996   7.964  0.1890  0.0547  0.5416
  713MOL0     C94012   2.005   8.056   8.090  0.4526  0.6602 -0.1023
  713MOL0     C94013   1.860   8.052   8.147  1.0879  0.2614  0.3526
  713MOL0     O94014   1.839   8.054   8.275 -0.1920 -0.2452 -0.6973
  713MOL0     C94015   1.734   7.986   8.323  0.0710 -0.5722 -0.3098
  713MOL0     C94016   1.746   7.855   8.340  0.0341  2.0383  0.0921
  713MOL0     C94017   1.641   7.771   8.374  0.9843  1.1009  0.6478
  713MOL0     C94018   1.508   7.822   8.375 -0.2120 -0.0430 -0.2053
  713MOL0     O94019   1.406   7.732   8.390  0.1113 -0.8043  0.1666
  713MOL0     C94020   1.273   7.786   8.413 -0.0024  0.6514  0.3453
  713MOL0     C94021   1.218   7.805   8.266  0.3372  0.6086 -0.4230
  713MOL0     C94022   1.070   7.817   8.277  0.1282  0.2836 -0.3277
  713MOL0     C94023   1.022   7.838   8.129  0.2283  0.3060  0.3516
  713MOL0     C94024   0.880   7.891   8.109 -0.3535  0.2704  0.9933
  713MOL0     C94025   0.767   7.819   8.169 -0.0854  0.1009 -0.5808
  713MOL0     C94026   0.625   7.892   8.138  0.0980 -0.4821 -0.0481
  713MOL0     C94027   0.523   7.780   8.146 -0.2819 -0.1287  0.8490
  713MOL0    Cl94028   0.355   7.836   8.126 -0.1133 -0.5017 -0.0387
  713MOL0     C94029   1.503   7.961   8.361 -0.2102  0.1012  0.3872
  713MOL0     C94030   1.612   8.036   8.333  0.1614 -0.3989  0.2343
  713MOL0     O94031   1.775   8.025   8.061 -1.0604 -0.5020  0.0044
  713MOL0     C94032   2.104   8.115   8.172 -0.0866  0.2640 -0.1366
  713MOL0     C94033   2.241   8.107   8.131 -0.1975  0.3547 -0.5560
  713MOL0     N94034   2.728   7.669   8.234 -0.0159  0.3080  0.0495
  713MOL0     N94035   2.635   7.604   8.305 -0.2527  0.2057 -0.4849
  713MOL0     C94036   1.317   7.125   8.279  0.4378  0.0424  0.6423
  713MOL0     C94037   1.180   7.113   8.247  0.2335  0.8396 -0.2779
  713MOL0     C94038   0.805   7.285   7.992 -0.0470  0.6337  0.0558
  713MOL0     C94039   0.710   7.196   8.040 -0.3888 -0.8595  0.7337
  713MOL0     C94040   0.577   7.225   7.988  0.2438 -0.2942 -0.0146
  713MOL0     C94041   0.537   7.323   7.904  0.1186 -1.4239 -0.7570
  713MOL0     O94042   0.402   7.326   7.873  0.5801 -0.2699  0.3553
  713MOL0     C94043   0.370   7.429   7.779  0.6773 -0.3342 -0.0731
  713MOL0     C94044   0.225   7.435   7.736 -0.6493  0.2075 -0.9552
  713MOL0     C94045   0.171   7.559   7.655 -0.3069 -0.0317  0.3698
  713MOL0     C94046   0.030   7.533   7.621  1.1680  0.0624 -0.6735
  713MOL0     C94047  -0.049   7.554   7.748  0.2131 -0.1525 -0.3321
  713MOL0     C94048  -0.127   7.588   7.832 -0.3824 -0.1260 -0.5669
  713MOL0     C94049   0.638   7.409   7.864  0.2681 -0.6021  0.2641
  713MOL0     C94050   0.767   7.394   7.913  0.3075 -0.0427  0.5163
  713MOL0     H94051   1.124   7.444   8.174 -1.2099 -0.4037  0.8020
  713MOL0     H94052   1.368   7.441   8.191 -2.3109  0.3764 -1.7656
  713MOL0     H94053   1.557   7.435   8.328 -3.2166 -0.7816 -2.7942
  713MOL0     H94054   1.620   7.362   8.173  1.3026 -0.7034 -0.7297
  713MOL0     H94055   1.784   7.233   8.324 -0.6111  0.1925 -0.5001
  713MOL0     H94056   1.741   7.347   8.451 -1.4028  0.3876 -1.1645
  713MOL0     H94057   1.795   7.521   8.233 -0.7503  0.7000  0.9596
  713MOL0     H94058   1.894   7.377   8.204  0.6333 -2.5222  1.0160
  713MOL0     H94059   1.897   7.552   8.456 -0.8251 -1.1358 -0.6032
  713MOL0     H94060   1.984   7.400   8.439  2.4217 -0.5076 -0.9969
  713MOL0     H94061   2.026   7.624   8.219  0.5628  2.8967  1.6889
  713MOL0     H94062   2.112   7.481   8.240 -1.1328 -0.3966 -0.3472
  713MOL0     H94063   2.180   7.579   8.483  1.2498 -0.7111  0.2702
  713MOL0     H94064   2.083   7.717   8.428  1.6271  1.5568 -0.2516
  713MOL0     H94065   2.249   7.708   8.217  1.9723  1.0543 -1.5476
  713MOL0     H94066   2.287   7.794   8.374  2.7744 -1.4191  0.4604
  713MOL0     H94067   2.391   7.525   8.255  1.0295  0.8969 -1.0618
  713MOL0     H94068   2.407   7.559   8.425  1.6132 -0.4655 -0.4762
  713MOL0     H94069   2.457   7.831   8.156 -0.1489  0.0398  0.6016
  713MOL0     H94070   2.642   7.850   7.975  1.3067  0.6454  0.0413
  713MOL0     H94071   2.807   7.814   8.000  0.8610  2.0095 -0.7732
  713MOL0     H94072   2.857   8.017   8.047  0.1299  2.0498  2.4347
  713MOL0     H94073   2.746   8.013   8.185 -0.5896 -2.4908  0.0604
  713MOL0     H94074   2.704   8.207   8.005  1.6776  0.4531  0.4016
  713MOL0     H94075   2.652   8.079   7.895 -1.6227 -0.5324  0.9824
  713MOL0     H94076   2.487   8.218   8.055 -0.2687 -0.3560  2.2620
  713MOL0     H94077   2.523   8.085   8.159  0.7341 -1.6762  0.2076
  713MOL0     H94078   2.191   7.929   7.840 -1.1757  0.4297 -0.0405
  713MOL0     H94079   1.962   7.954   7.900  2.1310 -0.1245 -1.8104
  713MOL0     H94080   1.845   7.811   8.342 -0.7708  0.0915 -0.4023
  713MOL0     H94081   1.639   7.664   8.390  0.2810  0.9539 -0.3240
  713MOL0     H94082   1.275   7.880   8.469 -0.0491  0.0699  1.3424
  713MOL0     H94083   1.211   7.717   8.470 -1.6065  0.3469 -1.6533
  713MOL0     H94084   1.248   7.717   8.208 -2.9191 -0.5852 -0.5326
  713MOL0     H94085   1.259   7.894   8.220  3.8111 -0.6940 -0.1401
  713MOL0     H94086   1.044   7.905   8.337 -0.6361  1.5243 -2.3672
  713MOL0     H94087   1.026   7.724   8.314  1.2474 -1.4011 -2.9897
  713MOL0     H94088   1.094   7.900   8.076  1.2198 -0.9204  0.1990
  713MOL0     H94089   1.010   7.740   8.081 -0.9993 -1.8725  4.5187
  713MOL0     H94090   0.866   7.904   8.001 -0.6135 -2.0607  0.6944
  713MOL0     H94091   0.883   7.990   8.154  0.4341  2.1701 -2.8535
  713MOL0     H94092   0.781   7.816   8.278  3.2258  2.4487 -0.7790
  713MOL0     H94093   0.761   7.716   8.131 -0.7483  0.1773 -0.6821
  713MOL0     H94094   0.600   7.970   8.210 -3.5672 -0.6836 -0.9275
  713MOL0     H94095   0.631   7.942   8.041 -0.1183  2.8515  1.5345
  713MOL0     H94096   0.538   7.718   8.235  1.6142 -0.0114  0.6529
  713MOL0     H94097   0.557   7.722   8.060  1.9106  0.4715  1.2496
  713MOL0     H94098   1.404   8.004   8.358 -1.4925 -2.3169  2.9359
  713MOL0     H94099   1.591   8.139   8.307  0.6768 -0.5078 -0.6883
  713MOL0     H94100   2.071   8.150   8.270  0.0374 -1.7653  0.6861
  713MOL0     H94101   2.318   8.141   8.199 -0.7067 -0.2589  0.3413
  713MOL0     H94102   1.358   7.032   8.317 -2.2526 -1.7095 -0.4522
  713MOL0     H94103   1.123   7.021   8.253  2.8089 -0.7904  1.0333
  713MOL0     H94104   0.746   7.118   8.107  1.1153 -0.4719  0.4188
  713MOL0     H94105   0.508   7.147   8.022 -1.3351  1.0685  0.0019
  713MOL0     H94106   0.436   7.412   7.693  1.9064  0.0660  0.7576
  713MOL0     H94107   0.399   7.523   7.827  1.0372 -0.6766  0.3868
  713MOL0     H94108   0.218   7.344   7.675  0.7843  0.3836 -1.4167
  713MOL0     H94109   0.163   7.411   7.823 -0.6268 -2.1064 -1.5009
  713MOL0     H94110   0.230   7.564   7.563 -0.3617 -0.6875  0.2925
  713MOL0     H94111   0.190   7.644   7.721  3.2861  0.0376 -0.5274
  713MOL0     H94112  -0.004   7.598   7.540  1.4523  0.1149 -0.7495
  713MOL0     H94113   0.006   7.429   7.593 -3.7947  0.9208 -0.5287
  713MOL0     H94114  -0.195   7.625   7.907  1.5929  2.2164  0.2409
  713MOL0     H94115   0.603   7.483   7.792 -3.6004 -1.4689  1.0515
  713MOL0     H94116   0.844   7.461   7.875 -0.7296 -0.6968 -3.1332
  714MOL0     O94117  10.189   5.207   2.449 -0.7323 -0.4424 -0.7130
  714MOL0     C94118  10.258   5.134   2.374  0.2720  0.2021  0.1873
  714MOL0     O94119  10.217   5.081   2.256  1.1621 -0.4887 -0.6886
  714MOL0     C94120  10.089   5.118   2.221 -0.7844 -0.7913 -0.3448
  714MOL0     C94121   9.986   5.022   2.229 -0.3826  0.1872  0.4369
  714MOL0     C94122   9.861   5.060   2.172  0.1515 -0.2936 -0.1055
  714MOL0     C94123   9.847   5.183   2.103 -1.0553  0.7402  0.5158
  714MOL0     O94124   9.729   5.218   2.033  0.3087  0.5168  0.2985
  714MOL0     C94125   9.692   5.125   1.925 -0.9926  0.0193 -0.6387
  714MOL0     C94126   9.588   5.207   1.852 -0.6932  0.5024 -0.1054
  714MOL0     C94127   9.499   5.112   1.769 -0.0305  0.4461 -0.0759
  714MOL0     C94128   9.385   5.080   1.860  0.5485 -0.2270  0.1211
  714MOL0     C94129   9.304   4.965   1.801  0.4425 -0.4888  1.1171
  714MOL0     C94130   9.151   4.991   1.809 -0.3700 -0.5221 -0.4506
  714MOL0     C94131   9.091   4.889   1.716 -0.5096  0.1369 -0.5161
  714MOL0     C94132   8.944   4.934   1.677  1.3094 -0.5085 -0.4739
  714MOL0     N94133   8.877   4.825   1.611 -0.5955  1.2944  0.2579
  714MOL0     C94134   8.769   4.752   1.649  0.1879  0.4880  0.0790
  714MOL0     C94135   8.743   4.680   1.545  0.2913  0.4820 -0.4028
  714MOL0     C94136   8.628   4.582   1.543 -0.0760  0.6346 -0.0265
  714MOL0     C94137   8.509   4.598   1.636 -0.4311 -0.1154  0.1349
  714MOL0     C94138   8.422   4.713   1.610  0.2597 -0.0984  0.0489
  714MOL0     C94139   8.382   4.748   1.463 -0.1376  0.3118  0.2732
  714MOL0     O94140   8.307   4.635   1.403  0.1816  0.2980  0.1685
  714MOL0     C94141   8.181   4.668   1.361  0.5704 -0.8904  0.4226
  714MOL0     C94142   8.079   4.580   1.384 -1.1214 -0.0114 -0.2241
  714MOL0     C94143   7.942   4.599   1.343 -0.1103 -0.6586  0.1694
  714MOL0     C94144   7.908   4.719   1.282 -0.8477  0.0235 -0.4575
  714MOL0     C94145   7.774   4.751   1.233  0.4388 -0.0168 -0.4393
  714MOL0     O94146   7.676   4.666   1.262  0.2918  1.0115  0.4239
  714MOL0     C94147   7.548   4.704   1.243 -0.7449  0.4350  0.3378
  714MOL0     C94148   7.500   4.755   1.118 -0.6358  0.5129  0.1008
  714MOL0     C94149   7.368   4.796   1.110 -0.5247 -0.4063  0.5109
  714MOL0     C94150   7.287   4.788   1.221 -0.7991 -1.3358  0.0610
  714MOL0     O94151   7.160   4.833   1.222 -0.1279  0.0876  0.2722
  714MOL0     C94152   7.115   4.904   1.108 -0.1454  0.7230  0.3715
  714MOL0     C94153   6.969   4.934   1.115 -0.3905  0.4216 -0.0177
  714MOL0     C94154   6.941   5.046   1.221  0.1864 -0.7584  0.3206
  714MOL0     C94155   7.001   5.177   1.186  0.0386 -0.3969 -1.1187
  714MOL0     C94156   6.996   5.269   1.318 -0.8209 -0.4192 -0.0445
  714MOL0     C94157   7.088   5.389   1.323  0.4388  0.0535  0.0070
  714MOL0     C94158   7.047   5.493   1.216 -0.7271  0.7736 -0.4438
  714MOL0     C94159   7.144   5.611   1.206 -0.2253  0.2034  0.3362
  714MOL0    Cl94160   7.311   5.556   1.180 -0.1127 -0.1259 -0.2558
  714MOL0     C94161   7.327   4.736   1.338  0.0948 -0.1367 -0.2127
  714MOL0     C94162   7.460   4.684   1.348 -0.1424 -0.3144 -0.5639
  714MOL0     O94163   7.774   4.838   1.144  0.0153 -0.4984 -0.3108
  714MOL0     C94164   8.004   4.811   1.265  0.2299 -0.7759 -0.8831
  714MOL0     C94165   8.139   4.785   1.299  0.9349  0.6365 -0.1335
  714MOL0     N94166   8.832   4.687   1.446 -0.8236 -0.0201  0.8564
  714MOL0     N94167   8.916   4.779   1.490  0.5672 -0.7901  0.7384
  714MOL0     C94168   9.957   5.274   2.084  0.5439 -0.4473 -0.2177
  714MOL0     C94169  10.074   5.237   2.143 -0.0602 -0.2961  0.0415
  714MOL0     C94170  10.379   5.078   2.430  0.0960 -0.0323  1.1186
  714MOL0     C94171  10.417   5.089   2.559 -0.0330 -0.3521  0.3546
  714MOL0     C94172  10.543   5.041   2.605  0.8891 -0.0879 -0.4039
  714MOL0     C94173  10.632   4.982   2.513 -0.6824  0.8463 -0.3647
  714MOL0     O94174  10.763   4.951   2.541 -0.1237  0.2919  0.1002
  714MOL0     C94175  10.793   4.917   2.674  0.4120 -0.0283 -0.3001
  714MOL0     C94176  10.922   4.834   2.689  0.3057 -0.5117  0.1592
  714MOL0     C94177  11.051   4.913   2.698 -0.7984 -0.3527  0.1786
  714MOL0     C94178  11.181   4.829   2.716  0.0951 -0.1736  0.0009
  714MOL0     C94179  11.199   4.730   2.611  0.2658  0.6166  0.3632
  714MOL0     C94180  11.221   4.647   2.524 -0.2057  0.0741 -0.8830
  714MOL0     C94181  10.583   4.962   2.389 -0.2474  0.4914  0.4773
  714MOL0     C94182  10.462   4.997   2.347  0.2252  0.9659  0.2199
  714MOL0     H94183   9.990   4.925   2.275 -0.3246 -0.5751 -1.1057
  714MOL0     H94184   9.772   4.998   2.185  0.1513 -0.8699 -2.4000
  714MOL0     H94185   9.652   5.035   1.973  1.8952 -1.6246 -1.0950
  714MOL0     H94186   9.776   5.094   1.862 -3.0145 -2.2350 -2.3947
  714MOL0     H94187   9.639   5.270   1.778  0.0682  1.0864  0.8888
  714MOL0     H94188   9.533   5.267   1.925 -0.6034  1.6932 -0.9953
  714MOL0     H94189   9.564   5.028   1.743  3.4191  2.0785  2.4729
  714MOL0     H94190   9.468   5.161   1.675 -0.6913 -1.2460 -0.7756
  714MOL0     H94191   9.417   5.056   1.962  0.7186 -0.5041  0.0018
  714MOL0     H94192   9.318   5.165   1.880 -0.8404 -1.4919  1.0517
  714MOL0     H94193   9.336   4.869   1.841 -0.0251 -2.1591 -2.1841
  714MOL0     H94194   9.333   4.958   1.696 -3.0829  0.2131 -0.0633
  714MOL0     H94195   9.138   5.089   1.763 -3.7069 -0.3829  0.5419
  714MOL0     H94196   9.115   4.984   1.912  0.5639  2.1916  0.1298
  714MOL0     H94197   9.149   4.871   1.625 -0.3230  2.8493 -1.0110
  714MOL0     H94198   9.087   4.794   1.771 -0.6977 -0.4936 -1.5936
  714MOL0     H94199   8.947   5.022   1.612  1.1093  0.8162  1.2428
  714MOL0     H94200   8.891   4.953   1.771  1.0330 -0.0474 -0.7225
  714MOL0     H94201   8.715   4.770   1.742  1.6416 -2.6301  1.7115
  714MOL0     H94202   8.676   4.488   1.567  0.4210 -0.0132 -3.1065
  714MOL0     H94203   8.581   4.590   1.444 -3.3106 -1.8641  1.1282
  714MOL0     H94204   8.548   4.610   1.737  1.8481  0.6855 -0.7995
  714MOL0     H94205   8.441   4.511   1.629 -2.2302  0.9401  2.8169
  714MOL0     H94206   8.333   4.689   1.669 -0.1400  1.3479  0.0774
  714MOL0     H94207   8.475   4.797   1.656  0.9186 -1.1591  1.2577
  714MOL0     H94208   8.472   4.760   1.401  0.2192  0.0240  0.7303
  714MOL0     H94209   8.339   4.848   1.451  1.9235  1.2140 -0.1730
  714MOL0     H94210   8.093   4.482   1.427  1.0880 -0.2378 -1.3127
  714MOL0     H94211   7.865   4.524   1.354 -1.2432 -0.1728 -3.1299
  714MOL0     H94212   7.574   4.767   1.039 -2.0080  2.7830 -0.9583
  714MOL0     H94213   7.332   4.838   1.017 -2.3018  1.5047  1.9572
  714MOL0     H94214   7.114   4.846   1.015  0.0090  2.1765 -0.5664
  714MOL0     H94215   7.168   4.999   1.096 -0.3732  1.0993  2.0643
  714MOL0     H94216   6.904   4.849   1.139 -1.5707  1.5199  0.7691
  714MOL0     H94217   6.930   4.970   1.019 -5.3188 -0.9546  1.1968
  714MOL0     H94218   6.981   5.011   1.317 -0.1470 -1.4531  0.2111
  714MOL0     H94219   6.834   5.059   1.239  0.4109  1.0823  0.5118
  714MOL0     H94220   7.107   5.167   1.159  0.1022 -0.4544 -0.8543
  714MOL0     H94221   6.956   5.210   1.092 -0.3100 -0.6932 -1.0577
  714MOL0     H94222   7.045   5.215   1.400  3.1296 -0.9806 -2.5023
  714MOL0     H94223   6.896   5.300   1.350 -1.4674 -3.3105  1.0417
  714MOL0     H94224   7.194   5.364   1.315  1.0585  2.6420 -0.8568
  714MOL0     H94225   7.077   5.439   1.420  1.1942 -1.8181  1.1034
  714MOL0     H94226   7.045   5.444   1.118 -1.6101 -0.2084  0.0443
  714MOL0     H94227   6.944   5.523   1.235 -0.5167  0.0154  2.2612
  714MOL0     H94228   7.142   5.666   1.300  0.2107  1.4230 -0.3487
  714MOL0     H94229   7.111   5.689   1.136  1.6724  0.7396 -0.0194
  714MOL0     H94230   7.252   4.723   1.415 -0.4737 -0.7675 -0.8607
  714MOL0     H94231   7.497   4.639   1.439 -3.0491 -0.0143  0.8745
  714MOL0     H94232   7.986   4.912   1.230 -2.2148 -0.8341  0.0038
  714MOL0     H94233   8.218   4.852   1.267  1.0232  0.2487 -0.7490
  714MOL0     H94234   9.948   5.372   2.038  2.3115 -0.0192  0.2923
  714MOL0     H94235  10.159   5.299   2.119  0.0601 -0.5516 -0.2087
  714MOL0     H94236  10.357   5.140   2.633  0.5205 -1.0001  1.2737
  714MOL0     H94237  10.583   5.067   2.702 -0.5300 -2.6944  1.0044
  714MOL0     H94238  10.711   4.854   2.711  0.3731  1.0649  1.5900
  714MOL0     H94239  10.792   5.004   2.741 -0.6574 -1.9038  2.3253
  714MOL0     H94240  10.910   4.780   2.784  1.6264  0.1913  0.7546
  714MOL0     H94241  10.913   4.769   2.602  2.3175 -0.3428 -0.2261
  714MOL0     H94242  11.026   4.977   2.783  0.4719 -1.3765  1.3566
  714MOL0     H94243  11.071   4.986   2.618 -1.3186  0.4829  0.7866
  714MOL0     H94244  11.277   4.877   2.698  1.2936 -2.5975 -0.3925
  714MOL0     H94245  11.175   4.783   2.815  0.1634  2.3253  1.2658
  714MOL0     H94246  11.251   4.577   2.450  1.7192 -1.2978  1.0563
  714MOL0     H94247  10.649   4.918   2.315  0.1826 -0.6154  1.4990
  714MOL0     H94248  10.430   4.979   2.245  0.3424 -1.5269  0.5603
  715MOL0     O94249   3.401   5.090   4.101  0.6536  0.2861 -0.6619
  715MOL0     C94250   3.476   5.171   4.066 -0.0928 -0.3943 -1.3720
  715MOL0     O94251   3.442   5.295   4.013  0.1488 -0.1358 -0.0421
  715MOL0     C94252   3.313   5.327   3.997 -0.7428 -0.3598  0.8662
  715MOL0     C94253   3.238   5.386   4.094 -0.0147  0.0875 -0.5913
  715MOL0     C94254   3.106   5.418   4.091  0.3163 -0.2596  0.0852
  715MOL0     C94255   3.024   5.369   3.988 -0.1971 -0.4355 -0.4962
  715MOL0     O94256   2.891   5.384   3.986  0.1407 -0.5626 -0.0895
  715MOL0     C94257   2.830   5.472   4.084  0.5387 -0.4555 -0.7846
  715MOL0     C94258   2.689   5.500   4.032  1.2370 -0.6054 -0.1415
  715MOL0     C94259   2.585   5.404   4.079  0.0965 -1.1091 -0.5216
  715MOL0     C94260   2.453   5.450   4.029  0.8063 -0.0703  0.5352
  715MOL0     C94261   2.325   5.398   4.109 -0.8215  0.0539  0.1681
  715MOL0     C94262   2.204   5.456   4.041  0.8713 -0.0065 -0.2216
  715MOL0     C94263   2.082   5.384   4.109  0.5928  0.0087  0.2774
  715MOL0     C94264   1.958   5.429   4.027  0.1966  0.9790  0.3057
  715MOL0     N94265   1.833   5.369   4.068  0.4519  0.2643 -0.5434
  715MOL0     C94266   1.762   5.298   3.973  0.8754 -0.6568 -0.8564
  715MOL0     C94267   1.666   5.239   4.057  0.3197  0.2949  0.6770
  715MOL0     C94268   1.568   5.125   4.016 -0.4072 -0.5605 -0.0296
  715MOL0     C94269   1.534   5.135   3.862 -0.2169 -0.1971 -1.1038
  715MOL0     C94270   1.445   5.017   3.827  0.1567  0.0698 -0.4252
  715MOL0     C94271   1.309   5.022   3.892 -0.6915 -0.3810 -0.1428
  715MOL0     O94272   1.236   5.142   3.866 -0.7619  0.1086  0.6079
  715MOL0     C94273   1.120   5.165   3.932 -0.0172 -0.0024  0.4909
  715MOL0     C94274   1.084   5.297   3.938 -0.5234 -1.1020 -0.4292
  715MOL0     C94275   0.968   5.332   4.003 -0.1896 -0.0990  0.1233
  715MOL0     C94276   0.881   5.231   4.042 -0.5458 -0.6927  0.8039
  715MOL0     C94277   0.759   5.275   4.097  0.6499 -0.0870 -0.1646
  715MOL0     O94278   0.653   5.190   4.089 -0.0978  0.2573 -0.3144
  715MOL0     C94279   0.522   5.220   4.086  0.0408 -0.1846  0.0731
  715MOL0     C94280   0.461   5.312   4.177  0.1263  0.6015 -0.6218
  715MOL0     C94281   0.325   5.334   4.157 -0.3042  0.6880  0.9682
  715MOL0     C94282   0.245   5.267   4.061 -0.1833  0.0864 -0.3601
  715MOL0     O94283   0.125   5.316   4.039 -0.4047  0.1723  0.1860
  715MOL0     C94284   0.106   5.388   3.916 -0.9765 -0.3267 -0.0876
  715MOL0     C94285  -0.038   5.455   3.905  0.3064  0.5117  0.6706
  715MOL0     C94286  -0.159   5.353   3.918  0.4282 -0.6637  0.4357
  715MOL0     C94287  -0.146   5.231   3.828  0.3769  0.5711 -1.3449
  715MOL0     C94288  -0.270   5.146   3.848  0.1066 -0.4281  1.0111
  715MOL0     C94289  -0.269   5.010   3.787  0.1908 -0.9531 -0.4789
  715MOL0     C94290  -0.230   4.992   3.639 -0.4683 -0.1442  1.1511
  715MOL0     C94291  -0.251   4.853   3.579 -0.1249  0.3752 -0.6587
  715MOL0    Cl94292  -0.431   4.849   3.550 -0.4726 -0.0138 -0.1010
  715MOL0     C94293   0.301   5.173   3.977 -0.4641 -0.5441  0.2958
  715MOL0     C94294   0.435   5.146   3.997  0.4476 -0.6546  0.5343
  715MOL0     O94295   0.758   5.383   4.150  0.2726 -0.2745  0.6109
  715MOL0     C94296   0.914   5.096   4.024 -0.5733  0.6938  0.1482
  715MOL0     C94297   1.036   5.062   3.969  0.0587 -0.2560  0.9308
  715MOL0     N94298   1.677   5.285   4.183 -0.0555  0.0897 -0.5910
  715MOL0     N94299   1.768   5.373   4.187 -0.2034 -0.2122  0.2310
  715MOL0     C94300   3.098   5.292   3.892  0.7147 -0.2408 -0.5693
  715MOL0     C94301   3.239   5.282   3.886  0.0717  0.2260  0.8420
  715MOL0     C94302   3.613   5.154   4.107  0.0658 -0.3427  0.2463
  715MOL0     C94303   3.658   5.032   4.169 -0.2230 -0.8202 -0.3944
  715MOL0     C94304   3.787   5.028   4.208 -0.8166  0.4826 -0.6554
  715MOL0     C94305   3.876   5.136   4.192  0.3611 -0.2295  0.4073
  715MOL0     O94306   4.009   5.131   4.216 -0.5323 -0.1728 -0.1801
  715MOL0     C94307   4.063   5.002   4.255 -0.6803  0.6949  0.2758
  715MOL0     C94308   4.212   5.006   4.280  0.2872  0.2798  0.5238
  715MOL0     C94309   4.265   5.087   4.396 -0.7586  0.6070  0.8145
  715MOL0     C94310   4.409   5.127   4.357  0.2068  0.1878 -1.1450
  715MOL0     C94311   4.491   5.183   4.466  0.2815 -0.4320 -0.4612
  715MOL0     C94312   4.541   5.245   4.554 -0.6312  1.1017 -1.5027
  715MOL0     C94313   3.833   5.252   4.127  0.7247 -0.3190 -0.2899
  715MOL0     C94314   3.704   5.261   4.086 -0.3362 -0.6743  0.3831
  715MOL0     H94315   3.298   5.418   4.179  2.4647 -2.8910 -1.0476
  715MOL0     H94316   3.069   5.466   4.181  0.1780 -2.5156  1.2922
  715MOL0     H94317   2.884   5.567   4.083 -3.0445  1.7553 -1.1256
  715MOL0     H94318   2.819   5.425   4.182 -0.8545  1.5373  0.0879
  715MOL0     H94319   2.694   5.510   3.923 -0.6729 -0.0172 -0.2036
  715MOL0     H94320   2.660   5.603   4.057 -0.5839  0.0628 -4.1723
  715MOL0     H94321   2.590   5.410   4.188  0.8472  0.6119 -0.6240
  715MOL0     H94322   2.607   5.300   4.051  2.8138 -0.3998 -1.3103
  715MOL0     H94323   2.444   5.558   4.048 -2.0472 -0.2146  0.3788
  715MOL0     H94324   2.448   5.433   3.921 -0.7306  2.9491  0.0182
  715MOL0     H94325   2.337   5.437   4.211 -0.7291  1.8086 -0.4897
  715MOL0     H94326   2.319   5.289   4.113 -2.7137  0.0890 -0.7028
  715MOL0     H94327   2.213   5.435   3.934  2.4258  1.0505 -0.3316
  715MOL0     H94328   2.197   5.565   4.044  0.1298 -0.0453 -0.4407
  715MOL0     H94329   2.088   5.277   4.084  1.0203  0.6675 -2.8981
  715MOL0     H94330   2.070   5.397   4.217  3.1723 -2.9613  1.0953
  715MOL0     H94331   1.969   5.419   3.919  0.3626  4.2643 -0.0865
  715MOL0     H94332   1.946   5.537   4.042 -1.6724  1.1104 -1.5879
  715MOL0     H94333   1.787   5.279   3.869 -0.8279 -1.8008 -1.0974
  715MOL0     H94334   1.474   5.136   4.072  0.5501  1.4083  1.3166
  715MOL0     H94335   1.608   5.029   4.049 -0.9352 -0.2612  1.5906
  715MOL0     H94336   1.625   5.129   3.800  1.9394  1.9746  1.5734
  715MOL0     H94337   1.478   5.225   3.836 -0.9114 -0.4800 -0.5937
  715MOL0     H94338   1.437   5.013   3.718  0.0547  4.7121 -0.7901
  715MOL0     H94339   1.491   4.921   3.854 -1.2378 -0.1904  1.2176
  715MOL0     H94340   1.319   5.004   3.999  0.0060 -1.2115 -0.3368
  715MOL0     H94341   1.260   4.932   3.854  0.2167 -2.0938  2.5097
  715MOL0     H94342   1.147   5.375   3.897 -1.1686  0.3611  1.1982
  715MOL0     H94343   0.950   5.437   4.024  1.1679 -0.6391  5.5608
  715MOL0     H94344   0.511   5.354   4.264 -0.0385 -0.0439 -0.2096
  715MOL0     H94345   0.281   5.408   4.222 -0.1444  0.6884  1.0756
  715MOL0     H94346   0.117   5.320   3.831  1.8273  0.1581 -0.2095
  715MOL0     H94347   0.179   5.467   3.895  1.0048 -2.3638 -1.2472
  715MOL0     H94348  -0.051   5.497   3.805 -2.8766 -1.2773  0.2205
  715MOL0     H94349  -0.062   5.531   3.981 -2.4600  2.4583 -1.9360
  715MOL0     H94350  -0.245   5.407   3.876  0.7379 -1.7133 -1.6484
  715MOL0     H94351  -0.174   5.329   4.024  0.8430 -0.2472  0.5910
  715MOL0     H94352  -0.129   5.261   3.724 -2.1669  2.0011 -1.4102
  715MOL0     H94353  -0.052   5.178   3.847 -0.7558 -0.7137  1.1983
  715MOL0     H94354  -0.351   5.212   3.817  0.8596  1.8185  3.3819
  715MOL0     H94355  -0.269   5.125   3.956  2.6863 -1.3459  0.8765
  715MOL0     H94356  -0.367   4.963   3.800 -1.1647  1.5274 -1.2181
  715MOL0     H94357  -0.198   4.948   3.843  0.9789  0.7477  0.4762
  715MOL0     H94358  -0.294   5.061   3.583 -2.8155 -2.0361  1.3199
  715MOL0     H94359  -0.126   5.023   3.623 -1.0722  1.4361 -0.0044
  715MOL0     H94360  -0.213   4.777   3.647  1.4973 -0.1279 -2.0457
  715MOL0     H94361  -0.184   4.845   3.493  3.3727  1.4599  1.7567
  715MOL0     H94362   0.242   5.116   3.906 -1.2282 -1.1903  1.4145
  715MOL0     H94363   0.471   5.070   3.927  1.7732  0.4690 -0.0376
  715MOL0     H94364   0.859   5.010   4.059  2.6057 -1.6396 -0.1686
  715MOL0     H94365   1.053   4.958   3.946  0.2608  0.1092 -0.6673
  715MOL0     H94366   3.040   5.245   3.813  1.5289  0.6806 -1.7647
  715MOL0     H94367   3.300   5.229   3.815 -0.2335  0.7454  0.1843
  715MOL0     H94368   3.589   4.951   4.187 -1.1995  0.4044  1.6206
  715MOL0     H94369   3.813   4.927   4.239 -1.0460 -0.2245 -2.5917
  715MOL0     H94370   4.034   4.941   4.169 -1.6418  2.1165 -0.4415
  715MOL0     H94371   4.025   4.953   4.346 -2.1507 -0.9552 -1.1407
  715MOL0     H94372   4.252   4.905   4.298 -1.4527 -0.7228 -0.8186
  715MOL0     H94373   4.268   5.037   4.192  3.9305 -2.5418  1.6002
  715MOL0     H94374   4.266   5.035   4.493  1.7231  0.2667  0.6580
  715MOL0     H94375   4.208   5.181   4.402 -0.8936  0.7428 -1.6562
  715MOL0     H94376   4.462   5.036   4.326  3.2918  1.5599 -0.2597
  715MOL0     H94377   4.420   5.193   4.270  0.7540  1.2562 -0.2861
  715MOL0     H94378   4.570   5.298   4.643 -0.6124 -1.9519  0.4860
  715MOL0     H94379   3.903   5.325   4.089  0.2059  0.0100 -0.6362
  715MOL0     H94380   3.690   5.349   4.024  1.2154 -1.1963 -0.7607
  716MOL0     O94381   9.431   8.653   6.930 -0.7934  0.1440  0.2276
  716MOL0     C94382   9.533   8.629   6.993  0.3710  0.1956 -0.2366
  716MOL0     O94383   9.574   8.498   7.028 -0.6367  0.2301  0.1300
  716MOL0     C94384   9.504   8.382   7.001  0.0571  0.8083  0.1010
  716MOL0     C94385   9.577   8.261   7.014  0.0834 -0.6094 -0.4228
  716MOL0     C94386   9.524   8.133   7.001  0.5415  0.6599 -0.6257
  716MOL0     C94387   9.396   8.120   6.944 -0.5271  0.5539 -0.4107
  716MOL0     O94388   9.351   7.997   6.923 -0.4155 -0.2484  0.1268
  716MOL0     C94389   9.218   7.983   6.867 -0.5386  0.2509  0.0631
  716MOL0     C94390   9.123   7.983   6.991  0.1412  0.4823  0.6576
  716MOL0     C94391   8.988   7.920   6.956  0.4590  0.0864 -0.0858
  716MOL0     C94392   8.881   7.935   7.068 -0.6987 -0.2959  0.6601
  716MOL0     C94393   8.740   7.920   7.012 -0.1278 -0.1106 -0.0264
  716MOL0     C94394   8.709   7.781   6.941 -0.3329 -0.3796  0.1239
  716MOL0     C94395   8.582   7.712   6.991  0.3386  0.3766  0.0402
  716MOL0     C94396   8.462   7.808   6.956  0.8967  0.6734 -0.0778
  716MOL0     N94397   8.347   7.723   6.992  0.5504 -0.1916  0.1788
  716MOL0     C94398   8.259   7.656   6.904  0.1272 -0.3031 -0.0236
  716MOL0     C94399   8.153   7.612   6.979  0.0407  0.4851  1.0374
  716MOL0     C94400   8.043   7.524   6.945 -0.7610 -0.1045  0.3724
  716MOL0     C94401   7.907   7.577   6.987  0.7296  0.3531  0.2718
  716MOL0     C94402   7.869   7.723   6.937  0.4018  0.9812  0.1617
  716MOL0     C94403   7.721   7.749   6.942  1.0670 -0.6296  0.1407
  716MOL0     O94404   7.656   7.703   7.065 -0.5116 -0.4599 -1.0495
  716MOL0     C94405   7.522   7.698   7.069 -1.0033 -0.4768  0.3439
  716MOL0     C94406   7.483   7.588   7.129  0.4128  0.3148 -0.2817
  716MOL0     C94407   7.350   7.555   7.150 -0.5304  0.8613  0.2329
  716MOL0     C94408   7.249   7.644   7.099  0.1926 -0.4843  0.2427
  716MOL0     C94409   7.105   7.599   7.132 -0.3161 -0.2865 -0.0073
  716MOL0     O94410   7.085   7.498   7.221 -0.1018 -0.8653 -0.1532
  716MOL0     C94411   6.975   7.471   7.277 -0.0731 -1.0733  0.1350
  716MOL0     C94412   6.868   7.556   7.306  0.0683  0.5066 -0.1157
  716MOL0     C94413   6.751   7.514   7.372  0.0347 -0.5754  0.0304
  716MOL0     C94414   6.734   7.382   7.420 -1.1964 -0.1119  1.1081
  716MOL0     O94415   6.628   7.345   7.494  0.5000  0.0659  0.2091
  716MOL0     C94416   6.524   7.437   7.524  0.1066 -0.1095  1.0298
  716MOL0     C94417   6.420   7.352   7.596 -0.2852 -0.5935  0.2834
  716MOL0     C94418   6.278   7.423   7.615  0.4554  0.8213  0.9780
  716MOL0     C94419   6.193   7.322   7.676 -0.2783 -0.4073 -0.1629
  716MOL0     C94420   6.061   7.366   7.728  0.4131 -0.3526 -0.6887
  716MOL0     C94421   5.974   7.444   7.623  0.3176  0.3932 -0.3608
  716MOL0     C94422   5.867   7.534   7.687 -0.3172  0.3041 -1.6586
  716MOL0     C94423   5.768   7.621   7.601  0.3263  1.6148 -0.2831
  716MOL0    Cl94424   5.645   7.686   7.731  0.3538 -0.1575 -0.3077
  716MOL0     C94425   6.840   7.297   7.389 -0.7498  0.0815 -0.7487
  716MOL0     C94426   6.959   7.341   7.319 -0.9119  0.8014  0.0098
  716MOL0     O94427   7.017   7.658   7.065  0.2383 -0.0617 -0.4161
  716MOL0     C94428   7.289   7.746   7.013  1.1076  0.2519  0.3044
  716MOL0     C94429   7.428   7.769   6.994 -0.4387  0.2235 -0.0921
  716MOL0     N94430   8.182   7.650   7.106  0.6579  0.0004 -0.5814
  716MOL0     N94431   8.287   7.717   7.113  0.0144 -0.6093 -0.0942
  716MOL0     C94432   9.322   8.240   6.925  0.1191  0.4881  0.3531
  716MOL0     C94433   9.374   8.364   6.961 -0.8238 -1.5769 -0.4917
  716MOL0     C94434   9.622   8.740   7.017 -0.1093  0.6418  0.5300
  716MOL0     C94435   9.751   8.712   7.084 -0.5746 -0.4517  0.0521
  716MOL0     C94436   9.835   8.813   7.113  1.1115 -0.2820 -0.7121
  716MOL0     C94437   9.823   8.940   7.062 -0.7391  0.0696  0.1709
  716MOL0     O94438   9.914   9.026   7.106 -0.8338  0.7959 -0.2405
  716MOL0     C94439   9.931   9.142   7.023 -1.1907  0.1166  0.8004
  716MOL0     C94440  10.035   9.243   7.067  0.6698  0.0920 -0.2952
  716MOL0     C94441  10.029   9.360   6.971 -0.1947 -0.7443 -0.2381
  716MOL0     C94442  10.112   9.348   6.836 -0.3617 -0.0963 -0.1139
  716MOL0     C94443  10.260   9.348   6.851 -1.2551 -1.2344 -0.8321
  716MOL0     C94444  10.385   9.348   6.840  0.3169  0.0449  0.0403
  716MOL0     C94445   9.706   8.960   6.982  0.8157 -0.3020 -0.5774
  716MOL0     C94446   9.603   8.873   6.966 -0.1798  0.1455  0.1432
  716MOL0     H94447   9.678   8.267   7.053  0.1360  1.4932 -0.8030
  716MOL0     H94448   9.582   8.046   7.029  0.3856 -0.1041 -2.5199
  716MOL0     H94449   9.210   7.888   6.814 -1.8851 -0.0613  0.7826
  716MOL0     H94450   9.185   8.068   6.806 -0.1315 -0.8220 -1.7001
  716MOL0     H94451   9.114   8.085   7.029  0.1850  1.3207 -1.4232
  716MOL0     H94452   9.172   7.926   7.070 -1.0878  0.8866  1.7620
  716MOL0     H94453   9.001   7.813   6.941  1.1159  0.3288 -1.4404
  716MOL0     H94454   8.950   7.975   6.869 -0.0345  1.1001  0.7408
  716MOL0     H94455   8.907   7.851   7.134 -1.5250 -1.2334 -0.1812
  716MOL0     H94456   8.885   8.032   7.118 -3.9738 -0.0616  0.6312
  716MOL0     H94457   8.728   8.000   6.939  0.3281  1.2502  1.3415
  716MOL0     H94458   8.659   7.931   7.086 -2.3616 -2.3456 -1.9383
  716MOL0     H94459   8.803   7.724   6.939 -0.1548 -0.0828 -0.3188
  716MOL0     H94460   8.694   7.806   6.835  0.3474 -0.8127 -0.0851
  716MOL0     H94461   8.567   7.615   6.943  2.0054  1.3602 -2.6922
  716MOL0     H94462   8.582   7.703   7.100  0.7421 -1.2372 -0.0596
  716MOL0     H94463   8.445   7.848   6.856 -1.3026  0.5262  0.2004
  716MOL0     H94464   8.462   7.901   7.015 -1.8441  0.1468  0.9169
  716MOL0     H94465   8.283   7.632   6.801  1.3657  0.1963  0.1370
  716MOL0     H94466   8.052   7.432   7.004  0.3452 -0.8751 -0.9175
  716MOL0     H94467   8.055   7.492   6.841 -0.2362 -2.3133  1.0473
  716MOL0     H94468   7.906   7.586   7.096 -1.8628  3.7331  0.0972
  716MOL0     H94469   7.829   7.506   6.958  1.7580 -1.3536  1.4108
  716MOL0     H94470   7.921   7.806   6.984  0.0107  1.3528 -0.0552
  716MOL0     H94471   7.912   7.721   6.837  3.0792  3.3565  1.1240
  716MOL0     H94472   7.673   7.714   6.851  0.4901 -0.9079  0.5464
  716MOL0     H94473   7.711   7.858   6.944 -0.9861 -0.7414 -1.4446
  716MOL0     H94474   7.551   7.511   7.165  1.3607  0.8491 -0.9060
  716MOL0     H94475   7.314   7.466   7.201 -0.0554  0.9384  0.7128
  716MOL0     H94476   6.874   7.660   7.275  0.8347 -0.1532 -2.3711
  716MOL0     H94477   6.670   7.585   7.384 -0.2970 -1.2572  2.2085
  716MOL0     H94478   6.485   7.484   7.433 -1.3995 -1.3269  1.0090
  716MOL0     H94479   6.568   7.506   7.597  1.4702 -1.1096  1.1832
  716MOL0     H94480   6.462   7.325   7.693  1.7269  1.5324  0.0916
  716MOL0     H94481   6.401   7.260   7.540 -0.7371 -0.8896  0.9126
  716MOL0     H94482   6.237   7.462   7.522  0.5531  0.1435  0.6433
  716MOL0     H94483   6.280   7.513   7.678 -0.1718  2.2963 -1.0201
  716MOL0     H94484   6.182   7.239   7.606  2.2944 -0.3970 -0.6871
  716MOL0     H94485   6.240   7.284   7.767  1.0189 -0.7946 -0.9696
  716MOL0     H94486   6.092   7.429   7.812 -1.1760 -2.3326  1.5178
  716MOL0     H94487   6.014   7.277   7.771 -0.1128  0.7668  1.2007
  716MOL0     H94488   5.923   7.369   7.561  1.1788  1.1057 -2.0111
  716MOL0     H94489   6.045   7.499   7.561 -0.3478 -0.5980 -2.0836
  716MOL0     H94490   5.794   7.478   7.747  0.7094  1.3639  0.7365
  716MOL0     H94491   5.919   7.599   7.759 -2.6408 -1.7520  2.2415
  716MOL0     H94492   5.719   7.551   7.533  0.5667  0.5549  0.5888
  716MOL0     H94493   5.818   7.702   7.548 -0.5539  2.3481 -0.0147
  716MOL0     H94494   6.834   7.190   7.409 -1.2047  0.4865  1.6358
  716MOL0     H94495   7.032   7.262   7.304 -0.2304  1.2754  0.7085
  716MOL0     H94496   7.217   7.808   6.960 -0.3012 -0.7054  1.0564
  716MOL0     H94497   7.448   7.847   6.921  2.8120  0.9160  1.3198
  716MOL0     H94498   9.222   8.245   6.885 -0.4177  1.4560  1.7365
  716MOL0     H94499   9.307   8.450   6.960  2.5452  1.4510  2.9351
  716MOL0     H94500   9.774   8.612   7.120  0.3087 -0.1153  0.4446
  716MOL0     H94501   9.913   8.792   7.186 -0.3360 -2.0709  0.4056
  716MOL0     H94502   9.836   9.196   7.026 -1.9229 -1.0122 -0.8129
  716MOL0     H94503   9.943   9.115   6.918 -1.0665  0.8985  0.6121
  716MOL0     H94504  10.001   9.270   7.168 -2.1286 -0.6819 -0.9365
  716MOL0     H94505  10.137   9.205   7.064  1.1225  1.3185 -1.9634
  716MOL0     H94506  10.042   9.456   7.021 -4.1526  1.7912 -3.4288
  716MOL0     H94507   9.927   9.370   6.932  1.3832  6.0438 -4.0988
  716MOL0     H94508  10.088   9.254   6.787  0.7722  0.0031 -0.8889
  716MOL0     H94509  10.083   9.426   6.765  0.0420 -1.0698 -1.3599
  716MOL0     H94510  10.491   9.338   6.832  0.2781 -1.3383  0.8448
  716MOL0     H94511   9.687   9.060   6.942  1.2908  0.9929  2.2198
  716MOL0     H94512   9.517   8.893   6.902 -0.5478 -0.6559  0.3642
  717MOL0     O94513   0.480   3.455   4.841 -0.5319 -0.0899  0.3470
  717MOL0     C94514   0.429   3.562   4.803  0.7766  0.6965  0.1875
  717MOL0     O94515   0.299   3.607   4.804  0.5138  0.0503 -0.7786
  717MOL0     C94516   0.201   3.514   4.839 -0.2816 -0.4800 -0.0581
  717MOL0     C94517   0.176   3.470   4.969 -0.8053 -0.0027 -0.1841
  717MOL0     C94518   0.056   3.405   5.003 -0.2649 -0.4607 -0.0620
  717MOL0     C94519  -0.033   3.376   4.901 -0.6726 -0.2087  0.1151
  717MOL0     O94520  -0.149   3.297   4.922  0.0701 -0.4314 -0.4822
  717MOL0     C94521  -0.123   3.160   4.944 -0.1655 -0.1742  0.9432
  717MOL0     C94522  -0.242   3.096   5.008  0.6498 -0.2454  0.4630
  717MOL0     C94523  -0.236   2.951   5.052  0.6125 -0.0549  0.2671
  717MOL0     C94524  -0.110   2.899   5.124 -0.5894  0.3986 -0.5814
  717MOL0     C94525  -0.155   2.760   5.178  0.3420  0.0995  0.2939
  717MOL0     C94526  -0.061   2.714   5.292  0.7311 -0.1126  0.4771
  717MOL0     C94527   0.087   2.696   5.252 -0.1661 -0.6389 -0.4192
  717MOL0     C94528   0.125   2.587   5.147 -1.5258  0.2192 -0.0785
  717MOL0     N94529   0.271   2.551   5.150  0.5280  0.4563  0.7251
  717MOL0     C94530   0.323   2.468   5.052 -0.1635 -0.0079  0.0780
  717MOL0     C94531   0.463   2.489   5.066  1.1984 -1.4847 -0.4064
  717MOL0     C94532   0.563   2.435   4.979  0.2838  0.1122  0.2526
  717MOL0     C94533   0.527   2.425   4.833 -0.4675 -0.4940  0.1279
  717MOL0     C94534   0.512   2.566   4.766  0.2254  1.4034  0.6563
  717MOL0     C94535   0.370   2.638   4.775  0.3278  0.1054  0.5699
  717MOL0     O94536   0.279   2.567   4.681  0.2292 -0.6971  0.2027
  717MOL0     C94537   0.148   2.549   4.720 -0.0752 -0.2364  0.9205
  717MOL0     C94538   0.083   2.425   4.700  0.0167 -0.7387 -1.6702
  717MOL0     C94539  -0.052   2.404   4.737 -0.0244  0.4445  0.3088
  717MOL0     C94540  -0.133   2.516   4.765 -0.6960 -0.2159 -0.8414
  717MOL0     C94541  -0.282   2.512   4.785  0.4559  1.4795 -0.3414
  717MOL0     O94542  -0.350   2.626   4.801 -0.2437  0.5056  0.2991
  717MOL0     C94543  -0.485   2.618   4.835 -0.6602 -0.0127 -0.8516
  717MOL0     C94544  -0.577   2.554   4.740 -0.2233  0.4488  0.5531
  717MOL0     C94545  -0.717   2.574   4.758 -0.8758  0.2688 -0.1933
  717MOL0     C94546  -0.764   2.640   4.872 -0.3563 -0.0632  0.1704
  717MOL0     O94547  -0.895   2.673   4.875 -0.8064 -0.6208 -0.2542
  717MOL0     C94548  -0.996   2.576   4.831  0.0440 -0.1407 -0.0592
  717MOL0     C94549  -1.124   2.672   4.822 -0.0285 -0.3931  0.1297
  717MOL0     C94550  -1.244   2.578   4.792 -0.7873  0.1140 -0.3228
  717MOL0     C94551  -1.376   2.665   4.798  0.0235  0.0211  0.3412
  717MOL0     C94552  -1.503   2.576   4.746 -0.7923 -0.3864 -0.2401
  717MOL0     C94553  -1.633   2.661   4.760  0.9349  0.6178 -0.4673
  717MOL0     C94554  -1.657   2.728   4.630  0.1879  0.5685  0.5861
  717MOL0     C94555  -1.695   2.643   4.502  0.0471 -0.2497 -0.4510
  717MOL0    Cl94556  -1.837   2.544   4.553  0.3395  0.0356  0.2311
  717MOL0     C94557  -0.678   2.695   4.956 -0.5934  0.4507 -0.1490
  717MOL0     C94558  -0.542   2.689   4.943 -0.2570  0.0398 -0.5668
  717MOL0     O94559  -0.334   2.396   4.777 -0.3430 -0.5008 -0.3608
  717MOL0     C94560  -0.074   2.639   4.759  0.6968  0.4294  0.0186
  717MOL0     C94561   0.069   2.660   4.753  0.2807  0.0242  0.4288
  717MOL0     N94562   0.483   2.594   5.160 -0.9768 -1.3914  0.7014
  717MOL0     N94563   0.368   2.626   5.204  0.0845  0.3187  0.1665
  717MOL0     C94564  -0.006   3.410   4.766  0.4130 -0.0673 -0.1106
  717MOL0     C94565   0.103   3.492   4.740 -0.6316 -0.5409 -0.2050
  717MOL0     C94566   0.530   3.671   4.763  0.2461  0.4738  1.0833
  717MOL0     C94567   0.666   3.652   4.728 -1.1418  0.2016  0.0879
  717MOL0     C94568   0.761   3.752   4.707 -0.2353 -0.8105 -0.7298
  717MOL0     C94569   0.716   3.884   4.715  0.1602  0.2776 -0.3961
  717MOL0     O94570   0.813   3.978   4.723  0.0119 -0.5788 -0.0067
  717MOL0     C94571   0.843   4.047   4.844  0.3575 -0.1778  0.0587
  717MOL0     C94572   0.933   3.969   4.928 -0.3084 -0.6062  0.4500
  717MOL0     C94573   1.074   3.945   4.861 -0.1135  0.8476  0.6892
  717MOL0     C94574   1.173   3.895   4.966 -0.8057 -0.3447 -0.8181
  717MOL0     C94575   1.282   3.840   4.892  1.2228  0.1703  0.1483
  717MOL0     C94576   1.374   3.799   4.829 -0.4991 -0.7065  0.0295
  717MOL0     C94577   0.588   3.907   4.760  0.5219  0.1607  0.4841
  717MOL0     C94578   0.488   3.805   4.770  0.1776 -1.4236  0.6715
  717MOL0     H94579   0.255   3.483   5.042  3.0173 -0.8592 -3.8041
  717MOL0     H94580   0.029   3.373   5.102 -2.1811 -0.1640 -0.4585
  717MOL0     H94581  -0.042   3.128   5.009 -0.0837 -2.1714 -0.0507
  717MOL0     H94582  -0.102   3.115   4.846 -1.4563 -0.1864  0.6451
  717MOL0     H94583  -0.331   3.113   4.947  0.1987  1.6565  1.5942
  717MOL0     H94584  -0.259   3.154   5.099 -1.5565 -1.4555  0.9039
  717MOL0     H94585  -0.247   2.882   4.967 -2.4699  2.5516 -1.6608
  717MOL0     H94586  -0.329   2.933   5.108 -2.1462  2.1425 -3.1489
  717MOL0     H94587  -0.029   2.889   5.051 -2.9704  1.0937 -3.5259
  717MOL0     H94588  -0.085   2.964   5.208 -0.4224 -0.0428 -0.2844
  717MOL0     H94589  -0.162   2.694   5.091  3.3082 -0.8843  0.6874
  717MOL0     H94590  -0.256   2.770   5.220 -0.7982 -0.8531 -2.0497
  717MOL0     H94591  -0.105   2.623   5.333  0.1173  0.2662  0.6837
  717MOL0     H94592  -0.080   2.788   5.371 -5.9216 -0.7474  0.0162
  717MOL0     H94593   0.130   2.795   5.238 -1.1097 -0.0325  0.7392
  717MOL0     H94594   0.143   2.663   5.340 -0.4630 -3.2769 -1.1440
  717MOL0     H94595   0.100   2.617   5.045 -0.0118  1.4224 -0.1376
  717MOL0     H94596   0.068   2.498   5.178 -0.4301  0.2365  2.2145
  717MOL0     H94597   0.279   2.403   4.977  3.5330 -3.7758  0.8162
  717MOL0     H94598   0.571   2.331   5.014 -0.0583 -0.7783 -2.1577
  717MOL0     H94599   0.662   2.477   4.997  0.0162  0.5465  0.7576
  717MOL0     H94600   0.431   2.373   4.821 -1.0568  0.2967  1.2301
  717MOL0     H94601   0.603   2.373   4.774  0.4191  2.2654 -1.3578
  717MOL0     H94602   0.594   2.627   4.807  0.2206  0.9095  1.4191
  717MOL0     H94603   0.536   2.554   4.660  0.9201 -0.9248  1.0292
  717MOL0     H94604   0.388   2.743   4.751 -1.0366  0.1385 -0.3871
  717MOL0     H94605   0.330   2.629   4.876  1.2096 -2.2915  0.7699
  717MOL0     H94606   0.156   2.347   4.681 -0.8260 -1.6575 -1.2444
  717MOL0     H94607  -0.109   2.312   4.732  1.2258 -0.3123 -0.3406
  717MOL0     H94608  -0.548   2.500   4.651  0.4357 -2.0170  2.1431
  717MOL0     H94609  -0.782   2.530   4.683 -1.3425 -0.2421  0.4885
  717MOL0     H94610  -1.021   2.494   4.900  2.0225 -2.0615 -1.5011
  717MOL0     H94611  -0.985   2.530   4.732  0.7264  1.9674 -1.0280
  717MOL0     H94612  -1.114   2.748   4.744 -0.6582 -0.0553  0.3692
  717MOL0     H94613  -1.133   2.720   4.920  1.7413 -2.4747  1.4151
  717MOL0     H94614  -1.254   2.501   4.870 -1.8182  3.0631  2.7103
  717MOL0     H94615  -1.243   2.533   4.693 -3.1614 -4.3231  1.3761
  717MOL0     H94616  -1.389   2.691   4.903 -4.4466 -1.7139  0.4604
  717MOL0     H94617  -1.355   2.754   4.738 -0.9595 -0.2744 -0.4828
  717MOL0     H94618  -1.511   2.481   4.800 -0.6922 -0.8837 -1.0844
  717MOL0     H94619  -1.489   2.548   4.641 -0.1432  1.6322 -0.7384
  717MOL0     H94620  -1.627   2.739   4.836  2.9594 -0.1225  0.1842
  717MOL0     H94621  -1.713   2.592   4.790 -1.3192  3.3665  0.2611
  717MOL0     H94622  -1.743   2.792   4.651 -0.3353 -0.4350  1.6356
  717MOL0     H94623  -1.573   2.792   4.601 -1.0818  2.2043  0.3468
  717MOL0     H94624  -1.609   2.581   4.476 -0.1113 -1.1210  1.0019
  717MOL0     H94625  -1.729   2.703   4.417 -1.5476 -2.5654 -1.5128
  717MOL0     H94626  -0.712   2.739   5.050  2.4391 -2.2687  2.4365
  717MOL0     H94627  -0.500   2.724   5.037 -4.6481 -2.8110  2.9204
  717MOL0     H94628  -0.130   2.732   4.764 -0.0396 -0.0646  2.7192
  717MOL0     H94629   0.109   2.760   4.742 -3.2271  1.4723 -0.4426
  717MOL0     H94630  -0.082   3.377   4.697  1.9034 -2.0085 -0.9319
  717MOL0     H94631   0.115   3.524   4.637 -0.3617  0.7517  0.2188
  717MOL0     H94632   0.690   3.547   4.739 -0.1235  0.2038 -1.7142
  717MOL0     H94633   0.869   3.744   4.711 -0.1770  0.1734  1.5182
  717MOL0     H94634   0.755   4.075   4.903 -0.1756  1.6948 -1.4985
  717MOL0     H94635   0.885   4.147   4.826 -1.2197  0.4704 -0.1961
  717MOL0     H94636   0.949   4.030   5.018  0.5744  0.1930 -0.2216
  717MOL0     H94637   0.908   3.865   4.950  1.4651 -1.7235 -2.2946
  717MOL0     H94638   1.113   4.038   4.817 -1.0030  0.1177 -1.8496
  717MOL0     H94639   1.060   3.874   4.779  4.9663 -0.5481  0.6759
  717MOL0     H94640   1.205   3.972   5.036  0.0312 -2.2729  1.0217
  717MOL0     H94641   1.132   3.816   5.030 -0.6102  0.5202  0.4147
  717MOL0     H94642   1.455   3.757   4.774  3.9502 -1.2565  6.0745
  717MOL0     H94643   0.572   4.012   4.784  4.0565 -0.0345  5.0603
  717MOL0     H94644   0.383   3.832   4.780 -0.0251 -1.1246 -1.6591
  718MOL0     O94645   9.163   6.224   1.781 -1.1156 -0.1392 -0.2179
  718MOL0     C94646   9.172   6.221   1.660 -0.7101 -0.4029  0.2125
  718MOL0     O94647   9.100   6.152   1.571  0.5299 -0.1995  0.1815
  718MOL0     C94648   8.998   6.072   1.624 -0.5557 -0.7453  0.3265
  718MOL0     C94649   8.865   6.117   1.615 -0.0985  0.3888  0.8473
  718MOL0     C94650   8.767   6.034   1.671 -0.0361 -0.3326  0.0314
  718MOL0     C94651   8.794   5.905   1.729  0.2746 -0.1882  0.1840
  718MOL0     O94652   8.707   5.820   1.791  0.3930  0.0776 -0.6080
  718MOL0     C94653   8.563   5.845   1.793 -0.0773  0.6688  0.0353
  718MOL0     C94654   8.504   5.733   1.884 -0.5982  0.0465  0.5212
  718MOL0     C94655   8.367   5.687   1.821  1.0881  0.1003  0.0999
  718MOL0     C94656   8.311   5.562   1.895 -0.0014 -0.9260  0.5923
  718MOL0     C94657   8.169   5.531   1.838 -0.2110 -0.1169 -0.7312
  718MOL0     C94658   8.109   5.419   1.920 -0.7521  0.0078 -0.4712
  718MOL0     C94659   7.958   5.414   1.892 -0.2819  0.5399 -0.2137
  718MOL0     C94660   7.887   5.290   1.946  0.5966  0.0402  0.3897
  718MOL0     N94661   7.747   5.324   1.923  0.6373  0.0140 -0.1078
  718MOL0     C94662   7.664   5.371   2.025 -1.0155 -0.5136  0.1052
  718MOL0     C94663   7.545   5.360   1.965  0.0048  0.1526  0.4704
  718MOL0     C94664   7.419   5.394   2.044 -0.1166  0.1191 -0.3212
  718MOL0     C94665   7.313   5.452   1.950  0.0600  0.0844 -0.0279
  718MOL0     C94666   7.203   5.515   2.029 -0.0270  0.2965 -0.5322
  718MOL0     C94667   7.074   5.449   1.975 -0.2056 -0.5095  0.2761
  718MOL0     O94668   6.953   5.517   2.017 -0.9650 -0.1662 -0.7094
  718MOL0     C94669   6.827   5.478   1.983 -0.9357  0.7217  0.3321
  718MOL0     C94670   6.789   5.367   1.915  0.6416  0.2453  0.5339
  718MOL0     C94671   6.649   5.325   1.902 -0.2608  0.0765  0.4822
  718MOL0     C94672   6.557   5.408   1.963  0.2753 -0.1524 -0.2114
  718MOL0     C94673   6.412   5.363   1.973 -0.0256  0.4669 -0.3855
  718MOL0     O94674   6.324   5.453   2.030  0.5959 -0.9136  0.6862
  718MOL0     C94675   6.189   5.440   2.045  0.9967  0.5885 -0.1482
  718MOL0     C94676   6.105   5.369   1.958  0.5126  0.4399  0.2757
  718MOL0     C94677   5.967   5.394   1.947 -0.1602 -0.4154 -0.7196
  718MOL0     C94678   5.910   5.478   2.044  0.9163 -0.0162 -0.6234
  718MOL0     O94679   5.776   5.506   2.049 -0.7709  0.9280  0.6055
  718MOL0     C94680   5.719   5.490   2.177  0.4661  0.5512  0.4997
  718MOL0     C94681   5.674   5.341   2.200 -0.6071 -0.1426  0.2120
  718MOL0     C94682   5.647   5.286   2.341  0.1778 -0.0375 -1.6448
  718MOL0     C94683   5.516   5.345   2.387 -0.6409 -0.1770  0.2223
  718MOL0     C94684   5.460   5.237   2.487 -0.4460  0.3544  0.0883
  718MOL0     C94685   5.503   5.284   2.631 -0.3211  0.1748 -0.0111
  718MOL0     C94686   5.635   5.219   2.679 -0.6707 -0.4157  0.1585
  718MOL0     C94687   5.643   5.231   2.835  0.3691  0.0058  0.5950
  718MOL0    Cl94688   5.671   5.400   2.901 -0.0630 -0.4563 -0.5886
  718MOL0     C94689   5.998   5.535   2.141 -0.4963 -0.1273 -0.1190
  718MOL0     C94690   6.133   5.519   2.141  0.7224 -0.1574  0.4869
  718MOL0     O94691   6.389   5.251   1.931  0.8983  0.1639  0.6978
  718MOL0     C94692   6.595   5.529   2.022 -0.7832  0.4239 -0.0806
  718MOL0     C94693   6.737   5.566   2.024  0.7349 -0.2942 -0.2807
  718MOL0     N94694   7.553   5.312   1.831  0.0125 -1.0127  0.5372
  718MOL0     N94695   7.674   5.295   1.813  0.4976 -0.2600  0.7022
  718MOL0     C94696   8.919   5.865   1.742 -0.3495  0.2242  0.1221
  718MOL0     C94697   9.024   5.946   1.690 -0.0967  0.0284 -0.5892
  718MOL0     C94698   9.273   6.316   1.609 -0.4176  0.1106 -0.3730
  718MOL0     C94699   9.305   6.295   1.472  0.4797  0.5656  0.7279
  718MOL0     C94700   9.391   6.374   1.417  0.1140 -0.1945  0.2020
  718MOL0     C94701   9.459   6.479   1.483  0.4909 -0.5674  1.1184
  718MOL0     O94702   9.550   6.549   1.411 -0.7174  0.1172  0.1344
  718MOL0     C94703   9.661   6.602   1.480  0.5385 -0.0619 -0.2720
  718MOL0     C94704   9.759   6.506   1.546  0.1528 -1.2035  0.2191
  718MOL0     C94705   9.878   6.581   1.611  0.6689  0.0555  0.3252
  718MOL0     C94706   9.965   6.483   1.686 -0.1133 -0.4154  1.0835
  718MOL0     C94707   9.899   6.443   1.813 -0.4449 -0.1704 -0.2511
  718MOL0     C94708   9.837   6.415   1.915  0.0832 -0.4104  0.8444
  718MOL0     C94709   9.428   6.501   1.615 -0.0177  1.0044  0.5884
  718MOL0     C94710   9.340   6.414   1.674  0.1925  0.0293 -0.2382
  718MOL0     H94711   8.844   6.211   1.564 -1.2178  1.0601  2.4714
  718MOL0     H94712   8.674   6.086   1.653 -0.0587  0.9135  3.1718
  718MOL0     H94713   8.526   5.829   1.692 -0.3532 -3.5063  0.6450
  718MOL0     H94714   8.542   5.950   1.819 -0.9640  0.3746  0.5819
  718MOL0     H94715   8.477   5.776   1.981 -2.0546  1.5899 -0.5179
  718MOL0     H94716   8.578   5.654   1.898  0.1789  0.5019 -0.7544
  718MOL0     H94717   8.372   5.660   1.715 -0.3816 -1.0798  0.2862
  718MOL0     H94718   8.290   5.765   1.822  2.8716  2.0052 -1.5593
  718MOL0     H94719   8.371   5.471   1.885 -3.0715 -2.8216 -4.2763
  718MOL0     H94720   8.310   5.584   2.003 -0.1551 -0.9569  0.5973
  718MOL0     H94721   8.167   5.489   1.737  0.9144 -2.4324  0.1344
  718MOL0     H94722   8.107   5.621   1.832 -1.6660 -0.5613  3.6663
  718MOL0     H94723   8.132   5.441   2.025  0.5711 -0.6541 -0.5971
  718MOL0     H94724   8.158   5.325   1.892 -1.2951 -0.0926 -1.1102
  718MOL0     H94725   7.915   5.501   1.944  1.5807 -0.1201  2.6899
  718MOL0     H94726   7.932   5.418   1.786 -0.4880  0.6260 -0.1611
  718MOL0     H94727   7.911   5.291   2.053 -2.9844  3.7723  1.4325
  718MOL0     H94728   7.909   5.197   1.892 -1.5399 -1.1440  1.4199
  718MOL0     H94729   7.692   5.394   2.128  0.0094 -0.8375 -0.0922
  718MOL0     H94730   7.441   5.477   2.112  0.7292  0.5509 -1.1107
  718MOL0     H94731   7.388   5.301   2.093  0.2861  1.1673  2.1025
  718MOL0     H94732   7.280   5.377   1.878 -1.3287 -1.8967  2.5190
  718MOL0     H94733   7.363   5.533   1.895 -1.5301  0.6338 -0.7450
  718MOL0     H94734   7.212   5.493   2.136  0.0023 -1.4655 -0.8640
  718MOL0     H94735   7.198   5.621   2.002 -0.0377  0.3360 -0.3748
  718MOL0     H94736   7.077   5.351   2.023 -2.2665 -1.3299 -1.1264
  718MOL0     H94737   7.080   5.437   1.867 -0.7423 -1.1889  0.3125
  718MOL0     H94738   6.847   5.288   1.869 -1.9495 -1.7881  0.5311
  718MOL0     H94739   6.623   5.228   1.862  1.5052 -0.7106  1.1264
  718MOL0     H94740   6.129   5.300   1.877 -0.1491  2.8945 -2.1749
  718MOL0     H94741   5.890   5.352   1.885 -2.1631  1.1115  0.6056
  718MOL0     H94742   5.637   5.561   2.186  0.9905  1.3847 -0.9435
  718MOL0     H94743   5.779   5.528   2.260  0.4479  0.9870  0.3145
  718MOL0     H94744   5.767   5.293   2.168 -0.3198  0.5108  0.0563
  718MOL0     H94745   5.595   5.319   2.127  2.2246 -1.0230 -2.8200
  718MOL0     H94746   5.723   5.332   2.405 -1.2447  1.9695 -1.2809
  718MOL0     H94747   5.655   5.177   2.342 -2.0877 -0.2497 -1.2533
  718MOL0     H94748   5.529   5.444   2.433 -0.2419  0.3266 -0.9447
  718MOL0     H94749   5.440   5.353   2.309 -2.7981 -3.5732  1.7443
  718MOL0     H94750   5.484   5.133   2.466  0.6973  0.4847  0.6449
  718MOL0     H94751   5.351   5.235   2.486 -0.5341  1.3508  2.2522
  718MOL0     H94752   5.424   5.253   2.700 -0.6773 -0.8554 -0.8611
  718MOL0     H94753   5.513   5.393   2.639  2.2456  0.3515 -3.5057
  718MOL0     H94754   5.654   5.115   2.652  1.8469  0.2439 -0.9073
  718MOL0     H94755   5.715   5.282   2.639  0.5586 -1.0602  1.5379
  718MOL0     H94756   5.715   5.163   2.883 -3.0206 -2.5865  2.4957
  718MOL0     H94757   5.546   5.211   2.882  0.7354  0.9205  1.7958
  718MOL0     H94758   5.961   5.590   2.227 -0.0602 -2.1067  1.3972
  718MOL0     H94759   6.201   5.564   2.214  0.5384 -0.0334  0.5831
  718MOL0     H94760   6.524   5.608   2.044 -0.0964  0.6555  1.4316
  718MOL0     H94761   6.767   5.660   2.070 -1.1368  1.0974 -1.7664
  718MOL0     H94762   8.941   5.776   1.801 -1.4886 -0.0124  0.2174
  718MOL0     H94763   9.126   5.915   1.709  0.8409  1.7306 -2.4060
  718MOL0     H94764   9.248   6.232   1.405 -1.4069  3.1751 -0.3014
  718MOL0     H94765   9.415   6.350   1.314  0.4868 -1.8182  0.6320
  718MOL0     H94766   9.619   6.664   1.560 -1.1724 -3.3904  1.5953
  718MOL0     H94767   9.711   6.664   1.405  0.7634  0.1028  0.0089
  718MOL0     H94768   9.699   6.456   1.622 -2.4970 -0.7771 -1.4826
  718MOL0     H94769   9.791   6.428   1.477  0.2382 -0.0758 -1.0441
  718MOL0     H94770   9.852   6.658   1.685  5.2953  2.6334 -0.3737
  718MOL0     H94771   9.934   6.625   1.528 -0.6350  0.4199 -0.3908
  718MOL0     H94772  10.003   6.398   1.629 -0.6606  0.4394 -0.6086
  718MOL0     H94773  10.061   6.534   1.699  0.4543 -1.3264  0.5691
  718MOL0     H94774   9.798   6.404   2.015 -1.9359  0.1374  0.1690
  718MOL0     H94775   9.473   6.575   1.681 -2.2788  0.6299  2.6637
  718MOL0     H94776   9.321   6.437   1.779  0.9715  1.7857 -0.4528
  719MOL0     O94777   7.781   5.379   8.583 -0.3359  0.0936  0.4163
  719MOL0     C94778   7.851   5.474   8.556 -0.0780  0.2497  0.2698
  719MOL0     O94779   7.988   5.500   8.599 -0.0293  1.1974  0.2492
  719MOL0     C94780   8.064   5.425   8.682  0.0444 -0.1916  0.8097
  719MOL0     C94781   8.024   5.312   8.749  1.4331 -1.0510  0.1447
  719MOL0     C94782   8.092   5.249   8.847  0.6336  0.2364  0.3038
  719MOL0     C94783   8.223   5.283   8.871  0.4608  0.7579 -0.0596
  719MOL0     O94784   8.294   5.222   8.970  0.3291  0.0723 -0.1550
  719MOL0     C94785   8.328   5.089   8.941  0.3117  0.5300  0.3541
  719MOL0     C94786   8.407   5.029   9.053 -1.1105 -1.0394 -0.4154
  719MOL0     C94787   8.328   5.018   9.184  0.2046 -0.2093 -0.3535
  719MOL0     C94788   8.258   4.874   9.214 -0.5105  0.7357 -0.4143
  719MOL0     C94789   8.148   4.895   9.326  0.1775  0.2042  0.4505
  719MOL0     C94790   8.092   4.762   9.373  0.2601  0.1820  0.1129
  719MOL0     C94791   7.973   4.775   9.475 -0.0451 -0.2376  0.6009
  719MOL0     C94792   7.828   4.776   9.411  0.2426 -0.5074 -0.4475
  719MOL0     N94793   7.806   4.883   9.312  0.0509 -0.3385  0.2812
  719MOL0     C94794   7.808   5.018   9.337  0.5905  0.1226 -0.9305
  719MOL0     C94795   7.735   5.079   9.241 -0.9101  0.0576  0.0312
  719MOL0     C94796   7.726   5.228   9.238 -0.1215  0.8268  1.3407
  719MOL0     C94797   7.771   5.273   9.099 -0.2281 -0.0465 -0.2354
  719MOL0     C94798   7.666   5.260   8.988 -1.2970  0.3004  0.2734
  719MOL0     C94799   7.522   5.295   9.024  0.1582  1.5905  0.4587
  719MOL0     O94800   7.453   5.301   8.896  0.4780 -0.3852 -0.1489
  719MOL0     C94801   7.314   5.312   8.894  0.7426 -0.2088  0.0870
  719MOL0     C94802   7.228   5.278   9.003 -0.3073  0.1622  0.0724
  719MOL0     C94803   7.093   5.259   8.988  0.6885  0.5088 -0.1790
  719MOL0     C94804   7.022   5.289   8.870 -0.6563 -0.0282 -0.0206
  719MOL0     C94805   6.872   5.263   8.855 -0.6623 -0.1003  0.5330
  719MOL0     O94806   6.832   5.254   8.725 -0.0813 -0.5874 -0.3632
  719MOL0     C94807   6.710   5.210   8.694 -0.3851 -2.2560 -0.6846
  719MOL0     C94808   6.666   5.075   8.705 -0.1203  0.1378  0.5837
  719MOL0     C94809   6.552   5.030   8.633 -0.2790 -0.3176  0.2854
  719MOL0     C94810   6.479   5.125   8.554 -0.6302 -0.0696  0.1924
  719MOL0     O94811   6.362   5.089   8.495 -0.3482  0.0390 -0.2165
  719MOL0     C94812   6.282   4.978   8.552 -1.2668  0.3345  0.3984
  719MOL0     C94813   6.147   4.956   8.472 -0.0429  0.6833 -0.0391
  719MOL0     C94814   6.054   5.080   8.494 -0.2422  0.1009 -0.0986
  719MOL0     C94815   5.932   5.069   8.401 -0.2647  0.1418 -0.3044
  719MOL0     C94816   5.829   4.963   8.446 -0.5469 -0.3273 -1.1630
  719MOL0     C94817   5.760   4.998   8.586  0.5709  0.1568  0.0561
  719MOL0     C94818   5.690   5.140   8.583 -0.6621  0.4720  1.2143
  719MOL0     C94819   5.585   5.152   8.698 -0.9184 -0.3148 -0.2553
  719MOL0    Cl94820   5.451   5.042   8.648  0.2224  0.2029  0.1205
  719MOL0     C94821   6.515   5.265   8.561  0.5482 -0.1946  0.3621
  719MOL0     C94822   6.631   5.302   8.624 -0.2383  0.5447 -0.9405
  719MOL0     O94823   6.802   5.240   8.953  0.2840  0.0227  0.0685
  719MOL0     C94824   7.105   5.341   8.768 -0.6695 -0.3638 -0.0662
  719MOL0     C94825   7.246   5.350   8.783 -0.6751 -0.7529  0.1859
  719MOL0     N94826   7.689   4.979   9.154 -0.1881  0.6406  0.2900
  719MOL0     N94827   7.732   4.862   9.198  0.7896  0.5133 -0.0563
  719MOL0     C94828   8.265   5.393   8.805  0.0184 -0.2719  0.6837
  719MOL0     C94829   8.189   5.466   8.714 -0.3898  0.0406  0.6632
  719MOL0     C94830   7.797   5.558   8.449  0.4133 -0.0196  0.1153
  719MOL0     C94831   7.882   5.613   8.343  0.8396  0.7979 -1.0993
  719MOL0     C94832   7.834   5.704   8.244  0.5208  0.2428  0.0292
  719MOL0     C94833   7.694   5.746   8.251 -0.9406 -0.0132 -0.1421
  719MOL0     O94834   7.628   5.844   8.172 -0.6228 -0.1534  0.2454
  719MOL0     C94835   7.698   5.890   8.052  0.1194  0.0197  0.2059
  719MOL0     C94836   7.672   5.775   7.950 -0.1299  1.3232 -0.5483
  719MOL0     C94837   7.753   5.801   7.818  0.3290  0.1489 -0.1552
  719MOL0     C94838   7.908   5.778   7.829  0.3586  0.7387 -0.3725
  719MOL0     C94839   7.991   5.802   7.705  0.4502 -0.5274  0.0170
  719MOL0     C94840   8.060   5.811   7.611 -0.4945  0.8159  0.0870
  719MOL0     C94841   7.616   5.677   8.347 -0.2192 -0.3666  0.4249
  719MOL0     C94842   7.665   5.586   8.439 -0.3786  0.2290 -0.6348
  719MOL0     H94843   7.922   5.275   8.737  0.3156  2.1688 -1.4598
  719MOL0     H94844   8.055   5.160   8.896 -0.4110  1.0846  1.0949
  719MOL0     H94845   8.385   5.093   8.848  2.0735  0.9936  1.4017
  719MOL0     H94846   8.237   5.029   8.931  1.7149 -1.7832  0.6273
  719MOL0     H94847   8.491   5.097   9.070 -2.4394  0.9593 -1.4643
  719MOL0     H94848   8.460   4.937   9.025 -0.1929 -0.8586  0.6581
  719MOL0     H94849   8.253   5.097   9.177 -1.3609 -1.7195 -1.0156
  719MOL0     H94850   8.385   5.044   9.275 -0.7202 -1.8252  0.7437
  719MOL0     H94851   8.211   4.835   9.124  0.2353  2.5799 -1.6522
  719MOL0     H94852   8.332   4.800   9.246 -0.6930  1.1127  0.9512
  719MOL0     H94853   8.067   4.962   9.295 -1.0153 -0.4653  1.9576
  719MOL0     H94854   8.198   4.936   9.414  2.5820  1.4938 -1.3900
  719MOL0     H94855   8.174   4.715   9.428  0.6375  2.0401  1.2130
  719MOL0     H94856   8.053   4.705   9.288 -1.9175  0.0314  1.1424
  719MOL0     H94857   7.980   4.705   9.559  2.0446 -0.6981  0.0936
  719MOL0     H94858   7.996   4.869   9.526 -0.3409 -0.2467  0.7572
  719MOL0     H94859   7.760   4.791   9.495  2.4596  1.2204  1.1564
  719MOL0     H94860   7.811   4.678   9.364 -0.0230 -1.3355  1.2834
  719MOL0     H94861   7.868   5.072   9.409  0.5335  1.9410 -2.1738
  719MOL0     H94862   7.790   5.265   9.318 -0.5589 -0.7381  2.4604
  719MOL0     H94863   7.622   5.255   9.259 -1.1286  0.3539 -2.3698
  719MOL0     H94864   7.864   5.229   9.062  0.1595  1.2689 -0.8767
  719MOL0     H94865   7.792   5.380   9.110 -1.1927  0.1019  0.2916
  719MOL0     H94866   7.707   5.331   8.914  3.7505 -1.2792  1.1789
  719MOL0     H94867   7.669   5.157   8.951 -2.7834  1.1927 -2.6697
  719MOL0     H94868   7.513   5.380   9.091  2.5725  1.2355  1.3532
  719MOL0     H94869   7.476   5.210   9.076  2.6133 -0.3370 -0.3290
  719MOL0     H94870   7.264   5.236   9.096  3.8421  1.2299 -0.8176
  719MOL0     H94871   7.038   5.216   9.072  1.2601 -2.4138 -1.1643
  719MOL0     H94872   6.725   4.999   8.754 -3.2052 -1.3236  2.3413
  719MOL0     H94873   6.520   4.927   8.643 -0.8059 -0.4908 -2.3473
  719MOL0     H94874   6.266   4.989   8.660 -0.5195 -0.7812  0.6430
  719MOL0     H94875   6.344   4.889   8.541  3.5551  3.3552  0.2897
  719MOL0     H94876   6.103   4.864   8.513  0.2253  0.1468 -0.9257
  719MOL0     H94877   6.169   4.935   8.367 -0.0409  1.4099 -0.1904
  719MOL0     H94878   6.107   5.172   8.468 -1.9037  1.6323  1.6580
  719MOL0     H94879   6.018   5.097   8.595  1.5160  1.5542  0.3286
  719MOL0     H94880   5.894   5.170   8.416 -0.1201  0.1590 -0.0510
  719MOL0     H94881   5.970   5.060   8.299  3.3320 -0.9195  0.9836
  719MOL0     H94882   5.878   4.867   8.466  1.4647  0.7300 -0.6861
  719MOL0     H94883   5.744   4.967   8.377 -3.4777  0.9091  2.2268
  719MOL0     H94884   5.842   4.997   8.659 -1.1964 -1.2664  2.1828
  719MOL0     H94885   5.695   4.913   8.609  0.9413 -0.5675 -1.4928
  719MOL0     H94886   5.760   5.224   8.583  1.3031 -0.9836 -1.7566
  719MOL0     H94887   5.630   5.144   8.492 -0.4792  1.4098  1.1335
  719MOL0     H94888   5.546   5.254   8.702  0.7024  0.4646 -2.1694
  719MOL0     H94889   5.629   5.119   8.792 -2.9375  1.5665  1.4480
  719MOL0     H94890   6.449   5.331   8.505  1.9370 -0.6768 -1.9996
  719MOL0     H94891   6.657   5.407   8.617 -3.5249  1.6681  1.1658
  719MOL0     H94892   7.060   5.379   8.677 -0.2379  0.6578  0.1341
  719MOL0     H94893   7.298   5.398   8.701 -1.8509  0.5248  0.1372
  719MOL0     H94894   8.370   5.406   8.829 -0.1596 -4.1036  4.9889
  719MOL0     H94895   8.222   5.561   8.673  0.0706 -1.4349 -2.6965
  719MOL0     H94896   7.990   5.601   8.347  0.8171  0.9047  1.1837
  719MOL0     H94897   7.899   5.764   8.181  1.9697 -0.4065  0.8610
  719MOL0     H94898   7.804   5.907   8.072  0.9612 -3.6744 -0.5462
  719MOL0     H94899   7.667   5.989   8.017 -0.6564  0.1091  1.0950
  719MOL0     H94900   7.703   5.683   8.000 -1.6847  1.4373  0.7146
  719MOL0     H94901   7.565   5.773   7.925 -0.2453  1.4541 -0.0692
  719MOL0     H94902   7.740   5.906   7.790 -0.3214  1.4096  4.1288
  719MOL0     H94903   7.712   5.733   7.743 -4.1537  0.6763  1.4792
  719MOL0     H94904   7.946   5.851   7.901  1.2780  1.0918 -1.1902
  719MOL0     H94905   7.950   5.684   7.866  0.0038  1.2710  1.5282
  719MOL0     H94906   8.126   5.822   7.527  2.1517  1.8128  2.1679
  719MOL0     H94907   7.508   5.693   8.345 -0.1620  0.0418 -1.8706
  719MOL0     H94908   7.603   5.540   8.515  2.2530  0.8203  2.0682
  720MOL0     O94909   9.039   0.295   5.455 -0.1288  0.7228 -0.9188
  720MOL0     C94910   9.083   0.179   5.427  0.7096 -0.0404  0.8153
  720MOL0     O94911   9.005   0.073   5.389 -0.4743  0.2728  0.6639
  720MOL0     C94912   8.869   0.084   5.387 -0.2812 -0.3985 -0.1245
  720MOL0     C94913   8.801  -0.016   5.306 -0.7147 -0.7122  0.3384
  720MOL0     C94914   8.664  -0.032   5.302 -0.0853  0.6498 -0.0934
  720MOL0     C94915   8.586   0.048   5.391  0.9672 -0.4068 -0.3350
  720MOL0     O94916   8.448   0.029   5.380 -0.4306  0.4699 -0.0632
  720MOL0     C94917   8.336   0.103   5.448 -0.0777 -0.9365 -0.6431
  720MOL0     C94918   8.316   0.245   5.392  0.1212 -1.3976  0.0481
  720MOL0     C94919   8.182   0.304   5.442 -0.2054 -0.3073  0.0128
  720MOL0     C94920   8.109   0.406   5.347 -0.8910  0.4886 -0.3970
  720MOL0     C94921   7.974   0.446   5.407 -0.7627 -0.7363  0.5238
  720MOL0     C94922   7.874   0.519   5.325 -0.0485 -0.4230  0.6883
  720MOL0     C94923   7.757   0.586   5.396  0.6599  0.2760  0.2911
  720MOL0     C94924   7.659   0.634   5.285  0.0378  0.0687 -1.0975
  720MOL0     N94925   7.540   0.690   5.349  0.7803 -0.2596 -0.1332
  720MOL0     C94926   7.519   0.827   5.374  0.8261  0.3264 -0.1656
  720MOL0     C94927   7.387   0.836   5.409 -0.0512  0.6767  0.1966
  720MOL0     C94928   7.322   0.954   5.455 -0.3834  0.0490  0.6708
  720MOL0     C94929   7.234   1.026   5.355  0.1825 -0.1843  0.2005
  720MOL0     C94930   7.088   0.972   5.337 -0.2400  0.7231  0.3538
  720MOL0     C94931   7.014   1.050   5.220  0.0531 -0.2903  0.8162
  720MOL0     O94932   6.881   0.981   5.182  0.1952 -0.8488 -0.3656
  720MOL0     C94933   6.776   1.065   5.132  0.7181  0.5533  0.2130
  720MOL0     C94934   6.662   0.989   5.091  0.3422  0.1751 -0.3838
  720MOL0     C94935   6.552   1.063   5.034 -0.5258 -0.5029  0.7167
  720MOL0     C94936   6.554   1.200   5.018  0.2146  0.1498  0.5833
  720MOL0     C94937   6.437   1.276   4.956 -0.5199  0.3937 -0.8550
  720MOL0     O94938   6.338   1.188   4.914 -0.0744 -0.3970  0.1773
  720MOL0     C94939   6.210   1.221   4.889  0.3017 -0.4311 -0.0335
  720MOL0     C94940   6.165   1.342   4.829  0.7735 -0.6987 -0.6051
  720MOL0     C94941   6.034   1.351   4.785 -0.7779  1.3627  0.0841
  720MOL0     C94942   5.938   1.258   4.812 -0.6579  1.3189  0.1514
  720MOL0     O94943   5.809   1.294   4.785  0.2512 -0.1239  0.0325
  720MOL0     C94944   5.714   1.319   4.890 -0.5954  0.4279  0.4106
  720MOL0     C94945   5.717   1.463   4.948 -0.0911 -0.7079 -0.3346
  720MOL0     C94946   5.659   1.557   4.837 -0.4879 -0.5466 -0.6958
  720MOL0     C94947   5.606   1.684   4.905  0.8063  0.0713  0.3580
  720MOL0     C94948   5.459   1.656   4.938  0.1035 -0.8544  0.0378
  720MOL0     C94949   5.414   1.797   4.986 -0.4038 -0.0563  0.6504
  720MOL0     C94950   5.273   1.792   5.047  0.9374  0.1679  0.4980
  720MOL0     C94951   5.164   1.794   4.937 -0.1857 -0.5928 -0.6174
  720MOL0    Cl94952   4.999   1.773   5.002  0.1037  0.2432 -0.0720
  720MOL0     C94953   5.972   1.140   4.877 -0.4622 -0.2147  0.7703
  720MOL0     C94954   6.107   1.121   4.915 -0.3006  0.7163  0.3484
  720MOL0     O94955   6.437   1.399   4.960  0.4039  0.6449  1.2586
  720MOL0     C94956   6.669   1.266   5.067  0.8134  0.0070  0.4189
  720MOL0     C94957   6.775   1.203   5.123  0.0622 -0.2541  0.9415
  720MOL0     N94958   7.341   0.703   5.413 -0.8665 -0.3251 -0.2873
  720MOL0     N94959   7.432   0.622   5.373 -0.0631 -0.4740 -0.1439
  720MOL0     C94960   8.651   0.148   5.467  0.1984  0.6426  0.0523
  720MOL0     C94961   8.789   0.157   5.474 -1.1652 -0.7880  0.3537
  720MOL0     C94962   9.228   0.154   5.421  1.0185 -0.1792  0.4584
  720MOL0     C94963   9.315   0.253   5.471  0.1231 -0.1492  0.5164
  720MOL0     C94964   9.458   0.241   5.452  0.1224 -0.5979  0.2291
  720MOL0     C94965   9.508   0.131   5.391 -0.8549  0.6291  0.2531
  720MOL0     O94966   9.641   0.117   5.350  0.4017  1.1267  0.0477
  720MOL0     C94967   9.735   0.182   5.432 -0.5348  0.0705  0.5306
  720MOL0     C94968   9.876   0.139   5.392  0.1595 -0.2080 -0.5488
  720MOL0     C94969   9.965   0.076   5.501  0.1916 -0.5309  0.3897
  720MOL0     C94970  10.071  -0.012   5.439  0.9472 -0.9212 -0.4553
  720MOL0     C94971  10.143  -0.081   5.540  0.5639 -0.7874 -1.0092
  720MOL0     C94972  10.217  -0.152   5.605  0.8174  0.6204  0.3500
  720MOL0     C94973   9.425   0.031   5.346 -0.5082  0.2060 -0.7087
  720MOL0     C94974   9.281   0.041   5.355 -0.2668 -0.8944 -0.1395
  720MOL0     H94975   8.859  -0.070   5.231 -0.5768  1.8471 -1.5372
  720MOL0     H94976   8.625  -0.114   5.242  1.4791  0.4463 -0.8860
  720MOL0     H94977   8.363   0.117   5.553  0.2223 -0.2530 -0.8087
  720MOL0     H94978   8.248   0.039   5.458  0.0476 -1.1252 -0.7507
  720MOL0     H94979   8.307   0.240   5.283  0.7800 -1.4369 -0.0123
  720MOL0     H94980   8.398   0.315   5.410 -0.0875 -1.0302 -0.4250
  720MOL0     H94981   8.193   0.345   5.543 -1.8008  0.3380 -0.0474
  720MOL0     H94982   8.108   0.224   5.452 -2.2479  0.6013 -4.9502
  720MOL0     H94983   8.171   0.495   5.332  1.0572 -0.4930  1.4079
  720MOL0     H94984   8.094   0.356   5.251 -2.5901 -1.2930  0.7222
  720MOL0     H94985   7.994   0.529   5.475 -3.4418 -2.1056  3.1938
  720MOL0     H94986   7.927   0.355   5.445  0.8511 -2.4105 -1.2824
  720MOL0     H94987   7.845   0.450   5.245 -1.9796  1.7018 -0.5502
  720MOL0     H94988   7.925   0.607   5.283 -0.8281  0.8287  2.2520
  720MOL0     H94989   7.703   0.524   5.468  0.3728  2.6814  2.2913
  720MOL0     H94990   7.782   0.671   5.460 -1.3042  0.6190  0.6714
  720MOL0     H94991   7.633   0.552   5.218 -1.2295 -1.6911  1.3812
  720MOL0     H94992   7.719   0.704   5.226 -1.2793  2.5006  0.2767
  720MOL0     H94993   7.585   0.913   5.362 -0.1492  1.2600  0.9556
  720MOL0     H94994   7.392   1.036   5.474 -0.8302  1.0384 -1.6984
  720MOL0     H94995   7.283   0.941   5.557  3.4548 -0.1021  2.3068
  720MOL0     H94996   7.281   1.039   5.257  2.2578  3.8867  1.5204
  720MOL0     H94997   7.213   1.128   5.390 -3.6819 -1.0400  0.8180
  720MOL0     H94998   7.091   0.866   5.312 -0.6263  0.6256  0.7078
  720MOL0     H94999   7.028   0.986   5.428 -0.7498 -2.3463  0.5851
  720MOL0     H95000   7.076   1.078   5.135 -1.5029  4.6175  0.9248
  720MOL0     H95001   6.994   1.150   5.262 -1.0570  0.0408 -0.4333
  720MOL0     H95002   6.654   0.881   5.098 -2.3181  0.2265 -1.3437
  720MOL0     H95003   6.461   1.009   5.010 -0.7256 -1.3456  3.0240
  720MOL0     H95004   6.229   1.422   4.793 -1.9463  0.8515 -2.2395
  720MOL0     H95005   6.024   1.441   4.725  1.0165  0.9850 -0.8359
  720MOL0     H95006   5.734   1.251   4.973 -0.4623 -0.3380 -0.2360
  720MOL0     H95007   5.618   1.288   4.849  0.2685 -1.9088  0.0174
  720MOL0     H95008   5.815   1.494   4.988 -0.7729 -1.5111  2.1057
  720MOL0     H95009   5.651   1.469   5.035 -1.2673 -1.9103 -1.1132
  720MOL0     H95010   5.585   1.504   4.777 -0.6097 -1.4970  0.2512
  720MOL0     H95011   5.739   1.586   4.768 -1.0603 -0.9652 -1.5507
  720MOL0     H95012   5.663   1.716   4.993 -1.0506  0.5435  1.4345
  720MOL0     H95013   5.620   1.767   4.835 -0.9564  0.0692 -0.0406
  720MOL0     H95014   5.453   1.589   5.024  0.0764 -1.7054 -0.6107
  720MOL0     H95015   5.400   1.613   4.856  0.4562  0.3335 -0.8628
  720MOL0     H95016   5.427   1.858   4.896  2.3163 -0.8897  0.3928
  720MOL0     H95017   5.486   1.848   5.050  0.6095  0.3078 -0.7104
  720MOL0     H95018   5.262   1.704   5.110 -0.5248 -0.3953 -0.5017
  720MOL0     H95019   5.266   1.880   5.112  2.0204 -0.0033  0.8677
  720MOL0     H95020   5.185   1.718   4.860  1.1052 -2.1977  1.2094
  720MOL0     H95021   5.167   1.893   4.892 -0.9706  0.4486  1.4975
  720MOL0     H95022   5.892   1.071   4.902 -1.8347  1.1524  0.3017
  720MOL0     H95023   6.137   1.020   4.944 -1.5387 -0.2389 -1.4665
  720MOL0     H95024   6.663   1.374   5.057 -1.2643 -0.2077 -1.5030
  720MOL0     H95025   6.858   1.267   5.151  1.5799  0.0234 -3.3865
  720MOL0     H95026   8.592   0.213   5.531 -0.3487  0.4178 -0.2169
  720MOL0     H95027   8.832   0.217   5.553  1.2614 -1.7198 -0.1636
  720MOL0     H95028   9.283   0.343   5.521  0.1864 -1.1308  2.4309
  720MOL0     H95029   9.531   0.316   5.480  0.1591 -0.8012  0.6806
  720MOL0     H95030   9.722   0.153   5.536  0.6249  1.0890  0.9870
  720MOL0     H95031   9.738   0.291   5.424  1.5894  0.0301  0.0496
  720MOL0     H95032   9.880   0.068   5.309  0.9614 -1.2314  0.3418
  720MOL0     H95033   9.934   0.226   5.359  2.3313 -0.5401  2.0490
  720MOL0     H95034   9.905   0.018   5.572 -1.6632  0.6639 -0.1456
  720MOL0     H95035  10.021   0.154   5.554 -0.9362  1.3151 -1.0329
  720MOL0     H95036  10.022  -0.068   5.359  0.3134  3.2149 -3.2949
  720MOL0     H95037  10.143   0.050   5.386 -1.7557  1.5643 -1.5314
  720MOL0     H95038  10.290  -0.209   5.657  2.3586  1.8252 -0.4044
  720MOL0     H95039   9.472  -0.048   5.289  2.6140  1.4776 -0.0725
  720MOL0     H95040   9.226  -0.039   5.307 -2.5006  0.1715  0.5382
  721MOL0     O95041   4.691   1.620   8.232 -0.3328 -0.3957 -0.3923
  721MOL0     C95042   4.693   1.506   8.289 -0.4792  0.1639  1.0435
  721MOL0     O95043   4.601   1.406   8.264  0.0815  0.3571 -0.3587
  721MOL0     C95044   4.491   1.427   8.181 -0.0740 -0.7563  0.2936
  721MOL0     C95045   4.431   1.327   8.105  0.3217  0.1148  0.1839
  721MOL0     C95046   4.305   1.341   8.043  0.1723 -0.3984  0.8722
  721MOL0     C95047   4.222   1.456   8.073 -0.2076 -0.1574 -0.3685
  721MOL0     O95048   4.087   1.473   8.028  0.2597  0.4092 -0.0401
  721MOL0     C95049   3.988   1.497   8.135 -0.0824  0.1355  0.1286
  721MOL0     C95050   3.859   1.581   8.096 -0.6237 -0.3399  0.7815
  721MOL0     C95051   3.794   1.514   7.973 -0.2733  0.3091 -0.9038
  721MOL0     C95052   3.670   1.591   7.932  0.4110 -0.6303  0.2685
  721MOL0     C95053   3.532   1.562   7.994 -0.1171 -0.6648  0.4078
  721MOL0     C95054   3.428   1.667   7.940  0.6400  0.1306 -0.3475
  721MOL0     C95055   3.302   1.636   8.020 -0.0151  1.1263 -0.1448
  721MOL0     C95056   3.179   1.707   7.954 -0.4940  0.0915  0.6994
  721MOL0     N95057   3.051   1.646   8.006  0.3878 -0.5293 -0.5745
  721MOL0     C95058   2.941   1.587   7.935 -0.4438  0.6988 -0.6077
  721MOL0     C95059   2.852   1.553   8.032  0.2752  0.5060  0.2404
  721MOL0     C95060   2.731   1.460   8.003  0.6675  0.6190 -1.4893
  721MOL0     C95061   2.665   1.397   8.132  0.6785 -0.2557  0.1807
  721MOL0     C95062   2.753   1.288   8.184  0.1757  1.0614 -0.1893
  721MOL0     C95063   2.739   1.253   8.331  0.6295  0.4861 -0.2255
  721MOL0     O95064   2.602   1.230   8.382 -0.1999 -0.2039 -0.0531
  721MOL0     C95065   2.528   1.126   8.331  0.1793  0.4561 -0.3382
  721MOL0     C95066   2.385   1.131   8.331 -0.3785 -0.9529 -1.1533
  721MOL0     C95067   2.316   1.013   8.290  0.4236  0.4008 -0.4070
  721MOL0     C95068   2.380   0.899   8.231 -0.4422  0.4114  1.0885
  721MOL0     C95069   2.311   0.784   8.167 -0.8135 -0.3579 -0.4934
  721MOL0     O95070   2.182   0.801   8.140 -0.3492  0.0892  0.3865
  721MOL0     C95071   2.114   0.716   8.065  0.7568 -0.4603 -0.1624
  721MOL0     C95072   2.061   0.592   8.106  0.7714 -0.1970  0.8890
  721MOL0     C95073   1.999   0.507   8.018  0.0452  0.0710  0.3679
  721MOL0     C95074   1.973   0.550   7.890 -0.4229 -0.1820 -0.8785
  721MOL0     O95075   1.899   0.478   7.802  1.5921  0.5525 -0.0946
  721MOL0     C95076   1.833   0.368   7.857 -0.5859 -0.0205 -0.1314
  721MOL0     C95077   1.729   0.334   7.749 -0.0937 -0.2354  0.1522
  721MOL0     C95078   1.619   0.443   7.711  0.9118 -0.0513  0.6755
  721MOL0     C95079   1.553   0.405   7.579  0.1186  0.0987 -1.2407
  721MOL0     C95080   1.419   0.484   7.576 -0.4026 -0.0130  0.5485
  721MOL0     C95081   1.361   0.490   7.434 -0.2350  0.0001  0.0134
  721MOL0     C95082   1.220   0.542   7.430 -0.8006  1.1303  0.9201
  721MOL0     C95083   1.116   0.436   7.394 -0.4617 -0.6955 -0.0856
  721MOL0    Cl95084   0.976   0.540   7.364 -0.2292 -0.1983 -0.0087
  721MOL0     C95085   2.018   0.674   7.843  0.6059  0.1449 -0.1985
  721MOL0     C95086   2.092   0.757   7.933 -0.2682  0.1637 -0.5554
  721MOL0     O95087   2.374   0.683   8.153 -0.2488 -0.9011  0.3293
  721MOL0     C95088   2.518   0.904   8.220  0.7978 -0.0940 -0.1153
  721MOL0     C95089   2.587   1.009   8.277 -0.7498 -1.0730 -0.2567
  721MOL0     N95090   2.905   1.588   8.148 -1.4342 -0.0295 -0.2884
  721MOL0     N95091   3.015   1.655   8.133 -0.0694 -0.0947 -0.1388
  721MOL0     C95092   4.281   1.556   8.159 -0.0328  0.0580  1.3328
  721MOL0     C95093   4.410   1.542   8.208 -0.2694  1.1321  0.7424
  721MOL0     C95094   4.816   1.471   8.367  0.1441  0.1843  0.6555
  721MOL0     C95095   4.815   1.371   8.458 -0.3053 -0.0884 -0.4504
  721MOL0     C95096   4.934   1.343   8.539  0.7514 -0.5270  0.0423
  721MOL0     C95097   5.045   1.426   8.523 -0.8729  0.5109  1.2422
  721MOL0     O95098   5.151   1.399   8.594  0.3769 -0.3534 -0.0702
  721MOL0     C95099   5.253   1.496   8.613 -0.2044 -0.1008 -0.1133
  721MOL0     C95100   5.339   1.452   8.727 -0.2307  0.8633 -0.3801
  721MOL0     C95101   5.470   1.390   8.674  0.1191 -0.6552 -0.5730
  721MOL0     C95102   5.528   1.294   8.791  0.7789 -0.2903 -0.3042
  721MOL0     C95103   5.595   1.376   8.898  0.4726  0.3220 -0.3580
  721MOL0     C95104   5.638   1.446   8.991 -0.1166 -0.2566  0.2456
  721MOL0     C95105   5.043   1.524   8.425 -0.7433  0.5371  0.8474
  721MOL0     C95106   4.932   1.549   8.346 -0.6056  0.4112  0.0098
  721MOL0     H95107   4.497   1.242   8.089  5.6910  3.9692 -1.2903
  721MOL0     H95108   4.268   1.249   7.999 -0.2414 -0.7206  1.8652
  721MOL0     H95109   4.026   1.563   8.213 -2.2780  0.2608  1.1604
  721MOL0     H95110   3.953   1.398   8.165 -0.0532 -0.5918 -2.0077
  721MOL0     H95111   3.901   1.681   8.083  0.6629 -0.4953  3.1126
  721MOL0     H95112   3.795   1.587   8.184 -1.4546  0.7576  0.1190
  721MOL0     H95113   3.778   1.408   7.993 -2.9191  0.7446 -0.3699
  721MOL0     H95114   3.866   1.528   7.892  0.3412  0.7242 -0.2946
  721MOL0     H95115   3.679   1.699   7.947  0.0703 -0.7168  1.1417
  721MOL0     H95116   3.649   1.576   7.825  0.1626 -0.4790  0.2945
  721MOL0     H95117   3.539   1.575   8.102 -3.8395  0.7669  0.6202
  721MOL0     H95118   3.501   1.460   7.971  2.6432 -0.9527 -2.8337
  721MOL0     H95119   3.405   1.655   7.834 -0.9708  3.3550 -0.5159
  721MOL0     H95120   3.460   1.770   7.961  1.5026 -0.4498  1.3577
  721MOL0     H95121   3.293   1.527   8.014 -2.0687  1.3577 -2.5924
  721MOL0     H95122   3.288   1.654   8.127 -0.7993 -0.1077 -0.0102
  721MOL0     H95123   3.189   1.692   7.846 -0.9994 -1.6001  0.8442
  721MOL0     H95124   3.175   1.814   7.972 -1.2205  0.6550 -2.3120
  721MOL0     H95125   2.931   1.555   7.832  1.9594 -0.3901 -0.5553
  721MOL0     H95126   2.762   1.386   7.929 -0.7598  0.1525 -1.6434
  721MOL0     H95127   2.648   1.519   7.961  1.2460  0.9157 -2.2408
  721MOL0     H95128   2.569   1.356   8.099 -0.5779  0.6759  2.4664
  721MOL0     H95129   2.658   1.478   8.204 -0.9513 -0.3417  0.1467
  721MOL0     H95130   2.741   1.196   8.126 -1.8007  0.5413  0.9544
  721MOL0     H95131   2.855   1.327   8.185  0.4111  0.4557 -0.0222
  721MOL0     H95132   2.772   1.343   8.384 -2.3391  1.8535 -0.4942
  721MOL0     H95133   2.815   1.178   8.351  2.7745  2.6175  0.1004
  721MOL0     H95134   2.349   1.226   8.369  1.5420 -0.3264 -0.7950
  721MOL0     H95135   2.208   1.025   8.295  0.5362  2.8379 -2.1161
  721MOL0     H95136   2.081   0.568   8.210  3.1040 -2.2240  0.0573
  721MOL0     H95137   1.974   0.409   8.058  0.9878 -0.1463  0.4258
  721MOL0     H95138   1.772   0.392   7.945  0.7506  3.0566  0.0806
  721MOL0     H95139   1.902   0.286   7.879  0.2882  0.9251  0.7742
  721MOL0     H95140   1.673   0.243   7.775 -1.2268 -0.0972 -1.6415
  721MOL0     H95141   1.778   0.312   7.654  2.3285  1.7257  0.8391
  721MOL0     H95142   1.675   0.536   7.700  2.0431 -0.3442  3.1836
  721MOL0     H95143   1.554   0.461   7.797 -0.9263 -1.7927 -0.2542
  721MOL0     H95144   1.629   0.418   7.502  2.9285  0.2889  1.3868
  721MOL0     H95145   1.522   0.300   7.584 -1.1560  0.4935  0.1895
  721MOL0     H95146   1.445   0.586   7.606  2.6433  0.0943 -1.8879
  721MOL0     H95147   1.345   0.440   7.643 -0.5434 -1.5108 -0.5394
  721MOL0     H95148   1.359   0.387   7.398 -0.1758  0.2758 -0.7904
  721MOL0     H95149   1.424   0.552   7.369  0.6345  0.9658  1.7068
  721MOL0     H95150   1.181   0.585   7.523 -5.6315 -0.3488 -0.1548
  721MOL0     H95151   1.226   0.618   7.352  0.2304  1.1925  1.0377
  721MOL0     H95152   1.110   0.366   7.478  1.3961 -2.4441 -1.2953
  721MOL0     H95153   1.143   0.386   7.300  0.7210 -0.1526 -0.0571
  721MOL0     H95154   1.985   0.719   7.750 -2.1434  1.0204  1.0940
  721MOL0     H95155   2.136   0.854   7.913 -2.0470  1.5773  1.8411
  721MOL0     H95156   2.584   0.824   8.188  0.2100 -1.4101  1.7807
  721MOL0     H95157   2.695   0.999   8.269  0.0207  3.8404  1.0159
  721MOL0     H95158   4.224   1.644   8.186 -0.1191 -0.2007  2.0202
  721MOL0     H95159   4.436   1.619   8.279 -0.4643  0.7844  1.1914
  721MOL0     H95160   4.724   1.313   8.467  0.4547 -1.3077 -0.3657
  721MOL0     H95161   4.936   1.256   8.603  2.1636  0.8936  2.0640
  721MOL0     H95162   5.215   1.595   8.643  0.0783  0.4322 -1.4524
  721MOL0     H95163   5.315   1.497   8.523 -1.0780 -2.8085 -0.8336
  721MOL0     H95164   5.369   1.542   8.781 -0.6827  0.2546  0.9423
  721MOL0     H95165   5.293   1.375   8.790  1.4645  0.7364  0.7587
  721MOL0     H95166   5.536   1.476   8.657 -0.2019  0.2409  2.2456
  721MOL0     H95167   5.460   1.328   8.585 -1.0147  0.9359 -1.6125
  721MOL0     H95168   5.455   1.218   8.819  4.4713 -3.5993  1.1974
  721MOL0     H95169   5.605   1.226   8.754 -0.6038 -1.3164 -1.4049
  721MOL0     H95170   5.702   1.503   9.055  2.6373 -1.3229 -1.3693
  721MOL0     H95171   5.140   1.566   8.399 -0.7709 -0.2482 -0.6675
  721MOL0     H95172   4.942   1.631   8.276  0.4087  0.5101  0.2593
  722MOL0     O95173   3.593   8.780   7.473 -1.2165 -0.0089 -0.2303
  722MOL0     C95174   3.641   8.677   7.425 -0.3211  0.2109 -0.1896
  722MOL0     O95175   3.577   8.555   7.433 -0.5297 -0.2078  0.8123
  722MOL0     C95176   3.443   8.547   7.459  0.4782 -0.5242 -0.2207
  722MOL0     C95177   3.378   8.610   7.568  0.1060 -0.2491  0.1743
  722MOL0     C95178   3.241   8.614   7.575 -0.3451  0.0865 -1.0415
  722MOL0     C95179   3.159   8.545   7.489 -0.4685  1.3489 -0.3788
  722MOL0     O95180   3.025   8.530   7.488 -0.3445 -0.7279 -0.0487
  722MOL0     C95181   2.944   8.617   7.557  0.4122 -0.6497 -0.7127
  722MOL0     C95182   2.799   8.595   7.545  0.4277  0.2006  0.4910
  722MOL0     C95183   2.749   8.626   7.404 -0.2439  0.2876  1.1770
  722MOL0     C95184   2.608   8.562   7.377  0.4712 -0.5924 -0.5483
  722MOL0     C95185   2.578   8.574   7.233  0.1855 -0.7114  0.2495
  722MOL0     C95186   2.435   8.518   7.197  0.3705  0.4802 -0.0727
  722MOL0     C95187   2.392   8.550   7.043  0.0478 -0.7965 -0.4398
  722MOL0     C95188   2.257   8.482   7.004  0.6671  0.6309  0.8264
  722MOL0     N95189   2.150   8.581   6.987  0.1821 -0.6494  0.3338
  722MOL0     C95190   2.128   8.661   6.882  0.1569  0.6853 -0.5535
  722MOL0     C95191   2.036   8.747   6.912  0.0637 -0.0035 -0.7251
  722MOL0     C95192   1.969   8.844   6.823  0.3115 -0.4857 -0.2443
  722MOL0     C95193   2.035   8.988   6.828 -0.3757 -0.4697  0.2212
  722MOL0     C95194   2.003   9.062   6.694  0.0040  0.0233 -0.0980
  722MOL0     C95195   2.058   9.208   6.692  0.7903 -0.7206 -0.3015
  722MOL0     O95196   2.020   9.266   6.561 -0.3947 -0.2485  0.2296
  722MOL0     C95197   1.904   9.333   6.553 -0.5924  0.2340 -0.5564
  722MOL0     C95198   1.792   9.333   6.642  0.2593  0.3243  0.9101
  722MOL0     C95199   1.674   9.399   6.625  0.3940  0.5519  0.7008
  722MOL0     C95200   1.655   9.470   6.502 -0.5827 -0.3671 -0.3195
  722MOL0     C95201   1.532   9.540   6.471 -0.6913 -0.9753 -0.3482
  722MOL0     O95202   1.430   9.529   6.565 -0.1810 -0.4328  0.4351
  722MOL0     C95203   1.323   9.610   6.548 -0.0664 -1.0700  0.1532
  722MOL0     C95204   1.121   9.546   6.494 -1.0515  0.1498  0.5295
  722MOL0     C95205   0.978   9.689   6.446  0.0599  0.7686 -1.1726
  722MOL0     C95206   1.018   9.892   6.460  0.7311 -0.4435  0.0238
  722MOL0     O95207   0.919   9.987   6.432 -0.7186 -0.4451  0.6428
  722MOL0     C95208   0.800   9.929   6.366 -0.4803  0.3877  0.3907
  722MOL0     C95209   0.694  10.044   6.361  0.8590  0.1362  0.1638
  722MOL0     C95210   0.571   9.986   6.284 -0.1779  0.1339 -0.4149
  722MOL0     C95211   0.486  10.091   6.204 -0.4199 -0.4654  0.0024
  722MOL0     C95212   0.350  10.046   6.141  1.0296  0.7942  1.2592
  722MOL0     C95213   0.235  10.048   6.238 -0.7243  0.6563  0.4204
  722MOL0     C95214   0.151  10.168   6.229 -0.3321 -0.3394  0.1136
  722MOL0     C95215   0.040  10.151   6.334  0.1515 -0.5364  0.6736
  722MOL0    Cl95216   0.098  10.180   6.505  0.0824  0.0949 -0.3046
  722MOL0     C95217   1.217   9.959   6.514 -0.3468 -0.0529 -0.2574
  722MOL0     C95218   1.371   9.816   6.561 -0.0043  0.1933  0.3685
  722MOL0     O95219   1.528   9.611   6.372  0.7898 -0.9166  0.4871
  722MOL0     C95220   1.766   9.478   6.412 -0.8755 -0.1982  0.5487
  722MOL0     C95221   1.887   9.406   6.439 -0.2259 -0.5447  0.1109
  722MOL0     N95222   1.987   8.710   7.035 -0.5784 -0.3447 -0.2009
  722MOL0     N95223   2.065   8.612   7.078  0.5532  0.0147  0.0854
  722MOL0     C95224   3.223   8.479   7.378  0.1954 -0.1952 -0.6081
  722MOL0     C95225   3.366   8.478   7.376  0.3437 -0.3460  0.3738
  722MOL0     C95226   3.786   8.678   7.384 -0.8433 -0.5958 -0.4631
  722MOL0     C95227   3.875   8.784   7.403  0.9353 -0.7944 -0.5530
  722MOL0     C95228   4.003   8.784   7.357  0.6786  0.7179 -0.0829
  722MOL0     C95229   4.062   8.668   7.302 -0.4373  0.7209 -0.6579
  722MOL0     O95230   4.196   8.660   7.279 -0.0996  0.6521  0.3344
  722MOL0     C95231   4.269   8.556   7.344 -0.1429  0.3474  1.2189
  722MOL0     C95232   4.418   8.603   7.357 -0.0000 -1.1031  0.0120
  722MOL0     C95233   4.476   8.643   7.214  1.0943  0.9501  0.4197
  722MOL0     C95234   4.612   8.711   7.231 -0.1446 -0.5482 -0.5348
  722MOL0     C95235   4.665   8.781   7.117  0.4120  0.3736  0.0725
  722MOL0     C95236   4.718   8.835   7.030 -0.5380  0.1289  1.0576
  722MOL0     C95237   3.983   8.560   7.291 -0.5543  0.0902 -0.1285
  722MOL0     C95238   3.851   8.559   7.336 -0.7533 -0.7227  0.0532
  722MOL0     H95239   3.429   8.679   7.633  0.3508 -0.6619  0.4248
  722MOL0     H95240   3.194   8.667   7.657  2.8650 -0.9478  1.6969
  722MOL0     H95241   2.945   8.718   7.514  1.3975 -0.3190  0.0667
  722MOL0     H95242   2.968   8.619   7.663 -3.7497 -0.8641  0.4079
  722MOL0     H95243   2.742   8.666   7.606 -0.9739 -3.1207  3.3657
  722MOL0     H95244   2.780   8.493   7.579  3.4693 -1.2161 -1.6952
  722MOL0     H95245   2.815   8.578   7.332 -1.1283  2.9763 -1.6216
  722MOL0     H95246   2.753   8.732   7.380 -1.8673  0.0681 -0.2429
  722MOL0     H95247   2.597   8.455   7.397 -1.2647 -0.6613 -1.6715
  722MOL0     H95248   2.536   8.616   7.438 -1.4415 -1.7205 -1.7014
  722MOL0     H95249   2.649   8.521   7.169 -1.0284 -1.5160 -0.4563
  722MOL0     H95250   2.578   8.673   7.188 -0.4637 -2.2957 -3.5621
  722MOL0     H95251   2.364   8.566   7.265 -0.0786  0.4437 -0.5063
  722MOL0     H95252   2.438   8.411   7.221  1.0759  0.9704  2.3045
  722MOL0     H95253   2.379   8.658   7.047  3.8483 -0.2019  0.5214
  722MOL0     H95254   2.464   8.536   6.962 -2.2679 -0.3624 -2.6874
  722MOL0     H95255   2.220   8.401   7.067 -1.4848  1.2100  0.3899
  722MOL0     H95256   2.275   8.441   6.904 -0.9007  0.8411  0.4247
  722MOL0     H95257   2.191   8.656   6.793 -0.8049  1.3034 -1.2885
  722MOL0     H95258   1.866   8.874   6.844  1.5325  2.5186  2.2311
  722MOL0     H95259   1.978   8.802   6.723  0.4801 -2.1428  0.4306
  722MOL0     H95260   2.143   8.985   6.809 -0.2522  1.8801  0.3383
  722MOL0     H95261   2.013   9.040   6.921 -0.6048 -0.9660  0.4499
  722MOL0     H95262   2.047   9.009   6.609 -3.1275 -0.9716 -1.2511
  722MOL0     H95263   1.894   9.065   6.681  0.0992  2.4169 -1.0148
  722MOL0     H95264   2.165   9.195   6.712  0.4795  0.0793  2.2194
  722MOL0     H95265   2.010   9.260   6.776 -0.0282  0.9188 -1.7250
  722MOL0     H95266   1.786   9.264   6.725 -0.8107 -0.1721  0.4339
  722MOL0     H95267   1.584   9.395   6.686  0.0161  3.3413  0.4857
  722MOL0     H95268   1.095   9.443   6.473 -2.2173  0.7053 -0.9885
  722MOL0     H95269   0.878   9.662   6.413 -0.0486 -3.6782  1.9656
  722MOL0     H95270   0.759   9.841   6.416 -0.7726  0.2864 -0.0192
  722MOL0     H95271   0.820   9.888   6.266  1.2711  1.8211  0.1071
  722MOL0     H95272   0.748  10.114   6.297 -1.4694  0.7049 -1.3175
  722MOL0     H95273   0.661  10.100   6.449 -1.1969 -0.0946 -0.4065
  722MOL0     H95274   0.508   9.931   6.355 -0.2484  1.2825  0.4503
  722MOL0     H95275   0.619   9.918   6.214  0.4930  0.7328 -0.5510
  722MOL0     H95276   0.472  10.180   6.266  2.5578  1.3339 -1.6529
  722MOL0     H95277   0.537  10.128   6.114 -2.3741  3.6112  0.3450
  722MOL0     H95278   0.351   9.947   6.095  0.3387  2.3064 -2.3201
  722MOL0     H95279   0.326  10.109   6.055 -0.9543  0.3916  1.4648
  722MOL0     H95280   0.271  10.041   6.341 -0.4917 -2.3209  0.2158
  722MOL0     H95281   0.178   9.955   6.228 -0.1572  0.2169  1.1831
  722MOL0     H95282   0.201  10.265   6.238  1.3075 -0.8890 -2.3095
  722MOL0     H95283   0.104  10.155   6.131 -0.0669 -1.5654  0.1378
  722MOL0     H95284  -0.006  10.052   6.338  1.8102 -1.3468  0.5465
  722MOL0     H95285  -0.038  10.227   6.323  0.4954  0.6504  4.7422
  722MOL0     H95286   1.250  10.061   6.494 -0.0388  0.0698  0.8416
  722MOL0     H95287   1.471   9.856   6.566 -0.6825  2.1637 -0.6904
  722MOL0     H95288   1.756   9.524   6.314 -3.0877 -4.7365 -1.6229
  722MOL0     H95289   1.970   9.420   6.371 -1.7824  0.2034 -1.7500
  722MOL0     H95290   3.172   8.428   7.297 -0.7073 -2.8951  1.4948
  722MOL0     H95291   3.413   8.451   7.282  2.1254 -0.4277  1.2568
  722MOL0     H95292   3.836   8.875   7.449 -5.0846 -2.9349 -0.4237
  722MOL0     H95293   4.056   8.877   7.374  1.0152  0.3441  0.9274
  722MOL0     H95294   4.267   8.470   7.277  1.2340 -0.1473  1.7867
  722MOL0     H95295   4.229   8.548   7.446  1.3596  2.4275  2.0374
  722MOL0     H95296   4.421   8.692   7.420 -0.7431  0.5016 -2.1116
  722MOL0     H95297   4.478   8.522   7.398  1.4526 -0.0102  0.0874
  722MOL0     H95298   4.400   8.713   7.177 -1.5073 -0.2719  2.9957
  722MOL0     H95299   4.488   8.559   7.146 -1.1767  2.0068 -1.4420
  722MOL0     H95300   4.621   8.777   7.318 -2.1748  0.8475 -1.3197
  722MOL0     H95301   4.676   8.624   7.247  1.3014  0.3390 -1.3223
  722MOL0     H95302   4.776   8.896   6.963  0.5570  2.0185  3.5679
  722MOL0     H95303   4.022   8.466   7.253 -0.6248 -0.3883  0.9485
  722MOL0     H95304   3.798   8.464   7.333  0.2396 -1.4874  3.1587
  723MOL0     O95305   9.116   9.560   5.476 -0.1588  0.5052 -0.5713
  723MOL0     C95306   9.181   9.510   5.561  0.1542  0.4346 -0.0406
  723MOL0     O95307   9.135   9.481   5.690  0.0749  0.3343  0.2438
  723MOL0     C95308   8.999   9.477   5.712  0.6831  0.0578  0.3367
  723MOL0     C95309   8.916   9.593   5.703 -0.3409 -0.8057 -0.5194
  723MOL0     C95310   8.780   9.575   5.746 -0.3570 -0.6626  0.8591
  723MOL0     C95311   8.728   9.449   5.783 -0.0890  0.1341  0.4811
  723MOL0     O95312   8.588   9.456   5.803 -0.2457  0.1916  0.2507
  723MOL0     C95313   8.511   9.334   5.776  0.3642 -0.2121  0.1187
  723MOL0     C95314   8.374   9.373   5.826  0.1814  0.4041 -0.0062
  723MOL0     C95315   8.371   9.406   5.973  0.2298 -0.9744 -0.5440
  723MOL0     C95316   8.234   9.414   6.048 -0.2780 -0.7594 -0.1365
  723MOL0     C95317   8.250   9.469   6.188 -0.9370  0.4925  0.3497
  723MOL0     C95318   8.110   9.526   6.225 -0.5679 -0.1658  0.5128
  723MOL0     C95319   7.993   9.421   6.241 -0.1259  0.3179  1.1863
  723MOL0     C95320   7.880   9.432   6.139 -0.1135 -0.6953  0.6834
  723MOL0     N95321   7.788   9.546   6.152  1.2227  0.2441  0.7096
  723MOL0     C95322   7.703   9.599   6.059  1.2415  0.8532 -0.1727
  723MOL0     C95323   7.614   9.674   6.126 -0.3854  0.5600 -0.0069
  723MOL0     C95324   7.501   9.762   6.088  0.5234  0.0178 -0.6905
  723MOL0     C95325   7.364   9.690   6.130 -0.0818 -0.4499 -0.6045
  723MOL0     C95326   7.247   9.767   6.064 -0.2506  0.2506  0.6785
  723MOL0     C95327   7.118   9.690   6.104  0.2536 -0.0298 -0.0156
  723MOL0     O95328   7.005   9.747   6.038 -0.7332  0.7052 -0.3625
  723MOL0     C95329   6.887   9.686   6.055 -0.0079  0.6010 -0.0985
  723MOL0     C95330   6.872   9.542   6.051  0.5444  0.0464  0.9414
  723MOL0     C95331   6.744   9.491   6.073  0.3587  0.2445  0.1416
  723MOL0     C95332   6.633   9.576   6.092  1.0733 -0.1664 -0.1692
  723MOL0     C95333   6.498   9.528   6.104 -0.8155 -0.3377 -0.7458
  723MOL0     O95334   6.485   9.389   6.123 -0.5721 -0.0867  0.4201
  723MOL0     C95335   6.371   9.340   6.171  0.3881  0.5387 -0.0897
  723MOL0     C95336   6.367   9.274   6.295 -0.6676  0.0117 -0.4258
  723MOL0     C95337   6.254   9.209   6.341  0.2604 -0.0158  0.1916
  723MOL0     C95338   6.134   9.218   6.264  0.5898 -0.6756  0.1126
  723MOL0     O95339   6.019   9.174   6.307 -0.4448 -0.1886  0.8976
  723MOL0     C95340   6.026   9.071   6.413  0.1075 -0.9044  0.6154
  723MOL0     C95341   5.887   8.996   6.428 -0.0130  0.1943  0.9238
  723MOL0     C95342   5.832   8.925   6.299  0.3056  0.5146 -0.7050
  723MOL0     C95343   5.691   8.869   6.321  0.5250 -0.1018 -0.7047
  723MOL0     C95344   5.638   8.781   6.209  0.0859  0.5095  0.9511
  723MOL0     C95345   5.501   8.718   6.227  0.1807 -0.6092  0.0026
  723MOL0     C95346   5.397   8.812   6.159  0.3522  0.0624  0.2654
  723MOL0     C95347   5.262   8.756   6.170 -0.5442 -0.4864  0.5063
  723MOL0    Cl95348   5.238   8.596   6.100 -0.0870  0.2044 -0.0231
  723MOL0     C95349   6.134   9.298   6.150 -0.6051 -0.3676 -0.2091
  723MOL0     C95350   6.253   9.362   6.107 -0.3602  0.4047  0.5830
  723MOL0     O95351   6.403   9.602   6.083  0.4397  0.0365  0.3630
  723MOL0     C95352   6.654   9.711   6.079 -0.6323 -0.0328  0.4032
  723MOL0     C95353   6.779   9.764   6.054 -0.0614 -0.0709 -0.3343
  723MOL0     N95354   7.665   9.676   6.259  0.4077  0.1210  0.3993
  723MOL0     N95355   7.765   9.598   6.274  0.4871 -0.8869  0.0750
  723MOL0     C95356   8.804   9.342   5.777  0.0591  0.5084  0.3537
  723MOL0     C95357   8.938   9.354   5.741  0.4750  0.5146 -0.3198
  723MOL0     C95358   9.317   9.472   5.524 -0.5337 -0.8173  0.5192
  723MOL0     C95359   9.416   9.451   5.620 -0.9432 -0.6716 -0.3031
  723MOL0     C95360   9.552   9.436   5.578  0.5371  0.2160 -0.2855
  723MOL0     C95361   9.584   9.413   5.449  0.2803 -0.9203  0.4158
  723MOL0     O95362   9.702   9.359   5.410 -0.7538  0.3882 -0.4923
  723MOL0     C95363   9.820   9.444   5.418  1.1933  0.4829 -0.6483
  723MOL0     C95364   9.916   9.415   5.526  0.0427  0.1623  1.0629
  723MOL0     C95365  10.046   9.499   5.514  0.0371  0.1910 -1.3877
  723MOL0     C95366  10.170   9.453   5.590 -0.3239 -0.0848  0.2309
  723MOL0     C95367  10.154   9.445   5.738 -0.0167  0.1729  0.3398
  723MOL0     C95368  10.144   9.415   5.855 -0.9085  0.3705 -0.5386
  723MOL0     C95369   9.486   9.420   5.354 -0.3589 -0.4898  0.4055
  723MOL0     C95370   9.360   9.459   5.393 -0.3247  0.5580  0.5351
  723MOL0     H95371   8.957   9.687   5.670 -0.7870 -1.0498 -1.8113
  723MOL0     H95372   8.712   9.659   5.733  0.9512  0.8978  3.3859
  723MOL0     H95373   8.536   9.243   5.832  0.3412 -1.5385 -1.9058
  723MOL0     H95374   8.510   9.308   5.670  1.4335  0.5328 -0.0860
  723MOL0     H95375   8.297   9.299   5.801  0.8937 -0.5782  0.6282
  723MOL0     H95376   8.350   9.467   5.776  0.2351  2.9374  4.3071
  723MOL0     H95377   8.422   9.502   5.989 -2.7484  0.6111  0.1082
  723MOL0     H95378   8.431   9.330   6.024  1.0403 -1.2313 -1.8328
  723MOL0     H95379   8.166   9.477   5.990  1.7158 -0.2820 -2.0814
  723MOL0     H95380   8.188   9.314   6.042 -1.3957 -0.2873  0.2722
  723MOL0     H95381   8.327   9.546   6.185 -0.0785 -0.3287  0.6975
  723MOL0     H95382   8.285   9.392   6.258  2.0451  0.4661 -0.9833
  723MOL0     H95383   8.084   9.606   6.156  0.5004 -1.3906 -1.4109
  723MOL0     H95384   8.130   9.573   6.321 -1.3085 -1.9261  1.5820
  723MOL0     H95385   8.039   9.326   6.215  2.2762  1.1279  2.2706
  723MOL0     H95386   7.938   9.434   6.335  0.9080  1.8262  1.6160
  723MOL0     H95387   7.825   9.338   6.131  1.1506 -1.4737  0.8826
  723MOL0     H95388   7.929   9.443   6.042 -0.1092  0.2946  0.7820
  723MOL0     H95389   7.689   9.583   5.952 -1.9709  2.9482 -0.1893
  723MOL0     H95390   7.493   9.788   5.982 -3.2302 -1.6577 -0.9839
  723MOL0     H95391   7.512   9.858   6.140 -2.9057  2.8078 -4.4779
  723MOL0     H95392   7.354   9.684   6.238 -3.2311  0.5297 -0.7422
  723MOL0     H95393   7.365   9.587   6.091 -0.2542 -0.7469  0.1661
  723MOL0     H95394   7.231   9.864   6.111  0.5750  0.7650 -0.0814
  723MOL0     H95395   7.257   9.768   5.955  2.2309 -0.5964  0.8261
  723MOL0     H95396   7.112   9.698   6.213 -3.4008  1.0807 -0.1662
  723MOL0     H95397   7.127   9.585   6.076 -1.8893 -0.7999  1.8391
  723MOL0     H95398   6.959   9.478   6.038  1.6871  1.5758  0.7710
  723MOL0     H95399   6.738   9.383   6.077  1.3175  0.1479 -0.6263
  723MOL0     H95400   6.457   9.266   6.354 -0.6515  0.5377 -0.3718
  723MOL0     H95401   6.265   9.162   6.437  1.0242 -2.8596 -1.1891
  723MOL0     H95402   6.069   9.103   6.508 -1.1305  0.2527  0.8281
  723MOL0     H95403   6.093   8.994   6.375  1.4383 -0.0251  1.1073
  723MOL0     H95404   5.813   9.071   6.459  0.2956  1.2655 -0.7995
  723MOL0     H95405   5.904   8.910   6.493  2.9868 -0.3037 -0.3470
  723MOL0     H95406   5.900   8.843   6.274 -0.8407 -0.5202 -0.5037
  723MOL0     H95407   5.838   8.989   6.210  2.1972  0.9178 -0.3374
  723MOL0     H95408   5.690   8.803   6.408 -1.3529  3.2713  2.1362
  723MOL0     H95409   5.619   8.947   6.350 -0.3298 -1.6021  1.4487
  723MOL0     H95410   5.711   8.701   6.200  0.8455  1.0703  1.9697
  723MOL0     H95411   5.642   8.830   6.112  2.0746  0.4469  0.9710
  723MOL0     H95412   5.477   8.705   6.333 -2.1515 -2.0603 -0.6347
  723MOL0     H95413   5.500   8.623   6.173  0.2736 -0.2247 -0.6838
  723MOL0     H95414   5.387   8.903   6.218  3.6392  0.1887  0.7738
  723MOL0     H95415   5.429   8.833   6.056  2.2245 -1.5910  0.4608
  723MOL0     H95416   5.204   8.817   6.100  2.1855  0.0229 -1.4825
  723MOL0     H95417   5.215   8.763   6.269 -0.4807 -0.9513  0.5724
  723MOL0     H95418   6.051   9.288   6.081  0.0890 -0.8855 -0.9944
  723MOL0     H95419   6.257   9.418   6.014  2.7072  1.4756  1.2554
  723MOL0     H95420   6.577   9.780   6.111 -0.1244  0.1798  1.1775
  723MOL0     H95421   6.792   9.872   6.046 -1.6062  0.0479 -1.6503
  723MOL0     H95422   8.764   9.246   5.807 -0.7879 -0.3647 -3.2078
  723MOL0     H95423   8.997   9.265   5.723 -0.5012  0.0034 -1.1725
  723MOL0     H95424   9.394   9.463   5.725 -2.4013 -2.9308 -0.2809
  723MOL0     H95425   9.629   9.420   5.654  0.0083 -0.9067  0.0428
  723MOL0     H95426   9.787   9.547   5.435  0.0954  0.0134  0.1641
  723MOL0     H95427   9.875   9.453   5.324  3.0030  2.9640  0.5229
  723MOL0     H95428   9.872   9.438   5.624  0.4748  2.9442  0.7007
  723MOL0     H95429   9.948   9.311   5.533  2.1778  0.4570 -2.0905
  723MOL0     H95430  10.018   9.601   5.539 -3.3013 -0.8484 -0.3575
  723MOL0     H95431  10.071   9.507   5.408  0.6923  0.6615 -1.2015
  723MOL0     H95432  10.206   9.355   5.559  0.4121  0.7463 -1.7488
  723MOL0     H95433  10.253   9.521   5.568  1.3670 -1.4979  1.9157
  723MOL0     H95434  10.126   9.385   5.956  0.4074  1.9636  0.2086
  723MOL0     H95435   9.510   9.387   5.253 -1.5138 -1.6144  0.4697
  723MOL0     H95436   9.289   9.467   5.310  3.2749  1.7828 -2.7136
  724MOL0     O95437   0.658   3.258   3.906 -0.2040 -0.6044  0.5995
  724MOL0     C95438   0.663   3.220   3.787 -0.7456  0.1122  0.9009
  724MOL0     O95439   0.563   3.219   3.705  0.6066  0.2116 -0.3424
  724MOL0     C95440   0.427   3.250   3.737 -0.5073 -0.4004  0.5429
  724MOL0     C95441   0.376   3.297   3.858  0.4304  0.0578  0.0717
  724MOL0     C95442   0.234   3.301   3.875  0.0563  0.2962  0.9513
  724MOL0     C95443   0.144   3.245   3.780  0.3657 -0.3413  0.3624
  724MOL0     O95444   0.007   3.241   3.812 -0.0899 -0.4290 -0.1934
  724MOL0     C95445  -0.045   3.110   3.814  0.1982  0.8273  0.1953
  724MOL0     C95446  -0.160   3.113   3.713 -0.1191 -0.1360 -1.1701
  724MOL0     C95447  -0.291   3.143   3.780 -0.3463 -0.1786  0.2436
  724MOL0     C95448  -0.284   3.282   3.853 -1.1463 -0.7236 -0.1102
  724MOL0     C95449  -0.411   3.324   3.929 -0.2540 -0.8644  1.1687
  724MOL0     C95450  -0.440   3.230   4.041 -0.3905 -0.4976 -0.0611
  724MOL0     C95451  -0.552   3.270   4.139 -0.6930 -0.7676 -1.7669
  724MOL0     C95452  -0.493   3.376   4.237 -0.6305 -0.0750 -0.1943
  724MOL0     N95453  -0.613   3.455   4.283 -0.8515  0.5831  0.4183
  724MOL0     C95454  -0.721   3.404   4.351 -0.7690  1.7839  0.6507
  724MOL0     C95455  -0.823   3.494   4.328 -1.3853  0.2284 -0.0037
  724MOL0     C95456  -0.948   3.482   4.399  0.4833 -0.5644  0.3383
  724MOL0     C95457  -1.066   3.484   4.298 -0.4869 -0.8729  0.3061
  724MOL0     C95458  -1.106   3.626   4.239 -0.4356  0.1611  0.0072
  724MOL0     C95459  -1.248   3.622   4.183  0.1819  0.4004 -0.7087
  724MOL0     O95460  -1.266   3.740   4.110  0.3483 -0.1546  0.0499
  724MOL0     C95461  -1.387   3.800   4.093 -0.4058 -0.4673 -0.1565
  724MOL0     C95462  -1.385   3.912   4.009  0.1677  0.1465 -0.2597
  724MOL0     C95463  -1.492   3.983   3.975 -0.5971 -0.5615  0.2355
  724MOL0     C95464  -1.623   3.949   4.012  0.2025  0.2848 -0.7333
  724MOL0     C95465  -1.745   4.006   3.947  0.2793 -0.4556 -1.7860
  724MOL0     O95466  -1.867   3.973   3.992 -0.4954  0.5624  0.0953
  724MOL0     C95467  -1.971   4.026   3.918 -0.0990  0.2676 -0.3433
  724MOL0     C95468  -2.019   4.149   3.961 -0.5194  0.4131  0.6394
  724MOL0     C95469  -2.141   4.207   3.907  0.9313 -0.5115 -0.5345
  724MOL0     C95470  -2.198   4.137   3.797 -0.1238  0.5139 -0.2640
  724MOL0     O95471  -2.315   4.160   3.739  0.3281 -0.8451 -0.0846
  724MOL0     C95472  -2.382   4.276   3.770  0.6132  0.1213 -0.1162
  724MOL0     C95473  -2.508   4.275   3.690  0.5327  0.9452  0.6286
  724MOL0     C95474  -2.604   4.388   3.709  0.1836  0.8164 -0.4123
  724MOL0     C95475  -2.672   4.391   3.840  0.0519  0.4148  0.2554
  724MOL0     C95476  -2.772   4.504   3.832  0.8415  0.6612 -0.0947
  724MOL0     C95477  -2.821   4.553   3.972 -0.0274  0.5634  0.1858
  724MOL0     C95478  -2.927   4.668   3.950 -1.0206  0.2642  0.1400
  724MOL0     C95479  -2.999   4.686   4.084  0.3248  0.4610 -0.2710
  724MOL0    Cl95480  -2.896   4.760   4.206 -0.2081 -0.2801  0.1560
  724MOL0     C95481  -2.137   4.014   3.745  0.3038 -0.8358 -0.8302
  724MOL0     C95482  -2.035   3.951   3.820  0.2739 -0.6126  0.8715
  724MOL0     O95483  -1.721   4.075   3.851 -0.1943 -0.6260  0.1728
  724MOL0     C95484  -1.637   3.838   4.101  0.3816  0.1724 -0.0060
  724MOL0     C95485  -1.516   3.766   4.145  0.0452  0.3513  0.5511
  724MOL0     N95486  -0.775   3.600   4.256 -0.2187 -0.4006  0.0574
  724MOL0     N95487  -0.657   3.572   4.223  0.3308 -0.2872 -0.1889
  724MOL0     C95488   0.198   3.193   3.662  0.0095  0.5071  0.8598
  724MOL0     C95489   0.338   3.198   3.638 -0.2591  0.3508  0.6840
  724MOL0     C95490   0.786   3.171   3.725 -0.2942  0.1414 -0.5708
  724MOL0     C95491   0.789   3.112   3.595 -0.2695 -0.4664  0.1758
  724MOL0     C95492   0.899   3.048   3.550 -0.3901  1.1585  0.5107
  724MOL0     C95493   1.012   3.034   3.638  1.2218  0.2525 -1.2558
  724MOL0     O95494   1.113   2.956   3.577 -0.2686 -0.0174 -0.1323
  724MOL0     C95495   1.223   2.924   3.659 -0.3453 -0.4842  0.9324
  724MOL0     C95496   1.320   2.818   3.579  0.3947  0.7384  0.1057
  724MOL0     C95497   1.243   2.698   3.540  0.2950  0.3776 -0.4704
  724MOL0     C95498   1.312   2.631   3.428 -0.5919  0.5161 -0.2452
  724MOL0     C95499   1.238   2.513   3.382 -0.5310 -0.2368 -1.4103
  724MOL0     C95500   1.158   2.420   3.350  0.7110  0.8118 -0.3993
  724MOL0     C95501   1.020   3.096   3.755 -0.6566  0.3395 -0.1479
  724MOL0     C95502   0.907   3.165   3.814  0.1800 -0.4072  0.6282
  724MOL0     H95503   0.435   3.340   3.938  3.9638  0.4841 -2.4812
  724MOL0     H95504   0.198   3.370   3.950 -2.5945  2.9516 -2.4130
  724MOL0     H95505  -0.079   3.088   3.916 -1.0923  1.6643 -0.0292
  724MOL0     H95506   0.022   3.027   3.788 -4.0174 -2.4405 -1.3298
  724MOL0     H95507  -0.171   3.020   3.656  3.7256 -0.9433 -0.8700
  724MOL0     H95508  -0.145   3.200   3.648  1.3722  1.1199  0.7404
  724MOL0     H95509  -0.311   3.066   3.855  0.5911 -1.4769 -0.8104
  724MOL0     H95510  -0.370   3.155   3.705 -0.6406 -2.7059  0.0802
  724MOL0     H95511  -0.206   3.278   3.930 -0.2241  2.6372 -0.6993
  724MOL0     H95512  -0.262   3.354   3.774 -2.2585 -0.4706 -0.2056
  724MOL0     H95513  -0.491   3.329   3.855  0.9611  0.6998 -0.1122
  724MOL0     H95514  -0.388   3.421   3.973  0.5558 -0.1616 -0.7130
  724MOL0     H95515  -0.351   3.210   4.100 -1.3946  0.9957  2.0859
  724MOL0     H95516  -0.465   3.131   4.002 -0.3003 -1.4017  2.0608
  724MOL0     H95517  -0.640   3.308   4.085 -2.0682  0.6252  1.2340
  724MOL0     H95518  -0.584   3.185   4.199  1.2095  0.6803  1.5476
  724MOL0     H95519  -0.419   3.444   4.193 -2.0938  2.0869  0.5448
  724MOL0     H95520  -0.437   3.322   4.314 -1.3748  0.6894  0.9107
  724MOL0     H95521  -0.722   3.311   4.407 -0.3808 -1.8184 -4.5641
  724MOL0     H95522  -0.961   3.562   4.473 -2.1224  0.9593 -1.5856
  724MOL0     H95523  -0.958   3.390   4.456 -0.8860 -0.8530 -0.3290
  724MOL0     H95524  -1.152   3.445   4.352 -1.5214 -1.1176 -1.4482
  724MOL0     H95525  -1.052   3.415   4.215  1.5348  2.0018 -1.9828
  724MOL0     H95526  -1.089   3.708   4.310  0.6628 -1.8134  2.1732
  724MOL0     H95527  -1.045   3.648   4.151 -0.0746 -0.8220  0.0044
  724MOL0     H95528  -1.313   3.610   4.271 -0.6182  2.0974 -1.0307
  724MOL0     H95529  -1.258   3.531   4.123  1.1513  1.0219 -1.8460
  724MOL0     H95530  -1.292   3.955   3.974 -0.6692  1.7751 -0.5539
  724MOL0     H95531  -1.473   4.070   3.913  2.0904 -0.8296  0.5513
  724MOL0     H95532  -1.974   4.213   4.036  1.3385 -0.7442  0.5728
  724MOL0     H95533  -2.185   4.300   3.943  2.3473  0.7264 -1.8798
  724MOL0     H95534  -2.321   4.365   3.752 -0.0607  0.9449  1.4997
  724MOL0     H95535  -2.397   4.281   3.878  0.9446  0.2044 -0.0749
  724MOL0     H95536  -2.559   4.179   3.702  0.5548  0.9852  1.0866
  724MOL0     H95537  -2.478   4.267   3.585 -2.6461 -2.1621 -0.2219
  724MOL0     H95538  -2.680   4.372   3.632  1.1231 -2.0064 -0.8727
  724MOL0     H95539  -2.550   4.482   3.695  0.4117  0.6918 -0.3837
  724MOL0     H95540  -2.718   4.296   3.868 -1.7958  0.7815 -1.3387
  724MOL0     H95541  -2.602   4.438   3.911 -1.5704  0.7260  1.7183
  724MOL0     H95542  -2.846   4.453   3.771  1.2519  0.9660 -0.8623
  724MOL0     H95543  -2.751   4.597   3.779 -2.1341  1.0883 -0.6658
  724MOL0     H95544  -2.729   4.582   4.024  0.1417  0.2178  0.0845
  724MOL0     H95545  -2.869   4.473   4.029 -0.5217 -0.4662 -1.5999
  724MOL0     H95546  -2.871   4.753   3.911 -1.9711  0.2421 -1.3395
  724MOL0     H95547  -3.003   4.630   3.882  1.5021 -0.3479 -2.5129
  724MOL0     H95548  -3.039   4.597   4.133  1.0604  1.5477  2.4886
  724MOL0     H95549  -3.083   4.752   4.061 -1.3137 -0.7514  1.8749
  724MOL0     H95550  -2.180   3.946   3.673 -0.6722  0.2302 -1.2657
  724MOL0     H95551  -2.003   3.860   3.771  1.8559  0.6707 -0.6279
  724MOL0     H95552  -1.737   3.798   4.113  1.1846 -1.9867  0.0872
  724MOL0     H95553  -1.511   3.676   4.205  0.5020 -1.0958 -1.5470
  724MOL0     H95554   0.121   3.154   3.597 -3.2072  0.9675  4.0825
  724MOL0     H95555   0.375   3.165   3.542 -1.8528 -1.3117  0.5858
  724MOL0     H95556   0.702   3.118   3.530  0.6194 -0.1193 -1.0160
  724MOL0     H95557   0.899   3.021   3.445 -1.0940  0.5111  0.6675
  724MOL0     H95558   1.192   2.889   3.758 -0.3681 -2.7501  0.1949
  724MOL0     H95559   1.278   3.018   3.665 -1.9154  0.5239  0.1098
  724MOL0     H95560   1.372   2.866   3.495  1.5219 -0.3993  0.1302
  724MOL0     H95561   1.397   2.789   3.650  0.6406  0.4771 -0.2642
  724MOL0     H95562   1.152   2.745   3.500  1.1972  1.9755 -0.7391
  724MOL0     H95563   1.202   2.621   3.606  0.5850  0.6194 -0.0019
  724MOL0     H95564   1.331   2.696   3.342  0.9521 -0.7623 -0.9111
  724MOL0     H95565   1.410   2.610   3.471 -1.2707 -0.5851  0.8535
  724MOL0     H95566   1.105   2.334   3.312 -0.6297 -0.1061  3.1517
  724MOL0     H95567   1.107   3.090   3.819 -1.5897  0.4388  1.1548
  724MOL0     H95568   0.915   3.224   3.905  1.1186 -0.0698  0.3311
  725MOL0     O95569   4.304   3.275   8.327 -0.2224 -0.0077  0.1511
  725MOL0     C95570   4.321   3.394   8.347 -0.7162  0.9155 -1.0605
  725MOL0     O95571   4.228   3.482   8.384 -0.0669  0.6530  0.4818
  725MOL0     C95572   4.108   3.451   8.438 -0.1237  0.9452  0.3023
  725MOL0     C95573   4.007   3.541   8.422  0.4687 -0.1337  1.2433
  725MOL0     C95574   3.884   3.508   8.468 -0.4681  0.0806  0.6230
  725MOL0     C95575   3.858   3.393   8.543  0.2850  0.5403 -0.8862
  725MOL0     O95576   3.739   3.362   8.603  0.2657  0.0216 -1.0774
  725MOL0     C95577   3.615   3.425   8.554 -0.4852  0.1631  0.6226
  725MOL0     C95578   3.496   3.377   8.636 -0.0990 -0.3289 -0.7081
  725MOL0     C95579   3.372   3.458   8.602  0.3081  0.9708  1.2686
  725MOL0     C95580   3.251   3.431   8.688  0.3325  0.1711  0.7123
  725MOL0     C95581   3.112   3.465   8.616  1.1894 -0.3041  0.6060
  725MOL0     C95582   3.005   3.452   8.722 -0.1837  0.9681  0.0064
  725MOL0     C95583   2.878   3.494   8.659 -0.5865 -0.7938  0.3254
  725MOL0     C95584   2.761   3.489   8.760  0.5066  0.4270  0.7074
  725MOL0     N95585   2.686   3.362   8.752 -0.1762 -0.3169 -0.3589
  725MOL0     C95586   2.622   3.308   8.857 -0.2361  0.4719  0.4978
  725MOL0     C95587   2.578   3.185   8.812  0.8175 -0.3894  0.2720
  725MOL0     C95588   2.507   3.080   8.893  0.5211  0.2711  0.6680
  725MOL0     C95589   2.360   3.111   8.932 -0.0952  0.1504 -0.8114
  725MOL0     C95590   2.287   3.117   8.796  0.9056 -0.2394 -0.2585
  725MOL0     C95591   2.138   3.104   8.827 -0.2501  0.2069  0.4546
  725MOL0     O95592   2.092   3.200   8.927 -0.2081 -0.4893  0.3803
  725MOL0     C95593   1.957   3.197   8.964 -0.3970 -0.2568  0.1053
  725MOL0     C95594   1.911   3.301   9.050  0.1253 -0.0403 -0.6891
  725MOL0     C95595   1.778   3.294   9.092 -1.3071 -0.0198 -0.2152
  725MOL0     C95596   1.678   3.207   9.039 -0.3776  0.3670  0.0746
  725MOL0     C95597   1.531   3.213   9.065  0.0540  0.5801 -0.9129
  725MOL0     O95598   1.442   3.112   9.021  0.1287 -0.4064  0.0125
  725MOL0     C95599   1.317   3.102   9.077  0.3449 -0.4736 -0.3970
  725MOL0     C95600   1.202   3.137   9.009  0.7945 -0.5617 -0.0644
  725MOL0     C95601   1.074   3.120   9.064 -0.0056  0.1272 -0.4628
  725MOL0     C95602   1.053   3.063   9.195  1.2339 -0.5067  0.8085
  725MOL0     O95603   0.926   3.070   9.246  0.6107 -1.1199  0.6253
  725MOL0     C95604   0.847   2.963   9.289 -0.5136 -0.3944 -0.6166
  725MOL0     C95605   0.695   2.988   9.279  0.3148 -0.3439 -0.2785
  725MOL0     C95606   0.644   3.095   9.379  0.1107 -0.0359 -0.1284
  725MOL0     C95607   0.505   3.088   9.432 -0.0696  0.7264 -0.5773
  725MOL0     C95608   0.496   2.992   9.550  0.1764  0.4308 -0.3550
  725MOL0     C95609   0.354   2.980   9.602 -0.4022  0.0330  0.3186
  725MOL0     C95610   0.330   2.866   9.698  0.7678  0.2428 -0.2531
  725MOL0     C95611   0.183   2.857   9.722  0.1442  1.1281  1.5347
  725MOL0    Cl95612   0.095   2.816   9.574 -0.0360 -0.4035 -0.2105
  725MOL0     C95613   1.167   3.031   9.265 -1.0265 -0.0722 -0.1860
  725MOL0     C95614   1.295   3.054   9.212 -0.1344  0.0245  0.3263
  725MOL0     O95615   1.491   3.311   9.129  0.6585 -0.2592  0.2577
  725MOL0     C95616   1.728   3.100   8.961 -0.0236  0.1452 -0.6113
  725MOL0     C95617   1.864   3.093   8.923 -0.2513 -0.6664  0.3281
  725MOL0     N95618   2.609   3.179   8.678  0.0798  0.7083  0.2647
  725MOL0     N95619   2.671   3.286   8.640 -1.1291 -0.1880  0.1506
  725MOL0     C95620   3.967   3.312   8.579  0.3864  0.9212  0.3311
  725MOL0     C95621   4.096   3.343   8.525 -0.8984  0.1202 -0.1449
  725MOL0     C95622   4.446   3.458   8.302 -0.5657 -0.4507 -0.0073
  725MOL0     C95623   4.553   3.386   8.255  0.5135 -0.1130 -0.5101
  725MOL0     C95624   4.673   3.442   8.211  0.4170  0.0762  0.5188
  725MOL0     C95625   4.687   3.580   8.207  0.3188 -0.3218  0.2736
  725MOL0     O95626   4.806   3.630   8.154  0.2707  0.2778  0.3334
  725MOL0     C95627   4.861   3.759   8.186  0.1422  1.0220  0.2307
  725MOL0     C95628   4.935   3.758   8.315 -0.0471  0.6546 -0.3077
  725MOL0     C95629   5.042   3.648   8.317 -0.6313  0.5520 -0.1015
  725MOL0     C95630   5.109   3.638   8.450 -0.2758  0.7642 -0.3845
  725MOL0     C95631   5.151   3.773   8.507  0.4325 -0.1152 -0.1071
  725MOL0     C95632   5.168   3.878   8.570 -0.6914  0.4947  0.4884
  725MOL0     C95633   4.581   3.656   8.259 -0.4953 -0.7823  0.0977
  725MOL0     C95634   4.463   3.598   8.297 -0.9393 -0.1864 -0.1605
  725MOL0     H95635   4.037   3.621   8.355 -1.2914  2.4000  3.2813
  725MOL0     H95636   3.812   3.582   8.434  1.7124  0.1633 -4.7345
  725MOL0     H95637   3.619   3.398   8.448  1.0728  1.7650  0.2179
  725MOL0     H95638   3.630   3.534   8.547  1.3712 -0.0708  0.3947
  725MOL0     H95639   3.522   3.408   8.737 -0.5981 -1.2907 -0.2658
  725MOL0     H95640   3.463   3.273   8.626 -3.5692  0.6650 -0.9183
  725MOL0     H95641   3.350   3.443   8.496  0.9510  0.1738  1.2421
  725MOL0     H95642   3.402   3.563   8.608  2.0509  0.8117 -2.1163
  725MOL0     H95643   3.253   3.325   8.715  1.2706 -0.4006 -1.4365
  725MOL0     H95644   3.262   3.495   8.777 -0.3497  1.4219 -0.0735
  725MOL0     H95645   3.093   3.405   8.526 -1.7427  1.5465 -0.1342
  725MOL0     H95646   3.117   3.571   8.593  1.0989 -0.3029  0.5940
  725MOL0     H95647   3.027   3.513   8.810 -0.1639  2.6272 -1.1028
  725MOL0     H95648   2.996   3.347   8.753 -0.2106  0.9191 -0.1664
  725MOL0     H95649   2.896   3.597   8.627  1.2965 -2.1939 -3.7366
  725MOL0     H95650   2.851   3.441   8.568  1.3375  2.8187 -2.6466
  725MOL0     H95651   2.695   3.576   8.755 -1.7711 -1.2543 -0.0722
  725MOL0     H95652   2.815   3.493   8.855  1.2246  1.7052  0.2546
  725MOL0     H95653   2.626   3.355   8.955  0.6676  1.2366  0.1167
  725MOL0     H95654   2.566   3.067   8.984 -2.0293 -0.8109  2.2755
  725MOL0     H95655   2.509   2.980   8.848  2.3897  1.5316 -2.3560
  725MOL0     H95656   2.350   3.200   8.995  0.0972 -1.5959  1.8468
  725MOL0     H95657   2.319   3.025   8.985 -2.8675 -0.3321 -3.4091
  725MOL0     H95658   2.303   3.219   8.760  2.5013  0.3572  1.9649
  725MOL0     H95659   2.327   3.040   8.730  3.0734  1.3333 -0.9170
  725MOL0     H95660   2.129   3.010   8.883  0.3583  1.5976  3.0704
  725MOL0     H95661   2.072   3.104   8.740 -0.4152  1.2217  0.5741
  725MOL0     H95662   1.975   3.380   9.089 -0.8031 -0.1326  1.1315
  725MOL0     H95663   1.729   3.361   9.163 -3.0771  1.1721 -2.4250
  725MOL0     H95664   1.215   3.186   8.913 -1.7911  1.2731  0.4062
  725MOL0     H95665   0.982   3.147   9.013 -1.1846 -1.9779  0.4083
  725MOL0     H95666   0.867   2.935   9.393 -1.6494  1.5039  0.1659
  725MOL0     H95667   0.879   2.875   9.232  0.4302  0.4593 -1.4600
  725MOL0     H95668   0.654   2.890   9.302  0.0117 -0.9027 -2.8928
  725MOL0     H95669   0.667   3.019   9.178  1.3396  1.7835  0.0345
  725MOL0     H95670   0.657   3.199   9.347  2.2738  0.9296  3.3629
  725MOL0     H95671   0.716   3.096   9.462  0.9495  3.3916 -0.7174
  725MOL0     H95672   0.472   3.187   9.466 -0.6000  0.6669 -0.9048
  725MOL0     H95673   0.423   3.067   9.363 -1.4380 -2.3700  1.7696
  725MOL0     H95674   0.560   3.021   9.634  0.6371  0.7151 -0.8029
  725MOL0     H95675   0.529   2.891   9.523 -0.6057  0.1692 -0.3625
  725MOL0     H95676   0.291   2.968   9.513  1.0173  1.4327 -0.9372
  725MOL0     H95677   0.313   3.074   9.641  0.8240  1.6962 -2.1445
  725MOL0     H95678   0.372   2.776   9.651 -0.8486  0.6144 -2.5875
  725MOL0     H95679   0.383   2.860   9.793 -0.7479 -3.3874  0.5347
  725MOL0     H95680   0.148   2.954   9.759 -0.0476  2.0056 -0.7678
  725MOL0     H95681   0.168   2.783   9.801 -0.1340 -0.0839  0.3829
  725MOL0     H95682   1.156   2.991   9.365 -1.9123  0.0869 -0.2100
  725MOL0     H95683   1.383   3.032   9.270  0.3051  0.5045 -0.1494
  725MOL0     H95684   1.663   3.023   8.921 -0.0384  0.4902 -1.2670
  725MOL0     H95685   1.884   3.010   8.856 -1.2605  0.6054 -1.6503
  725MOL0     H95686   3.958   3.232   8.653 -0.6612 -1.4547 -2.1672
  725MOL0     H95687   4.180   3.287   8.564 -2.0977 -0.2056  2.1489
  725MOL0     H95688   4.543   3.278   8.242 -0.4111  0.1374 -2.2505
  725MOL0     H95689   4.754   3.380   8.174 -0.0060  0.9786 -2.1082
  725MOL0     H95690   4.790   3.842   8.185  1.0426  1.8192 -0.7976
  725MOL0     H95691   4.931   3.783   8.104 -0.4124 -2.2528 -1.3630
  725MOL0     H95692   4.977   3.859   8.322  1.6255 -0.0952  1.3106
  725MOL0     H95693   4.858   3.753   8.393 -1.1120  0.5365 -1.3449
  725MOL0     H95694   5.120   3.675   8.244  0.4974 -0.1434  0.8044
  725MOL0     H95695   5.001   3.551   8.286 -0.7187  1.6732 -4.0360
  725MOL0     H95696   5.051   3.593   8.531 -0.0056  0.4841 -0.3431
  725MOL0     H95697   5.194   3.572   8.431 -1.0370  0.5924 -3.7635
  725MOL0     H95698   5.176   3.970   8.626  1.5668  1.4904 -1.3393
  725MOL0     H95699   4.594   3.763   8.251 -0.2516 -0.7523  0.8220
  725MOL0     H95700   4.392   3.667   8.342  0.4257  0.9190  0.3888
  726MOL0     O95701   5.448   6.216  10.992  0.7894 -0.2129 -0.0082
  726MOL0     C95702   5.363   6.258  10.924 -0.5617  0.8167  0.5050
  726MOL0     O95703   5.368   6.380  10.860 -0.4343 -0.0012  0.0036
  726MOL0     C95704   5.463   6.483  10.877 -0.5451 -0.3014 -0.1940
  726MOL0     C95705   5.556   6.492  10.976  0.6823 -0.0409 -0.1976
  726MOL0     C95706   5.647   6.599  10.992  0.0625 -0.1850 -0.6244
  726MOL0     C95707   5.654   6.703  10.897  0.8826  0.6479  1.7204
  726MOL0     O95708   5.746   6.802  10.925 -0.0323  1.1493 -0.2899
  726MOL0     C95709   5.704   6.938  10.925  0.4959 -0.0442  0.1395
  726MOL0     C95710   5.813   7.031  10.975 -1.1841  0.1357  0.5621
  726MOL0     C95711   5.921   7.063  10.863  0.2749  0.1078 -0.2654
  726MOL0     C95712   6.018   7.153  10.922  0.3216  0.1639 -0.3543
  726MOL0     C95713   6.157   7.166  10.845  1.4054  0.7594  0.1678
  726MOL0     C95714   6.266   7.210  10.932  0.0402 -0.5256 -1.0384
  726MOL0     C95715   6.401   7.225  10.861  0.3203  0.0536  0.1826
  726MOL0     C95716   6.527   7.229  10.959 -0.1379 -0.4897  0.0917
  726MOL0     N95717   6.654   7.252  10.887 -0.6754 -0.5438  0.3100
  726MOL0     C95718   6.692   7.372  10.833  0.7644  0.2165 -0.3038
  726MOL0     C95719   6.822   7.363  10.816 -1.3196  0.8025  0.5349
  726MOL0     C95720   6.914   7.469  10.748  0.4156 -0.5602 -0.5685
  726MOL0     C95721   6.896   7.608  10.808  0.3432  0.0730  0.0257
  726MOL0     C95722   6.826   7.704  10.719  0.2312  0.1252  0.2022
  726MOL0     C95723   6.678   7.720  10.727  0.2589 -0.2492  0.2055
  726MOL0     O95724   6.608   7.621  10.645  0.6225  0.1987  0.6163
  726MOL0     C95725   6.471   7.630  10.650 -0.4073 -0.3266 -0.9204
  726MOL0     C95726   6.397   7.536  10.575 -0.6172 -0.6334 -0.0972
  726MOL0     C95727   6.261   7.522  10.587  0.4419  0.4294 -0.7100
  726MOL0     C95728   6.183   7.617  10.654 -0.2500  0.6061  0.1073
  726MOL0     C95729   6.034   7.596  10.671  0.1176  0.0443  0.1036
  726MOL0     O95730   5.988   7.461  10.653  0.1930 -0.0893  0.4574
  726MOL0     C95731   5.855   7.445  10.679  0.7828 -0.6466  0.1415
  726MOL0     C95732   5.757   7.437  10.574 -1.3476  0.5912 -0.1635
  726MOL0     C95733   5.620   7.417  10.605 -0.2558 -0.2752 -0.9805
  726MOL0     C95734   5.573   7.410  10.740 -0.1909 -0.0832  0.2305
  726MOL0     O95735   5.448   7.389  10.772 -0.4126 -0.0243 -0.3144
  726MOL0     C95736   5.350   7.378  10.669  0.6211  0.2828 -0.0606
  726MOL0     C95737   5.231   7.368  10.754 -0.6948 -0.1355  0.3493
  726MOL0     C95738   5.101   7.340  10.691  0.3175  0.2694  1.3289
  726MOL0     C95739   5.052   7.456  10.609 -0.4919  0.3298  0.6586
  726MOL0     C95740   4.903   7.444  10.557 -0.7579  0.0569 -0.9244
  726MOL0     C95741   4.887   7.327  10.475 -0.3492  0.8002 -0.3096
  726MOL0     C95742   4.979   7.313  10.348  0.9150 -0.3076  0.0299
  726MOL0     C95743   4.911   7.217  10.243 -1.3823 -0.2633 -1.6934
  726MOL0    Cl95744   5.039   7.168  10.128 -0.2299  0.0086  0.4492
  726MOL0     C95745   5.668   7.435  10.835  0.2416  0.5915  0.6731
  726MOL0     C95746   5.805   7.454  10.808 -0.2202 -1.1206 -0.7109
  726MOL0     O95747   5.971   7.686  10.724 -0.2457  0.2560 -0.0388
  726MOL0     C95748   6.252   7.727  10.710  0.3400  0.4046 -0.6957
  726MOL0     C95749   6.389   7.726  10.713  0.3536 -0.7592 -0.4404
  726MOL0     N95750   6.873   7.235  10.854 -0.1557 -0.3558 -0.1852
  726MOL0     N95751   6.770   7.169  10.895 -0.1042  0.1492 -0.5142
  726MOL0     C95752   5.562   6.697  10.782 -1.2618  0.0770  0.7087
  726MOL0     C95753   5.472   6.585  10.778  1.2298 -0.0546 -1.1487
  726MOL0     C95754   5.242   6.179  10.896  0.1380 -0.0858  0.5384
  726MOL0     C95755   5.240   6.043  10.913  0.3217  0.8598 -0.3650
  726MOL0     C95756   5.130   5.964  10.872 -1.0914 -0.2869  0.2264
  726MOL0     C95757   5.014   6.023  10.820 -0.5727  0.3965 -0.2726
  726MOL0     O95758   4.900   5.966  10.780 -0.6831  0.3227  0.4456
  726MOL0     C95759   4.899   5.817  10.798  0.6662  0.1185 -0.8090
  726MOL0     C95760   4.754   5.762  10.779 -0.2473 -0.4806  0.7137
  726MOL0     C95761   4.700   5.794  10.637 -0.5526  0.5590 -0.2657
  726MOL0     C95762   4.547   5.763  10.619  0.1212 -0.5702  0.0060
  726MOL0     C95763   4.514   5.622  10.639 -0.5703 -0.5232  1.2034
  726MOL0     C95764   4.493   5.511  10.693  0.3716 -0.0188  0.0200
  726MOL0     C95765   5.021   6.167  10.824  0.8510  0.5476 -0.2622
  726MOL0     C95766   5.124   6.249  10.859 -0.2975 -0.4378 -0.5167
  726MOL0     H95767   5.566   6.409  11.045 -0.5786 -0.8521 -0.9667
  726MOL0     H95768   5.716   6.615  11.074 -2.6508 -1.5190  2.0876
  726MOL0     H95769   5.617   6.936  10.991 -2.6878 -4.4329 -3.5197
  726MOL0     H95770   5.675   6.982  10.829  0.7434  1.0935  0.5661
  726MOL0     H95771   5.870   6.987  11.057  0.6024  0.6087 -0.3864
  726MOL0     H95772   5.766   7.124  11.007 -2.2913 -1.0565  2.6164
  726MOL0     H95773   5.881   7.096  10.767  2.1856 -0.1882 -1.2157
  726MOL0     H95774   5.970   6.966  10.848 -0.1220 -0.4657  1.8726
  726MOL0     H95775   5.967   7.248  10.942 -0.0093  0.1568 -1.1343
  726MOL0     H95776   6.038   7.119  11.024  0.6673  1.3074 -0.0207
  726MOL0     H95777   6.148   7.227  10.755 -1.6859  0.4777  0.1473
  726MOL0     H95778   6.188   7.071  10.801 -0.2750  1.0699 -1.8483
  726MOL0     H95779   6.293   7.142  11.013  1.8286  0.1151 -1.0479
  726MOL0     H95780   6.235   7.304  10.979 -2.7146 -2.2072  0.8069
  726MOL0     H95781   6.419   7.136  10.799  2.7012  1.7536 -1.7891
  726MOL0     H95782   6.401   7.317  10.802 -0.8332 -0.0200  0.0435
  726MOL0     H95783   6.534   7.138  11.020  0.5679 -0.7847 -0.4143
  726MOL0     H95784   6.522   7.309  11.034 -1.4600 -0.6216  0.1587
  726MOL0     H95785   6.625   7.457  10.831 -1.8003 -1.6258  1.0362
  726MOL0     H95786   6.890   7.468  10.641 -1.6367 -0.7981 -0.1541
  726MOL0     H95787   7.019   7.442  10.762  1.1703  1.5870 -1.6347
  726MOL0     H95788   6.997   7.649  10.823  1.4033 -0.8179 -3.6207
  726MOL0     H95789   6.847   7.598  10.905 -2.1765 -1.9152 -1.3464
  726MOL0     H95790   6.854   7.806  10.748 -0.4679 -0.4061  3.0748
  726MOL0     H95791   6.854   7.699  10.614 -0.8471  0.9835 -0.1367
  726MOL0     H95792   6.646   7.818  10.688  0.0049 -0.1250  0.7186
  726MOL0     H95793   6.651   7.718  10.833 -1.2996  5.1960  0.2002
  726MOL0     H95794   6.455   7.461  10.522  1.7088  0.2562  1.0339
  726MOL0     H95795   6.213   7.448  10.525 -0.9904  2.0372 -1.6186
  726MOL0     H95796   5.795   7.447  10.473  1.3891 -0.0565  0.6989
  726MOL0     H95797   5.551   7.427  10.522  0.4562 -2.6926 -1.9551
  726MOL0     H95798   5.358   7.290  10.604 -0.5760  0.0256  0.1142
  726MOL0     H95799   5.347   7.459  10.596 -1.8850 -1.4391 -2.0509
  726MOL0     H95800   5.223   7.461  10.812  3.0560  0.4041  0.2495
  726MOL0     H95801   5.252   7.293  10.831  0.8273  2.3816  2.5724
  726MOL0     H95802   5.026   7.303  10.762  0.2068 -1.9858  0.1374
  726MOL0     H95803   5.120   7.249  10.633  0.4616  1.2285 -0.1569
  726MOL0     H95804   5.049   7.549  10.666  0.6574  2.6844 -2.7600
  726MOL0     H95805   5.118   7.472  10.523  0.4611 -1.0110  1.1078
  726MOL0     H95806   4.861   7.534  10.510 -0.6850  0.0642 -0.9768
  726MOL0     H95807   4.840   7.435  10.646  2.3979  1.1321  1.6118
  726MOL0     H95808   4.784   7.332  10.437 -1.8809  1.8021  3.5053
  726MOL0     H95809   4.898   7.239  10.538 -1.7719  1.5387  1.0495
  726MOL0     H95810   4.996   7.411  10.303  1.5835 -0.5324 -0.2235
  726MOL0     H95811   5.075   7.274  10.382  1.2626  1.4261  1.1421
  726MOL0     H95812   4.837   7.290  10.210  1.3872  1.7179 -4.1006
  726MOL0     H95813   4.868   7.127  10.287  2.0819 -2.6405 -2.7346
  726MOL0     H95814   5.626   7.438  10.935 -3.6452  1.0779 -0.8254
  726MOL0     H95815   5.881   7.469  10.884  0.5833 -2.6008 -1.1785
  726MOL0     H95816   6.192   7.792  10.772 -0.1839 -0.4672 -0.2807
  726MOL0     H95817   6.437   7.799  10.776  0.0967 -1.1409  0.2051
  726MOL0     H95818   5.573   6.782  10.714  2.1275  0.2578  1.3244
  726MOL0     H95819   5.398   6.588  10.699  1.4293  0.0462 -1.3340
  726MOL0     H95820   5.334   5.997  10.942  1.2786  1.2504 -2.5657
  726MOL0     H95821   5.135   5.856  10.871  0.9648 -0.2255 -0.2340
  726MOL0     H95822   4.928   5.783  10.898 -1.8029 -1.9639 -0.7095
  726MOL0     H95823   4.965   5.764  10.728 -0.5998 -0.4042 -1.6424
  726MOL0     H95824   4.754   5.658  10.811 -0.1282 -0.6434  0.1994
  726MOL0     H95825   4.689   5.812  10.851 -2.9515 -0.1968 -1.7229
  726MOL0     H95826   4.763   5.740  10.566  2.1641  1.9789  0.8929
  726MOL0     H95827   4.711   5.901  10.617 -1.5265  0.5585 -0.9018
  726MOL0     H95828   4.485   5.829  10.681  0.3192  1.9116 -2.3074
  726MOL0     H95829   4.507   5.798  10.524  1.7460 -2.7395 -1.5605
  726MOL0     H95830   4.471   5.409  10.718 -2.1577  0.0256 -1.6308
  726MOL0     H95831   4.932   6.226  10.803 -0.1919 -0.2722  1.6054
  726MOL0     H95832   5.118   6.355  10.840 -2.8242 -0.4028  0.0407
  727MOL0     O95833   7.055   5.931   9.201  1.3401  0.9200  0.8407
  727MOL0     C95834   7.105   5.876   9.298 -0.0634  0.7496  0.0190
  727MOL0     O95835   7.061   5.759   9.359  0.0492  0.2751  0.3852
  727MOL0     C95836   6.948   5.697   9.309  0.1413  0.0953  0.1655
  727MOL0     C95837   6.952   5.580   9.227 -0.3132 -0.1670  0.4453
  727MOL0     C95838   6.838   5.525   9.179  1.5533 -0.1801 -0.3664
  727MOL0     C95839   6.716   5.579   9.216  0.3422  0.7794  1.0818
  727MOL0     O95840   6.591   5.548   9.163  0.6993  0.7103  0.2376
  727MOL0     C95841   6.558   5.418   9.114  0.9153  0.2208  0.0064
  727MOL0     C95842   6.402   5.406   9.101 -1.2343  0.1896 -0.1996
  727MOL0     C95843   6.358   5.259   9.061 -0.2399 -0.6010  0.9038
  727MOL0     C95844   6.219   5.240   9.054 -0.6332  0.0615  0.2050
  727MOL0     C95845   6.208   5.085   9.025 -0.3118  0.2558  0.1837
  727MOL0     C95846   6.059   5.046   9.019  1.2562  0.9872 -0.8459
  727MOL0     C95847   5.970   5.080   9.142  0.6450 -0.3554  0.1875
  727MOL0     C95848   5.823   5.075   9.095 -0.0610  0.1526  0.0116
  727MOL0     N95849   5.722   5.119   9.198 -0.6002 -0.6486 -0.7243
  727MOL0     C95850   5.606   5.193   9.158 -0.2660  0.0996  0.7197
  727MOL0     C95851   5.534   5.207   9.275  0.1639  0.5487  0.3766
  727MOL0     C95852   5.404   5.282   9.281  0.0650 -0.2015  0.1692
  727MOL0     C95853   5.394   5.367   9.406 -0.6232 -0.7432  0.1860
  727MOL0     C95854   5.268   5.456   9.420 -0.5787 -0.1656  0.0554
  727MOL0     C95855   5.138   5.378   9.410  0.5568  0.6032 -0.5050
  727MOL0     O95856   5.070   5.392   9.280  0.3323 -0.7318  0.8264
  727MOL0     C95857   4.940   5.360   9.270  0.4697  1.0007  0.1878
  727MOL0     C95858   4.871   5.375   9.153  0.2381 -0.8242 -0.5713
  727MOL0     C95859   4.730   5.348   9.140 -0.4043  0.8588  0.1415
  727MOL0     C95860   4.657   5.300   9.248  0.2398  0.8590 -0.7578
  727MOL0     C95861   4.510   5.267   9.247 -0.1927  0.1308  0.2700
  727MOL0     O95862   4.450   5.243   9.127  0.1450  0.5727 -0.4676
  727MOL0     C95863   4.319   5.207   9.121  0.5527 -0.4444 -0.4092
  727MOL0     C95864   4.263   5.098   9.183 -0.1846  0.4293 -0.1366
  727MOL0     C95865   4.131   5.072   9.172 -0.4959 -0.2097 -0.3906
  727MOL0     C95866   4.052   5.148   9.086 -0.5862 -0.7189  0.6079
  727MOL0     O95867   3.924   5.120   9.052  0.0145  0.0354  0.2761
  727MOL0     C95868   3.837   5.041   9.138 -0.5772  0.6707  0.3867
  727MOL0     C95869   3.689   5.078   9.135 -0.6867  1.4821  0.0063
  727MOL0     C95870   3.596   4.988   9.227 -0.6315 -0.1593 -0.0637
  727MOL0     C95871   3.455   5.044   9.194  0.2059  0.4573  0.7998
  727MOL0     C95872   3.393   4.987   9.067  0.0652  0.3971  0.2906
  727MOL0     C95873   3.241   5.031   9.056  0.7157 -0.4345 -0.1739
  727MOL0     C95874   3.137   4.950   9.145 -0.3760 -0.3640 -0.1701
  727MOL0     C95875   3.102   4.809   9.091  0.6642  0.9913 -0.5846
  727MOL0    Cl95876   2.957   4.741   9.182  0.5394  0.0270 -0.2413
  727MOL0     C95877   4.111   5.252   9.009  0.1210 -0.2547  0.2398
  727MOL0     C95878   4.248   5.285   9.036  1.1758 -0.5144 -0.0734
  727MOL0     O95879   4.457   5.255   9.358  0.0757  0.6414 -1.0343
  727MOL0     C95880   4.731   5.289   9.372 -0.0715  0.3390 -0.0300
  727MOL0     C95881   4.865   5.312   9.377 -0.8619 -0.1084 -0.5941
  727MOL0     N95882   5.610   5.147   9.379  0.4425 -0.9425 -0.0716
  727MOL0     N95883   5.716   5.094   9.333  0.4486 -0.4569 -0.1003
  727MOL0     C95884   6.708   5.684   9.299 -0.4585 -0.1317  0.6517
  727MOL0     C95885   6.829   5.748   9.341 -0.7308 -1.1910 -0.0491
  727MOL0     C95886   7.222   5.951   9.345  0.3570  0.6495  0.4768
  727MOL0     C95887   7.266   5.926   9.470 -0.3312 -0.2708  0.2050
  727MOL0     C95888   7.392   5.979   9.511  0.2021  0.5778 -0.2661
  727MOL0     C95889   7.472   6.052   9.428 -0.4839  0.4563 -0.1798
  727MOL0     O95890   7.600   6.075   9.481 -0.0276  0.6880  0.5138
  727MOL0     C95891   7.685   6.154   9.397 -0.2813 -0.4975 -0.2063
  727MOL0     C95892   7.820   6.171   9.456 -0.4377  0.4122  0.4418
  727MOL0     C95893   7.912   6.046   9.462 -0.1220  0.2228  0.1679
  727MOL0     C95894   8.057   6.096   9.452 -0.3511 -0.3637  0.0346
  727MOL0     C95895   8.097   6.128   9.307 -0.1353 -0.3655  0.5225
  727MOL0     C95896   8.147   6.175   9.200  0.2413 -0.0591  0.4900
  727MOL0     C95897   7.430   6.063   9.296 -0.3653  0.0949  0.6383
  727MOL0     C95898   7.307   6.017   9.256  0.6003 -0.2282 -0.5530
  727MOL0     H95899   7.051   5.543   9.203 -0.5629 -0.2269 -0.5372
  727MOL0     H95900   6.849   5.439   9.113  0.9941  0.0769 -0.8096
  727MOL0     H95901   6.604   5.336   9.170  2.7486  0.6285 -0.8281
  727MOL0     H95902   6.601   5.403   9.014 -2.5987 -0.8111 -1.5037
  727MOL0     H95903   6.361   5.474   9.026 -1.8971  0.6625  0.5761
  727MOL0     H95904   6.369   5.411   9.205  2.3526 -1.5278  1.2271
  727MOL0     H95905   6.405   5.195   9.137  2.7002 -2.0355 -1.8636
  727MOL0     H95906   6.412   5.224   8.973 -0.4294 -0.2722  0.6563
  727MOL0     H95907   6.155   5.263   9.139 -1.2113 -0.8042  0.0121
  727MOL0     H95908   6.187   5.302   8.970  0.6701 -0.2201 -0.5318
  727MOL0     H95909   6.263   5.032   9.103  2.2911 -0.4631 -1.9805
  727MOL0     H95910   6.252   5.062   8.927  0.0862 -1.5021  0.7462
  727MOL0     H95911   6.051   4.940   8.996 -0.8750  1.0294 -0.5381
  727MOL0     H95912   6.024   5.102   8.931  0.8228 -0.7979 -1.8650
  727MOL0     H95913   5.995   5.015   9.226  0.6915 -1.1610 -0.4487
  727MOL0     H95914   5.989   5.184   9.173  4.4517 -0.5292 -1.0288
  727MOL0     H95915   5.799   4.970   9.074 -0.5280 -0.2752  2.3273
  727MOL0     H95916   5.802   5.127   9.002 -0.7180 -0.5024 -0.2175
  727MOL0     H95917   5.581   5.228   9.059  0.6425 -1.0566  0.0559
  727MOL0     H95918   5.323   5.208   9.275 -0.0114 -0.3083  2.0803
  727MOL0     H95919   5.397   5.335   9.186 -1.6714 -1.8318 -0.6988
  727MOL0     H95920   5.483   5.431   9.408 -1.3395  0.2529  1.7856
  727MOL0     H95921   5.401   5.306   9.496  2.4443 -2.5212 -1.1061
  727MOL0     H95922   5.284   5.505   9.517  1.8368 -3.1393  1.3245
  727MOL0     H95923   5.276   5.510   9.326 -2.3220 -2.7446 -1.6991
  727MOL0     H95924   5.073   5.425   9.485  0.3268 -1.5602  0.7373
  727MOL0     H95925   5.134   5.271   9.433 -1.7851 -0.0832 -3.3499
  727MOL0     H95926   4.920   5.418   9.066  0.6449 -1.7129 -0.7873
  727MOL0     H95927   4.675   5.384   9.054  2.7774  0.8135 -2.1228
  727MOL0     H95928   4.327   5.027   9.235  1.8430  0.1663 -2.7750
  727MOL0     H95929   4.082   4.988   9.221 -0.0935  0.1430  0.6315
  727MOL0     H95930   3.866   5.057   9.242 -1.3782  2.3477  0.3880
  727MOL0     H95931   3.846   4.935   9.117 -0.3597  0.6668  0.4935
  727MOL0     H95932   3.659   5.073   9.030 -0.5317 -0.0507  0.0119
  727MOL0     H95933   3.699   5.184   9.159 -1.4394  2.0062 -1.7929
  727MOL0     H95934   3.619   5.010   9.332  0.9125  0.2627 -0.4661
  727MOL0     H95935   3.595   4.882   9.200 -4.0887 -0.7543  1.7993
  727MOL0     H95936   3.390   5.011   9.276 -0.0942 -2.6575 -0.5239
  727MOL0     H95937   3.455   5.153   9.189  1.6866  0.5496  2.2539
  727MOL0     H95938   3.407   4.879   9.078  0.7162  0.1216 -2.4920
  727MOL0     H95939   3.452   5.023   8.982  0.2140  0.8338  0.5740
  727MOL0     H95940   3.199   5.008   8.958  0.3107 -4.0170  0.7262
  727MOL0     H95941   3.228   5.139   9.071 -1.6995 -0.5996 -0.6312
  727MOL0     H95942   3.179   4.935   9.245 -0.1355 -1.0831 -0.3684
  727MOL0     H95943   3.044   5.007   9.146  0.7717  1.7403  3.5158
  727MOL0     H95944   3.191   4.747   9.102  1.8771  3.0053  2.1492
  727MOL0     H95945   3.085   4.806   8.983  1.0575 -2.7480 -0.6607
  727MOL0     H95946   4.069   5.320   8.936  3.4559  0.4640 -1.1929
  727MOL0     H95947   4.297   5.371   8.991  2.6454 -2.0782 -1.6051
  727MOL0     H95948   4.681   5.260   9.463  2.0410  0.5943  1.2729
  727MOL0     H95949   4.906   5.287   9.474 -1.5728  1.5094  0.1654
  727MOL0     H95950   6.605   5.699   9.329 -0.8891 -3.2280  1.1013
  727MOL0     H95951   6.829   5.841   9.398  0.8231 -0.9615 -0.3800
  727MOL0     H95952   7.219   5.851   9.534  0.5626 -0.9564  0.0787
  727MOL0     H95953   7.429   5.952   9.610  2.0040  0.9652 -0.7882
  727MOL0     H95954   7.639   6.253   9.398 -2.0186 -1.1296 -3.1518
  727MOL0     H95955   7.700   6.114   9.296  2.4834 -3.5827  1.2294
  727MOL0     H95956   7.873   6.251   9.405 -0.0592  1.3920  2.2828
  727MOL0     H95957   7.812   6.212   9.557  3.7880  4.1132 -0.4415
  727MOL0     H95958   7.881   5.985   9.378 -1.8297 -0.0535  0.9618
  727MOL0     H95959   7.897   5.999   9.560  0.3010  3.0879  1.7559
  727MOL0     H95960   8.068   6.183   9.517  0.8836 -0.0343 -0.5870
  727MOL0     H95961   8.125   6.020   9.492 -1.7127 -1.0878  1.0612
  727MOL0     H95962   8.179   6.218   9.107  0.2834 -2.4833 -0.6886
  727MOL0     H95963   7.503   6.096   9.222 -1.4910 -1.8571 -1.4831
  727MOL0     H95964   7.281   6.014   9.150 -0.3682 -3.2237 -0.3260
  728MOL0     O95965   5.272   7.424   8.793 -0.8306  0.1920 -0.1210
  728MOL0     C95966   5.293   7.415   8.915 -1.1669 -0.5195  0.4084
  728MOL0     O95967   5.205   7.397   9.012  0.8440 -0.1055 -0.1314
  728MOL0     C95968   5.072   7.391   8.981 -0.0544 -0.6202 -0.1295
  728MOL0     C95969   5.010   7.288   8.912 -0.6165 -0.4914  0.7188
  728MOL0     C95970   4.870   7.293   8.881 -0.0259  0.5313 -0.2889
  728MOL0     C95971   4.791   7.408   8.912  0.4262  1.0792  0.6299
  728MOL0     O95972   4.665   7.405   8.855 -0.4391  0.3810  0.0822
  728MOL0     C95973   4.568   7.484   8.906 -0.2746  0.0671  0.0644
  728MOL0     C95974   4.442   7.485   8.820 -0.1546  0.2391  0.4248
  728MOL0     C95975   4.457   7.458   8.667 -0.2534  0.4181  0.3536
  728MOL0     C95976   4.322   7.495   8.595  0.2948 -0.9464 -0.2179
  728MOL0     C95977   4.320   7.451   8.448  1.4569 -0.7365 -0.4046
  728MOL0     C95978   4.178   7.449   8.400  0.1536 -0.4213  0.7074
  728MOL0     C95979   4.164   7.435   8.253 -0.3556  0.3198  0.2112
  728MOL0     C95980   4.016   7.423   8.211  0.9566  0.1433  0.1528
  728MOL0     N95981   3.994   7.398   8.069 -1.0800  0.6792  0.3796
  728MOL0     C95982   3.981   7.493   7.968 -0.8257 -0.6377 -0.1217
  728MOL0     C95983   3.929   7.426   7.865  0.1368 -1.0382  0.7692
  728MOL0     C95984   3.911   7.491   7.728  0.2469 -0.0361 -0.9345
  728MOL0     C95985   3.783   7.433   7.656 -0.5367  0.4132 -0.2818
  728MOL0     C95986   3.757   7.485   7.512  0.4880  0.7779  0.2391
  728MOL0     C95987   3.632   7.413   7.460 -0.6104 -0.0029 -0.1143
  728MOL0     O95988   3.586   7.482   7.342  0.2242 -0.2938  0.7119
  728MOL0     C95989   3.500   7.420   7.262  0.0544 -0.2277  0.9395
  728MOL0     C95990   3.413   7.323   7.303 -0.4463  0.0446  0.0165
  728MOL0     C95991   3.324   7.261   7.206  0.7166 -0.2425  0.0880
  728MOL0     C95992   3.330   7.294   7.068  0.2201  0.0081  0.2152
  728MOL0     C95993   3.222   7.247   6.974 -0.3911  0.1736 -0.0685
  728MOL0     O95994   3.128   7.169   7.026 -0.4204 -0.2018  0.5149
  728MOL0     C95995   3.063   7.078   6.948 -0.5756 -0.8165 -0.9150
  728MOL0     C95996   2.928   7.105   6.911 -0.9282  0.5761 -0.9285
  728MOL0     C95997   2.860   7.025   6.822 -1.2943 -0.5064 -0.3144
  728MOL0     C95998   2.934   6.917   6.758 -0.4169  0.5596 -0.0111
  728MOL0     O95999   2.870   6.838   6.654 -0.6913 -0.8059  0.2445
  728MOL0     C96000   2.887   6.694   6.673  0.4189  0.1996  0.3366
  728MOL0     C96001   2.944   6.622   6.548 -0.0048  0.6922  0.0622
  728MOL0     C96002   2.911   6.472   6.546 -0.6923 -0.1348  0.7673
  728MOL0     C96003   2.909   6.417   6.399 -0.5254 -0.1314 -0.0414
  728MOL0     C96004   3.052   6.426   6.329 -0.3077  0.4103  0.3613
  728MOL0     C96005   3.050   6.408   6.168  0.8852  1.1059 -0.2349
  728MOL0     C96006   2.958   6.279   6.133 -0.6695 -0.7368 -0.0463
  728MOL0     C96007   2.975   6.249   5.987  0.3571  0.3672  0.4641
  728MOL0    Cl96008   3.148   6.220   5.943 -0.0770  0.1429  0.4755
  728MOL0     C96009   3.066   6.884   6.797  0.3357 -0.2613 -0.7332
  728MOL0     C96010   3.126   6.968   6.889 -0.1570  0.3495 -0.0701
  728MOL0     O96011   3.233   7.271   6.851 -0.2307  0.3683 -0.0810
  728MOL0     C96012   3.423   7.385   7.036  0.2938 -0.3433 -0.1104
  728MOL0     C96013   3.504   7.445   7.130 -0.3624 -0.9616  0.0564
  728MOL0     N96014   3.916   7.295   7.891  0.0908 -0.1599 -0.0911
  728MOL0     N96015   3.959   7.276   8.012 -0.6390  0.1435 -0.2893
  728MOL0     C96016   4.858   7.515   8.977  0.3095  0.6566  0.6239
  728MOL0     C96017   4.994   7.506   9.015 -0.3761 -0.2778  0.6216
  728MOL0     C96018   5.439   7.425   8.954  0.0127  0.4612  0.0287
  728MOL0     C96019   5.537   7.454   8.856 -0.5549 -0.1929  0.0175
  728MOL0     C96020   5.671   7.459   8.884  0.2135 -0.0057 -0.5808
  728MOL0     C96021   5.718   7.440   9.013 -0.5285 -0.1616 -0.1811
  728MOL0     O96022   5.836   7.500   9.043  0.3400 -0.0377 -0.9132
  728MOL0     C96023   5.902   7.474   9.168  0.4970 -0.1050  1.0231
  728MOL0     C96024   6.042   7.529   9.149  0.5423 -0.1985 -0.6447
  728MOL0     C96025   6.133   7.483   9.262  0.6005 -0.4685  0.1650
  728MOL0     C96026   6.212   7.596   9.326  0.1770 -0.8146 -0.3433
  728MOL0     C96027   6.303   7.553   9.431 -0.3654  0.4600  0.0398
  728MOL0     C96028   6.380   7.505   9.521  0.7189  0.2452 -0.3033
  728MOL0     C96029   5.621   7.413   9.115  0.2317 -0.7305  0.4758
  728MOL0     C96030   5.491   7.398   9.085 -1.1230 -0.3366  0.0320
  728MOL0     H96031   5.080   7.214   8.874  2.2009  2.2373  0.2032
  728MOL0     H96032   4.808   7.222   8.827 -1.4677  3.6124 -3.0718
  728MOL0     H96033   4.606   7.586   8.912 -0.8957  0.2287  2.2248
  728MOL0     H96034   4.536   7.461   9.008  0.5763 -2.9705 -0.2591
  728MOL0     H96035   4.402   7.586   8.836  1.5254  1.1709 -0.8612
  728MOL0     H96036   4.384   7.405   8.867  2.2926 -1.2907  1.0054
  728MOL0     H96037   4.508   7.364   8.642  0.7735  1.2373 -0.7986
  728MOL0     H96038   4.528   7.530   8.625  1.4914 -1.2634  0.2633
  728MOL0     H96039   4.248   7.431   8.643 -0.1419  0.6325  1.3216
  728MOL0     H96040   4.296   7.601   8.598  1.4745 -0.6600  1.2908
  728MOL0     H96041   4.374   7.356   8.441 -0.0471 -1.5390 -1.5936
  728MOL0     H96042   4.373   7.531   8.395  2.4142 -1.1562 -0.1073
  728MOL0     H96043   4.132   7.546   8.422  1.7572  0.0344  2.2765
  728MOL0     H96044   4.123   7.373   8.457 -0.2794 -0.3773  0.3537
  728MOL0     H96045   4.200   7.518   8.191 -0.7801 -0.3903 -1.0256
  728MOL0     H96046   4.212   7.340   8.228  0.6310  0.4776  1.3910
  728MOL0     H96047   3.966   7.519   8.226 -1.1684 -0.4993 -2.0478
  728MOL0     H96048   3.964   7.341   8.262  0.4171  0.4519  0.1049
  728MOL0     H96049   4.002   7.599   7.970 -2.0359 -0.3287 -1.6951
  728MOL0     H96050   4.002   7.459   7.676  1.5190  1.5059  0.2407
  728MOL0     H96051   3.898   7.600   7.734  0.8710  0.0129 -0.3634
  728MOL0     H96052   3.697   7.444   7.723  0.1369 -2.5513  1.2535
  728MOL0     H96053   3.791   7.324   7.656 -4.6075 -0.0458  0.4579
  728MOL0     H96054   3.722   7.588   7.514  0.6039  0.8326 -0.4251
  728MOL0     H96055   3.838   7.467   7.441  0.8438  0.5073  0.7052
  728MOL0     H96056   3.567   7.418   7.548  0.6039  0.6550  0.7719
  728MOL0     H96057   3.654   7.309   7.435 -5.0829 -0.5556 -2.9145
  728MOL0     H96058   3.405   7.292   7.406 -2.0474  0.1895 -0.0336
  728MOL0     H96059   3.256   7.188   7.249 -0.2880  0.5406 -0.1570
  728MOL0     H96060   2.874   7.183   6.965 -2.0113 -0.4106 -0.5421
  728MOL0     H96061   2.755   7.039   6.798 -0.9831  0.8586 -0.9388
  728MOL0     H96062   2.793   6.646   6.702  0.5782 -0.4742 -0.2118
  728MOL0     H96063   2.948   6.675   6.761  0.1523 -3.0304 -0.0235
  728MOL0     H96064   3.050   6.646   6.543  0.0024  2.4834  4.4395
  728MOL0     H96065   2.892   6.666   6.462  1.9104 -0.2259 -1.6595
  728MOL0     H96066   2.813   6.452   6.590 -1.9841  2.1622 -0.8983
  728MOL0     H96067   2.988   6.417   6.602  1.4548 -0.7724 -2.5239
  728MOL0     H96068   2.873   6.313   6.392  0.6338 -0.4221 -2.4958
  728MOL0     H96069   2.841   6.477   6.338  0.7786  0.5536 -0.8494
  728MOL0     H96070   3.115   6.346   6.369  1.4880  0.7058 -1.6908
  728MOL0     H96071   3.103   6.520   6.349  1.1540 -0.5452  1.2391
  728MOL0     H96072   3.150   6.391   6.128  0.7875  2.9902 -1.4224
  728MOL0     H96073   3.004   6.502   6.134 -1.1937  0.4558  0.6154
  728MOL0     H96074   2.975   6.189   6.193  0.3702 -0.8522 -0.4959
  728MOL0     H96075   2.851   6.299   6.146 -1.5058 -4.3156 -0.2217
  728MOL0     H96076   2.929   6.340   5.948 -2.3735 -0.1902  2.0778
  728MOL0     H96077   2.921   6.157   5.958  2.4869  0.1259 -3.3644
  728MOL0     H96078   3.132   6.811   6.751  1.5398 -0.0581  0.5876
  728MOL0     H96079   3.230   6.963   6.920  0.2943  2.4991 -0.9990
  728MOL0     H96080   3.435   7.419   6.933  0.7927  1.1876  0.4240
  728MOL0     H96081   3.577   7.523   7.109  2.0857 -3.1684 -0.0402
  728MOL0     H96082   4.793   7.601   8.987 -3.1105 -1.7022  0.2578
  728MOL0     H96083   5.027   7.592   9.072 -0.5745  1.0951 -1.2335
  728MOL0     H96084   5.509   7.478   8.754  2.6978  1.3873 -0.6062
  728MOL0     H96085   5.737   7.484   8.801  1.9750 -3.0604 -0.2437
  728MOL0     H96086   5.904   7.365   9.171 -3.6262 -0.3399  1.3278
  728MOL0     H96087   5.849   7.510   9.257 -2.2558  1.6063 -1.0967
  728MOL0     H96088   6.088   7.505   9.053  0.7978 -0.8614 -0.3650
  728MOL0     H96089   6.023   7.636   9.152  0.2148 -0.2686  0.3590
  728MOL0     H96090   6.191   7.400   9.222 -0.5457 -0.6670 -1.1901
  728MOL0     H96091   6.069   7.443   9.340 -1.9793  1.8633 -0.5749
  728MOL0     H96092   6.274   7.645   9.251  1.2760  1.3638  1.8363
  728MOL0     H96093   6.134   7.653   9.378  0.2873 -1.3444  0.4360
  728MOL0     H96094   6.454   7.452   9.577  4.0440 -0.1932 -4.6700
  728MOL0     H96095   5.660   7.408   9.216  3.4936 -0.6880 -0.6596
  728MOL0     H96096   5.432   7.372   9.172  2.6719 -1.9574  2.4008
  729MOL0     O96097   1.575   4.201   7.022 -0.0493  0.6958 -0.4260
  729MOL0     C96098   1.660   4.127   7.079  0.2123 -0.4994  0.3587
  729MOL0     O96099   1.632   4.003   7.141  1.3107 -0.6082 -0.0224
  729MOL0     C96100   1.509   3.933   7.118 -0.1711  0.6671  0.5709
  729MOL0     C96101   1.428   3.938   7.003 -0.1928 -0.2176 -0.4187
  729MOL0     C96102   1.310   3.867   6.980  0.0055  0.0981 -0.3020
  729MOL0     C96103   1.265   3.786   7.082 -0.9330 -0.0690 -0.0462
  729MOL0     O96104   1.143   3.726   7.089  0.2365 -0.3010  0.0088
  729MOL0     C96105   1.047   3.734   6.979 -0.3903 -0.3777  0.0337
  729MOL0     C96106   0.948   3.632   7.025  0.6523  0.3351 -0.2029
  729MOL0     C96107   0.880   3.652   7.163 -0.5694  0.2441 -0.1742
  729MOL0     C96108   0.771   3.549   7.193  0.4401  1.1051 -0.2255
  729MOL0     C96109   0.725   3.569   7.343 -0.3752 -0.8387  0.0870
  729MOL0     C96110   0.636   3.456   7.399  0.3815 -0.3114 -0.9424
  729MOL0     C96111   0.603   3.493   7.541  0.5059  0.2266  0.4586
  729MOL0     C96112   0.513   3.401   7.625 -0.0086 -1.0207  0.1852
  729MOL0     N96113   0.385   3.367   7.558 -0.6717  0.2089  0.9073
  729MOL0     C96114   0.370   3.252   7.472 -0.7133 -0.3450 -0.2650
  729MOL0     C96115   0.244   3.248   7.448 -0.0651  0.1184 -0.1185
  729MOL0     C96116   0.179   3.154   7.347  0.1724 -0.4614  0.0273
  729MOL0     C96117   0.029   3.115   7.398  1.0736  0.6727  0.3882
  729MOL0     C96118  -0.074   3.225   7.364  0.7886  1.2598 -0.1023
  729MOL0     C96119  -0.148   3.178   7.233  0.3889  0.3846  0.8224
  729MOL0     O96120  -0.243   3.066   7.273  0.1658 -0.2134 -0.1282
  729MOL0     C96121  -0.365   3.059   7.207 -0.0427 -0.0739  0.1724
  729MOL0     C96122  -0.402   3.129   7.088  0.9972 -0.7257 -0.0157
  729MOL0     C96123  -0.522   3.098   7.019 -0.6342  0.0843  0.5551
  729MOL0     C96124  -0.610   3.002   7.066  0.1932 -0.3281  0.1460
  729MOL0     C96125  -0.732   2.988   7.000  0.6897  0.9353  0.2004
  729MOL0     O96126  -0.740   3.051   6.880  0.2354  0.8128  0.6451
  729MOL0     C96127  -0.857   3.039   6.812 -0.5973  0.2830 -0.6618
  729MOL0     C96128  -0.916   3.161   6.779 -0.6186  0.1839  0.3940
  729MOL0     C96129  -1.044   3.166   6.717 -0.2661 -0.0416  0.4167
  729MOL0     C96130  -1.122   3.050   6.708  0.0260 -0.4851  0.3559
  729MOL0     O96131  -1.252   3.085   6.657 -0.3132  0.1399  0.5782
  729MOL0     C96132  -1.347   2.980   6.659  0.0702  0.3917 -0.0520
  729MOL0     C96133  -1.481   3.029   6.609 -0.2108  0.5345  0.1402
  729MOL0     C96134  -1.570   2.908   6.583 -0.8882  0.0405 -0.9196
  729MOL0     C96135  -1.696   2.942   6.513 -0.5108  0.8837  0.6125
  729MOL0     C96136  -1.827   2.949   6.600  0.0193  0.1961  0.1531
  729MOL0     C96137  -1.955   2.940   6.520 -0.1252 -0.5016  0.2439
  729MOL0     C96138  -2.068   2.933   6.624  0.8987  0.0364 -0.0179
  729MOL0     C96139  -2.094   2.787   6.684  1.5097 -0.2209  0.1227
  729MOL0    Cl96140  -2.136   2.671   6.547 -0.3078 -0.6672 -0.5291
  729MOL0     C96141  -1.064   2.925   6.742  0.1802 -0.1946 -0.7262
  729MOL0     C96142  -0.937   2.919   6.806 -0.3189  0.2449 -0.2385
  729MOL0     O96143  -0.819   2.911   7.045 -1.2925 -0.5183  0.6724
  729MOL0     C96144  -0.572   2.936   7.184 -0.2474  0.4379  0.5210
  729MOL0     C96145  -0.451   2.959   7.248  0.3121 -0.1176  0.6179
  729MOL0     N96146   0.177   3.340   7.519  0.1639  0.0642 -0.3584
  729MOL0     N96147   0.262   3.415   7.587 -0.3232  0.1187  0.5423
  729MOL0     C96148   1.334   3.787   7.203 -1.0402 -0.0258 -0.3088
  729MOL0     C96149   1.451   3.855   7.222 -0.7636 -0.0504  0.0523
  729MOL0     C96150   1.801   4.167   7.076  0.7126 -0.2060 -0.1954
  729MOL0     C96151   1.843   4.297   7.024 -0.9658  0.3123 -0.1011
  729MOL0     C96152   1.984   4.330   7.027 -0.6005  0.8255  0.0017
  729MOL0     C96153   2.080   4.239   7.066  0.0156  0.1485  0.1286
  729MOL0     O96154   2.211   4.282   7.046 -0.7727  0.1261  0.0856
  729MOL0     C96155   2.318   4.201   7.078 -0.0644  0.4710 -1.0030
  729MOL0     C96156   2.450   4.246   7.012 -0.4270 -0.7557  0.4007
  729MOL0     C96157   2.488   4.397   7.044  0.0496  0.1256 -0.1312
  729MOL0     C96158   2.629   4.441   7.002 -0.4884 -0.1515 -0.6780
  729MOL0     C96159   2.644   4.455   6.857 -1.1884  0.0208 -0.3475
  729MOL0     C96160   2.663   4.479   6.741  0.0016  0.4624  0.6740
  729MOL0     C96161   2.039   4.112   7.099  1.2334 -0.4888 -0.1272
  729MOL0     C96162   1.902   4.073   7.106 -0.6353 -0.6570 -0.3979
  729MOL0     H96163   1.449   4.006   6.921  0.4207 -0.0129 -0.0972
  729MOL0     H96164   1.254   3.891   6.891  2.8835  2.2435 -1.6746
  729MOL0     H96165   1.083   3.710   6.879  1.6165  0.6882  0.4535
  729MOL0     H96166   0.992   3.828   6.976 -3.3280 -1.9272  0.8657
  729MOL0     H96167   1.005   3.539   7.014  1.5245  1.0512 -2.4393
  729MOL0     H96168   0.864   3.625   6.955 -0.6800 -0.7762  1.4297
  729MOL0     H96169   0.836   3.752   7.157 -0.3831  0.4337  1.1602
  729MOL0     H96170   0.951   3.655   7.247 -1.6238 -1.9430  0.8852
  729MOL0     H96171   0.688   3.567   7.124  2.3791  5.1031 -1.8303
  729MOL0     H96172   0.807   3.445   7.184 -0.6294  0.6117  0.9772
  729MOL0     H96173   0.673   3.665   7.345  0.1460 -0.5449  2.8201
  729MOL0     H96174   0.818   3.583   7.399 -0.0763  1.5109 -0.9014
  729MOL0     H96175   0.703   3.370   7.409  2.6007  1.5018  1.1034
  729MOL0     H96176   0.544   3.447   7.340  0.4269  1.2052 -1.3043
  729MOL0     H96177   0.696   3.520   7.590 -0.4938  2.9563  1.0400
  729MOL0     H96178   0.544   3.586   7.535  0.6489  0.2604 -0.7159
  729MOL0     H96179   0.491   3.457   7.716  0.6075  1.5804 -1.1701
  729MOL0     H96180   0.570   3.314   7.660 -0.4305 -1.1391  0.5928
  729MOL0     H96181   0.450   3.192   7.430 -1.5255 -1.0236 -0.8726
  729MOL0     H96182   0.239   3.063   7.334  0.8114  0.1534 -1.5242
  729MOL0     H96183   0.178   3.206   7.251  1.5693  1.3575  0.9475
  729MOL0     H96184   0.033   3.091   7.504 -0.6196 -0.7537  0.1621
  729MOL0     H96185   0.005   3.022   7.346  0.8572  1.6099 -1.2644
  729MOL0     H96186  -0.148   3.243   7.443  1.6640  0.4900  0.9205
  729MOL0     H96187  -0.030   3.325   7.354 -0.3222  1.6013 -1.8660
  729MOL0     H96188  -0.078   3.135   7.161 -3.5508 -0.7377 -2.7492
  729MOL0     H96189  -0.195   3.261   7.180  1.3112 -0.0540 -0.7291
  729MOL0     H96190  -0.330   3.204   7.060  2.8223 -1.1808  3.0399
  729MOL0     H96191  -0.534   3.152   6.925  0.6888  0.8790  0.8230
  729MOL0     H96192  -0.850   3.246   6.793  0.5554 -0.2213 -2.1394
  729MOL0     H96193  -1.080   3.261   6.677  2.3466 -0.3967 -3.3355
  729MOL0     H96194  -1.357   2.952   6.765  1.0269 -1.7879 -0.4811
  729MOL0     H96195  -1.314   2.893   6.602  3.1107  0.0263  1.9668
  729MOL0     H96196  -1.466   3.075   6.511  1.2385 -0.3983 -0.1067
  729MOL0     H96197  -1.528   3.100   6.677 -2.0254 -1.3658  1.0128
  729MOL0     H96198  -1.585   2.871   6.685 -0.6002 -0.8385 -1.1852
  729MOL0     H96199  -1.514   2.832   6.528  2.0388  1.1552  0.3146
  729MOL0     H96200  -1.686   3.030   6.450  3.4632  0.0579 -0.2006
  729MOL0     H96201  -1.719   2.848   6.461 -2.8035  0.9529  1.3739
  729MOL0     H96202  -1.835   3.040   6.661 -2.3681 -1.4227  2.4338
  729MOL0     H96203  -1.818   2.865   6.670 -1.1946  0.3429  0.4921
  729MOL0     H96204  -1.963   2.846   6.465 -1.3299 -0.3746  0.1769
  729MOL0     H96205  -1.973   3.031   6.462  1.6287 -0.6192 -0.5656
  729MOL0     H96206  -2.057   3.016   6.694  2.3455 -2.7810  3.3889
  729MOL0     H96207  -2.156   2.963   6.566  2.3567  0.6203 -2.0383
  729MOL0     H96208  -2.182   2.800   6.748  2.0313 -2.7906  1.5123
  729MOL0     H96209  -2.020   2.743   6.752  3.6743  2.1136 -0.6090
  729MOL0     H96210  -1.122   2.833   6.736  1.6288 -1.1673 -0.4388
  729MOL0     H96211  -0.895   2.821   6.825  0.8178  1.0437  1.7014
  729MOL0     H96212  -0.625   2.847   7.215  1.3401 -1.1507 -1.1064
  729MOL0     H96213  -0.429   2.915   7.345 -1.7977  1.2792  1.8282
  729MOL0     H96214   1.304   3.724   7.286 -3.4179  0.3689 -0.7976
  729MOL0     H96215   1.514   3.852   7.310 -2.8850  0.3680  1.6659
  729MOL0     H96216   1.763   4.362   6.992 -1.5317 -0.7846 -0.9927
  729MOL0     H96217   2.026   4.423   6.992 -1.2752  0.8646 -0.7405
  729MOL0     H96218   2.298   4.101   7.040  2.9774 -0.9610  0.7354
  729MOL0     H96219   2.325   4.180   7.185  1.9174  0.2941 -1.1212
  729MOL0     H96220   2.531   4.180   7.047 -1.5994 -0.7131  3.5580
  729MOL0     H96221   2.449   4.234   6.903 -0.9655  1.4795  0.1260
  729MOL0     H96222   2.473   4.411   7.151  3.3692 -0.8007  0.5757
  729MOL0     H96223   2.418   4.463   6.992 -1.2967 -0.9223  0.3024
  729MOL0     H96224   2.663   4.534   7.048  1.8543 -1.8410  1.2358
  729MOL0     H96225   2.693   4.361   7.040 -1.5788  0.0900  1.8231
  729MOL0     H96226   2.688   4.500   6.639  0.7825  0.3565  0.8426
  729MOL0     H96227   2.120   4.040   7.112  0.9664 -0.8220 -0.2913
  729MOL0     H96228   1.883   3.975   7.148 -1.5871  0.0131  0.7920
  730MOL0     O96229   5.293   7.761   7.165 -0.8503 -0.1257 -1.0581
  730MOL0     C96230   5.274   7.771   7.049 -0.1574  0.1190 -0.2415
  730MOL0     O96231   5.159   7.805   6.994  0.3502 -0.1588  0.0843
  730MOL0     C96232   5.043   7.805   7.069 -0.9488 -0.5466 -0.4679
  730MOL0     C96233   4.953   7.903   7.021 -0.1689  0.2870 -1.2322
  730MOL0     C96234   4.826   7.906   7.082  0.1537 -1.0405 -0.0016
  730MOL0     C96235   4.789   7.818   7.189  0.5600  0.3722 -0.1316
  730MOL0     O96236   4.666   7.803   7.242  0.6247 -0.0925 -0.5566
  730MOL0     C96237   4.554   7.823   7.150 -0.3392  0.0314 -0.0632
  730MOL0     C96238   4.482   7.952   7.168  0.2151 -0.5993  0.1829
  730MOL0     C96239   4.430   7.966   7.313  1.2547  0.1818  0.6768
  730MOL0     C96240   4.328   8.076   7.327 -0.3938 -0.6458 -0.1509
  730MOL0     C96241   4.290   8.118   7.473 -0.4701  0.6540 -0.5112
  730MOL0     C96242   4.188   8.022   7.540 -0.1489 -0.8225 -1.0335
  730MOL0     C96243   4.159   8.080   7.682  0.4896  0.3140  1.2342
  730MOL0     C96244   4.056   7.984   7.759 -0.4145  0.0586 -0.1473
  730MOL0     N96245   3.928   7.980   7.676  0.5818  0.2003  0.2211
  730MOL0     C96246   3.851   8.090   7.649  0.2789 -0.0912  0.9711
  730MOL0     C96247   3.756   8.048   7.557 -0.3922  0.3522 -0.7237
  730MOL0     C96248   3.635   8.119   7.500 -0.1023  0.6627 -0.0334
  730MOL0     C96249   3.509   8.032   7.496 -0.9406 -0.4349 -0.6227
  730MOL0     C96250   3.382   8.105   7.450  1.0512  0.0780  0.1277
  730MOL0     C96251   3.270   8.000   7.441  0.3118 -0.0902 -0.4879
  730MOL0     O96252   3.245   7.932   7.564 -0.6108  1.2437 -0.4611
  730MOL0     C96253   3.185   7.995   7.662 -0.6151 -0.7449  0.0156
  730MOL0     C96254   3.238   7.974   7.793  0.2243  0.2512  0.8083
  730MOL0     C96255   3.200   8.051   7.903  0.3519  0.0445 -0.4991
  730MOL0     C96256   3.101   8.157   7.888 -0.8424  0.4315 -0.0383
  730MOL0     C96257   3.063   8.247   8.001  0.1367 -0.8257  0.2151
  730MOL0     O96258   3.095   8.191   8.116 -0.2267  0.1185 -0.7067
  730MOL0     C96259   3.052   8.245   8.231  0.3712  0.4861 -0.6008
  730MOL0     C96260   3.140   8.241   8.339  0.0100  0.3229 -0.0067
  730MOL0     C96261   3.100   8.291   8.466 -0.3333 -0.1824  0.2430
  730MOL0     C96262   2.978   8.356   8.488  0.6200 -0.0733 -0.0009
  730MOL0     O96263   2.964   8.424   8.614  0.1082  0.4234 -0.3987
  730MOL0     C96264   2.943   8.565   8.598  0.0919 -0.7643  0.1678
  730MOL0     C96265   2.827   8.627   8.682 -0.4037 -0.3756 -0.5262
  730MOL0     C96266   2.808   8.770   8.663  0.5796 -0.8220 -0.1649
  730MOL0     C96267   2.726   8.830   8.774  0.1175 -0.8512 -0.1479
  730MOL0     C96268   2.762   8.979   8.789  0.1207  0.4341  0.5995
  730MOL0     C96269   2.676   9.036   8.911  0.9416 -0.2301 -0.9954
  730MOL0     C96270   2.704   9.184   8.942 -0.1571 -0.1458  0.0714
  730MOL0     C96271   2.582   9.284   8.940 -0.9013  0.6300  0.3143
  730MOL0    Cl96272   2.481   9.261   8.800  0.1630 -0.1783  0.0049
  730MOL0     C96273   2.877   8.352   8.391  0.6625  0.2031  0.5366
  730MOL0     C96274   2.922   8.302   8.261 -0.0646 -0.4752  0.1565
  730MOL0     O96275   2.991   8.350   7.984 -0.0433  0.3176  0.2394
  730MOL0     C96276   3.064   8.184   7.756  0.0290 -0.3708  0.0216
  730MOL0     C96277   3.097   8.101   7.646  0.3964 -1.0394  0.5042
  730MOL0     N96278   3.773   7.905   7.538  0.6074  0.0526  0.1842
  730MOL0     N96279   3.879   7.869   7.605  0.3534  0.9247 -0.0742
  730MOL0     C96280   4.886   7.725   7.233  0.1095  0.1699 -0.6400
  730MOL0     C96281   5.010   7.717   7.171  0.1115  0.2078  0.2406
  730MOL0     C96282   5.385   7.747   6.954  0.3558  0.5441 -0.3284
  730MOL0     C96283   5.366   7.743   6.817  1.0401 -0.0648 -0.1789
  730MOL0     C96284   5.464   7.699   6.724  0.4333 -0.9936 -0.4362
  730MOL0     C96285   5.588   7.651   6.771  0.3423 -0.9711 -0.5478
  730MOL0     O96286   5.679   7.617   6.681 -0.2322  0.4745 -0.1283
  730MOL0     C96287   5.817   7.599   6.721 -0.2934  0.3341  0.1179
  730MOL0     C96288   5.899   7.571   6.589 -0.1978 -0.8640 -0.3797
  730MOL0     C96289   5.834   7.485   6.486 -0.1051  0.0963  0.1136
  730MOL0     C96290   5.936   7.437   6.383 -0.2305  1.0690  0.7905
  730MOL0     C96291   5.915   7.505   6.254  0.2824 -0.4848 -0.1462
  730MOL0     C96292   5.889   7.543   6.145 -1.3410 -0.6605  0.6648
  730MOL0     C96293   5.615   7.669   6.906  0.7570  0.7803  0.1135
  730MOL0     C96294   5.519   7.732   6.994 -0.3418 -0.0578 -1.0457
  730MOL0     H96295   4.980   7.973   6.943  0.7916  0.4068 -0.7982
  730MOL0     H96296   4.756   7.985   7.058 -0.0671 -0.9890  0.7878
  730MOL0     H96297   4.490   7.735   7.158 -1.1624  0.7894  2.5790
  730MOL0     H96298   4.596   7.813   7.049 -1.5648 -2.2602 -0.4035
  730MOL0     H96299   4.398   7.954   7.098 -0.2090  0.5146  0.6993
  730MOL0     H96300   4.548   8.039   7.158  1.5952 -1.5189  0.9662
  730MOL0     H96301   4.509   7.962   7.389  1.6418 -0.9595  0.2405
  730MOL0     H96302   4.370   7.878   7.340  0.6686  1.3424  3.5595
  730MOL0     H96303   4.372   8.167   7.286  0.0203  0.3159  2.2533
  730MOL0     H96304   4.235   8.058   7.272 -1.4473  1.5387  0.7770
  730MOL0     H96305   4.238   8.214   7.469 -2.8387 -0.5702 -1.1840
  730MOL0     H96306   4.383   8.125   7.530 -1.1017  3.7204  0.2778
  730MOL0     H96307   4.216   7.916   7.543 -3.7321 -1.9090 -1.6334
  730MOL0     H96308   4.096   8.034   7.482  0.1703 -2.3911 -1.9077
  730MOL0     H96309   4.253   8.087   7.738  0.1307 -1.2468  2.1004
  730MOL0     H96310   4.125   8.183   7.677  1.5589  0.6182 -1.6156
  730MOL0     H96311   4.026   8.037   7.850  0.1089  0.0610  0.0273
  730MOL0     H96312   4.085   7.880   7.775 -0.2100  0.2744  0.9053
  730MOL0     H96313   3.874   8.191   7.682 -0.0620  0.5973 -0.7923
  730MOL0     H96314   3.659   8.151   7.398  0.5065 -0.5757 -0.3057
  730MOL0     H96315   3.614   8.200   7.570  0.2101 -1.7623  3.0937
  730MOL0     H96316   3.495   8.018   7.603 -0.5820  3.1913  0.0058
  730MOL0     H96317   3.530   7.935   7.450 -0.5821 -3.1692  4.5949
  730MOL0     H96318   3.351   8.198   7.499  1.5073  0.2661  0.0565
  730MOL0     H96319   3.401   8.149   7.352  1.1280 -0.5633 -0.1475
  730MOL0     H96320   3.284   7.923   7.364 -0.2463  1.0327 -1.7496
  730MOL0     H96321   3.185   8.056   7.401  0.2088 -0.0385 -0.2016
  730MOL0     H96322   3.307   7.891   7.800 -0.2786 -0.1041  1.9257
  730MOL0     H96323   3.258   8.032   7.993  0.3724 -0.9349 -0.7060
  730MOL0     H96324   3.242   8.205   8.328  0.1695 -0.6448  3.4254
  730MOL0     H96325   3.176   8.295   8.544  1.1760 -0.3302 -1.1453
  730MOL0     H96326   2.913   8.595   8.497  1.7110  5.4460  1.1053
  730MOL0     H96327   3.036   8.620   8.612 -0.4671  0.8793 -2.0192
  730MOL0     H96328   2.863   8.601   8.782  2.7814 -1.0790 -1.7444
  730MOL0     H96329   2.735   8.572   8.661 -1.1732  0.0296  1.5147
  730MOL0     H96330   2.759   8.810   8.574  0.3962  0.7061  0.5898
  730MOL0     H96331   2.908   8.816   8.661  0.6092 -0.7962  0.9626
  730MOL0     H96332   2.619   8.814   8.766 -0.1756  0.6890  0.2738
  730MOL0     H96333   2.756   8.782   8.868  0.8694 -1.5099 -0.7107
  730MOL0     H96334   2.742   9.033   8.696 -1.0333 -0.4690  0.2997
  730MOL0     H96335   2.870   8.988   8.804  0.4432  2.2275 -2.1511
  730MOL0     H96336   2.704   8.973   8.996  0.4139  1.5719  0.5680
  730MOL0     H96337   2.573   9.010   8.883  2.0892 -2.5351 -3.5796
  730MOL0     H96338   2.750   9.193   9.041  2.2159 -0.9606 -0.8839
  730MOL0     H96339   2.790   9.224   8.889  0.8378 -0.0675  1.6655
  730MOL0     H96340   2.609   9.389   8.929  0.0390  0.3252 -0.4313
  730MOL0     H96341   2.536   9.264   9.037 -0.6668 -0.0649  0.2858
  730MOL0     H96342   2.777   8.389   8.409  0.4420 -0.5164  0.8271
  730MOL0     H96343   2.842   8.288   8.189  1.9720 -0.7154 -2.1491
  730MOL0     H96344   2.994   8.265   7.736  1.2394  0.2576 -1.9374
  730MOL0     H96345   3.058   8.130   7.550  0.2041  0.5726  1.0405
  730MOL0     H96346   4.853   7.667   7.319 -0.9383  1.6097 -0.0279
  730MOL0     H96347   5.086   7.654   7.216  1.3018 -0.4527 -2.4948
  730MOL0     H96348   5.264   7.755   6.783 -0.1740 -3.9784  1.5025
  730MOL0     H96349   5.421   7.693   6.625 -0.1833 -0.5556 -0.2012
  730MOL0     H96350   5.823   7.505   6.778  0.2741 -1.0542 -2.0994
  730MOL0     H96351   5.862   7.690   6.761  2.5750 -1.4499  1.2813
  730MOL0     H96352   5.913   7.663   6.531 -4.2960 -1.0028 -1.9257
  730MOL0     H96353   5.994   7.523   6.617 -1.0922 -2.5780 -0.1746
  730MOL0     H96354   5.761   7.542   6.429 -1.5054 -1.3894  0.3549
  730MOL0     H96355   5.781   7.397   6.522  2.9049 -2.2716 -0.8296
  730MOL0     H96356   6.036   7.453   6.425 -1.1385  0.3390  3.4834
  730MOL0     H96357   5.919   7.329   6.379 -0.4499  1.0594  1.7606
  730MOL0     H96358   5.884   7.570   6.042 -0.3467  3.4490  1.5052
  730MOL0     H96359   5.713   7.655   6.951  2.1638  2.6497 -2.1436
  730MOL0     H96360   5.544   7.745   7.099  1.2186 -1.8071 -1.1513
  731MOL0     O96361   3.448   8.373   2.846  0.2172 -1.0132 -0.0813
  731MOL0     C96362   3.538   8.387   2.930 -0.2528  0.3736  0.0778
  731MOL0     O96363   3.525   8.457   3.049 -0.5255 -0.1028  0.5028
  731MOL0     C96364   3.392   8.489   3.087 -0.2650 -0.8698  0.5471
  731MOL0     C96365   3.318   8.602   3.042 -0.1826 -0.4048  0.0023
  731MOL0     C96366   3.184   8.623   3.082  0.5279  0.6652  0.1857
  731MOL0     C96367   3.121   8.530   3.175  0.4641 -0.0253  0.7123
  731MOL0     O96368   3.001   8.560   3.224  0.9063 -0.1178  0.3617
  731MOL0     C96369   2.923   8.672   3.181 -0.6222 -0.4281  0.1785
  731MOL0     C96370   2.788   8.661   3.245 -0.0565  0.5207 -1.0997
  731MOL0     C96371   2.699   8.771   3.177  0.5365 -0.3337 -0.0899
  731MOL0     C96372   2.553   8.746   3.210 -0.3263  0.4200 -0.0897
  731MOL0     C96373   2.450   8.844   3.155  0.0436  0.1399 -0.0300
  731MOL0     C96374   2.454   8.975   3.236 -0.4493  0.5387  0.1547
  731MOL0     C96375   2.361   9.088   3.183  0.2048 -0.4024  0.2867
  731MOL0     C96376   2.373   9.123   3.031 -0.6550  0.3228  0.1601
  731MOL0     N96377   2.332   9.263   3.000  0.3014  0.8927 -0.1620
  731MOL0     C96378   2.222   9.336   3.032  0.5305 -1.2191 -0.0664
  731MOL0     C96379   2.255   9.465   2.993 -0.1833  0.0159  0.2019
  731MOL0     C96380   2.189   9.599   3.016 -1.2157  0.1135 -0.6254
  731MOL0     C96381   2.181   9.651   3.158  0.4821  0.5690 -1.0928
  731MOL0     C96382   2.316   9.650   3.227 -0.2096  0.0564  0.4061
  731MOL0     C96383   2.431   9.729   3.160  0.1285  0.3236  0.2406
  731MOL0     O96384   2.400   9.863   3.135  0.0916  0.6074  0.3275
  731MOL0     C96385   2.515   9.932   3.114 -0.0061  0.0842 -0.4167
  731MOL0     C96386   2.603   9.969   3.212  0.2922  0.0857 -0.7014
  731MOL0     C96387   2.727  10.038   3.200 -0.2936 -0.2770  0.0201
  731MOL0     C96388   2.772  10.057   3.068  0.3906 -0.0781  0.5276
  731MOL0     C96389   2.906  10.110   3.048 -0.2032 -0.3373 -0.0175
  731MOL0     O96390   2.959  10.096   2.919 -0.3895 -0.5553 -0.5705
  731MOL0     C96391   3.086  10.142   2.896 -0.6002 -0.2307 -0.2983
  731MOL0     C96392   3.141  10.269   2.915  0.8172  0.2548  0.2594
  731MOL0     C96393   3.272  10.296   2.881 -0.0430 -0.4312 -0.6452
  731MOL0     C96394   3.366  10.203   2.832  0.7891 -0.3746  0.0478
  731MOL0     O96395   3.501  10.226   2.801  0.8176  0.4277  0.5826
  731MOL0     C96396   3.564  10.328   2.875  0.0466  0.6079 -0.0922
  731MOL0     C96397   3.700  10.271   2.904 -0.5387 -0.0401 -1.0110
  731MOL0     C96398   3.782  10.361   3.000  0.4692  1.1041 -0.8909
  731MOL0     C96399   3.875  10.273   3.088  0.4451 -0.1038 -0.0911
  731MOL0     C96400   3.954  10.341   3.191  0.1757 -0.6631  0.0434
  731MOL0     C96401   4.021  10.241   3.289 -1.1199 -1.1653 -0.1752
  731MOL0     C96402   4.147  10.185   3.235 -0.3919  0.7834  0.7104
  731MOL0     C96403   4.189  10.080   3.336  0.0721  0.4358 -0.0300
  731MOL0    Cl96404   4.354  10.025   3.292  0.3512 -0.0487 -0.2510
  731MOL0     C96405   3.310  10.079   2.810  0.0121  0.2054 -0.4640
  731MOL0     C96406   3.175  10.048   2.836  0.0512  0.9208  0.3160
  731MOL0     O96407   2.962  10.165   3.146 -0.4179  0.6158 -0.3487
  731MOL0     C96408   2.682  10.037   2.956  0.8143  0.5731  0.5045
  731MOL0     C96409   2.558   9.974   2.984 -0.4522 -0.5777 -0.8633
  731MOL0     N96410   2.378   9.458   2.938  0.2313  0.3644  0.6118
  731MOL0     N96411   2.424   9.344   2.953 -0.8040  0.4020 -0.3931
  731MOL0     C96412   3.199   8.431   3.232 -0.7062 -0.6106 -0.3082
  731MOL0     C96413   3.333   8.409   3.194 -0.2938 -0.6696  0.2590
  731MOL0     C96414   3.673   8.329   2.888  0.7895 -1.2402 -0.2232
  731MOL0     C96415   3.779   8.368   2.969  0.0703  0.8412 -0.7805
  731MOL0     C96416   3.910   8.331   2.940 -0.0779 -0.4092 -0.0720
  731MOL0     C96417   3.946   8.261   2.832  0.2068  0.4719 -0.2194
  731MOL0     O96418   4.079   8.251   2.801 -0.0851 -0.6645  0.2857
  731MOL0     C96419   4.122   8.162   2.701 -0.8448  0.5918 -0.0063
  731MOL0     C96420   4.270   8.182   2.686 -0.9648 -0.4010  0.3872
  731MOL0     C96421   4.305   8.321   2.610 -0.4286  0.6192  0.1602
  731MOL0     C96422   4.441   8.323   2.541 -0.3136 -0.6464  0.3990
  731MOL0     C96423   4.445   8.202   2.451 -0.7562  0.1161  0.2005
  731MOL0     C96424   4.445   8.098   2.380  0.7450 -0.5297  0.4211
  731MOL0     C96425   3.836   8.218   2.746 -0.2679 -0.0246  0.6822
  731MOL0     C96426   3.705   8.253   2.777  0.8341  0.7469 -0.4712
  731MOL0     H96427   3.358   8.667   2.964  2.3387 -1.4217  0.3599
  731MOL0     H96428   3.144   8.715   3.041  1.8692  0.2939 -2.1101
  731MOL0     H96429   2.918   8.674   3.071  2.6881  0.7114 -0.0560
  731MOL0     H96430   2.964   8.768   3.213 -1.0607 -0.1109 -0.1972
  731MOL0     H96431   2.790   8.668   3.354  0.9845  2.8425 -1.2090
  731MOL0     H96432   2.749   8.562   3.219 -2.3723  1.2136 -0.4826
  731MOL0     H96433   2.723   8.757   3.071  2.3300 -1.9733  0.4620
  731MOL0     H96434   2.731   8.868   3.216  0.6131  0.1497 -1.3002
  731MOL0     H96435   2.529   8.653   3.158 -3.8647 -0.4040  2.6386
  731MOL0     H96436   2.544   8.740   3.319  0.8562  1.9302  0.1241
  731MOL0     H96437   2.349   8.809   3.176 -0.2674  0.2482 -1.2471
  731MOL0     H96438   2.472   8.853   3.048  3.2661 -1.9888  0.3118
  731MOL0     H96439   2.560   9.001   3.245  0.1095 -0.9728 -1.5106
  731MOL0     H96440   2.415   8.965   3.338 -2.8620  1.5954 -0.5832
  731MOL0     H96441   2.260   9.058   3.211  0.0106  1.2236  1.4514
  731MOL0     H96442   2.378   9.180   3.239  1.7169 -0.9597  0.7881
  731MOL0     H96443   2.308   9.058   2.972 -2.4371  0.9715  1.3242
  731MOL0     H96444   2.473   9.092   3.000 -1.2643 -1.5745 -0.0554
  731MOL0     H96445   2.139   9.298   3.091  2.4740 -4.0288  1.0577
  731MOL0     H96446   2.086   9.593   2.980 -0.5329  0.9489 -2.8938
  731MOL0     H96447   2.244   9.671   2.954 -0.3404 -0.4408 -0.5149
  731MOL0     H96448   2.109   9.598   3.221  1.3827  0.2306 -0.3240
  731MOL0     H96449   2.147   9.754   3.143  0.9865  0.7335 -1.1208
  731MOL0     H96450   2.319   9.691   3.328  3.7200  3.7700 -0.9067
  731MOL0     H96451   2.342   9.545   3.235 -1.5345 -0.5545 -2.1502
  731MOL0     H96452   2.459   9.675   3.069  1.3038  0.6352  0.4031
  731MOL0     H96453   2.515   9.727   3.230  1.1698 -1.1971 -0.9863
  731MOL0     H96454   2.570   9.930   3.308  0.5071 -1.1438 -1.1074
  731MOL0     H96455   2.782  10.058   3.292 -1.1945 -0.7924  0.6852
  731MOL0     H96456   3.082  10.342   2.969  1.2266 -0.1426  1.2646
  731MOL0     H96457   3.307  10.398   2.897 -0.9828  0.2212 -2.3965
  731MOL0     H96458   3.509  10.353   2.965  1.6793 -1.5865  1.6354
  731MOL0     H96459   3.577  10.422   2.821  2.3444 -0.4721 -1.6132
  731MOL0     H96460   3.767  10.260   2.818  3.0693 -1.7377  1.7389
  731MOL0     H96461   3.695  10.168   2.940 -2.1253 -0.3079 -1.8736
  731MOL0     H96462   3.715  10.423   3.061 -0.1649 -1.5692  1.3767
  731MOL0     H96463   3.832  10.432   2.934  1.7277  0.1080 -1.0430
  731MOL0     H96464   3.813  10.218   3.159 -1.0132  1.1996 -0.2948
  731MOL0     H96465   3.947  10.212   3.033 -1.5885 -1.6582 -1.1682
  731MOL0     H96466   3.878  10.403   3.239  1.1370  1.2734 -0.8244
  731MOL0     H96467   4.040  10.396   3.151  0.9658 -1.5786  0.4275
  731MOL0     H96468   3.949  10.167   3.326 -3.8470  2.4157  2.3914
  731MOL0     H96469   4.044  10.303   3.376 -2.2771 -4.0745  2.3902
  731MOL0     H96470   4.143  10.150   3.132 -1.7281  3.5567 -0.2755
  731MOL0     H96471   4.232  10.254   3.239 -0.5584  1.0913 -0.7115
  731MOL0     H96472   4.116   9.999   3.329 -1.0977  1.5442 -1.2377
  731MOL0     H96473   4.190  10.113   3.440  1.4362 -2.8994  1.1259
  731MOL0     H96474   3.384  10.021   2.756  0.5682  4.0356 -4.4717
  731MOL0     H96475   3.145   9.952   2.795  2.9515  0.4268 -0.9078
  731MOL0     H96476   2.703  10.054   2.850 -1.8418  1.0140 -0.0177
  731MOL0     H96477   2.476   9.962   2.914  0.5791 -0.9643 -2.0461
  731MOL0     H96478   3.149   8.368   3.305 -1.2506  1.1509  0.8971
  731MOL0     H96479   3.399   8.334   3.237  1.2450 -0.2095 -1.1561
  731MOL0     H96480   3.751   8.445   3.041 -4.1360  1.3558 -2.6512
  731MOL0     H96481   3.985   8.374   3.005 -1.6398  0.2672  1.3575
  731MOL0     H96482   4.063   8.175   2.610 -0.6074  4.0826  0.2298
  731MOL0     H96483   4.120   8.058   2.735  1.8310 -0.0560 -1.5430
  731MOL0     H96484   4.323   8.172   2.781 -1.1949  0.1477  0.5764
  731MOL0     H96485   4.300   8.095   2.626  0.3906  1.4610 -1.7886
  731MOL0     H96486   4.304   8.404   2.680 -0.0739  0.7812 -0.0283
  731MOL0     H96487   4.221   8.334   2.540  0.2664 -1.7185 -1.2325
  731MOL0     H96488   4.455   8.411   2.477  2.3353 -1.2787 -0.0497
  731MOL0     H96489   4.528   8.323   2.607  1.1158 -1.3227 -1.3921
  731MOL0     H96490   4.447   8.016   2.311  1.5993  1.2096 -1.7406
  731MOL0     H96491   3.870   8.174   2.653  1.7650 -0.1788  1.4449
  731MOL0     H96492   3.634   8.227   2.698 -0.7564 -0.0387  1.1532
  732MOL0     O96493   7.542   2.107   9.236 -0.6153  0.5018  0.6548
  732MOL0     C96494   7.446   2.036   9.267 -0.5722  0.1474  0.0044
  732MOL0     O96495   7.455   1.916   9.329  0.1162 -0.4590 -0.4387
  732MOL0     C96496   7.574   1.846   9.337 -0.0833  0.8309  0.4322
  732MOL0     C96497   7.672   1.846   9.245  0.4126  0.1634 -1.4574
  732MOL0     C96498   7.786   1.771   9.260 -0.1960  0.5072 -0.2827
  732MOL0     C96499   7.813   1.694   9.380 -1.5546 -0.2883  0.3790
  732MOL0     O96500   7.928   1.624   9.404 -0.6640  0.0498 -0.7236
  732MOL0     C96501   8.038   1.636   9.308 -0.0620  0.6017  0.6799
  732MOL0     C96502   8.151   1.533   9.355 -0.3777 -0.7956  0.3936
  732MOL0     C96503   8.195   1.579   9.493  0.8586  0.6377 -0.3458
  732MOL0     C96504   8.325   1.522   9.538  0.0037  0.1096  0.2296
  732MOL0     C96505   8.320   1.372   9.569  0.5451  0.1045  0.2321
  732MOL0     C96506   8.458   1.318   9.587 -1.1895  0.1594  0.2093
  732MOL0     C96507   8.463   1.165   9.622 -0.5331  1.2303 -0.1074
  732MOL0     C96508   8.583   1.143   9.713 -0.6127  0.5812 -0.4901
  732MOL0     N96509   8.702   1.137   9.638 -0.4581 -0.6528  0.0235
  732MOL0     C96510   8.749   1.034   9.552 -0.6228 -1.2272 -0.4456
  732MOL0     C96511   8.856   1.098   9.488 -0.6075 -0.6240  0.1974
  732MOL0     C96512   8.947   1.036   9.384 -0.5892  0.3319 -0.7745
  732MOL0     C96513   9.091   1.006   9.432 -0.0138  0.1935  0.7208
  732MOL0     C96514   9.117   0.932   9.566  0.2405  0.2933  0.6012
  732MOL0     C96515   9.091   0.787   9.559 -0.0472 -0.0199 -0.4416
  732MOL0     O96516   9.195   0.732   9.480  0.3928 -0.5093 -0.3650
  732MOL0     C96517   9.311   0.702   9.544 -0.7962 -0.1389 -0.1252
  732MOL0     C96518   9.424   0.764   9.501  0.5117 -0.7455 -0.3468
  732MOL0     C96519   9.551   0.745   9.560 -0.1916  0.4172  0.9620
  732MOL0     C96520   9.562   0.657   9.668 -0.0904  0.7135 -0.0102
  732MOL0     C96521   9.689   0.639   9.737  0.9831  0.0413 -0.2602
  732MOL0     O96522   9.700   0.569   9.853 -0.1317  0.6601  0.2628
  732MOL0     C96523   9.824   0.561   9.918  0.2517  0.6941  0.7290
  732MOL0     C96524   9.846   0.441   9.982 -0.8718 -0.2087 -0.0656
  732MOL0     C96525   9.946   0.425  10.074 -0.7982  0.3525 -0.0134
  732MOL0     C96526  10.043   0.525  10.083 -0.3011 -0.1595 -0.2629
  732MOL0     O96527  10.157   0.505  10.159 -0.4445 -0.0467  0.0503
  732MOL0     C96528  10.244   0.405  10.096  0.4440 -0.3087  0.6219
  732MOL0     C96529  10.376   0.417  10.164  0.2772 -0.8388  0.3541
  732MOL0     C96530  10.467   0.306  10.134 -0.4632 -0.1167  0.4151
  732MOL0     C96531  10.586   0.303  10.228  1.3052  0.9999  0.0166
  732MOL0     C96532  10.683   0.189  10.199 -1.2257 -0.3275 -0.5075
  732MOL0     C96533  10.612   0.054  10.180  0.5441  1.0910 -1.2383
  732MOL0     C96534  10.717  -0.047  10.138  0.6960 -0.1074  0.0770
  732MOL0     C96535  10.661  -0.196  10.119  0.3902 -0.8219 -0.1778
  732MOL0    Cl96536  10.532  -0.199   9.991  0.2933  0.0596 -0.5245
  732MOL0     C96537  10.024   0.649  10.014 -1.2287  0.1781 -0.1690
  732MOL0     C96538   9.912   0.669   9.938 -0.7481  0.8345 -0.2143
  732MOL0     O96539   9.776   0.692   9.678 -0.0865 -1.0199  0.4099
  732MOL0     C96540   9.452   0.601   9.719  0.2345 -1.1903 -0.6419
  732MOL0     C96541   9.330   0.626   9.656 -0.6771 -0.3954 -0.0572
  732MOL0     N96542   8.876   1.226   9.538 -0.4278 -0.0146  0.4595
  732MOL0     N96543   8.793   1.246   9.634 -0.0150  0.5192 -0.2151
  732MOL0     C96544   7.702   1.686   9.468 -0.1278  0.5171  0.3316
  732MOL0     C96545   7.583   1.757   9.441 -1.0300  0.8600 -0.8518
  732MOL0     C96546   7.314   2.092   9.251  0.6836  0.5411  0.3724
  732MOL0     C96547   7.289   2.200   9.165 -0.3706 -0.1396  0.2370
  732MOL0     C96548   7.171   2.254   9.156  0.5494 -0.1196  0.5202
  732MOL0     C96549   7.059   2.200   9.205  0.1354  0.2736 -0.1296
  732MOL0     O96550   6.945   2.258   9.180 -0.3387 -0.4440 -0.1093
  732MOL0     C96551   6.906   2.352   9.278 -0.3504  0.3274  0.0552
  732MOL0     C96552   6.752   2.369   9.283 -0.2982 -0.1804 -0.4420
  732MOL0     C96553   6.684   2.383   9.145 -0.3215 -0.5824 -0.1825
  732MOL0     C96554   6.605   2.515   9.151 -0.2401  0.1747  0.2017
  732MOL0     C96555   6.531   2.540   9.024  1.2697 -0.1654  0.5951
  732MOL0     C96556   6.476   2.551   8.916 -0.1236  0.2472 -0.0829
  732MOL0     C96557   7.070   2.075   9.266 -0.4701  0.1342  0.7860
  732MOL0     C96558   7.199   2.021   9.287  0.2273  0.6681 -0.8213
  732MOL0     H96559   7.665   1.900   9.151  2.7907  0.0494 -1.7631
  732MOL0     H96560   7.852   1.770   9.174 -1.4445 -1.4130 -1.2953
  732MOL0     H96561   8.082   1.736   9.312 -0.3226  0.7785 -0.6141
  732MOL0     H96562   8.005   1.611   9.207 -0.1365  2.3148  0.2374
  732MOL0     H96563   8.230   1.543   9.279 -1.6754 -1.9422 -1.1530
  732MOL0     H96564   8.122   1.428   9.354  1.1577 -1.2564  0.7945
  732MOL0     H96565   8.116   1.543   9.561 -1.8206  4.0549 -1.3823
  732MOL0     H96566   8.196   1.688   9.496 -2.3777  0.9368 -3.1722
  732MOL0     H96567   8.403   1.537   9.462 -0.9992 -1.9693 -1.3278
  732MOL0     H96568   8.349   1.573   9.631  0.7274  1.1454 -0.5043
  732MOL0     H96569   8.277   1.323   9.481  2.4371 -1.0081 -0.1237
  732MOL0     H96570   8.256   1.357   9.656  0.7986  4.6219  1.4417
  732MOL0     H96571   8.495   1.379   9.670 -1.4631 -1.2740  1.4076
  732MOL0     H96572   8.510   1.352   9.496 -1.6201  4.3029  1.2831
  732MOL0     H96573   8.370   1.147   9.678 -0.1513  0.7248  0.3734
  732MOL0     H96574   8.458   1.100   9.534  0.4842 -0.5079  1.0510
  732MOL0     H96575   8.557   1.049   9.762  0.6200  1.5269  2.1750
  732MOL0     H96576   8.584   1.224   9.787  2.1595  2.7905 -2.7125
  732MOL0     H96577   8.714   0.936   9.518  0.1428 -1.3811 -0.7925
  732MOL0     H96578   8.964   1.115   9.311 -2.2459  2.5810  1.1142
  732MOL0     H96579   8.914   0.940   9.342  2.1326 -1.0102 -0.0827
  732MOL0     H96580   9.135   1.106   9.433 -0.1716  0.3165 -0.9463
  732MOL0     H96581   9.145   0.961   9.348 -4.0729 -0.2817 -1.9125
  732MOL0     H96582   9.224   0.948   9.579  0.7710  1.2754 -3.4554
  732MOL0     H96583   9.061   0.962   9.655  0.4599 -1.9039  1.5230
  732MOL0     H96584   9.004   0.769   9.496  0.5003  0.0894 -1.2372
  732MOL0     H96585   9.075   0.755   9.663 -0.0669  3.3219  0.7003
  732MOL0     H96586   9.419   0.840   9.424  0.1434  3.4635  3.4274
  732MOL0     H96587   9.632   0.805   9.521 -0.7601  0.4501 -0.1991
  732MOL0     H96588   9.788   0.350   9.970 -1.0120 -0.3769  1.6517
  732MOL0     H96589   9.982   0.332  10.117  2.6625  1.5683  0.0433
  732MOL0     H96590  10.254   0.430   9.989 -0.0473  0.0546  0.6572
  732MOL0     H96591  10.205   0.304  10.111  2.6368 -1.3997 -0.5719
  732MOL0     H96592  10.361   0.410  10.273 -0.1514  0.1602  0.3713
  732MOL0     H96593  10.421   0.516  10.154  0.9070 -1.0107  1.3003
  732MOL0     H96594  10.496   0.324  10.030 -0.9876 -1.6306 -0.0080
  732MOL0     H96595  10.407   0.215  10.135 -1.5349  0.4485 -2.4722
  732MOL0     H96596  10.640   0.398  10.238 -0.5813  2.1221 -0.1212
  732MOL0     H96597  10.539   0.298  10.326 -0.7693  2.3830 -0.8239
  732MOL0     H96598  10.754   0.192  10.281 -1.5374 -1.7807 -0.1521
  732MOL0     H96599  10.740   0.213  10.109  1.1667 -1.5142  0.6057
  732MOL0     H96600  10.531   0.060  10.108 -0.6310  0.3488 -0.0396
  732MOL0     H96601  10.568   0.022  10.275  2.2393 -0.4202 -0.8817
  732MOL0     H96602  10.765  -0.015  10.045 -1.2320 -1.1687 -1.3464
  732MOL0     H96603  10.779  -0.036  10.228  1.4530  2.0357 -0.6518
  732MOL0     H96604  10.624  -0.244  10.211  2.5351 -2.6273 -0.1729
  732MOL0     H96605  10.741  -0.266  10.093  1.5052  0.2218  0.3327
  732MOL0     H96606  10.101   0.724  10.030 -2.8808  2.1207 -0.8763
  732MOL0     H96607   9.899   0.763   9.884  3.8318  0.4902 -2.3950
  732MOL0     H96608   9.462   0.531   9.801  1.3493 -1.7428 -1.2291
  732MOL0     H96609   9.240   0.580   9.695 -1.9245 -0.3170 -2.5972
  732MOL0     H96610   7.718   1.619   9.552 -2.9443  1.1516  1.4875
  732MOL0     H96611   7.502   1.754   9.513 -0.4676 -3.2209 -0.1569
  732MOL0     H96612   7.367   2.251   9.109 -1.4730  1.2304 -0.1323
  732MOL0     H96613   7.150   2.348   9.106 -2.8060 -0.2821  1.3708
  732MOL0     H96614   6.965   2.439   9.249  0.9143 -1.1383 -2.0361
  732MOL0     H96615   6.945   2.327   9.377  0.0005 -0.2089 -0.2167
  732MOL0     H96616   6.717   2.284   9.342 -1.3217  0.4169 -0.1643
  732MOL0     H96617   6.723   2.456   9.342  2.1638  1.3061 -1.2615
  732MOL0     H96618   6.622   2.297   9.117 -0.3411  0.4434 -3.7724
  732MOL0     H96619   6.758   2.401   9.066 -0.9357 -0.0138 -0.6389
  732MOL0     H96620   6.537   2.518   9.237 -0.4286 -1.9048  0.1840
  732MOL0     H96621   6.678   2.596   9.157 -0.6739  0.5240  1.1234
  732MOL0     H96622   6.422   2.537   8.825 -1.4812 -1.5551  0.9256
  732MOL0     H96623   6.984   2.028   9.312 -0.0591 -2.8963 -1.2590
  732MOL0     H96624   7.212   1.937   9.354 -0.2452  1.0093 -0.2913
  733MOL0     O96625   9.244   2.716   2.360 -0.3500  0.2626 -0.9153
  733MOL0     C96626   9.298   2.605   2.341 -0.5128 -0.5219 -0.0968
  733MOL0     O96627   9.291   2.499   2.429  0.3899  0.0351 -0.0117
  733MOL0     C96628   9.239   2.521   2.554 -0.0143  0.9487 -0.1423
  733MOL0     C96629   9.105   2.544   2.575  0.6272  0.9797  0.3415
  733MOL0     C96630   9.056   2.579   2.699  0.3229  0.2821  0.1713
  733MOL0     C96631   9.144   2.591   2.810  0.3523  0.3207 -0.5568
  733MOL0     O96632   9.108   2.626   2.935  0.7517 -0.1232 -0.0055
  733MOL0     C96633   9.135   2.765   2.966 -0.8152  0.1620  0.4210
  733MOL0     C96634   9.053   2.803   3.092  0.0777  0.0525  0.5575
  733MOL0     C96635   9.126   2.935   3.152  1.0958  0.3771 -0.6942
  733MOL0     C96636   9.048   2.976   3.281 -0.3033 -0.9620 -0.4180
  733MOL0     C96637   9.149   3.052   3.371 -0.3972  1.0889  0.0377
  733MOL0     C96638   9.071   3.108   3.487 -0.0313  0.4566  1.8736
  733MOL0     C96639   9.164   3.198   3.576  0.4585  0.0527  0.4613
  733MOL0     C96640   9.269   3.110   3.657  0.7367  0.5453  0.3462
  733MOL0     N96641   9.225   2.988   3.718  0.8323  0.5707 -0.8662
  733MOL0     C96642   9.243   2.857   3.662  0.0371 -0.4518 -0.0015
  733MOL0     C96643   9.198   2.768   3.756 -0.0244 -0.5238  0.4696
  733MOL0     C96644   9.180   2.622   3.736 -0.1668  0.1765 -0.1494
  733MOL0     C96645   9.308   2.544   3.716 -0.9367  0.5176 -0.2934
  733MOL0     C96646   9.302   2.427   3.615  0.0911 -0.3700 -0.2187
  733MOL0     C96647   9.447   2.387   3.586  0.3083 -0.2736  0.6805
  733MOL0     O96648   9.465   2.249   3.543  0.4341  0.2318  0.0679
  733MOL0     C96649   9.373   2.201   3.444 -0.4739 -0.5503 -0.8306
  733MOL0     C96650   9.330   2.066   3.434 -1.2128  0.4326  0.3470
  733MOL0     C96651   9.270   2.022   3.325  0.8987 -0.0799 -0.2651
  733MOL0     C96652   9.236   2.101   3.217 -0.0861 -0.2861  0.0728
  733MOL0     C96653   9.172   2.047   3.095 -0.3749  0.1104 -0.4092
  733MOL0     O96654   9.221   2.103   2.979  1.0179 -0.3583 -0.1901
  733MOL0     C96655   9.176   2.041   2.858  1.5951  0.4866 -0.4229
  733MOL0     C96656   9.093   2.094   2.755 -0.1196  0.5611 -0.3217
  733MOL0     C96657   9.045   2.033   2.639 -0.3454  0.8126 -0.0962
  733MOL0     C96658   9.080   1.898   2.622  1.0517  0.0114 -0.1999
  733MOL0     O96659   9.042   1.825   2.514  0.6844 -0.5470 -0.2214
  733MOL0     C96660   9.147   1.801   2.422 -0.4043 -0.1146 -0.1158
  733MOL0     C96661   9.094   1.689   2.331 -0.3147 -0.2785  0.0585
  733MOL0     C96662   8.965   1.719   2.259  0.3344  0.2691  0.4315
  733MOL0     C96663   8.972   1.848   2.181 -0.1449  0.6944 -0.5723
  733MOL0     C96664   8.855   1.851   2.086  0.1986 -0.1066 -0.1806
  733MOL0     C96665   8.882   1.760   1.966 -0.7348 -0.2810 -0.8342
  733MOL0     C96666   8.757   1.728   1.880  0.3949 -0.7383 -0.5308
  733MOL0     C96667   8.648   1.653   1.959 -0.5415 -0.5721 -0.2568
  733MOL0    Cl96668   8.551   1.584   1.839 -0.1247  0.3714 -0.1575
  733MOL0     C96669   9.172   1.843   2.712  0.1183  1.0404  0.1448
  733MOL0     C96670   9.222   1.915   2.823  0.5711 -0.0273 -0.1892
  733MOL0     O96671   9.095   1.957   3.108 -0.7953  0.5298  0.5327
  733MOL0     C96672   9.270   2.241   3.220  1.3816  0.2919  0.4293
  733MOL0     C96673   9.334   2.285   3.337  0.7952 -0.2422 -0.2719
  733MOL0     N96674   9.160   2.845   3.869 -0.3121  0.4982 -0.6171
  733MOL0     N96675   9.176   2.969   3.850 -0.0170  0.3087  1.5557
  733MOL0     C96676   9.279   2.580   2.784 -0.2341 -1.0668  0.4892
  733MOL0     C96677   9.318   2.527   2.667 -0.1325 -0.1173 -1.0812
  733MOL0     C96678   9.390   2.593   2.220  1.1919  0.3774  0.5400
  733MOL0     C96679   9.427   2.700   2.140  1.0956  0.6312 -0.0805
  733MOL0     C96680   9.513   2.676   2.026 -0.8834  0.4938 -0.0811
  733MOL0     C96681   9.567   2.545   2.010 -0.0360 -0.4659 -0.2647
  733MOL0     O96682   9.645   2.514   1.904  0.6147 -0.0044  0.4184
  733MOL0     C96683   9.677   2.606   1.807 -0.2732 -0.1734  0.0856
  733MOL0     C96684   9.798   2.679   1.857 -0.4940 -0.2925 -0.8213
  733MOL0     C96685   9.919   2.591   1.884 -0.5710  0.6499  0.4275
  733MOL0     C96686  10.054   2.664   1.872 -0.3750  0.1750  0.2554
  733MOL0     C96687  10.083   2.713   1.739  0.6311  0.6184  0.3879
  733MOL0     C96688  10.089   2.761   1.631  0.2345 -0.1705 -0.4518
  733MOL0     C96689   9.536   2.440   2.096  0.2441 -0.4621 -0.5433
  733MOL0     C96690   9.441   2.462   2.200  0.6040  0.3832  0.5079
  733MOL0     H96691   9.032   2.538   2.495  1.8967 -2.5231 -0.7817
  733MOL0     H96692   8.958   2.621   2.719  0.4714 -0.5533  3.1183
  733MOL0     H96693   9.104   2.835   2.887 -0.4183  0.8557  0.8633
  733MOL0     H96694   9.243   2.775   2.983 -1.2319  2.5583  2.2975
  733MOL0     H96695   9.066   2.723   3.166  0.6987  0.3018  0.7189
  733MOL0     H96696   8.944   2.809   3.082  0.3081  2.3093 -1.1060
  733MOL0     H96697   9.135   3.019   3.083  0.5274  1.5797  0.6369
  733MOL0     H96698   9.223   2.895   3.183 -1.3258 -2.4418  4.6787
  733MOL0     H96699   8.964   3.038   3.248 -2.0261 -1.2635  2.9418
  733MOL0     H96700   9.002   2.899   3.344  2.2291 -1.5570  0.8508
  733MOL0     H96701   9.197   3.131   3.313  1.2714  0.7803  0.9596
  733MOL0     H96702   9.224   2.981   3.406 -1.3478  0.0908  0.0995
  733MOL0     H96703   9.025   3.032   3.551  0.7956 -0.6207  1.2111
  733MOL0     H96704   8.988   3.167   3.448  0.0600 -0.6325 -0.0479
  733MOL0     H96705   9.214   3.274   3.515 -0.5377 -1.0027 -1.7744
  733MOL0     H96706   9.101   3.241   3.654  3.1055  0.8449  2.3268
  733MOL0     H96707   9.322   3.173   3.729 -0.4447  0.6484  1.1764
  733MOL0     H96708   9.341   3.077   3.583 -1.0457 -0.3185 -1.0934
  733MOL0     H96709   9.269   2.837   3.559  0.4897 -0.2328  0.0692
  733MOL0     H96710   9.117   2.606   3.647 -1.4909  1.5501  0.5064
  733MOL0     H96711   9.119   2.582   3.817 -2.1073  0.6248 -1.3220
  733MOL0     H96712   9.335   2.508   3.816 -2.7294 -0.8644 -0.2508
  733MOL0     H96713   9.385   2.614   3.683 -1.4915  1.3810  0.2144
  733MOL0     H96714   9.249   2.341   3.659 -1.4177  0.8125  0.3724
  733MOL0     H96715   9.237   2.461   3.534 -0.0757  2.0259  0.8383
  733MOL0     H96716   9.509   2.417   3.671 -0.3538  1.8415  0.4816
  733MOL0     H96717   9.490   2.449   3.506 -0.0118 -2.1764 -1.0497
  733MOL0     H96718   9.365   2.004   3.516 -0.6357  1.4981  0.9370
  733MOL0     H96719   9.227   1.923   3.331 -0.3262  0.4787  0.6971
  733MOL0     H96720   9.076   2.199   2.772  2.2186  1.0242 -0.5246
  733MOL0     H96721   8.969   2.080   2.577  0.2326  0.8231 -0.8100
  733MOL0     H96722   9.234   1.756   2.471 -0.3479 -0.6031 -0.6532
  733MOL0     H96723   9.188   1.888   2.370  0.9957 -0.3252  0.5871
  733MOL0     H96724   9.082   1.600   2.394  0.0699 -1.2741 -1.2289
  733MOL0     H96725   9.173   1.668   2.259  0.8121 -0.0610  1.1894
  733MOL0     H96726   8.884   1.712   2.332 -0.4055 -1.8012 -0.5131
  733MOL0     H96727   8.951   1.634   2.191  1.6909  0.3227  0.0494
  733MOL0     H96728   8.965   1.934   2.249 -2.8193 -2.0484  2.9723
  733MOL0     H96729   9.062   1.853   2.119 -0.4647 -1.8075 -1.3579
  733MOL0     H96730   8.850   1.950   2.039  1.0701 -1.4622 -3.3387
  733MOL0     H96731   8.761   1.828   2.138  0.3535  2.1949  1.3026
  733MOL0     H96732   8.934   1.664   1.977  0.5265  0.3258 -1.2320
  733MOL0     H96733   8.950   1.819   1.903  2.2652 -0.8902  1.5653
  733MOL0     H96734   8.717   1.826   1.850  2.1425  0.1379 -0.0984
  733MOL0     H96735   8.777   1.676   1.786  0.2715  0.1520 -1.0648
  733MOL0     H96736   8.589   1.726   2.015  3.4701  0.7574  2.7952
  733MOL0     H96737   8.688   1.568   2.016 -1.7943 -2.4346 -1.9854
  733MOL0     H96738   9.214   1.743   2.706  0.1142  1.1088 -4.2038
  733MOL0     H96739   9.284   1.864   2.896  0.9283 -1.3153 -1.3469
  733MOL0     H96740   9.249   2.303   3.133  1.9716 -0.5368 -0.3154
  733MOL0     H96741   9.356   2.391   3.339 -2.8874  0.6461  1.1287
  733MOL0     H96742   9.348   2.609   2.863  0.3739  0.4492 -0.5523
  733MOL0     H96743   9.425   2.513   2.655  0.5886  2.6979  1.0004
  733MOL0     H96744   9.386   2.801   2.143 -1.1069 -0.2176  1.7775
  733MOL0     H96745   9.554   2.762   1.973  1.3482 -0.5582 -0.1846
  733MOL0     H96746   9.589   2.672   1.805 -0.9727 -0.7456  3.6975
  733MOL0     H96747   9.691   2.568   1.706 -0.6902 -1.3022  0.4357
  733MOL0     H96748   9.831   2.765   1.799 -0.1311  1.0121  1.2372
  733MOL0     H96749   9.784   2.713   1.960  0.3671  0.9361 -1.0927
  733MOL0     H96750   9.926   2.516   1.805 -1.9131  0.2942  0.6304
  733MOL0     H96751   9.924   2.553   1.986  0.4647  1.4471  0.6965
  733MOL0     H96752  10.055   2.744   1.947 -3.9752 -0.5095  1.2763
  733MOL0     H96753  10.129   2.593   1.909 -1.2229  0.2044  2.1384
  733MOL0     H96754  10.098   2.793   1.529 -2.2452 -2.1645 -1.4094
  733MOL0     H96755   9.583   2.344   2.079 -0.0815 -0.7548  0.1932
  733MOL0     H96756   9.406   2.380   2.263 -0.4395 -0.4516 -1.0864
  734MOL0     O96757   9.192   5.582   8.330 -0.9458  0.0563  0.2511
  734MOL0     C96758   9.203   5.704   8.319 -0.2868  0.0081  0.2048
  734MOL0     O96759   9.093   5.796   8.278 -0.6222  0.2215 -0.2795
  734MOL0     C96760   8.965   5.746   8.258 -0.1461  0.0080 -0.5790
  734MOL0     C96761   8.883   5.734   8.372 -0.0168 -0.3953 -0.0187
  734MOL0     C96762   8.743   5.699   8.355 -0.4520 -0.1702 -0.7151
  734MOL0     C96763   8.700   5.660   8.225 -0.5726  0.3540  0.6629
  734MOL0     O96764   8.568   5.632   8.199 -0.0065  0.1337 -0.3961
  734MOL0     C96765   8.512   5.550   8.300 -0.2277  0.4164 -0.4573
  734MOL0     C96766   8.393   5.460   8.257  0.9930 -0.1565  0.8002
  734MOL0     C96767   8.278   5.557   8.214 -0.6724  0.1352  0.7019
  734MOL0     C96768   8.165   5.483   8.157  0.0252 -0.0054  1.0793
  734MOL0     C96769   8.208   5.407   8.019 -0.7799  0.1297  0.3666
  734MOL0     C96770   8.120   5.433   7.899 -0.2009  0.2497  0.1261
  734MOL0     C96771   8.130   5.328   7.786 -0.5750 -0.2154 -0.3678
  734MOL0     C96772   8.046   5.208   7.821 -0.3354  0.3331 -0.1312
  734MOL0     N96773   7.972   5.144   7.708 -0.6525 -0.3515  0.0407
  734MOL0     C96774   7.953   5.007   7.695  0.5531 -0.1026 -0.1916
  734MOL0     C96775   7.928   4.994   7.562  0.7600 -0.0188  0.6356
  734MOL0     C96776   7.897   4.868   7.488 -0.4538  0.9913 -0.4069
  734MOL0     C96777   7.745   4.873   7.463  0.2975 -0.6789  0.3629
  734MOL0     C96778   7.658   4.791   7.562  0.1845 -0.1656  0.1550
  734MOL0     C96779   7.501   4.792   7.544 -0.5316 -0.1924  0.5969
  734MOL0     O96780   7.475   4.728   7.415  0.1634 -0.4461 -0.2449
  734MOL0     C96781   7.353   4.685   7.384 -0.1203 -0.9215  0.7102
  734MOL0     C96782   7.233   4.732   7.429  0.2781  0.0537  0.1420
  734MOL0     C96783   7.114   4.668   7.389 -0.3793 -0.2921  0.6544
  734MOL0     C96784   7.120   4.572   7.282  1.2346  0.1887  0.2281
  734MOL0     C96785   6.989   4.530   7.229  0.2070  0.5135 -0.1549
  734MOL0     O96786   6.890   4.619   7.233  0.7689  0.4785 -0.4817
  734MOL0     C96787   6.751   4.595   7.224  0.2910  0.1845 -0.7074
  734MOL0     C96788   6.672   4.708   7.221  0.9527 -0.5415 -0.7899
  734MOL0     C96789   6.538   4.702   7.188  0.1627 -0.2938 -0.0032
  734MOL0     C96790   6.471   4.588   7.173 -0.7515 -0.2009 -0.4905
  734MOL0     O96791   6.341   4.583   7.134  0.1119 -0.7205  0.8324
  734MOL0     C96792   6.260   4.497   7.220  0.2581 -0.3178  0.2808
  734MOL0     C96793   6.112   4.535   7.217  0.7634 -0.2494 -0.1661
  734MOL0     C96794   6.094   4.684   7.240  0.8461  0.6890 -0.1325
  734MOL0     C96795   5.948   4.712   7.292 -0.2289 -0.0064 -0.9959
  734MOL0     C96796   5.921   4.861   7.331  0.0307  0.1902  0.2212
  734MOL0     C96797   5.770   4.892   7.361 -0.1258 -0.7522 -0.0180
  734MOL0     C96798   5.762   5.034   7.414  0.4214 -0.1405 -0.4700
  734MOL0     C96799   5.626   5.079   7.433 -0.1298  0.5426 -0.2665
  734MOL0    Cl96800   5.534   5.009   7.569  0.2785 -0.0092 -0.3239
  734MOL0     C96801   6.548   4.468   7.195  0.0087 -0.0343 -0.6067
  734MOL0     C96802   6.683   4.471   7.214  0.6010  0.0271 -0.4579
  734MOL0     O96803   6.982   4.415   7.181  0.2709  0.1096  0.1236
  734MOL0     C96804   7.248   4.539   7.226  0.6206 -0.1595 -0.5453
  734MOL0     C96805   7.358   4.591   7.277  0.4493 -0.3957  0.1344
  734MOL0     N96806   7.930   5.112   7.492 -0.3870 -0.5214  0.0605
  734MOL0     N96807   7.960   5.200   7.580  0.7102 -0.6774  0.7374
  734MOL0     C96808   8.780   5.690   8.117 -0.4397 -0.4148 -0.0259
  734MOL0     C96809   8.907   5.735   8.130 -0.2967  0.3738 -0.1994
  734MOL0     C96810   9.340   5.765   8.330 -0.2949  0.1820  0.1919
  734MOL0     C96811   9.452   5.697   8.392  0.0151  0.1139 -0.0547
  734MOL0     C96812   9.587   5.735   8.388 -0.9213 -0.5785  0.6208
  734MOL0     C96813   9.617   5.865   8.338 -0.1433 -0.3165  0.8639
  734MOL0     O96814   9.741   5.920   8.330 -0.4896 -0.3558  0.1586
  734MOL0     C96815   9.849   5.843   8.378 -0.7228  1.3992 -0.5269
  734MOL0     C96816   9.984   5.923   8.408  0.2880 -0.8889  0.0563
  734MOL0     C96817  10.008   6.053   8.327  0.0882 -0.2945 -0.3908
  734MOL0     C96818   9.930   6.168   8.402  0.7842  1.1134  0.7762
  734MOL0     C96819   9.836   6.243   8.311 -0.1565  0.3798  0.0595
  734MOL0     C96820   9.751   6.289   8.243 -0.0822  0.7915 -1.0849
  734MOL0     C96821   9.506   5.940   8.288  0.2775 -0.1897  0.5630
  734MOL0     C96822   9.371   5.892   8.284 -1.5297  0.3558  0.0587
  734MOL0     H96823   8.922   5.758   8.470  0.3190  3.3505 -0.9097
  734MOL0     H96824   8.689   5.705   8.448 -1.4343  0.5806 -1.3178
  734MOL0     H96825   8.476   5.621   8.375  0.0542  1.2419 -1.0769
  734MOL0     H96826   8.590   5.483   8.338  0.3981 -1.4413 -4.4634
  734MOL0     H96827   8.372   5.392   8.340  1.3732  0.3657  1.3349
  734MOL0     H96828   8.429   5.391   8.180 -1.4630 -2.7736  1.8177
  734MOL0     H96829   8.318   5.631   8.145 -0.9737 -0.5199 -0.2031
  734MOL0     H96830   8.240   5.610   8.301  0.7819 -0.2119  1.5758
  734MOL0     H96831   8.139   5.401   8.224  1.8613 -2.3790 -0.9318
  734MOL0     H96832   8.080   5.548   8.132  1.9825  1.5324 -2.3049
  734MOL0     H96833   8.207   5.299   8.035  2.2276 -0.0903 -0.2273
  734MOL0     H96834   8.306   5.434   7.980 -0.5342  0.3507  1.1086
  734MOL0     H96835   8.134   5.533   7.856 -0.8273 -0.0197 -0.7399
  734MOL0     H96836   8.017   5.438   7.934  0.4766  0.8423  2.1711
  734MOL0     H96837   8.075   5.385   7.711 -0.5130  2.1250  1.2509
  734MOL0     H96838   8.236   5.302   7.781 -1.0840 -2.4397 -0.5449
  734MOL0     H96839   7.976   5.225   7.903 -0.7879 -2.1040  0.0715
  734MOL0     H96840   8.117   5.134   7.858  0.0508  0.1768 -1.1503
  734MOL0     H96841   7.958   4.927   7.768 -3.0466 -0.3406 -0.0298
  734MOL0     H96842   7.925   4.782   7.550  0.2438  2.4175  1.3528
  734MOL0     H96843   7.947   4.861   7.391 -0.0673 -0.8251 -0.1157
  734MOL0     H96844   7.718   4.838   7.363 -1.7222 -2.0241  1.3315
  734MOL0     H96845   7.713   4.977   7.463 -1.6617 -1.1931  3.0600
  734MOL0     H96846   7.693   4.687   7.558  3.4147  0.7990  0.2898
  734MOL0     H96847   7.685   4.833   7.660 -1.8518 -1.1806  1.2136
  734MOL0     H96848   7.461   4.894   7.540  3.3093  1.4799 -3.2964
  734MOL0     H96849   7.457   4.734   7.625 -0.2885  1.2771  1.8349
  734MOL0     H96850   7.231   4.798   7.515  1.3249 -0.0918  0.3028
  734MOL0     H96851   7.023   4.693   7.442  0.0851  0.3291  1.1718
  734MOL0     H96852   6.711   4.809   7.228 -0.0252 -0.1884 -0.1893
  734MOL0     H96853   6.482   4.795   7.186 -0.5252 -0.7102 -0.2876
  734MOL0     H96854   6.294   4.529   7.319 -0.0349 -1.5213  0.7900
  734MOL0     H96855   6.268   4.388   7.211  2.1612 -0.1212 -1.3261
  734MOL0     H96856   6.048   4.490   7.294 -2.3057  0.6136 -2.0480
  734MOL0     H96857   6.072   4.507   7.119  0.3816 -1.1513  0.2340
  734MOL0     H96858   6.118   4.748   7.154  1.9050 -0.2414 -0.5671
  734MOL0     H96859   6.167   4.711   7.317  0.6994  0.0736  0.2252
  734MOL0     H96860   5.880   4.689   7.210 -0.9341 -1.1291 -0.1353
  734MOL0     H96861   5.915   4.652   7.378 -1.5195  1.1250 -0.6760
  734MOL0     H96862   5.953   4.923   7.247 -2.2329  1.7115  0.3807
  734MOL0     H96863   5.964   4.886   7.429 -0.8187 -3.3579  1.6600
  734MOL0     H96864   5.748   4.823   7.443  0.2885  2.1976  2.8139
  734MOL0     H96865   5.701   4.878   7.277  0.9142 -3.9773 -0.4622
  734MOL0     H96866   5.803   5.037   7.515  1.6957  3.3799 -0.9480
  734MOL0     H96867   5.819   5.104   7.351 -0.9431  1.3168 -0.1363
  734MOL0     H96868   5.567   5.060   7.343  0.1723  1.0259 -0.5701
  734MOL0     H96869   5.629   5.186   7.454 -3.8771  0.3912  1.9348
  734MOL0     H96870   6.507   4.368   7.182 -0.0914 -0.0296 -0.3201
  734MOL0     H96871   6.735   4.376   7.218 -0.6284 -0.6194  1.0941
  734MOL0     H96872   7.270   4.465   7.149 -0.0611 -2.8547  1.6606
  734MOL0     H96873   7.456   4.576   7.233 -0.0654  2.4575 -2.3143
  734MOL0     H96874   8.743   5.681   8.015 -4.3644 -0.5672  1.2593
  734MOL0     H96875   8.971   5.762   8.047  1.7381  0.4655  1.3367
  734MOL0     H96876   9.420   5.608   8.446 -2.3428  2.1787  2.1476
  734MOL0     H96877   9.665   5.663   8.411  0.8278  0.9299 -0.2718
  734MOL0     H96878   9.889   5.760   8.320  0.3442  0.9721  0.7606
  734MOL0     H96879   9.816   5.808   8.477  0.8279  0.1075 -0.4234
  734MOL0     H96880   9.980   5.940   8.516  1.8804  0.5363 -0.0593
  734MOL0     H96881  10.063   5.854   8.376 -0.7671 -3.0069  1.8178
  734MOL0     H96882   9.987   6.045   8.220  2.6597  1.0010 -1.0746
  734MOL0     H96883  10.116   6.065   8.337 -0.2782  3.1036  1.0086
  734MOL0     H96884   9.861   6.118   8.471  0.7135 -1.1632 -0.7989
  734MOL0     H96885  10.002   6.230   8.455  1.9655  1.4847 -1.1617
  734MOL0     H96886   9.675   6.331   8.180 -1.3609  1.2091  0.6786
  734MOL0     H96887   9.526   6.042   8.256 -4.5289  1.1201  1.0801
  734MOL0     H96888   9.300   5.956   8.232  0.9068  2.6584 -0.6825
  735MOL0     O96889   3.942   6.673   1.541  0.0094 -0.2159 -0.5331
  735MOL0     C96890   3.944   6.553   1.544 -0.0052  0.0631 -0.4714
  735MOL0     O96891   3.847   6.460   1.494 -0.6027  0.1884  0.3850
  735MOL0     C96892   3.757   6.520   1.415  0.2262  0.1326 -0.0305
  735MOL0     C96893   3.790   6.596   1.296 -0.0333  0.3111  0.1746
  735MOL0     C96894   3.686   6.651   1.218  1.2069  0.3094 -0.6911
  735MOL0     C96895   3.554   6.617   1.242  0.7678 -0.5269  0.3016
  735MOL0     O96896   3.451   6.668   1.165  0.0736  0.1314  0.2591
  735MOL0     C96897   3.332   6.710   1.236  0.1450  0.2756 -0.5513
  735MOL0     C96898   3.266   6.822   1.155 -0.0802  0.0158  0.2168
  735MOL0     C96899   3.123   6.832   1.194  0.7456 -0.2054 -0.4636
  735MOL0     C96900   3.061   6.953   1.138  0.6551  0.1979 -0.8171
  735MOL0     C96901   2.912   6.966   1.175 -0.3117  0.6241  0.3049
  735MOL0     C96902   2.840   6.852   1.097 -0.6674 -0.0362 -0.8599
  735MOL0     C96903   2.692   6.855   1.107 -0.6483  0.5079  0.4861
  735MOL0     C96904   2.630   6.720   1.055  0.0837 -1.0880  0.3755
  735MOL0     N96905   2.698   6.670   0.932 -0.1117 -0.1239  0.3194
  735MOL0     C96906   2.796   6.567   0.932  0.5865 -0.8656  0.8566
  735MOL0     C96907   2.833   6.554   0.800 -0.0327 -0.4588 -0.2675
  735MOL0     C96908   2.922   6.450   0.733  0.2204  0.4841 -0.5317
  735MOL0     C96909   3.056   6.410   0.809 -0.4363 -0.3901  0.7497
  735MOL0     C96910   3.150   6.534   0.833  0.2332  0.1266  0.7776
  735MOL0     C96911   3.248   6.504   0.942 -0.5861 -0.6213  0.2726
  735MOL0     O96912   3.329   6.385   0.925  0.9041 -0.2129  0.5801
  735MOL0     C96913   3.470   6.395   0.922  0.9845 -0.4687 -0.1407
  735MOL0     C96914   3.546   6.322   1.017 -0.4530 -0.2800  0.5701
  735MOL0     C96915   3.680   6.356   1.022 -0.1752 -0.4943 -0.6399
  735MOL0     C96916   3.743   6.451   0.937 -1.4807 -0.4139  1.6566
  735MOL0     C96917   3.884   6.482   0.939 -0.0019  0.8164 -0.4755
  735MOL0     O96918   3.936   6.460   1.065 -0.2637 -0.1978 -0.0511
  735MOL0     C96919   4.073   6.443   1.093 -0.2378 -0.8395  1.4197
  735MOL0     C96920   4.102   6.339   1.181 -0.9651 -0.0384  0.2674
  735MOL0     C96921   4.233   6.332   1.229  0.0128 -0.0907 -0.0178
  735MOL0     C96922   4.338   6.417   1.183  0.4609  0.7754  0.4715
  735MOL0     O96923   4.474   6.395   1.220 -0.1765  0.3472 -0.4410
  735MOL0     C96924   4.485   6.401   1.363  0.3103 -0.8083 -0.1705
  735MOL0     C96925   4.577   6.285   1.404 -0.0059 -0.0667  0.0804
  735MOL0     C96926   4.715   6.273   1.332 -0.4048 -0.0663  0.2624
  735MOL0     C96927   4.818   6.390   1.370 -0.1115 -0.0506  0.2483
  735MOL0     C96928   4.954   6.339   1.405  0.3422 -0.0360  0.5621
  735MOL0     C96929   5.034   6.323   1.274  0.2477 -0.9085  0.2344
  735MOL0     C96930   5.134   6.214   1.277  0.2689  1.0933  0.4452
  735MOL0     C96931   5.248   6.266   1.351 -0.5750 -0.7119 -0.3693
  735MOL0    Cl96932   5.395   6.183   1.286  0.0833 -0.0560  0.0750
  735MOL0     C96933   4.308   6.501   1.075 -0.0809 -0.4896 -0.0832
  735MOL0     C96934   4.172   6.513   1.029  0.5692 -0.1755 -0.9130
  735MOL0     O96935   3.942   6.509   0.831 -0.1122  0.4157  0.3035
  735MOL0     C96936   3.662   6.502   0.837 -0.0709  0.0005 -0.0091
  735MOL0     C96937   3.525   6.491   0.839  0.5079  0.2283  0.0146
  735MOL0     N96938   2.755   6.637   0.730  0.5827 -0.4779  0.5699
  735MOL0     N96939   2.671   6.704   0.804 -0.5844 -1.2515  1.3668
  735MOL0     C96940   3.523   6.537   1.355 -0.1001 -0.3751  0.2358
  735MOL0     C96941   3.622   6.501   1.448  1.0116  0.1946  0.9406
  735MOL0     C96942   4.062   6.477   1.587  0.5304 -0.2846 -0.3342
  735MOL0     C96943   4.069   6.332   1.571  0.0490 -0.8080  0.3816
  735MOL0     C96944   4.165   6.259   1.635 -0.0423  0.4380 -0.1974
  735MOL0     C96945   4.249   6.311   1.728 -0.0806 -0.2512 -0.1103
  735MOL0     O96946   4.341   6.232   1.798 -0.4152 -0.0553 -0.1759
  735MOL0     C96947   4.383   6.108   1.743  0.3645 -0.2627 -0.0352
  735MOL0     C96948   4.508   6.061   1.817 -0.1593  0.4034  0.8110
  735MOL0     C96949   4.625   6.154   1.798  0.5011 -0.7575 -0.4033
  735MOL0     C96950   4.754   6.102   1.857 -0.2639 -0.3118  0.0247
  735MOL0     C96951   4.868   6.158   1.788 -0.1530 -0.6206 -0.6131
  735MOL0     C96952   4.971   6.201   1.758  0.4071 -0.7799 -0.3741
  735MOL0     C96953   4.235   6.452   1.748 -0.3852 -0.6399  0.4982
  735MOL0     C96954   4.155   6.534   1.671 -0.4553  0.4966 -0.0562
  735MOL0     H96955   3.896   6.613   1.279 -0.2806  1.7067 -0.0599
  735MOL0     H96956   3.711   6.693   1.121  1.7897  0.7550 -0.3568
  735MOL0     H96957   3.350   6.747   1.337 -0.6591  0.6658 -0.5420
  735MOL0     H96958   3.266   6.623   1.228  0.4340  0.0991 -1.1120
  735MOL0     H96959   3.274   6.800   1.049  3.4310  0.6043  0.2337
  735MOL0     H96960   3.321   6.914   1.178  0.4732 -1.2569  5.1878
  735MOL0     H96961   3.104   6.824   1.301 -2.9240 -0.5576 -1.0094
  735MOL0     H96962   3.073   6.742   1.156 -0.8994  0.1347  0.7541
  735MOL0     H96963   3.113   7.041   1.178 -2.4880  1.3103  1.2552
  735MOL0     H96964   3.082   6.958   1.031  1.2090 -1.2949 -0.8022
  735MOL0     H96965   2.868   7.058   1.135 -2.5634 -1.3571 -2.1516
  735MOL0     H96966   2.912   6.967   1.284 -1.8918 -1.7687  0.4124
  735MOL0     H96967   2.880   6.760   1.141  2.3402  0.4005 -2.4001
  735MOL0     H96968   2.866   6.860   0.992 -0.8139  3.4183 -0.7256
  735MOL0     H96969   2.661   6.858   1.212 -2.1533 -1.4551  0.1536
  735MOL0     H96970   2.653   6.945   1.060 -1.4309  2.0582  3.8037
  735MOL0     H96971   2.523   6.727   1.032  0.3169  1.2232 -0.2095
  735MOL0     H96972   2.637   6.655   1.143 -1.9688  1.2683  2.4160
  735MOL0     H96973   2.841   6.511   1.014  1.6588  0.0242  0.8995
  735MOL0     H96974   2.945   6.497   0.637  1.9472 -0.5198 -0.6583
  735MOL0     H96975   2.865   6.360   0.710  1.3879  0.0757 -1.9449
  735MOL0     H96976   3.107   6.332   0.751  3.2536  1.8444  0.6668
  735MOL0     H96977   3.035   6.375   0.910  0.0374  1.3094  1.4575
  735MOL0     H96978   3.209   6.560   0.744 -1.9038 -0.9740 -1.0469
  735MOL0     H96979   3.081   6.613   0.862  0.5437  0.1830  1.3681
  735MOL0     H96980   3.195   6.477   1.034 -0.6717  1.7776  0.9916
  735MOL0     H96981   3.315   6.585   0.971 -0.1921 -0.3109 -1.3861
  735MOL0     H96982   3.495   6.252   1.083 -0.6498 -1.2730 -0.5959
  735MOL0     H96983   3.742   6.306   1.096  0.7814 -2.3980 -2.6058
  735MOL0     H96984   4.036   6.270   1.231  0.1291 -0.3387  1.3381
  735MOL0     H96985   4.255   6.255   1.303 -3.7369  0.5962  2.0714
  735MOL0     H96986   4.396   6.381   1.422  1.3099 -4.3838  0.3935
  735MOL0     H96987   4.525   6.496   1.400  0.1598 -0.3682 -1.1150
  735MOL0     H96988   4.531   6.186   1.390 -1.7531  0.6785  0.3343
  735MOL0     H96989   4.600   6.289   1.511 -0.2115 -0.8186  0.1595
  735MOL0     H96990   4.703   6.255   1.225  0.9650  0.4102  0.0108
  735MOL0     H96991   4.757   6.181   1.373 -1.6190 -0.4505  0.6766
  735MOL0     H96992   4.816   6.472   1.297  1.9821  0.0793  0.2639
  735MOL0     H96993   4.773   6.432   1.460  0.4278  0.9965  0.0531
  735MOL0     H96994   4.943   6.251   1.468  0.9836 -1.6504 -1.4415
  735MOL0     H96995   5.018   6.406   1.463  1.4202  0.8548 -1.5412
  735MOL0     H96996   5.070   6.420   1.240  1.1911 -0.4286  2.3874
  735MOL0     H96997   4.968   6.299   1.190  0.0653  0.1023  0.0825
  735MOL0     H96998   5.098   6.119   1.319  1.7454  1.2774  2.2219
  735MOL0     H96999   5.160   6.202   1.171 -2.4358 -2.0665 -0.0277
  735MOL0     H97000   5.237   6.261   1.460  0.6682  2.6525  0.0184
  735MOL0     H97001   5.261   6.371   1.324  2.4822 -0.6526  0.9977
  735MOL0     H97002   4.396   6.560   1.053  1.2212 -1.9979  0.8294
  735MOL0     H97003   4.161   6.588   0.951  4.3571 -2.0304 -3.5661
  735MOL0     H97004   3.716   6.564   0.765 -0.0762  0.8942  0.7297
  735MOL0     H97005   3.477   6.550   0.761  5.1053  3.5263 -0.7487
  735MOL0     H97006   3.419   6.510   1.369  0.1157 -2.2460 -1.3870
  735MOL0     H97007   3.603   6.443   1.538 -1.4929 -4.1698 -1.9940
  735MOL0     H97008   4.006   6.280   1.499  0.8569  0.9827 -1.7471
  735MOL0     H97009   4.166   6.151   1.623 -0.3240  0.3489  0.5401
  735MOL0     H97010   4.405   6.109   1.636  1.2050  1.1536  0.1339
  735MOL0     H97011   4.300   6.039   1.763  1.3121 -2.2739 -2.4651
  735MOL0     H97012   4.486   6.058   1.924 -1.7045  0.0892  0.5145
  735MOL0     H97013   4.538   5.960   1.786  0.9576 -0.0689  3.1929
  735MOL0     H97014   4.598   6.250   1.843  0.6864 -0.4671 -0.9053
  735MOL0     H97015   4.641   6.166   1.691 -0.2299  1.1630 -0.3314
  735MOL0     H97016   4.771   6.132   1.962  2.0947  0.2307 -0.4458
  735MOL0     H97017   4.768   5.994   1.853  1.4653 -0.1339  0.2389
  735MOL0     H97018   5.065   6.245   1.732 -0.0886 -1.1552 -3.1538
  735MOL0     H97019   4.320   6.496   1.800  1.7136 -0.7836 -2.5511
  735MOL0     H97020   4.166   6.640   1.693 -1.7756  0.2655  1.9652
  736MOL0     O97021   4.347  10.185   5.939 -0.5859  0.1085 -0.0678
  736MOL0     C97022   4.339  10.295   5.981  0.4204  0.1692 -0.4804
  736MOL0     O97023   4.224  10.379   5.969 -0.2693  1.0636  0.2803
  736MOL0     C97024   4.100  10.334   5.958  0.3866 -0.1971  0.2746
  736MOL0     C97025   4.059  10.203   6.004 -0.0132  0.2136 -0.1076
  736MOL0     C97026   3.922  10.164   6.019 -0.6023 -0.4371 -0.5587
  736MOL0     C97027   3.825  10.258   5.984 -1.2582  0.5832 -0.9246
  736MOL0     O97028   3.696  10.222   6.005 -0.6269 -0.3538 -0.0464
  736MOL0     C97029   3.661  10.087   5.979  0.6177 -0.2701 -0.0775
  736MOL0     C97030   3.512  10.103   5.958  0.1144  0.5813  0.8137
  736MOL0     C97031   3.429  10.106   6.091 -0.2971  0.8745  0.3259
  736MOL0     C97032   3.350  10.245   6.101 -0.0656 -0.4189 -1.0783
  736MOL0     C97033   3.309  10.264   6.257  0.3920 -0.5069  0.5299
  736MOL0     C97034   3.190  10.181   6.300  0.1783  0.1773 -0.6462
  736MOL0     C97035   3.062  10.230   6.241 -0.5417  0.0001  0.8681
  736MOL0     C97036   2.953  10.116   6.238  0.3533  0.3160  0.1372
  736MOL0     N97037   2.828  10.168   6.176  1.3085  0.1222  0.3625
  736MOL0     C97038   2.753  10.273   6.219 -0.5402 -0.4464 -0.5142
  736MOL0     C97039   2.644  10.270   6.136  0.6015  0.4343  0.4242
  736MOL0     C97040   2.524  10.369   6.146  0.5786  0.1154  0.7525
  736MOL0     C97041   2.443  10.394   6.015  0.4895  0.3120  0.0688
  736MOL0     C97042   2.327  10.496   6.041 -0.4330 -0.4614  0.6101
  736MOL0     C97043   2.200  10.462   6.123 -0.1409  0.5693  0.2558
  736MOL0     O97044   2.104  10.564   6.136 -0.3589  0.0417 -0.2062
  736MOL0     C97045   1.993  10.560   6.064 -0.6405 -0.4735 -0.4187
  736MOL0     C97046   1.880  10.611   6.127  0.2777 -0.3253  0.0355
  736MOL0     C97047   1.754  10.601   6.069  0.3185  0.3957 -0.2317
  736MOL0     C97048   1.742  10.549   5.932  0.1943 -1.2030 -0.4510
  736MOL0     C97049   1.612  10.538   5.859 -0.3012 -0.5991 -1.0102
  736MOL0     O97050   1.499  10.574   5.922  0.6167 -0.6666  0.2369
  736MOL0     C97051   1.369  10.524   5.893 -0.4801 -0.7048  0.3652
  736MOL0     C97052   1.271  10.592   5.960  0.4737 -0.4838 -0.5323
  736MOL0     C97053   1.131  10.588   5.937  0.1563  0.7088 -0.2490
  736MOL0     C97054   1.090  10.485   5.861  1.1189  0.6224 -0.0390
  736MOL0     O97055   0.953  10.464   5.830 -0.2734 -0.0870 -0.4347
  736MOL0     C97056   0.842  10.544   5.869  0.5537 -0.7453  1.1074
  736MOL0     C97057   0.749  10.476   5.958 -0.1674 -0.4815  0.3863
  736MOL0     C97058   0.818  10.459   6.100 -0.0831  0.0613  0.0708
  736MOL0     C97059   0.752  10.356   6.188 -0.1352  0.5683  0.1776
  736MOL0     C97060   0.653  10.434   6.285  0.0222  0.5523 -0.5524
  736MOL0     C97061   0.543  10.525   6.217  0.0603 -0.2414 -0.0162
  736MOL0     C97062   0.441  10.567   6.327 -0.2914 -0.2907 -0.1049
  736MOL0     C97063   0.300  10.532   6.291  0.7201 -0.1666 -0.0833
  736MOL0    Cl97064   0.243  10.595   6.136 -0.3821 -0.0940 -0.1827
  736MOL0     C97065   1.190  10.396   5.798 -0.0475 -0.6576  0.4151
  736MOL0     C97066   1.321  10.421   5.815 -0.1742 -0.2237 -0.1607
  736MOL0     O97067   1.615  10.477   5.756  0.3409 -0.7227  0.3915
  736MOL0     C97068   1.865  10.507   5.862  0.8858 -0.5486  0.0836
  736MOL0     C97069   1.987  10.505   5.935 -0.1188 -0.4131 -0.9661
  736MOL0     N97070   2.669  10.175   6.033 -0.0875 -0.0953  0.0209
  736MOL0     N97071   2.768  10.097   6.070 -0.3595  0.6997 -0.6562
  736MOL0     C97072   3.858  10.389   5.950  0.1799 -0.1161  0.3068
  736MOL0     C97073   3.994  10.428   5.940 -0.4642  0.1379  0.2899
  736MOL0     C97074   4.465  10.357   6.029 -0.4093  0.8799  0.5986
  736MOL0     C97075   4.581  10.276   6.064  0.4282 -0.0690 -0.5533
  736MOL0     C97076   4.701  10.342   6.108  0.7905 -0.1146 -0.4286
  736MOL0     C97077   4.695  10.482   6.126  0.2102 -0.9365  0.4228
  736MOL0     O97078   4.799  10.533   6.191 -0.1866 -0.5856  0.2211
  736MOL0     C97079   4.771  10.652   6.263  0.2376 -0.2533 -0.1437
  736MOL0     C97080   4.879  10.666   6.364 -0.1238  0.5072  0.0213
  736MOL0     C97081   4.852  10.791   6.464 -0.3000  0.1314  0.1503
  736MOL0     C97082   4.904  10.757   6.611  0.1748  0.6754 -0.2085
  736MOL0     C97083   4.832  10.828   6.714 -0.1180 -0.0474 -0.8386
  736MOL0     C97084   4.768  10.893   6.798  0.0529 -0.0368  0.3348
  736MOL0     C97085   4.583  10.557   6.081 -0.2308 -0.3902  0.5307
  736MOL0     C97086   4.470  10.493   6.028  0.1363 -0.1918 -0.8339
  736MOL0     H97087   4.120  10.115   6.022 -4.4816 -2.8862  2.0381
  736MOL0     H97088   3.906  10.058   6.038  3.3492 -1.1478 -0.2722
  736MOL0     H97089   3.676  10.026   6.068  0.4285  1.8041  1.4352
  736MOL0     H97090   3.707  10.033   5.895  2.0977 -2.9415  2.2896
  736MOL0     H97091   3.480  10.016   5.900 -3.8011  0.8139  2.3381
  736MOL0     H97092   3.484  10.188   5.895 -1.9878  0.9495  2.1441
  736MOL0     H97093   3.501  10.099   6.173  0.8852  1.3476 -0.6291
  736MOL0     H97094   3.363  10.019   6.101  3.0873 -2.0544 -0.7022
  736MOL0     H97095   3.421  10.326   6.079 -0.3029  0.7301  1.9780
  736MOL0     H97096   3.266  10.242   6.032  1.4390 -0.4562 -3.0104
  736MOL0     H97097   3.291  10.372   6.260  0.0667 -0.5533  0.2420
  736MOL0     H97098   3.397  10.257   6.322  1.4251  4.5199  0.0389
  736MOL0     H97099   3.181  10.207   6.406 -0.9858  0.0958 -0.7164
  736MOL0     H97100   3.212  10.074   6.292  1.0623  0.3427 -0.6141
  736MOL0     H97101   3.026  10.309   6.307 -0.0669  0.5240  0.5058
  736MOL0     H97102   3.080  10.264   6.139  3.9744  0.9786  1.7639
  736MOL0     H97103   2.933  10.088   6.342  1.6755 -0.3829  0.2176
  736MOL0     H97104   2.993  10.033   6.180  0.2303 -0.0186  0.5282
  736MOL0     H97105   2.798  10.334   6.296  0.6474 -0.8347 -0.8719
  736MOL0     H97106   2.563  10.459   6.194  1.1155  0.2666  0.0428
  736MOL0     H97107   2.442  10.337   6.211 -0.0634  0.9515  0.3745
  736MOL0     H97108   2.398  10.301   5.979 -0.1066  0.1959  1.0647
  736MOL0     H97109   2.506  10.429   5.933  0.1010 -0.6094 -0.6374
  736MOL0     H97110   2.367  10.590   6.080 -1.1572 -0.8911  2.5029
  736MOL0     H97111   2.283  10.513   5.942  1.6918  0.3145 -0.2419
  736MOL0     H97112   2.234  10.431   6.222  0.5967  1.5336  0.3251
  736MOL0     H97113   2.153  10.369   6.092 -1.9539  1.0058  1.5740
  736MOL0     H97114   1.883  10.660   6.224  0.4128 -0.4740  0.1092
  736MOL0     H97115   1.666  10.637   6.119 -0.5383 -0.6172 -0.9687
  736MOL0     H97116   1.304  10.671   6.027  2.0241 -0.7597 -0.9292
  736MOL0     H97117   1.061  10.653   5.988 -0.9985  0.0200 -0.9330
  736MOL0     H97118   0.796  10.550   5.770  1.4525  2.3570  0.7846
  736MOL0     H97119   0.873  10.642   5.906  1.3667  0.5759 -2.5963
  736MOL0     H97120   0.729  10.377   5.916 -1.9800  0.5002 -1.2178
  736MOL0     H97121   0.659  10.535   5.975  1.0365  0.8704  2.4812
  736MOL0     H97122   0.801  10.553   6.153  0.3279 -0.9815  2.1829
  736MOL0     H97123   0.924  10.436   6.090 -0.3378 -2.5633  2.1422
  736MOL0     H97124   0.697  10.279   6.133 -0.2158  1.3891 -0.9108
  736MOL0     H97125   0.834  10.315   6.248  0.2252 -0.6925 -1.1166
  736MOL0     H97126   0.704  10.488   6.365 -1.9825  0.3236  0.9705
  736MOL0     H97127   0.599  10.352   6.333 -0.4222  0.8270 -0.5821
  736MOL0     H97128   0.498  10.466   6.136  0.1832 -0.3668  0.0054
  736MOL0     H97129   0.596  10.610   6.174 -0.9189  1.2235  1.5673
  736MOL0     H97130   0.465  10.524   6.424 -0.5196  3.8019  1.9714
  736MOL0     H97131   0.462  10.672   6.346  0.0182 -0.2878 -0.4555
  736MOL0     H97132   0.236  10.572   6.370  0.7790 -0.3785  0.0706
  736MOL0     H97133   0.295  10.425   6.312  1.7078 -0.3700 -0.8334
  736MOL0     H97134   1.149  10.326   5.727  0.3936  1.8871 -2.5391
  736MOL0     H97135   1.379  10.354   5.752 -0.2453  0.0695 -0.5412
  736MOL0     H97136   1.864  10.482   5.757 -3.3946 -0.1023 -0.1316
  736MOL0     H97137   2.080  10.471   5.891  0.2636  0.0163 -0.5121
  736MOL0     H97138   3.783  10.464   5.931 -0.3745 -0.7677 -0.1092
  736MOL0     H97139   4.024  10.528   5.909  0.4747 -0.1562  0.2258
  736MOL0     H97140   4.571  10.169   6.052  1.4518 -0.1339 -0.9182
  736MOL0     H97141   4.788  10.286   6.141  1.2991 -0.6148 -2.5274
  736MOL0     H97142   4.678  10.652   6.321  1.7492  0.6501  2.4832
  736MOL0     H97143   4.772  10.730   6.187  2.9193 -1.1279 -1.1565
  736MOL0     H97144   4.882  10.576   6.426 -0.1507  0.6407  0.2165
  736MOL0     H97145   4.977  10.668   6.314 -0.3412 -3.0486 -0.8025
  736MOL0     H97146   4.747  10.821   6.468 -1.1199 -2.2443 -1.5036
  736MOL0     H97147   4.902  10.876   6.418 -0.9669 -0.3312 -1.4837
  736MOL0     H97148   4.887  10.653   6.640 -0.2961  0.0302 -2.5816
  736MOL0     H97149   5.011  10.776   6.600 -0.0716  1.4643 -1.4647
  736MOL0     H97150   4.724  10.967   6.862  1.6899  3.5586 -2.3413
  736MOL0     H97151   4.597  10.664   6.071 -3.2457  0.0659  0.2438
  736MOL0     H97152   4.385  10.553   5.997  0.1632  1.2189  1.5868
  737MOL0     O97153   7.946  10.464   5.629 -0.5785  0.2498  0.2496
  737MOL0     C97154   7.834  10.480   5.588  0.4189  0.5103  0.1505
  737MOL0     O97155   7.796  10.563   5.485  0.7351  0.0109  0.6032
  737MOL0     C97156   7.876  10.662   5.433 -0.8659  0.4157 -1.4592
  737MOL0     C97157   7.809  10.775   5.374  0.1114 -1.0356 -0.3354
  737MOL0     C97158   7.888  10.877   5.307 -0.6381 -0.5442 -0.5980
  737MOL0     C97159   8.031  10.870   5.301  0.7229 -0.6307  0.0424
  737MOL0     O97160   8.104  10.961   5.232 -0.1088 -0.6209 -0.0454
  737MOL0     C97161   8.244  10.951   5.234  0.9449 -0.9148  0.0651
  737MOL0     C97162   8.303  11.026   5.354  0.6324  0.2801 -0.7434
  737MOL0     C97163   8.456  11.030   5.357  0.3584 -0.5596  0.4611
  737MOL0     C97164   8.521  10.896   5.346  0.3751 -0.0239 -0.4182
  737MOL0     C97165   8.674  10.892   5.334 -0.6455 -0.2535  0.4498
  737MOL0     C97166   8.749  10.946   5.462  0.5179 -0.3601  0.2431
  737MOL0     C97167   8.895  10.934   5.457  0.0738  0.6492 -0.0228
  737MOL0     C97168   8.970  11.035   5.542 -0.1033 -0.1275 -0.4588
  737MOL0     N97169   9.112  10.994   5.532  0.2208  0.4390  1.0773
  737MOL0     C97170   9.163  10.869   5.569  0.5142 -0.9640  0.3873
  737MOL0     C97171   9.276  10.847   5.498  0.5081  0.1226  0.1341
  737MOL0     C97172   9.359  10.716   5.490  0.2024 -0.2023 -0.5696
  737MOL0     C97173   9.468  10.705   5.598  0.0135 -0.1231  0.4259
  737MOL0     C97174   9.600  10.655   5.535  0.8263  0.7926 -0.7328
  737MOL0     C97175   9.702  10.621   5.649 -0.0677 -0.7697 -0.4203
  737MOL0     O97176   9.799  10.531   5.590  0.3876 -0.1889  0.0884
  737MOL0     C97177   9.928  10.532   5.642  0.4802  0.4004  0.1833
  737MOL0     C97178  10.020  10.462   5.564 -0.5772  0.4328 -0.6889
  737MOL0     C97179  10.155  10.464   5.602 -0.4464 -0.5689 -0.5003
  737MOL0     C97180  10.195  10.516   5.723  0.3706  1.0693 -0.6093
  737MOL0     C97181  10.336  10.513   5.776  0.3786  0.1760  0.3069
  737MOL0     O97182  10.409  10.402   5.741 -0.0227  0.3129  1.1228
  737MOL0     C97183  10.546  10.400   5.770 -0.6323 -0.7199 -1.1455
  737MOL0     C97184  10.607  10.276   5.804  0.2151 -0.0841 -0.0493
  737MOL0     C97185  10.751  10.277   5.824  0.1408  0.0609  0.6795
  737MOL0     C97186  10.833  10.385   5.807 -0.7718 -0.8301  0.8801
  737MOL0     O97187  10.966  10.376   5.830 -0.0704 -0.0756  0.4079
  737MOL0     C97188  11.028  10.283   5.751 -1.0269 -0.4446 -0.1090
  737MOL0     C97189  11.175  10.289   5.777 -0.2666  0.5124  0.4403
  737MOL0     C97190  11.263  10.402   5.717  0.5000 -0.9851  0.8838
  737MOL0     C97191  11.416  10.361   5.710 -0.0461  1.0772 -0.9750
  737MOL0     C97192  11.507  10.470   5.645 -1.0504  0.4274  0.9852
  737MOL0     C97193  11.662  10.442   5.661  0.4239 -0.0695 -0.7312
  737MOL0     C97194  11.746  10.553   5.606 -0.9568 -0.7942 -0.0545
  737MOL0     C97195  11.893  10.538   5.640  0.8546  0.4935  0.5287
  737MOL0    Cl97196  11.964  10.381   5.597 -0.0789  0.4043  0.7122
  737MOL0     C97197  10.775  10.505   5.787  0.4911 -0.0632  0.3253
  737MOL0     C97198  10.631  10.520   5.769  0.6093 -0.9911  0.0979
  737MOL0     O97199  10.371  10.598   5.861  0.0685  0.2926 -0.1374
  737MOL0     C97200  10.095  10.590   5.800 -0.1777  0.1303 -0.0186
  737MOL0     C97201   9.967  10.584   5.765  0.3387 -0.2380 -0.4593
  737MOL0     N97202   9.295  10.956   5.419  0.2369 -0.3732  0.1123
  737MOL0     N97203   9.199  11.046   5.439 -0.1183  0.3760  0.5586
  737MOL0     C97204   8.090  10.770   5.381 -1.1610 -0.1396 -1.0438
  737MOL0     C97205   8.012  10.671   5.442 -0.1152  0.3672  0.2717
  737MOL0     C97206   7.730  10.402   5.660 -0.5110  0.7238  0.1827
  737MOL0     C97207   7.737  10.262   5.683  0.0116  0.1960  0.5084
  737MOL0     C97208   7.655  10.211   5.788  0.9288 -0.3300 -0.4368
  737MOL0     C97209   7.549  10.282   5.839  0.5287  0.3214  0.0985
  737MOL0     O97210   7.456  10.210   5.908 -0.0756  0.3087  0.2796
  737MOL0     C97211   7.417  10.278   6.027  0.1909  0.6470 -0.3698
  737MOL0     C97212   7.374  10.166   6.117  0.3132  0.6975 -0.3667
  737MOL0     C97213   7.318  10.207   6.254  0.8818  0.4106 -0.0144
  737MOL0     C97214   7.286  10.084   6.341  0.1121  0.5086 -0.2277
  737MOL0     C97215   7.154  10.020   6.310 -0.0011  0.1243 -1.2045
  737MOL0     C97216   7.039   9.993   6.292  0.3180  0.4615 -0.7027
  737MOL0     C97217   7.543  10.417   5.823 -0.0424 -0.6214 -0.0791
  737MOL0     C97218   7.638  10.476   5.744 -0.2877 -0.0229  0.5809
  737MOL0     H97219   7.704  10.797   5.390  1.3669  4.4706  2.7890
  737MOL0     H97220   7.864  10.960   5.242  2.8255  0.0096 -1.3604
  737MOL0     H97221   8.272  11.013   5.148 -1.0612 -0.1329 -0.0743
  737MOL0     H97222   8.284  10.850   5.224  2.0319 -0.5531  0.5900
  737MOL0     H97223   8.275  10.972   5.444  1.3201 -2.0377 -1.8499
  737MOL0     H97224   8.271  11.130   5.342 -3.0129 -0.7480 -0.8417
  737MOL0     H97225   8.491  11.065   5.454 -0.2915  0.5853  0.3066
  737MOL0     H97226   8.475  11.101   5.275 -3.6805 -2.1372 -2.1691
  737MOL0     H97227   8.499  10.845   5.441  6.3134  0.0869  1.4037
  737MOL0     H97228   8.471  10.835   5.270 -0.4010  0.6239 -0.4411
  737MOL0     H97229   8.691  10.943   5.239 -2.5869 -3.2870 -1.7132
  737MOL0     H97230   8.699  10.786   5.322 -0.0528 -0.3963  2.5640
  737MOL0     H97231   8.714  10.891   5.550 -0.4862  0.6860  0.5323
  737MOL0     H97232   8.715  11.047   5.489 -1.2724 -0.1050 -2.5744
  737MOL0     H97233   8.921  10.839   5.504 -0.6518  1.4219  2.0480
  737MOL0     H97234   8.928  10.947   5.353  2.2987  2.5667  0.8206
  737MOL0     H97235   8.941  11.023   5.646  0.7461 -4.5220 -0.5397
  737MOL0     H97236   8.966  11.136   5.499  2.1986 -0.5515 -1.8251
  737MOL0     H97237   9.117  10.802   5.642  0.5019 -0.9134  0.4256
  737MOL0     H97238   9.403  10.731   5.390  0.4381  5.9112  0.0784
  737MOL0     H97239   9.290  10.636   5.518 -1.0691  1.4929  1.4259
  737MOL0     H97240   9.428  10.668   5.693 -2.8854  0.7207 -0.3658
  737MOL0     H97241   9.504  10.803   5.631  1.0475 -0.4556  0.3203
  737MOL0     H97242   9.568  10.566   5.481  1.6702  0.9209 -1.4737
  737MOL0     H97243   9.632  10.719   5.452 -2.5159 -0.7876 -3.4845
  737MOL0     H97244   9.654  10.572   5.734  2.9289  0.4067  2.1337
  737MOL0     H97245   9.732  10.722   5.679 -2.0122  0.4044 -2.1174
  737MOL0     H97246   9.990  10.418   5.470 -1.5067  3.0694 -1.7146
  737MOL0     H97247  10.222  10.404   5.541  0.5452 -0.4697  0.4675
  737MOL0     H97248  10.552  10.184   5.817 -0.6378  0.5073  0.6036
  737MOL0     H97249  10.791  10.182   5.861 -1.7178 -0.2639  2.0171
  737MOL0     H97250  11.024  10.318   5.647  2.8323  0.5886 -0.0920
  737MOL0     H97251  10.989  10.182   5.766  3.2069 -2.6614 -2.1131
  737MOL0     H97252  11.216  10.191   5.752  1.6812  0.6515  2.7059
  737MOL0     H97253  11.199  10.307   5.882  0.8103 -0.1669  0.3243
  737MOL0     H97254  11.261  10.492   5.779  0.4652 -0.4773  0.1593
  737MOL0     H97255  11.231  10.426   5.615 -0.8491  1.2037  1.7563
  737MOL0     H97256  11.450  10.333   5.810 -1.4397 -0.7019 -0.9306
  737MOL0     H97257  11.430  10.268   5.654 -0.4061 -0.7081  1.7109
  737MOL0     H97258  11.483  10.570   5.683 -0.7755  2.1536 -2.9083
  737MOL0     H97259  11.482  10.472   5.538 -0.4527 -1.4400  0.7702
  737MOL0     H97260  11.673  10.344   5.614 -0.5376  0.0142 -1.1642
  737MOL0     H97261  11.686  10.427   5.766 -1.2414 -2.5691 -0.6150
  737MOL0     H97262  11.746  10.559   5.496  3.2713  0.2636 -0.1651
  737MOL0     H97263  11.717  10.655   5.630  1.5012 -0.5890  2.5197
  737MOL0     H97264  11.918  10.561   5.744  0.2489  0.0955  0.7657
  737MOL0     H97265  11.938  10.614   5.576  0.9596 -0.8626 -1.0744
  737MOL0     H97266  10.838  10.590   5.763 -1.0801  1.4434  1.3280
  737MOL0     H97267  10.590  10.618   5.748 -0.8568 -1.8006 -0.9570
  737MOL0     H97268  10.137  10.633   5.890  0.8023  4.6457 -2.3625
  737MOL0     H97269   9.903  10.629   5.841 -1.3560 -2.8124 -0.2411
  737MOL0     H97270   8.198  10.769   5.390 -1.3082  0.8190  1.4579
  737MOL0     H97271   8.073  10.604   5.502 -2.0039  1.7971  4.1101
  737MOL0     H97272   7.818  10.211   5.632 -1.6430  0.8963 -3.1663
  737MOL0     H97273   7.652  10.104   5.805  0.0652 -0.3465 -0.6183
  737MOL0     H97274   7.335  10.349   6.012 -1.4165 -1.1123 -0.2152
  737MOL0     H97275   7.501  10.325   6.079 -1.1250  2.3309  0.3491
  737MOL0     H97276   7.293  10.118   6.062  1.4917 -0.5090 -1.1101
  737MOL0     H97277   7.451  10.088   6.121  2.3443  2.2633 -3.8733
  737MOL0     H97278   7.226  10.265   6.248  0.8607  0.5429  1.3422
  737MOL0     H97279   7.389  10.272   6.306  0.1640  0.6502  0.6922
  737MOL0     H97280   7.360  10.003   6.335 -1.0421 -1.1262  3.8709
  737MOL0     H97281   7.291  10.126   6.442  1.8215  0.3166 -0.1923
  737MOL0     H97282   6.941   9.961   6.263  0.2588 -1.8633  1.6019
  737MOL0     H97283   7.480  10.484   5.881  1.9877  0.8786  0.5123
  737MOL0     H97284   7.640  10.583   5.732  1.8471 -0.0366  0.3814
  738MOL0     O97285   6.927   7.349   1.692  0.4743  0.7295 -0.7738
  738MOL0     C97286   6.859   7.248   1.693  0.5593 -0.4803 -0.2243
  738MOL0     O97287   6.719   7.245   1.670  0.4257 -0.1615 -0.4889
  738MOL0     C97288   6.659   7.372   1.655 -0.2242 -0.1761 -0.4731
  738MOL0     C97289   6.553   7.424   1.732  0.0639  0.6934 -0.5605
  738MOL0     C97290   6.486   7.546   1.691  0.2174 -0.7008 -0.0898
  738MOL0     C97291   6.519   7.619   1.576  0.2650  0.3159  0.0400
  738MOL0     O97292   6.449   7.733   1.537 -0.2671 -0.5805  1.0080
  738MOL0     C97293   6.371   7.803   1.640  0.1190  0.7391  0.0557
  738MOL0     C97294   6.458   7.875   1.744 -0.7364 -0.6135 -1.1133
  738MOL0     C97295   6.551   7.988   1.693  0.3205  0.1314 -0.1055
  738MOL0     C97296   6.663   8.030   1.782 -0.4986 -1.1374  0.2493
  738MOL0     C97297   6.788   8.099   1.713  0.2677  0.2266  0.1397
  738MOL0     C97298   6.767   8.232   1.650  0.3675 -0.2896  1.2199
  738MOL0     C97299   6.891   8.264   1.567  0.6906  0.2565 -1.2574
  738MOL0     C97300   7.012   8.308   1.651  0.2259  0.0408  0.3500
  738MOL0     N97301   7.122   8.352   1.564 -0.0200 -0.9659  0.5806
  738MOL0     C97302   7.112   8.465   1.488 -0.4832 -0.8444  0.5265
  738MOL0     C97303   7.211   8.464   1.401 -0.7703  0.4302  0.0336
  738MOL0     C97304   7.246   8.580   1.320 -0.6177 -0.6607  0.5777
  738MOL0     C97305   7.376   8.645   1.359 -0.1893 -0.7386 -0.9017
  738MOL0     C97306   7.451   8.690   1.233  0.2464  0.4765  0.2733
  738MOL0     C97307   7.588   8.735   1.280 -0.6606  0.5658 -0.5125
  738MOL0     O97308   7.576   8.863   1.335 -0.2909 -0.4976  0.3743
  738MOL0     C97309   7.684   8.921   1.398 -0.8041  0.0279  0.4175
  738MOL0     C97310   7.800   8.848   1.440 -0.2625 -0.2129 -0.8489
  738MOL0     C97311   7.914   8.914   1.496  1.2006  0.3396 -0.1468
  738MOL0     C97312   7.903   9.053   1.519 -0.4251 -0.4630  0.6016
  738MOL0     C97313   8.019   9.130   1.580  0.6101  0.2362 -0.0555
  738MOL0     O97314   8.138   9.063   1.606  0.3599 -0.1843 -1.1321
  738MOL0     C97315   8.233   9.140   1.657 -0.8135  0.8119  0.6183
  738MOL0     C97316   8.264   9.162   1.790 -0.5904 -0.4168 -0.1046
  738MOL0     C97317   8.359   9.261   1.834  1.4716 -0.7067  0.3736
  738MOL0     C97318   8.430   9.331   1.737 -0.2125 -0.3433  0.2194
  738MOL0     O97319   8.505   9.440   1.782  0.0824 -0.2730 -0.1784
  738MOL0     C97320   8.564   9.519   1.688  0.9271 -0.5508  0.9405
  738MOL0     C97321   8.635   9.645   1.743  0.1052  0.6304 -0.0839
  738MOL0     C97322   8.761   9.606   1.833  0.0710  0.4155 -0.6581
  738MOL0     C97323   8.828   9.729   1.895 -0.3878  0.7064  0.2505
  738MOL0     C97324   8.937   9.689   1.993 -0.3113 -0.5596  0.2811
  738MOL0     C97325   8.984   9.808   2.075  0.5002  0.5378 -0.1622
  738MOL0     C97326   9.132   9.797   2.107  0.5426 -0.7264  0.2919
  738MOL0     C97327   9.160   9.710   2.228 -0.3572  0.1179 -0.4592
  738MOL0    Cl97328   9.096   9.539   2.222  0.0109  0.2855 -0.1364
  738MOL0     C97329   8.419   9.289   1.605 -0.0159  0.2860 -0.3317
  738MOL0     C97330   8.328   9.187   1.564  0.4211  0.9508 -0.4476
  738MOL0     O97331   8.010   9.255   1.577 -0.2509 -0.6008 -0.5628
  738MOL0     C97332   7.785   9.117   1.493  1.1092 -0.8063  0.1591
  738MOL0     C97333   7.679   9.059   1.434  0.0518  0.4697  0.5034
  738MOL0     N97334   7.269   8.336   1.411 -0.5534  0.0875 -0.3034
  738MOL0     N97335   7.216   8.270   1.505  0.4456 -0.3000  0.6072
  738MOL0     C97336   6.627   7.565   1.505  0.5548 -0.6671 -0.1750
  738MOL0     C97337   6.695   7.447   1.542  0.2154  0.1017  0.4178
  738MOL0     C97338   6.927   7.119   1.722  0.5583 -0.1585  0.2426
  738MOL0     C97339   6.857   7.001   1.725 -0.1974  0.1344 -0.6881
  738MOL0     C97340   6.916   6.877   1.749  0.6440  0.3333 -0.2892
  738MOL0     C97341   7.055   6.867   1.773  0.5390 -0.8461 -0.7238
  738MOL0     O97342   7.102   6.744   1.804 -0.1613  0.0430 -0.1906
  738MOL0     C97343   7.251   6.719   1.814  0.5680  0.4866 -0.2814
  738MOL0     C97344   7.253   6.605   1.926 -0.1971  0.1170 -0.5188
  738MOL0     C97345   7.383   6.570   1.982  0.2070 -0.0738  0.2189
  738MOL0     C97346   7.495   6.569   1.878 -0.5551 -0.3791 -0.4974
  738MOL0     C97347   7.462   6.483   1.765  0.7624 -0.4695 -0.1937
  738MOL0     C97348   7.421   6.417   1.674  0.1643 -0.5110  0.6767
  738MOL0     C97349   7.129   6.994   1.770  0.3747  0.8840  0.2672
  738MOL0     C97350   7.065   7.118   1.745 -0.5640 -0.1324 -0.1302
  738MOL0     H97351   6.500   7.380   1.816  0.0808 -1.3060 -1.5377
  738MOL0     H97352   6.407   7.583   1.755  0.7713  0.1298  0.1407
  738MOL0     H97353   6.293   7.743   1.688  0.3651  1.2175  1.0891
  738MOL0     H97354   6.316   7.888   1.598 -0.4974  1.9305  3.0181
  738MOL0     H97355   6.508   7.811   1.818  2.1614  3.3435  0.7397
  738MOL0     H97356   6.381   7.920   1.807  0.0082  2.2724 -2.1057
  738MOL0     H97357   6.489   8.077   1.675 -1.7746 -1.0982  0.6771
  738MOL0     H97358   6.596   7.959   1.597 -0.7490  0.0688 -0.6068
  738MOL0     H97359   6.621   8.094   1.860 -1.0172 -1.6301  0.3875
  738MOL0     H97360   6.706   7.942   1.829  1.9981 -0.2991 -0.3334
  738MOL0     H97361   6.825   8.028   1.638  0.3165 -0.3243  0.6775
  738MOL0     H97362   6.865   8.103   1.791  2.3515  1.0284 -1.8338
  738MOL0     H97363   6.744   8.311   1.721  0.1904  1.2244 -0.4322
  738MOL0     H97364   6.680   8.226   1.584  1.4067  0.7447 -0.3076
  738MOL0     H97365   6.920   8.175   1.511  0.1157 -0.4283 -0.4936
  738MOL0     H97366   6.868   8.340   1.492  2.1510  1.9983 -0.0223
  738MOL0     H97367   7.042   8.232   1.724  2.2099  1.4923  1.1501
  738MOL0     H97368   7.005   8.401   1.708  3.6275  0.3314  0.4932
  738MOL0     H97369   7.051   8.549   1.519 -0.8196 -0.6372 -0.6447
  738MOL0     H97370   7.154   8.639   1.319 -1.1319 -1.3337  2.6674
  738MOL0     H97371   7.253   8.548   1.216  0.7075  1.5277 -0.0857
  738MOL0     H97372   7.437   8.585   1.427 -2.1043 -0.3134  1.3040
  738MOL0     H97373   7.351   8.734   1.418  0.2256 -0.8226 -0.5941
  738MOL0     H97374   7.464   8.606   1.164  0.0116  1.1873 -0.6543
  738MOL0     H97375   7.391   8.761   1.175 -1.0940  0.0631  1.1167
  738MOL0     H97376   7.659   8.736   1.197 -0.0894 -0.9393 -0.0881
  738MOL0     H97377   7.629   8.664   1.354  0.2936  2.6192  1.0468
  738MOL0     H97378   7.804   8.740   1.431 -1.3855 -0.3606  0.1034
  738MOL0     H97379   8.001   8.855   1.523 -0.8277 -2.8335  0.0654
  738MOL0     H97380   8.209   9.105   1.865  2.7686 -4.6397 -0.4735
  738MOL0     H97381   8.364   9.271   1.941 -2.2965 -2.9448  0.9418
  738MOL0     H97382   8.489   9.557   1.618 -1.4338 -3.0975  1.8972
  738MOL0     H97383   8.645   9.465   1.638  2.8044  1.9799  1.0511
  738MOL0     H97384   8.568   9.696   1.812  0.7702 -0.7434  1.6387
  738MOL0     H97385   8.656   9.717   1.663  2.6269  0.1318  0.0356
  738MOL0     H97386   8.838   9.549   1.779  1.9484  1.8080  0.4115
  738MOL0     H97387   8.713   9.554   1.916  0.4433 -0.3992 -0.9424
  738MOL0     H97388   8.852   9.788   1.806 -1.5813 -0.8989 -1.1937
  738MOL0     H97389   8.751   9.778   1.956  0.4097  1.5508  0.5939
  738MOL0     H97390   9.010   9.636   1.931 -1.4053 -1.9377  0.0975
  738MOL0     H97391   8.897   9.611   2.059  2.3930 -0.0888  2.6670
  738MOL0     H97392   8.913   9.827   2.155  1.2801 -2.8163  1.4979
  738MOL0     H97393   8.990   9.898   2.012  2.1409  0.8700  0.4209
  738MOL0     H97394   9.202   9.764   2.030 -0.4475  0.8795 -1.3765
  738MOL0     H97395   9.162   9.900   2.131 -1.4832 -0.0863  0.2599
  738MOL0     H97396   9.122   9.766   2.313 -2.5266  2.5358 -2.8566
  738MOL0     H97397   9.268   9.701   2.247 -0.2383  1.9878 -0.0762
  738MOL0     H97398   8.484   9.350   1.543  0.6534 -0.9461 -0.8855
  738MOL0     H97399   8.312   9.170   1.458  2.5789  2.3484 -1.0840
  738MOL0     H97400   7.774   9.223   1.512  0.8068 -0.4798 -1.7128
  738MOL0     H97401   7.595   9.126   1.418 -1.0015 -0.8673  0.2754
  738MOL0     H97402   6.673   7.635   1.436 -1.9688  0.1027 -1.1672
  738MOL0     H97403   6.782   7.416   1.485  0.3527  0.0434  0.6581
  738MOL0     H97404   6.751   7.000   1.702 -0.2952  1.6935 -0.4035
  738MOL0     H97405   6.857   6.786   1.749 -1.8060  1.7965 -1.9516
  738MOL0     H97406   7.311   6.804   1.847  0.5129  0.9024 -1.2362
  738MOL0     H97407   7.286   6.680   1.718  1.4402  1.8673 -0.5522
  738MOL0     H97408   7.198   6.640   2.014  5.0277  2.2286  2.3596
  738MOL0     H97409   7.211   6.511   1.891 -0.2066  0.7181 -2.2088
  738MOL0     H97410   7.377   6.483   2.047  1.5278 -0.1256  0.3129
  738MOL0     H97411   7.408   6.644   2.058 -0.4132  1.7779 -1.3013
  738MOL0     H97412   7.497   6.674   1.848 -1.4467  0.1841  1.2314
  738MOL0     H97413   7.593   6.548   1.921  0.1258 -0.0576 -1.8588
  738MOL0     H97414   7.358   6.373   1.598 -0.5855  2.7722 -0.7589
  738MOL0     H97415   7.233   6.998   1.800  1.9605 -2.2392 -3.7853
  738MOL0     H97416   7.119   7.211   1.730  0.5055 -0.9579 -1.6148
  739MOL0     O97417   2.065  10.129  11.364 -0.0131 -0.0730 -0.1041
  739MOL0     C97418   2.026  10.029  11.425 -0.3210 -0.1998  0.6593
  739MOL0     O97419   2.074   9.978  11.542  0.0258  0.0280 -0.6745
  739MOL0     C97420   2.184  10.035  11.608 -0.2261  0.1572  0.9739
  739MOL0     C97421   2.196  10.174  11.637  0.5427 -0.1012  1.2537
  739MOL0     C97422   2.309  10.223  11.696  0.5044  0.0300  0.3232
  739MOL0     C97423   2.418  10.149  11.719  0.0104  0.5216  0.1473
  739MOL0     O97424   2.520  10.220  11.767 -0.2746  0.3371  0.0721
  739MOL0     C97425   2.574  10.165  11.885  0.2071 -0.1805 -0.3653
  739MOL0     C97426   2.708  10.119  11.850  0.7237 -0.6102  0.6108
  739MOL0     C97427   2.763  10.052  11.974 -0.4366 -0.2238  0.3197
  739MOL0     C97428   2.913  10.010  11.970  0.0330 -0.5117  0.1766
  739MOL0     C97429   2.941   9.906  12.071 -0.4626 -0.1479  0.3833
  739MOL0     C97430   3.089   9.876  12.072  0.8057 -0.4979  0.5178
  739MOL0     C97431   3.155   9.811  11.942 -0.2009  1.6223 -0.4463
  739MOL0     C97432   3.273   9.731  11.985  0.3111  1.2359 -0.2036
  739MOL0     N97433   3.382   9.818  12.027  0.4411  0.0536  0.0526
  739MOL0     C97434   3.467   9.882  11.943  0.2738  0.5625  0.4278
  739MOL0     C97435   3.569   9.921  12.017 -1.2153 -0.4055  0.9293
  739MOL0     C97436   3.695   9.991  11.976 -0.0492 -0.1323 -0.5446
  739MOL0     C97437   3.814   9.994  12.079 -0.0013  0.8795  0.5375
  739MOL0     C97438   3.926  10.071  12.013  0.3291 -0.5477  0.7252
  739MOL0     C97439   4.053  10.036  12.079  0.6040 -0.2013  0.6318
  739MOL0     O97440   4.172  10.086  12.011 -0.2946  0.5829  0.4228
  739MOL0     C97441   4.292  10.086  12.079 -0.1671 -0.9017  0.7698
  739MOL0     C97442   4.331  10.008  12.190  0.7902 -0.0950 -0.3462
  739MOL0     C97443   4.451  10.023  12.258 -0.6580  0.1550  0.7693
  739MOL0     C97444   4.551  10.112  12.209  0.3757  0.7965  1.0328
  739MOL0     C97445   4.687  10.127  12.264 -0.7856  0.0984 -0.7164
  739MOL0     O97446   4.765  10.200  12.179  0.0862  0.2187 -0.7745
  739MOL0     C97447   4.897  10.240  12.197 -0.0017 -0.2682 -0.9210
  739MOL0     C97448   4.972  10.237  12.316 -0.1504  0.1084 -0.4356
  739MOL0     C97449   5.110  10.280  12.315  0.0199 -0.2162 -1.0141
  739MOL0     C97450   5.179  10.317  12.205 -0.6180 -0.4116 -0.1148
  739MOL0     O97451   5.311  10.363  12.205  1.3333  1.2230 -0.0532
  739MOL0     C97452   5.377  10.396  12.326  0.2695  0.5933 -0.1687
  739MOL0     C97453   5.503  10.475  12.289 -0.3061  0.3947  1.1997
  739MOL0     C97454   5.531  10.556  12.415 -0.4405 -0.2606  0.0797
  739MOL0     C97455   5.632  10.671  12.398 -0.1507  0.8398  0.2858
  739MOL0     C97456   5.639  10.766  12.518 -0.5389 -0.5215  0.4223
  739MOL0     C97457   5.641  10.917  12.497  0.4424 -0.6199  0.4377
  739MOL0     C97458   5.517  10.976  12.440 -0.2082 -0.5206  0.3653
  739MOL0     C97459   5.540  11.118  12.382 -0.6246  0.2788  0.1930
  739MOL0    Cl97460   5.401  11.187  12.274 -0.2618 -0.1416  0.1915
  739MOL0     C97461   5.098  10.324  12.084  0.4901  0.2835  0.6809
  739MOL0     C97462   4.963  10.283  12.082 -0.5342  0.5333  0.2844
  739MOL0     O97463   4.728  10.058  12.358 -0.5907 -0.4850  0.2081
  739MOL0     C97464   4.514  10.179  12.088  0.3041  0.4077 -0.5944
  739MOL0     C97465   4.386  10.174  12.022  0.0812 -0.3201 -0.3802
  739MOL0     N97466   3.553   9.875  12.143 -0.1837  0.2245 -0.0455
  739MOL0     N97467   3.437   9.820  12.155 -0.0937  0.2254 -0.5619
  739MOL0     C97468   2.419  10.013  11.683  0.5455  0.0742 -0.8602
  739MOL0     C97469   2.305   9.963  11.623  0.6635 -0.1561  0.8038
  739MOL0     C97470   1.892   9.970  11.388 -0.2339  0.5128 -0.1235
  739MOL0     C97471   1.834  10.002  11.264 -0.1109  0.1028 -0.0729
  739MOL0     C97472   1.704   9.967  11.235 -0.0716 -0.1971 -0.1831
  739MOL0     C97473   1.634   9.889  11.322 -0.3430 -0.8038 -0.2199
  739MOL0     O97474   1.506   9.847  11.294  0.4942  0.6193  1.0412
  739MOL0     C97475   1.436   9.899  11.176 -0.3366  0.2516 -0.5609
  739MOL0     C97476   1.293   9.846  11.185 -0.7456 -0.3194  0.2282
  739MOL0     C97477   1.215   9.886  11.306  0.4445  0.7636 -0.3983
  739MOL0     C97478   1.098   9.792  11.323  0.1611  0.2203 -0.3348
  739MOL0     C97479   1.050   9.820  11.455  0.2933 -0.2227 -0.0508
  739MOL0     C97480   1.016   9.864  11.567  0.2597  0.0483  0.1578
  739MOL0     C97481   1.697   9.834  11.434  0.1540  0.1611 -0.7512
  739MOL0     C97482   1.824   9.866  11.474  0.0628 -1.6179  1.0752
  739MOL0     H97483   2.114  10.239  11.610  0.1329 -1.3307 -0.6539
  739MOL0     H97484   2.313  10.326  11.731 -0.4472  0.2555 -0.1892
  739MOL0     H97485   2.515  10.086  11.933  1.0474  0.9917  2.9117
  739MOL0     H97486   2.591  10.233  11.969  0.0418 -0.9764  0.3304
  739MOL0     H97487   2.775  10.203  11.829  0.1334 -0.6685 -1.7351
  739MOL0     H97488   2.716  10.048  11.768  3.8233  1.6044 -1.1920
  739MOL0     H97489   2.705   9.964  12.005  0.0415 -0.8108 -0.4001
  739MOL0     H97490   2.754  10.120  12.059 -0.1938  0.3109 -0.0782
  739MOL0     H97491   2.941   9.961  11.876 -0.3892  0.5869 -0.5372
  739MOL0     H97492   2.967  10.104  11.980  0.0361 -0.4531 -0.3625
  739MOL0     H97493   2.880   9.821  12.042 -1.3725  1.2398 -2.0752
  739MOL0     H97494   2.907   9.933  12.171  2.8721 -0.6999  1.8106
  739MOL0     H97495   3.102   9.794  12.143 -0.2616 -2.5257 -1.5029
  739MOL0     H97496   3.140   9.971  12.093  0.6702  0.0753 -1.5648
  739MOL0     H97497   3.084   9.752  11.884  0.3291 -0.1937  0.6738
  739MOL0     H97498   3.188   9.889  11.874 -1.5079  0.5142 -2.4447
  739MOL0     H97499   3.322   9.671  11.908 -0.4370 -1.1126  1.0595
  739MOL0     H97500   3.256   9.653  12.060  2.9105  1.3438  0.6090
  739MOL0     H97501   3.460   9.888  11.835  0.3720 -5.0077 -0.2151
  739MOL0     H97502   3.670  10.097  11.988 -0.7682 -0.1258 -1.9034
  739MOL0     H97503   3.726   9.972  11.872  0.6372  1.4999 -0.6781
  739MOL0     H97504   3.846   9.893  12.105  0.6176  0.6035 -1.1507
  739MOL0     H97505   3.812  10.060  12.166  3.5420  0.6220  0.9396
  739MOL0     H97506   3.941  10.039  11.909 -0.3647 -2.4848  1.1819
  739MOL0     H97507   3.902  10.177  12.003  0.9758 -0.5325 -1.0025
  739MOL0     H97508   4.060   9.927  12.078 -1.3805 -0.3644 -0.1738
  739MOL0     H97509   4.052  10.070  12.183  1.1456 -1.0613  0.9212
  739MOL0     H97510   4.267   9.930  12.230  0.2809  0.0533 -0.8578
  739MOL0     H97511   4.466   9.964  12.348 -1.0694 -0.7578  0.2495
  739MOL0     H97512   4.925  10.213  12.411 -3.3297  0.7158 -1.7100
  739MOL0     H97513   5.172  10.278  12.404 -0.4621  2.8491 -0.4951
  739MOL0     H97514   5.400  10.314  12.394 -1.4780  1.7010  1.9126
  739MOL0     H97515   5.310  10.464  12.380 -2.1685 -2.8687  1.5192
  739MOL0     H97516   5.476  10.548  12.213  0.4821  0.1441  0.6600
  739MOL0     H97517   5.573  10.397  12.256 -1.9128 -2.1672  3.4410
  739MOL0     H97518   5.575  10.480  12.481  0.2874  0.0524 -0.0394
  739MOL0     H97519   5.440  10.604  12.452 -0.2515  1.7135 -1.8348
  739MOL0     H97520   5.727  10.624  12.373 -2.5146 -3.1200 -2.4093
  739MOL0     H97521   5.603  10.727  12.309  1.0506  0.0447 -0.6353
  739MOL0     H97522   5.731  10.738  12.570 -1.1073 -0.9326  1.2265
  739MOL0     H97523   5.555  10.744  12.584 -1.1238  0.4835  0.0494
  739MOL0     H97524   5.729  10.941  12.436  2.4224 -0.4262  3.2007
  739MOL0     H97525   5.655  10.966  12.593  0.2854  2.0658 -0.7999
  739MOL0     H97526   5.484  10.919  12.352  0.1752  2.0143 -1.5425
  739MOL0     H97527   5.435  10.967  12.512 -1.5817 -1.3269 -1.2215
  739MOL0     H97528   5.627  11.102  12.318  1.5028 -1.4647  3.2663
  739MOL0     H97529   5.553  11.179  12.472 -1.7864 -1.5994  1.6944
  739MOL0     H97530   5.137  10.349  11.985 -0.0437  0.1661  0.4384
  739MOL0     H97531   4.903  10.279  11.991 -0.8973  1.5300  0.4724
  739MOL0     H97532   4.591  10.232  12.033 -0.4511  0.6807 -1.4221
  739MOL0     H97533   4.357  10.248  11.947 -2.2535 -1.0313 -0.2707
  739MOL0     H97534   2.502   9.948  11.710  1.2774 -1.1352 -5.2329
  739MOL0     H97535   2.295   9.861  11.588 -0.1168  0.4398 -0.7894
  739MOL0     H97536   1.882  10.070  11.194  2.0780 -0.4489  0.8176
  739MOL0     H97537   1.652  10.016  11.153  2.3083 -0.6873 -2.1358
  739MOL0     H97538   1.495   9.866  11.090  3.6145  0.2655  1.8761
  739MOL0     H97539   1.438  10.008  11.165  1.6208  0.4040  0.7083
  739MOL0     H97540   1.231   9.871  11.098  0.2887 -0.7029 -0.6432
  739MOL0     H97541   1.307   9.737  11.192 -0.2721 -0.3091 -0.4803
  739MOL0     H97542   1.177   9.988  11.294  0.9373  1.1467  1.0862
  739MOL0     H97543   1.278   9.884  11.396  1.2519 -1.1891 -0.9456
  739MOL0     H97544   1.023   9.797  11.244  0.4981 -3.9842 -1.1311
  739MOL0     H97545   1.127   9.688  11.312  2.2384  0.9733 -2.8523
  739MOL0     H97546   0.991   9.904  11.664  2.2841 -0.5292  0.9721
  739MOL0     H97547   1.629   9.775  11.494  1.1417  0.9491  1.2053
  739MOL0     H97548   1.864   9.824  11.565 -2.0690 -4.9514  0.6504
  740MOL0     O97549   3.121   8.160   7.148  0.2427  0.3701 -0.0694
  740MOL0     C97550   3.136   8.051   7.099 -0.5109 -1.2388 -0.0171
  740MOL0     O97551   3.040   7.954   7.060 -0.5034  0.4829  0.4483
  740MOL0     C97552   2.910   7.992   7.041 -0.0546  0.6958  0.1653
  740MOL0     C97553   2.805   7.899   7.073 -1.3818 -0.6449 -0.4240
  740MOL0     C97554   2.680   7.920   7.032 -0.9012 -0.8290 -0.0707
  740MOL0     C97555   2.642   8.037   6.977  0.1204 -0.5301  0.0254
  740MOL0     O97556   2.509   8.061   6.941 -0.4902  0.6763  0.0022
  740MOL0     C97557   2.444   8.161   7.024 -0.2777  1.1010  0.4709
  740MOL0     C97558   2.382   8.102   7.155  0.3895 -0.7255  0.9898
  740MOL0     C97559   2.303   7.976   7.130  0.1485  0.2674  0.1897
  740MOL0     C97560   2.153   8.007   7.087 -0.4098 -0.7271  0.0462
  740MOL0     C97561   2.074   7.894   7.021  0.3568 -0.8783  0.3074
  740MOL0     C97562   2.139   7.823   6.900 -0.9507 -0.7826  0.0394
  740MOL0     C97563   2.129   7.907   6.774 -0.9260 -0.3545  0.1001
  740MOL0     C97564   2.027   7.858   6.667  0.6220  0.2357 -0.0726
  740MOL0     N97565   1.891   7.902   6.705 -0.5363 -0.8504  0.5664
  740MOL0     C97566   1.800   7.819   6.771  0.2655 -0.5750  0.4120
  740MOL0     C97567   1.686   7.897   6.774  0.8327  0.1467 -0.5463
  740MOL0     C97568   1.552   7.851   6.820  0.7052  1.3658  1.1495
  740MOL0     C97569   1.436   7.901   6.723 -0.3456  0.0306 -0.3291
  740MOL0     C97570   1.301   7.846   6.755 -0.4815 -0.3627  0.2911
  740MOL0     C97571   1.255   7.725   6.675  0.8475 -0.1456 -0.0699
  740MOL0     O97572   1.128   7.671   6.723 -0.0828  0.2581  0.2500
  740MOL0     C97573   1.007   7.729   6.695 -0.6590 -0.3843 -0.0623
  740MOL0     C97574   0.988   7.806   6.581  0.5835  0.2744  0.2688
  740MOL0     C97575   0.860   7.869   6.557 -0.4564  0.3013  0.9478
  740MOL0     C97576   0.755   7.858   6.648  0.8264  0.5805  0.5112
  740MOL0     C97577   0.621   7.923   6.642 -0.3789 -0.4710 -0.2571
  740MOL0     O97578   0.527   7.895   6.744 -0.0862  0.1050 -0.1032
  740MOL0     C97579   0.400   7.949   6.735 -0.6561 -0.6788  1.3586
  740MOL0     C97580   0.316   7.939   6.618  0.0841  0.5803 -0.2563
  740MOL0     C97581   0.191   7.999   6.607  0.0715  0.4558 -0.2609
  740MOL0     C97582   0.146   8.082   6.712 -0.9386  0.9222 -1.5614
  740MOL0     O97583   0.043   8.171   6.715  0.7091 -0.2320 -0.1301
  740MOL0     C97584   0.001   8.234   6.599 -0.3619 -0.2118 -0.7176
  740MOL0     C97585  -0.135   8.167   6.560 -0.1301  0.2449  0.8280
  740MOL0     C97586  -0.180   8.214   6.420  0.5092 -0.5751 -0.0370
  740MOL0     C97587  -0.241   8.356   6.411 -0.1207  0.3185 -1.0222
  740MOL0     C97588  -0.310   8.365   6.276  0.8426  0.0760 -0.5642
  740MOL0     C97589  -0.432   8.449   6.270 -0.3642  1.2325  0.1429
  740MOL0     C97590  -0.488   8.430   6.128  0.1678 -0.3273 -0.0549
  740MOL0     C97591  -0.631   8.484   6.133  0.1012 -0.2522 -0.0873
  740MOL0    Cl97592  -0.617   8.668   6.155  0.2115  0.0030 -0.3461
  740MOL0     C97593   0.217   8.077   6.834 -0.1016 -0.8170  0.6780
  740MOL0     C97594   0.340   8.014   6.843  0.2436 -0.6382  0.0941
  740MOL0     O97595   0.600   7.998   6.551  0.5520  0.1692  0.3831
  740MOL0     C97596   0.770   7.765   6.748 -0.6845  0.7958  0.4009
  740MOL0     C97597   0.895   7.699   6.767 -0.0844 -0.6915 -0.1505
  740MOL0     N97598   1.717   8.019   6.705  0.2828 -0.3006 -0.4696
  740MOL0     N97599   1.836   8.017   6.669  0.1255 -0.9669  0.2084
  740MOL0     C97600   2.743   8.135   6.944 -0.6076 -0.4648  0.1585
  740MOL0     C97601   2.875   8.111   6.984  0.3695 -1.0638 -0.6190
  740MOL0     C97602   3.273   8.011   7.070  0.1919  0.8324 -1.3802
  740MOL0     C97603   3.376   8.109   7.072 -0.1272 -0.4141  0.1504
  740MOL0     C97604   3.513   8.078   7.077 -0.2907 -0.5370  0.3949
  740MOL0     C97605   3.547   7.941   7.079 -0.1235  1.1160  0.2505
  740MOL0     O97606   3.684   7.916   7.101  0.5888  0.2017  0.7618
  740MOL0     C97607   3.707   7.814   7.200  0.4164 -0.2745 -0.1836
  740MOL0     C97608   3.856   7.816   7.242 -0.4888 -0.2915  0.7542
  740MOL0     C97609   3.949   7.765   7.131 -0.1298 -0.1284 -0.3885
  740MOL0     C97610   4.100   7.763   7.165 -0.2376  0.4698  0.0196
  740MOL0     C97611   4.188   7.728   7.042 -1.1155 -0.4349 -0.2227
  740MOL0     C97612   4.248   7.689   6.944 -0.6011 -0.2069 -0.2919
  740MOL0     C97613   3.449   7.844   7.063  0.0484 -0.5992 -0.3228
  740MOL0     C97614   3.318   7.876   7.059  0.1321  0.4160 -0.5256
  740MOL0     H97615   2.829   7.805   7.120  2.1072 -0.4667 -1.5367
  740MOL0     H97616   2.610   7.839   7.052  0.7440 -2.1915  0.4078
  740MOL0     H97617   2.364   8.209   6.968 -0.4799  1.8738  1.3983
  740MOL0     H97618   2.514   8.237   7.060  1.3073 -1.1467  2.4745
  740MOL0     H97619   2.315   8.180   7.192 -0.8910  2.0130 -5.5740
  740MOL0     H97620   2.462   8.080   7.226  1.8564  1.9017  0.3133
  740MOL0     H97621   2.303   7.931   7.229  1.9147  0.2142  0.1959
  740MOL0     H97622   2.354   7.915   7.054  2.5945  1.5526  0.6825
  740MOL0     H97623   2.104   8.021   7.184  0.8990 -0.6821  0.7309
  740MOL0     H97624   2.139   8.097   7.028  0.3781  0.7942  2.0316
  740MOL0     H97625   1.972   7.925   6.998 -0.1343 -2.9717 -0.5888
  740MOL0     H97626   2.056   7.824   7.103 -0.1319 -1.0897  0.0216
  740MOL0     H97627   2.090   7.726   6.885  0.5393 -1.8229  1.4818
  740MOL0     H97628   2.243   7.797   6.921 -0.0197  2.2082 -0.4796
  740MOL0     H97629   2.106   8.011   6.797 -0.7898 -0.8005  2.5842
  740MOL0     H97630   2.231   7.909   6.734 -0.8926 -0.1043  0.1989
  740MOL0     H97631   2.018   7.750   6.649  1.3602  0.1463  0.0469
  740MOL0     H97632   2.051   7.906   6.572  1.6549 -0.2539 -0.0762
  740MOL0     H97633   1.813   7.717   6.807 -3.6192 -3.1580 -4.1791
  740MOL0     H97634   1.526   7.896   6.916 -1.6892  2.6716 -0.0260
  740MOL0     H97635   1.550   7.742   6.834  1.3406  1.2560  0.4672
  740MOL0     H97636   1.458   7.879   6.618 -0.0293  0.7438 -0.4191
  740MOL0     H97637   1.436   8.010   6.728 -2.9061  0.1790 -1.9314
  740MOL0     H97638   1.305   7.815   6.860  1.4661  1.4704  0.8308
  740MOL0     H97639   1.218   7.913   6.733 -3.7791 -4.0705  0.3249
  740MOL0     H97640   1.335   7.656   6.702  0.1912 -0.4961  1.0256
  740MOL0     H97641   1.262   7.734   6.566 -1.1936 -2.3979 -0.4640
  740MOL0     H97642   1.064   7.824   6.507 -0.3650  0.2112 -0.7485
  740MOL0     H97643   0.855   7.932   6.468 -0.0673  3.7114  3.1408
  740MOL0     H97644   0.349   7.863   6.548 -2.0598 -2.9862  2.2724
  740MOL0     H97645   0.129   7.987   6.519  1.1078  1.8413 -1.2297
  740MOL0     H97646   0.073   8.227   6.516 -0.8950 -0.7899 -1.1454
  740MOL0     H97647  -0.011   8.342   6.606 -3.4517 -0.5871  1.1267
  740MOL0     H97648  -0.203   8.185   6.643  0.4712  1.6977  1.0283
  740MOL0     H97649  -0.113   8.060   6.550 -0.9652 -0.0126  1.6284
  740MOL0     H97650  -0.260   8.142   6.401  0.5896 -0.3389 -1.3623
  740MOL0     H97651  -0.108   8.205   6.338  0.5354  1.2567 -0.2396
  740MOL0     H97652  -0.306   8.383   6.494  1.7714 -1.2871  1.1121
  740MOL0     H97653  -0.162   8.431   6.412 -2.3481  2.7891 -0.6405
  740MOL0     H97654  -0.352   8.265   6.261  0.8090  0.1575 -1.0336
  740MOL0     H97655  -0.248   8.390   6.189  0.1839  2.4808 -0.4202
  740MOL0     H97656  -0.411   8.553   6.294 -2.1960  1.4229  1.1014
  740MOL0     H97657  -0.504   8.416   6.345 -0.0728  1.7270  0.6460
  740MOL0     H97658  -0.424   8.490   6.062 -0.0542 -0.8673 -0.7704
  740MOL0     H97659  -0.501   8.327   6.095 -3.6602  0.3373 -1.0535
  740MOL0     H97660  -0.685   8.438   6.217 -1.2534 -1.0368 -1.3336
  740MOL0     H97661  -0.683   8.466   6.038 -1.0889  0.5979  0.3766
  740MOL0     H97662   0.179   8.128   6.922  1.7530  0.8841  0.5608
  740MOL0     H97663   0.405   8.011   6.930  0.1480  0.7744  0.2379
  740MOL0     H97664   0.711   7.764   6.838 -0.2036  1.1506  0.7228
  740MOL0     H97665   0.894   7.637   6.856  0.3357 -0.4152  0.0520
  740MOL0     H97666   2.706   8.230   6.906  2.7458  0.4030 -1.2780
  740MOL0     H97667   2.951   8.184   6.961  0.5583 -1.7519 -2.3151
  740MOL0     H97668   3.338   8.209   7.090  4.3573  1.5676 -0.2784
  740MOL0     H97669   3.590   8.151   7.097 -1.6594  0.7646  1.0671
  740MOL0     H97670   3.691   7.719   7.148  0.0674  1.0135 -2.5563
  740MOL0     H97671   3.643   7.819   7.289 -0.2938 -1.4086 -0.6029
  740MOL0     H97672   3.886   7.915   7.278  2.6750 -1.0773  0.5663
  740MOL0     H97673   3.865   7.758   7.335  1.5643  0.2691  0.9512
  740MOL0     H97674   3.928   7.833   7.048  2.0224  0.9949 -0.0883
  740MOL0     H97675   3.936   7.658   7.112  0.0541 -0.1807 -0.2208
  740MOL0     H97676   4.120   7.862   7.207  1.2499 -0.0476  0.6307
  740MOL0     H97677   4.136   7.684   7.233 -3.0255 -1.3007 -0.4364
  740MOL0     H97678   4.291   7.635   6.862 -5.6021  0.5062 -3.8585
  740MOL0     H97679   3.469   7.740   7.087  0.5035 -0.3102  0.6085
  740MOL0     H97680   3.238   7.807   7.038  2.0387 -1.6735 -1.2917
  741MOL0     O97681   4.836   0.346  10.687 -0.4520  0.9815 -0.4288
  741MOL0     C97682   4.914   0.439  10.664  0.1935 -0.6529 -0.0844
  741MOL0     O97683   4.883   0.568  10.647  1.7938  0.1953  0.1161
  741MOL0     C97684   4.750   0.601  10.666  0.5019 -0.5475 -0.0248
  741MOL0     C97685   4.647   0.565  10.579  0.5458 -0.9872 -1.1959
  741MOL0     C97686   4.517   0.614  10.604  0.2969 -0.8158  0.9007
  741MOL0     C97687   4.483   0.698  10.717 -0.2616 -0.5740  0.3546
  741MOL0     O97688   4.364   0.751  10.740 -0.3225 -0.2823 -0.0508
  741MOL0     C97689   4.258   0.725  10.646 -0.2772 -0.5807  0.0046
  741MOL0     C97690   4.160   0.827  10.684 -0.4243  0.6077  0.0985
  741MOL0     C97691   4.037   0.833  10.592  0.5237 -0.8923 -0.7056
  741MOL0     C97692   3.942   0.966  10.609 -1.0385  0.1672 -0.2544
  741MOL0     C97693   3.825   0.971  10.521  0.1142 -0.2380  1.1172
  741MOL0     C97694   3.738   0.840  10.538  0.3610 -0.1955 -0.1975
  741MOL0     C97695   3.624   0.824  10.441  0.3584  0.0365  0.8477
  741MOL0     C97696   3.521   0.942  10.449  0.2485 -0.1573 -0.0443
  741MOL0     N97697   3.430   0.922  10.331 -0.5789  0.0044  0.2542
  741MOL0     C97698   3.435   0.990  10.208  0.5905 -0.4227  0.1916
  741MOL0     C97699   3.317   0.954  10.148 -1.0796 -0.8094  0.0501
  741MOL0     C97700   3.285   0.981  10.003  0.4761 -0.6752 -0.4555
  741MOL0     C97701   3.150   0.943   9.970 -0.0722  1.5759 -0.6933
  741MOL0     C97702   3.086   1.002   9.840 -0.0629 -0.5361  1.4074
  741MOL0     C97703   2.946   0.940   9.820 -0.3483 -0.1126  0.0362
  741MOL0     O97704   2.888   1.015   9.711 -0.0967 -0.1279  0.0164
  741MOL0     C97705   2.758   0.987   9.698  0.0350 -0.4389  0.8679
  741MOL0     C97706   2.694   1.059   9.590 -0.1116  0.2189 -0.6530
  741MOL0     C97707   2.551   1.050   9.574  0.1178 -1.0250  0.0684
  741MOL0     C97708   2.478   0.968   9.659  0.2905  1.6027 -0.6877
  741MOL0     C97709   2.326   0.954   9.657 -1.0112 -1.0270 -0.0743
  741MOL0     O97710   2.272   0.855   9.737 -0.0309  0.1487  0.3085
  741MOL0     C97711   2.137   0.878   9.761 -0.4182  0.1236 -1.1659
  741MOL0     C97712   2.075   0.986   9.821 -0.5336  0.1969 -0.5509
  741MOL0     C97713   1.939   1.012   9.821  0.4051  0.7322 -0.7392
  741MOL0     C97714   1.847   0.902   9.782 -0.6977  0.0999  0.9246
  741MOL0     O97715   1.710   0.901   9.783 -0.6321 -0.2023  0.6941
  741MOL0     C97716   1.668   1.030   9.761  0.0052 -0.2098  0.1133
  741MOL0     C97717   1.516   1.042   9.752 -0.1531 -0.7599 -0.0486
  741MOL0     C97718   1.443   0.995   9.885  0.0346 -0.5643  0.9274
  741MOL0     C97719   1.299   0.954   9.857 -0.3223  0.1835 -0.1315
  741MOL0     C97720   1.223   0.943   9.989 -0.5797 -0.2373  0.1035
  741MOL0     C97721   1.279   0.837  10.081 -0.3793 -0.3919  0.5545
  741MOL0     C97722   1.178   0.808  10.188 -0.2753  0.4995 -0.4004
  741MOL0     C97723   1.235   0.790  10.328  0.5893 -0.2271 -0.0786
  741MOL0    Cl97724   1.347   0.918  10.380 -0.0613  0.6144  0.5586
  741MOL0     C97725   1.911   0.790   9.737 -0.2576  0.5385 -0.1830
  741MOL0     C97726   2.053   0.773   9.729 -0.0190  0.5102  0.4954
  741MOL0     O97727   2.270   1.022   9.568 -0.7089  0.3555 -0.9120
  741MOL0     C97728   2.548   0.879   9.748 -0.1126 -0.2178 -0.0605
  741MOL0     C97729   2.685   0.883   9.760  0.9522  0.6654 -0.0067
  741MOL0     N97730   3.265   0.854  10.212  0.3665  0.0490 -1.0610
  741MOL0     N97731   3.335   0.828  10.317  0.0927 -0.1166  0.6676
  741MOL0     C97732   4.591   0.723  10.807  0.1095 -0.0403  0.4682
  741MOL0     C97733   4.718   0.681  10.778 -0.0165  0.7376 -0.4221
  741MOL0     C97734   5.064   0.421  10.682  0.5264  0.8433 -0.2177
  741MOL0     C97735   5.122   0.348  10.791  0.5343 -0.3868  0.6726
  741MOL0     C97736   5.255   0.319  10.794 -0.3928  0.3898  0.1743
  741MOL0     C97737   5.336   0.392  10.703 -1.3312  0.0396 -0.5120
  741MOL0     O97738   5.472   0.366  10.703  0.3116  0.3454 -0.5793
  741MOL0     C97739   5.563   0.452  10.637 -0.0696 -0.2995  0.1974
  741MOL0     C97740   5.709   0.427  10.676  0.3710  0.0912  0.2016
  741MOL0     C97741   5.807   0.499  10.589 -0.2257 -0.9547  0.9359
  741MOL0     C97742   5.947   0.445  10.590  0.3733  0.1833  0.4909
  741MOL0     C97743   5.991   0.441  10.730 -0.0772  0.5856  0.0104
  741MOL0     C97744   6.038   0.447  10.844 -0.4110 -0.0453 -0.5621
  741MOL0     C97745   5.278   0.463  10.597 -0.7153  0.9028 -0.8708
  741MOL0     C97746   5.144   0.478  10.587 -0.2174  0.7556 -0.3384
  741MOL0     H97747   4.671   0.499  10.497 -0.8807 -0.8656 -1.7392
  741MOL0     H97748   4.435   0.587  10.538 -2.0487 -3.5237  4.5577
  741MOL0     H97749   4.218   0.624  10.659 -0.5042 -0.6859 -1.3522
  741MOL0     H97750   4.279   0.736  10.539  2.0956 -1.9578  0.2657
  741MOL0     H97751   4.198   0.928  10.696 -1.2780  1.1297 -1.3584
  741MOL0     H97752   4.113   0.807  10.781  0.4291  0.2378  0.4432
  741MOL0     H97753   3.984   0.738  10.607 -0.4614 -0.0944  1.0667
  741MOL0     H97754   4.067   0.831  10.486 -4.0870  2.7307 -2.4362
  741MOL0     H97755   3.908   0.972  10.712 -0.5506  0.8180 -0.1222
  741MOL0     H97756   3.993   1.060  10.583  0.8815 -1.2992 -2.1589
  741MOL0     H97757   3.864   0.976  10.419 -0.3887 -1.5343  0.8397
  741MOL0     H97758   3.762   1.055  10.550  1.5998  1.2008  0.3160
  741MOL0     H97759   3.700   0.841  10.641 -1.8079  0.6664 -0.9370
  741MOL0     H97760   3.803   0.754  10.529  0.5462  0.0477 -1.2866
  741MOL0     H97761   3.669   0.840  10.343  0.7717 -0.6022  0.9265
  741MOL0     H97762   3.573   0.728  10.446 -0.9481  0.6801  0.1887
  741MOL0     H97763   3.564   1.042  10.450 -0.6033  0.2201  1.0412
  741MOL0     H97764   3.472   0.924  10.546 -0.0660  0.2611 -0.1244
  741MOL0     H97765   3.513   1.046  10.158 -0.1595 -0.2719 -0.8356
  741MOL0     H97766   3.364   0.943   9.938  2.5380  0.5211  1.1770
  741MOL0     H97767   3.292   1.090   9.995 -1.7508 -0.5175 -1.0239
  741MOL0     H97768   3.084   0.967  10.054  1.0951  2.4355  0.0141
  741MOL0     H97769   3.145   0.834   9.974  1.7430  1.4889  0.7805
  741MOL0     H97770   3.079   1.110   9.851  2.5872 -0.0522 -0.6614
  741MOL0     H97771   3.143   0.989   9.747 -0.7634 -0.6328  0.9801
  741MOL0     H97772   2.883   0.946   9.910 -0.2253  0.8811  0.0724
  741MOL0     H97773   2.964   0.836   9.793  1.6444  0.0983  0.4095
  741MOL0     H97774   2.752   1.129   9.531 -2.3011  1.3887 -1.5415
  741MOL0     H97775   2.506   1.115   9.500 -0.5597  1.2315  2.3085
  741MOL0     H97776   2.144   1.054   9.871 -3.5494  2.2855  1.1204
  741MOL0     H97777   1.896   1.098   9.871 -0.6003 -0.9710  1.5153
  741MOL0     H97778   1.709   1.076   9.671  1.0002  1.6897  1.4489
  741MOL0     H97779   1.684   1.102   9.843 -0.8261 -0.0776  0.1661
  741MOL0     H97780   1.482   0.976   9.672 -1.5698  0.1069 -0.2035
  741MOL0     H97781   1.492   1.146   9.725  0.9574 -0.7341 -1.0095
  741MOL0     H97782   1.450   1.075   9.959 -1.0590  0.7640 -0.3364
  741MOL0     H97783   1.500   0.910   9.923  1.6981  1.9681  4.6581
  741MOL0     H97784   1.251   1.037   9.805  0.0852  0.8669  0.5456
  741MOL0     H97785   1.296   0.868   9.790  1.3176 -0.0835  0.0750
  741MOL0     H97786   1.119   0.924   9.963  0.4251 -2.4297 -2.9198
  741MOL0     H97787   1.236   1.031  10.053  1.9081 -1.2933  1.1905
  741MOL0     H97788   1.380   0.867  10.112  1.3309 -0.4566 -4.1179
  741MOL0     H97789   1.302   0.742  10.033 -2.0421 -1.1091  1.1142
  741MOL0     H97790   1.107   0.890  10.203  1.6755  2.5492 -1.6763
  741MOL0     H97791   1.110   0.727  10.159  0.6594 -0.3854 -0.1830
  741MOL0     H97792   1.280   0.691  10.339 -2.3459 -1.5667  0.9216
  741MOL0     H97793   1.147   0.781  10.393  0.8047  3.5663  0.9781
  741MOL0     H97794   1.857   0.697   9.724  0.9761 -0.1775 -0.3674
  741MOL0     H97795   2.107   0.687   9.691 -0.3748 -0.1054  1.3561
  741MOL0     H97796   2.493   0.816   9.816  0.3130  0.2591  0.7488
  741MOL0     H97797   2.734   0.821   9.834  0.8623  1.7751  1.0130
  741MOL0     H97798   4.568   0.774  10.900 -0.0460  1.0646 -0.1612
  741MOL0     H97799   4.809   0.697  10.835 -0.0485  3.3020 -0.9745
  741MOL0     H97800   5.060   0.305  10.868 -2.2745  2.9009  0.4702
  741MOL0     H97801   5.299   0.254  10.868 -2.0058 -3.3891 -1.9042
  741MOL0     H97802   5.545   0.559  10.657  1.2477  0.0470 -0.3936
  741MOL0     H97803   5.556   0.436  10.529 -0.7832 -1.4790  0.4026
  741MOL0     H97804   5.718   0.461  10.779 -0.7742  2.6467 -0.4732
  741MOL0     H97805   5.730   0.320  10.666 -3.1397 -0.6007 -1.3594
  741MOL0     H97806   5.820   0.604  10.615 -2.0573 -0.6012  0.5488
  741MOL0     H97807   5.769   0.500  10.486 -1.5561 -1.3349  1.4023
  741MOL0     H97808   5.951   0.348  10.541  2.8682  1.4654 -2.1219
  741MOL0     H97809   6.011   0.515  10.536  2.2791 -0.8421  1.3128
  741MOL0     H97810   6.066   0.447  10.948 -2.2408 -2.0191  0.0038
  741MOL0     H97811   5.344   0.500  10.519  1.4576  2.7335  1.6278
  741MOL0     H97812   5.094   0.542  10.514 -2.0858  2.9203  2.5962
  742MOL0     O97813   5.660  11.010   5.822 -0.0474 -0.1262  0.1174
  742MOL0     C97814   5.640  11.014   5.699  0.0998  0.3824  0.4149
  742MOL0     O97815   5.731  11.040   5.598 -0.0559  0.2788  0.9410
  742MOL0     C97816   5.860  11.062   5.634 -0.3587 -0.1186  0.0751
  742MOL0     C97817   5.923  11.171   5.592 -0.2580 -1.0630  0.2107
  742MOL0     C97818   6.073  11.192   5.596  1.0315 -0.0632  0.6415
  742MOL0     C97819   6.146  11.097   5.668  0.8242 -1.0431 -0.2202
  742MOL0     O97820   6.286  11.086   5.674 -0.6758 -0.6040 -0.3492
  742MOL0     C97821   6.363  11.201   5.640 -0.9762 -0.1986  0.7660
  742MOL0     C97822   6.428  11.192   5.500  0.1003 -0.7521 -0.8088
  742MOL0     C97823   6.489  11.057   5.471  0.1267 -0.1042  0.1645
  742MOL0     C97824   6.562  11.037   5.338 -0.0212 -0.1806 -0.2982
  742MOL0     C97825   6.692  11.108   5.319  0.5964 -0.4952  0.2834
  742MOL0     C97826   6.679  11.236   5.237 -0.4106  1.0473  0.1934
  742MOL0     C97827   6.823  11.289   5.204  0.5881  0.0346  0.4029
  742MOL0     C97828   6.821  11.414   5.110 -0.2336  0.5298 -0.4710
  742MOL0     N97829   6.829  11.385   4.963  0.8843  0.9547 -0.3567
  742MOL0     C97830   6.714  11.378   4.884 -0.4212 -0.0063  0.1323
  742MOL0     C97831   6.768  11.365   4.755  0.5401 -0.1667 -0.0364
  742MOL0     C97832   6.672  11.371   4.638 -0.1894  0.3001  0.2391
  742MOL0     C97833   6.552  11.468   4.662 -0.2934  0.4323 -0.5465
  742MOL0     C97834   6.435  11.446   4.565 -0.5843 -0.2711  0.0373
  742MOL0     C97835   6.400  11.295   4.538 -0.8291  0.2561  0.5472
  742MOL0     O97836   6.289  11.278   4.446  0.4229 -0.3606  0.4178
  742MOL0     C97837   6.160  11.279   4.503  0.2807  0.2490 -0.7287
  742MOL0     C97838   6.130  11.274   4.639  0.1551  0.6416  0.0580
  742MOL0     C97839   6.000  11.240   4.690 -0.3508 -1.2770 -0.1065
  742MOL0     C97840   5.892  11.222   4.597 -0.0933  0.1028 -0.1333
  742MOL0     C97841   5.757  11.198   4.646 -0.0350  0.7280  0.0484
  742MOL0     O97842   5.654  11.182   4.550 -0.5352 -0.0847  0.2355
  742MOL0     C97843   5.536  11.125   4.592  0.3534 -0.4215 -0.1862
  742MOL0     C97844   5.535  10.994   4.620  0.8934  0.7311  0.2453
  742MOL0     C97845   5.423  10.929   4.667  0.7914  0.4884  0.4377
  742MOL0     C97846   5.305  11.008   4.700 -0.2455  0.6082 -0.4251
  742MOL0     O97847   5.183  10.939   4.703  0.5373  0.2336 -0.1382
  742MOL0     C97848   5.076  11.009   4.773  0.5638  0.1750  0.5455
  742MOL0     C97849   4.981  11.071   4.671  0.7465  0.4893 -0.5892
  742MOL0     C97850   4.895  11.192   4.727  0.6944  0.3709  0.3276
  742MOL0     C97851   4.816  11.171   4.856 -0.6342  0.0698 -0.1947
  742MOL0     C97852   4.687  11.261   4.876 -0.0592 -0.2858  0.0997
  742MOL0     C97853   4.598  11.200   4.983 -0.9453  0.3222  0.8142
  742MOL0     C97854   4.469  11.279   4.987  0.5145  0.9710  0.0854
  742MOL0     C97855   4.370  11.210   5.081 -0.2651 -0.3259  0.0871
  742MOL0    Cl97856   4.441  11.172   5.235 -0.0285  0.2281 -0.1184
  742MOL0     C97857   5.310  11.148   4.680  0.6363  0.3236  0.0097
  742MOL0     C97858   5.431  11.202   4.631  0.2320  0.4127 -1.1625
  742MOL0     O97859   5.745  11.179   4.766 -1.0272 -0.1575  0.4333
  742MOL0     C97860   5.920  11.225   4.459 -0.1832 -0.0294 -0.5799
  742MOL0     C97861   6.050  11.249   4.410 -0.8340  0.1567  0.5066
  742MOL0     N97862   6.892  11.318   4.771 -0.4136  0.1376  1.2574
  742MOL0     N97863   6.934  11.335   4.888  0.0989  0.1474 -0.2727
  742MOL0     C97864   6.082  10.977   5.711  0.5062  0.2141 -0.3951
  742MOL0     C97865   5.942  10.966   5.696  0.7643 -0.2311  0.1606
  742MOL0     C97866   5.498  11.017   5.654 -0.8710  0.0915  0.3119
  742MOL0     C97867   5.378  10.997   5.735 -1.0032 -0.0685 -0.8814
  742MOL0     C97868   5.257  10.996   5.678  0.3956  0.2026 -0.5707
  742MOL0     C97869   5.239  10.985   5.542 -0.0983 -0.0745  0.6794
  742MOL0     O97870   5.125  10.943   5.478  0.1566 -0.4194  0.4716
  742MOL0     C97871   5.015  10.887   5.557  0.5031 -0.2730 -0.3540
  742MOL0     C97872   4.908  10.842   5.461  0.3850  0.7388 -0.0065
  742MOL0     C97873   4.813  10.953   5.444 -0.3827 -0.6766 -0.2765
  742MOL0     C97874   4.706  10.938   5.334  0.2017 -0.2807 -0.0400
  742MOL0     C97875   4.762  10.927   5.204 -0.3414 -0.4600  0.2927
  742MOL0     C97876   4.819  10.912   5.098 -0.2984  0.2650 -0.0078
  742MOL0     C97877   5.343  11.019   5.466 -0.3426  0.3180  0.3801
  742MOL0     C97878   5.476  11.042   5.518 -0.1546 -0.5387  0.5191
  742MOL0     H97879   5.865  11.242   5.534  2.8794 -0.1834 -2.1376
  742MOL0     H97880   6.116  11.277   5.545 -0.5472 -0.8275 -2.2449
  742MOL0     H97881   6.446  11.206   5.712 -1.0440  1.9086  0.7659
  742MOL0     H97882   6.304  11.291   5.659 -0.8628 -0.4468  2.5182
  742MOL0     H97883   6.504  11.270   5.496  2.5666 -2.9507 -0.1980
  742MOL0     H97884   6.357  11.211   5.420 -0.1780  2.0870  0.0109
  742MOL0     H97885   6.420  10.973   5.484 -1.3920  1.3641  2.2024
  742MOL0     H97886   6.571  11.056   5.544 -0.0501  2.1779  0.4676
  742MOL0     H97887   6.581  10.930   5.343  0.2441 -0.2327 -1.8927
  742MOL0     H97888   6.494  11.055   5.255  0.0508  0.9311 -0.1315
  742MOL0     H97889   6.767  11.043   5.274 -0.3081 -0.6390 -1.0571
  742MOL0     H97890   6.741  11.128   5.415 -0.3510 -2.6337  1.2833
  742MOL0     H97891   6.629  11.310   5.300 -0.8850  1.3180 -0.4923
  742MOL0     H97892   6.611  11.216   5.154  0.3602  1.6175 -0.5895
  742MOL0     H97893   6.869  11.299   5.303 -0.6300 -1.2961  1.1443
  742MOL0     H97894   6.876  11.208   5.154 -1.5621  0.3911 -2.7308
  742MOL0     H97895   6.907  11.476   5.139 -0.5182 -0.9934  4.4605
  742MOL0     H97896   6.733  11.473   5.138 -0.2532  1.7289 -2.8299
  742MOL0     H97897   6.615  11.400   4.921 -0.1175  1.8694 -0.1054
  742MOL0     H97898   6.646  11.267   4.619 -0.5523  0.6226 -1.1451
  742MOL0     H97899   6.729  11.409   4.552 -0.6071 -2.3721 -1.3329
  742MOL0     H97900   6.592  11.569   4.655  0.1554  0.2966 -0.0165
  742MOL0     H97901   6.506  11.444   4.758 -0.0128 -1.8625 -0.9100
  742MOL0     H97902   6.345  11.505   4.588 -2.0826 -2.6847  0.6944
  742MOL0     H97903   6.466  11.490   4.470  0.2097 -1.7748 -0.4291
  742MOL0     H97904   6.390  11.243   4.634  2.1535 -0.9642  0.3017
  742MOL0     H97905   6.484  11.234   4.505  0.8828  1.6101  2.1880
  742MOL0     H97906   6.197  11.291   4.724  1.8213 -2.4336 -0.4974
  742MOL0     H97907   5.984  11.246   4.797 -1.5991 -2.1792 -0.2098
  742MOL0     H97908   5.621  10.931   4.597 -1.6765 -2.6440 -1.0795
  742MOL0     H97909   5.409  10.822   4.674  0.5845  0.3589 -1.4716
  742MOL0     H97910   5.106  11.092   4.837 -1.5634  1.0854  0.4438
  742MOL0     H97911   5.037  10.936   4.845  5.7061 -0.8337  2.7499
  742MOL0     H97912   4.910  10.997   4.632 -1.4271  1.5631  1.1321
  742MOL0     H97913   5.037  11.099   4.581 -1.1018  1.4784 -1.4893
  742MOL0     H97914   4.823  11.202   4.645  0.3115 -1.7179  0.3490
  742MOL0     H97915   4.959  11.279   4.735  2.3321 -0.9407  2.7520
  742MOL0     H97916   4.774  11.071   4.856  0.8846 -0.6046  0.7439
  742MOL0     H97917   4.879  11.179   4.946  0.4630 -0.0072 -0.9387
  742MOL0     H97918   4.620  11.253   4.789 -0.0916 -0.2278  0.1197
  742MOL0     H97919   4.714  11.365   4.893 -1.7163  0.1092  0.4353
  742MOL0     H97920   4.658  11.208   5.075  1.4190  2.2095 -0.7716
  742MOL0     H97921   4.589  11.092   4.970  1.5514  0.4011 -3.3099
  742MOL0     H97922   4.491  11.381   5.019  1.8858  0.4875  0.7665
  742MOL0     H97923   4.419  11.284   4.890 -1.6018 -1.9366  0.8579
  742MOL0     H97924   4.349  11.112   5.039 -0.9392 -0.5584  0.9312
  742MOL0     H97925   4.278  11.269   5.093  1.4556  2.7241 -0.5994
  742MOL0     H97926   5.220  11.206   4.700 -0.5891 -1.8236  1.1473
  742MOL0     H97927   5.420  11.310   4.625 -0.9066  0.2327 -2.8788
  742MOL0     H97928   5.846  11.204   4.382 -1.7228  4.2802 -0.5441
  742MOL0     H97929   6.090  11.233   4.311  0.5694 -1.2407  1.2574
  742MOL0     H97930   6.141  10.901   5.761 -0.8617  0.0456  1.0272
  742MOL0     H97931   5.890  10.873   5.719 -0.3571 -0.1827 -1.9958
  742MOL0     H97932   5.376  10.985   5.843  0.0977  5.3300  0.0030
  742MOL0     H97933   5.167  10.986   5.738 -0.3116  4.3011 -0.6636
  742MOL0     H97934   4.984  10.967   5.626  1.8987 -1.5590  1.9174
  742MOL0     H97935   5.051  10.797   5.608 -3.6599 -1.6880  0.5079
  742MOL0     H97936   4.947  10.817   5.362  2.1999 -1.7500  1.2392
  742MOL0     H97937   4.851  10.756   5.496  1.5326  0.6640  1.7583
  742MOL0     H97938   4.855  11.049   5.414 -3.5201  0.9564  0.0854
  742MOL0     H97939   4.765  10.968   5.542 -1.4250 -0.2027 -0.8491
  742MOL0     H97940   4.655  10.843   5.350 -0.3868  0.0326 -0.0445
  742MOL0     H97941   4.641  11.025   5.348 -0.9088 -1.4093  2.3232
  742MOL0     H97942   4.854  10.873   5.004  1.8786 -2.8314  1.8847
  742MOL0     H97943   5.328  11.015   5.358 -0.0052  2.5113  0.2164
  742MOL0     H97944   5.558  11.065   5.452  1.0027  0.7915  2.3360
  743MOL0     O97945  10.615   8.616   2.618 -0.1469 -0.3975 -0.1599
  743MOL0     C97946  10.611   8.686   2.724  0.0472  0.8364  0.3606
  743MOL0     O97947  10.575   8.639   2.852 -0.4314  0.0301  0.6182
  743MOL0     C97948  10.524   8.509   2.866 -0.4729 -0.1308  0.1004
  743MOL0     C97949  10.471   8.425   2.765 -0.2984  0.3329 -0.4157
  743MOL0     C97950  10.416   8.299   2.809 -0.5550 -1.1549  0.3573
  743MOL0     C97951  10.403   8.259   2.939  0.1809 -0.3743  0.3993
  743MOL0     O97952  10.350   8.135   2.972  0.3877 -0.1386 -0.3504
  743MOL0     C97953  10.290   8.114   3.097 -0.0069 -0.5173  0.4390
  743MOL0     C97954  10.393   8.046   3.189  0.5398 -0.0834  0.5516
  743MOL0     C97955  10.336   8.003   3.323  0.0048  0.1251  0.5501
  743MOL0     C97956  10.218   7.900   3.319  0.0625  0.6099 -0.2181
  743MOL0     C97957  10.269   7.773   3.242  0.9451  0.1097 -0.7783
  743MOL0     C97958  10.176   7.655   3.253 -0.2352 -0.1587  1.1974
  743MOL0     C97959  10.236   7.530   3.194 -1.0830  0.1343  0.5166
  743MOL0     C97960  10.270   7.540   3.044  1.6326  0.3398  0.1832
  743MOL0     N97961  10.408   7.561   3.038 -0.3299 -0.1782  0.3934
  743MOL0     C97962  10.506   7.463   3.034 -0.1011  1.1128 -0.4883
  743MOL0     C97963  10.622   7.526   3.033  0.5129  0.9331 -0.1143
  743MOL0     C97964  10.749   7.461   2.991  0.2504  0.0802 -0.4187
  743MOL0     C97965  10.835   7.554   2.922 -0.3186  0.5259 -0.1278
  743MOL0     C97966  10.971   7.475   2.885  0.1938 -0.6723 -0.5929
  743MOL0     C97967  11.067   7.567   2.814 -0.6495  1.3390 -0.5211
  743MOL0     O97968  11.197   7.493   2.787 -0.0777  0.4521 -0.5862
  743MOL0     C97969  11.304   7.561   2.741  0.6401  0.1527 -1.1929
  743MOL0     C97970  11.423   7.493   2.762  0.6460 -0.4851  0.8152
  743MOL0     C97971  11.545   7.555   2.747  0.3990  0.4716  0.1104
  743MOL0     C97972  11.547   7.676   2.681  1.5397  0.3690  0.0741
  743MOL0     C97973  11.668   7.750   2.668 -0.1637  0.2490 -0.1757
  743MOL0     O97974  11.772   7.731   2.761  0.6786  0.1510 -0.3079
  743MOL0     C97975  11.893   7.791   2.738  0.4983  0.0270 -0.5636
  743MOL0     C97976  11.921   7.917   2.692  0.3328  0.0565  0.6116
  743MOL0     C97977  12.048   7.965   2.693 -0.4745  0.2753 -0.0493
  743MOL0     C97978  12.160   7.881   2.736  0.9930 -0.1837  0.3320
  743MOL0     O97979  12.292   7.919   2.724 -0.9579 -0.7402  0.0610
  743MOL0     C97980  12.325   8.064   2.728  1.1302  0.0181 -0.3725
  743MOL0     C97981  12.464   8.096   2.790 -0.6529  0.4081  0.8200
  743MOL0     C97982  12.504   8.247   2.790  0.5505  0.5226 -0.2753
  743MOL0     C97983  12.632   8.267   2.879 -0.1062  0.3065 -0.0241
  743MOL0     C97984  12.674   8.412   2.914 -0.7002 -0.2459  0.6189
  743MOL0     C97985  12.803   8.421   2.988  0.5055  0.1192 -0.0598
  743MOL0     C97986  12.928   8.396   2.909  0.2267  0.3026  0.5143
  743MOL0     C97987  13.061   8.443   2.974  0.1772  0.4452  0.5963
  743MOL0    Cl97988  13.083   8.376   3.136  0.7610  0.0495  0.6171
  743MOL0     C97989  12.126   7.746   2.753 -0.4635 -0.4669 -0.0490
  743MOL0     C97990  11.996   7.703   2.767  0.7329  1.3437  0.3270
  743MOL0     O97991  11.679   7.813   2.563 -0.4008 -0.1318  0.3801
  743MOL0     C97992  11.424   7.739   2.638  0.2030  0.0009 -0.4927
  743MOL0     C97993  11.302   7.686   2.677 -0.1214  0.0334  1.1542
  743MOL0     N97994  10.602   7.660   3.028  0.7219  0.1332 -0.6094
  743MOL0     N97995  10.475   7.676   3.034  0.7489  0.3189 -0.4003
  743MOL0     C97996  10.456   8.343   3.039 -0.3880  0.2742  0.7707
  743MOL0     C97997  10.512   8.468   3.007 -0.5665 -0.1599 -0.5511
  743MOL0     C97998  10.674   8.820   2.715 -0.0870 -0.2596  0.7555
  743MOL0     C97999  10.748   8.861   2.825  0.2186  0.4559 -0.0910
  743MOL0     C98000  10.783   9.003   2.841 -0.1228 -0.8018  0.4047
  743MOL0     C98001  10.758   9.093   2.735 -0.3917 -0.3166  0.2261
  743MOL0     O98002  10.776   9.221   2.768  0.4369 -0.1662 -0.1972
  743MOL0     C98003  10.666   9.302   2.805 -0.3927  0.5379 -0.4565
  743MOL0     C98004  10.652   9.340   2.952  0.2972  0.3947  0.1196
  743MOL0     C98005  10.497   9.368   2.978  0.5804  1.0441  0.1915
  743MOL0     C98006  10.405   9.250   2.998  0.0490  0.7456 -0.6740
  743MOL0     C98007  10.263   9.285   3.009 -0.5189  0.0648 -0.2923
  743MOL0     C98008  10.143   9.333   3.023 -0.0508  0.6986 -0.0496
  743MOL0     C98009  10.699   9.044   2.618  0.1042 -0.5200  0.0775
  743MOL0     C98010  10.656   8.910   2.604  0.1069  0.1166 -0.7965
  743MOL0     H98011  10.468   8.446   2.659  0.0210 -1.5500 -0.8417
  743MOL0     H98012  10.367   8.242   2.731 -2.0203  0.6229 -0.0762
  743MOL0     H98013  10.208   8.044   3.078  0.3596 -1.1298  1.0353
  743MOL0     H98014  10.247   8.205   3.140  3.3063  1.1567  0.5416
  743MOL0     H98015  10.475   8.118   3.204  1.2331 -0.6181 -0.5505
  743MOL0     H98016  10.438   7.963   3.135 -2.5920 -1.4535 -0.1462
  743MOL0     H98017  10.298   8.094   3.370  0.5612 -0.6831  2.6858
  743MOL0     H98018  10.416   7.958   3.382  1.8776  0.4319 -1.6402
  743MOL0     H98019  10.184   7.868   3.417  1.3868  0.7207  0.3010
  743MOL0     H98020  10.135   7.939   3.259  1.4626  1.2443 -1.8375
  743MOL0     H98021  10.365   7.745   3.286  0.5529  1.6447  1.1990
  743MOL0     H98022  10.290   7.799   3.138  2.9755 -1.0108 -0.6859
  743MOL0     H98023  10.076   7.674   3.212 -1.0292 -3.0665  1.6227
  743MOL0     H98024  10.150   7.638   3.357 -0.0333  0.5241  1.3697
  743MOL0     H98025  10.317   7.505   3.263 -1.6672 -0.9567  0.8289
  743MOL0     H98026  10.170   7.444   3.208 -0.2480 -0.4004  1.2791
  743MOL0     H98027  10.214   7.625   3.004  2.1732  0.8883  0.5792
  743MOL0     H98028  10.251   7.443   2.996 -1.1823  0.2521  1.3247
  743MOL0     H98029  10.487   7.357   3.021  0.3614  1.0496 -0.6731
  743MOL0     H98030  10.734   7.385   2.914 -0.1773  0.5040 -0.7578
  743MOL0     H98031  10.799   7.407   3.073 -0.7435  0.1127  0.2311
  743MOL0     H98032  10.856   7.642   2.983  0.8532  0.6281 -0.6629
  743MOL0     H98033  10.789   7.599   2.834  2.5122  1.1717 -1.3770
  743MOL0     H98034  11.013   7.426   2.974  2.3103  3.1706  0.7168
  743MOL0     H98035  10.948   7.397   2.811 -2.3795  0.7666 -1.4719
  743MOL0     H98036  11.098   7.649   2.879  3.2084 -1.9416  2.3124
  743MOL0     H98037  11.030   7.595   2.715 -0.0626 -0.3598 -1.2805
  743MOL0     H98038  11.414   7.394   2.805  2.4269 -0.3753  1.5349
  743MOL0     H98039  11.637   7.505   2.777 -0.6320 -4.1338 -3.3007
  743MOL0     H98040  11.833   7.978   2.676 -0.2002  0.3708  4.0298
  743MOL0     H98041  12.065   8.072   2.689 -3.1463  0.7875  0.1882
  743MOL0     H98042  12.258   8.120   2.794  2.9353 -0.8326  2.3590
  743MOL0     H98043  12.332   8.102   2.626 -0.2143 -0.4296 -0.6521
  743MOL0     H98044  12.547   8.046   2.738 -1.8596 -4.3559  2.8931
  743MOL0     H98045  12.461   8.053   2.890 -2.7311 -2.2605 -0.2496
  743MOL0     H98046  12.428   8.311   2.836  2.0637  0.9018  1.8497
  743MOL0     H98047  12.529   8.277   2.688  0.5142 -0.4180 -0.5665
  743MOL0     H98048  12.613   8.228   2.979 -6.5045  1.8844 -0.2173
  743MOL0     H98049  12.707   8.208   2.825 -0.6175  0.5689 -1.0566
  743MOL0     H98050  12.599   8.454   2.982  0.1386 -0.1046  1.4866
  743MOL0     H98051  12.677   8.469   2.821 -1.5556 -0.7612  0.2602
  743MOL0     H98052  12.787   8.358   3.076 -1.9994  1.6080  0.6417
  743MOL0     H98053  12.816   8.521   3.031 -1.2942  0.6049 -0.5363
  743MOL0     H98054  12.922   8.288   2.898 -0.3853  0.5823 -2.7601
  743MOL0     H98055  12.921   8.446   2.812 -4.5458 -0.6113  0.1490
  743MOL0     H98056  13.056   8.552   2.982  1.1843  0.5696 -0.2770
  743MOL0     H98057  13.136   8.417   2.899 -2.4174 -2.2668 -1.3227
  743MOL0     H98058  12.210   7.686   2.785  0.1296 -0.8304 -2.1313
  743MOL0     H98059  11.970   7.605   2.805  0.8764  0.6478 -1.2762
  743MOL0     H98060  11.425   7.838   2.593  0.4154 -0.2723 -1.1009
  743MOL0     H98061  11.208   7.734   2.650  1.1050  1.3344 -1.0840
  743MOL0     H98062  10.454   8.311   3.142  0.9899  0.2285  0.7987
  743MOL0     H98063  10.547   8.525   3.092 -0.9319  0.3310 -0.7242
  743MOL0     H98064  10.778   8.792   2.903  2.2423 -2.1413 -2.9369
  743MOL0     H98065  10.829   9.039   2.932  0.3848 -1.0758  0.2604
  743MOL0     H98066  10.575   9.264   2.756 -0.1810 -0.8824  0.2032
  743MOL0     H98067  10.678   9.395   2.749 -1.1209 -1.2665 -3.8836
  743MOL0     H98068  10.697   9.259   3.009  0.2936  0.1931 -0.1636
  743MOL0     H98069  10.709   9.432   2.970  1.4562 -0.2379 -0.2435
  743MOL0     H98070  10.465   9.430   2.894  1.0260  0.5848 -0.3304
  743MOL0     H98071  10.482   9.429   3.067  1.1614  1.3394  0.0916
  743MOL0     H98072  10.410   9.179   2.914 -0.2151  2.0576 -1.8357
  743MOL0     H98073  10.432   9.193   3.087 -0.6359  0.5256 -0.5976
  743MOL0     H98074  10.043   9.371   3.028  0.1533  1.7636 -2.4066
  743MOL0     H98075  10.686   9.123   2.545  2.4150  1.0645  1.2755
  743MOL0     H98076  10.615   8.868   2.513  0.3063 -1.9728  0.0131
  744MOL0     O98077   7.024   9.516   0.072  0.6067  1.0349 -0.4162
  744MOL0     C98078   6.995   9.629   0.113 -0.5919 -0.5048  0.4246
  744MOL0     O98079   7.061   9.695   0.210  0.0646 -0.5811 -0.5056
  744MOL0     C98080   7.153   9.625   0.292 -0.0207 -0.2771  0.8457
  744MOL0     C98081   7.278   9.681   0.315  1.1566 -0.7348 -1.3088
  744MOL0     C98082   7.367   9.617   0.409  0.4664  1.1236 -0.3588
  744MOL0     C98083   7.314   9.501   0.491 -0.7188 -0.7024 -0.6312
  744MOL0     O98084   7.407   9.447   0.580  0.2388  0.8074  0.5854
  744MOL0     C98085   7.380   9.323   0.645  0.5164  0.4071  0.4233
  744MOL0     C98086   7.482   9.283   0.737  0.0894  0.2791  0.7226
  744MOL0     C98087   7.602   9.235   0.660  0.2463 -0.3602  0.2346
  744MOL0     C98088   7.707   9.162   0.755  0.2538 -0.4991 -0.5982
  744MOL0     C98089   7.644   9.053   0.849  0.6781  0.6100 -0.5725
  744MOL0     C98090   7.739   8.955   0.920  0.5940  0.1822  0.3775
  744MOL0     C98091   7.872   9.015   0.965 -1.2461 -1.1743 -0.7729
  744MOL0     C98092   7.975   8.916   1.037  0.6927 -0.1770  0.3351
  744MOL0     N98093   8.076   8.996   1.107 -0.5305 -0.4106 -0.0616
  744MOL0     C98094   8.207   9.017   1.063  1.1145 -0.0029 -0.0920
  744MOL0     C98095   8.257   9.098   1.154  1.3193 -0.2482 -0.4393
  744MOL0     C98096   8.386   9.171   1.118  0.3619 -0.7313  0.2699
  744MOL0     C98097   8.349   9.313   1.075 -0.4273 -0.0668 -0.3782
  744MOL0     C98098   8.282   9.323   0.935  0.7904  0.2934 -0.0636
  744MOL0     C98099   8.147   9.386   0.938  0.5312 -0.0043  0.3296
  744MOL0     O98100   8.093   9.365   0.808  0.4264  0.5751  0.2597
  744MOL0     C98101   8.044   9.465   0.730  0.8481  1.2009  0.0075
  744MOL0     C98102   7.943   9.420   0.644 -0.3463  0.8719 -0.9513
  744MOL0     C98103   7.866   9.511   0.571 -0.9184 -1.1483  0.0476
  744MOL0     C98104   7.901   9.652   0.574  0.3380  0.0517  0.3093
  744MOL0     C98105   7.840   9.751   0.492  0.8294 -1.1622 -0.0390
  744MOL0     O98106   7.843   9.888   0.530  0.5902  0.1077  0.4683
  744MOL0     C98107   7.737   9.959   0.486  0.0258  0.8414 -0.2023
  744MOL0     C98108   7.603   9.926   0.527  0.7892  0.5156 -0.6404
  744MOL0     C98109   7.499  10.010   0.503 -0.0089  0.3441  0.5011
  744MOL0     C98110   7.522  10.114   0.407 -0.1605  0.0964  0.6090
  744MOL0     O98111   7.416  10.181   0.355  0.0123  0.1694  0.1483
  744MOL0     C98112   7.292  10.161   0.419  0.3276 -0.8263 -0.5332
  744MOL0     C98113   7.194  10.259   0.366 -0.1101  0.0411 -0.1201
  744MOL0     C98114   7.163  10.232   0.220 -0.0076 -0.0594 -0.6312
  744MOL0     C98115   7.063  10.331   0.153  0.1821 -0.5095  0.4563
  744MOL0     C98116   7.010  10.280   0.021 -0.0533  0.5859 -0.2043
  744MOL0     C98117   6.943  10.387  -0.067  0.2236 -0.2866  0.2643
  744MOL0     C98118   6.915  10.337  -0.204  0.2916  0.5100 -0.7205
  744MOL0     C98119   6.807  10.426  -0.282  0.5756  0.2793  0.1145
  744MOL0    Cl98120   6.730  10.324  -0.414  0.3092  0.4603 -0.5581
  744MOL0     C98121   7.653  10.138   0.358 -0.5285 -0.2060 -1.1869
  744MOL0     C98122   7.761  10.070   0.413  0.2985  0.3459 -0.5869
  744MOL0     O98123   7.775   9.712   0.404  0.5438  0.3725  0.1839
  744MOL0     C98124   8.006   9.687   0.659 -0.2839 -0.1349 -0.1116
  744MOL0     C98125   8.079   9.592   0.738  0.7093  0.1907  0.4675
  744MOL0     N98126   8.163   9.127   1.253 -0.0849  0.1613  0.8924
  744MOL0     N98127   8.047   9.074   1.215 -0.2413 -0.2079 -0.7027
  744MOL0     C98128   7.177   9.467   0.470  0.2444 -0.3821 -0.0659
  744MOL0     C98129   7.109   9.516   0.363  0.2759  0.7813  0.0428
  744MOL0     C98130   6.885   9.705   0.045  0.2512  0.5160 -0.1428
  744MOL0     C98131   6.856   9.842   0.070  0.0756  0.2645  0.6970
  744MOL0     C98132   6.741   9.906   0.007  0.5124  0.1626 -0.0905
  744MOL0     C98133   6.651   9.832  -0.073  0.3503  0.4491  0.5617
  744MOL0     O98134   6.539   9.879  -0.136 -0.1675 -0.2138 -0.5488
  744MOL0     C98135   6.539  10.025  -0.148 -0.2840  0.2183 -0.9043
  744MOL0     C98136   6.478  10.076  -0.280 -0.0165 -0.1385  0.6396
  744MOL0     C98137   6.326  10.093  -0.267  0.4955  0.2241 -0.2264
  744MOL0     C98138   6.259  10.168  -0.383 -0.5842 -0.5826 -0.3411
  744MOL0     C98139   6.327  10.290  -0.452  0.9288  0.6665  0.0932
  744MOL0     C98140   6.390  10.386  -0.490  0.3332  0.7684 -0.0498
  744MOL0     C98141   6.684   9.694  -0.094  0.3374  0.3176 -0.1210
  744MOL0     C98142   6.800   9.640  -0.043  0.3621  0.5655  0.6025
  744MOL0     H98143   7.294   9.778   0.271 -2.0521  0.3633 -0.3197
  744MOL0     H98144   7.463   9.667   0.422 -0.5699  3.0770  0.2416
  744MOL0     H98145   7.360   9.242   0.574 -0.3374  1.1079 -0.1625
  744MOL0     H98146   7.288   9.332   0.705 -0.7050 -1.8580 -0.9626
  744MOL0     H98147   7.437   9.215   0.809  0.1707  1.5371  2.0111
  744MOL0     H98148   7.515   9.362   0.805  2.6880  1.6352 -1.8271
  744MOL0     H98149   7.647   9.324   0.617 -3.9472  2.0583  0.2920
  744MOL0     H98150   7.588   9.161   0.580  3.9877 -2.7415  1.5389
  744MOL0     H98151   7.781   9.115   0.691 -0.7382  0.3457 -2.4533
  744MOL0     H98152   7.758   9.236   0.817 -0.6050  1.3907 -2.0422
  744MOL0     H98153   7.558   8.999   0.808  0.9823  0.7335 -1.4052
  744MOL0     H98154   7.602   9.106   0.934 -0.4935 -2.3646  0.8528
  744MOL0     H98155   7.754   8.872   0.851  1.4797  0.9834 -0.4118
  744MOL0     H98156   7.678   8.914   1.001 -3.1346 -0.7317 -2.5611
  744MOL0     H98157   7.930   9.059   0.884  1.3105 -0.8962  1.1111
  744MOL0     H98158   7.855   9.098   1.034 -2.0678 -1.3545 -0.7435
  744MOL0     H98159   8.017   8.853   0.958  0.3765 -1.7461  1.3612
  744MOL0     H98160   7.919   8.842   1.096  0.3595  1.1456  1.7506
  744MOL0     H98161   8.245   8.986   0.966 -1.8674 -1.1324 -0.9871
  744MOL0     H98162   8.440   9.122   1.037  0.2706 -0.7153  0.1998
  744MOL0     H98163   8.442   9.178   1.212 -0.2185  2.6577  0.5021
  744MOL0     H98164   8.437   9.378   1.068 -0.9445  0.5507 -1.3530
  744MOL0     H98165   8.293   9.349   1.162  2.0237 -0.9933  1.7126
  744MOL0     H98166   8.344   9.390   0.874 -0.3850  0.5505 -1.0165
  744MOL0     H98167   8.280   9.222   0.891  0.0993  0.7371 -1.0975
  744MOL0     H98168   8.144   9.492   0.967 -2.8877 -0.5271  2.4745
  744MOL0     H98169   8.090   9.337   1.017  0.1259  1.1636  0.7932
  744MOL0     H98170   7.937   9.312   0.640  2.5631  0.5862 -0.1866
  744MOL0     H98171   7.781   9.476   0.513 -1.6776 -0.6251  0.8054
  744MOL0     H98172   7.591   9.837   0.589 -0.1575  0.6087 -0.6750
  744MOL0     H98173   7.399   9.983   0.537  0.4647 -0.8798  0.9833
  744MOL0     H98174   7.305  10.189   0.524  2.8744 -1.7737 -0.5371
  744MOL0     H98175   7.251  10.060   0.412  0.1091 -0.7500 -0.3484
  744MOL0     H98176   7.230  10.362   0.366  0.6253 -0.2015 -1.0436
  744MOL0     H98177   7.094  10.249   0.409 -0.2639 -2.1944 -0.8745
  744MOL0     H98178   7.112  10.136   0.214 -0.2079  0.1051 -1.7951
  744MOL0     H98179   7.252  10.232   0.156 -0.0231  1.5835 -0.6974
  744MOL0     H98180   6.979  10.350   0.221 -0.6784 -2.7911  0.1006
  744MOL0     H98181   7.115  10.426   0.137  0.8023 -0.5986  1.7958
  744MOL0     H98182   6.942  10.195   0.038 -2.5657  2.5016 -0.0647
  744MOL0     H98183   7.095  10.250  -0.041  0.1416 -0.4040  0.5195
  744MOL0     H98184   7.005  10.477  -0.064 -0.6052  0.3344 -0.6642
  744MOL0     H98185   6.846  10.413  -0.024 -0.6464 -0.7039 -1.3675
  744MOL0     H98186   6.997  10.325  -0.275 -1.0735 -0.4468 -2.2312
  744MOL0     H98187   6.878  10.234  -0.197  0.7337  0.4296  0.7823
  744MOL0     H98188   6.856  10.512  -0.327  2.4865 -1.2396 -0.8745
  744MOL0     H98189   6.726  10.451  -0.213  1.1091 -0.6744  1.1161
  744MOL0     H98190   7.660  10.231   0.303 -2.1644  0.3170 -0.5809
  744MOL0     H98191   7.865  10.098   0.404  0.7955  0.0843  3.0995
  744MOL0     H98192   8.037   9.791   0.662  0.1769 -0.2252 -1.2867
  744MOL0     H98193   8.151   9.644   0.800  0.5291  1.0186 -0.0075
  744MOL0     H98194   7.125   9.380   0.508 -2.2044  1.4532  1.0333
  744MOL0     H98195   7.011   9.475   0.339  0.1068  0.2727  1.4947
  744MOL0     H98196   6.915   9.899   0.142 -0.3125  0.2800  1.0079
  744MOL0     H98197   6.739  10.011   0.031  2.2260  0.3741 -0.6912
  744MOL0     H98198   6.639  10.068  -0.156 -0.6845  0.8945 -2.8135
  744MOL0     H98199   6.485  10.067  -0.063 -0.7271 -2.0463  0.0142
  744MOL0     H98200   6.511  10.178  -0.302 -4.5225  1.1496 -1.4041
  744MOL0     H98201   6.523  10.009  -0.354  1.3248 -0.4066  1.6525
  744MOL0     H98202   6.293  10.136  -0.172  0.6753  0.2437 -0.1729
  744MOL0     H98203   6.282   9.994  -0.254  0.6336  0.2868  0.7683
  744MOL0     H98204   6.235  10.086  -0.451 -0.9119 -1.5830  0.9304
  744MOL0     H98205   6.159  10.203  -0.354 -0.5389  0.6345 -1.5611
  744MOL0     H98206   6.447  10.467  -0.530  1.7847 -0.3639 -0.3817
  744MOL0     H98207   6.627   9.626  -0.156  2.2460 -2.0772  0.5871
  744MOL0     H98208   6.819   9.535  -0.062  0.2296  0.7912 -0.8761
  745MOL0     O98209   5.328   9.698   9.304  0.2535 -0.6415  0.1708
  745MOL0     C98210   5.310   9.579   9.284  0.6870  0.0800  0.7655
  745MOL0     O98211   5.388   9.481   9.315  0.4519 -0.1870  0.9263
  745MOL0     C98212   5.510   9.505   9.371 -0.0016  0.8371 -0.5905
  745MOL0     C98213   5.620   9.525   9.281 -0.4465  0.2730 -0.7171
  745MOL0     C98214   5.743   9.554   9.329 -0.7696  0.0346  0.0991
  745MOL0     C98215   5.774   9.555   9.467  0.3072  0.3715  1.3536
  745MOL0     O98216   5.905   9.572   9.496  0.1990 -0.1313 -0.5955
  745MOL0     C98217   5.958   9.550   9.637  0.2028 -0.1720 -0.1162
  745MOL0     C98218   5.997   9.410   9.686 -1.0573  0.0995 -0.0962
  745MOL0     C98219   6.149   9.371   9.644  0.0998 -0.2918 -0.1797
  745MOL0     C98220   6.153   9.216   9.647 -0.4147 -0.5572  0.1672
  745MOL0     C98221   6.287   9.156   9.613 -0.0924  0.2759  1.1121
  745MOL0     C98222   6.401   9.236   9.677  0.0027  0.7587  0.2630
  745MOL0     C98223   6.535   9.156   9.674  0.3176  0.0513 -0.0811
  745MOL0     C98224   6.604   9.174   9.542  0.0428 -0.7869  1.0678
  745MOL0     N98225   6.742   9.224   9.540 -0.0813  0.1201  0.2742
  745MOL0     C98226   6.854   9.141   9.543  0.1300  0.2087 -0.4161
  745MOL0     C98227   6.958   9.214   9.592  0.0974 -0.4746  0.0625
  745MOL0     C98228   7.100   9.170   9.623 -0.5491 -0.1256  0.7678
  745MOL0     C98229   7.185   9.260   9.532  0.3334 -0.2527 -0.4247
  745MOL0     C98230   7.322   9.198   9.501 -0.4802 -0.1800  0.7546
  745MOL0     C98231   7.325   9.069   9.412  0.0142 -0.5573 -0.0393
  745MOL0     O98232   7.260   9.094   9.291  0.1688  0.6751 -0.4005
  745MOL0     C98233   7.126   9.063   9.268 -0.0228 -0.8492 -0.1533
  745MOL0     C98234   7.068   8.946   9.322  1.5098 -0.6752  0.5357
  745MOL0     C98235   6.935   8.915   9.297 -0.0681 -0.3502  0.2185
  745MOL0     C98236   6.854   8.998   9.219 -0.6442  0.3566  0.1458
  745MOL0     C98237   6.708   8.966   9.198  0.4268  0.5465  0.4616
  745MOL0     O98238   6.627   8.907   9.290  0.4508  0.0777 -0.7163
  745MOL0     C98239   6.490   8.875   9.251 -0.6861 -0.7603 -0.1801
  745MOL0     C98240   6.382   8.903   9.352 -0.2027  0.7791  0.3136
  745MOL0     C98241   6.252   8.875   9.319 -0.0626 -0.2954  0.6594
  745MOL0     C98242   6.218   8.827   9.191  0.0348 -0.0771  0.6118
  745MOL0     O98243   6.084   8.805   9.160  0.5287 -0.3008 -0.5444
  745MOL0     C98244   6.047   8.714   9.051 -0.1376  0.1525 -1.0331
  745MOL0     C98245   5.898   8.688   9.042  0.2345  0.2202 -0.5964
  745MOL0     C98246   5.798   8.806   9.045 -0.5262 -0.2376 -0.0980
  745MOL0     C98247   5.661   8.780   8.974  0.9933 -0.0551 -0.9156
  745MOL0     C98248   5.556   8.891   9.016  0.6393 -0.2177  0.5270
  745MOL0     C98249   5.424   8.865   8.932 -0.1268 -0.3291  0.0729
  745MOL0     C98250   5.350   8.999   8.927 -0.9083  1.2322  0.2268
  745MOL0     C98251   5.309   9.041   9.070  0.9724  0.3233  0.1805
  745MOL0    Cl98252   5.424   9.147   9.157 -0.6421 -0.3702  0.5902
  745MOL0     C98253   6.321   8.799   9.100  0.1142 -0.4790 -1.1854
  745MOL0     C98254   6.456   8.813   9.130  0.0414  0.0382  0.9142
  745MOL0     O98255   6.670   9.002   9.081 -0.4474  0.3333 -0.6907
  745MOL0     C98256   6.915   9.113   9.157  0.0455 -0.1136 -0.6850
  745MOL0     C98257   7.052   9.150   9.193  0.0268 -0.4343  0.4474
  745MOL0     N98258   6.911   9.340   9.619 -0.4563  0.4346 -0.0367
  745MOL0     N98259   6.785   9.345   9.591  0.8182 -0.8372 -0.5900
  745MOL0     C98260   5.665   9.542   9.552  0.0265  0.4446  0.1550
  745MOL0     C98261   5.530   9.519   9.506  0.1306 -0.7939  0.0215
  745MOL0     C98262   5.190   9.542   9.212  0.4287  0.1575  0.4606
  745MOL0     C98263   5.094   9.633   9.184  0.1358 -0.5071  0.3072
  745MOL0     C98264   4.979   9.605   9.107  0.4412 -0.5332  0.7589
  745MOL0     C98265   4.941   9.478   9.071  0.7983  0.9890 -0.7980
  745MOL0     O98266   4.828   9.426   9.011  0.5263  0.8686  0.1845
  745MOL0     C98267   4.711   9.510   9.015  0.6777 -0.0873  0.3638
  745MOL0     C98268   4.711   9.617   8.907  0.7032 -0.4880 -0.4199
  745MOL0     C98269   4.577   9.683   8.911 -0.3554 -0.3376 -0.0356
  745MOL0     C98270   4.567   9.810   8.831  0.1167 -0.1976  0.2074
  745MOL0     C98271   4.437   9.860   8.830  0.5429 -0.3477  0.3215
  745MOL0     C98272   4.329   9.911   8.829  0.6756  0.7847 -0.5879
  745MOL0     C98273   5.026   9.380   9.117  0.3706  0.0539 -0.0620
  745MOL0     C98274   5.150   9.411   9.181  0.6875  0.1801  0.1013
  745MOL0     H98275   5.593   9.524   9.176  2.0235  1.6837 -1.4470
  745MOL0     H98276   5.816   9.554   9.249 -3.5359 -2.8236 -2.7614
  745MOL0     H98277   5.886   9.596   9.706  2.7884  3.1348  0.6803
  745MOL0     H98278   6.051   9.603   9.661  0.9419 -1.8736  1.0065
  745MOL0     H98279   5.922   9.338   9.652 -2.1401 -0.4492  3.1243
  745MOL0     H98280   6.006   9.425   9.794  0.6669  1.3070 -0.3577
  745MOL0     H98281   6.214   9.421   9.717  0.0450 -0.5545  0.0532
  745MOL0     H98282   6.181   9.400   9.544  0.3607 -0.4029 -0.1278
  745MOL0     H98283   6.131   9.180   9.748  0.3943  2.6939  1.6311
  745MOL0     H98284   6.070   9.177   9.586 -2.5788  0.7772  2.1017
  745MOL0     H98285   6.302   9.165   9.505  1.5304 -4.8167  0.6238
  745MOL0     H98286   6.291   9.049   9.634 -0.2758  0.2402  0.9718
  745MOL0     H98287   6.373   9.254   9.782 -0.9773  0.2236  0.1098
  745MOL0     H98288   6.410   9.334   9.630  3.6847  0.3728 -0.0881
  745MOL0     H98289   6.608   9.178   9.753  2.3946 -1.0317 -1.6264
  745MOL0     H98290   6.511   9.050   9.685  1.5964 -0.0776  2.4239
  745MOL0     H98291   6.545   9.240   9.478 -0.5849  0.3304  2.7255
  745MOL0     H98292   6.606   9.072   9.503 -2.2717  0.3223 -2.3959
  745MOL0     H98293   6.849   9.037   9.513 -0.5559 -0.3354  1.4760
  745MOL0     H98294   7.106   9.061   9.611 -0.3400 -0.4854  3.5223
  745MOL0     H98295   7.138   9.187   9.724 -0.0476  3.6629  0.0893
  745MOL0     H98296   7.207   9.355   9.582 -2.2466  0.3616 -0.3589
  745MOL0     H98297   7.136   9.283   9.437  0.5952 -3.8986 -1.5998
  745MOL0     H98298   7.392   9.275   9.466  0.9375  0.6042  4.8426
  745MOL0     H98299   7.365   9.176   9.599 -0.4767 -1.1658  0.5470
  745MOL0     H98300   7.280   8.990   9.473  2.2407 -2.9387 -1.3052
  745MOL0     H98301   7.423   9.022   9.401  0.7301  0.4209  1.7827
  745MOL0     H98302   7.133   8.868   9.360  1.1305 -0.7830  0.9671
  745MOL0     H98303   6.887   8.820   9.316 -0.6123 -0.0072  0.6083
  745MOL0     H98304   6.404   8.957   9.444 -1.8173 -0.9840  1.8023
  745MOL0     H98305   6.166   8.912   9.374  0.7454  0.9649  1.1196
  745MOL0     H98306   6.089   8.613   9.058 -3.9345 -1.7871 -2.7687
  745MOL0     H98307   6.075   8.762   8.957  1.5460 -2.3835 -1.9467
  745MOL0     H98308   5.872   8.606   9.110 -0.9131  1.0733  0.0381
  745MOL0     H98309   5.879   8.646   8.942 -1.7288  4.6364 -2.3418
  745MOL0     H98310   5.846   8.892   8.997  1.0228 -0.6105  0.6908
  745MOL0     H98311   5.781   8.815   9.153 -0.0840 -2.9843  0.2612
  745MOL0     H98312   5.683   8.788   8.868  0.1929  0.6377 -1.0354
  745MOL0     H98313   5.619   8.683   9.003 -3.5692  1.8339 -0.2326
  745MOL0     H98314   5.594   8.991   8.992  0.7560  0.0048  1.5868
  745MOL0     H98315   5.533   8.904   9.122 -1.9875 -1.6426  0.2273
  745MOL0     H98316   5.362   8.788   8.979 -1.8358 -0.2285 -1.8460
  745MOL0     H98317   5.443   8.830   8.830  1.5532  2.8381 -0.8265
  745MOL0     H98318   5.412   9.077   8.883  1.5262 -1.3305 -1.1970
  745MOL0     H98319   5.264   8.986   8.861 -1.0613  1.1028  0.4491
  745MOL0     H98320   5.282   8.956   9.135  3.3756 -1.1637 -0.6113
  745MOL0     H98321   5.219   9.102   9.057 -0.6522 -2.3516 -2.8209
  745MOL0     H98322   6.298   8.761   9.000  1.9916 -0.7290 -1.5683
  745MOL0     H98323   6.540   8.775   9.073 -1.9161 -3.1164 -0.0977
  745MOL0     H98324   6.854   9.172   9.090 -0.5417 -0.4756 -0.4788
  745MOL0     H98325   7.089   9.243   9.151 -2.1626  0.7662  0.9844
  745MOL0     H98326   5.678   9.569   9.656 -1.3446  0.4385  0.3525
  745MOL0     H98327   5.444   9.525   9.572 -2.5692 -3.7874 -2.8970
  745MOL0     H98328   5.101   9.735   9.221 -1.1009 -0.2192 -0.1897
  745MOL0     H98329   4.908   9.685   9.088  1.0075 -0.7046 -2.6837
  745MOL0     H98330   4.694   9.566   9.108  1.3751  2.7250 -1.1097
  745MOL0     H98331   4.627   9.445   8.990  0.6831  0.0950 -0.1211
  745MOL0     H98332   4.791   9.688   8.931 -1.4060  2.2582 -0.9205
  745MOL0     H98333   4.711   9.570   8.808 -3.1035 -4.3466  1.1299
  745MOL0     H98334   4.561   9.699   9.018  4.7027 -1.4071  1.1757
  745MOL0     H98335   4.502   9.614   8.871  2.3061 -1.6335 -3.2235
  745MOL0     H98336   4.633   9.890   8.867 -2.3380  1.2464  1.8083
  745MOL0     H98337   4.613   9.770   8.740 -1.3883 -1.9987  0.1939
  745MOL0     H98338   4.227   9.939   8.816  0.8566  2.7534  1.4841
  745MOL0     H98339   5.011   9.274   9.100  2.8557 -0.2696 -0.6536
  745MOL0     H98340   5.195   9.321   9.223  0.4680 -0.1050 -0.2676
  746MOL0     O98341   5.913   4.635   9.850 -0.7169  0.4614 -0.3861
  746MOL0     C98342   5.918   4.598   9.965 -0.5459  0.1356  0.4315
  746MOL0     O98343   6.034   4.541  10.023 -0.6456  0.3807 -0.4669
  746MOL0     C98344   6.156   4.527   9.948  0.5775  0.1797 -0.8976
  746MOL0     C98345   6.193   4.599   9.835  0.4126  0.4761  0.7245
  746MOL0     C98346   6.323   4.587   9.766  0.9218  0.4231 -0.3214
  746MOL0     C98347   6.405   4.494   9.820 -0.5876  0.6836 -0.0875
  746MOL0     O98348   6.514   4.444   9.747 -0.4274 -0.0432  0.0323
  746MOL0     C98349   6.515   4.445   9.601  0.0842  0.3547 -1.2728
  746MOL0     C98350   6.632   4.361   9.548  0.6002 -0.7122 -0.4790
  746MOL0     C98351   6.580   4.219   9.545  0.3816 -0.3757  0.6811
  746MOL0     C98352   6.685   4.116   9.505  0.3079  0.2216 -0.0024
  746MOL0     C98353   6.790   4.099   9.620 -0.7384  0.0054  0.6964
  746MOL0     C98354   6.890   3.994   9.566 -0.5132 -0.8978  0.0204
  746MOL0     C98355   6.986   4.043   9.469  0.0054 -0.3876  0.2903
  746MOL0     C98356   7.106   4.105   9.535 -0.7957 -1.0158  0.2875
  746MOL0     N98357   7.197   4.003   9.582 -0.4721 -0.5205  0.4596
  746MOL0     C98358   7.273   3.922   9.510 -0.8259  0.2357 -0.3492
  746MOL0     C98359   7.350   3.849   9.599  0.3365  0.6296 -0.1196
  746MOL0     C98360   7.429   3.727   9.563 -0.0046 -0.1146 -0.5166
  746MOL0     C98361   7.335   3.621   9.515 -0.2661 -0.3737  0.4391
  746MOL0     C98362   7.405   3.504   9.451 -0.5857 -0.6647 -0.7515
  746MOL0     C98363   7.482   3.543   9.326 -0.2044  0.1757  1.0350
  746MOL0     O98364   7.624   3.577   9.338 -0.0992  0.2156  0.3707
  746MOL0     C98365   7.707   3.481   9.385 -0.9689  0.4181 -0.5663
  746MOL0     C98366   7.833   3.529   9.439 -0.8123 -0.2504 -0.2247
  746MOL0     C98367   7.932   3.449   9.493  0.2807 -0.2911 -0.7536
  746MOL0     C98368   7.917   3.311   9.486 -1.2287  0.6900 -0.8439
  746MOL0     C98369   8.030   3.221   9.524 -0.4073 -0.2202  0.1050
  746MOL0     O98370   8.147   3.288   9.542 -0.3640 -0.1544  1.3195
  746MOL0     C98371   8.262   3.222   9.585 -0.0210 -0.3928 -0.4068
  746MOL0     C98372   8.391   3.269   9.533  0.4517  0.4519 -0.0011
  746MOL0     C98373   8.506   3.205   9.580 -0.1240 -0.5659  0.8077
  746MOL0     C98374   8.496   3.094   9.665  0.5752  0.1279 -0.2167
  746MOL0     O98375   8.599   3.015   9.712  0.1558  0.4694 -0.3394
  746MOL0     C98376   8.725   3.047   9.676 -0.1161 -0.0910 -0.1054
  746MOL0     C98377   8.815   2.967   9.773 -0.2900  1.0471 -0.9025
  746MOL0     C98378   8.935   3.041   9.807  0.0248 -0.6314  0.3610
  746MOL0     C98379   9.043   2.962   9.887 -0.0043 -0.2277  0.9157
  746MOL0     C98380   9.172   3.045   9.913 -1.1708  0.3698  0.0110
  746MOL0     C98381   9.269   2.959  10.007 -0.2491  0.6389  0.5860
  746MOL0     C98382   9.228   2.947  10.153 -0.1476 -0.1290 -0.2487
  746MOL0     C98383   9.331   2.882  10.245 -0.7516  0.4675 -0.1765
  746MOL0    Cl98384   9.490   2.968  10.249  0.5195 -0.2507 -0.1381
  746MOL0     C98385   8.372   3.046   9.708 -0.1061  0.3261  0.1286
  746MOL0     C98386   8.253   3.109   9.677  1.1284  0.0385 -0.7076
  746MOL0     O98387   8.012   3.100   9.519  0.0366 -0.6169  0.7980
  746MOL0     C98388   7.800   3.261   9.432 -0.7982  0.3867 -0.6110
  746MOL0     C98389   7.693   3.338   9.371 -0.7679  0.3854  0.1316
  746MOL0     N98390   7.317   3.889   9.726 -0.0555 -0.3493 -0.0904
  746MOL0     N98391   7.219   3.976   9.710 -0.0523 -0.1042  0.4813
  746MOL0     C98392   6.369   4.419   9.930 -0.5834  0.5442  0.5078
  746MOL0     C98393   6.250   4.446  10.000  0.3846 -0.4809 -0.4586
  746MOL0     C98394   5.809   4.599  10.051  0.6852  0.3645 -0.0736
  746MOL0     C98395   5.686   4.646   9.997  0.1845 -0.3502 -0.6197
  746MOL0     C98396   5.567   4.637  10.067 -0.3645  0.2667  0.2227
  746MOL0     C98397   5.568   4.591  10.202 -0.1784  0.0409  0.7255
  746MOL0     O98398   5.452   4.582  10.272 -0.2555  1.5661  0.3516
  746MOL0     C98399   5.333   4.648  10.223 -0.1073 -0.4114 -0.7080
  746MOL0     C98400   5.241   4.639  10.346 -0.3106  0.2455 -0.5202
  746MOL0     C98401   5.277   4.743  10.460 -0.7566  1.0276  0.0485
  746MOL0     C98402   5.164   4.727  10.566  0.0311 -0.9422 -0.1829
  746MOL0     C98403   5.181   4.813  10.683  0.4905 -0.9033  0.0880
  746MOL0     C98404   5.188   4.890  10.772 -0.5821 -0.4580 -0.0752
  746MOL0     C98405   5.688   4.555  10.253 -0.0650  0.8070  0.1665
  746MOL0     C98406   5.801   4.551  10.185 -0.6075 -0.3198  0.4729
  746MOL0     H98407   6.126   4.669   9.786  2.5230  2.3778  0.3562
  746MOL0     H98408   6.352   4.663   9.694  0.4756  1.6651  0.7880
  746MOL0     H98409   6.534   4.548   9.569 -2.2752  1.5821  0.8702
  746MOL0     H98410   6.424   4.403   9.558 -0.3919  1.0121 -0.9340
  746MOL0     H98411   6.728   4.377   9.598  0.9090  1.1932 -1.5469
  746MOL0     H98412   6.654   4.393   9.446  0.8913 -0.1469 -0.2458
  746MOL0     H98413   6.498   4.214   9.474 -1.5104 -0.1245  2.7355
  746MOL0     H98414   6.542   4.187   9.643 -2.2247  1.3984  0.3409
  746MOL0     H98415   6.639   4.019   9.486  0.2401  0.5852 -1.8160
  746MOL0     H98416   6.734   4.143   9.412 -0.6900  0.7781 -0.3782
  746MOL0     H98417   6.741   4.066   9.712 -3.0187 -2.5975 -1.2872
  746MOL0     H98418   6.840   4.196   9.634 -1.9958  0.6560  0.8075
  746MOL0     H98419   6.830   3.925   9.506 -0.4197  0.2394 -1.4425
  746MOL0     H98420   6.936   3.937   9.647  0.9491  3.5699  2.7257
  746MOL0     H98421   7.014   3.968   9.394 -0.9507 -0.4562 -0.0091
  746MOL0     H98422   6.940   4.123   9.410  1.2890  0.1144 -0.0713
  746MOL0     H98423   7.081   4.189   9.601 -2.1620 -0.4410 -0.9041
  746MOL0     H98424   7.160   4.149   9.450 -0.0249 -2.6673 -0.1050
  746MOL0     H98425   7.269   3.914   9.401 -2.1604 -0.6679 -0.2620
  746MOL0     H98426   7.493   3.691   9.644 -0.0787  1.9341  0.5431
  746MOL0     H98427   7.498   3.756   9.483 -0.2917  0.7219 -0.4764
  746MOL0     H98428   7.283   3.656   9.425  0.1247 -2.5788 -0.7182
  746MOL0     H98429   7.272   3.595   9.600  3.7578 -0.4180  3.7103
  746MOL0     H98430   7.477   3.466   9.524 -0.8478 -1.2675 -0.8026
  746MOL0     H98431   7.335   3.422   9.430 -2.1495  0.6517 -0.8549
  746MOL0     H98432   7.422   3.614   9.269  0.0550  1.5611  2.4042
  746MOL0     H98433   7.488   3.463   9.252  0.7144  2.2953 -1.3336
  746MOL0     H98434   7.839   3.637   9.456 -0.3183 -0.3272  0.1178
  746MOL0     H98435   8.021   3.506   9.517 -1.3021  2.3444 -0.7378
  746MOL0     H98436   8.402   3.360   9.475  1.6727  0.5954  0.4138
  746MOL0     H98437   8.600   3.245   9.542 -0.5369  0.4540  0.8529
  746MOL0     H98438   8.742   3.155   9.688 -0.8484 -0.2347  3.6272
  746MOL0     H98439   8.763   3.026   9.576 -2.4440 -1.8262 -0.6963
  746MOL0     H98440   8.833   2.869   9.727  2.8892  2.9602 -4.2560
  746MOL0     H98441   8.762   2.953   9.868 -1.2477 -2.5187 -1.7795
  746MOL0     H98442   8.908   3.134   9.858 -1.9192 -0.3903 -0.9873
  746MOL0     H98443   8.971   3.085   9.713 -0.0096 -2.4991 -0.5633
  746MOL0     H98444   8.997   2.936   9.983 -2.4973 -0.5372 -0.2985
  746MOL0     H98445   9.065   2.869   9.835 -1.5719  1.2981 -2.8207
  746MOL0     H98446   9.141   3.132   9.972 -1.0214 -0.3737  1.2406
  746MOL0     H98447   9.215   3.086   9.822 -1.3698  1.6673  0.4875
  746MOL0     H98448   9.366   3.009  10.001  0.2134 -0.4561 -2.5526
  746MOL0     H98449   9.285   2.864   9.955  1.3002  1.9639 -1.5059
  746MOL0     H98450   9.217   3.052  10.181 -1.5150 -0.6532  1.2963
  746MOL0     H98451   9.137   2.888  10.162  0.8771 -1.5796  1.1232
  746MOL0     H98452   9.341   2.779  10.209 -0.1457 -0.0694  1.4127
  746MOL0     H98453   9.291   2.875  10.347  1.9398 -0.8324  0.9155
  746MOL0     H98454   8.371   2.969   9.785 -1.1580 -0.0597 -0.2616
  746MOL0     H98455   8.168   3.099   9.744  1.4909 -0.3861 -0.3062
  746MOL0     H98456   7.788   3.153   9.431  1.0540  0.1603 -1.0532
  746MOL0     H98457   7.604   3.288   9.332 -2.3399  1.4695  2.1674
  746MOL0     H98458   6.431   4.336   9.961 -2.3307 -0.7250  0.7538
  746MOL0     H98459   6.235   4.398  10.096 -2.2827  0.9570 -0.0648
  746MOL0     H98460   5.683   4.688   9.897 -2.3319  1.6607  0.1819
  746MOL0     H98461   5.473   4.661  10.019 -1.3664  1.7269  2.7003
  746MOL0     H98462   5.308   4.604  10.126 -0.2331  1.3818 -1.5264
  746MOL0     H98463   5.353   4.753  10.203 -1.8269  0.4292  1.5165
  746MOL0     H98464   5.139   4.666  10.316 -0.8058 -0.6067  0.3318
  746MOL0     H98465   5.236   4.537  10.385  2.7327 -0.3026 -1.3528
  746MOL0     H98466   5.293   4.848  10.438 -0.2979  0.4621 -2.6617
  746MOL0     H98467   5.367   4.710  10.514  0.7662 -0.6067 -3.1775
  746MOL0     H98468   5.069   4.748  10.517  0.1572  1.2758  0.4159
  746MOL0     H98469   5.155   4.624  10.604 -0.4513 -1.1992 -0.9796
  746MOL0     H98470   5.211   4.969  10.841 -2.4585  1.4230 -1.4864
  746MOL0     H98471   5.701   4.530  10.357  0.2795  3.2966  0.7751
  746MOL0     H98472   5.894   4.522  10.233  1.0887  0.7632 -1.9507
  747MOL0     O98473   7.496  10.676  10.544 -0.0717 -0.1839  0.9671
  747MOL0     C98474   7.466  10.586  10.463 -1.1545 -1.0429 -0.1101
  747MOL0     O98475   7.335  10.550  10.441 -0.3830 -0.2883  0.7015
  747MOL0     C98476   7.236  10.645  10.453 -0.7479 -1.4367 -0.1836
  747MOL0     C98477   7.200  10.682  10.576 -0.4471  0.7227 -0.9771
  747MOL0     C98478   7.091  10.766  10.607 -0.3970 -0.1312  0.1212
  747MOL0     C98479   7.015  10.811  10.504  1.0210 -0.7585 -0.0865
  747MOL0     O98480   6.898  10.890  10.539 -0.3858  0.3082 -0.2118
  747MOL0     C98481   6.812  10.921  10.429 -0.7640 -0.0760  1.1248
  747MOL0     C98482   6.707  11.010  10.486  0.5526 -0.8068 -0.2867
  747MOL0     C98483   6.607  11.054  10.383 -0.1787  0.1614  0.3950
  747MOL0     C98484   6.500  11.153  10.432 -0.5398  0.8124 -0.1685
  747MOL0     C98485   6.359  11.094  10.374  0.1939 -0.6395 -0.3047
  747MOL0     C98486   6.325  11.131  10.228  0.2873  0.0624  0.4526
  747MOL0     C98487   6.232  11.257  10.221  0.1471 -0.1915  0.6067
  747MOL0     C98488   6.284  11.390  10.290  0.1694 -0.8279 -0.5609
  747MOL0     N98489   6.221  11.516  10.237 -0.0910 -0.6136 -0.3508
  747MOL0     C98490   6.123  11.531  10.143  0.4452  0.6416  0.6872
  747MOL0     C98491   6.096  11.663  10.144  0.5717  0.6523  0.1207
  747MOL0     C98492   5.993  11.723  10.047 -0.2989 -0.6047 -0.3015
  747MOL0     C98493   5.904  11.818  10.123 -0.3939  0.9732  0.2002
  747MOL0     C98494   5.812  11.894  10.030  0.3101  0.0223  0.5921
  747MOL0     C98495   5.720  11.993  10.112  0.7499 -0.9391  0.1187
  747MOL0     O98496   5.653  11.922  10.210  0.1164 -0.0046 -0.3373
  747MOL0     C98497   5.518  11.957  10.217 -0.3684  0.5979  0.8980
  747MOL0     C98498   5.419  11.851  10.240 -0.2098  0.1993  0.5126
  747MOL0     C98499   5.279  11.890  10.255 -0.2731  0.4669 -0.8200
  747MOL0     C98500   5.234  12.020  10.248  0.4802 -0.3499 -0.2000
  747MOL0     C98501   5.089  12.053  10.245  0.5358 -0.1329 -0.2109
  747MOL0     O98502   5.042  12.178  10.215 -0.6682  0.3634  0.7684
  747MOL0     C98503   4.907  12.196  10.194 -0.7077 -0.8705 -0.1502
  747MOL0     C98504   4.859  12.224  10.068  0.1778  0.1662 -0.1080
  747MOL0     C98505   4.717  12.227  10.041  0.4431 -1.1129  0.4589
  747MOL0     C98506   4.615  12.208  10.146 -0.5206  0.0607  0.3569
  747MOL0     O98507   4.484  12.235  10.136  0.2489  0.1014  0.0816
  747MOL0     C98508   4.418  12.300  10.020  0.3045 -0.3970 -0.2645
  747MOL0     C98509   4.288  12.354  10.073 -0.5061  0.6259 -0.0992
  747MOL0     C98510   4.299  12.498  10.122  0.2678 -0.3179 -0.1696
  747MOL0     C98511   4.382  12.515  10.250 -0.6808  1.2207 -0.1259
  747MOL0     C98512   4.365  12.643  10.330  0.1775 -0.2964 -0.2867
  747MOL0     C98513   4.383  12.789  10.259  0.5031  0.3921 -0.0988
  747MOL0     C98514   4.518  12.800  10.167  0.2536  0.7212  0.6455
  747MOL0     C98515   4.513  12.929  10.100  0.0576 -0.4934  0.8651
  747MOL0    Cl98516   4.604  12.929   9.945 -0.3166 -0.0937 -0.2427
  747MOL0     C98517   4.667  12.165  10.264  0.5639 -0.0724 -1.0446
  747MOL0     C98518   4.812  12.169  10.293  0.7055  0.0060 -0.2227
  747MOL0     O98519   5.014  11.960  10.273 -0.2363  0.1011  0.5082
  747MOL0     C98520   5.327  12.118  10.226 -0.3837 -0.1235 -0.0693
  747MOL0     C98521   5.464  12.088  10.217  0.1880  0.5037  0.1324
  747MOL0     N98522   6.180  11.726  10.235  0.2242 -0.0186  0.0069
  747MOL0     N98523   6.248  11.634  10.296 -0.6274 -0.4340  0.1182
  747MOL0     C98524   7.047  10.774  10.373 -0.5239  0.3145 -0.0156
  747MOL0     C98525   7.152  10.682  10.347 -0.2748 -0.0721 -0.2066
  747MOL0     C98526   7.567  10.487  10.410 -0.0308  0.0483 -0.5176
  747MOL0     C98527   7.532  10.357  10.371  0.7311  0.0074 -0.8319
  747MOL0     C98528   7.624  10.265  10.317 -0.1121  0.7992  0.4090
  747MOL0     C98529   7.761  10.313  10.294 -0.6475 -0.2740  0.0318
  747MOL0     O98530   7.855  10.224  10.265 -0.7323  0.4605  0.0191
  747MOL0     C98531   7.987  10.259  10.227 -0.0458  0.1988 -0.2027
  747MOL0     C98532   8.062  10.134  10.180  0.1167  0.5328  0.8260
  747MOL0     C98533   8.044  10.014  10.267 -0.6515 -0.4579 -0.9671
  747MOL0     C98534   8.148   9.906  10.246 -0.6946  0.4622 -0.4697
  747MOL0     C98535   8.101   9.823  10.136  0.5990 -0.3941 -0.4004
  747MOL0     C98536   8.060   9.734  10.052  0.5545  0.2240  0.0826
  747MOL0     C98537   7.795  10.446  10.325 -0.7378 -0.7511 -0.5739
  747MOL0     C98538   7.700  10.534  10.383  0.2133  0.5999  0.5485
  747MOL0     H98539   7.257  10.634  10.655 -2.3993 -3.3638 -1.8126
  747MOL0     H98540   7.064  10.785  10.710 -0.9688  0.5788 -0.1457
  747MOL0     H98541   6.759  10.832  10.393 -0.9871  1.0106 -1.4690
  747MOL0     H98542   6.857  10.966  10.340 -2.5263  0.8599  0.6549
  747MOL0     H98543   6.750  11.103  10.524  0.6583 -0.6567 -0.7645
  747MOL0     H98544   6.652  10.965  10.569  0.3893 -1.0999 -0.5536
  747MOL0     H98545   6.562  10.959  10.351 -0.8117 -0.6672  3.3962
  747MOL0     H98546   6.657  11.104  10.301 -3.6442 -0.2474 -2.1984
  747MOL0     H98547   6.494  11.170  10.540 -2.5735 -0.8220  0.0418
  747MOL0     H98548   6.524  11.252  10.393 -0.8577  0.1198 -2.2213
  747MOL0     H98549   6.277  11.136  10.433  0.5947 -2.3083  1.5064
  747MOL0     H98550   6.352  10.989  10.403 -1.6959  0.4662  4.0797
  747MOL0     H98551   6.275  11.050  10.174 -1.7272  0.5851  1.4106
  747MOL0     H98552   6.412  11.164  10.172 -0.0657  2.8359  1.3816
  747MOL0     H98553   6.235  11.291  10.116  0.1037  3.0146  1.5162
  747MOL0     H98554   6.132  11.230  10.256  1.3030 -5.6055  0.4957
  747MOL0     H98555   6.392  11.400  10.274  0.0225  2.2888 -0.2872
  747MOL0     H98556   6.283  11.395  10.399  0.4570 -2.1456 -0.4895
  747MOL0     H98557   6.089  11.453  10.076 -0.8261  1.6143  0.1499
  747MOL0     H98558   5.943  11.639   9.999 -2.4556 -0.7607  2.0193
  747MOL0     H98559   6.055  11.782   9.977  0.4139 -1.9697 -0.8512
  747MOL0     H98560   5.969  11.892  10.171 -0.1268  1.4925 -0.9267
  747MOL0     H98561   5.856  11.758  10.201  2.7460  1.2776  2.5776
  747MOL0     H98562   5.870  11.959   9.964  1.2113  0.2141  1.5604
  747MOL0     H98563   5.751  11.820   9.977  1.5218 -0.4964 -0.0990
  747MOL0     H98564   5.645  12.033  10.043 -3.6066 -3.3329  2.9655
  747MOL0     H98565   5.780  12.076  10.150  0.4579 -0.8470  0.3804
  747MOL0     H98566   5.453  11.748  10.229  0.2042  0.5268 -1.6211
  747MOL0     H98567   5.202  11.813  10.256 -3.5886  3.5176 -0.4132
  747MOL0     H98568   4.932  12.249   9.992 -1.3296  0.6405 -1.4702
  747MOL0     H98569   4.676  12.256   9.944 -1.7639 -0.4670  1.5268
  747MOL0     H98570   4.405  12.224   9.943 -0.8266 -0.0478 -0.4244
  747MOL0     H98571   4.474  12.383   9.976 -0.7291 -0.2409 -1.3160
  747MOL0     H98572   4.254  12.289  10.154  3.1530  0.7544  1.7330
  747MOL0     H98573   4.212  12.353   9.994  1.0578 -0.3945 -1.6811
  747MOL0     H98574   4.201  12.541  10.144  0.2279  0.7117 -2.1180
  747MOL0     H98575   4.338  12.563  10.043 -1.1321 -1.5855 -1.9930
  747MOL0     H98576   4.347  12.443  10.325 -2.2537  1.9292 -0.1341
  747MOL0     H98577   4.486  12.500  10.222 -0.2928  3.5510 -0.1133
  747MOL0     H98578   4.432  12.644  10.417 -0.5112  1.2978  0.2786
  747MOL0     H98579   4.266  12.639  10.377 -0.3167 -0.5531 -1.3241
  747MOL0     H98580   4.400  12.866  10.334 -0.1048  0.2403  0.1954
  747MOL0     H98581   4.293  12.801  10.197  2.1388 -0.3324 -2.8263
  747MOL0     H98582   4.601  12.798  10.239 -1.0466  0.3895  2.2044
  747MOL0     H98583   4.532  12.708  10.109  2.8334  1.1354  0.5042
  747MOL0     H98584   4.557  13.008  10.161 -3.2815  3.7849 -1.6509
  747MOL0     H98585   4.411  12.959  10.073 -0.5191 -0.6929  2.6337
  747MOL0     H98586   4.597  12.147  10.345  2.9344  2.8301  1.8654
  747MOL0     H98587   4.842  12.162  10.397 -3.3420  1.6810  1.2473
  747MOL0     H98588   5.292  12.220  10.216 -3.2156 -0.4279  4.2175
  747MOL0     H98589   5.527  12.177  10.221  0.3602  0.3835  0.0827
  747MOL0     H98590   6.977  10.789  10.292  0.4693 -0.4263 -1.0439
  747MOL0     H98591   7.184  10.633  10.256  0.1663 -2.2263  1.0320
  747MOL0     H98592   7.437  10.316  10.400 -0.2920  0.8964 -2.7103
  747MOL0     H98593   7.592  10.162  10.331  1.1184  0.5834  1.9830
  747MOL0     H98594   8.048  10.303  10.306 -1.4320 -2.7639  2.7635
  747MOL0     H98595   7.995  10.339  10.152  0.2818  1.0933  0.7624
  747MOL0     H98596   8.024  10.109  10.081  0.2554  0.5675  0.7639
  747MOL0     H98597   8.169  10.153  10.163  0.1212 -0.9469 -1.0399
  747MOL0     H98598   7.942   9.978  10.251 -1.4647  0.7590  1.2237
  747MOL0     H98599   8.051  10.038  10.373 -1.1968 -0.4583 -0.9307
  747MOL0     H98600   8.248   9.943  10.225  1.2362 -1.9177  3.4447
  747MOL0     H98601   8.148   9.838  10.331  2.5648 -1.6161 -1.9236
  747MOL0     H98602   8.018   9.662   9.985  1.5113 -0.4363  0.1736
  747MOL0     H98603   7.900  10.473  10.321 -0.6267 -0.3970  2.5391
  747MOL0     H98604   7.724  10.636  10.409 -1.7043  0.8227  1.5985
  748MOL0     O98605   0.492  10.135   8.441  0.0753 -0.4108 -0.8415
  748MOL0     C98606   0.592  10.216   8.441  0.5787  0.0499 -0.1499
  748MOL0     O98607   0.591  10.341   8.388  0.0174  0.3138 -0.6650
  748MOL0     C98608   0.467  10.396   8.392 -0.0933 -0.3667  0.7829
  748MOL0     C98609   0.394  10.429   8.507  0.1073  0.5622 -0.4005
  748MOL0     C98610   0.266  10.481   8.505  0.3840 -0.1905 -0.2804
  748MOL0     C98611   0.204  10.521   8.386 -0.1338 -0.3916  0.3361
  748MOL0     O98612   0.084  10.573   8.382  0.2430  0.4718  0.9349
  748MOL0     C98613  -0.006  10.513   8.289 -0.0393 -0.0480  0.4900
  748MOL0     C98614  -0.114  10.438   8.362  0.5923  0.2785  0.8556
  748MOL0     C98615  -0.226  10.516   8.433  0.4348  0.4136 -0.6308
  748MOL0     C98616  -0.342  10.434   8.486 -0.2197  0.0232 -1.3922
  748MOL0     C98617  -0.305  10.313   8.574 -0.7209 -0.3376  0.0654
  748MOL0     C98618  -0.227  10.352   8.696 -0.8811  0.6654 -0.6796
  748MOL0     C98619  -0.176  10.222   8.764  0.0111  0.0940  0.4376
  748MOL0     C98620  -0.283  10.151   8.847  0.0619  0.4372  1.0646
  748MOL0     N98621  -0.231  10.039   8.931 -0.2812  0.7878  0.7678
  748MOL0     C98622  -0.157   9.938   8.878 -0.0289  0.6215 -0.2176
  748MOL0     C98623  -0.111   9.867   8.980 -0.0589 -0.5952 -0.5205
  748MOL0     C98624  -0.018   9.751   8.975  0.4325 -0.8794  0.3659
  748MOL0     C98625   0.095   9.766   9.079 -0.0066  0.8094 -0.5914
  748MOL0     C98626   0.210   9.664   9.057 -0.3798  0.7813  0.1708
  748MOL0     C98627   0.345   9.707   9.126 -0.2343  0.6095  0.4757
  748MOL0     O98628   0.415   9.808   9.061 -0.4264 -0.0593 -0.2426
  748MOL0     C98629   0.551   9.777   9.042  0.3742  0.3946  0.5615
  748MOL0     C98630   0.574   9.691   8.939  0.5082  0.0383 -0.3175
  748MOL0     C98631   0.707   9.656   8.913  0.9521 -0.5535 -0.0919
  748MOL0     C98632   0.810   9.709   8.991 -0.5353  0.0948 -0.1534
  748MOL0     C98633   0.947   9.688   8.941 -0.1625 -0.2563 -0.3478
  748MOL0     O98634   1.040   9.654   9.039  0.6694  1.1013 -1.6685
  748MOL0     C98635   1.171   9.625   9.012  0.4503  0.1436  0.4805
  748MOL0     C98636   1.227   9.542   9.105 -0.8325 -0.3300  0.5545
  748MOL0     C98637   1.364   9.502   9.068 -0.6413 -0.4204 -1.6930
  748MOL0     C98638   1.443   9.550   8.961  0.8048 -0.4927  0.7723
  748MOL0     O98639   1.568   9.517   8.929 -0.3839  0.0118 -0.3913
  748MOL0     C98640   1.650   9.452   9.029  0.4626  0.8335 -0.1396
  748MOL0     C98641   1.790   9.433   8.974  0.8479 -0.2723 -0.5792
  748MOL0     C98642   1.879   9.375   9.085 -1.1045  0.2325 -0.1172
  748MOL0     C98643   2.030   9.382   9.052 -0.7908 -0.4989 -0.3340
  748MOL0     C98644   2.118   9.330   9.165  0.4517  0.8438  0.7495
  748MOL0     C98645   2.265   9.340   9.124  0.0104 -0.0745 -0.7623
  748MOL0     C98646   2.367   9.325   9.250 -0.2739  0.0349  0.3659
  748MOL0     C98647   2.359   9.176   9.293  0.1580 -0.8999  0.4744
  748MOL0    Cl98648   2.423   9.071   9.165 -0.1543 -0.0153 -0.2053
  748MOL0     C98649   1.387   9.656   8.884 -0.3059  0.4357 -0.1574
  748MOL0     C98650   1.250   9.685   8.912 -0.7300 -0.0818  1.0133
  748MOL0     O98651   0.960   9.685   8.822  0.4398 -0.5430  0.3874
  748MOL0     C98652   0.782   9.790   9.098 -0.5106 -0.3279 -0.6011
  748MOL0     C98653   0.650   9.826   9.131  0.1922  0.6250 -0.1712
  748MOL0     N98654  -0.161   9.928   9.101 -0.0459  0.6070  1.3963
  748MOL0     N98655  -0.240  10.026   9.065 -0.0753 -0.3725  0.5703
  748MOL0     C98656   0.282  10.505   8.270  0.2409 -0.1930  0.2532
  748MOL0     C98657   0.411  10.445   8.275  0.2491 -0.1658 -0.2248
  748MOL0     C98658   0.723  10.166   8.489 -0.5807  0.7668  1.1594
  748MOL0     C98659   0.741  10.043   8.561 -0.1216  0.1760 -0.3410
  748MOL0     C98660   0.868   9.993   8.601  0.2369  0.6257  0.5022
  748MOL0     C98661   0.980  10.062   8.561 -0.5960 -0.6765  0.0070
  748MOL0     O98662   1.095  10.012   8.609  0.2613 -0.9049  0.2915
  748MOL0     C98663   1.220  10.066   8.574 -0.8236  0.3738  1.0004
  748MOL0     C98664   1.344   9.990   8.640  0.7408 -0.0626  1.5096
  748MOL0     C98665   1.477  10.053   8.611  0.3479  0.1367 -0.1889
  748MOL0     C98666   1.537  10.022   8.473  0.2571  0.2617 -1.0930
  748MOL0     C98667   1.543   9.876   8.455 -0.6466 -0.1178  0.3336
  748MOL0     C98668   1.539   9.757   8.441 -0.8676  0.1432  0.3600
  748MOL0     C98669   0.971  10.193   8.502 -1.6966 -0.3229  0.2940
  748MOL0     C98670   0.837  10.242   8.472 -0.2607 -0.2216 -0.5538
  748MOL0     H98671   0.456  10.412   8.595 -2.0357 -1.2613  0.8777
  748MOL0     H98672   0.230  10.496   8.606  0.8563  0.4724 -0.1970
  748MOL0     H98673   0.056  10.437   8.240  3.2464  2.6400  0.1226
  748MOL0     H98674  -0.049  10.581   8.215 -2.3221 -3.0893 -1.1852
  748MOL0     H98675  -0.072  10.368   8.434  1.4890  1.7077  1.7638
  748MOL0     H98676  -0.166  10.379   8.285 -1.9951 -1.7085  3.8569
  748MOL0     H98677  -0.263  10.596   8.369 -0.0532  0.2499 -0.5551
  748MOL0     H98678  -0.185  10.565   8.522  0.4969 -1.4092  0.3848
  748MOL0     H98679  -0.396  10.503   8.553  0.5634 -0.5286 -0.1505
  748MOL0     H98680  -0.406  10.409   8.401  0.1199  1.5495 -2.1447
  748MOL0     H98681  -0.249  10.244   8.511 -0.1263  1.3670 -1.3765
  748MOL0     H98682  -0.393  10.260   8.609 -2.5632  1.1595 -2.0179
  748MOL0     H98683  -0.283  10.415   8.765 -0.1712  2.3977 -1.6359
  748MOL0     H98684  -0.137  10.407   8.669  0.6608 -1.0434  0.7140
  748MOL0     H98685  -0.134  10.151   8.692  1.1181 -0.8912  1.9722
  748MOL0     H98686  -0.098  10.239   8.839 -2.6931 -1.4861  3.9238
  748MOL0     H98687  -0.365  10.114   8.785  0.2929  0.3621  0.8042
  748MOL0     H98688  -0.320  10.219   8.924 -0.0333 -0.4533  1.8250
  748MOL0     H98689  -0.143   9.937   8.770 -1.1674  1.5162 -0.4013
  748MOL0     H98690   0.013   9.759   8.871 -0.8052  2.3695  0.1601
  748MOL0     H98691  -0.073   9.658   8.992 -0.2600 -0.5356  0.0163
  748MOL0     H98692   0.054   9.748   9.179 -0.9885  0.5409 -1.0276
  748MOL0     H98693   0.128   9.870   9.078  2.0583  0.2782  1.9794
  748MOL0     H98694   0.188   9.562   9.091  1.3097  0.3785  0.1355
  748MOL0     H98695   0.230   9.654   8.950 -0.0529  2.5461  0.0408
  748MOL0     H98696   0.407   9.618   9.131 -0.4747  0.4097  0.0088
  748MOL0     H98697   0.318   9.734   9.228 -1.3916 -1.2531  0.7081
  748MOL0     H98698   0.484   9.641   8.904  0.5936 -1.4619  1.4952
  748MOL0     H98699   0.730   9.598   8.824 -0.7692 -0.6471 -0.5301
  748MOL0     H98700   1.179   9.519   9.200  1.3219 -1.2549  1.4825
  748MOL0     H98701   1.396   9.434   9.146  0.7463  4.0432  2.0479
  748MOL0     H98702   1.597   9.362   9.060  0.5013  1.0669  0.6174
  748MOL0     H98703   1.663   9.521   9.113  0.2504  2.2342 -1.2184
  748MOL0     H98704   1.833   9.527   8.938 -2.7838  0.7350 -2.8287
  748MOL0     H98705   1.787   9.364   8.889 -0.2725 -0.2767 -0.5488
  748MOL0     H98706   1.853   9.274   9.119 -2.2699 -0.2009 -2.1421
  748MOL0     H98707   1.874   9.443   9.171 -2.1783 -0.5214  0.4520
  748MOL0     H98708   2.047   9.325   8.960 -2.1257 -0.0858 -0.8548
  748MOL0     H98709   2.047   9.481   9.010 -0.3837 -0.9347 -1.2131
  748MOL0     H98710   2.101   9.222   9.173 -0.1463 -0.0153 -6.1977
  748MOL0     H98711   2.100   9.373   9.264  0.4520  0.3166  0.9851
  748MOL0     H98712   2.284   9.434   9.070  3.3092 -0.8781 -1.2628
  748MOL0     H98713   2.296   9.267   9.048 -2.0823 -1.3015 -0.5108
  748MOL0     H98714   2.472   9.333   9.222 -0.5608 -0.3622 -0.8861
  748MOL0     H98715   2.341   9.389   9.335  1.2607 -1.5534  2.1431
  748MOL0     H98716   2.254   9.160   9.320 -0.0292  1.2056  1.2003
  748MOL0     H98717   2.416   9.172   9.386  0.3062  0.6583  0.4694
  748MOL0     H98718   1.457   9.701   8.814  0.4848 -0.2561  0.1719
  748MOL0     H98719   1.199   9.760   8.853  0.6693  0.2619  0.2087
  748MOL0     H98720   0.859   9.825   9.166  3.1916  2.3300 -5.4690
  748MOL0     H98721   0.623   9.871   9.225 -1.0170 -3.0895  1.4358
  748MOL0     H98722   0.244  10.519   8.169  1.8242 -2.8404 -0.8277
  748MOL0     H98723   0.460  10.423   8.180  0.5318 -0.9363  0.0935
  748MOL0     H98724   0.649   9.997   8.597 -0.2164  1.6333  1.4351
  748MOL0     H98725   0.879   9.908   8.668  1.6480  0.2730 -0.1306
  748MOL0     H98726   1.231  10.168   8.612  2.1559 -0.0265  1.4121
  748MOL0     H98727   1.229  10.068   8.465  0.4680 -1.5005  1.0331
  748MOL0     H98728   1.322  10.003   8.746  2.1915  0.4676  1.7669
  748MOL0     H98729   1.346   9.881   8.623 -3.5750  0.1635 -2.7995
  748MOL0     H98730   1.554  10.032   8.686 -0.9067  1.3104  1.5351
  748MOL0     H98731   1.473  10.162   8.624  4.7289  0.1683  3.0956
  748MOL0     H98732   1.483  10.066   8.388 -1.6529 -1.5593 -0.9123
  748MOL0     H98733   1.640  10.056   8.464  0.0287  0.3931 -4.9618
  748MOL0     H98734   1.542   9.655   8.409  1.1003  0.7550 -1.6975
  748MOL0     H98735   1.065  10.243   8.483 -1.0279 -1.1675  1.2281
  748MOL0     H98736   0.834  10.347   8.444 -1.4426  0.2929  1.2487
  749MOL0     O98737   4.197   0.355  10.717  0.1385 -0.7049 -0.2427
  749MOL0     C98738   4.170   0.239  10.747  0.0762  1.1093 -0.6051
  749MOL0     O98739   4.058   0.174  10.714  0.4825 -0.6005  0.1112
  749MOL0     C98740   3.939   0.247  10.679 -0.4506 -1.2805  0.4557
  749MOL0     C98741   3.834   0.173  10.627 -0.2345  0.3451  0.8352
  749MOL0     C98742   3.717   0.230  10.579  0.9362 -0.2959  1.0451
  749MOL0     C98743   3.692   0.368  10.580 -0.0508 -0.5001  0.1749
  749MOL0     O98744   3.585   0.424  10.530  0.2173 -0.2339  0.9261
  749MOL0     C98745   3.479   0.405  10.619  0.2849  0.0872  0.1478
  749MOL0     C98746   3.346   0.441  10.544 -0.2468 -0.4466 -0.2819
  749MOL0     C98747   3.300   0.585  10.562 -0.5134  0.4287  0.2204
  749MOL0     C98748   3.262   0.618  10.710  0.8719 -0.6462  0.2892
  749MOL0     C98749   3.207   0.764  10.725  0.2620  0.6479  0.7109
  749MOL0     C98750   3.127   0.822  10.608  0.4931 -0.1463 -0.6110
  749MOL0     C98751   3.110   0.970  10.618 -0.5856  0.0858  0.1094
  749MOL0     C98752   3.005   1.008  10.727 -1.0055 -1.5285 -0.0102
  749MOL0     N98753   2.978   1.158  10.727 -0.9941  0.0426  0.3477
  749MOL0     C98754   3.071   1.255  10.771 -0.0254  1.4205 -0.3990
  749MOL0     C98755   2.999   1.371  10.764 -1.5039  0.4458 -0.6766
  749MOL0     C98756   3.050   1.505  10.804 -0.1709  0.1010  0.2962
  749MOL0     C98757   3.066   1.502  10.960  0.0307 -1.3277  0.3529
  749MOL0     C98758   2.949   1.451  11.042  0.4438  0.3523  0.2494
  749MOL0     C98759   2.827   1.539  11.025 -1.5428  0.4072  0.4262
  749MOL0     O98760   2.726   1.472  11.096  0.2346  0.1222 -0.1524
  749MOL0     C98761   2.606   1.432  11.040  0.0485  0.6723  0.1622
  749MOL0     C98762   2.578   1.414  10.902 -0.6425  0.2022  0.3799
  749MOL0     C98763   2.453   1.364  10.859  0.3574  0.1292 -0.0612
  749MOL0     C98764   2.354   1.325  10.950  0.5989  0.4634 -0.8740
  749MOL0     C98765   2.227   1.262  10.902 -0.2927  0.1175 -0.2587
  749MOL0     O98766   2.155   1.210  11.009  0.7801  0.1653 -0.0408
  749MOL0     C98767   2.039   1.123  11.001 -0.7359 -0.6266  0.4175
  749MOL0     C98768   1.916   1.168  11.051 -0.3575  0.0805 -0.4471
  749MOL0     C98769   1.796   1.095  11.043 -1.0292  0.0159  0.9576
  749MOL0     C98770   1.805   0.974  10.973  0.3960  0.3778 -0.1348
  749MOL0     O98771   1.692   0.903  10.952  0.3393 -0.3954  0.0146
  749MOL0     C98772   1.614   0.967  10.843  0.0783 -0.6777 -1.0323
  749MOL0     C98773   1.483   0.900  10.815  0.8897  0.1358 -0.2209
  749MOL0     C98774   1.381   0.984  10.728 -1.3851 -0.0728 -0.0145
  749MOL0     C98775   1.253   0.913  10.706 -0.2381  0.3485  0.7720
  749MOL0     C98776   1.136   1.004  10.679 -0.1425  0.4439  0.0147
  749MOL0     C98777   1.006   0.933  10.670  0.0541  0.1791 -0.6291
  749MOL0     C98778   0.895   1.018  10.601  0.1884 -0.9972 -0.6358
  749MOL0     C98779   0.865   0.979  10.456 -0.4810  0.7556  0.3459
  749MOL0    Cl98780   0.708   1.053  10.384 -0.2475 -0.1057  0.6329
  749MOL0     C98781   1.933   0.919  10.928 -0.0524  0.0326 -0.0760
  749MOL0     C98782   2.046   0.998  10.939  0.1759 -0.6681 -0.5169
  749MOL0     O98783   2.210   1.240  10.785 -0.1524 -0.1259 -0.4175
  749MOL0     C98784   2.388   1.333  11.088 -0.0696  0.0832 -0.3670
  749MOL0     C98785   2.506   1.394  11.131 -0.1531 -0.1450  0.0347
  749MOL0     N98786   2.866   1.338  10.727 -0.0233 -1.2780 -0.5821
  749MOL0     N98787   2.858   1.213  10.697  0.1864  0.0291  0.2919
  749MOL0     C98788   3.800   0.443  10.634 -1.3604 -0.2655  0.2563
  749MOL0     C98789   3.919   0.386  10.695  0.6645  0.7622 -0.7776
  749MOL0     C98790   4.283   0.166  10.808 -0.1544  1.4321 -0.4318
  749MOL0     C98791   4.284   0.025  10.814  0.0275  0.0816 -0.8236
  749MOL0     C98792   4.406  -0.033  10.854 -0.5605  0.8850 -0.2728
  749MOL0     C98793   4.520   0.034  10.894  0.0041 -0.6524 -0.1604
  749MOL0     O98794   4.622  -0.047  10.933 -0.0266  0.3103 -0.5813
  749MOL0     C98795   4.724   0.014  11.007  0.7086 -1.0232  0.6304
  749MOL0     C98796   4.799  -0.100  11.077 -0.5100  1.0124 -0.1431
  749MOL0     C98797   4.889  -0.044  11.192 -0.4947 -0.7800  0.2734
  749MOL0     C98798   4.961  -0.145  11.279  0.7727 -0.8258 -0.7224
  749MOL0     C98799   5.050  -0.233  11.199  0.0895  0.0306  0.8869
  749MOL0     C98800   5.131  -0.302  11.146  0.6259  0.3437 -0.9160
  749MOL0     C98801   4.523   0.174  10.871  0.1032 -1.3238  0.2098
  749MOL0     C98802   4.405   0.235  10.837  1.3173 -0.2349  0.5865
  749MOL0     H98803   3.850   0.067  10.609 -2.0322  0.0795  0.5642
  749MOL0     H98804   3.643   0.162  10.536  1.2403 -2.0648  3.0921
  749MOL0     H98805   3.497   0.466  10.708 -0.5164  1.7079 -0.7412
  749MOL0     H98806   3.471   0.301  10.651  3.0792 -0.1430  0.2665
  749MOL0     H98807   3.265   0.380  10.586  0.1285 -0.3655  0.5822
  749MOL0     H98808   3.366   0.410  10.441  5.7763  2.1540 -0.2905
  749MOL0     H98809   3.215   0.597  10.494 -1.2638 -0.9363  0.8700
  749MOL0     H98810   3.384   0.649  10.535  0.2750 -0.6530  0.0406
  749MOL0     H98811   3.180   0.555  10.746  1.7525 -0.3131  3.0918
  749MOL0     H98812   3.345   0.598  10.779  0.8975 -0.4760  0.3104
  749MOL0     H98813   3.292   0.829  10.750 -0.8290  2.3797  0.0795
  749MOL0     H98814   3.150   0.774  10.818 -3.5852  2.2900 -1.5936
  749MOL0     H98815   3.025   0.784  10.596  0.5901 -0.5920 -0.0552
  749MOL0     H98816   3.181   0.797  10.516  2.1550  0.3412  0.1974
  749MOL0     H98817   3.211   0.999  10.647 -1.1438  0.3615  1.9010
  749MOL0     H98818   3.079   0.995  10.516  0.9986 -0.4644 -0.5449
  749MOL0     H98819   3.039   0.970  10.824  0.3444  0.9058  0.5655
  749MOL0     H98820   2.913   0.952  10.707 -1.8547  0.3759 -1.7152
  749MOL0     H98821   3.170   1.224  10.803 -1.4945 -2.4494  1.0878
  749MOL0     H98822   2.984   1.589  10.780 -1.0951  0.2453  2.9435
  749MOL0     H98823   3.141   1.525  10.748 -2.6192  1.9114 -3.5059
  749MOL0     H98824   3.087   1.605  10.990  0.2714 -0.8187 -1.4311
  749MOL0     H98825   3.156   1.443  10.979  1.0719  0.1400  0.1812
  749MOL0     H98826   2.920   1.349  11.014  2.7104  0.6046 -3.7084
  749MOL0     H98827   2.983   1.445  11.146 -0.0122  1.9978  0.5264
  749MOL0     H98828   2.819   1.557  10.917  4.2129  1.2590 -0.1834
  749MOL0     H98829   2.846   1.643  11.053  1.5026 -0.1498  0.8010
  749MOL0     H98830   2.664   1.416  10.837  1.8475 -1.5514  3.3365
  749MOL0     H98831   2.431   1.366  10.753 -4.6937 -0.5411  0.7082
  749MOL0     H98832   1.914   1.264  11.103 -3.0136  0.5040 -1.1708
  749MOL0     H98833   1.711   1.129  11.101 -0.8995  1.2737  0.4381
  749MOL0     H98834   1.678   0.959  10.755 -0.5688 -1.9963 -1.4169
  749MOL0     H98835   1.603   1.074  10.863 -0.6897 -1.0121  0.4886
  749MOL0     H98836   1.429   0.874  10.907  1.2314  0.6934  0.1395
  749MOL0     H98837   1.501   0.804  10.765  0.8263  0.3406 -0.6353
  749MOL0     H98838   1.442   1.009  10.640 -3.2743  1.4627 -0.9741
  749MOL0     H98839   1.363   1.081  10.774 -2.2077 -0.5882  0.7707
  749MOL0     H98840   1.275   0.837  10.630 -0.0561  0.4370  0.7343
  749MOL0     H98841   1.231   0.871  10.804  1.4838 -0.7903  0.7289
  749MOL0     H98842   1.159   1.048  10.581  1.1569  1.5156  0.7616
  749MOL0     H98843   1.126   1.090  10.745 -2.6180  1.7791 -1.9406
  749MOL0     H98844   0.972   0.907  10.770  0.7580 -0.4744 -0.5480
  749MOL0     H98845   1.030   0.841  10.615 -0.4342 -0.3738  0.0694
  749MOL0     H98846   0.806   1.018  10.666  0.1353  0.2976 -0.6864
  749MOL0     H98847   0.923   1.123  10.593 -1.0581 -0.6227 -0.3709
  749MOL0     H98848   0.845   0.872  10.449 -1.9367  1.1055 -1.8300
  749MOL0     H98849   0.953   0.996  10.393 -2.2570  0.5818 -2.3540
  749MOL0     H98850   1.936   0.820  10.884 -1.3385  0.7447 -1.8991
  749MOL0     H98851   2.132   0.955  10.889 -0.9728 -0.2346 -3.0201
  749MOL0     H98852   2.322   1.297  11.166 -0.3612  2.0715  0.3610
  749MOL0     H98853   2.539   1.397  11.234 -0.6547 -0.3180  0.2021
  749MOL0     H98854   3.778   0.549  10.623 -1.9748 -0.2450  1.5119
  749MOL0     H98855   3.979   0.453  10.755  1.0561  0.1117 -0.4353
  749MOL0     H98856   4.200  -0.041  10.793 -0.4780  0.8789 -1.3765
  749MOL0     H98857   4.413  -0.140  10.874 -0.7502  1.0357  0.6578
  749MOL0     H98858   4.666   0.074  11.078  0.3796  1.0255 -1.2525
  749MOL0     H98859   4.783   0.086  10.951  1.1075 -1.0088  1.0591
  749MOL0     H98860   4.728  -0.167  11.125  1.8235 -1.4057  0.1399
  749MOL0     H98861   4.856  -0.169  11.014 -2.7257 -1.1882  0.1140
  749MOL0     H98862   4.845   0.032  11.257 -0.3065  0.7349 -1.2885
  749MOL0     H98863   4.965   0.008  11.132  0.0536 -1.3730  0.4406
  749MOL0     H98864   5.032  -0.091  11.341 -0.4869  0.5703 -0.4350
  749MOL0     H98865   4.896  -0.201  11.348 -0.9773  1.5787 -0.2914
  749MOL0     H98866   5.199  -0.371  11.101  1.3657  0.6004 -0.2353
  749MOL0     H98867   4.609   0.238  10.889 -1.2147 -0.1169  2.7503
  749MOL0     H98868   4.408   0.342  10.818  1.1376 -0.3640 -0.2245
  750MOL0     O98869   4.117   2.541   5.366 -0.1546  0.3579 -0.4057
  750MOL0     C98870   4.220   2.577   5.430  1.0865  0.3535 -0.4928
  750MOL0     O98871   4.235   2.698   5.488  0.0242 -0.4831 -0.0439
  750MOL0     C98872   4.120   2.773   5.479  0.0785 -0.3835 -0.5902
  750MOL0     C98873   4.091   2.843   5.372 -1.2143 -0.1401  0.0105
  750MOL0     C98874   3.965   2.906   5.356 -0.7658  0.3636 -0.4745
  750MOL0     C98875   3.874   2.907   5.466  1.1574 -0.4320  0.7025
  750MOL0     O98876   3.762   2.991   5.466 -0.0729  0.2458  0.4661
  750MOL0     C98877   3.678   2.978   5.347 -0.6135 -1.1146  0.1528
  750MOL0     C98878   3.584   3.097   5.347  0.2607  0.4777 -0.5455
  750MOL0     C98879   3.641   3.237   5.374 -0.4813  0.3737  0.6072
  750MOL0     C98880   3.535   3.341   5.386 -0.2595  0.1292 -0.5379
  750MOL0     C98881   3.588   3.490   5.399  0.0247  0.2345  0.0852
  750MOL0     C98882   3.687   3.527   5.508 -0.1742  1.2014  0.4505
  750MOL0     C98883   3.674   3.681   5.533 -0.8099 -1.2364 -0.5165
  750MOL0     C98884   3.770   3.729   5.649  0.8433  0.1359  0.1364
  750MOL0     N98885   3.754   3.667   5.779  0.1667 -0.6989  0.0834
  750MOL0     C98886   3.642   3.668   5.855  0.5214 -0.4578 -0.0331
  750MOL0     C98887   3.679   3.606   5.966 -0.3085  0.3976 -0.1337
  750MOL0     C98888   3.577   3.555   6.065 -0.7339 -0.3732  0.4315
  750MOL0     C98889   3.577   3.661   6.183  0.4638  0.7315 -0.0962
  750MOL0     C98890   3.495   3.787   6.158  0.6421  1.0376 -1.1981
  750MOL0     C98891   3.351   3.766   6.116 -0.9700 -0.5089 -1.1498
  750MOL0     O98892   3.285   3.660   6.196 -0.6631 -0.0175 -0.2959
  750MOL0     C98893   3.156   3.617   6.171 -0.6618 -0.1586 -0.2687
  750MOL0     C98894   3.075   3.661   6.061  0.1513 -0.3383  0.1508
  750MOL0     C98895   2.941   3.608   6.046 -0.0106  0.4241 -0.5200
  750MOL0     C98896   2.913   3.488   6.114 -0.0739  0.5199 -0.5858
  750MOL0     C98897   2.794   3.400   6.080 -0.0302 -0.5277  0.0728
  750MOL0     O98898   2.755   3.313   6.172  0.4804 -0.1852  0.3573
  750MOL0     C98899   2.630   3.253   6.177  0.6743 -0.2180 -0.4862
  750MOL0     C98900   2.516   3.328   6.158  0.5348  0.2161 -0.3472
  750MOL0     C98901   2.384   3.278   6.166  0.0381  0.1159  1.0591
  750MOL0     C98902   2.369   3.141   6.193  0.0892  0.3666  0.1624
  750MOL0     O98903   2.241   3.095   6.210  0.3080  0.4515  0.0672
  750MOL0     C98904   2.216   2.967   6.161  0.3352 -0.7401  0.1430
  750MOL0     C98905   2.062   2.946   6.160 -0.1596  0.8484 -0.4093
  750MOL0     C98906   1.995   2.887   6.289 -0.2480  0.3321 -1.0659
  750MOL0     C98907   1.847   2.861   6.268  0.8535 -0.4746 -1.0595
  750MOL0     C98908   1.774   2.833   6.399 -0.3910  0.6416  0.0497
  750MOL0     C98909   1.663   2.739   6.364 -0.2520  1.5231 -0.0458
  750MOL0     C98910   1.542   2.803   6.306 -0.2853 -0.3798  0.1850
  750MOL0     C98911   1.452   2.697   6.247  1.1196 -0.1663 -1.0322
  750MOL0    Cl98912   1.289   2.781   6.229  0.5732 -0.1110  0.0736
  750MOL0     C98913   2.481   3.061   6.200 -0.0388  0.1945 -0.0470
  750MOL0     C98914   2.614   3.116   6.197  1.2380  0.6697  0.1031
  750MOL0     O98915   2.740   3.420   5.972  0.1378  0.7839 -0.1709
  750MOL0     C98916   2.994   3.448   6.225  0.2359 -0.2287 -0.0018
  750MOL0     C98917   3.113   3.513   6.254 -0.3834 -0.0705  0.2380
  750MOL0     N98918   3.819   3.565   5.953  0.0567  0.2093 -0.5513
  750MOL0     N98919   3.848   3.594   5.836 -0.3150  0.1947  0.3901
  750MOL0     C98920   3.911   2.828   5.581 -0.4671  0.0463 -0.4563
  750MOL0     C98921   4.027   2.762   5.583 -0.0119  1.1174  0.1374
  750MOL0     C98922   4.327   2.471   5.445  0.5855  0.1860 -0.5906
  750MOL0     C98923   4.446   2.509   5.499 -0.1675 -0.7363  0.4785
  750MOL0     C98924   4.557   2.422   5.493 -0.3567 -0.1812  0.2645
  750MOL0     C98925   4.551   2.300   5.423  0.8813  0.2142 -0.4577
  750MOL0     O98926   4.668   2.229   5.400 -0.0880  0.1420 -0.5324
  750MOL0     C98927   4.748   2.290   5.306 -1.6198 -0.8931 -0.1415
  750MOL0     C98928   4.851   2.187   5.259  0.0557  1.3837 -0.2472
  750MOL0     C98929   4.947   2.160   5.366 -0.0147 -0.2720 -1.2350
  750MOL0     C98930   5.052   2.061   5.318  0.3825 -0.6640  0.1802
  750MOL0     C98931   5.126   1.996   5.431 -0.4050  0.5159 -0.5514
  750MOL0     C98932   5.193   1.938   5.523 -0.0305  0.1161  0.5334
  750MOL0     C98933   4.426   2.258   5.372  0.2695  0.1148  0.0731
  750MOL0     C98934   4.321   2.350   5.381  0.1456  0.4180 -0.9998
  750MOL0     H98935   4.165   2.832   5.293  0.2900 -1.4262  1.5340
  750MOL0     H98936   3.946   2.962   5.266  0.0896  2.5404  0.6220
  750MOL0     H98937   3.629   2.882   5.329  1.5449 -1.8306 -2.4657
  750MOL0     H98938   3.740   2.989   5.258  0.1512 -0.3760  0.7560
  750MOL0     H98939   3.501   3.079   5.416  2.0188 -1.2625  1.2763
  750MOL0     H98940   3.547   3.102   5.245 -0.4609 -0.1145 -0.3181
  750MOL0     H98941   3.711   3.255   5.293  0.1035 -2.4876  0.3650
  750MOL0     H98942   3.701   3.250   5.465  1.0517 -2.7476  0.1613
  750MOL0     H98943   3.473   3.327   5.297 -1.9529  0.6936  0.5078
  750MOL0     H98944   3.461   3.319   5.464  1.7379 -3.1160  0.6472
  750MOL0     H98945   3.496   3.549   5.407 -0.5421 -0.9225  3.2499
  750MOL0     H98946   3.639   3.513   5.305 -0.9484  1.6150 -0.1342
  750MOL0     H98947   3.784   3.486   5.479 -0.9217 -0.8915  0.7679
  750MOL0     H98948   3.648   3.477   5.597  2.4395 -1.0114  0.4582
  750MOL0     H98949   3.708   3.733   5.443 -2.5574  1.8791  0.4606
  750MOL0     H98950   3.575   3.722   5.556 -0.1473  0.4992 -0.6198
  750MOL0     H98951   3.773   3.838   5.658  2.5596  0.2222 -1.0111
  750MOL0     H98952   3.868   3.700   5.611  0.1838 -0.3176 -1.3019
  750MOL0     H98953   3.546   3.712   5.830  2.0221  2.7291 -0.7543
  750MOL0     H98954   3.604   3.452   6.089  0.6642 -0.1649 -0.1538
  750MOL0     H98955   3.481   3.545   6.014  0.1928 -1.5891 -1.1428
  750MOL0     H98956   3.684   3.685   6.193  1.0722 -1.4137 -0.8409
  750MOL0     H98957   3.548   3.608   6.274  3.0017 -0.1700  0.2785
  750MOL0     H98958   3.497   3.841   6.253  4.7627 -1.0085  0.0924
  750MOL0     H98959   3.543   3.850   6.082  1.2663 -1.1607 -2.7017
  750MOL0     H98960   3.349   3.741   6.009 -0.8817  0.9386 -1.5098
  750MOL0     H98961   3.308   3.863   6.143  2.0375  0.4103  0.9171
  750MOL0     H98962   3.117   3.741   6.001  2.4396  0.3383  2.4640
  750MOL0     H98963   2.869   3.650   5.977 -1.0452  3.0553  1.9841
  750MOL0     H98964   2.542   3.433   6.155  2.7547 -0.2735 -0.7413
  750MOL0     H98965   2.312   3.358   6.154  0.0921 -0.0278 -0.4636
  750MOL0     H98966   2.260   2.895   6.230 -0.0333 -0.0624  1.1008
  750MOL0     H98967   2.249   2.944   6.059 -0.9511  1.4027 -0.8286
  750MOL0     H98968   2.041   2.872   6.083 -3.3601 -1.6295  2.4808
  750MOL0     H98969   2.005   3.035   6.131  0.6152  1.7578  0.7396
  750MOL0     H98970   2.006   2.951   6.377 -4.3970 -0.8642  0.5641
  750MOL0     H98971   2.044   2.791   6.304 -0.1047  0.6349  0.5639
  750MOL0     H98972   1.809   2.957   6.235  0.0597  0.7776  2.9744
  750MOL0     H98973   1.834   2.781   6.195 -0.1081 -1.9666  0.6380
  750MOL0     H98974   1.741   2.928   6.441 -0.3937  1.1019 -0.9632
  750MOL0     H98975   1.839   2.787   6.473  2.0426  1.2198 -1.6010
  750MOL0     H98976   1.647   2.698   6.464  2.2455 -0.2431 -0.2708
  750MOL0     H98977   1.706   2.652   6.313  0.8394  2.6088 -1.0157
  750MOL0     H98978   1.499   2.863   6.387  1.7064  1.6888 -0.2093
  750MOL0     H98979   1.556   2.873   6.224 -1.6201 -0.3637 -0.0603
  750MOL0     H98980   1.438   2.604   6.303 -0.2959 -2.5295 -4.9027
  750MOL0     H98981   1.492   2.656   6.153 -0.7286 -2.2724 -0.9935
  750MOL0     H98982   2.468   2.954   6.216  1.2043  0.2397  1.4704
  750MOL0     H98983   2.701   3.054   6.213 -0.4615 -2.2025 -1.0123
  750MOL0     H98984   2.964   3.357   6.275 -1.5917  0.5934  0.4902
  750MOL0     H98985   3.175   3.483   6.337 -1.7274 -0.0020  1.2949
  750MOL0     H98986   3.831   2.817   5.654 -1.3178  1.0279 -1.2161
  750MOL0     H98987   4.052   2.682   5.653  1.8019 -0.7810 -2.4470
  750MOL0     H98988   4.470   2.606   5.541  0.7029 -1.1828  1.0578
  750MOL0     H98989   4.652   2.458   5.532 -1.7508  3.3044  0.8070
  750MOL0     H98990   4.790   2.386   5.338 -2.9330 -0.9189  1.9249
  750MOL0     H98991   4.691   2.321   5.218 -1.7443 -0.7953 -0.0277
  750MOL0     H98992   4.801   2.093   5.233  0.4936  0.4335  2.1277
  750MOL0     H98993   4.909   2.219   5.172 -1.5458  2.3791 -0.9965
  750MOL0     H98994   4.896   2.110   5.449  0.5659 -1.2235 -1.4396
  750MOL0     H98995   4.990   2.255   5.399  0.1688 -0.2027 -1.6700
  750MOL0     H98996   5.010   1.978   5.261 -0.2737  1.2150 -2.2592
  750MOL0     H98997   5.117   2.120   5.252 -0.4058 -0.4889 -0.4503
  750MOL0     H98998   5.238   1.876   5.598  2.3743  0.0523 -0.8576
  750MOL0     H98999   4.427   2.165   5.317 -1.9679 -1.2366  2.1530
  750MOL0     H99000   4.223   2.339   5.336 -1.0017  2.3335  0.8486
  751MOL0     O99001   5.067   3.292   8.398  0.5696 -0.0134  0.1960
  751MOL0     C99002   5.050   3.284   8.525 -0.2711  0.6949  0.0095
  751MOL0     O99003   5.152   3.248   8.611 -0.1754  0.1390  0.4728
  751MOL0     C99004   5.276   3.230   8.550  0.6974  0.7286 -0.2647
  751MOL0     C99005   5.365   3.346   8.524 -0.5555  0.0113  0.8209
  751MOL0     C99006   5.496   3.327   8.469  0.3221  0.7227 -0.1783
  751MOL0     C99007   5.525   3.202   8.423  0.3573  0.7155  0.5545
  751MOL0     O99008   5.645   3.167   8.364  0.8009 -0.0565  0.6728
  751MOL0     C99009   5.738   3.271   8.366  0.2945 -0.0127  0.8768
  751MOL0     C99010   5.866   3.203   8.312 -0.5196  0.4637  1.5085
  751MOL0     C99011   5.938   3.097   8.398  0.4331 -0.4108 -0.2089
  751MOL0     C99012   6.062   3.043   8.320  0.7734  1.1258  0.1029
  751MOL0     C99013   6.129   2.933   8.403 -0.1687  0.5771  0.3752
  751MOL0     C99014   6.163   2.973   8.550  0.4287 -0.1165 -0.0303
  751MOL0     C99015   6.313   2.954   8.583  0.2131 -0.2430  0.3093
  751MOL0     C99016   6.355   2.812   8.574  0.8826 -0.2164  0.6352
  751MOL0     N99017   6.504   2.797   8.583 -0.2057 -0.1740 -0.9424
  751MOL0     C99018   6.587   2.734   8.493  0.1482  0.1234 -0.8842
  751MOL0     C99019   6.712   2.740   8.557 -0.0959 -1.0405  0.5933
  751MOL0     C99020   6.842   2.677   8.499 -0.2539 -0.0781 -1.2600
  751MOL0     C99021   6.922   2.590   8.606 -0.1088  1.5746 -0.3179
  751MOL0     C99022   7.043   2.541   8.540 -0.3550 -0.0201  1.2925
  751MOL0     C99023   7.125   2.432   8.616 -0.5822  0.1048 -0.9426
  751MOL0     O99024   7.204   2.490   8.725 -1.7555 -0.1468 -0.9896
  751MOL0     C99025   7.292   2.401   8.785 -0.4990  0.5603  0.0097
  751MOL0     C99026   7.283   2.263   8.793 -0.0774 -0.5414 -0.2213
  751MOL0     C99027   7.386   2.174   8.828  0.5648 -0.4306 -1.0624
  751MOL0     C99028   7.514   2.233   8.876  0.0362 -0.7215  0.5709
  751MOL0     C99029   7.627   2.146   8.905 -0.7507 -0.4836  0.3573
  751MOL0     O99030   7.736   2.210   8.970  0.1574  0.1409  0.8886
  751MOL0     C99031   7.846   2.135   9.017 -0.7608  0.3525  0.7870
  751MOL0     C99032   7.923   2.067   8.920  0.3319 -0.4024 -0.3134
  751MOL0     C99033   8.034   1.994   8.966 -0.5280 -0.3841 -0.0719
  751MOL0     C99034   8.063   1.979   9.107  0.6500 -0.4587 -0.3208
  751MOL0     O99035   8.151   1.897   9.156  0.1094  0.2148  0.4449
  751MOL0     C99036   8.288   1.925   9.134  0.2100 -0.1769 -0.3152
  751MOL0     C99037   8.365   1.812   9.198 -0.0977  0.3876 -0.5489
  751MOL0     C99038   8.511   1.836   9.214  0.0203  0.8565  0.1096
  751MOL0     C99039   8.604   1.723   9.253  0.0662 -0.6940 -0.3791
  751MOL0     C99040   8.751   1.758   9.263  0.2947 -0.3861 -0.5773
  751MOL0     C99041   8.832   1.638   9.320  0.2236 -0.2706 -0.1616
  751MOL0     C99042   8.982   1.658   9.310 -0.5696  0.3401 -0.8810
  751MOL0     C99043   9.057   1.529   9.359  0.1222 -0.0003  0.3946
  751MOL0    Cl99044   9.233   1.533   9.331  0.4239 -0.3067  0.0163
  751MOL0     C99045   7.973   2.039   9.194 -0.3245  0.0513 -0.5128
  751MOL0     C99046   7.872   2.115   9.151 -0.9155 -1.0616  0.6969
  751MOL0     O99047   7.613   2.022   8.884  0.2972  0.3060  0.5887
  751MOL0     C99048   7.513   2.375   8.890 -0.6749  0.2122 -0.0366
  751MOL0     C99049   7.413   2.462   8.841  0.2509 -0.2842  0.7820
  751MOL0     N99050   6.698   2.811   8.674 -0.0966 -0.4447  0.1807
  751MOL0     N99051   6.574   2.845   8.691  0.6255  0.0680  0.0145
  751MOL0     C99052   5.432   3.093   8.434 -0.2868 -0.1947  0.3181
  751MOL0     C99053   5.319   3.106   8.498  0.8082 -0.2294  0.2939
  751MOL0     C99054   4.920   3.315   8.591  0.0195 -0.3732  0.2453
  751MOL0     C99055   4.824   3.399   8.528  0.4198  0.1177  0.2085
  751MOL0     C99056   4.699   3.420   8.578  0.1629 -0.2215  0.3909
  751MOL0     C99057   4.664   3.348   8.691 -0.0000 -0.5536 -0.6501
  751MOL0     O99058   4.537   3.359   8.742  0.0715 -0.0576  0.2106
  751MOL0     C99059   4.433   3.432   8.677  0.5985  0.4912  0.6634
  751MOL0     C99060   4.314   3.453   8.775 -0.9689 -0.1757 -0.5222
  751MOL0     C99061   4.350   3.562   8.880  0.2705  0.0279  0.1999
  751MOL0     C99062   4.242   3.552   8.989 -0.9066  0.7554  0.4550
  751MOL0     C99063   4.235   3.675   9.067  0.0704 -0.0491  0.1926
  751MOL0     C99064   4.231   3.780   9.120  0.3343 -0.8129 -0.7706
  751MOL0     C99065   4.760   3.279   8.772 -0.9551  1.1335  0.9105
  751MOL0     C99066   4.892   3.254   8.718  0.4218 -0.6046 -0.2255
  751MOL0     H99067   5.356   3.445   8.568  2.4282  0.5765  0.3204
  751MOL0     H99068   5.566   3.410   8.471  0.7756  0.3523  1.5400
  751MOL0     H99069   5.761   3.298   8.470 -1.2134 -0.6727  1.4136
  751MOL0     H99070   5.699   3.346   8.298  0.1566 -2.2190 -1.6416
  751MOL0     H99071   5.934   3.284   8.284  0.2718 -0.8723 -0.7151
  751MOL0     H99072   5.849   3.138   8.226 -1.6566  1.8797  0.6161
  751MOL0     H99073   5.867   3.017   8.421 -0.8138  0.7751  0.1949
  751MOL0     H99074   5.960   3.149   8.491 -1.7170 -1.7858  1.1459
  751MOL0     H99075   6.028   3.011   8.221 -1.6284 -0.0606  1.2235
  751MOL0     H99076   6.141   3.117   8.331  2.0992 -0.2803  0.2572
  751MOL0     H99077   6.218   2.906   8.346  0.5163  0.1237  1.6029
  751MOL0     H99078   6.068   2.842   8.411  1.9503 -1.0390 -0.8216
  751MOL0     H99079   6.087   2.928   8.614 -2.2872 -0.5542 -3.2920
  751MOL0     H99080   6.146   3.077   8.577 -0.5616  0.2412 -1.9068
  751MOL0     H99081   6.380   3.015   8.522  0.4838 -0.7690  0.0719
  751MOL0     H99082   6.309   2.986   8.687 -3.1404 -3.2063  1.3002
  751MOL0     H99083   6.318   2.766   8.482 -3.7164  3.5248  0.2326
  751MOL0     H99084   6.308   2.764   8.660  0.7262  0.7847  1.1180
  751MOL0     H99085   6.570   2.695   8.394 -0.0412  0.1256 -0.8526
  751MOL0     H99086   6.908   2.748   8.447 -0.5025 -0.3048 -1.8945
  751MOL0     H99087   6.804   2.604   8.427  0.1814 -1.1516 -0.4243
  751MOL0     H99088   6.852   2.513   8.641  0.0897  1.5642  0.0669
  751MOL0     H99089   6.951   2.651   8.693 -0.2043 -0.3362  1.1284
  751MOL0     H99090   7.024   2.492   8.444 -0.1757  0.9879  0.7211
  751MOL0     H99091   7.093   2.636   8.520  1.1288 -1.4778 -3.0471
  751MOL0     H99092   7.197   2.391   8.544  0.2748  0.8247 -0.5119
  751MOL0     H99093   7.066   2.349   8.655 -0.4916  0.4538 -0.0441
  751MOL0     H99094   7.189   2.216   8.763  0.0876 -1.7867  1.1055
  751MOL0     H99095   7.363   2.068   8.835  0.0215 -0.3094 -0.9768
  751MOL0     H99096   7.899   2.071   8.814 -1.4366 -3.3887 -0.1555
  751MOL0     H99097   8.102   1.932   8.909  2.0738  1.7030  0.5825
  751MOL0     H99098   8.304   2.016   9.194 -1.2096  0.6635 -1.1496
  751MOL0     H99099   8.314   1.940   9.029  0.9680  2.1866  0.1508
  751MOL0     H99100   8.355   1.727   9.130 -0.3522  0.0735 -0.1177
  751MOL0     H99101   8.315   1.789   9.292  2.5132  1.2437  1.1614
  751MOL0     H99102   8.521   1.918   9.285 -0.4951  1.8757 -0.9603
  751MOL0     H99103   8.541   1.870   9.114  0.3487  0.9020  0.2242
  751MOL0     H99104   8.568   1.702   9.354 -0.0924 -0.8048 -0.4584
  751MOL0     H99105   8.605   1.634   9.190  1.5581  0.9198 -2.7948
  751MOL0     H99106   8.760   1.849   9.324  1.0521 -1.8368  1.5853
  751MOL0     H99107   8.785   1.773   9.160  0.5068  0.9418 -0.3360
  751MOL0     H99108   8.822   1.557   9.247  0.0907 -0.4543  0.0611
  751MOL0     H99109   8.805   1.615   9.423  5.1734 -2.5268  0.8786
  751MOL0     H99110   9.007   1.677   9.206  0.0783  0.8841 -0.6394
  751MOL0     H99111   9.014   1.742   9.373 -2.8896  0.4422  0.2536
  751MOL0     H99112   9.028   1.453   9.287 -0.4304  0.2181  0.3813
  751MOL0     H99113   9.022   1.504   9.459  3.2003  1.9318  2.1065
  751MOL0     H99114   7.986   2.020   9.300 -0.7680 -2.0336 -0.7752
  751MOL0     H99115   7.799   2.156   9.219 -2.1620  2.1081 -2.2277
  751MOL0     H99116   7.611   2.420   8.898 -1.1333  1.1565  0.4046
  751MOL0     H99117   7.407   2.570   8.844 -0.8602 -0.3510  2.0616
  751MOL0     H99118   5.466   2.997   8.395  0.0991 -0.5932  1.5868
  751MOL0     H99119   5.251   3.022   8.503  1.9257 -1.1677  0.0025
  751MOL0     H99120   4.847   3.456   8.438  0.4872  0.9405  0.7370
  751MOL0     H99121   4.634   3.487   8.522  2.3851  1.9247  0.1623
  751MOL0     H99122   4.394   3.376   8.591 -0.7318  0.3861  1.3100
  751MOL0     H99123   4.465   3.529   8.639  1.4609  0.0815  0.3156
  751MOL0     H99124   4.227   3.472   8.712 -2.2086 -1.3614  0.7818
  751MOL0     H99125   4.279   3.364   8.827 -3.7698  1.6780  1.0436
  751MOL0     H99126   4.328   3.658   8.833  1.6154  0.0235 -0.4655
  751MOL0     H99127   4.450   3.546   8.921  1.1171  0.1502 -1.7309
  751MOL0     H99128   4.140   3.536   8.953 -1.1395  1.0106  0.9954
  751MOL0     H99129   4.270   3.466   9.050 -0.1927 -0.6621 -1.7446
  751MOL0     H99130   4.234   3.873   9.172  2.6907 -1.1966 -0.0782
  751MOL0     H99131   4.724   3.234   8.863 -1.4927  0.7975  0.5386
  751MOL0     H99132   4.975   3.199   8.760  3.1810  2.6839 -0.8484
  752MOL0     O99133   9.507   4.233  10.350 -0.5426  0.3008  0.1380
  752MOL0     C99134   9.619   4.181  10.334  0.5973  0.3286  0.0511
  752MOL0     O99135   9.677   4.145  10.211  0.1372 -0.1860 -0.3423
  752MOL0     C99136   9.609   4.098  10.106  0.8890 -0.0834 -0.5818
  752MOL0     C99137   9.696   4.043  10.007 -0.2871 -0.3556 -0.5660
  752MOL0     C99138   9.648   3.995   9.890  0.3163  0.1782  1.0137
  752MOL0     C99139   9.508   3.993   9.866  0.4496 -0.2783  0.8568
  752MOL0     O99140   9.474   3.961   9.737  0.1557 -0.7232 -0.3161
  752MOL0     C99141   9.329   3.953   9.711 -0.0649  0.1346  0.5599
  752MOL0     C99142   9.314   3.892   9.574  0.1720  0.2607  0.1707
  752MOL0     C99143   9.171   3.889   9.542  0.8267  0.3056  0.0244
  752MOL0     C99144   9.149   3.850   9.395 -0.6158  0.1768 -0.4020
  752MOL0     C99145   9.003   3.805   9.376 -0.0906  0.7185  0.3770
  752MOL0     C99146   8.988   3.727   9.244 -0.1933  0.1796 -0.1354
  752MOL0     C99147   8.849   3.674   9.230 -0.4911  0.9469 -1.1446
  752MOL0     C99148   8.833   3.559   9.130  0.0401 -0.2763  0.0815
  752MOL0     N99149   8.840   3.598   8.992 -1.0339 -0.3030  0.8475
  752MOL0     C99150   8.739   3.666   8.930 -0.0631 -0.7267  0.2034
  752MOL0     C99151   8.745   3.636   8.799  0.5781  0.1674 -0.0578
  752MOL0     C99152   8.656   3.685   8.687 -0.1128 -0.1517  0.1916
  752MOL0     C99153   8.512   3.626   8.709 -0.4544 -0.0469 -0.5981
  752MOL0     C99154   8.424   3.663   8.585  0.5809 -0.0996 -0.0726
  752MOL0     C99155   8.289   3.580   8.595  0.3117  0.7227 -0.1486
  752MOL0     O99156   8.192   3.620   8.496 -0.6630  0.1877  0.0787
  752MOL0     C99157   8.067   3.661   8.521  0.6151  0.0086  0.2677
  752MOL0     C99158   8.012   3.691   8.651 -0.8345 -0.1715  0.6543
  752MOL0     C99159   7.882   3.737   8.662  0.2215 -1.0962 -0.4113
  752MOL0     C99160   7.800   3.750   8.560  0.3607  1.0082 -0.6102
  752MOL0     C99161   7.662   3.814   8.577  0.3110  1.0157  0.7077
  752MOL0     O99162   7.584   3.794   8.687 -0.0774  0.1333  1.1346
  752MOL0     C99163   7.491   3.887   8.721  0.8098  0.1694 -0.7750
  752MOL0     C99164   7.352   3.859   8.747 -0.1148 -0.0981  0.0115
  752MOL0     C99165   7.269   3.964   8.793 -0.9018  0.4780 -0.3834
  752MOL0     C99166   7.314   4.091   8.804  0.0656  0.5390 -1.0290
  752MOL0     O99167   7.231   4.205   8.831 -0.2635 -0.3570 -0.0423
  752MOL0     C99168   7.109   4.211   8.909  0.2245 -0.4725  0.5875
  752MOL0     C99169   7.138   4.223   9.055 -0.1014 -0.2179 -0.6580
  752MOL0     C99170   7.021   4.251   9.143  0.3483 -0.3178 -0.3539
  752MOL0     C99171   6.976   4.390   9.135  0.2825 -0.4952  0.0913
  752MOL0     C99172   6.857   4.426   9.230 -0.2555  0.3688 -0.8302
  752MOL0     C99173   6.818   4.572   9.225  0.0638 -0.2076  0.0135
  752MOL0     C99174   6.918   4.664   9.301  0.7062 -0.1401  0.2885
  752MOL0     C99175   7.009   4.736   9.205  1.2395  0.2366  0.0482
  752MOL0    Cl99176   6.911   4.870   9.131 -0.7054 -0.1806  0.0378
  752MOL0     C99177   7.451   4.120   8.780  0.2876  0.3004 -0.1753
  752MOL0     C99178   7.535   4.013   8.750 -0.3624  0.2546 -1.0460
  752MOL0     O99179   7.619   3.871   8.477 -0.4368  0.2187 -0.2404
  752MOL0     C99180   7.855   3.727   8.431  0.6569  0.7306 -0.0179
  752MOL0     C99181   7.991   3.694   8.409 -0.2273 -0.0048 -0.5606
  752MOL0     N99182   8.860   3.559   8.787  0.7343  0.7174 -0.5912
  752MOL0     N99183   8.907   3.525   8.904 -0.1324  0.4742  0.4311
  752MOL0     C99184   9.417   4.045   9.961 -0.4678  0.1616 -0.3378
  752MOL0     C99185   9.467   4.098  10.085 -0.6036  0.9530 -0.5753
  752MOL0     C99186   9.702   4.152  10.454 -0.8484 -0.3125  0.4713
  752MOL0     C99187   9.703   4.236  10.566 -0.9987 -0.1763  0.6765
  752MOL0     C99188   9.796   4.208  10.664 -0.6313  0.0499 -0.1846
  752MOL0     C99189   9.871   4.099  10.667  0.1710 -0.1883  0.0249
  752MOL0     O99190   9.938   4.082  10.787  0.7429 -0.5461 -0.1759
  752MOL0     C99191  10.029   3.976  10.800 -0.0657 -0.2211 -0.8530
  752MOL0     C99192  10.159   4.011  10.728 -0.7139 -0.1996  0.4088
  752MOL0     C99193  10.276   3.919  10.766  0.0151  0.5595 -1.2889
  752MOL0     C99194  10.408   3.960  10.720 -0.3395 -1.2545 -0.3276
  752MOL0     C99195  10.502   3.846  10.721 -0.4334  0.1970  0.0096
  752MOL0     C99196  10.594   3.762  10.710  0.2079 -0.0438  0.0788
  752MOL0     C99197   9.865   4.008  10.559  0.2441 -0.9608  0.9538
  752MOL0     C99198   9.785   4.043  10.448 -0.9539  0.1665 -0.6903
  752MOL0     H99199   9.801   4.033  10.030 -0.0920  0.7247 -0.9514
  752MOL0     H99200   9.718   3.963   9.814 -1.2587 -2.0879  0.4101
  752MOL0     H99201   9.293   4.056   9.718 -0.9640  0.4529 -4.6758
  752MOL0     H99202   9.282   3.877   9.774 -0.3708 -1.2686 -1.2810
  752MOL0     H99203   9.362   3.795   9.592 -1.0953  0.0510  3.0201
  752MOL0     H99204   9.366   3.944   9.493 -0.2819  0.4288 -0.0192
  752MOL0     H99205   9.133   3.991   9.546  1.2159  0.7824 -4.0936
  752MOL0     H99206   9.118   3.818   9.605  0.0011  0.2957 -0.6657
  752MOL0     H99207   9.161   3.948   9.348 -0.1746  0.3522  0.0623
  752MOL0     H99208   9.230   3.789   9.355  0.0155  0.3862  0.5268
  752MOL0     H99209   8.944   3.897   9.368 -1.0125  0.0226 -1.1364
  752MOL0     H99210   8.965   3.754   9.465 -1.3676  2.5751  0.9733
  752MOL0     H99211   9.059   3.643   9.245 -0.6836 -0.3241 -2.3778
  752MOL0     H99212   9.023   3.791   9.163  2.0551  0.9488  1.3257
  752MOL0     H99213   8.812   3.643   9.328  1.1589 -1.9696 -1.3208
  752MOL0     H99214   8.788   3.761   9.204 -1.2517  1.1556  1.1560
  752MOL0     H99215   8.735   3.513   9.148  0.0053  0.4954  2.1231
  752MOL0     H99216   8.908   3.480   9.141  1.9106  1.4393  0.1859
  752MOL0     H99217   8.659   3.724   8.974  0.6079  0.0669  0.4053
  752MOL0     H99218   8.705   3.652   8.595 -0.2130  0.0306  0.0726
  752MOL0     H99219   8.652   3.793   8.670  2.0496 -0.2566 -1.3499
  752MOL0     H99220   8.466   3.659   8.802 -0.3263 -1.0050 -0.1910
  752MOL0     H99221   8.524   3.518   8.708  1.9496  0.1368  0.8028
  752MOL0     H99222   8.389   3.767   8.590 -3.9326 -1.3441 -1.1965
  752MOL0     H99223   8.471   3.640   8.489  2.7024 -2.2202  1.3695
  752MOL0     H99224   8.252   3.577   8.698  2.5055  0.2251  0.6836
  752MOL0     H99225   8.312   3.477   8.568  0.5427 -0.5295  4.0909
  752MOL0     H99226   8.057   3.682   8.749  0.8986 -1.8906 -0.2187
  752MOL0     H99227   7.839   3.746   8.762  2.6571  1.5478  0.5298
  752MOL0     H99228   7.304   3.763   8.737  0.8294 -0.5156 -0.7023
  752MOL0     H99229   7.164   3.939   8.809 -0.9836 -0.9624 -2.7268
  752MOL0     H99230   7.054   4.117   8.895  3.1464 -1.8959 -2.6736
  752MOL0     H99231   7.045   4.295   8.882  2.1855  0.3344 -1.8340
  752MOL0     H99232   7.210   4.305   9.061 -0.4557  0.1857 -1.7801
  752MOL0     H99233   7.190   4.130   9.080  1.9298  0.2492 -2.8508
  752MOL0     H99234   7.046   4.224   9.246 -0.0647 -4.4384 -1.1879
  752MOL0     H99235   6.935   4.191   9.113  1.6653 -1.1570 -2.6570
  752MOL0     H99236   7.063   4.451   9.162  0.0295 -1.3160  3.0130
  752MOL0     H99237   6.941   4.412   9.033  0.3309 -0.4685  0.0804
  752MOL0     H99238   6.883   4.395   9.332 -1.8439 -1.9137 -1.0419
  752MOL0     H99239   6.772   4.364   9.200 -1.2253 -0.2142  2.6499
  752MOL0     H99240   6.722   4.575   9.277 -0.4407 -1.0945 -0.8235
  752MOL0     H99241   6.805   4.603   9.121 -1.6275  1.6950  0.7433
  752MOL0     H99242   6.862   4.740   9.357 -1.6361 -2.1598  0.8456
  752MOL0     H99243   6.987   4.618   9.371  0.8261  0.4863  0.5961
  752MOL0     H99244   7.068   4.681   9.131  2.8182  0.2104  1.2816
  752MOL0     H99245   7.078   4.792   9.269  2.7057  0.5965 -1.7553
  752MOL0     H99246   7.476   4.225   8.791  0.8573  0.4967 -2.8142
  752MOL0     H99247   7.637   4.050   8.745 -0.6946  1.1003 -1.8980
  752MOL0     H99248   7.795   3.730   8.341 -1.8797 -1.3494  1.4778
  752MOL0     H99249   8.029   3.692   8.307  1.8488  0.4057  0.1617
  752MOL0     H99250   9.311   4.059   9.946 -0.9740 -3.9557 -2.1262
  752MOL0     H99251   9.398   4.151  10.150 -0.9782 -0.7485  0.4774
  752MOL0     H99252   9.625   4.312  10.572 -2.0534 -1.1127 -0.4486
  752MOL0     H99253   9.793   4.279  10.746  1.4504 -1.9755  1.7776
  752MOL0     H99254   9.981   3.882  10.771 -4.7118  1.0516  1.7672
  752MOL0     H99255  10.044   3.964  10.908  1.5863 -1.2279 -1.1550
  752MOL0     H99256  10.152   4.013  10.619 -3.1602 -2.4506  0.4170
  752MOL0     H99257  10.189   4.111  10.762 -1.1710  0.0811  0.0113
  752MOL0     H99258  10.256   3.822  10.719 -0.0979  0.4110 -0.9332
  752MOL0     H99259  10.276   3.887  10.870  0.4658 -3.4367 -2.3284
  752MOL0     H99260  10.414   4.015  10.625 -0.4595 -1.2522 -0.3346
  752MOL0     H99261  10.449   4.023  10.799 -1.1757 -2.9081  1.4970
  752MOL0     H99262  10.676   3.694  10.700 -1.8660 -2.4705 -1.6669
  752MOL0     H99263   9.935   3.926  10.569  0.7166 -0.8555 -1.0765
  752MOL0     H99264   9.784   3.980  10.360 -0.7063 -2.1255  0.8667
  753MOL0     O99265   0.009   2.924  11.287  0.5608 -0.1927  0.3358
  753MOL0     C99266   0.044   2.805  11.306  0.2183 -0.2598 -0.0152
  753MOL0     O99267  -0.024   2.690  11.274  0.7070 -0.1597 -0.6070
  753MOL0     C99268  -0.152   2.699  11.215  0.3180  0.1086  0.1979
  753MOL0     C99269  -0.256   2.789  11.235  0.0223  0.2437 -0.3141
  753MOL0     C99270  -0.374   2.796  11.151  0.1985  0.4445 -0.1468
  753MOL0     C99271  -0.397   2.691  11.069 -0.0312 -0.6563  0.2511
  753MOL0     O99272  -0.521   2.696  11.017 -0.6125 -0.0088 -0.0040
  753MOL0     C99273  -0.601   2.611  11.101 -0.6203  0.9691  0.1402
  753MOL0     C99274  -0.744   2.631  11.065  0.3076  0.7260 -0.5258
  753MOL0     C99275  -0.834   2.607  11.192 -0.1169  1.0267  0.1785
  753MOL0     C99276  -0.889   2.735  11.241 -0.7595 -0.6637 -0.6112
  753MOL0     C99277  -0.935   2.725  11.393 -1.0243 -0.7178  0.4901
  753MOL0     C99278  -1.061   2.638  11.399 -0.0556  0.3847  0.3481
  753MOL0     C99279  -1.177   2.708  11.330  0.7900  0.2091  0.1307
  753MOL0     C99280  -1.312   2.651  11.363  0.2256 -0.1378  0.1236
  753MOL0     N99281  -1.372   2.691  11.491  0.5089  0.3166  0.0298
  753MOL0     C99282  -1.459   2.794  11.511  0.0585  0.5243  0.4026
  753MOL0     C99283  -1.516   2.771  11.629  0.2001  0.6235  0.0456
  753MOL0     C99284  -1.597   2.876  11.685 -0.1307 -0.3339 -0.0942
  753MOL0     C99285  -1.720   2.922  11.603 -0.1321 -0.1109  0.1377
  753MOL0     C99286  -1.826   2.811  11.606 -1.3128  0.2979 -0.7575
  753MOL0     C99287  -1.951   2.851  11.522  0.2797 -0.2880  1.0229
  753MOL0     O99288  -2.020   2.968  11.553  0.1941  0.1638 -0.3889
  753MOL0     C99289  -2.129   2.951  11.632 -1.2831  0.4539  0.3212
  753MOL0     C99290  -2.252   2.918  11.583  0.4700  0.9738  0.0281
  753MOL0     C99291  -2.363   2.898  11.672  0.3390 -0.3582  0.6208
  753MOL0     C99292  -2.345   2.899  11.813 -0.8522 -0.2315  0.2622
  753MOL0     C99293  -2.464   2.893  11.898  0.3795 -0.8557  0.9186
  753MOL0     O99294  -2.584   2.923  11.834  1.3611 -0.3367  0.2388
  753MOL0     C99295  -2.698   2.967  11.894  0.0330 -0.8398 -0.1447
  753MOL0     C99296  -2.814   2.899  11.866  0.1703 -0.6311 -0.4767
  753MOL0     C99297  -2.936   2.941  11.923 -0.0586  0.3570 -0.1044
  753MOL0     C99298  -2.944   3.048  12.009  0.7013 -0.1203  1.1845
  753MOL0     O99299  -3.069   3.074  12.052  0.6515  0.3981 -0.7453
  753MOL0     C99300  -3.153   3.115  11.938  0.2289  0.1333  0.7360
  753MOL0     C99301  -3.288   3.139  11.999  0.8498 -0.1016  0.2024
  753MOL0     C99302  -3.405   3.163  11.897 -0.0745 -0.4465  0.4273
  753MOL0     C99303  -3.445   3.044  11.800  0.7879 -0.0120 -0.9363
  753MOL0     C99304  -3.591   3.023  11.759  0.4306 -0.1050 -0.2374
  753MOL0     C99305  -3.648   3.129  11.658  0.1453  0.4561  0.1551
  753MOL0     C99306  -3.601   3.127  11.516 -1.1652 -0.3014 -0.9226
  753MOL0     C99307  -3.682   3.231  11.430 -0.1773 -1.0659  0.1883
  753MOL0    Cl99308  -3.610   3.232  11.266  0.1514  0.5316 -0.0188
  753MOL0     C99309  -2.824   3.112  12.046  0.4122  0.3122 -0.2579
  753MOL0     C99310  -2.699   3.073  11.987  0.3017  0.1051 -0.1252
  753MOL0     O99311  -2.444   2.889  12.018  0.4018 -0.4002  0.0661
  753MOL0     C99312  -2.220   2.935  11.860 -0.1522 -0.6060  0.4024
  753MOL0     C99313  -2.110   2.960  11.773  0.8404 -0.5354 -0.1394
  753MOL0     N99314  -1.467   2.650  11.673 -0.0937 -0.1145  0.0839
  753MOL0     N99315  -1.379   2.610  11.592 -0.1253  0.4234  0.2540
  753MOL0     C99316  -0.313   2.585  11.062  0.0604 -0.1800 -0.3421
  753MOL0     C99317  -0.193   2.591  11.127  0.3803 -0.4738  0.0720
  753MOL0     C99318   0.171   2.787  11.370  0.1409  0.2926  0.3214
  753MOL0     C99319   0.246   2.893  11.419  0.0364 -0.5093 -0.6287
  753MOL0     C99320   0.372   2.871  11.480 -0.3557 -0.2475  0.4515
  753MOL0     C99321   0.426   2.739  11.487  0.3599 -0.8137  0.1434
  753MOL0     O99322   0.548   2.697  11.524 -0.1983 -0.5701 -0.2454
  753MOL0     C99323   0.657   2.789  11.500  0.2806 -0.5013  0.0482
  753MOL0     C99324   0.762   2.718  11.417  0.2779 -0.1361 -0.1823
  753MOL0     C99325   0.864   2.813  11.357 -0.0416 -0.2427  0.4305
  753MOL0     C99326   0.924   2.910  11.462 -0.5094  1.0081 -0.2029
  753MOL0     C99327   1.043   2.963  11.401 -0.2965  0.1679  0.5286
  753MOL0     C99328   1.137   3.022  11.354  0.1557  0.1601 -0.6773
  753MOL0     C99329   0.340   2.637  11.445  0.4103 -0.1429  0.1532
  753MOL0     C99330   0.213   2.655  11.391  0.1301 -0.7048 -0.3264
  753MOL0     H99331  -0.253   2.880  11.294  2.6355  0.1042 -0.1209
  753MOL0     H99332  -0.441   2.881  11.151  0.8043  0.9495  1.0453
  753MOL0     H99333  -0.590   2.633  11.207 -1.2915 -2.8435  1.1603
  753MOL0     H99334  -0.574   2.506  11.081 -1.1288  0.5959  1.3366
  753MOL0     H99335  -0.789   2.574  10.983 -0.6088 -0.5706  0.8432
  753MOL0     H99336  -0.753   2.736  11.035  1.1267  0.3916 -2.0513
  753MOL0     H99337  -0.787   2.564  11.281 -0.7586  0.1094  0.0897
  753MOL0     H99338  -0.909   2.531  11.166  0.0764  0.2274  1.8330
  753MOL0     H99339  -0.823   2.822  11.230  0.4871 -1.2453  1.6657
  753MOL0     H99340  -0.972   2.760  11.175  1.4854  2.2088 -2.5836
  753MOL0     H99341  -0.947   2.827  11.431  1.4325  0.5220 -1.7734
  753MOL0     H99342  -0.859   2.687  11.462 -0.2117 -1.4964 -0.7857
  753MOL0     H99343  -1.079   2.627  11.507  0.7819 -0.9104  0.3827
  753MOL0     H99344  -1.038   2.541  11.354  0.3937  1.5827 -2.1754
  753MOL0     H99345  -1.178   2.812  11.363 -0.4099  0.1403  0.3604
  753MOL0     H99346  -1.163   2.704  11.222  1.7029  1.1089  0.1997
  753MOL0     H99347  -1.325   2.544  11.345 -1.3569  0.0676 -0.0740
  753MOL0     H99348  -1.387   2.684  11.291  0.6392  4.5278  1.5147
  753MOL0     H99349  -1.475   2.883  11.451 -1.2566  1.9195  2.6410
  753MOL0     H99350  -1.528   2.957  11.708 -0.9598 -0.7603  5.3624
  753MOL0     H99351  -1.624   2.839  11.785 -1.1610 -0.8119 -0.5376
  753MOL0     H99352  -1.689   2.936  11.499 -1.1856  0.2451 -0.1412
  753MOL0     H99353  -1.772   3.005  11.651 -0.0419 -0.6572  1.2081
  753MOL0     H99354  -1.779   2.719  11.568 -1.4133 -0.2233  0.3433
  753MOL0     H99355  -1.848   2.802  11.713  0.1400 -1.1226 -0.5307
  753MOL0     H99356  -2.008   2.757  11.516  2.6269 -1.6805 -1.9079
  753MOL0     H99357  -1.913   2.861  11.420  1.2728  1.2880  1.5077
  753MOL0     H99358  -2.261   2.931  11.476 -2.6171 -0.6708 -0.0244
  753MOL0     H99359  -2.467   2.893  11.643  0.2373  2.1098  0.3522
  753MOL0     H99360  -2.813   2.803  11.815 -0.9978 -1.0650  0.2614
  753MOL0     H99361  -3.019   2.872  11.915 -0.2091  0.1119  2.6251
  753MOL0     H99362  -3.150   3.038  11.860  1.0434  0.2203  0.6672
  753MOL0     H99363  -3.124   3.208  11.888 -1.1734  0.5478  0.6417
  753MOL0     H99364  -3.291   3.220  12.073 -0.9027  0.4895 -0.4552
  753MOL0     H99365  -3.319   3.046  12.048 -0.6923  0.4261  0.2957
  753MOL0     H99366  -3.394   3.258  11.843 -3.9189  0.2567  0.5663
  753MOL0     H99367  -3.492   3.179  11.961 -0.6963  1.7382 -0.8594
  753MOL0     H99368  -3.382   3.059  11.711  1.3815 -0.0061 -0.5193
  753MOL0     H99369  -3.420   2.954  11.858 -4.7258  0.0341  2.1946
  753MOL0     H99370  -3.650   3.026  11.851 -3.5250  1.3716 -2.5715
  753MOL0     H99371  -3.601   2.929  11.704  2.8706  0.6442 -2.1828
  753MOL0     H99372  -3.611   3.220  11.706  1.3573 -1.2895  2.7462
  753MOL0     H99373  -3.757   3.132  11.665  0.2296  1.4136  1.2931
  753MOL0     H99374  -3.493   3.141  11.503 -0.6100 -0.5534  2.4656
  753MOL0     H99375  -3.613   3.032  11.464  2.5248 -1.1536 -0.5342
  753MOL0     H99376  -3.671   3.333  11.469 -0.3612 -0.2017 -1.8633
  753MOL0     H99377  -3.789   3.209  11.426 -0.1769 -0.9968 -3.1185
  753MOL0     H99378  -2.825   3.200  12.109  1.7512  0.8603 -0.9686
  753MOL0     H99379  -2.606   3.117  12.022  0.0092 -0.5569  1.5749
  753MOL0     H99380  -2.196   2.932  11.966  1.9585  1.3077  0.0667
  753MOL0     H99381  -2.027   3.003  11.828  1.9618 -0.1673 -2.0491
  753MOL0     H99382  -0.346   2.505  10.997  1.0269 -1.7371  1.0000
  753MOL0     H99383  -0.117   2.514  11.118  0.0560 -0.9014  0.8117
  753MOL0     H99384   0.209   2.996  11.415 -1.7865 -1.0543  0.8798
  753MOL0     H99385   0.435   2.951  11.518  0.9614 -1.8792  1.8461
  753MOL0     H99386   0.697   2.820  11.597  1.2125  1.6812 -0.9654
  753MOL0     H99387   0.626   2.881  11.450  2.1443  1.1793  1.7613
  753MOL0     H99388   0.807   2.636  11.473  0.3531 -0.0174 -0.0656
  753MOL0     H99389   0.711   2.671  11.333  1.8544 -2.2994  0.0001
  753MOL0     H99390   0.832   2.878  11.275  4.3837  0.8614 -0.6924
  753MOL0     H99391   0.927   2.743  11.301 -2.7312 -0.7739 -2.1413
  753MOL0     H99392   0.843   2.982  11.472  0.7958  2.4935  0.0311
  753MOL0     H99393   0.945   2.873  11.563 -3.1963  1.3527  0.5478
  753MOL0     H99394   1.236   3.058  11.336  0.3519 -0.0811 -0.1178
  753MOL0     H99395   0.384   2.539  11.458  4.1514  1.2480 -0.6909
  753MOL0     H99396   0.152   2.567  11.374 -1.6656  0.6411 -1.2387
  754MOL0     O99397   4.626   7.044   8.867  0.1478  0.1970  0.0116
  754MOL0     C99398   4.558   7.073   8.766 -0.2305  0.1395 -0.4432
  754MOL0     O99399   4.599   7.063   8.633 -0.4399  0.5268  0.7422
  754MOL0     C99400   4.740   7.035   8.608  0.1831  0.7113  0.2249
  754MOL0     C99401   4.802   6.918   8.633 -1.0622  0.6733 -0.5776
  754MOL0     C99402   4.927   6.883   8.586 -0.0229  0.3087  1.0649
  754MOL0     C99403   5.002   6.981   8.513  0.2867 -0.1911  0.0949
  754MOL0     O99404   5.121   6.955   8.449 -0.2794 -0.3325 -1.0583
  754MOL0     C99405   5.219   6.887   8.530  0.4843  0.4403  0.0669
  754MOL0     C99406   5.260   6.969   8.651  1.0991 -0.1501 -1.0208
  754MOL0     C99407   5.384   6.909   8.718 -0.3977 -0.0659 -0.4315
  754MOL0     C99408   5.418   6.988   8.848 -0.6366 -0.1659  0.4064
  754MOL0     C99409   5.549   6.938   8.904  0.0110 -0.2715  0.6350
  754MOL0     C99410   5.626   7.034   8.992 -0.3087 -0.1360 -1.1237
  754MOL0     C99411   5.758   6.988   9.046 -0.1365  0.1067  0.4369
  754MOL0     C99412   5.823   7.107   9.127  0.7544  0.8156 -1.7173
  754MOL0     N99413   5.960   7.105   9.171  0.0835  0.0902 -0.1806
  754MOL0     C99414   6.071   7.092   9.088  0.0749  0.8717  0.0350
  754MOL0     C99415   6.176   7.092   9.167 -2.0339  1.0245  0.1048
  754MOL0     C99416   6.317   7.087   9.131 -0.6019 -0.1807  0.1103
  754MOL0     C99417   6.353   7.094   8.985  0.0927  0.5855 -0.2011
  754MOL0     C99418   6.500   7.112   8.964 -0.2615 -1.4008  0.3632
  754MOL0     C99419   6.511   7.175   8.825  1.2082  0.2469  0.3989
  754MOL0     O99420   6.654   7.160   8.790  0.6825 -0.3060  0.2546
  754MOL0     C99421   6.693   7.166   8.657 -0.8741 -0.7909 -0.5419
  754MOL0     C99422   6.819   7.113   8.631 -0.8999 -0.2019  0.3310
  754MOL0     C99423   6.877   7.126   8.508 -0.0896 -0.3364  0.0893
  754MOL0     C99424   6.802   7.182   8.400 -0.1074  0.4318 -0.4455
  754MOL0     C99425   6.880   7.240   8.284  0.4546 -0.3165 -0.1600
  754MOL0     O99426   7.013   7.253   8.301 -0.4172  0.5686  0.0156
  754MOL0     C99427   7.081   7.280   8.185  0.0468  0.9072 -0.9254
  754MOL0     C99428   7.173   7.389   8.191  0.9704  0.3733  0.3313
  754MOL0     C99429   7.259   7.410   8.079  0.2736  0.8463  0.6774
  754MOL0     C99430   7.256   7.321   7.969 -0.6609 -0.6215 -0.3244
  754MOL0     O99431   7.343   7.347   7.868 -0.0322 -0.0187 -0.2287
  754MOL0     C99432   7.380   7.234   7.784  0.0713  0.3265 -0.0613
  754MOL0     C99433   7.537   7.247   7.774  0.9493  0.9237  0.1849
  754MOL0     C99434   7.607   7.288   7.901 -0.3285 -0.5559  0.2970
  754MOL0     C99435   7.592   7.175   7.995 -0.4287 -0.0087 -0.3222
  754MOL0     C99436   7.710   7.162   8.098 -0.0418 -0.2751 -0.0771
  754MOL0     C99437   7.702   7.032   8.166 -0.5224 -1.0517  0.3558
  754MOL0     C99438   7.770   6.909   8.096 -0.5089  0.1111  0.4282
  754MOL0     C99439   7.749   6.784   8.183 -1.1730 -0.9712  0.7070
  754MOL0    Cl99440   7.586   6.731   8.155 -0.2844  0.2182 -0.4327
  754MOL0     C99441   7.163   7.212   7.979 -2.0362  0.8388  0.3672
  754MOL0     C99442   7.071   7.202   8.074 -0.4443 -0.5410 -0.1193
  754MOL0     O99443   6.816   7.272   8.188 -0.3186  0.0013  0.7296
  754MOL0     C99444   6.672   7.219   8.423  0.4696 -0.7316 -0.0242
  754MOL0     C99445   6.615   7.222   8.551  1.1910  0.2162  0.0107
  754MOL0     N99446   6.130   7.102   9.305  0.0959 -0.7506  0.6943
  754MOL0     N99447   6.006   7.119   9.301  0.0839 -0.0803 -0.1236
  754MOL0     C99448   4.945   7.110   8.511  0.5258  0.0350 -0.0860
  754MOL0     C99449   4.809   7.134   8.552  1.1015  0.1943  0.3960
  754MOL0     C99450   4.415   7.102   8.786  0.2919  0.4831 -0.8033
  754MOL0     C99451   4.368   7.139   8.913  0.2606  1.0479 -0.1734
  754MOL0     C99452   4.235   7.143   8.943 -0.4656  0.2976 -0.0807
  754MOL0     C99453   4.136   7.130   8.843  0.4625 -0.2644 -0.4784
  754MOL0     O99454   4.001   7.138   8.882 -0.3703 -0.1076 -0.4600
  754MOL0     C99455   3.912   7.045   8.823  0.0944  0.2435  0.1175
  754MOL0     C99456   3.791   7.049   8.912  0.5294 -0.2874 -0.3133
  754MOL0     C99457   3.796   6.976   9.042 -0.9644  0.1022  1.1004
  754MOL0     C99458   3.666   6.982   9.107 -0.1821  0.5901  0.0460
  754MOL0     C99459   3.682   6.938   9.246 -0.5601 -0.9062  0.2277
  754MOL0     C99460   3.689   6.908   9.364 -0.2260  0.2196 -0.9587
  754MOL0     C99461   4.174   7.102   8.713 -0.4071  0.5899 -0.0500
  754MOL0     C99462   4.310   7.084   8.685 -1.0154  0.6128  0.3586
  754MOL0     H99463   4.739   6.844   8.680 -1.6026  1.0364 -0.7162
  754MOL0     H99464   4.959   6.780   8.591 -0.0594  0.3652  2.7449
  754MOL0     H99465   5.299   6.864   8.459  0.0720  0.3541 -0.3740
  754MOL0     H99466   5.180   6.788   8.557 -0.5284  0.4273 -1.3757
  754MOL0     H99467   5.171   6.972   8.715  2.2100  1.4734  0.5413
  754MOL0     H99468   5.275   7.071   8.615 -2.6806  1.1843  0.6957
  754MOL0     H99469   5.466   6.915   8.647 -3.2985 -0.2366 -4.1234
  754MOL0     H99470   5.376   6.802   8.738 -0.3371  0.1042  0.5492
  754MOL0     H99471   5.415   7.095   8.825 -3.4416 -0.0134  1.1005
  754MOL0     H99472   5.341   6.973   8.924  0.8285 -0.5946  1.8774
  754MOL0     H99473   5.605   6.906   8.815  0.7738 -0.6547  1.2436
  754MOL0     H99474   5.523   6.846   8.956 -1.1375  0.1342  0.8059
  754MOL0     H99475   5.564   7.067   9.076  1.2823 -2.6261  1.1831
  754MOL0     H99476   5.656   7.124   8.937  3.0111  0.4649  1.3651
  754MOL0     H99477   5.743   6.898   9.107  0.5312 -1.7268 -1.9560
  754MOL0     H99478   5.821   6.960   8.961 -2.0545 -0.5549 -0.8377
  754MOL0     H99479   5.766   7.116   9.220  2.3338 -0.8007 -0.5042
  754MOL0     H99480   5.809   7.195   9.063 -1.8607 -2.4943 -6.2472
  754MOL0     H99481   6.065   7.095   8.980  0.7100 -1.0247 -0.0911
  754MOL0     H99482   6.365   7.003   9.182 -1.4899  0.6616  2.4913
  754MOL0     H99483   6.367   7.175   9.173  0.0656 -0.1145 -0.7996
  754MOL0     H99484   6.294   7.170   8.933  0.3652  1.0325  0.1362
  754MOL0     H99485   6.317   6.996   8.953 -2.3641  0.8803  1.3309
  754MOL0     H99486   6.549   7.190   9.023  3.7387 -1.3542 -2.5903
  754MOL0     H99487   6.539   7.011   8.977 -0.3036 -1.6806 -1.5330
  754MOL0     H99488   6.474   7.278   8.829 -1.1460 -0.4653 -1.3393
  754MOL0     H99489   6.456   7.123   8.747 -0.6133 -1.3192  2.6086
  754MOL0     H99490   6.862   7.052   8.709 -1.3322  0.3179  0.9833
  754MOL0     H99491   6.982   7.102   8.493 -0.2458 -2.2346  1.5802
  754MOL0     H99492   7.192   7.437   8.287 -0.4686 -1.3769  1.5564
  754MOL0     H99493   7.336   7.486   8.083  1.9595 -0.7074 -0.3721
  754MOL0     H99494   7.346   7.250   7.681  3.2377  0.6139 -1.1819
  754MOL0     H99495   7.361   7.135   7.826  1.8454  0.2706  0.7114
  754MOL0     H99496   7.558   7.327   7.702 -0.1947  0.8153 -0.2889
  754MOL0     H99497   7.576   7.156   7.727  2.3102  1.5761  0.0164
  754MOL0     H99498   7.572   7.379   7.951 -0.7412 -1.7739  2.3519
  754MOL0     H99499   7.713   7.293   7.874  0.0488 -2.4550  1.2296
  754MOL0     H99500   7.490   7.186   8.035  0.6420  0.8986  2.3354
  754MOL0     H99501   7.597   7.081   7.938  1.5472  1.1223 -2.1122
  754MOL0     H99502   7.699   7.241   8.174  0.9167  1.5530 -1.7483
  754MOL0     H99503   7.811   7.180   8.060  0.7233  1.7463  2.5365
  754MOL0     H99504   7.599   6.996   8.174 -1.1984  1.0681  2.3238
  754MOL0     H99505   7.744   7.042   8.266 -1.2924 -0.3358  0.6200
  754MOL0     H99506   7.756   6.892   7.989  0.0245  1.7790  0.0483
  754MOL0     H99507   7.874   6.944   8.090 -0.1318 -1.1424 -0.9948
  754MOL0     H99508   7.775   6.802   8.288  1.4198 -2.5253  0.4083
  754MOL0     H99509   7.819   6.706   8.153 -2.2054 -1.2819 -1.0665
  754MOL0     H99510   7.151   7.124   7.916  0.9374 -2.9843  4.5461
  754MOL0     H99511   7.003   7.117   8.065 -0.6088 -0.2924 -1.4962
  754MOL0     H99512   6.622   7.241   8.330  2.1019  0.8251 -0.5928
  754MOL0     H99513   6.513   7.256   8.564  1.7172  2.1529 -0.5676
  754MOL0     H99514   4.998   7.189   8.458  2.4570 -0.8736  0.4066
  754MOL0     H99515   4.767   7.231   8.529  0.0861  0.5745  3.3613
  754MOL0     H99516   4.442   7.148   8.991 -0.2822  1.3653  0.3156
  754MOL0     H99517   4.206   7.158   9.047  1.0448  3.0637  0.0468
  754MOL0     H99518   3.960   6.948   8.807 -0.9681 -0.2623 -0.0865
  754MOL0     H99519   3.890   7.074   8.720  3.1207  0.9188 -0.4578
  754MOL0     H99520   3.770   7.154   8.930  1.8897  0.2388 -1.6124
  754MOL0     H99521   3.711   7.005   8.851  0.6959 -1.3672  0.2119
  754MOL0     H99522   3.880   7.020   9.096  0.5100 -0.7565 -0.3860
  754MOL0     H99523   3.819   6.871   9.022 -0.4797  0.6388 -1.5592
  754MOL0     H99524   3.628   7.085   9.105 -0.1486  0.6477 -3.5256
  754MOL0     H99525   3.589   6.919   9.061 -1.3585  0.5621  1.9260
  754MOL0     H99526   3.709   6.866   9.461  1.2649  1.1094 -0.8651
  754MOL0     H99527   4.121   7.081   8.620  0.6978 -1.6958 -0.2204
  754MOL0     H99528   4.335   7.053   8.584  0.7700  1.9529  0.3361
  755MOL0     O99529   6.484   5.389  10.605 -0.0535  0.1933  1.1284
  755MOL0     C99530   6.391   5.377  10.675  0.2800 -0.3129  0.1066
  755MOL0     O99531   6.265   5.366  10.633 -0.1458 -0.2163  0.0713
  755MOL0     C99532   6.238   5.376  10.498 -0.1607  0.6567  0.5988
  755MOL0     C99533   6.171   5.280  10.423 -0.0908 -0.3371 -0.2077
  755MOL0     C99534   6.133   5.301  10.286 -0.5468  0.1791  0.2047
  755MOL0     C99535   6.185   5.401  10.213  0.1159 -0.6642  1.3796
  755MOL0     O99536   6.161   5.408  10.075  0.0161 -0.2980 -0.2155
  755MOL0     C99537   6.093   5.526  10.034 -0.5852 -0.1620 -0.2723
  755MOL0     C99538   6.048   5.497   9.892  0.2240  0.4294 -0.8567
  755MOL0     C99539   5.897   5.466   9.890 -1.1338 -0.4424 -0.2027
  755MOL0     C99540   5.801   5.580   9.923 -0.0335  0.4754  0.4287
  755MOL0     C99541   5.651   5.536   9.901  0.5526 -1.3333  0.9127
  755MOL0     C99542   5.557   5.653   9.934 -0.5714 -0.5102  0.1733
  755MOL0     C99543   5.417   5.606   9.961  0.3386  0.4347 -0.1627
  755MOL0     C99544   5.366   5.513   9.849  0.2229 -0.4257 -0.4723
  755MOL0     N99545   5.223   5.518   9.835 -0.2592  0.7121 -0.2585
  755MOL0     C99546   5.148   5.619   9.790  0.3532 -0.5986  1.2140
  755MOL0     C99547   5.024   5.566   9.757  0.7711 -0.0019  0.4349
  755MOL0     C99548   4.896   5.636   9.714 -0.7865 -0.2526 -0.2648
  755MOL0     C99549   4.845   5.575   9.588 -0.3830 -0.2779 -0.1293
  755MOL0     C99550   4.732   5.649   9.529  0.4994 -0.7066  0.1488
  755MOL0     C99551   4.639   5.720   9.629  0.5435  0.0005  0.4103
  755MOL0     O99552   4.581   5.614   9.710 -0.7275 -0.2504  0.1762
  755MOL0     C99553   4.449   5.614   9.739  0.4963 -0.1414 -0.3306
  755MOL0     C99554   4.375   5.491   9.723  0.2168 -0.2761 -0.4645
  755MOL0     C99555   4.232   5.491   9.743 -0.3976 -0.6320  0.1855
  755MOL0     C99556   4.166   5.613   9.775 -0.1703 -0.7559  0.2583
  755MOL0     C99557   4.015   5.629   9.779  0.1038  0.2864  0.2304
  755MOL0     O99558   3.952   5.516   9.733 -0.1024 -0.1365 -0.3985
  755MOL0     C99559   3.814   5.517   9.729 -0.0261 -0.1105  0.0664
  755MOL0     C99560   3.749   5.602   9.658  0.8276 -2.0550  0.5944
  755MOL0     C99561   3.606   5.596   9.654 -0.4130  0.4380 -0.1435
  755MOL0     C99562   3.540   5.494   9.732 -0.2266 -1.2720 -0.3187
  755MOL0     O99563   3.395   5.492   9.744  0.2749 -0.5552 -1.2263
  755MOL0     C99564   3.318   5.605   9.695  0.1890 -0.0209  0.0823
  755MOL0     C99565   3.175   5.566   9.666  0.2130 -0.0383 -0.3547
  755MOL0     C99566   3.095   5.512   9.792 -0.3372 -0.7037 -0.3102
  755MOL0     C99567   2.953   5.469   9.757 -0.4331 -0.1128 -0.0141
  755MOL0     C99568   2.849   5.583   9.769  0.5182  0.0857  0.3789
  755MOL0     C99569   2.718   5.551   9.694 -0.3744 -1.2521 -0.7114
  755MOL0     C99570   2.641   5.424   9.742 -0.2918 -0.5842 -0.7484
  755MOL0     C99571   2.557   5.454   9.873  0.7889  0.6323  0.0396
  755MOL0    Cl99572   2.458   5.600   9.877  0.1264  0.1262  0.1200
  755MOL0     C99573   3.619   5.396   9.794  0.1089 -0.7207  0.6397
  755MOL0     C99574   3.760   5.411   9.799  0.7101 -0.2076  0.5074
  755MOL0     O99575   3.954   5.730   9.824 -0.2517 -0.0996  0.4520
  755MOL0     C99576   4.241   5.731   9.784  0.5125 -0.5149 -0.4676
  755MOL0     C99577   4.381   5.737   9.761 -0.4330  0.3475  0.9128
  755MOL0     N99578   5.037   5.434   9.784  0.1291  0.1754 -0.8578
  755MOL0     N99579   5.158   5.402   9.829 -0.6044  0.3476  0.3189
  755MOL0     C99580   6.261   5.500  10.289 -0.3431 -0.2798  0.3000
  755MOL0     C99581   6.280   5.489  10.428  0.8578 -0.9449  0.7816
  755MOL0     C99582   6.417   5.411  10.812  0.5487  0.1676 -0.7074
  755MOL0     C99583   6.537   5.372  10.867 -0.3267  0.5474  0.3590
  755MOL0     C99584   6.564   5.388  11.001 -0.3825  0.7321  0.5584
  755MOL0     C99585   6.468   5.423  11.089 -0.3192 -0.0102  0.7456
  755MOL0     O99586   6.496   5.419  11.224  0.9821  0.0119  0.6014
  755MOL0     C99587   6.401   5.462  11.326 -0.3023  1.0331 -0.1219
  755MOL0     C99588   6.408   5.354  11.440 -1.1164 -0.0480  0.5001
  755MOL0     C99589   6.548   5.335  11.503 -0.5278  0.4289 -0.3068
  755MOL0     C99590   6.557   5.245  11.624  1.1458 -0.5837  1.0116
  755MOL0     C99591   6.696   5.223  11.644  0.6083  0.4343 -0.4526
  755MOL0     C99592   6.808   5.220  11.679  0.0125  0.3901 -0.0587
  755MOL0     C99593   6.347   5.464  11.035  0.0491 -0.6121  0.9679
  755MOL0     C99594   6.320   5.460  10.900  0.7247 -1.1325 -0.1599
  755MOL0     H99595   6.119   5.203  10.478 -2.7529 -0.3579 -2.5253
  755MOL0     H99596   6.066   5.242  10.224 -2.0208  1.5324  0.4317
  755MOL0     H99597   6.163   5.609  10.025  0.6633 -0.6115  3.3487
  755MOL0     H99598   6.012   5.554  10.102  2.2950  1.0210  3.0045
  755MOL0     H99599   6.102   5.409   9.856  0.8972 -1.3899  3.8940
  755MOL0     H99600   6.059   5.579   9.821 -0.6743  0.4461 -0.9916
  755MOL0     H99601   5.866   5.385   9.958 -0.1048 -1.0275 -0.4170
  755MOL0     H99602   5.876   5.445   9.785 -2.9020  1.0896 -0.2111
  755MOL0     H99603   5.814   5.618  10.025 -1.6963  2.4785 -0.0389
  755MOL0     H99604   5.823   5.663   9.855 -4.0544  0.4662 -1.1399
  755MOL0     H99605   5.624   5.448   9.961 -2.2582 -0.7445  0.6819
  755MOL0     H99606   5.639   5.496   9.800  1.8119  2.3060 -0.8396
  755MOL0     H99607   5.576   5.716   9.847  0.9354 -0.4670  0.4982
  755MOL0     H99608   5.606   5.708  10.015  2.2705  2.0578 -2.9932
  755MOL0     H99609   5.422   5.548  10.054 -0.6816 -2.7193 -1.8957
  755MOL0     H99610   5.347   5.688   9.977 -0.6477 -0.1665 -1.2987
  755MOL0     H99611   5.392   5.410   9.874  2.1748 -0.3980 -2.0971
  755MOL0     H99612   5.416   5.536   9.754 -1.3391  0.0059 -1.2176
  755MOL0     H99613   5.178   5.722   9.779 -0.1649 -0.5181  0.5076
  755MOL0     H99614   4.924   5.740   9.696  2.6551 -0.8909  0.6732
  755MOL0     H99615   4.823   5.636   9.796  0.2821  0.6875  0.7197
  755MOL0     H99616   4.803   5.476   9.609  2.7563 -1.8108 -0.5281
  755MOL0     H99617   4.917   5.571   9.507  1.5975 -1.9069  1.6072
  755MOL0     H99618   4.774   5.734   9.473 -1.0134 -0.3835 -0.5404
  755MOL0     H99619   4.676   5.585   9.461 -2.1767 -0.0227  1.5350
  755MOL0     H99620   4.555   5.760   9.571  2.5026 -0.3313 -2.9524
  755MOL0     H99621   4.676   5.803   9.690 -1.4494  0.6840  0.7595
  755MOL0     H99622   4.433   5.410   9.678 -3.2349 -1.6011 -2.9924
  755MOL0     H99623   4.173   5.400   9.738 -1.7041  0.1630  0.6008
  755MOL0     H99624   3.807   5.662   9.589  0.9194 -2.0174  0.7062
  755MOL0     H99625   3.565   5.684   9.605  2.9060  2.8154  0.9362
  755MOL0     H99626   3.356   5.639   9.598  1.9854 -2.0211  0.0176
  755MOL0     H99627   3.323   5.687   9.768 -2.5489  2.1082 -1.9313
  755MOL0     H99628   3.173   5.484   9.594  2.7559  0.1772 -0.7825
  755MOL0     H99629   3.125   5.655   9.624 -0.7660 -0.1236  0.5913
  755MOL0     H99630   3.089   5.589   9.869  1.0759 -1.2608  0.3933
  755MOL0     H99631   3.145   5.427   9.838  0.2885 -0.5856 -0.7592
  755MOL0     H99632   2.937   5.440   9.653  1.7536  2.2795 -1.1421
  755MOL0     H99633   2.935   5.386   9.826 -0.7750  0.5046  0.6550
  755MOL0     H99634   2.898   5.671   9.727  1.5631 -0.9457 -0.6439
  755MOL0     H99635   2.817   5.609   9.871 -1.1210 -2.4477  0.6177
  755MOL0     H99636   2.743   5.554   9.588 -0.4065  4.5155 -0.8681
  755MOL0     H99637   2.662   5.645   9.705  2.7338  0.9057 -1.7497
  755MOL0     H99638   2.577   5.396   9.658 -2.1044 -2.5019  1.1699
  755MOL0     H99639   2.709   5.344   9.774 -2.5206 -2.5886 -0.7982
  755MOL0     H99640   2.625   5.443   9.958 -0.0117  1.2423  0.7715
  755MOL0     H99641   2.486   5.372   9.881 -0.0527  1.4430  1.2240
  755MOL0     H99642   3.575   5.317   9.854  0.7553 -1.1573  0.5497
  755MOL0     H99643   3.817   5.327   9.836  2.3394 -0.6732 -2.7101
  755MOL0     H99644   4.184   5.822   9.793  3.1398  1.3274 -1.2095
  755MOL0     H99645   4.447   5.823   9.754 -1.0555  0.7418 -0.4391
  755MOL0     H99646   6.295   5.592  10.242 -0.1834 -1.6694 -2.5073
  755MOL0     H99647   6.311   5.573  10.489 -1.3103  1.2880 -0.9522
  755MOL0     H99648   6.618   5.328  10.809  0.7982  0.9067  1.6119
  755MOL0     H99649   6.665   5.377  11.040 -0.7684  3.1211  2.4957
  755MOL0     H99650   6.295   5.477  11.301 -0.1869  1.4052 -0.3947
  755MOL0     H99651   6.428   5.564  11.355 -0.4290  1.5723 -1.8004
  755MOL0     H99652   6.345   5.386  11.523 -0.2375 -0.3913  1.3280
  755MOL0     H99653   6.361   5.261  11.405  0.1304 -0.1295 -1.0412
  755MOL0     H99654   6.588   5.430  11.539  1.5087 -0.6890  0.6102
  755MOL0     H99655   6.608   5.293  11.421 -1.6747 -2.3285  0.1375
  755MOL0     H99656   6.512   5.286  11.716 -2.1658  1.6875 -1.3609
  755MOL0     H99657   6.506   5.158  11.582 -2.1962  2.0144 -0.8027
  755MOL0     H99658   6.910   5.219  11.712  0.4014  1.1399 -1.1927
  755MOL0     H99659   6.263   5.489  11.099 -0.4695 -3.1488  1.3916
  755MOL0     H99660   6.226   5.502  10.865 -0.3421 -0.8416  2.7178
  756MOL0     O99661   6.085   1.995   6.737  0.5254 -0.4393  0.4119
  756MOL0     C99662   6.088   1.877   6.769  0.2376  0.1708  0.0402
  756MOL0     O99663   5.982   1.783   6.795 -0.5751 -0.7400 -0.0854
  756MOL0     C99664   5.857   1.835   6.780 -0.1899  0.7775 -0.1453
  756MOL0     C99665   5.816   1.860   6.647 -0.0438 -0.6335 -0.7429
  756MOL0     C99666   5.688   1.913   6.622 -0.3310 -1.2190  0.2520
  756MOL0     C99667   5.595   1.946   6.721  0.8686 -0.8215 -0.3246
  756MOL0     O99668   5.469   2.009   6.701 -0.1010  0.1093  0.6010
  756MOL0     C99669   5.461   2.152   6.696 -0.0745  0.9737  0.3492
  756MOL0     C99670   5.318   2.172   6.633  0.0393 -0.0530  0.7804
  756MOL0     C99671   5.283   2.317   6.614  0.8295  0.9811 -0.2975
  756MOL0     C99672   5.152   2.332   6.526  0.4805 -0.4571 -0.2344
  756MOL0     C99673   5.027   2.256   6.581 -0.9804  0.2676 -0.5116
  756MOL0     C99674   4.908   2.285   6.487 -0.0752  0.2577  0.4924
  756MOL0     C99675   4.774   2.219   6.545  0.6207 -0.7152 -0.1122
  756MOL0     C99676   4.651   2.275   6.459 -0.7957 -0.8241 -0.8555
  756MOL0     N99677   4.515   2.238   6.505  0.0321 -0.9984 -0.4591
  756MOL0     C99678   4.400   2.279   6.448 -0.3417 -0.4946 -0.7589
  756MOL0     C99679   4.304   2.187   6.472  0.2915  0.2151  0.9963
  756MOL0     C99680   4.167   2.161   6.412  0.3312 -0.9317  1.7070
  756MOL0     C99681   4.067   2.095   6.512  0.4719 -0.3094 -0.9624
  756MOL0     C99682   3.936   2.085   6.444 -0.0355  0.6048 -0.0542
  756MOL0     C99683   3.825   2.037   6.546 -1.3591  0.2619 -0.4811
  756MOL0     O99684   3.708   2.084   6.482 -0.2201 -0.6309 -0.5716
  756MOL0     C99685   3.598   2.085   6.564  0.3678  0.3565 -0.0532
  756MOL0     C99686   3.596   2.024   6.694  0.0829  0.6413 -0.7603
  756MOL0     C99687   3.480   2.029   6.765 -0.1097  0.3699  0.8393
  756MOL0     C99688   3.363   2.074   6.712  0.2174  0.4138 -0.3625
  756MOL0     C99689   3.237   2.035   6.783 -0.0773 -0.5022  0.2750
  756MOL0     O99690   3.122   2.110   6.749 -0.6720 -0.2633  0.3532
  756MOL0     C99691   3.010   2.060   6.803  0.6828 -0.8193 -0.2793
  756MOL0     C99692   2.943   1.940   6.758  0.3348 -0.9338  0.2390
  756MOL0     C99693   2.818   1.909   6.795  0.1555  0.1849  0.7912
  756MOL0     C99694   2.741   1.998   6.872 -1.4185 -0.6740 -0.1079
  756MOL0     O99695   2.618   1.971   6.914  0.4830 -0.0916  0.1865
  756MOL0     C99696   2.541   1.865   6.854 -0.1184  0.3883  0.0921
  756MOL0     C99697   2.393   1.898   6.877 -0.1332  0.5289 -0.4547
  756MOL0     C99698   2.365   1.911   7.027 -0.5164  0.3023  0.5259
  756MOL0     C99699   2.222   1.965   7.053 -0.6618  0.8832 -0.4659
  756MOL0     C99700   2.124   1.849   7.016 -0.4341 -0.0763 -0.7998
  756MOL0     C99701   1.978   1.889   7.025 -0.2730 -0.1140  0.1747
  756MOL0     C99702   1.921   1.966   6.902 -0.1779  0.3924 -0.3969
  756MOL0     C99703   1.873   1.860   6.802  0.1090 -0.0263 -0.2333
  756MOL0    Cl99704   1.829   1.949   6.655  0.8307 -0.0004 -0.2630
  756MOL0     C99705   2.795   2.123   6.908 -0.0099 -0.2335  0.5940
  756MOL0     C99706   2.924   2.154   6.870  0.3521  0.3297  0.3070
  756MOL0     O99707   3.234   1.944   6.871  0.0161  0.0979 -0.0673
  756MOL0     C99708   3.363   2.127   6.581 -0.1202 -0.0127  0.5877
  756MOL0     C99709   3.480   2.135   6.510 -0.4905  0.4540  0.1060
  756MOL0     N99710   4.366   2.098   6.560  0.4819 -0.1640 -0.4197
  756MOL0     N99711   4.480   2.127   6.574 -0.0351  0.5072  0.2039
  756MOL0     C99712   5.637   1.919   6.855  0.8135  0.5177 -1.0442
  756MOL0     C99713   5.767   1.861   6.882 -0.0460 -0.2741  0.6523
  756MOL0     C99714   6.219   1.838   6.828 -0.4621  0.1497 -0.1446
  756MOL0     C99715   6.326   1.929   6.870  0.3598 -1.3821  0.4713
  756MOL0     C99716   6.448   1.882   6.920 -0.2629  0.3891 -0.4394
  756MOL0     C99717   6.465   1.745   6.943 -0.9306 -0.2425  0.8206
  756MOL0     O99718   6.576   1.698   7.016  0.2262 -0.0466 -0.1361
  756MOL0     C99719   6.706   1.729   6.950  0.1626 -0.4617 -0.7914
  756MOL0     C99720   6.806   1.617   6.989  0.0279 -0.4154  0.0557
  756MOL0     C99721   6.882   1.547   6.870  0.3835 -1.0581  0.0206
  756MOL0     C99722   7.013   1.621   6.837  0.1347 -0.2545  0.9313
  756MOL0     C99723   7.109   1.627   6.945 -0.2390 -0.3445 -1.1201
  756MOL0     C99724   7.189   1.642   7.035 -0.2116 -0.5060 -0.1990
  756MOL0     C99725   6.369   1.654   6.918  0.5174  0.3438  0.4995
  756MOL0     C99726   6.249   1.699   6.848  0.1795 -0.0286 -0.0766
  756MOL0     H99727   5.881   1.833   6.564  1.6301 -0.8676  0.5838
  756MOL0     H99728   5.674   1.917   6.514  1.6923  0.2011 -0.0113
  756MOL0     H99729   5.539   2.192   6.629  0.1022 -0.8259 -0.5763
  756MOL0     H99730   5.469   2.191   6.798  1.8664 -2.5562  1.7118
  756MOL0     H99731   5.255   2.113   6.700  1.3631  0.0139  2.1332
  756MOL0     H99732   5.308   2.129   6.533 -0.6849  2.0784 -0.1201
  756MOL0     H99733   5.367   2.374   6.574  0.7328  0.6401 -1.0064
  756MOL0     H99734   5.269   2.346   6.718 -0.6687  1.4825 -0.6156
  756MOL0     H99735   5.125   2.438   6.533 -2.2693 -1.1886  3.3043
  756MOL0     H99736   5.161   2.311   6.419  3.6322  0.7503 -0.2943
  756MOL0     H99737   5.010   2.288   6.684 -1.0004  2.1788 -1.0689
  756MOL0     H99738   5.049   2.149   6.589  1.0957  0.7662  1.2032
  756MOL0     H99739   4.933   2.250   6.387 -1.9025 -0.9300  0.4110
  756MOL0     H99740   4.892   2.394   6.484  0.1932  0.2783 -0.5553
  756MOL0     H99741   4.769   2.110   6.542  2.1591 -0.7857 -0.5611
  756MOL0     H99742   4.753   2.254   6.646  0.0573  0.0400 -0.4813
  756MOL0     H99743   4.671   2.230   6.362 -0.5430  0.0044 -1.2039
  756MOL0     H99744   4.654   2.384   6.446  2.9467 -0.7763 -0.7408
  756MOL0     H99745   4.409   2.359   6.375  2.6122 -0.7108 -0.7550
  756MOL0     H99746   4.181   2.096   6.325 -0.4694 -0.5725  1.3029
  756MOL0     H99747   4.121   2.255   6.380  0.3821 -0.4978  2.8486
  756MOL0     H99748   4.048   2.149   6.605 -0.3491 -0.6038 -0.9500
  756MOL0     H99749   4.108   1.999   6.545  1.7264  1.1922  2.2058
  756MOL0     H99750   3.908   2.177   6.392 -1.2100  0.1546 -0.2548
  756MOL0     H99751   3.944   2.001   6.374  4.1832 -0.1946  1.0973
  756MOL0     H99752   3.839   2.083   6.644 -0.4609 -1.1207  0.0702
  756MOL0     H99753   3.835   1.929   6.560  2.6735  0.3245 -1.6541
  756MOL0     H99754   3.675   1.964   6.738 -1.8797  0.4044  2.7637
  756MOL0     H99755   3.481   1.981   6.862  1.4202 -1.9912 -0.2503
  756MOL0     H99756   3.001   1.881   6.687 -0.4007 -0.4343 -0.7952
  756MOL0     H99757   2.774   1.817   6.757 -0.8191  0.5344  1.0569
  756MOL0     H99758   2.555   1.759   6.878 -1.6462 -0.0414 -0.7684
  756MOL0     H99759   2.546   1.863   6.745 -0.0683 -1.5650  0.0916
  756MOL0     H99760   2.311   1.843   6.829 -0.9654 -0.6543  2.1226
  756MOL0     H99761   2.393   1.998   6.831 -1.0241  1.0104  0.5309
  756MOL0     H99762   2.435   1.984   7.069 -2.0314  1.5547  0.9716
  756MOL0     H99763   2.387   1.818   7.081  0.8468  0.3611  0.1147
  756MOL0     H99764   2.216   1.976   7.161  0.8404 -2.9572  0.1503
  756MOL0     H99765   2.201   2.063   7.009 -1.2569  0.1132 -1.9838
  756MOL0     H99766   2.143   1.770   7.090  0.2133  1.4874  0.7731
  756MOL0     H99767   2.151   1.799   6.923  2.0439 -1.5325  0.6039
  756MOL0     H99768   1.959   1.947   7.116 -0.7990 -1.7298  1.1422
  756MOL0     H99769   1.928   1.792   7.034 -1.4739  0.3210 -1.5086
  756MOL0     H99770   1.844   2.030   6.947  1.9275  0.8684  2.8787
  756MOL0     H99771   2.004   2.027   6.866 -0.3317 -0.5046 -2.3908
  756MOL0     H99772   1.784   1.810   6.841  1.5818 -1.3766  1.6075
  756MOL0     H99773   1.949   1.785   6.776  0.1520 -0.3366  0.7514
  756MOL0     H99774   2.734   2.189   6.969 -0.1841 -2.8263  3.4439
  756MOL0     H99775   2.963   2.255   6.875  3.1830 -0.4944 -2.1299
  756MOL0     H99776   3.272   2.158   6.530  1.5332  3.9624 -0.3155
  756MOL0     H99777   3.470   2.181   6.413 -0.2961 -3.2187 -1.8395
  756MOL0     H99778   5.560   1.944   6.927  0.4045 -0.7573 -1.0007
  756MOL0     H99779   5.796   1.835   6.983  2.2417  2.3625  0.8035
  756MOL0     H99780   6.315   2.036   6.854  3.2249 -1.0541  0.2130
  756MOL0     H99781   6.509   1.962   6.960 -1.8378  2.0610 -1.2046
  756MOL0     H99782   6.752   1.821   6.986 -2.1841  0.5865 -0.3058
  756MOL0     H99783   6.697   1.731   6.841  0.2376  0.1192 -0.7907
  756MOL0     H99784   6.873   1.660   7.064 -1.1704  2.0309 -0.1842
  756MOL0     H99785   6.756   1.531   7.035 -3.7051  2.4192  1.7381
  756MOL0     H99786   6.818   1.540   6.782  3.4276  1.3266 -2.6287
  756MOL0     H99787   6.905   1.450   6.914 -1.2404 -0.9717  1.1573
  756MOL0     H99788   7.056   1.559   6.757 -1.6418  0.6902 -0.8418
  756MOL0     H99789   6.990   1.719   6.795  0.3550  0.3305  2.1333
  756MOL0     H99790   7.262   1.651   7.113 -1.2555  1.1214  0.6640
  756MOL0     H99791   6.380   1.550   6.947  0.5243  0.0078 -0.6674
  756MOL0     H99792   6.176   1.623   6.821 -0.6108  0.3822  0.8373
  757MOL0     O99793  10.993   4.516  11.260  0.8323  0.2114  0.3546
  757MOL0     C99794  11.024   4.626  11.305 -0.6330  0.7860 -0.5859
  757MOL0     O99795  10.926   4.712  11.347  0.3249  0.2240 -0.2342
  757MOL0     C99796  10.790   4.691  11.327  0.4696  0.6428  0.7375
  757MOL0     C99797  10.716   4.729  11.439  0.4274  0.0583 -0.7211
  757MOL0     C99798  10.576   4.723  11.428 -0.0971  0.0586 -0.1775
  757MOL0     C99799  10.513   4.676  11.315 -0.2672 -0.4908  0.0140
  757MOL0     O99800  10.377   4.658  11.322 -0.3901  0.4022  0.1193
  757MOL0     C99801  10.311   4.580  11.225  0.9232 -0.8877 -0.6503
  757MOL0     C99802  10.185   4.531  11.294  0.5369  0.0881  0.3617
  757MOL0     C99803  10.077   4.636  11.297  0.9237  0.3834 -0.7016
  757MOL0     C99804   9.960   4.572  11.379  0.3415 -0.7894  0.5546
  757MOL0     C99805   9.842   4.672  11.406  0.8026  0.6232 -0.1032
  757MOL0     C99806   9.734   4.579  11.467  0.7423  1.0704 -0.6335
  757MOL0     C99807   9.614   4.667  11.496  0.7174 -0.8331 -0.9949
  757MOL0     C99808   9.522   4.606  11.596 -0.0457 -0.2173  0.1420
  757MOL0     N99809   9.382   4.615  11.552 -0.4710 -0.2901  0.2175
  757MOL0     C99810   9.291   4.712  11.587 -0.1429  1.3230  0.1468
  757MOL0     C99811   9.186   4.692  11.512  0.6436  0.2433 -0.1504
  757MOL0     C99812   9.076   4.802  11.502 -0.1088  0.1204  0.3604
  757MOL0     C99813   8.942   4.741  11.470  0.9128 -0.2832 -1.1823
  757MOL0     C99814   8.883   4.795  11.343  0.8072  0.3610 -0.1628
  757MOL0     C99815   8.773   4.709  11.288  0.2516 -0.0879 -0.5847
  757MOL0     O99816   8.653   4.720  11.363 -0.4783  0.0279  0.1667
  757MOL0     C99817   8.585   4.605  11.403 -0.1144 -0.6717  0.0685
  757MOL0     C99818   8.583   4.474  11.347 -0.7124 -0.7035  0.6303
  757MOL0     C99819   8.486   4.385  11.380  0.9183  0.6622  0.6983
  757MOL0     C99820   8.381   4.414  11.480  0.0944 -0.4599  0.0569
  757MOL0     C99821   8.283   4.303  11.526  0.6101  0.1476  1.1912
  757MOL0     O99822   8.171   4.348  11.591  0.0701  0.2283  0.0596
  757MOL0     C99823   8.072   4.256  11.627 -0.4385  0.0086  1.3440
  757MOL0     C99824   7.947   4.267  11.581  0.0977  0.0625  0.5557
  757MOL0     C99825   7.849   4.173  11.620  0.0185  0.7659 -1.0460
  757MOL0     C99826   7.864   4.095  11.733  0.4213  0.1260 -0.4002
  757MOL0     O99827   7.772   4.020  11.787  0.2595  0.2933 -0.4180
  757MOL0     C99828   7.630   4.011  11.742  0.5670  0.1848 -0.1933
  757MOL0     C99829   7.539   3.941  11.852  0.7976 -0.9820 -0.5354
  757MOL0     C99830   7.385   3.953  11.832 -0.1720 -0.0994 -0.5939
  757MOL0     C99831   7.333   4.092  11.859  0.3467 -0.4598  0.5712
  757MOL0     C99832   7.201   4.119  11.790 -0.3744  0.6494 -0.6894
  757MOL0     C99833   7.184   4.256  11.768 -0.1335 -0.2106  0.5985
  757MOL0     C99834   7.048   4.295  11.728  0.3909 -1.0220  0.0684
  757MOL0     C99835   6.990   4.423  11.792  0.8810  0.1680 -1.0233
  757MOL0    Cl99836   6.823   4.443  11.723 -0.3689 -0.2227  0.4350
  757MOL0     C99837   7.991   4.084  11.789  0.1661 -0.1858  0.3065
  757MOL0     C99838   8.092   4.168  11.740 -0.0270  0.7126  0.2111
  757MOL0     O99839   8.301   4.188  11.487  0.2641 -1.0207  0.1723
  757MOL0     C99840   8.380   4.547  11.530  0.3922 -0.3534 -0.3059
  757MOL0     C99841   8.487   4.633  11.490  0.1233 -0.3724  1.1150
  757MOL0     N99842   9.209   4.578  11.441  0.9365  0.0103  0.4888
  757MOL0     N99843   9.330   4.537  11.461  0.1136  0.3813  0.1630
  757MOL0     C99844  10.592   4.620  11.205  0.7643  0.2768 -0.3654
  757MOL0     C99845  10.732   4.621  11.221  0.4081  0.0256 -0.0368
  757MOL0     C99846  11.167   4.646  11.345 -0.0779 -0.8606 -0.5802
  757MOL0     C99847  11.271   4.566  11.287 -0.0165 -0.3873 -0.3631
  757MOL0     C99848  11.397   4.563  11.348  0.8154 -0.0942 -0.1949
  757MOL0     C99849  11.422   4.667  11.438 -0.0750  1.0429 -0.9404
  757MOL0     O99850  11.546   4.689  11.494  0.0029 -0.3089  0.3597
  757MOL0     C99851  11.658   4.619  11.451 -0.0167  0.7391 -0.0636
  757MOL0     C99852  11.765   4.624  11.568  0.6492  0.3963  0.4217
  757MOL0     C99853  11.883   4.543  11.520 -1.0089  0.1636 -1.1755
  757MOL0     C99854  12.012   4.600  11.581  0.5834  0.4183 -0.5453
  757MOL0     C99855  12.056   4.727  11.526 -0.4516 -0.6866  0.4086
  757MOL0     C99856  12.091   4.838  11.477 -0.3676 -0.6772  0.6688
  757MOL0     C99857  11.321   4.758  11.482 -1.0305 -0.0087 -0.5714
  757MOL0     C99858  11.198   4.743  11.440 -0.4638  0.4826 -0.0257
  757MOL0     H99859  10.762   4.777  11.524  2.0928 -0.5174 -1.2577
  757MOL0     H99860  10.515   4.756  11.511 -1.4530 -2.7922  0.0809
  757MOL0     H99861  10.362   4.491  11.187 -3.0587 -1.9402 -4.3871
  757MOL0     H99862  10.297   4.640  11.135  1.8159  1.9303  0.9294
  757MOL0     H99863  10.203   4.497  11.396  1.2676 -0.1660  0.1549
  757MOL0     H99864  10.153   4.440  11.242 -1.0545 -0.7041  2.5819
  757MOL0     H99865  10.038   4.659  11.198  1.6261 -2.3312 -1.6929
  757MOL0     H99866  10.102   4.734  11.340 -1.0932  0.8758 -0.5515
  757MOL0     H99867   9.917   4.485  11.328 -0.1174  0.6770 -1.7297
  757MOL0     H99868  10.003   4.537  11.473  1.2907 -3.4318 -0.7506
  757MOL0     H99869   9.801   4.719  11.316 -0.7658  0.5628  0.5537
  757MOL0     H99870   9.874   4.753  11.472 -3.6105  1.2912  1.5585
  757MOL0     H99871   9.775   4.531  11.556 -0.2337  1.4347  0.0235
  757MOL0     H99872   9.715   4.501  11.392  3.2434  0.9581 -1.2419
  757MOL0     H99873   9.650   4.761  11.539 -1.6516  0.3712 -1.4483
  757MOL0     H99874   9.566   4.684  11.399  3.1054  0.7260 -2.0137
  757MOL0     H99875   9.539   4.649  11.695 -1.3418 -1.1964  0.8233
  757MOL0     H99876   9.542   4.499  11.590  2.0997  0.2140 -3.5413
  757MOL0     H99877   9.306   4.804  11.643  0.4087  1.7512 -0.6864
  757MOL0     H99878   9.096   4.881  11.430  0.1104 -0.9635 -0.8004
  757MOL0     H99879   9.066   4.854  11.598 -0.5506 -2.0615  1.5626
  757MOL0     H99880   8.885   4.785  11.552  0.4489 -1.7918 -0.6624
  757MOL0     H99881   8.936   4.633  11.485  0.0001  0.1597  2.5084
  757MOL0     H99882   8.832   4.891  11.352  0.2765  0.0424  0.3185
  757MOL0     H99883   8.959   4.784  11.265  0.2670  0.3678 -0.6938
  757MOL0     H99884   8.806   4.605  11.295  1.6029  0.4059  3.4042
  757MOL0     H99885   8.754   4.722  11.181 -2.2193  2.7852  0.0800
  757MOL0     H99886   8.654   4.444  11.270 -3.4663 -3.2578 -1.1562
  757MOL0     H99887   8.492   4.294  11.322 -0.1174  0.0414  1.5264
  757MOL0     H99888   7.923   4.344  11.508 -1.3743 -2.2056 -1.5140
  757MOL0     H99889   7.753   4.186  11.570  1.0062 -0.3759 -3.3892
  757MOL0     H99890   7.630   3.932  11.666  0.8519  0.7346 -0.7774
  757MOL0     H99891   7.585   4.103  11.702 -0.6210  0.8877  2.5412
  757MOL0     H99892   7.558   3.996  11.944 -2.1482  1.2833 -1.1223
  757MOL0     H99893   7.577   3.841  11.875  1.8512 -0.1133  1.8331
  757MOL0     H99894   7.319   3.890  11.893 -1.0815  0.3936 -1.0422
  757MOL0     H99895   7.357   3.927  11.729 -0.4627  2.9102 -1.3547
  757MOL0     H99896   7.309   4.099  11.965  1.2480  0.1372  0.7498
  757MOL0     H99897   7.406   4.166  11.824  0.8856  0.5695  3.5619
  757MOL0     H99898   7.130   4.073  11.860  0.5798 -1.2248 -0.8802
  757MOL0     H99899   7.180   4.065  11.697  0.4513  1.0529 -1.1179
  757MOL0     H99900   7.252   4.276  11.685 -1.1326 -3.8297 -1.3166
  757MOL0     H99901   7.208   4.313  11.859 -1.9745  0.0363  0.9571
  757MOL0     H99902   7.046   4.304  11.619  1.6054  1.3517  0.1879
  757MOL0     H99903   6.976   4.213  11.740  0.0298 -0.8563 -0.8240
  757MOL0     H99904   7.047   4.504  11.747  1.1085  2.8592  3.4628
  757MOL0     H99905   6.996   4.420  11.902 -0.4244 -1.5653 -0.9549
  757MOL0     H99906   7.999   4.014  11.872 -1.3762  1.4160  1.8958
  757MOL0     H99907   8.190   4.175  11.784 -0.6429  2.3987  1.4455
  757MOL0     H99908   8.294   4.561  11.594  0.9169  2.0500 -0.0501
  757MOL0     H99909   8.470   4.736  11.519 -5.0561 -0.3709 -0.8836
  757MOL0     H99910  10.538   4.575  11.122  0.0973  0.8344 -0.2453
  757MOL0     H99911  10.795   4.581  11.142 -1.2284 -4.6962  0.7127
  757MOL0     H99912  11.252   4.500  11.203 -0.1957  0.6197 -1.1253
  757MOL0     H99913  11.467   4.495  11.301  0.5146 -1.2554  0.9587
  757MOL0     H99914  11.698   4.668  11.362 -2.2924 -1.2198 -2.3125
  757MOL0     H99915  11.640   4.514  11.430  1.1691  0.4978  0.0138
  757MOL0     H99916  11.800   4.727  11.582  1.8712  0.1330 -0.5654
  757MOL0     H99917  11.731   4.599  11.669 -1.2973  1.4981  0.1034
  757MOL0     H99918  11.904   4.544  11.413 -1.6924  0.4029 -1.3138
  757MOL0     H99919  11.863   4.440  11.553  1.6756 -0.7487 -2.1447
  757MOL0     H99920  11.989   4.608  11.687 -1.8169  0.9451 -1.0306
  757MOL0     H99921  12.089   4.523  11.566 -1.4518 -1.8527 -0.0453
  757MOL0     H99922  12.118   4.939  11.459 -0.8201 -0.7937 -0.8315
  757MOL0     H99923  11.358   4.838  11.546  2.3670 -0.3493 -1.9293
  757MOL0     H99924  11.129   4.808  11.493 -0.1626 -0.5714  1.7258
  758MOL0     O99925   4.674   4.706  10.944 -0.2292 -0.5820 -0.5897
  758MOL0     C99926   4.693   4.590  10.941  0.0484  0.3008  1.0870
  758MOL0     O99927   4.601   4.491  10.934  0.6159 -0.7503  0.0971
  758MOL0     C99928   4.468   4.529  10.947  0.2024 -0.9355 -0.5391
  758MOL0     C99929   4.406   4.643  10.901  0.7662 -0.3409  0.1789
  758MOL0     C99930   4.266   4.666  10.909  0.9255  0.2552  0.1631
  758MOL0     C99931   4.179   4.567  10.959 -0.1308  0.2723 -0.3747
  758MOL0     O99932   4.045   4.570  10.959 -0.2639  0.4437  0.5506
  758MOL0     C99933   3.979   4.685  10.903 -0.4472  0.2953  0.3777
  758MOL0     C99934   3.829   4.649  10.914 -0.5596  0.4210  0.2103
  758MOL0     C99935   3.730   4.741  10.843 -0.0979  0.3732  0.1112
  758MOL0     C99936   3.595   4.679  10.867  0.4214  0.7688  0.0239
  758MOL0     C99937   3.483   4.762  10.807  0.6604 -0.1712 -0.0361
  758MOL0     C99938   3.344   4.696  10.833  0.2516 -0.5083  0.3902
  758MOL0     C99939   3.224   4.779  10.785 -0.7770 -0.6051  0.3965
  758MOL0     C99940   3.086   4.724  10.815 -0.0498  0.8191 -0.6018
  758MOL0     N99941   2.980   4.815  10.795  0.3716  0.0650 -0.0284
  758MOL0     C99942   2.959   4.948  10.841  0.7214 -1.0955 -0.0442
  758MOL0     C99943   2.830   4.965  10.840 -0.4956  0.0647  0.5188
  758MOL0     C99944   2.758   5.092  10.872 -0.4074  0.7182  0.2096
  758MOL0     C99945   2.739   5.180  10.749  0.3254 -0.6142  0.2718
  758MOL0     C99946   2.699   5.321  10.782  0.3536 -0.4783  0.1632
  758MOL0     C99947   2.556   5.322  10.849  0.1104  0.2340 -0.2508
  758MOL0     O99948   2.459   5.292  10.746 -0.0888 -0.1113 -0.6547
  758MOL0     C99949   2.328   5.301  10.780  0.2911 -0.9177 -0.5439
  758MOL0     C99950   2.231   5.258  10.684 -0.4613 -0.0339 -0.0551
  758MOL0     C99951   2.092   5.262  10.700 -0.5890  0.3971 -0.4570
  758MOL0     C99952   2.046   5.304  10.821  0.5010 -0.7758  0.4796
  758MOL0     C99953   1.896   5.304  10.841 -0.8300  0.3688 -0.2266
  758MOL0     O99954   1.816   5.267  10.744 -0.5404  0.0647  0.1775
  758MOL0     C99955   1.680   5.297  10.749  0.0531  0.3564  0.1781
  758MOL0     C99956   1.581   5.202  10.728 -0.0833 -0.2053  0.5389
  758MOL0     C99957   1.448   5.227  10.748 -0.2176  1.2516  0.2098
  758MOL0     C99958   1.402   5.356  10.794 -1.2396  0.3046  0.6326
  758MOL0     O99959   1.274   5.390  10.835 -0.1071 -0.6351  0.0577
  758MOL0     C99960   1.162   5.300  10.811 -0.0969  0.1706  0.3395
  758MOL0     C99961   1.026   5.374  10.801  0.5442  0.0157 -0.3346
  758MOL0     C99962   0.916   5.273  10.766  0.0370  0.5618 -0.4348
  758MOL0     C99963   0.784   5.339  10.760 -1.0321 -0.1225  0.0826
  758MOL0     C99964   0.725   5.375  10.906  0.2535  0.2480  0.2050
  758MOL0     C99965   0.586   5.439  10.897 -0.5659  0.0014 -0.4821
  758MOL0     C99966   0.544   5.507  11.026 -0.0726 -0.4870  0.0733
  758MOL0     C99967   0.416   5.594  11.012 -0.8228  0.1533 -0.1138
  758MOL0    Cl99968   0.383   5.652  11.175 -0.2227  0.0542  0.1705
  758MOL0     C99969   1.505   5.449  10.817 -0.3516 -0.0170  0.4391
  758MOL0     C99970   1.633   5.422  10.774  0.0753 -0.5299 -0.5071
  758MOL0     O99971   1.864   5.334  10.958  0.3569  0.0067  0.2672
  758MOL0     C99972   2.136   5.361  10.917 -0.1448  0.6578  0.4607
  758MOL0     C99973   2.276   5.357  10.898  0.7708  0.1015  0.1260
  758MOL0     N99974   2.767   4.859  10.786  0.2000 -0.0675  0.1902
  758MOL0     N99975   2.854   4.768  10.770 -0.2151  0.3746 -0.6758
  758MOL0     C99976   4.249   4.456  11.012  0.3998  0.0911  0.9302
  758MOL0     C99977   4.389   4.436  11.014  1.0299 -0.1659  0.6408
  758MOL0     C99978   4.833   4.550  10.940 -0.2264  0.1999  0.5994
  758MOL0     C99979   4.874   4.412  10.943 -1.0020  0.0673 -0.1939
  758MOL0     C99980   5.004   4.370  10.932 -0.3326  0.1993  0.2582
  758MOL0     C99981   5.112   4.458  10.930  0.4395 -0.6718  0.7759
  758MOL0     O99982   5.241   4.414  10.916  0.2195  0.0789 -0.0408
  758MOL0     C99983   5.269   4.269  10.906  0.6231 -0.8560 -0.0419
  758MOL0     C99984   5.420   4.238  10.910 -0.9976 -0.5717 -1.2766
  758MOL0     C99985   5.483   4.271  11.046  1.2335  0.3784  0.8470
  758MOL0     C99986   5.430   4.183  11.161 -0.0062  1.0265 -0.3818
  758MOL0     C99987   5.468   4.038  11.154  0.0692 -0.9133 -0.3682
  758MOL0     C99988   5.507   3.927  11.153 -0.1952  1.2082 -0.6403
  758MOL0     C99989   5.082   4.589  10.931  0.1122 -0.9032 -0.1789
  758MOL0     C99990   4.944   4.637  10.931  0.0951 -0.6096  1.4621
  758MOL0     H99991   4.464   4.712  10.839  1.5048  0.0117  1.2415
  758MOL0     H99992   4.229   4.761  10.871  1.9935  2.0895  3.2637
  758MOL0     H99993   4.012   4.705  10.801  2.3900 -1.2910  0.8703
  758MOL0     H99994   3.991   4.784  10.948 -0.2609  0.2701  0.3875
  758MOL0     H99995   3.802   4.646  11.020 -2.5796 -1.6885 -0.2818
  758MOL0     H99996   3.817   4.552  10.864 -2.1525  1.8266 -2.3695
  758MOL0     H99997   3.754   4.748  10.736 -1.1660  3.3208 -0.0472
  758MOL0     H99998   3.743   4.838  10.893  5.3499  0.1867 -0.3183
  758MOL0     H99999   3.609   4.584  10.815  1.8698  0.7026  0.5094
  758MOL0     H    0   3.572   4.664  10.973 -3.2757  1.2256 -0.5669
  758MOL0     H    1   3.497   4.771  10.698 -0.1618  1.2256 -0.0395
  758MOL0     H    2   3.479   4.859  10.857 -0.9364  0.1656 -0.7644
  758MOL0     H    3   3.322   4.673  10.937 -1.0527  2.2585  0.8266
  758MOL0     H    4   3.340   4.598  10.784 -0.4738 -0.8200  1.0530
  758MOL0     H    5   3.234   4.881  10.823  0.8264  1.3699 -4.5402
  758MOL0     H    6   3.244   4.794  10.679  0.0109 -1.0377  0.4761
  758MOL0     H    7   3.069   4.667  10.907 -1.7401  3.1181  0.6067
  758MOL0     H    8   3.074   4.644  10.741 -3.4196 -1.4117  2.0228
  758MOL0     H    9   3.043   5.011  10.872  0.7596 -0.8700 -0.5955
  758MOL0     H   10   2.816   5.153  10.942  1.7439 -1.5651  0.5462
  758MOL0     H   11   2.667   5.052  10.916  0.4670 -4.2967 -1.8571
  758MOL0     H   12   2.658   5.148  10.683  0.0266  0.0994  0.2910
  758MOL0     H   13   2.829   5.181  10.685 -0.3262 -2.0417 -0.7309
  758MOL0     H   14   2.759   5.369  10.860  0.6825 -2.4388  1.1786
  758MOL0     H   15   2.699   5.379  10.690 -1.1452 -3.8893 -2.1814
  758MOL0     H   16   2.548   5.423  10.889  2.7915 -0.8914  3.6446
  758MOL0     H   17   2.568   5.241  10.921  3.7217  0.5694 -0.3059
  758MOL0     H   18   2.255   5.216  10.587 -3.1503  4.5108 -3.0639
  758MOL0     H   19   2.018   5.238  10.625 -1.2100 -2.0594  0.8232
  758MOL0     H   20   1.605   5.099  10.705 -1.3315 -1.3098  3.6822
  758MOL0     H   21   1.372   5.149  10.747  0.3511  0.6785  0.6528
  758MOL0     H   22   1.170   5.222  10.888 -1.6373  0.9654  1.3552
  758MOL0     H   23   1.184   5.255  10.714 -2.0317 -2.3032  0.9402
  758MOL0     H   24   1.041   5.447  10.722 -2.5029  0.9901 -0.1152
  758MOL0     H   25   1.004   5.433  10.891 -2.0182  0.5637 -1.2569
  758MOL0     H   26   0.912   5.191  10.838 -0.1881  2.7330  2.1900
  758MOL0     H   27   0.940   5.240  10.664  0.6364 -1.1846  0.2381
  758MOL0     H   28   0.801   5.443  10.733 -1.4296 -0.5143 -1.8335
  758MOL0     H   29   0.718   5.292  10.686  1.1052  1.5558 -3.1179
  758MOL0     H   30   0.785   5.448  10.961  1.0437  1.0329 -1.6161
  758MOL0     H   31   0.705   5.282  10.959 -0.3311  0.3367  0.1417
  758MOL0     H   32   0.515   5.368  10.854 -0.2231 -0.5313 -0.1841
  758MOL0     H   33   0.603   5.522  10.828  2.7076  0.4263  0.6866
  758MOL0     H   34   0.516   5.438  11.106 -3.5605  0.8094  0.1477
  758MOL0     H   35   0.628   5.564  11.065 -0.0958 -0.4778  0.1109
  758MOL0     H   36   0.337   5.523  10.986 -0.4911 -0.1819 -0.2258
  758MOL0     H   37   0.432   5.667  10.932  0.3467 -2.3756 -2.3553
  758MOL0     H   38   1.487   5.547  10.860 -2.6161 -0.9995  1.9622
  758MOL0     H   39   1.705   5.503  10.784 -2.4429  1.9253 -0.8217
  758MOL0     H   40   2.095   5.393  11.012 -2.7588  1.2602 -0.7883
  758MOL0     H   41   2.338   5.377  10.985  1.2792 -2.4282  0.4051
  758MOL0     H   42   4.179   4.382  11.047 -0.1849 -0.1128 -0.5760
  758MOL0     H   43   4.425   4.341  11.052  3.6506  0.5852  0.2352
  758MOL0     H   44   4.792   4.341  10.938  2.7344 -4.9021  1.0952
  758MOL0     H   45   5.024   4.265  10.915 -3.4780 -0.4170 -0.1616
  758MOL0     H   46   5.226   4.239  10.810 -4.0649 -3.3656  2.5308
  758MOL0     H   47   5.230   4.209  10.988  2.6525 -3.7464 -1.0322
  758MOL0     H   48   5.449   4.134  10.892  1.1075 -0.2908  0.0959
  758MOL0     H   49   5.461   4.311  10.839 -0.1204 -1.3620 -1.6034
  758MOL0     H   50   5.457   4.376  11.061  1.1375  0.4596  0.1478
  758MOL0     H   51   5.589   4.278  11.023  0.8282  0.1080 -1.3127
  758MOL0     H   52   5.468   4.212  11.259 -1.0200  4.0247 -0.7773
  758MOL0     H   53   5.321   4.184  11.173  0.0845  2.4774  0.5102
  758MOL0     H   54   5.531   3.823  11.153  1.0011  1.4470  0.7440
  758MOL0     H   55   5.164   4.661  10.932 -0.1233 -0.5784  2.1196
  758MOL0     H   56   4.929   4.744  10.933 -0.6510 -0.5538 -2.0133
  759MOL0     O   57   8.933   9.189   0.505 -0.9257  0.0795  0.3117
  759MOL0     C   58   8.945   9.078   0.556  0.0606  0.0784  0.3167
  759MOL0     O   59   8.872   8.966   0.516  0.3145 -0.4232  0.0234
  759MOL0     C   60   8.747   8.992   0.468  1.3905 -0.5597  0.8560
  759MOL0     C   61   8.640   9.057   0.530 -0.4023 -0.0317  0.5425
  759MOL0     C   62   8.507   9.060   0.482 -0.1625 -0.1424  0.3149
  759MOL0     C   63   8.477   9.007   0.353  1.3288 -0.0344 -0.2787
  759MOL0     O   64   8.348   8.996   0.297 -0.4430  0.3477 -0.9680
  759MOL0     C   65   8.232   9.023   0.378  0.7540 -0.0640  0.1306
  759MOL0     C   66   8.112   9.036   0.278  0.0382  0.5287  0.6788
  759MOL0     C   67   7.992   9.078   0.361  0.1510  0.4773 -0.4556
  759MOL0     C   68   7.879   9.074   0.263  0.1181 -0.0141  0.2259
  759MOL0     C   69   7.744   9.127   0.329 -0.1017 -0.2690 -0.2992
  759MOL0     C   70   7.626   9.141   0.228  0.6999  0.1327 -0.4153
  759MOL0     C   71   7.486   9.192   0.286  0.1372 -0.1431  0.0519
  759MOL0     C   72   7.388   9.165   0.172  0.2726  1.2532  0.1675
  759MOL0     N   73   7.251   9.144   0.226  0.4016  0.6689  0.2023
  759MOL0     C   74   7.136   9.173   0.168  0.9482  0.0516 -0.3010
  759MOL0     C   75   7.035   9.121   0.236  0.6319  1.1922  0.0896
  759MOL0     C   76   6.891   9.116   0.199 -1.1162 -1.2299  0.0912
  759MOL0     C   77   6.878   8.976   0.138  0.2491  0.4263  0.7546
  759MOL0     C   78   6.741   8.931   0.100 -0.7067  0.3659  0.9062
  759MOL0     C   79   6.640   8.972   0.201  0.4154  0.4269 -0.2679
  759MOL0     O   80   6.515   8.908   0.162  0.0345 -0.5156  0.2804
  759MOL0     C   81   6.407   8.904   0.239  0.5032  0.2134  0.3185
  759MOL0     C   82   6.294   8.827   0.184 -0.3202 -0.6106 -0.0360
  759MOL0     C   83   6.175   8.828   0.254 -0.4896 -0.6227  0.4032
  759MOL0     C   84   6.159   8.904   0.363 -0.1315 -0.1764 -0.9867
  759MOL0     C   85   6.038   8.908   0.429  0.6050  0.6127 -0.0814
  759MOL0     O   86   5.934   8.817   0.409  0.0941  0.9058  0.0382
  759MOL0     C   87   5.804   8.849   0.428 -0.7676  0.2294  1.0920
  759MOL0     C   88   5.704   8.760   0.443  0.1660  0.1570  1.4790
  759MOL0     C   89   5.570   8.792   0.465  0.1627  0.2351  0.1021
  759MOL0     C   90   5.525   8.930   0.474  0.4588 -0.1933 -0.3372
  759MOL0     O   91   5.394   8.978   0.482 -0.2942  1.1896 -0.9165
  759MOL0     C   92   5.331   8.923   0.592 -0.4788 -0.9850  0.1724
  759MOL0     C   93   5.177   8.951   0.586 -0.6600 -0.1900 -0.4437
  759MOL0     C   94   5.109   8.880   0.467 -0.8133  0.6654 -0.0044
  759MOL0     C   95   4.961   8.904   0.475  0.4280  0.0469 -0.0075
  759MOL0     C   96   4.926   9.042   0.414  0.7219 -0.2841  0.3298
  759MOL0     C   97   4.776   9.072   0.415  0.5210 -0.3633  0.1691
  759MOL0     C   98   4.720   9.090   0.556  0.1750 -1.2116  0.2739
  759MOL0     C   99   4.741   9.233   0.601  0.5650  0.6265 -0.6538
  759MOL0    Cl  100   4.898   9.271   0.658  0.3333 -0.3138 -0.0904
  759MOL0     C  101   5.620   9.023   0.442  0.5245  0.0228  0.1446
  759MOL0     C  102   5.756   8.981   0.418 -0.0467  0.5281  0.6436
  759MOL0     O  103   6.030   9.003   0.506 -0.4901  0.2323  0.1747
  759MOL0     C  104   6.269   8.979   0.404  0.4071  0.9055 -0.3416
  759MOL0     C  105   6.396   8.977   0.348  0.3348  0.6562 -0.1935
  759MOL0     N  106   7.092   9.067   0.346  0.9135  0.4242 -0.0104
  759MOL0     N  107   7.219   9.072   0.337  0.2046 -0.7077  0.6548
  759MOL0     C  108   8.587   8.945   0.278 -0.7349 -0.8166  0.0274
  759MOL0     C  109   8.715   8.936   0.337 -0.2137 -1.0989  0.3537
  759MOL0     C  110   9.045   9.055   0.646 -1.1806 -0.8201 -0.1594
  759MOL0     C  111   9.069   8.931   0.706  0.0632 -0.5777 -0.7321
  759MOL0     C  112   9.182   8.912   0.785 -0.6509  0.3363 -0.2731
  759MOL0     C  113   9.275   9.015   0.808  0.4051  0.4195 -0.9864
  759MOL0     O  114   9.374   8.993   0.905  0.3531 -0.1479  0.2078
  759MOL0     C  115   9.499   9.070   0.906  0.1519 -0.3650  1.2751
  759MOL0     C  116   9.611   8.988   0.951  0.5026  0.0259  0.8482
  759MOL0     C  117   9.693   9.064   1.048 -1.1325  0.4619  0.3840
  759MOL0     C  118   9.813   9.134   0.990  0.0216  0.7579 -0.5530
  759MOL0     C  119   9.782   9.241   0.896  0.3759  0.8167 -0.2938
  759MOL0     C  120   9.780   9.333   0.814  0.5384 -0.2582  0.7286
  759MOL0     C  121   9.254   9.135   0.754  0.1587  0.0305  0.1535
  759MOL0     C  122   9.142   9.159   0.675  0.4468 -0.4934  0.0493
  759MOL0     H  123   8.657   9.092   0.632  1.1090  0.5818  0.1041
  759MOL0     H  124   8.433   9.121   0.533 -0.2698  1.3035 -1.4398
  759MOL0     H  125   8.248   9.110   0.442  2.1243 -1.9448  2.4701
  759MOL0     H  126   8.211   8.939   0.443 -0.0328  0.3033  0.3557
  759MOL0     H  127   8.092   8.941   0.228 -0.4440  1.3752 -0.8157
  759MOL0     H  128   8.126   9.105   0.193 -2.3916  0.8525  0.4590
  759MOL0     H  129   8.003   9.182   0.394  2.4978 -0.1142  0.8276
  759MOL0     H  130   7.970   9.017   0.449  0.8714  0.0152 -0.5893
  759MOL0     H  131   7.890   9.142   0.178 -0.0411 -0.1608  0.0900
  759MOL0     H  132   7.856   8.972   0.234 -3.5390  0.5983  0.5128
  759MOL0     H  133   7.756   9.221   0.382 -1.1836 -0.7202  0.7771
  759MOL0     H  134   7.719   9.055   0.407  0.4097  0.9248  1.0097
  759MOL0     H  135   7.603   9.040   0.193 -1.1809  0.6750 -0.8645
  759MOL0     H  136   7.658   9.206   0.146  1.8630 -3.0395 -2.6674
  759MOL0     H  137   7.470   9.139   0.381  3.0124 -0.7424  0.3015
  759MOL0     H  138   7.491   9.297   0.317 -2.5453 -0.3153  1.3371
  759MOL0     H  139   7.423   9.075   0.120 -2.7339  0.7168 -1.1923
  759MOL0     H  140   7.395   9.251   0.105  2.1357  1.0748  0.0778
  759MOL0     H  141   7.119   9.229   0.077  0.5676 -0.4151 -0.5193
  759MOL0     H  142   6.879   9.202   0.133  3.9350 -0.8550 -0.7423
  759MOL0     H  143   6.828   9.119   0.288  0.0212 -2.1552  0.9706
  759MOL0     H  144   6.918   8.903   0.209 -0.3852 -0.7215 -0.0525
  759MOL0     H  145   6.937   8.974   0.046 -1.0150  0.6392 -0.0914
  759MOL0     H  146   6.710   8.977   0.006 -0.5901  1.2678  1.2996
  759MOL0     H  147   6.745   8.822   0.092 -0.2642  0.3715  1.0577
  759MOL0     H  148   6.624   9.079   0.213  2.5993  0.7405  0.2298
  759MOL0     H  149   6.673   8.935   0.298 -2.0187 -0.2568  0.3786
  759MOL0     H  150   6.307   8.774   0.090  1.9989  0.1637 -0.1907
  759MOL0     H  151   6.094   8.770   0.213  0.8617 -2.3505  0.0451
  759MOL0     H  152   5.738   8.657   0.434  0.3387  0.2364  1.2206
  759MOL0     H  153   5.500   8.709   0.466 -0.1975  0.5084 -0.8940
  759MOL0     H  154   5.364   8.982   0.678  1.7623  0.6338 -1.6858
  759MOL0     H  155   5.345   8.814   0.602 -1.0176 -1.3102 -2.1820
  759MOL0     H  156   5.164   9.057   0.562  3.7592  1.1002  1.5998
  759MOL0     H  157   5.127   8.934   0.682  2.4299 -0.6042  1.2414
  759MOL0     H  158   5.137   8.775   0.476  2.3560  1.3804 -0.3184
  759MOL0     H  159   5.160   8.905   0.374  2.8918 -0.3697  1.5965
  759MOL0     H  160   4.898   8.823   0.438 -0.4367 -0.5119  2.4840
  759MOL0     H  161   4.932   8.894   0.580 -3.5488  0.3022 -0.9304
  759MOL0     H  162   4.959   9.023   0.311  4.8496 -0.8180  1.5867
  759MOL0     H  163   4.986   9.125   0.451 -1.5991  2.1749 -1.0709
  759MOL0     H  164   4.729   8.986   0.367 -0.3592 -0.6168  1.4283
  759MOL0     H  165   4.764   9.160   0.351  0.3982 -1.0764 -0.8127
  759MOL0     H  166   4.613   9.079   0.537  0.1629 -0.3942 -0.1858
  759MOL0     H  167   4.754   9.013   0.626  2.3637 -2.7436 -2.2879
  759MOL0     H  168   4.678   9.253   0.688  0.0718 -0.1735 -0.8238
  759MOL0     H  169   4.719   9.310   0.525  0.0479  2.2733  1.0769
  759MOL0     H  170   5.605   9.130   0.445  2.7591  0.3780  3.2930
  759MOL0     H  171   5.828   9.060   0.395  1.5277 -1.3803 -1.4140
  759MOL0     H  172   6.251   9.052   0.482 -0.6937 -0.3059  0.5919
  759MOL0     H  173   6.472   9.038   0.394  0.0975 -0.9931  2.6117
  759MOL0     H  174   8.578   8.918   0.173 -0.9400  0.1194 -0.2021
  759MOL0     H  175   8.785   8.881   0.274  1.2366 -0.3324  1.2413
  759MOL0     H  176   8.991   8.856   0.701 -0.1097 -0.3202 -2.7735
  759MOL0     H  177   9.195   8.813   0.826 -3.1439 -0.6007 -1.5308
  759MOL0     H  178   9.473   9.159   0.965 -0.3770  0.5045 -0.1978
  759MOL0     H  179   9.514   9.101   0.802 -1.0854 -1.3494  0.7807
  759MOL0     H  180   9.577   8.893   0.992 -1.0534 -0.0670 -0.5706
  759MOL0     H  181   9.666   8.958   0.861 -1.0653 -0.2618 -0.0527
  759MOL0     H  182   9.747   8.999   1.117  0.3333  0.4487 -0.7155
  759MOL0     H  183   9.628   9.129   1.106 -1.1910 -1.3353  2.4649
  759MOL0     H  184   9.866   9.183   1.072 -1.0057 -1.6678  1.6732
  759MOL0     H  185   9.873   9.066   0.929 -1.3314  1.0379 -2.2777
  759MOL0     H  186   9.780   9.403   0.733  3.1129 -0.6621  0.3003
  759MOL0     H  187   9.327   9.212   0.776  0.4927 -0.0194 -0.7390
  759MOL0     H  188   9.129   9.252   0.621  0.5607 -1.5807 -1.9670
  760MOL0     O  189   3.432   2.710   9.932  0.6199  0.5137 -0.1172
  760MOL0     C  190   3.467   2.794  10.009 -0.2581 -0.9153  0.2932
  760MOL0     O  191   3.557   2.785  10.113  0.0742 -0.3886  0.7400
  760MOL0     C  192   3.606   2.659  10.134  0.2136 -1.1090  0.2356
  760MOL0     C  193   3.717   2.620  10.061  0.2258  0.6968 -0.0433
  760MOL0     C  194   3.778   2.500  10.100  1.2837 -0.5897  0.4937
  760MOL0     C  195   3.726   2.418  10.208  0.6236 -1.1007 -0.3010
  760MOL0     O  196   3.786   2.300  10.227  0.0694  0.3184 -0.4553
  760MOL0     C  197   3.830   2.270  10.358 -0.3356 -0.5779 -0.1478
  760MOL0     C  198   3.897   2.136  10.350  0.1034 -0.1748 -0.5714
  760MOL0     C  199   3.889   2.069  10.485 -0.2129  0.2524  0.1223
  760MOL0     C  200   3.944   1.922  10.473 -0.3500  0.0501  0.2634
  760MOL0     C  201   3.894   1.836  10.597 -0.6529 -1.1423  0.5278
  760MOL0     C  202   3.755   1.795  10.592 -0.6402  0.1898 -0.4547
  760MOL0     C  203   3.727   1.698  10.709 -0.3730 -0.6702  0.6186
  760MOL0     C  204   3.573   1.663  10.734 -0.5146 -0.1974  0.2179
  760MOL0     N  205   3.534   1.567  10.632  0.0912  0.1002  0.3689
  760MOL0     C  206   3.446   1.581  10.525  0.2931  0.7329 -0.2822
  760MOL0     C  207   3.428   1.450  10.481 -0.2186  0.6785  0.2317
  760MOL0     C  208   3.330   1.395  10.372  0.5488 -0.6199 -0.0571
  760MOL0     C  209   3.232   1.276  10.407  0.6176  0.3107  0.9042
  760MOL0     C  210   3.133   1.262  10.296  0.1925 -0.5307  0.2918
  760MOL0     C  211   3.048   1.131  10.293 -0.6869  0.7478 -0.9142
  760MOL0     O  212   2.959   1.133  10.181 -0.1262  0.6329 -0.7912
  760MOL0     C  213   2.867   1.030  10.183  0.0265 -0.2897 -0.7649
  760MOL0     C  214   2.887   0.905  10.250  0.2143 -0.2586  0.1907
  760MOL0     C  215   2.786   0.809  10.236  0.3882  0.6083  0.1942
  760MOL0     C  216   2.667   0.837  10.166 -0.6774  0.1596  0.0839
  760MOL0     C  217   2.555   0.740  10.172  0.6599 -1.0843 -0.8889
  760MOL0     O  218   2.431   0.778  10.129  0.3661 -0.9230 -0.1023
  760MOL0     C  219   2.347   0.672  10.102  0.2815 -0.6044  1.1264
  760MOL0     C  220   2.342   0.608   9.981 -0.3297 -1.7337  1.0468
  760MOL0     C  221   2.255   0.502   9.961  0.7287 -1.0628  0.9988
  760MOL0     C  222   2.166   0.461  10.059  0.3119 -0.7661  0.0225
  760MOL0     O  223   2.085   0.351  10.033  0.4302 -0.2500  0.1741
  760MOL0     C  224   2.107   0.247  10.126 -0.1251  0.1655  0.0762
  760MOL0     C  225   2.001   0.134  10.113  0.5192 -0.2564 -0.1367
  760MOL0     C  226   1.852   0.181  10.123 -0.1447  0.2742  0.4865
  760MOL0     C  227   1.760   0.078  10.185  0.6328  0.0438 -0.1291
  760MOL0     C  228   1.628   0.074  10.109 -0.0171 -0.2611  0.3681
  760MOL0     C  229   1.513   0.005  10.177 -0.0594 -0.2888 -0.6689
  760MOL0     C  230   1.377   0.024  10.103 -0.6026 -0.7740  0.3330
  760MOL0     C  231   1.259  -0.042  10.186 -0.2857 -0.3746  0.7010
  760MOL0    Cl  232   1.107  -0.027  10.091 -0.0999  0.2860  0.1066
  760MOL0     C  233   2.166   0.523  10.178  0.0316  0.2112  0.4673
  760MOL0     C  234   2.252   0.632  10.195 -0.4140 -1.0591 -0.0533
  760MOL0     O  235   2.579   0.627  10.220 -0.8282 -0.2545  0.6204
  760MOL0     C  236   2.646   0.962  10.105 -0.3192 -1.4483 -0.9647
  760MOL0     C  237   2.752   1.057  10.107  0.6275 -0.0672 -0.3788
  760MOL0     N  238   3.528   1.376  10.555 -0.1964 -0.1158  0.1912
  760MOL0     N  239   3.583   1.439  10.647 -0.3510 -0.5392 -0.4521
  760MOL0     C  240   3.597   2.459  10.263  0.0902  0.0144  0.0705
  760MOL0     C  241   3.534   2.580  10.228  0.2656 -0.3140  0.5235
  760MOL0     C  242   3.422   2.933   9.969  0.0881  0.7685 -0.1137
  760MOL0     C  243   3.476   3.048  10.026  0.0776 -0.9322 -0.0874
  760MOL0     C  244   3.419   3.174   9.991 -0.4361  0.2632 -0.8315
  760MOL0     C  245   3.309   3.195   9.907 -0.0386  1.5604  0.9279
  760MOL0     O  246   3.246   3.317   9.879 -0.4153  0.0393  0.1083
  760MOL0     C  247   3.308   3.441   9.919  0.4844  0.7662 -0.2672
  760MOL0     C  248   3.260   3.472  10.058  0.7420 -0.7133 -0.7461
  760MOL0     C  249   3.326   3.601  10.112 -0.0568  0.5476 -0.2821
  760MOL0     C  250   3.464   3.582  10.187  0.1436 -0.2152  0.1318
  760MOL0     C  251   3.575   3.525  10.111  0.0333 -0.5745  0.9055
  760MOL0     C  252   3.668   3.484  10.046 -0.0290  0.0269  0.1018
  760MOL0     C  253   3.254   3.073   9.852 -0.4210  0.0481 -0.8630
  760MOL0     C  254   3.307   2.947   9.881  0.0635 -0.2762 -0.0658
  760MOL0     H  255   3.764   2.693   9.997  0.6975  1.2972  0.9678
  760MOL0     H  256   3.867   2.477  10.044  1.5190  1.7894 -0.1831
  760MOL0     H  257   3.744   2.262  10.425 -0.3152 -0.9659 -0.1619
  760MOL0     H  258   3.886   2.350  10.406  0.7158 -1.6634  0.4993
  760MOL0     H  259   4.004   2.151  10.330  0.9205 -0.6519  2.6857
  760MOL0     H  260   3.848   2.079  10.271 -0.6016 -2.2066  1.2094
  760MOL0     H  261   3.780   2.071  10.486 -0.4658  0.9550 -4.7355
  760MOL0     H  262   3.937   2.124  10.566 -0.0418 -1.3580  1.1576
  760MOL0     H  263   3.936   1.883  10.371  0.3345  0.5340  0.0150
  760MOL0     H  264   4.052   1.935  10.486 -0.2405 -0.8804  0.3562
  760MOL0     H  265   3.899   1.895  10.689  0.3373  0.5011 -0.5319
  760MOL0     H  266   3.961   1.751  10.611  1.4570  0.6180  1.6630
  760MOL0     H  267   3.746   1.742  10.497  2.6915  0.1717 -0.8844
  760MOL0     H  268   3.679   1.873  10.592 -0.3331  0.4960 -0.2253
  760MOL0     H  269   3.785   1.607  10.695 -1.9027 -1.5128 -0.5564
  760MOL0     H  270   3.769   1.750  10.795 -0.1070  1.8556 -0.9049
  760MOL0     H  271   3.523   1.760  10.737 -2.4119 -1.1011 -0.2086
  760MOL0     H  272   3.564   1.614  10.832  1.6188  0.5504  0.8531
  760MOL0     H  273   3.382   1.666  10.501 -1.3668 -0.6395 -0.9056
  760MOL0     H  274   3.388   1.363  10.286  2.0387  0.9859  0.3027
  760MOL0     H  275   3.268   1.480  10.342 -0.7367 -1.0392  1.2408
  760MOL0     H  276   3.189   1.298  10.505  1.1134  1.1675  0.9359
  760MOL0     H  277   3.281   1.180  10.424  1.0833  0.6368  1.4207
  760MOL0     H  278   3.062   1.345  10.295 -1.8310 -2.1611 -0.4279
  760MOL0     H  279   3.178   1.262  10.196 -0.0408  0.1892  0.1819
  760MOL0     H  280   2.977   1.123  10.376 -0.6959 -2.9276 -1.1418
  760MOL0     H  281   3.124   1.053  10.299 -0.4410  0.6139 -4.2985
  760MOL0     H  282   2.978   0.891  10.308  0.0687 -0.0109  0.4822
  760MOL0     H  283   2.781   0.717  10.293 -0.5500  0.9034  0.6189
  760MOL0     H  284   2.414   0.633   9.903 -1.0275 -1.0920  0.5985
  760MOL0     H  285   2.269   0.449   9.867 -1.1255 -0.8932  0.5846
  760MOL0     H  286   2.108   0.269  10.233  0.7709 -4.1113  1.1538
  760MOL0     H  287   2.204   0.207  10.097 -1.0368 -1.3420 -1.0952
  760MOL0     H  288   2.029   0.059  10.188  0.0615 -2.1958 -1.7956
  760MOL0     H  289   2.009   0.088  10.013 -3.4040  0.1094 -0.7662
  760MOL0     H  290   1.827   0.208  10.020 -0.9566 -0.5277  0.4539
  760MOL0     H  291   1.855   0.274  10.181  2.2228 -0.6077  1.9285
  760MOL0     H  292   1.802  -0.022  10.190 -0.6992 -0.8308 -3.5694
  760MOL0     H  293   1.743   0.099  10.291  2.7855  0.4517  0.1774
  760MOL0     H  294   1.654   0.030  10.012  0.4780  3.4268 -1.3131
  760MOL0     H  295   1.602   0.179  10.094  0.8034  0.2650  2.3034
  760MOL0     H  296   1.499   0.060  10.270 -0.6892  0.6041 -1.2677
  760MOL0     H  297   1.541  -0.100  10.178 -1.2773 -0.6447  1.6312
  760MOL0     H  298   1.351   0.130  10.101  1.0501 -0.1973  3.3576
  760MOL0     H  299   1.380   0.001   9.996  0.8353 -2.0886  0.6238
  760MOL0     H  300   1.260   0.009  10.283 -0.7015 -1.8431  1.4968
  760MOL0     H  301   1.276  -0.144  10.221 -0.9371 -1.3544 -1.6580
  760MOL0     H  302   2.104   0.501  10.264 -0.5410 -2.7041 -0.5750
  760MOL0     H  303   2.247   0.677  10.294  1.9221 -0.7389 -0.0326
  760MOL0     H  304   2.553   0.994  10.059 -0.8800 -1.0438  0.4213
  760MOL0     H  305   2.739   1.135  10.033 -0.3641 -2.3351 -2.7432
  760MOL0     H  306   3.551   2.391  10.335 -2.0756  0.1193 -1.1212
  760MOL0     H  307   3.435   2.607  10.264 -1.7353 -2.6091 -2.7770
  760MOL0     H  308   3.559   3.060  10.095  1.8812  3.6790 -2.6008
  760MOL0     H  309   3.465   3.264  10.032 -2.0229  2.1434 -2.8992
  760MOL0     H  310   3.261   3.521   9.861 -0.1813  1.1573  0.7948
  760MOL0     H  311   3.415   3.433   9.898  1.1848 -0.4864  3.1739
  760MOL0     H  312   3.151   3.488  10.053  0.6222 -0.5823  1.2841
  760MOL0     H  313   3.263   3.390  10.130 -0.0763  1.2234  1.6316
  760MOL0     H  314   3.263   3.642  10.192  0.9355 -0.9152  1.3218
  760MOL0     H  315   3.334   3.678  10.034  0.6254  0.3276 -0.4321
  760MOL0     H  316   3.484   3.682  10.228  3.0383 -1.9217  3.4631
  760MOL0     H  317   3.443   3.514  10.269 -2.9596  1.6426  1.0618
  760MOL0     H  318   3.748   3.447   9.984 -1.0302 -0.0980 -1.1480
  760MOL0     H  319   3.166   3.070   9.788 -0.9090  1.8398 -0.3336
  760MOL0     H  320   3.241   2.868   9.846 -1.2889 -0.6265  2.9565
  761MOL0     O  321   1.403   7.896   5.667  0.5230 -0.8907 -0.0087
  761MOL0     C  322   1.364   7.847   5.773 -0.6910  0.0034 -0.1201
  761MOL0     O  323   1.277   7.913   5.862 -0.2794 -0.4700 -0.6686
  761MOL0     C  324   1.192   8.015   5.827  0.3782 -0.2230  0.8600
  761MOL0     C  325   1.153   8.101   5.934  1.1576  0.1520  0.6833
  761MOL0     C  326   1.088   8.230   5.921 -0.4191  0.4164  1.1317
  761MOL0     C  327   1.058   8.267   5.782 -0.2463 -0.3363 -0.5177
  761MOL0     O  328   0.994   8.381   5.752 -0.3440 -0.6229  0.1527
  761MOL0     C  329   1.052   8.504   5.811 -0.2494 -0.4851  0.6664
  761MOL0     C  330   1.121   8.597   5.711  0.1075 -0.1496 -0.2382
  761MOL0     C  331   1.216   8.531   5.614  0.1476  0.9127 -0.6694
  761MOL0     C  332   1.347   8.455   5.674 -0.1841 -0.2634 -0.6933
  761MOL0     C  333   1.409   8.364   5.577  0.3670  0.3715 -0.2285
  761MOL0     C  334   1.452   8.447   5.455  0.2104  0.4059  0.0354
  761MOL0     C  335   1.585   8.520   5.473  0.5853  0.1397  0.6637
  761MOL0     C  336   1.634   8.595   5.351  0.5095 -0.2270 -0.1112
  761MOL0     N  337   1.776   8.641   5.353 -0.1632  0.4927  0.7629
  761MOL0     C  338   1.891   8.562   5.325  0.2352 -0.3104  0.0759
  761MOL0     C  339   1.998   8.651   5.342  0.2870  0.7147 -0.4287
  761MOL0     C  340   2.143   8.620   5.338 -0.8092  0.1912 -0.0995
  761MOL0     C  341   2.184   8.482   5.379  0.3066  1.3651  0.2287
  761MOL0     C  342   2.336   8.468   5.380  0.9333  0.0779 -0.2880
  761MOL0     C  343   2.409   8.451   5.244  0.0911 -0.8922  0.4621
  761MOL0     O  344   2.552   8.502   5.251  0.3163 -0.0036  0.4281
  761MOL0     C  345   2.619   8.519   5.134 -0.7364 -0.2173  0.1771
  761MOL0     C  346   2.701   8.634   5.119  0.1821 -0.9809 -0.1711
  761MOL0     C  347   2.778   8.656   5.000 -0.0535  0.4700 -0.1420
  761MOL0     C  348   2.779   8.562   4.893 -0.1222  0.3410  0.6699
  761MOL0     C  349   2.867   8.569   4.775  0.5617 -1.1017  0.0535
  761MOL0     O  350   2.968   8.660   4.780 -0.2144 -0.6222 -0.2491
  761MOL0     C  351   3.033   8.704   4.664  0.2945  0.2337 -0.2157
  761MOL0     C  352   2.966   8.801   4.590  0.0432 -1.1028 -0.3916
  761MOL0     C  353   3.036   8.860   4.485 -0.6545 -0.7311 -0.2772
  761MOL0     C  354   3.172   8.830   4.455  0.4878 -0.2612 -1.4066
  761MOL0     O  355   3.225   8.898   4.349  0.7736  0.2005  0.1551
  761MOL0     C  356   3.339   8.836   4.293  0.2321  0.1343  0.5786
  761MOL0     C  357   3.479   8.877   4.357  0.3870  0.1519 -0.2517
  761MOL0     C  358   3.597   8.868   4.264 -0.4936  0.4259  0.0828
  761MOL0     C  359   3.598   8.987   4.156 -0.0311 -0.4169 -0.1813
  761MOL0     C  360   3.737   9.007   4.079  0.4760 -0.1511 -0.6165
  761MOL0     C  361   3.864   9.027   4.160 -1.0549  0.2397  0.0060
  761MOL0     C  362   3.975   9.075   4.074  0.8773  0.4162 -0.5460
  761MOL0     C  363   4.098   9.127   4.148 -0.2523  0.6992  0.4019
  761MOL0    Cl  364   4.173   8.980   4.215 -0.0523  0.3428 -0.2906
  761MOL0     C  365   3.235   8.723   4.530  0.5075  0.9361 -0.2056
  761MOL0     C  366   3.162   8.657   4.631  0.1884 -0.0641 -0.1044
  761MOL0     O  367   2.827   8.513   4.672 -0.0666  0.3436 -0.3371
  761MOL0     C  368   2.694   8.455   4.904 -0.0513 -0.4504  0.3347
  761MOL0     C  369   2.615   8.434   5.024 -0.0216  0.3021  0.7646
  761MOL0     N  370   1.940   8.768   5.388  0.1341  0.4821 -0.7125
  761MOL0     N  371   1.814   8.769   5.388  1.0939  0.2227 -0.1506
  761MOL0     C  372   1.087   8.181   5.679 -0.5791  0.7893 -0.3652
  761MOL0     C  373   1.147   8.056   5.704  0.2060  0.0622  0.7443
  761MOL0     C  374   1.420   7.713   5.813  0.0150  0.2350  0.2056
  761MOL0     C  375   1.511   7.638   5.732 -0.3006  1.3375  0.1541
  761MOL0     C  376   1.565   7.523   5.788  1.0994  0.1784 -0.1433
  761MOL0     C  377   1.537   7.475   5.917 -1.1397 -0.0598  0.7979
  761MOL0     O  378   1.592   7.358   5.952  0.4426 -0.5541 -0.0095
  761MOL0     C  379   1.555   7.293   6.083 -0.2561 -0.3137 -0.8709
  761MOL0     C  380   1.655   7.173   6.108  0.4307  0.9452 -0.0517
  761MOL0     C  381   1.607   7.095   6.224  0.1231  0.3594  0.2052
  761MOL0     C  382   1.691   6.961   6.238 -0.7607 -0.5885  0.0024
  761MOL0     C  383   1.665   6.887   6.367 -0.5439  0.1867  0.9227
  761MOL0     C  384   1.658   6.801   6.456 -0.8495  0.4552 -0.5737
  761MOL0     C  385   1.437   7.538   5.991  0.2646  0.5126  0.2773
  761MOL0     C  386   1.387   7.660   5.945  0.2088  0.2182  0.6627
  761MOL0     H  387   1.172   8.067   6.035 -1.3457 -2.7461  0.3339
  761MOL0     H  388   1.052   8.293   6.002 -0.5093  2.0613 -0.1271
  761MOL0     H  389   1.129   8.477   5.883 -0.3354  0.2321  1.0272
  761MOL0     H  390   0.977   8.563   5.863  2.9759  2.9455  1.8065
  761MOL0     H  391   1.165   8.671   5.778 -0.5333  1.4994 -1.5624
  761MOL0     H  392   1.047   8.654   5.653  1.8021 -1.0788 -3.5562
  761MOL0     H  393   1.257   8.607   5.546 -0.8068 -0.2317 -2.6148
  761MOL0     H  394   1.150   8.473   5.549 -2.6025  3.9025 -0.7893
  761MOL0     H  395   1.420   8.526   5.712 -0.0606 -1.7127  2.0365
  761MOL0     H  396   1.312   8.392   5.756  1.6060 -1.3647 -0.7160
  761MOL0     H  397   1.330   8.296   5.542  1.2478  0.1945 -1.9431
  761MOL0     H  398   1.495   8.312   5.620  0.0454  1.3723  1.7617
  761MOL0     H  399   1.372   8.511   5.415 -0.7044 -0.9676 -0.4186
  761MOL0     H  400   1.447   8.368   5.380  0.5983 -0.5979  1.0436
  761MOL0     H  401   1.565   8.582   5.561 -0.3706 -0.3627  0.8165
  761MOL0     H  402   1.659   8.442   5.493 -0.1723 -1.6484 -2.6971
  761MOL0     H  403   1.575   8.684   5.328  2.9867  1.8513  1.0683
  761MOL0     H  404   1.621   8.530   5.264 -3.5094 -0.0149  0.1299
  761MOL0     H  405   1.918   8.462   5.295 -1.3475  0.2403 -3.8762
  761MOL0     H  406   2.199   8.692   5.399  0.7489 -0.2500 -0.9458
  761MOL0     H  407   2.190   8.626   5.239  0.6216 -1.1530  0.4520
  761MOL0     H  408   2.148   8.402   5.315  1.0146  0.5224  0.8555
  761MOL0     H  409   2.144   8.465   5.479  0.4161 -0.3139  0.0218
  761MOL0     H  410   2.382   8.547   5.440  0.0104 -1.1497  2.1972
  761MOL0     H  411   2.359   8.384   5.446  2.6554  1.2053  0.6128
  761MOL0     H  412   2.351   8.495   5.163  0.4862 -1.2899 -0.0417
  761MOL0     H  413   2.423   8.343   5.229  1.0867 -0.5803 -1.0968
  761MOL0     H  414   2.704   8.707   5.198 -1.1418  2.1682 -2.7859
  761MOL0     H  415   2.835   8.748   4.999  1.9019 -0.6705 -1.3792
  761MOL0     H  416   2.864   8.831   4.616 -0.0181 -2.0231  0.5060
  761MOL0     H  417   2.987   8.937   4.426 -0.8360 -0.0447  0.7584
  761MOL0     H  418   3.348   8.864   4.187  3.1206 -2.1145  0.1118
  761MOL0     H  419   3.318   8.729   4.290  0.0089  0.0523  3.2369
  761MOL0     H  420   3.499   8.805   4.437  0.0727  0.6554  0.2892
  761MOL0     H  421   3.465   8.976   4.402  0.6217 -0.4169  1.1196
  761MOL0     H  422   3.592   8.762   4.236 -0.0866  0.1194  1.1115
  761MOL0     H  423   3.683   8.879   4.330 -1.3689  2.0191  1.0186
  761MOL0     H  424   3.515   8.993   4.085  0.9647 -0.7816 -1.3999
  761MOL0     H  425   3.583   9.078   4.215  2.3315 -1.9511  3.1456
  761MOL0     H  426   3.726   9.107   4.037  1.1290  1.1966  2.1858
  761MOL0     H  427   3.743   8.939   3.993  0.9612 -1.2836  0.2840
  761MOL0     H  428   3.900   8.932   4.201 -0.7845 -0.1552 -1.0946
  761MOL0     H  429   3.844   9.088   4.248  1.7301 -1.0206  1.6505
  761MOL0     H  430   4.017   9.000   4.006 -1.0444  0.5187 -1.9196
  761MOL0     H  431   3.945   9.154   4.005  1.5978 -3.2614 -5.6015
  761MOL0     H  432   4.065   9.207   4.215  4.9168  2.5210  1.1712
  761MOL0     H  433   4.171   9.168   4.078  3.3328 -1.8161  2.3220
  761MOL0     H  434   3.333   8.680   4.515 -0.4300 -3.3236  3.7224
  761MOL0     H  435   3.203   8.575   4.689 -0.2272  0.0571  0.3637
  761MOL0     H  436   2.679   8.382   4.825 -3.8336 -1.4040  1.7415
  761MOL0     H  437   2.550   8.348   5.036  2.2125 -1.5545  0.2287
  761MOL0     H  438   1.063   8.217   5.579 -3.3067  1.3041  0.3954
  761MOL0     H  439   1.182   7.999   5.618  2.2024 -1.3222  2.3954
  761MOL0     H  440   1.522   7.667   5.628  1.1904 -0.7278 -0.3434
  761MOL0     H  441   1.642   7.469   5.733  1.3590  1.2634 -0.8669
  761MOL0     H  442   1.451   7.260   6.081 -0.3206 -0.4719  1.6259
  761MOL0     H  443   1.564   7.362   6.167 -1.7940 -0.3559 -0.6450
  761MOL0     H  444   1.657   7.104   6.024 -2.9180 -1.5116  1.6302
  761MOL0     H  445   1.750   7.224   6.124 -0.0167  2.0061 -0.6712
  761MOL0     H  446   1.505   7.056   6.208  0.1009  0.5054 -0.0162
  761MOL0     H  447   1.614   7.142   6.322  0.7096  0.3440  0.1723
  761MOL0     H  448   1.663   6.887   6.163  2.0704 -1.5535 -0.2206
  761MOL0     H  449   1.798   6.978   6.218  0.5722 -6.0423  0.9124
  761MOL0     H  450   1.661   6.734   6.540  1.0936  0.2899 -0.7280
  761MOL0     H  451   1.402   7.506   6.088  0.3731  0.4863  0.3084
  761MOL0     H  452   1.317   7.708   6.012  2.3881  1.0725  2.4412
  762MOL0     O  453   0.774   7.132   4.951  1.1573  0.0043 -0.1841
  762MOL0     C  454   0.736   7.016   4.986  0.4247  0.2756  0.7138
  762MOL0     O  455   0.615   6.965   4.956 -0.5728  0.3124  0.0357
  762MOL0     C  456   0.528   7.012   4.862 -0.7365 -0.7510 -0.3639
  762MOL0     C  457   0.454   6.917   4.784  0.1071  1.1888  0.3314
  762MOL0     C  458   0.354   6.959   4.697 -0.1306 -0.9798 -0.0120
  762MOL0     C  459   0.334   7.096   4.668  0.7092 -0.0742 -0.3347
  762MOL0     O  460   0.250   7.126   4.563 -0.1549 -0.4985 -0.8542
  762MOL0     C  461   0.209   7.262   4.552  0.4522  0.1870  0.4168
  762MOL0     C  462   0.115   7.262   4.434  0.0877  0.0737 -0.3868
  762MOL0     C  463  -0.022   7.193   4.450 -0.2581 -0.0448  0.1931
  762MOL0     C  464  -0.108   7.246   4.567  1.0647  0.6078  0.7527
  762MOL0     C  465  -0.266   7.241   4.535  0.2130 -0.0365 -0.0642
  762MOL0     C  466  -0.338   7.339   4.617  0.3349 -0.1447 -0.9179
  762MOL0     C  467  -0.483   7.354   4.572 -0.7467 -0.7957 -0.3509
  762MOL0     C  468  -0.562   7.247   4.633  0.7315 -0.2653  0.0087
  762MOL0     N  469  -0.698   7.244   4.572 -0.4867  0.0722  0.2728
  762MOL0     C  470  -0.802   7.333   4.601 -0.6943  0.0718 -0.5053
  762MOL0     C  471  -0.902   7.308   4.512 -0.1489  0.1453 -0.5462
  762MOL0     C  472  -1.017   7.399   4.503  0.5804 -0.5640 -0.1324
  762MOL0     C  473  -1.141   7.394   4.600 -0.1012 -0.5414  0.0255
  762MOL0     C  474  -1.141   7.273   4.699  0.4237  0.3295  0.2812
  762MOL0     C  475  -1.173   7.140   4.627 -0.0461  0.2095 -0.4924
  762MOL0     O  476  -1.228   7.049   4.723 -0.5017 -0.4226  0.4287
  762MOL0     C  477  -1.357   7.054   4.771 -0.1205 -0.2994  0.1136
  762MOL0     C  478  -1.384   7.030   4.913 -0.8150 -1.1285  0.1003
  762MOL0     C  479  -1.516   7.038   4.957  0.3635 -0.1984 -1.2926
  762MOL0     C  480  -1.622   7.061   4.879 -0.0492  0.8960 -1.4190
  762MOL0     C  481  -1.767   7.056   4.931 -0.7242 -0.4844 -0.0473
  762MOL0     O  482  -1.777   7.051   5.070  0.7642  0.0325  0.2843
  762MOL0     C  483  -1.902   7.061   5.133 -1.1351 -0.2560 -0.1836
  762MOL0     C  484  -1.965   6.948   5.189  0.1297 -0.0002 -0.6347
  762MOL0     C  485  -2.088   6.958   5.250 -0.2277 -0.7789 -0.5079
  762MOL0     C  486  -2.141   7.087   5.265 -0.8036 -0.9873 -0.6196
  762MOL0     O  487  -2.260   7.115   5.328  0.1172  0.1975 -0.5951
  762MOL0     C  488  -2.287   7.066   5.460  0.1333 -0.1899  0.3044
  762MOL0     C  489  -2.437   7.051   5.474  0.6320 -0.3610 -0.3385
  762MOL0     C  490  -2.485   7.028   5.615  0.1780 -0.1794 -0.0530
  762MOL0     C  491  -2.641   7.007   5.628 -0.5652 -0.3828  0.4453
  762MOL0     C  492  -2.726   7.109   5.542 -0.6465  0.9566  0.4022
  762MOL0     C  493  -2.878   7.080   5.571 -0.1655 -0.8510 -0.6455
  762MOL0     C  494  -2.961   7.193   5.517  0.0782  0.4477 -0.3870
  762MOL0     C  495  -3.119   7.163   5.524 -0.3215  0.4010 -0.4436
  762MOL0    Cl  496  -3.166   7.137   5.697  0.2607  0.5249 -0.4629
  762MOL0     C  497  -2.077   7.206   5.213 -0.0416  0.3342 -0.0216
  762MOL0     C  498  -1.962   7.188   5.141 -0.8892 -0.6404 -0.3681
  762MOL0     O  499  -1.861   7.064   4.854 -0.0453  0.1507  0.4403
  762MOL0     C  500  -1.598   7.081   4.742 -0.5694  0.5414  0.2258
  762MOL0     C  501  -1.469   7.077   4.688  0.4818  0.1348 -0.0529
  762MOL0     N  502  -0.864   7.212   4.433  0.4629  0.4296 -0.1425
  762MOL0     N  503  -0.735   7.172   4.462  0.0879  0.1793 -0.6628
  762MOL0     C  504   0.418   7.190   4.736  0.4431 -0.2349  0.6640
  762MOL0     C  505   0.500   7.150   4.839  0.7791 -0.5115  0.0500
  762MOL0     C  506   0.835   6.924   5.046 -0.4878  0.6137  1.0061
  762MOL0     C  507   0.826   6.786   5.038  0.1899  0.2394  0.6723
  762MOL0     C  508   0.924   6.697   5.086  0.1240  0.4650  0.2279
  762MOL0     C  509   1.041   6.749   5.135 -0.5186 -0.1606 -0.5520
  762MOL0     O  510   1.154   6.676   5.169 -0.2881 -0.2429 -0.0649
  762MOL0     C  511   1.160   6.533   5.151  0.4713  0.1019 -0.6556
  762MOL0     C  512   1.192   6.489   5.007 -0.2690  1.1388 -0.4203
  762MOL0     C  513   1.310   6.544   4.942 -0.2579 -0.4187 -0.1544
  762MOL0     C  514   1.333   6.489   4.801  0.5806 -0.2140 -0.2242
  762MOL0     C  515   1.453   6.548   4.744  0.9574  0.3529 -0.4837
  762MOL0     C  516   1.537   6.614   4.685 -0.4171  0.2654  0.1011
  762MOL0     C  517   1.051   6.892   5.147 -0.7330  0.4099  0.9298
  762MOL0     C  518   0.952   6.974   5.102  0.3005 -0.1094 -0.0191
  762MOL0     H  519   0.465   6.811   4.804  4.3743  0.7877 -2.6595
  762MOL0     H  520   0.287   6.883   4.657 -1.7864  0.2706  0.2803
  762MOL0     H  521   0.297   7.323   4.533  0.9661 -0.0737  1.8827
  762MOL0     H  522   0.147   7.283   4.639 -0.8577 -1.3127 -0.0902
  762MOL0     H  523   0.166   7.233   4.342  1.0767  1.5214 -0.3346
  762MOL0     H  524   0.081   7.365   4.419  0.0694  0.1132 -0.0747
  762MOL0     H  525   0.010   7.090   4.469  0.7241  0.0598 -0.8053
  762MOL0     H  526  -0.082   7.208   4.360  0.4962  2.0723 -0.0205
  762MOL0     H  527  -0.102   7.192   4.662 -0.4254 -0.3294  0.3411
  762MOL0     H  528  -0.080   7.347   4.598 -0.4977 -0.2120  5.6944
  762MOL0     H  529  -0.292   7.136   4.549 -2.1627  0.6717  1.3230
  762MOL0     H  530  -0.278   7.274   4.431 -0.7231  3.5798  1.0447
  762MOL0     H  531  -0.288   7.436   4.613 -0.3489  0.5307  3.0000
  762MOL0     H  532  -0.338   7.316   4.724  2.1330  3.2409 -0.0581
  762MOL0     H  533  -0.505   7.458   4.600  0.0028 -0.8738  0.5923
  762MOL0     H  534  -0.474   7.356   4.463  0.6852 -0.8200 -0.2549
  762MOL0     H  535  -0.559   7.259   4.742  2.4978 -3.8600  0.4799
  762MOL0     H  536  -0.508   7.154   4.617  1.2475  0.3789 -2.4529
  762MOL0     H  537  -0.803   7.428   4.655 -0.7948  0.8188 -1.7780
  762MOL0     H  538  -1.058   7.378   4.404  0.7929 -0.7830 -0.1753
  762MOL0     H  539  -0.981   7.502   4.497 -1.4983  0.1168 -2.8058
  762MOL0     H  540  -1.236   7.399   4.546  0.3781  1.1556 -0.7114
  762MOL0     H  541  -1.139   7.482   4.666 -0.5854  1.6308 -2.6979
  762MOL0     H  542  -1.043   7.266   4.747 -0.5408 -0.0482  2.3249
  762MOL0     H  543  -1.217   7.281   4.777 -0.2616 -0.8127 -0.2491
  762MOL0     H  544  -1.084   7.106   4.572  0.6994  0.0979  0.7489
  762MOL0     H  545  -1.241   7.158   4.544  0.1771 -1.8819 -1.2071
  762MOL0     H  546  -1.308   6.996   4.982 -1.7587  1.0931  2.3977
  762MOL0     H  547  -1.522   7.032   5.066 -0.9340  2.0473 -1.1775
  762MOL0     H  548  -1.934   6.844   5.179 -2.8743 -1.3365  2.0993
  762MOL0     H  549  -2.126   6.862   5.285  0.7520 -2.0288 -2.6453
  762MOL0     H  550  -2.251   7.138   5.535  0.1382  0.1718 -0.0410
  762MOL0     H  551  -2.249   6.965   5.480  2.6441 -0.0605 -3.1184
  762MOL0     H  552  -2.485   6.976   5.410 -1.5529 -3.4960  4.4294
  762MOL0     H  553  -2.477   7.147   5.438  0.6222 -0.5975 -0.9817
  762MOL0     H  554  -2.460   7.123   5.664  0.1805  0.8311 -1.9167
  762MOL0     H  555  -2.426   6.948   5.661  1.0764 -0.6466 -1.9077
  762MOL0     H  556  -2.655   6.904   5.595  0.1335 -0.1212 -0.7494
  762MOL0     H  557  -2.679   7.010   5.730  0.2041 -1.3699  0.7778
  762MOL0     H  558  -2.707   7.094   5.435  3.3485 -2.3912  1.3267
  762MOL0     H  559  -2.707   7.215   5.565 -0.5783  1.2331 -0.8427
  762MOL0     H  560  -2.884   7.088   5.680 -0.3807  1.7922 -0.7963
  762MOL0     H  561  -2.910   6.982   5.534  1.0902 -1.4826 -0.1224
  762MOL0     H  562  -2.941   7.290   5.564 -1.7895  0.6554  0.0407
  762MOL0     H  563  -2.955   7.209   5.409 -0.9102  1.5417 -0.3050
  762MOL0     H  564  -3.137   7.065   5.480  2.3880 -1.6961  2.6259
  762MOL0     H  565  -3.170   7.250   5.482 -3.9208  0.9233  4.1765
  762MOL0     H  566  -2.122   7.304   5.218  0.2440  0.7265 -2.9876
  762MOL0     H  567  -1.916   7.272   5.089  1.2840 -1.5319 -0.0058
  762MOL0     H  568  -1.686   7.102   4.682 -1.0768 -2.3574 -0.1779
  762MOL0     H  569  -1.459   7.113   4.586 -1.5098  1.3449  0.1246
  762MOL0     H  570   0.417   7.296   4.709  1.7848 -0.5445 -0.7716
  762MOL0     H  571   0.556   7.223   4.896  2.8633 -2.2669  0.3661
  762MOL0     H  572   0.748   6.730   4.988  1.1914  0.6863 -1.5130
  762MOL0     H  573   0.911   6.589   5.090  5.0832 -0.7578 -4.2364
  762MOL0     H  574   1.062   6.490   5.173 -1.0803  2.6398 -2.1498
  762MOL0     H  575   1.228   6.496   5.228  0.0981  0.7847  0.0148
  762MOL0     H  576   1.222   6.383   5.010 -1.7528  0.6884 -0.9300
  762MOL0     H  577   1.108   6.507   4.941  0.7559  5.0717 -0.9226
  762MOL0     H  578   1.399   6.526   5.003  0.8444  2.2476 -0.8464
  762MOL0     H  579   1.301   6.652   4.930  1.3684 -0.2151  0.2693
  762MOL0     H  580   1.342   6.380   4.809  1.6823 -0.2413 -1.4736
  762MOL0     H  581   1.249   6.518   4.738  1.1007  0.1830 -0.7480
  762MOL0     H  582   1.591   6.690   4.632  0.6677  1.6301  2.9515
  762MOL0     H  583   1.136   6.944   5.189  0.0404 -0.3306  0.3138
  762MOL0     H  584   0.963   7.081   5.114 -2.0888 -0.0724  3.4664
  763MOL0     O  585   8.359   9.480   8.634  0.0222 -0.2650 -0.6461
  763MOL0     C  586   8.352   9.479   8.756 -0.0662 -0.0533 -0.2466
  763MOL0     O  587   8.246   9.518   8.828 -0.0118 -0.7956  0.4564
  763MOL0     C  588   8.126   9.567   8.774  0.4696 -0.0813 -0.0605
  763MOL0     C  589   8.095   9.593   8.638  0.5635  0.8777  0.0854
  763MOL0     C  590   7.972   9.659   8.612 -1.0264 -0.2649  0.7989
  763MOL0     C  591   7.882   9.696   8.712  0.7627 -0.9498 -0.0895
  763MOL0     O  592   7.756   9.752   8.676 -0.1273  0.1980  0.4171
  763MOL0     C  593   7.659   9.740   8.772  0.9303  0.1646  0.3116
  763MOL0     C  594   7.517   9.731   8.701  1.2212 -0.6451 -0.0164
  763MOL0     C  595   7.393   9.782   8.779  0.1834  0.3805 -0.7098
  763MOL0     C  596   7.346   9.680   8.889 -0.5041 -0.0883 -0.1128
  763MOL0     C  597   7.207   9.719   8.936  0.8265  0.6046  0.1911
  763MOL0     C  598   7.214   9.856   9.013  0.1374  0.1988 -0.2797
  763MOL0     C  599   7.082   9.896   9.079 -0.6494 -0.5352 -0.4213
  763MOL0     C  600   7.080  10.038   9.118  0.8536  0.4252 -0.1203
  763MOL0     N  601   6.950  10.093   9.164  0.2277  0.3693  0.1531
  763MOL0     C  602   6.829  10.073   9.098 -0.1602  1.0698  0.5777
  763MOL0     C  603   6.735  10.146   9.169  0.5890  0.1385  0.6201
  763MOL0     C  604   6.586  10.170   9.143  0.2150  1.0873  0.2281
  763MOL0     C  605   6.532  10.313   9.155  0.4506  0.7084  0.3087
  763MOL0     C  606   6.590  10.389   9.044  0.0738 -0.5748  0.4600
  763MOL0     C  607   6.600  10.534   9.092  0.3452 -0.1339  0.3700
  763MOL0     O  608   6.675  10.621   8.998 -0.5503  1.2844 -0.0658
  763MOL0     C  609   6.809  10.592   8.988 -0.8480 -0.0483 -0.1127
  763MOL0     C  610   6.900  10.522   9.075  0.1247  0.8254  0.3259
  763MOL0     C  611   7.029  10.486   9.041  0.7983  0.0675 -0.0134
  763MOL0     C  612   7.082  10.521   8.923 -0.4808 -0.0021  0.9026
  763MOL0     C  613   7.230  10.491   8.881  0.0022  0.4616  0.1228
  763MOL0     O  614   7.297  10.395   8.959  0.3929 -0.5747 -0.0970
  763MOL0     C  615   7.432  10.375   8.938  0.4910  0.4111  0.1784
  763MOL0     C  616   7.469  10.241   8.938 -0.7815  0.5357  0.3484
  763MOL0     C  617   7.611  10.211   8.908  0.2611 -0.0051 -0.5022
  763MOL0     C  618   7.705  10.313   8.892  0.3831 -0.3159 -0.3603
  763MOL0     O  619   7.830  10.269   8.849  0.1045  0.0526  0.1835
  763MOL0     C  620   7.940  10.353   8.897 -0.5187 -0.1286  0.1086
  763MOL0     C  621   8.078  10.320   8.842  0.2116 -0.5739 -0.6539
  763MOL0     C  622   8.097  10.172   8.861  0.0163 -0.4083  0.0487
  763MOL0     C  623   8.240  10.151   8.831  0.5011 -0.4751  0.7698
  763MOL0     C  624   8.284  10.007   8.847 -0.3596 -0.5754 -0.1008
  763MOL0     C  625   8.302   9.965   8.992  0.4025  0.8101 -0.9051
  763MOL0     C  626   8.364   9.816   8.999 -0.5104 -0.4642  0.3544
  763MOL0     C  627   8.515   9.813   8.973  0.2087  0.9050  0.0999
  763MOL0    Cl  628   8.598   9.880   9.132 -0.2438 -0.1566 -0.0855
  763MOL0     C  629   7.653  10.449   8.889  0.0307 -0.0254 -0.4473
  763MOL0     C  630   7.520  10.485   8.915  0.4235 -0.3625  0.9941
  763MOL0     O  631   7.270  10.534   8.771 -0.1913  0.0401 -0.1242
  763MOL0     C  632   7.001  10.600   8.834 -0.7297 -0.5605  0.3796
  763MOL0     C  633   6.878  10.631   8.875 -0.3448  0.7104  0.3865
  763MOL0     N  634   6.802  10.193   9.281 -0.3160  0.0844 -0.1325
  763MOL0     N  635   6.927  10.162   9.269 -0.7026 -0.3255 -0.0247
  763MOL0     C  636   7.921   9.675   8.848 -1.2921 -0.7072 -0.0214
  763MOL0     C  637   8.042   9.606   8.872 -0.0899 -0.7288 -0.2366
  763MOL0     C  638   8.462   9.427   8.836 -0.4872  0.6579  0.7299
  763MOL0     C  639   8.592   9.423   8.782  0.1649 -0.1138 -0.3320
  763MOL0     C  640   8.702   9.379   8.856  0.1344  0.3589 -0.5311
  763MOL0     C  641   8.687   9.334   8.986 -0.0638  0.8443 -1.3977
  763MOL0     O  642   8.784   9.291   9.065 -0.7770  0.5593 -0.1134
  763MOL0     C  643   8.919   9.305   9.022  0.1184 -0.4260 -0.2598
  763MOL0     C  644   8.997   9.263   9.146  0.2375 -0.1052 -0.1996
  763MOL0     C  645   9.027   9.390   9.233 -0.2842  1.2738  0.4885
  763MOL0     C  646   9.133   9.366   9.331 -0.2042 -0.7294 -0.7733
  763MOL0     C  647   9.138   9.482   9.426 -1.1491  0.5143  0.6346
  763MOL0     C  648   9.131   9.562   9.521  0.0968  0.7303  0.1332
  763MOL0     C  649   8.555   9.338   9.040 -0.4749  0.4485 -0.5414
  763MOL0     C  650   8.444   9.375   8.964 -0.1796 -0.3557  0.1637
  763MOL0     H  651   8.161   9.562   8.557  1.5464  1.6350  0.5803
  763MOL0     H  652   7.949   9.688   8.509 -1.4962  0.7636  1.1694
  763MOL0     H  653   7.668   9.827   8.838 -1.8269  0.3405  0.5709
  763MOL0     H  654   7.656   9.650   8.836 -1.4949 -0.3714 -0.4207
  763MOL0     H  655   7.496   9.635   8.654  0.1202 -1.1211  1.3837
  763MOL0     H  656   7.521   9.800   8.616 -0.1948  1.0075  1.1787
  763MOL0     H  657   7.319   9.808   8.703 -1.2569 -2.2100 -0.3185
  763MOL0     H  658   7.428   9.870   8.833  0.9602 -0.9397  1.0354
  763MOL0     H  659   7.341   9.574   8.860 -3.5225 -1.0666  3.2560
  763MOL0     H  660   7.414   9.687   8.974  0.0069 -1.6760 -0.3397
  763MOL0     H  661   7.183   9.640   9.008  4.6866 -2.5844 -1.5779
  763MOL0     H  662   7.139   9.743   8.854  2.9324  4.7653 -0.6010
  763MOL0     H  663   7.244   9.929   8.938  0.4421 -0.7716 -1.1333
  763MOL0     H  664   7.290   9.850   9.091 -2.5271  2.9223  2.8462
  763MOL0     H  665   6.994   9.889   9.014 -1.3516  0.8543  0.3373
  763MOL0     H  666   7.071   9.833   9.168 -0.5774 -1.0581 -0.7797
  763MOL0     H  667   7.115  10.100   9.036  1.4026 -0.6519 -0.7216
  763MOL0     H  668   7.153  10.044   9.199 -1.2988 -2.1179  2.2351
  763MOL0     H  669   6.801  10.008   9.015  0.0202 -2.0760  2.7875
  763MOL0     H  670   6.530  10.106   9.212 -1.4664  3.4835  1.2450
  763MOL0     H  671   6.553  10.136   9.044 -1.6973  0.3548  1.0646
  763MOL0     H  672   6.551  10.357   9.253  0.0317  0.0399  0.6970
  763MOL0     H  673   6.424  10.307   9.140  0.8234 -0.3636 -2.7452
  763MOL0     H  674   6.689  10.353   9.013 -0.3286  0.6949 -2.7051
  763MOL0     H  675   6.528  10.384   8.954  0.0998  0.8139  0.3426
  763MOL0     H  676   6.660  10.532   9.184 -1.0261 -1.5152  1.2828
  763MOL0     H  677   6.504  10.583   9.110  1.4097  1.7473  1.2593
  763MOL0     H  678   6.872  10.493   9.175  1.1940 -2.3409 -0.1931
  763MOL0     H  679   7.090  10.425   9.108 -1.7358  0.5836  3.0066
  763MOL0     H  680   7.404  10.156   8.956 -0.1694 -0.3767 -1.5198
  763MOL0     H  681   7.648  10.109   8.908  1.1021  0.2310 -3.0917
  763MOL0     H  682   7.959  10.341   9.004  0.3065 -0.1055 -0.0284
  763MOL0     H  683   7.933  10.459   8.868  1.0535 -0.3832 -1.3795
  763MOL0     H  684   8.158  10.376   8.891 -1.0227  0.8100 -0.1378
  763MOL0     H  685   8.082  10.352   8.738  1.1525 -0.5532 -0.6197
  763MOL0     H  686   8.037  10.112   8.793  0.2538  0.5820 -1.0756
  763MOL0     H  687   8.075  10.136   8.962 -2.0787 -1.8935 -0.8748
  763MOL0     H  688   8.250  10.177   8.726 -0.0011 -2.9438  0.0332
  763MOL0     H  689   8.306  10.214   8.892  2.5220 -0.1571 -1.5638
  763MOL0     H  690   8.383   9.999   8.802 -0.3127  4.3590 -1.5104
  763MOL0     H  691   8.210   9.952   8.787 -1.0849  1.9722 -1.7206
  763MOL0     H  692   8.206   9.955   9.044  1.3524 -4.0000  0.4377
  763MOL0     H  693   8.361  10.036   9.051 -0.3859 -1.2307  2.6245
  763MOL0     H  694   8.344   9.771   9.097 -0.3418 -1.2318  0.0445
  763MOL0     H  695   8.302   9.765   8.924 -1.4983  3.8585 -2.0964
  763MOL0     H  696   8.551   9.878   8.893 -0.1648  0.4271 -0.4622
  763MOL0     H  697   8.562   9.715   8.960  2.8250  1.6586  2.8231
  763MOL0     H  698   7.723  10.529   8.867 -0.6305  0.6594 -0.1099
  763MOL0     H  699   7.470  10.580   8.911 -0.3193 -0.7970 -1.4782
  763MOL0     H  700   7.046  10.641   8.744  0.3409 -1.2562  0.5762
  763MOL0     H  701   6.808  10.674   8.804 -2.8699  0.3902  2.5266
  763MOL0     H  702   7.860   9.694   8.936  0.1856 -2.8820  1.5906
  763MOL0     H  703   8.068   9.591   8.977  0.1418  0.8956 -0.0216
  763MOL0     H  704   8.604   9.450   8.677  1.0397  0.7155 -0.0339
  763MOL0     H  705   8.795   9.379   8.801 -0.0359  1.1234 -0.8329
  763MOL0     H  706   8.936   9.404   8.981 -0.7450 -1.3174 -2.9365
  763MOL0     H  707   8.941   9.234   8.942 -1.5385 -1.5307  0.2111
  763MOL0     H  708   8.941   9.185   9.198 -1.7343 -0.1849 -2.2617
  763MOL0     H  709   9.084   9.205   9.114  0.2418  0.6707 -1.6832
  763MOL0     H  710   8.928   9.404   9.277 -1.2801  0.2344 -1.3273
  763MOL0     H  711   9.065   9.469   9.168  1.1606 -0.6045 -1.0750
  763MOL0     H  712   9.116   9.276   9.391 -2.1553  1.5688  2.3861
  763MOL0     H  713   9.226   9.365   9.274 -0.1635 -0.6910 -0.7071
  763MOL0     H  714   9.123   9.635   9.598 -3.1200  1.0611 -0.3813
  763MOL0     H  715   8.544   9.301   9.142 -0.3557 -2.2173 -1.4127
  763MOL0     H  716   8.339   9.368   8.993 -0.2633  0.4059  0.0457
  764MOL0     O  717  10.507  10.261   0.179  0.0662 -0.0137  0.1031
  764MOL0     C  718  10.488  10.185   0.267 -1.0208  0.0448 -0.7949
  764MOL0     O  719  10.373  10.129   0.292  0.9217 -0.3671  0.5588
  764MOL0     C  720  10.265  10.134   0.209 -1.3020 -0.0606 -0.7656
  764MOL0     C  721  10.211  10.011   0.178  0.9192  0.4592  0.3726
  764MOL0     C  722  10.095  10.004   0.102 -0.5104  0.4014  0.1501
  764MOL0     C  723  10.050  10.112   0.036  0.6598 -0.2597  0.1302
  764MOL0     O  724   9.941  10.109  -0.046 -0.0342  0.1575 -1.3288
  764MOL0     C  725   9.826  10.135   0.031  0.1381 -0.3734 -0.2811
  764MOL0     C  726   9.711  10.165  -0.065 -0.6048 -0.1294 -0.4857
  764MOL0     C  727   9.640  10.041  -0.131 -0.4011 -0.7887  0.5182
  764MOL0     C  728   9.558  10.086  -0.251 -0.5936 -0.4335  0.2786
  764MOL0     C  729   9.469   9.958  -0.299  0.0241  0.3314  0.4963
  764MOL0     C  730   9.321   9.984  -0.257 -0.8087  0.2479 -0.0868
  764MOL0     C  731   9.230   9.871  -0.322  0.3924  0.4988 -0.5344
  764MOL0     C  732   9.096   9.864  -0.248  0.2974 -0.0598 -0.6750
  764MOL0     N  733   9.121   9.819  -0.114 -0.0889 -0.4105  0.2373
  764MOL0     C  734   9.209   9.716  -0.072  0.5348 -0.1659  0.2587
  764MOL0     C  735   9.224   9.736   0.062 -0.4342 -0.7305  0.3609
  764MOL0     C  736   9.312   9.651   0.155  0.1266  0.1272 -0.9258
  764MOL0     C  737   9.378   9.736   0.269 -0.8727  0.2436 -0.5198
  764MOL0     C  738   9.477   9.838   0.205  0.3824  0.4806  0.0411
  764MOL0     C  739   9.553   9.906   0.316  0.3128  0.4664 -1.0345
  764MOL0     O  740   9.660   9.830   0.358 -0.5017 -0.0187 -0.9510
  764MOL0     C  741   9.750   9.891   0.440 -0.1978  1.3093 -0.2225
  764MOL0     C  742   9.720   9.974   0.545  0.3379  0.5643 -0.1287
  764MOL0     C  743   9.811  10.017   0.644  0.3371 -0.0232  0.7905
  764MOL0     C  744   9.947   9.994   0.620 -0.2951 -0.4865 -0.7985
  764MOL0     C  745  10.050  10.024   0.720 -1.2172  0.2971 -0.5233
  764MOL0     O  746  10.163   9.953   0.721 -0.1003 -0.0834  0.2461
  764MOL0     C  747  10.266   9.988   0.800 -0.1412  0.2688  0.3034
  764MOL0     C  748  10.345  10.098   0.771 -0.0633  0.0651 -0.0732
  764MOL0     C  749  10.467  10.117   0.837  0.3791  0.6971 -0.0305
  764MOL0     C  750  10.514  10.030   0.935 -0.4572 -0.3770  0.0576
  764MOL0     O  751  10.635  10.052   1.001 -0.5567  0.7572 -0.3944
  764MOL0     C  752  10.739  10.136   0.945  0.4978 -0.1207  0.3486
  764MOL0     C  753  10.881  10.107   0.999 -0.4906 -0.5877 -0.1407
  764MOL0     C  754  10.936   9.960   0.997  0.8439  1.0213  0.0360
  764MOL0     C  755  11.055   9.952   1.089  0.4028 -0.4506 -0.0260
  764MOL0     C  756  11.153   9.837   1.065  0.7430  0.1267  0.8124
  764MOL0     C  757  11.300   9.870   1.072 -0.3908  1.6997  0.2192
  764MOL0     C  758  11.356   9.849   1.213  0.9040  0.5008  0.4556
  764MOL0     C  759  11.508   9.839   1.221 -0.0025  0.6742 -0.0251
  764MOL0    Cl  760  11.565   9.681   1.145 -0.2486 -0.5158 -0.0973
  764MOL0     C  761  10.429   9.926   0.973 -0.6271  0.6909  0.3484
  764MOL0     C  762  10.301   9.909   0.908  0.9581  0.4318  0.4542
  764MOL0     O  763  10.021  10.104   0.802 -0.1308 -1.2152 -0.3696
  764MOL0     C  764   9.984   9.913   0.508 -0.0067  0.4200 -1.5469
  764MOL0     C  765   9.885   9.862   0.419 -0.1381 -0.1677 -0.3841
  764MOL0     N  766   9.155   9.847   0.095  1.6047  0.2650 -1.0523
  764MOL0     N  767   9.087   9.890  -0.004  0.1811  0.4010  0.6181
  764MOL0     C  768  10.106  10.233   0.056 -0.3785 -0.2904 -1.1355
  764MOL0     C  769  10.220  10.243   0.141  0.7386  0.2364 -0.0677
  764MOL0     C  770  10.599  10.148   0.360 -0.0362  0.1339 -0.5132
  764MOL0     C  771  10.728  10.191   0.333 -0.9029 -0.5696  0.1938
  764MOL0     C  772  10.838  10.156   0.416  0.3963  0.0561  0.0441
  764MOL0     C  773  10.815  10.077   0.528 -0.5560 -0.7169  0.1716
  764MOL0     O  774  10.920  10.043   0.618  0.5596 -0.6789  0.1424
  764MOL0     C  775  11.040  10.125   0.611  0.1166  0.9668 -0.1486
  764MOL0     C  776  11.152  10.061   0.690  0.8492 -0.8937 -0.4065
  764MOL0     C  777  11.209   9.940   0.625 -0.5482  0.5067  0.3647
  764MOL0     C  778  11.263   9.949   0.476 -0.9420 -0.1440  0.4231
  764MOL0     C  779  11.322   9.825   0.416 -0.6989 -0.3291  0.4876
  764MOL0     C  780  11.361   9.737   0.344  0.0889 -0.2879  0.4699
  764MOL0     C  781  10.690  10.029   0.548  0.7603  0.1607 -0.9128
  764MOL0     C  782  10.578  10.055   0.467 -0.3232  0.8992 -0.7077
  764MOL0     H  783  10.264   9.924   0.214  0.1050 -0.1889  0.0306
  764MOL0     H  784  10.053   9.907   0.079 -1.9300  1.0739 -0.2064
  764MOL0     H  785   9.838  10.215   0.105  0.3813 -1.5284  0.9828
  764MOL0     H  786   9.795  10.042   0.080 -4.4833  0.1883 -1.6516
  764MOL0     H  787   9.756  10.217  -0.150  2.8586 -3.6663 -1.1386
  764MOL0     H  788   9.637  10.217  -0.004  0.0873  1.3836 -0.9061
  764MOL0     H  789   9.566  10.000  -0.062 -3.1779  0.2390 -1.6261
  764MOL0     H  790   9.716   9.969  -0.162 -0.0471  0.5649 -2.0726
  764MOL0     H  791   9.509  10.178  -0.218  2.2426  0.0377  3.7408
  764MOL0     H  792   9.628  10.116  -0.330 -1.4069 -0.3998 -0.4481
  764MOL0     H  793   9.487   9.869  -0.239 -2.7244 -0.0499  0.9075
  764MOL0     H  794   9.478   9.951  -0.408 -0.5542 -0.2670  0.4847
  764MOL0     H  795   9.278  10.081  -0.282 -2.4048 -0.0780  1.1686
  764MOL0     H  796   9.309   9.980  -0.148 -3.9861 -0.2382 -0.3694
  764MOL0     H  797   9.223   9.859  -0.430 -1.6907 -1.5374 -0.2378
  764MOL0     H  798   9.283   9.778  -0.303 -1.9341 -0.7453  0.2208
  764MOL0     H  799   9.029   9.793  -0.298 -2.6285  2.3593 -0.5081
  764MOL0     H  800   9.055   9.965  -0.252  0.6453  0.0463 -2.1055
  764MOL0     H  801   9.259   9.644  -0.136  2.1433  0.8717  0.2939
  764MOL0     H  802   9.387   9.599   0.094  1.5669 -0.8497  1.5172
  764MOL0     H  803   9.237   9.579   0.188 -0.7193  1.0248 -0.8478
  764MOL0     H  804   9.420   9.669   0.345  0.9338 -3.0305 -4.0220
  764MOL0     H  805   9.299   9.797   0.312 -0.9721 -0.1811 -0.0925
  764MOL0     H  806   9.554   9.789   0.146 -0.2184  0.7232 -0.9709
  764MOL0     H  807   9.422   9.908   0.142  1.5625  1.0563 -0.3673
  764MOL0     H  808   9.493   9.926   0.405  0.7308  0.4644 -0.7466
  764MOL0     H  809   9.596  10.000   0.279  1.8259 -0.2309 -1.1236
  764MOL0     H  810   9.615   9.985   0.570 -0.4568 -1.2936 -2.2669
  764MOL0     H  811   9.780  10.056   0.741  3.1431  1.2986  1.2811
  764MOL0     H  812  10.328  10.166   0.688  0.0872 -1.7501 -1.6573
  764MOL0     H  813  10.528  10.199   0.801  2.6252 -0.5684  0.6470
  764MOL0     H  814  10.718  10.241   0.963 -4.1725 -0.5705 -1.1371
  764MOL0     H  815  10.746  10.119   0.837  0.8644  1.3673  0.1250
  764MOL0     H  816  10.898  10.139   1.103  0.3018  3.8554 -1.4192
  764MOL0     H  817  10.947  10.171   0.941  0.4347 -1.9545 -0.6339
  764MOL0     H  818  10.965   9.930   0.896 -0.7365  2.3137 -0.8627
  764MOL0     H  819  10.855   9.893   1.028 -0.4847  2.7502  0.4612
  764MOL0     H  820  11.121  10.037   1.064  1.0155 -1.1465 -0.8376
  764MOL0     H  821  11.027   9.963   1.194  1.4533 -0.7582  0.3006
  764MOL0     H  822  11.133   9.809   0.961  1.4201 -0.1934  0.7612
  764MOL0     H  823  11.123   9.750   1.124  0.9060 -0.5113 -0.0226
  764MOL0     H  824  11.309   9.975   1.044 -1.9334  2.6128  2.7848
  764MOL0     H  825  11.366   9.807   1.011 -1.4603  0.3849  0.3763
  764MOL0     H  826  11.319   9.922   1.286  1.3368  2.3923 -1.1429
  764MOL0     H  827  11.312   9.755   1.248 -2.9939  0.8364 -2.8188
  764MOL0     H  828  11.513   9.838   1.331  2.3883 -1.6622 -0.0665
  764MOL0     H  829  11.556   9.930   1.184 -1.6870  2.8799  2.7790
  764MOL0     H  830  10.461   9.867   1.058  2.7710  2.5306  0.5204
  764MOL0     H  831  10.246   9.820   0.936  1.0222 -1.4110 -4.4023
  764MOL0     H  832  10.087   9.891   0.481 -0.2729 -1.4808 -1.1041
  764MOL0     H  833   9.925   9.795   0.344  2.6592  1.2572 -0.2805
  764MOL0     H  834  10.080  10.327   0.008  0.4458 -0.0315 -1.1016
  764MOL0     H  835  10.267  10.341   0.139 -0.1204  0.6505 -1.4638
  764MOL0     H  836  10.757  10.250   0.246 -1.1915 -0.3911  0.2194
  764MOL0     H  837  10.931  10.199   0.382  0.1405  0.1857 -0.5017
  764MOL0     H  838  11.024  10.228   0.644  1.2961  0.5313  1.9962
  764MOL0     H  839  11.076  10.127   0.508 -0.3287  2.1844 -0.2997
  764MOL0     H  840  11.230  10.137   0.705 -0.5401  0.6992 -0.9396
  764MOL0     H  841  11.120  10.026   0.789  1.4792  1.9221  0.8961
  764MOL0     H  842  11.125   9.870   0.619 -1.0874  1.2835 -2.3865
  764MOL0     H  843  11.290   9.912   0.694 -1.4648  0.9048  1.6424
  764MOL0     H  844  11.181   9.970   0.406 -1.9408 -1.2137  1.2295
  764MOL0     H  845  11.346  10.020   0.477 -0.8235 -0.2842  0.4403
  764MOL0     H  846  11.405   9.665   0.279 -1.0164 -0.3574 -0.2181
  764MOL0     H  847  10.687   9.966   0.636 -0.4875  2.7210  0.9705
  764MOL0     H  848  10.484  10.005   0.487  1.2493 -2.1722 -0.4105
  765MOL0     O  849   0.347   2.716  10.521 -0.7107 -0.1437 -0.4677
  765MOL0     C  850   0.327   2.819  10.585 -0.4883  0.4144 -0.7182
  765MOL0     O  851   0.238   2.822  10.692 -0.4343 -0.5115 -0.4151
  765MOL0     C  852   0.167   2.701  10.719 -0.6537 -0.3160 -0.4968
  765MOL0     C  853   0.033   2.695  10.681 -0.2026 -1.1994  1.3143
  765MOL0     C  854  -0.050   2.584  10.702  0.1366 -0.2864  0.1036
  765MOL0     C  855   0.008   2.478  10.778 -0.5608 -0.3542 -0.5072
  765MOL0     O  856  -0.069   2.382  10.833 -0.1780  0.7873 -0.5104
  765MOL0     C  857  -0.045   2.249  10.776  0.0305 -0.0032  0.3058
  765MOL0     C  858  -0.139   2.145  10.830 -0.4904  0.9197 -0.2438
  765MOL0     C  859  -0.286   2.194  10.842 -0.1478 -0.7391  0.0712
  765MOL0     C  860  -0.352   2.226  10.709 -0.5747  0.8109 -0.3328
  765MOL0     C  861  -0.479   2.301  10.729  0.6965 -0.6388 -0.1691
  765MOL0     C  862  -0.579   2.215  10.800 -0.1919 -0.0397  0.5849
  765MOL0     C  863  -0.722   2.269  10.813  0.0612 -0.6041 -0.6085
  765MOL0     C  864  -0.812   2.173  10.884 -0.8082 -0.2425  0.3132
  765MOL0     N  865  -0.938   2.229  10.943  0.0135 -0.0190  0.9045
  765MOL0     C  866  -1.038   2.299  10.870  0.2556  0.3948 -0.6673
  765MOL0     C  867  -1.111   2.352  10.979  0.4867  1.0665  0.1665
  765MOL0     C  868  -1.246   2.412  10.978 -0.7574 -0.1698  0.3153
  765MOL0     C  869  -1.337   2.330  11.069 -0.3654 -0.9474  0.5112
  765MOL0     C  870  -1.485   2.368  11.051  0.7040  1.2075  0.4661
  765MOL0     C  871  -1.546   2.317  10.918  0.2226 -0.3101 -0.9306
  765MOL0     O  872  -1.692   2.330  10.913  1.0784  1.2621 -0.3736
  765MOL0     C  873  -1.756   2.243  10.820  0.3263  0.6741 -0.1041
  765MOL0     C  874  -1.685   2.175  10.715 -0.6572  0.4037 -0.8792
  765MOL0     C  875  -1.754   2.104  10.626 -0.0269  0.0229  0.9753
  765MOL0     C  876  -1.895   2.111  10.624  0.4450 -1.2332  0.6704
  765MOL0     C  877  -1.963   2.040  10.511 -0.8964 -1.1781 -0.1939
  765MOL0     O  878  -2.093   2.021  10.527 -0.2455 -0.0468  0.0510
  765MOL0     C  879  -2.165   1.940  10.439 -0.6321 -0.6231 -0.9511
  765MOL0     C  880  -2.122   1.817  10.400  0.9245  0.7530 -0.4924
  765MOL0     C  881  -2.204   1.734  10.319  0.2144  0.0420 -0.2969
  765MOL0     C  882  -2.315   1.785  10.261  0.4234 -0.0680  0.2624
  765MOL0     O  883  -2.379   1.698  10.181 -0.0088  0.1154  0.4386
  765MOL0     C  884  -2.460   1.746  10.070 -0.5391 -0.5634  0.3974
  765MOL0     C  885  -2.603   1.756  10.140  1.0017  0.1113  0.5356
  765MOL0     C  886  -2.690   1.818  10.030  0.4032  0.2629 -0.2744
  765MOL0     C  887  -2.839   1.812  10.084  0.1247  0.9590 -0.1097
  765MOL0     C  888  -2.941   1.824   9.972 -0.3412 -0.4971  0.0911
  765MOL0     C  889  -3.079   1.817  10.025 -0.0531 -0.4254 -0.2391
  765MOL0     C  890  -3.182   1.863   9.921  0.6330 -0.0295  0.2816
  765MOL0     C  891  -3.210   1.760   9.812 -0.2123 -0.7943  0.4817
  765MOL0    Cl  892  -3.359   1.820   9.727  0.0366 -0.0651 -0.3376
  765MOL0     C  893  -2.352   1.916  10.287  0.2228  0.1455  0.3947
  765MOL0     C  894  -2.282   1.989  10.385 -0.1465 -1.0748  0.3301
  765MOL0     O  895  -1.894   2.011  10.407 -0.0587 -0.0112 -0.4684
  765MOL0     C  896  -1.969   2.176  10.724  0.1091  0.5734 -0.2741
  765MOL0     C  897  -1.896   2.227  10.826 -0.1982 -0.0887 -0.3133
  765MOL0     N  898  -1.055   2.307  11.095 -0.8288  1.1694  0.4958
  765MOL0     N  899  -0.952   2.234  11.079  0.5011  0.9932 -0.2670
  765MOL0     C  900   0.138   2.493  10.829  0.3640 -0.2483 -0.4052
  765MOL0     C  901   0.222   2.598  10.792  0.4346 -0.2165  0.6793
  765MOL0     C  902   0.413   2.949  10.582  0.2512  0.2240 -0.6144
  765MOL0     C  903   0.396   3.053  10.667 -0.9261  1.0269 -0.4372
  765MOL0     C  904   0.465   3.170  10.658  0.4183 -0.2359  0.7638
  765MOL0     C  905   0.561   3.190  10.559 -0.5142  0.8397  0.1469
  765MOL0     O  906   0.633   3.308  10.539 -0.0803  0.3007 -0.2934
  765MOL0     C  907   0.636   3.412  10.639 -1.0987  0.0866  0.3935
  765MOL0     C  908   0.702   3.382  10.773 -0.4709  0.1378 -0.1982
  765MOL0     C  909   0.846   3.348  10.752  0.3476  0.1808 -0.0464
  765MOL0     C  910   0.936   3.333  10.882 -0.7122 -0.1262  0.1281
  765MOL0     C  911   0.959   3.463  10.955 -0.7040 -0.3023 -0.7850
  765MOL0     C  912   0.972   3.558  11.031  0.2090  0.0882  0.3729
  765MOL0     C  913   0.582   3.084  10.465 -0.1412 -0.0728 -0.1591
  765MOL0     C  914   0.498   2.967  10.476 -1.0864 -0.6661  0.0665
  765MOL0     H  915  -0.011   2.771  10.619 -1.3964 -3.4120 -0.7182
  765MOL0     H  916  -0.156   2.581  10.677  0.2383 -1.1421 -0.2716
  765MOL0     H  917   0.056   2.219  10.804  0.5377  1.2925 -0.0453
  765MOL0     H  918  -0.045   2.248  10.666  1.1681 -0.3955  0.2983
  765MOL0     H  919  -0.116   2.118  10.934  2.0857 -2.6580 -1.5404
  765MOL0     H  920  -0.131   2.042  10.794 -0.9914  0.8074 -0.0499
  765MOL0     H  921  -0.291   2.285  10.903 -1.7239 -0.2954 -0.6638
  765MOL0     H  922  -0.341   2.119  10.899  1.1879 -2.4611 -0.8090
  765MOL0     H  923  -0.286   2.286  10.645  1.4876  2.9941  3.4997
  765MOL0     H  924  -0.371   2.133  10.655 -4.3361  1.9660 -1.2400
  765MOL0     H  925  -0.518   2.319  10.628 -0.8907  2.0451  0.7909
  765MOL0     H  926  -0.461   2.402  10.769  0.2839 -0.2534 -0.9202
  765MOL0     H  927  -0.547   2.204  10.904  0.5534 -0.4904  0.3177
  765MOL0     H  928  -0.572   2.113  10.761  1.4946  0.8539 -1.6606
  765MOL0     H  929  -0.709   2.368  10.858  1.3503 -0.7899 -0.5545
  765MOL0     H  930  -0.765   2.290  10.715  2.3826 -0.8779 -1.7298
  765MOL0     H  931  -0.754   2.119  10.959 -1.5191 -1.0504  0.3014
  765MOL0     H  932  -0.838   2.099  10.808  0.8169 -2.0132  1.4150
  765MOL0     H  933  -1.050   2.316  10.763  0.3765  1.0749 -0.5768
  765MOL0     H  934  -1.295   2.407  10.880  0.6909 -0.6503 -0.4293
  765MOL0     H  935  -1.241   2.513  11.019 -1.2978 -1.2537  3.2447
  765MOL0     H  936  -1.296   2.361  11.166  2.0323  3.4550 -1.5763
  765MOL0     H  937  -1.324   2.222  11.070 -1.7169 -1.1462  2.1825
  765MOL0     H  938  -1.541   2.306  11.122  0.9294  0.3552 -0.0859
  765MOL0     H  939  -1.505   2.474  11.070  1.6542  1.4927 -0.0357
  765MOL0     H  940  -1.520   2.211  10.914 -1.5317 -1.0510  2.6027
  765MOL0     H  941  -1.505   2.380  10.839  3.4093 -1.2200 -0.1572
  765MOL0     H  942  -1.578   2.174  10.695 -1.0710 -0.7544 -3.4033
  765MOL0     H  943  -1.692   2.051  10.554  2.0338  2.7155  0.6125
  765MOL0     H  944  -2.031   1.776  10.442  1.5340  1.2922 -1.2591
  765MOL0     H  945  -2.171   1.631  10.306  1.1361 -0.3579  3.8356
  765MOL0     H  946  -2.457   1.681   9.982  1.6652  0.3969 -0.3056
  765MOL0     H  947  -2.428   1.839  10.022 -1.5215  0.5084  1.7009
  765MOL0     H  948  -2.614   1.813  10.233 -1.9305 -0.6588  0.7555
  765MOL0     H  949  -2.637   1.654  10.158 -1.3303  1.1682  2.8140
  765MOL0     H  950  -2.673   1.765   9.937 -0.3935  1.9255 -1.4273
  765MOL0     H  951  -2.659   1.922  10.012 -2.7859  1.5092  0.5903
  765MOL0     H  952  -2.855   1.724  10.147 -0.7115  1.1086 -0.0963
  765MOL0     H  953  -2.870   1.897  10.146 -0.2072  0.6478  0.1517
  765MOL0     H  954  -2.915   1.748   9.898 -0.4611  1.0959 -1.6882
  765MOL0     H  955  -2.921   1.921   9.925  1.9526 -0.4768  0.9794
  765MOL0     H  956  -3.078   1.887  10.109 -1.1545  0.0894 -0.6302
  765MOL0     H  957  -3.106   1.721  10.069  0.7762  0.0136  1.2794
  765MOL0     H  958  -3.280   1.887   9.964  0.8000 -0.7618  1.0887
  765MOL0     H  959  -3.143   1.957   9.882 -1.5407  1.1492  0.7389
  765MOL0     H  960  -3.237   1.664   9.856 -3.3845  0.1991  1.0325
  765MOL0     H  961  -3.116   1.756   9.756  0.7677 -2.7840  2.1476
  765MOL0     H  962  -2.441   1.954  10.238 -0.9884 -1.9875  0.7987
  765MOL0     H  963  -2.299   2.096  10.391 -2.4960 -1.1554 -2.6516
  765MOL0     H  964  -2.076   2.161  10.732 -0.0127  1.5587  0.0634
  765MOL0     H  965  -1.940   2.268  10.916  0.0017  0.1713 -0.3319
  765MOL0     H  966   0.171   2.421  10.902 -3.0880 -0.8849  0.6628
  765MOL0     H  967   0.325   2.614  10.823 -0.1714 -0.5662  3.0777
  765MOL0     H  968   0.311   3.058  10.734  1.1210  1.9987  2.3026
  765MOL0     H  969   0.454   3.250  10.730  3.1910  2.5392 -1.5710
  765MOL0     H  970   0.529   3.432  10.652 -2.2266 -1.9826 -3.9555
  765MOL0     H  971   0.695   3.493  10.593 -0.0563 -0.9583 -0.1562
  765MOL0     H  972   0.691   3.472  10.834  0.1671 -1.5031  2.5240
  765MOL0     H  973   0.651   3.297  10.820 -3.0801  2.0306  0.6495
  765MOL0     H  974   0.881   3.433  10.692  0.9152  0.4084  0.5920
  765MOL0     H  975   0.852   3.255  10.695 -2.0952 -1.5310  2.2537
  765MOL0     H  976   0.884   3.257  10.940 -0.7352 -0.6567 -0.5822
  765MOL0     H  977   1.039   3.302  10.864 -0.7674  0.2619 -0.9379
  765MOL0     H  978   0.980   3.633  11.107  0.1768  0.5216 -0.0501
  765MOL0     H  979   0.642   3.095  10.375 -0.6234 -2.2835 -0.8273
  765MOL0     H  980   0.512   2.898  10.394  1.0430 -0.1848 -0.0400
  766MOL0     O  981   8.227   3.949  10.507  0.1229  0.5845  0.0154
  766MOL0     C  982   8.257   3.829  10.497  0.2973 -0.1207  0.2000
  766MOL0     O  983   8.217   3.741  10.591  0.4473 -0.0121  0.1625
  766MOL0     C  984   8.220   3.770  10.720 -0.3972 -0.0424 -0.9912
  766MOL0     C  985   8.148   3.687  10.806 -0.4685 -0.7750 -0.2485
  766MOL0     C  986   8.149   3.714  10.944 -0.0129  0.1081  0.4391
  766MOL0     C  987   8.204   3.833  10.993 -0.5673 -0.3301 -0.0756
  766MOL0     O  988   8.171   3.862  11.119 -0.1005  0.8007 -0.8108
  766MOL0     C  989   8.195   3.997  11.159  0.5829  0.0123  0.1700
  766MOL0     C  990   8.124   4.046  11.284  0.0465  0.2809  0.7636
  766MOL0     C  991   7.975   4.012  11.302 -0.3031 -0.4604  0.4153
  766MOL0     C  992   7.894   4.052  11.180 -0.4646 -0.0569 -0.5026
  766MOL0     C  993   7.744   4.083  11.216 -0.6189  0.3805  0.4539
  766MOL0     C  994   7.674   3.985  11.316  0.2118  0.3657  0.0700
  766MOL0     C  995   7.526   4.014  11.307 -0.4550  0.7477 -0.2264
  766MOL0     C  996   7.440   3.909  11.379  0.3520 -0.4362  0.5881
  766MOL0     N  997   7.296   3.927  11.344 -0.1521 -0.2409  0.6247
  766MOL0     C  998   7.210   3.850  11.272  0.3367 -0.5252  0.2965
  766MOL0     C  999   7.092   3.902  11.292  0.4628  0.9534  0.2251
  766MOL0     C 1000   6.966   3.826  11.258  0.1619 -0.0666  0.1744
  766MOL0     C 1001   6.922   3.879  11.111 -0.7667 -0.2985  0.6657
  766MOL0     C 1002   6.816   4.003  11.118  0.4975 -0.3111 -0.5466
  766MOL0     C 1003   6.686   3.982  11.204 -0.6806 -0.0676  1.1730
  766MOL0     O 1004   6.588   3.928  11.119 -0.1445 -0.0265  0.3496
  766MOL0     C 1005   6.537   4.013  11.016 -0.6247  0.1836  0.2073
  766MOL0     C 1006   6.455   4.129  11.039 -0.4202  0.6113 -0.3807
  766MOL0     C 1007   6.398   4.205  10.934 -0.2293 -0.1150 -0.0968
  766MOL0     C 1008   6.421   4.165  10.799 -0.0191 -1.1100 -0.4889
  766MOL0     C 1009   6.351   4.233  10.696 -0.0812 -0.5672 -0.3960
  766MOL0     O 1010   6.355   4.370  10.707 -0.4712  0.3196 -0.4560
  766MOL0     C 1011   6.345   4.443  10.594 -0.2073 -0.5353 -0.3214
  766MOL0     C 1012   6.228   4.432  10.517 -1.1203  0.2136  0.8409
  766MOL0     C 1013   6.218   4.500  10.396 -0.8220 -0.4677  0.1617
  766MOL0     C 1014   6.312   4.605  10.365 -0.7485  0.1450 -0.8406
  766MOL0     O 1015   6.287   4.697  10.263  0.2440  0.3150  0.9755
  766MOL0     C 1016   6.377   4.792  10.228 -0.4274  0.0256  0.1318
  766MOL0     C 1017   6.324   4.850  10.095 -0.1494  0.0663  0.4007
  766MOL0     C 1018   6.176   4.875  10.089  0.4059 -1.1291  0.7994
  766MOL0     C 1019   6.137   4.937   9.954  0.5782 -0.0643 -0.5441
  766MOL0     C 1020   5.980   4.960   9.948 -1.4868  0.7729  0.4420
  766MOL0     C 1021   5.943   5.044   9.824 -0.0700 -0.6501  0.3457
  766MOL0     C 1022   5.794   5.061   9.820 -0.5307  0.5277  0.3337
  766MOL0     C 1023   5.758   5.132   9.687 -0.8988 -0.3915 -0.6356
  766MOL0    Cl 1024   5.618   5.234   9.712 -0.3631 -0.1276  0.5783
  766MOL0     C 1025   6.430   4.611  10.445 -0.1541 -0.7590 -0.0357
  766MOL0     C 1026   6.449   4.531  10.555  0.1405  1.0227 -0.5361
  766MOL0     O 1027   6.319   4.170  10.597 -0.5781 -0.6234  0.3716
  766MOL0     C 1028   6.503   4.062  10.781  0.3374  0.3716  0.6551
  766MOL0     C 1029   6.560   3.985  10.885  0.4122  0.7802  0.9656
  766MOL0     N 1030   7.106   4.010  11.374  0.1104 -0.5858 -0.4410
  766MOL0     N 1031   7.226   4.022  11.406 -0.7268 -0.8103  0.0866
  766MOL0     C 1032   8.280   3.915  10.905  0.2627 -0.1817  0.4099
  766MOL0     C 1033   8.295   3.881  10.774 -0.4127 -0.1845  1.0262
  766MOL0     C 1034   8.334   3.786  10.380 -0.6737 -0.4451  1.0103
  766MOL0     C 1035   8.381   3.885  10.284  0.2830  0.1188  0.1165
  766MOL0     C 1036   8.482   3.850  10.193  0.3856  0.3540  0.1467
  766MOL0     C 1037   8.524   3.719  10.177 -0.3906  0.1793  0.6956
  766MOL0     O 1038   8.619   3.689  10.087  0.2138  0.8491 -0.6501
  766MOL0     C 1039   8.752   3.692  10.145 -0.4245  0.5402 -0.8691
  766MOL0     C 1040   8.819   3.829  10.124 -0.0912 -0.5982 -0.1960
  766MOL0     C 1041   8.971   3.829  10.165  0.5511  0.2717  0.6637
  766MOL0     C 1042   9.047   3.953  10.116  0.2540  0.4484 -0.2252
  766MOL0     C 1043   9.035   3.992   9.968  0.6475  0.2867  0.2547
  766MOL0     C 1044   9.034   4.027   9.851  0.0882 -0.7098 -0.1929
  766MOL0     C 1045   8.462   3.623  10.258 -0.7821 -0.5959  0.2578
  766MOL0     C 1046   8.375   3.656  10.358  0.4368  0.3591 -1.4400
  766MOL0     H 1047   8.103   3.598  10.763  0.6278 -1.8987  0.8832
  766MOL0     H 1048   8.101   3.647  11.014 -0.1933 -1.7570 -1.3787
  766MOL0     H 1049   8.168   4.070  11.082 -0.8288 -0.1385  0.5108
  766MOL0     H 1050   8.304   3.996  11.172  0.4616 -2.0767  1.5684
  766MOL0     H 1051   8.141   4.154  11.285  0.3997  0.2430 -0.3652
  766MOL0     H 1052   8.177   4.011  11.373 -0.5544  1.3836  1.5925
  766MOL0     H 1053   7.945   4.069  11.390  1.8894 -1.4531  1.8896
  766MOL0     H 1054   7.955   3.906  11.318  0.0363 -0.3132  1.9509
  766MOL0     H 1055   7.945   4.142  11.143  3.1914 -2.3813 -1.6594
  766MOL0     H 1056   7.903   3.982  11.096 -1.4393  1.5815 -2.0387
  766MOL0     H 1057   7.691   4.084  11.120 -0.7551 -3.5602  0.3535
  766MOL0     H 1058   7.734   4.184  11.256 -1.0761  1.3672 -1.9504
  766MOL0     H 1059   7.705   4.004  11.419 -2.2984  3.4889  0.4326
  766MOL0     H 1060   7.695   3.882  11.288 -1.7501 -0.3752  1.1802
  766MOL0     H 1061   7.503   4.113  11.349 -1.8021  0.2713  0.2154
  766MOL0     H 1062   7.498   3.999  11.202 -2.7276  1.2427  0.2653
  766MOL0     H 1063   7.457   3.902  11.486 -0.3248 -2.7975  0.6156
  766MOL0     H 1064   7.466   3.808  11.345 -1.3568 -1.0675  1.0550
  766MOL0     H 1065   7.230   3.758  11.218 -1.2617 -0.9068  0.3006
  766MOL0     H 1066   6.879   3.835  11.323  0.6436 -2.5371  1.2675
  766MOL0     H 1067   6.991   3.719  11.259  0.5917  0.0321  1.3023
  766MOL0     H 1068   6.885   3.800  11.046  2.2368 -0.8113 -0.6009
  766MOL0     H 1069   7.021   3.900  11.071  0.4237 -2.8734  1.9736
  766MOL0     H 1070   6.864   4.092  11.160  1.4096 -1.1938  0.3501
  766MOL0     H 1071   6.790   4.017  11.013 -2.4186 -1.0153 -0.0165
  766MOL0     H 1072   6.651   4.079  11.241 -1.6746 -0.9995  2.7703
  766MOL0     H 1073   6.710   3.912  11.284  2.3607 -0.3049  0.1683
  766MOL0     H 1074   6.426   4.157  11.140  1.1159  0.6888  0.0642
  766MOL0     H 1075   6.332   4.290  10.952 -2.0013 -0.7431 -3.0139
  766MOL0     H 1076   6.146   4.365  10.541 -0.8148 -0.6607 -0.4823
  766MOL0     H 1077   6.127   4.492  10.337 -0.8585  0.5705  0.0623
  766MOL0     H 1078   6.476   4.751  10.207 -0.5981  0.6581 -2.3043
  766MOL0     H 1079   6.380   4.874  10.300 -0.4553 -0.3027  0.5083
  766MOL0     H 1080   6.351   4.783  10.013 -1.3364  0.0869 -0.0385
  766MOL0     H 1081   6.378   4.945  10.090 -0.8016  0.3844 -1.4889
  766MOL0     H 1082   6.152   4.938  10.175  1.1690  1.7566 -0.9781
  766MOL0     H 1083   6.120   4.781  10.100  2.2282 -2.2349  1.2187
  766MOL0     H 1084   6.181   5.038   9.948 -1.3295  0.9231  0.9517
  766MOL0     H 1085   6.171   4.878   9.869  0.5588  1.4464 -1.6522
  766MOL0     H 1086   5.960   5.028  10.031  0.3896  0.2248  1.4051
  766MOL0     H 1087   5.922   4.867   9.950  0.4013 -0.5913 -1.8283
  766MOL0     H 1088   5.978   4.994   9.734  0.8998  1.5182 -0.5609
  766MOL0     H 1089   5.982   5.146   9.829 -0.6151 -0.2034 -2.6518
  766MOL0     H 1090   5.739   4.967   9.828 -0.0744  0.2291  0.0559
  766MOL0     H 1091   5.757   5.112   9.909  0.9485  0.3595  1.0649
  766MOL0     H 1092   5.753   5.057   9.607  1.3900 -2.1182  0.7053
  766MOL0     H 1093   5.843   5.194   9.657  0.4575 -1.7657  0.2284
  766MOL0     H 1094   6.507   4.686  10.438 -2.5992  1.9361  0.0334
  766MOL0     H 1095   6.543   4.532  10.610  0.9971 -0.5347 -1.8803
  766MOL0     H 1096   6.520   4.029  10.679 -2.3687  1.4682 -0.2502
  766MOL0     H 1097   6.619   3.895  10.866  0.8835  1.0730  1.0378
  766MOL0     H 1098   8.329   4.007  10.936  1.1132  0.0629 -1.5244
  766MOL0     H 1099   8.357   3.933  10.701 -1.4078 -1.3607 -0.7533
  766MOL0     H 1100   8.346   3.986  10.306 -1.4329 -0.1583 -1.1330
  766MOL0     H 1101   8.526   3.928  10.132 -2.3237  0.3241 -2.0650
  766MOL0     H 1102   8.817   3.634  10.079  0.8544  1.3985 -0.4247
  766MOL0     H 1103   8.769   3.661  10.249  0.5301 -1.5792 -1.5985
  766MOL0     H 1104   8.812   3.856  10.019 -1.6970 -1.7015 -0.4089
  766MOL0     H 1105   8.761   3.903  10.181 -0.6963 -1.5200  0.4240
  766MOL0     H 1106   9.025   3.744  10.120 -0.0698  0.1551  0.1250
  766MOL0     H 1107   8.986   3.821  10.273 -0.9780  0.8318  0.9309
  766MOL0     H 1108   9.025   4.043  10.175  0.0104  0.6507 -0.6205
  766MOL0     H 1109   9.151   3.923  10.130 -0.0368 -0.0767  0.9145
  766MOL0     H 1110   9.043   4.057   9.748 -2.0723 -0.8640 -0.4767
  766MOL0     H 1111   8.506   3.524  10.256  2.1153  0.4486  3.1625
  766MOL0     H 1112   8.325   3.588  10.427 -0.2438 -0.6057 -2.8505
  767MOL0     O 1113   7.605   6.050  10.814  0.1512  0.3224 -0.0863
  767MOL0     C 1114   7.677   6.131  10.761 -0.2403 -0.0945 -0.2976
  767MOL0     O 1115   7.625   6.248  10.697 -0.8402  0.3110 -0.3032
  767MOL0     C 1116   7.492   6.263  10.676  0.4273  0.6491 -0.1593
  767MOL0     C 1117   7.432   6.366  10.755 -0.4924 -0.0048 -0.3372
  767MOL0     C 1118   7.290   6.387  10.752  0.2546  0.1085 -0.0185
  767MOL0     C 1119   7.209   6.313  10.663  0.5304  0.8967  0.3477
  767MOL0     O 1120   7.077   6.342  10.651 -0.2175  0.3278 -0.1358
  767MOL0     C 1121   7.050   6.479  10.611  0.8615  0.4020  0.1683
  767MOL0     C 1122   6.891   6.494  10.611 -0.2810  0.2220  0.3873
  767MOL0     C 1123   6.860   6.632  10.584 -0.0927 -0.6162  0.0091
  767MOL0     C 1124   6.711   6.654  10.543  0.2859  1.2253 -0.8311
  767MOL0     C 1125   6.679   6.792  10.494  0.2343 -0.8115  0.0571
  767MOL0     C 1126   6.718   6.899  10.595 -0.0619 -0.9263  0.3341
  767MOL0     C 1127   6.684   7.037  10.556 -0.0333  0.2616 -0.3606
  767MOL0     C 1128   6.741   7.099  10.424  0.0710  0.7361  0.4626
  767MOL0     N 1129   6.888   7.093  10.418 -0.2159 -0.1073 -1.3083
  767MOL0     C 1130   6.972   7.137  10.522  0.7376 -0.8177  0.6361
  767MOL0     C 1131   7.095   7.091  10.495  0.4620 -0.2697  0.2930
  767MOL0     C 1132   7.205   7.102  10.600 -0.3554 -0.2877 -0.0084
  767MOL0     C 1133   7.156   7.047  10.730 -0.2068 -0.6266  0.0730
  767MOL0     C 1134   7.141   6.891  10.731 -0.6514  0.0319 -0.3791
  767MOL0     C 1135   7.080   6.849  10.869  0.9412 -0.8829 -0.3388
  767MOL0     O 1136   7.170   6.891  10.973  0.0461 -0.0375  0.0055
  767MOL0     C 1137   7.270   6.803  11.000  0.2257  0.6428 -0.5807
  767MOL0     C 1138   7.406   6.827  10.956  0.3570  0.3070 -0.4220
  767MOL0     C 1139   7.507   6.727  10.978 -1.0289 -0.4513  0.2349
  767MOL0     C 1140   7.487   6.614  11.060  0.4698  0.5545  0.6049
  767MOL0     C 1141   7.590   6.522  11.107  0.4565  0.0917  0.2650
  767MOL0     O 1142   7.585   6.460  11.226  0.0114  0.7593 -0.1352
  767MOL0     C 1143   7.644   6.336  11.250 -0.8911  0.4228  0.4556
  767MOL0     C 1144   7.707   6.335  11.376  0.2729  0.0923  1.1584
  767MOL0     C 1145   7.800   6.234  11.404  0.1665 -0.2498 -0.2472
  767MOL0     C 1146   7.806   6.123  11.318  0.6712 -0.2212  0.1108
  767MOL0     O 1147   7.885   6.023  11.360  0.2011  0.7270  0.0138
  767MOL0     C 1148   7.996   5.994  11.271  0.5224 -0.2283 -0.3231
  767MOL0     C 1149   8.090   5.913  11.363  0.5261  0.5709  0.4233
  767MOL0     C 1150   8.174   5.993  11.464  0.0304 -0.0650  0.1574
  767MOL0     C 1151   8.257   6.105  11.395  0.2604  0.1703  0.8793
  767MOL0     C 1152   8.375   6.141  11.474 -0.0003 -0.1352  0.5362
  767MOL0     C 1153   8.479   6.237  11.417  0.5767 -0.2288  0.9821
  767MOL0     C 1154   8.546   6.181  11.288 -0.7178  0.1534 -0.2152
  767MOL0     C 1155   8.678   6.247  11.255 -0.2227 -0.3688  0.3950
  767MOL0    Cl 1156   8.809   6.195  11.379 -0.0758 -0.5223 -0.0626
  767MOL0     C 1157   7.731   6.122  11.198 -0.1379  0.5360 -1.1913
  767MOL0     C 1158   7.662   6.231  11.157 -0.0763 -0.3399  0.1977
  767MOL0     O 1159   7.681   6.512  11.032  0.6888 -0.9125 -0.0283
  767MOL0     C 1160   7.353   6.597  11.109 -0.4485  0.3716 -0.3782
  767MOL0     C 1161   7.249   6.686  11.078 -0.2087 -0.5271 -0.6081
  767MOL0     N 1162   7.088   7.020  10.372 -0.6663 -0.0187 -0.5327
  767MOL0     N 1163   6.968   7.016  10.334  0.1294 -0.7211  0.2911
  767MOL0     C 1164   7.267   6.217  10.583 -0.2133  0.3228  0.1346
  767MOL0     C 1165   7.407   6.195  10.586 -0.1407 -0.1271 -0.3345
  767MOL0     C 1166   7.822   6.135  10.807 -0.3982 -0.6229  0.4842
  767MOL0     C 1167   7.893   6.017  10.840  0.8735 -0.0117  0.1227
  767MOL0     C 1168   8.025   6.017  10.884 -0.1012  0.8732  0.1978
  767MOL0     C 1169   8.096   6.140  10.880  0.4191 -1.0069 -0.4215
  767MOL0     O 1170   8.226   6.159  10.892 -0.2320  0.2086  0.0750
  767MOL0     C 1171   8.310   6.055  10.854 -0.4759 -0.1254 -1.1749
  767MOL0     C 1172   8.448   6.078  10.920  0.4220  0.9956 -0.1163
  767MOL0     C 1173   8.551   5.978  10.881 -0.4324  0.3775  0.6439
  767MOL0     C 1174   8.700   6.014  10.926  0.0487  0.7095 -0.4093
  767MOL0     C 1175   8.799   5.922  10.880  0.3625  0.2366  0.8313
  767MOL0     C 1176   8.887   5.847  10.836  0.0807 -0.0723  1.2293
  767MOL0     C 1177   8.019   6.262  10.856  0.0031  0.0011  0.0108
  767MOL0     C 1178   7.889   6.253  10.811 -0.4125  0.5789 -0.0780
  767MOL0     H 1179   7.502   6.434  10.802 -1.1838  0.8410 -0.5106
  767MOL0     H 1180   7.250   6.465  10.815 -0.0511  1.2623 -1.5682
  767MOL0     H 1181   7.095   6.504  10.515 -2.2117  1.3406 -1.1636
  767MOL0     H 1182   7.082   6.555  10.683  0.5266 -0.0706  0.8268
  767MOL0     H 1183   6.842   6.465  10.705  0.7292  0.3726  0.9737
  767MOL0     H 1184   6.854   6.437  10.526  0.2906  0.4002  0.0185
  767MOL0     H 1185   6.928   6.676  10.510 -1.8135  1.2176 -0.5770
  767MOL0     H 1186   6.884   6.684  10.677  3.5751 -2.1046  0.0541
  767MOL0     H 1187   6.678   6.589  10.462  2.2940  1.3483 -1.8173
  767MOL0     H 1188   6.645   6.641  10.629  0.3622  1.3663 -0.7498
  767MOL0     H 1189   6.572   6.802  10.478  0.1407 -1.4116  0.3028
  767MOL0     H 1190   6.731   6.807  10.399 -0.7300  0.1550 -0.3385
  767MOL0     H 1191   6.827   6.892  10.596  0.2991  2.7168 -0.3286
  767MOL0     H 1192   6.680   6.883  10.697  0.6572 -0.1141  0.7440
  767MOL0     H 1193   6.575   7.037  10.558 -0.0207  1.3479  0.4151
  767MOL0     H 1194   6.708   7.111  10.632 -0.2506 -0.6681  0.6288
  767MOL0     H 1195   6.709   7.201  10.401  0.1114  0.0926 -2.8367
  767MOL0     H 1196   6.718   7.033  10.340  0.7007  1.9435 -0.6996
  767MOL0     H 1197   6.942   7.198  10.607  4.0483 -1.3722  2.3637
  767MOL0     H 1198   7.238   7.204  10.623  0.3008 -0.5930  0.4548
  767MOL0     H 1199   7.304   7.062  10.574 -0.1268  0.1748  0.1248
  767MOL0     H 1200   7.058   7.093  10.745 -0.3879 -0.8235 -0.4934
  767MOL0     H 1201   7.212   7.073  10.821  1.7801 -1.1133 -0.9712
  767MOL0     H 1202   7.080   6.848  10.651 -3.3343  0.0980  1.4792
  767MOL0     H 1203   7.241   6.848  10.726 -0.3290  0.7347 -0.2027
  767MOL0     H 1204   7.052   6.743  10.857 -3.1094  0.0511 -0.7312
  767MOL0     H 1205   6.985   6.902  10.884  0.2413 -2.2014  0.1051
  767MOL0     H 1206   7.422   6.925  10.912  1.3586  0.0459 -0.6593
  767MOL0     H 1207   7.604   6.730  10.930 -0.3653 -0.1132  1.5394
  767MOL0     H 1208   7.701   6.416  11.447 -2.5621 -0.9003  2.1797
  767MOL0     H 1209   7.852   6.240  11.499 -0.5172  0.1084  0.1131
  767MOL0     H 1210   8.046   6.075  11.217  2.4937 -0.1174  1.5342
  767MOL0     H 1211   7.956   5.920  11.201  1.9937 -1.9120  0.5464
  767MOL0     H 1212   8.152   5.867  11.285 -0.9786 -0.1195 -0.4182
  767MOL0     H 1213   8.038   5.828  11.406  2.7226 -1.1144 -0.0960
  767MOL0     H 1214   8.235   5.920  11.518 -1.1975  0.4860  2.4116
  767MOL0     H 1215   8.106   6.038  11.536 -0.4124  0.1224 -0.3724
  767MOL0     H 1216   8.279   6.066  11.295  1.0180 -0.9294  1.4610
  767MOL0     H 1217   8.198   6.197  11.385  0.3349  0.2738  1.3894
  767MOL0     H 1218   8.424   6.052  11.513  1.6575  0.9235  0.9395
  767MOL0     H 1219   8.321   6.192  11.554 -5.9030 -1.3059 -2.1206
  767MOL0     H 1220   8.552   6.263  11.493  2.3654  0.4844 -0.9094
  767MOL0     H 1221   8.411   6.319  11.392 -0.5068 -1.2120  0.5521
  767MOL0     H 1222   8.568   6.075  11.302  2.5781  0.2938 -3.1574
  767MOL0     H 1223   8.475   6.186  11.205 -0.5527 -0.6557 -0.4105
  767MOL0     H 1224   8.672   6.356  11.262  4.7080  0.1451  0.8472
  767MOL0     H 1225   8.705   6.207  11.156  3.9273 -0.0224  1.1724
  767MOL0     H 1226   7.745   6.033  11.138 -0.5958 -3.2653  3.6876
  767MOL0     H 1227   7.618   6.232  11.058 -2.2279  0.8435  1.0912
  767MOL0     H 1228   7.335   6.504  11.162  0.1793  0.9630  0.9062
  767MOL0     H 1229   7.149   6.658  11.112 -1.4270  2.8990 -1.0063
  767MOL0     H 1230   7.205   6.160  10.514  0.1501 -0.1894  0.2284
  767MOL0     H 1231   7.438   6.114  10.521 -1.4144 -0.0497 -1.0559
  767MOL0     H 1232   7.835   5.925  10.839 -0.1548  0.6277 -0.2212
  767MOL0     H 1233   8.070   5.921  10.909  1.7636  0.9676 -2.4443
  767MOL0     H 1234   8.314   6.046  10.745  2.9373 -0.3001 -1.1391
  767MOL0     H 1235   8.268   5.963  10.896 -0.9938  1.9287  3.3041
  767MOL0     H 1236   8.491   6.176  10.896  1.9558  0.9882  2.2640
  767MOL0     H 1237   8.437   6.085  11.029 -1.7834  2.3523 -0.3584
  767MOL0     H 1238   8.544   5.967  10.772 -0.8371  1.1959  0.5737
  767MOL0     H 1239   8.530   5.878  10.919  0.8027 -0.9262 -1.8215
  767MOL0     H 1240   8.727   6.109  10.878  2.3327  0.0609 -0.5671
  767MOL0     H 1241   8.698   6.018  11.035 -3.0596 -2.2720 -0.2035
  767MOL0     H 1242   8.950   5.775  10.790 -0.8441  1.2334 -2.4615
  767MOL0     H 1243   8.083   6.349  10.863  1.2976 -0.7961 -1.2994
  767MOL0     H 1244   7.839   6.343  10.775 -2.7999 -0.1985  1.0693
  768MOL0     O 1245   7.936  10.887   2.803  0.0392 -0.3909  0.3179
  768MOL0     C 1246   7.921  10.813   2.895 -0.1246 -0.0346 -0.7559
  768MOL0     O 1247   7.983  10.829   3.018 -0.4338 -0.2761  0.0220
  768MOL0     C 1248   8.072  10.938   3.034 -0.4925  0.9455  0.2489
  768MOL0     C 1249   8.188  10.966   2.946  0.2540 -0.8567  0.4757
  768MOL0     C 1250   8.277  11.071   2.967 -0.5986 -0.3677 -0.0811
  768MOL0     C 1251   8.251  11.154   3.079  0.0518  0.7868  0.1523
  768MOL0     O 1252   8.336  11.252   3.115  0.0296  0.2311 -0.1529
  768MOL0     C 1253   8.472  11.255   3.074  0.2436  0.4573 -0.0049
  768MOL0     C 1254   8.567  11.355   3.143  0.1474 -0.1024 -0.8423
  768MOL0     C 1255   8.717  11.331   3.115 -0.6790  0.4253 -0.2657
  768MOL0     C 1256   8.812  11.419   3.197 -0.1321  0.1817 -0.0628
  768MOL0     C 1257   8.963  11.366   3.184  0.2595  0.3205  0.6203
  768MOL0     C 1258   9.061  11.440   3.278  0.6551  0.1705  0.3815
  768MOL0     C 1259   9.077  11.592   3.227 -0.0071  0.0817  0.2130
  768MOL0     C 1260   9.177  11.669   3.320  0.0560 -0.1330  0.5115
  768MOL0     N 1261   9.230  11.787   3.256 -0.6124  0.0872  0.2506
  768MOL0     C 1262   9.324  11.779   3.154  0.0554 -0.3221 -0.9163
  768MOL0     C 1263   9.329  11.907   3.102 -0.5997  0.4226 -0.0217
  768MOL0     C 1264   9.404  11.937   2.973  0.0159  0.4321 -0.1136
  768MOL0     C 1265   9.384  12.097   2.940  0.3148  0.6689  0.7370
  768MOL0     C 1266   9.407  12.138   2.790  0.6771  0.1594 -0.0227
  768MOL0     C 1267   9.273  12.112   2.720 -0.5223 -0.5222  0.8483
  768MOL0     O 1268   9.166  12.205   2.756  0.1608 -0.3183 -0.0721
  768MOL0     C 1269   9.038  12.177   2.721  0.3856  0.5898  0.5284
  768MOL0     C 1270   9.002  12.090   2.612  0.3701  0.1527 -0.3004
  768MOL0     C 1271   8.870  12.047   2.603  0.8625 -0.3794  0.0931
  768MOL0     C 1272   8.765  12.115   2.677  0.9961  1.0379 -0.3634
  768MOL0     C 1273   8.619  12.091   2.656 -0.0010 -0.3483  0.5409
  768MOL0     O 1274   8.581  12.035   2.532  0.0800  0.0222  0.6510
  768MOL0     C 1275   8.450  12.007   2.500  0.2338  1.2588  1.1951
  768MOL0     C 1276   8.343  12.095   2.509 -1.1656 -0.4562  1.3395
  768MOL0     C 1277   8.206  12.063   2.491 -0.4595 -0.8477 -0.2149
  768MOL0     C 1278   8.178  11.940   2.451  1.0435  0.4980 -0.3236
  768MOL0     O 1279   8.047  11.891   2.447 -0.8360  0.7887  0.2381
  768MOL0     C 1280   7.929  11.976   2.454  0.1415  0.2095 -1.0507
  768MOL0     C 1281   7.804  11.906   2.471  0.2728  0.4438 -0.3197
  768MOL0     C 1282   7.687  12.001   2.500 -1.1273  0.0504 -0.3147
  768MOL0     C 1283   7.670  12.126   2.395 -0.1207  0.3917  0.5867
  768MOL0     C 1284   7.546  12.213   2.431 -0.2990  0.1198 -0.2597
  768MOL0     C 1285   7.565  12.356   2.375  0.5813  0.6202  0.5134
  768MOL0     C 1286   7.583  12.375   2.224 -0.6782  0.9292 -0.4697
  768MOL0     C 1287   7.575  12.519   2.178  0.0962 -0.5428  0.4211
  768MOL0    Cl 1288   7.689  12.614   2.272 -0.3340 -0.2420  0.2377
  768MOL0     C 1289   8.279  11.844   2.436  0.4708  1.0983  0.7804
  768MOL0     C 1290   8.415  11.882   2.450  0.3826 -0.2302 -0.2474
  768MOL0     O 1291   8.535  12.125   2.736 -0.0817  0.2164  0.2093
  768MOL0     C 1292   8.801  12.198   2.779  0.6850  0.7541  0.3072
  768MOL0     C 1293   8.934  12.235   2.790  0.9260 -1.0083 -0.3578
  768MOL0     N 1294   9.233  11.987   3.176  0.7164  0.0037  0.5242
  768MOL0     N 1295   9.179  11.912   3.264 -0.1914  0.2020 -0.1428
  768MOL0     C 1296   8.138  11.134   3.161 -0.1538 -0.7625 -0.1236
  768MOL0     C 1297   8.051  11.024   3.135  0.8259  0.0667 -0.0075
  768MOL0     C 1298   7.817  10.704   2.893 -1.4794  0.3668 -0.1989
  768MOL0     C 1299   7.767  10.644   3.010  0.3053  0.0115 -0.2954
  768MOL0     C 1300   7.671  10.547   3.003 -0.0034 -0.5011  0.3271
  768MOL0     C 1301   7.617  10.509   2.878 -0.8443  0.6498 -0.7656
  768MOL0     O 1302   7.528  10.409   2.874  0.4584 -0.2598 -0.5260
  768MOL0     C 1303   7.434  10.400   2.770 -0.3098  0.2734 -0.2201
  768MOL0     C 1304   7.342  10.519   2.730  0.1400  0.2916 -0.3989
  768MOL0     C 1305   7.322  10.520   2.578  0.4610 -0.3789 -0.6180
  768MOL0     C 1306   7.264  10.655   2.545  0.0702 -0.1870  0.7500
  768MOL0     C 1307   7.352  10.771   2.543  0.1763  0.5167 -0.9401
  768MOL0     C 1308   7.414  10.874   2.546 -0.1982 -0.7042 -0.3455
  768MOL0     C 1309   7.665  10.570   2.759 -0.3166 -0.2219  0.7703
  768MOL0     C 1310   7.760  10.679   2.769  0.3851  0.8059 -0.9196
  768MOL0     H 1311   8.207  10.898   2.863 -0.9228 -0.3730 -0.2135
  768MOL0     H 1312   8.362  11.076   2.899  1.2659  0.2235  2.1760
  768MOL0     H 1313   8.476  11.268   2.966 -0.4219 -0.8358 -0.2035
  768MOL0     H 1314   8.515  11.159   3.105  0.6527  0.0852 -1.6314
  768MOL0     H 1315   8.542  11.343   3.249  0.5976  2.9780 -0.3058
  768MOL0     H 1316   8.546  11.454   3.103 -0.0425 -0.2302 -1.0624
  768MOL0     H 1317   8.731  11.345   3.007 -0.3639 -0.0061 -0.2816
  768MOL0     H 1318   8.736  11.223   3.121 -4.5648 -0.3858  0.4195
  768MOL0     H 1319   8.807  11.523   3.164 -0.1078  0.3016  0.3110
  768MOL0     H 1320   8.784  11.417   3.303  2.5642  0.3490  0.7180
  768MOL0     H 1321   9.000  11.387   3.083  0.0966 -1.0037  0.2665
  768MOL0     H 1322   8.955  11.258   3.200  1.4238 -0.1060 -1.2392
  768MOL0     H 1323   9.155  11.385   3.281 -0.5529 -2.1679 -1.5861
  768MOL0     H 1324   9.020  11.446   3.379 -1.3568  0.1282 -0.3860
  768MOL0     H 1325   9.131  11.588   3.131  2.7563 -0.7609  1.7022
  768MOL0     H 1326   8.978  11.640   3.225 -1.0806 -1.7335  3.2998
  768MOL0     H 1327   9.257  11.603   3.353  0.0368  1.3995  3.9959
  768MOL0     H 1328   9.123  11.701   3.409 -1.2879  2.5028 -1.1104
  768MOL0     H 1329   9.370  11.698   3.099  3.8268  1.6701 -0.9917
  768MOL0     H 1330   9.349  11.881   2.897 -1.6520  0.7968  0.7844
  768MOL0     H 1331   9.509  11.906   2.971 -0.0315  0.1165  1.2068
  768MOL0     H 1332   9.450  12.159   3.001  1.0870 -0.5122  1.1276
  768MOL0     H 1333   9.284  12.137   2.963  0.8280  2.4724 -0.0024
  768MOL0     H 1334   9.441  12.241   2.778  1.8823 -0.4998 -3.2459
  768MOL0     H 1335   9.485  12.077   2.743 -0.6818 -0.8758 -0.9964
  768MOL0     H 1336   9.244  12.008   2.739 -0.7235 -0.4834  0.7559
  768MOL0     H 1337   9.290  12.120   2.612 -1.5918  4.3014  0.8205
  768MOL0     H 1338   9.083  12.056   2.548 -0.5661  1.0704 -2.0461
  768MOL0     H 1339   8.857  11.982   2.517  2.3257  1.2711 -1.4455
  768MOL0     H 1340   8.361  12.195   2.546  2.1709 -0.1308 -0.7689
  768MOL0     H 1341   8.139  12.146   2.511  0.1951 -0.1843 -0.7298
  768MOL0     H 1342   7.923  12.017   2.353 -0.4199  0.1465 -1.0497
  768MOL0     H 1343   7.931  12.053   2.532 -1.5360 -1.3182  0.6178
  768MOL0     H 1344   7.817  11.843   2.560  1.0169 -1.3536 -1.6504
  768MOL0     H 1345   7.777  11.831   2.397 -3.4794  0.2926  0.9557
  768MOL0     H 1346   7.708  12.039   2.600 -3.9085  1.1765 -0.0680
  768MOL0     H 1347   7.598  11.938   2.510 -0.2421 -1.3879 -1.0713
  768MOL0     H 1348   7.752  12.197   2.411 -0.5401  1.6822 -2.2853
  768MOL0     H 1349   7.668  12.104   2.288 -2.5749  2.2256  0.1809
  768MOL0     H 1350   7.550  12.215   2.541  2.9619 -0.0543 -0.2750
  768MOL0     H 1351   7.460  12.162   2.387  0.0422  0.4161 -1.3028
  768MOL0     H 1352   7.649  12.402   2.429  1.6843 -2.3022  1.4887
  768MOL0     H 1353   7.474  12.401   2.416 -1.2215 -2.3759  0.1461
  768MOL0     H 1354   7.672  12.323   2.188 -2.8835 -2.9951 -0.9478
  768MOL0     H 1355   7.505  12.309   2.183  0.4021 -0.2778 -0.6370
  768MOL0     H 1356   7.478  12.564   2.201  0.2107 -1.6783  3.5243
  768MOL0     H 1357   7.585  12.529   2.069 -1.3226 -2.2521  0.0950
  768MOL0     H 1358   8.252  11.743   2.410  2.5836  0.5239  0.6648
  768MOL0     H 1359   8.495  11.810   2.437  1.1267  0.8220 -1.8057
  768MOL0     H 1360   8.719  12.252   2.827  0.5219  0.0248  0.8595
  768MOL0     H 1361   8.956  12.303   2.872 -2.7742  0.2001 -0.1547
  768MOL0     H 1362   8.109  11.205   3.237 -1.0364 -0.9494 -0.2735
  768MOL0     H 1363   7.985  11.005   3.219  1.0453  0.1636  0.1896
  768MOL0     H 1364   7.816  10.676   3.102  0.1019 -1.4645  0.3584
  768MOL0     H 1365   7.633  10.490   3.087 -0.6319  0.0622  0.4356
  768MOL0     H 1366   7.355  10.328   2.792 -1.8797  1.7913 -0.6037
  768MOL0     H 1367   7.487  10.363   2.682  0.7300 -2.2758  1.3805
  768MOL0     H 1368   7.248  10.517   2.785  0.0342  1.1979 -0.5306
  768MOL0     H 1369   7.393  10.614   2.751  0.7403  0.3087 -1.8419
  768MOL0     H 1370   7.248  10.446   2.548  1.0561 -0.9457 -0.7065
  768MOL0     H 1371   7.412  10.496   2.520  1.3363  2.1259 -0.4405
  768MOL0     H 1372   7.219  10.653   2.446  2.1448  1.5255 -0.3173
  768MOL0     H 1373   7.182  10.677   2.614 -0.4123  1.0763 -0.1904
  768MOL0     H 1374   7.479  10.959   2.554 -0.2527 -0.4192 -2.3833
  768MOL0     H 1375   7.639  10.537   2.659  0.2084  0.3806  0.4269
  768MOL0     H 1376   7.785  10.744   2.686  3.7907  2.2810  1.0527
  769MOL0     O 1377   2.458   9.743   9.022 -0.5750 -1.0427 -0.2556
  769MOL0     C 1378   2.522   9.697   8.926  0.2373  0.2844  0.4356
  769MOL0     O 1379   2.478   9.647   8.808 -0.2916 -0.7437  0.3803
  769MOL0     C 1380   2.351   9.678   8.777  0.1630 -0.2699  0.2345
  769MOL0     C 1381   2.268   9.572   8.731 -0.0750  0.0700  0.5790
  769MOL0     C 1382   2.136   9.595   8.690  0.3955  0.4127 -0.2253
  769MOL0     C 1383   2.080   9.727   8.694  0.0692 -0.7710 -0.5016
  769MOL0     O 1384   1.947   9.763   8.655  0.2700 -0.7392 -0.3923
  769MOL0     C 1385   1.863   9.660   8.587  0.3503 -0.9633 -1.0362
  769MOL0     C 1386   1.900   9.649   8.449  0.0480  0.3897  0.1468
  769MOL0     C 1387   1.895   9.788   8.371 -0.1126 -0.0891  0.0467
  769MOL0     C 1388   1.923   9.749   8.223  0.8372  0.1672  0.4226
  769MOL0     C 1389   1.915   9.869   8.132  0.6650 -0.1946  0.3868
  769MOL0     C 1390   1.782   9.952   8.126  0.1763 -0.4864 -0.3660
  769MOL0     C 1391   1.778  10.059   8.017  0.1688  0.1966 -0.6301
  769MOL0     C 1392   1.796   9.993   7.883 -0.1367 -0.1629 -0.6886
  769MOL0     N 1393   1.717  10.062   7.788  0.0979  0.1642 -1.1019
  769MOL0     C 1394   1.755  10.174   7.720  0.0326  0.2838 -0.4720
  769MOL0     C 1395   1.651  10.208   7.645 -0.6126  0.5805  0.1121
  769MOL0     C 1396   1.641  10.315   7.537 -0.9187  0.1360 -0.0443
  769MOL0     C 1397   1.575  10.439   7.605 -0.2739  0.0030  0.7707
  769MOL0     C 1398   1.426  10.399   7.632 -0.5955  0.6220 -0.5023
  769MOL0     C 1399   1.328  10.460   7.532  1.0900 -0.9033  0.0416
  769MOL0     O 1400   1.349  10.403   7.400  0.5539  0.0724  0.3186
  769MOL0     C 1401   1.268  10.437   7.297 -0.6989 -0.5532 -0.6481
  769MOL0     C 1402   1.145  10.510   7.319 -0.2692 -0.1543 -0.4825
  769MOL0     C 1403   1.049  10.523   7.228 -0.0079  0.3246 -0.5637
  769MOL0     C 1404   1.072  10.482   7.098 -0.3067 -0.0124 -0.7091
  769MOL0     C 1405   0.983  10.527   6.991 -0.7288 -0.1429 -0.5671
  769MOL0     O 1406   0.852  10.554   7.032 -0.5002  0.4164  0.2702
  769MOL0     C 1407   0.752  10.614   6.956  0.5791 -0.1153 -0.3522
  769MOL0     C 1408   0.770  10.704   6.851 -0.1264  1.2447 -0.0383
  769MOL0     C 1409   0.664  10.754   6.777  0.2518  0.1424 -0.0591
  769MOL0     C 1410   0.537  10.747   6.824  1.1534 -0.6410 -0.0989
  769MOL0     O 1411   0.449  10.826   6.761  0.4564 -0.3236  0.3010
  769MOL0     C 1412   0.324  10.857   6.823  0.1613 -0.4482  0.0294
  769MOL0     C 1413   0.257  10.966   6.741 -1.5077 -0.6955  1.0917
  769MOL0     C 1414   0.108  10.992   6.774  0.2832 -0.9150  0.1064
  769MOL0     C 1415   0.060  11.136   6.753  0.1859 -0.3996 -0.3031
  769MOL0     C 1416   0.051  11.174   6.608  0.1947  0.0001  0.7881
  769MOL0     C 1417  -0.008  11.315   6.601 -0.1041 -0.3317  0.1968
  769MOL0     C 1418  -0.160  11.330   6.647  0.2448  0.4072  0.0156
  769MOL0     C 1419  -0.249  11.428   6.570  0.0095 -0.2689  0.2852
  769MOL0    Cl 1420  -0.244  11.393   6.392  0.2976  0.2324  0.3225
  769MOL0     C 1421   0.510  10.669   6.943 -0.5778  1.0515  0.4554
  769MOL0     C 1422   0.615  10.596   6.998 -0.1337 -0.3609  0.4321
  769MOL0     O 1423   1.023  10.519   6.880 -0.2554  1.4028 -0.3859
  769MOL0     C 1424   1.189  10.414   7.073  0.0685 -0.1662 -0.0194
  769MOL0     C 1425   1.289  10.387   7.166  1.1919 -0.0598  0.1416
  769MOL0     N 1426   1.552  10.110   7.661 -0.2056  0.7091  0.3114
  769MOL0     N 1427   1.594  10.025   7.745  0.1471  0.6776 -0.1740
  769MOL0     C 1428   2.163   9.829   8.738 -0.2889  0.5838 -0.4091
  769MOL0     C 1429   2.299   9.810   8.777 -0.5011  0.5980 -0.0097
  769MOL0     C 1430   2.678   9.714   8.924 -0.0022 -0.5572 -0.5532
  769MOL0     C 1431   2.753   9.664   8.825 -0.0006 -0.5766 -0.2958
  769MOL0     C 1432   2.891   9.683   8.833 -0.2344  0.1001 -0.4056
  769MOL0     C 1433   2.955   9.759   8.927 -0.1222 -0.1112  0.7545
  769MOL0     O 1434   3.093   9.787   8.911 -0.1367 -0.7680  0.1198
  769MOL0     C 1435   3.139   9.912   8.972 -0.6541  0.3946  0.4700
  769MOL0     C 1436   3.260   9.956   8.883  0.2167  0.0931 -0.0765
  769MOL0     C 1437   3.355  10.044   8.958  0.2011  0.1280 -0.4415
  769MOL0     C 1438   3.287  10.182   8.979 -0.8248 -0.6102 -0.5071
  769MOL0     C 1439   3.398  10.284   8.976  0.4058 -0.0182 -0.7060
  769MOL0     C 1440   3.496  10.361   8.976 -0.2629 -0.7568  0.7044
  769MOL0     C 1441   2.871   9.810   9.037 -0.8551 -0.7273  0.3957
  769MOL0     C 1442   2.734   9.795   9.028  0.3319 -0.2761 -0.1928
  769MOL0     H 1443   2.305   9.470   8.725 -0.2086  0.0419  0.1861
  769MOL0     H 1444   2.086   9.500   8.674  1.5481  0.0500 -1.9552
  769MOL0     H 1445   1.758   9.691   8.585  0.4148 -0.6245  0.0345
  769MOL0     H 1446   1.864   9.567   8.645  1.6541 -0.0964  0.4112
  769MOL0     H 1447   1.846   9.574   8.390 -1.4660  0.1165  1.7606
  769MOL0     H 1448   2.004   9.617   8.462 -0.7844 -1.4660  3.7135
  769MOL0     H 1449   1.964   9.861   8.413 -0.6585  0.1344  0.5677
  769MOL0     H 1450   1.797   9.835   8.386  0.7771  1.1712  2.3033
  769MOL0     H 1451   2.020   9.700   8.211  1.2782  1.5619 -2.8603
  769MOL0     H 1452   1.840   9.686   8.190 -0.6174  2.8914 -1.4117
  769MOL0     H 1453   1.930   9.825   8.033  4.3560  0.5171  0.4839
  769MOL0     H 1454   2.001   9.932   8.155  0.6855  0.2833 -0.8726
  769MOL0     H 1455   1.762  10.011   8.217  2.5288  0.2788 -0.2888
  769MOL0     H 1456   1.702   9.878   8.117 -0.8167  0.0950  2.5831
  769MOL0     H 1457   1.682  10.111   8.013  1.5742  2.8787 -2.0149
  769MOL0     H 1458   1.859  10.123   8.051  1.8368 -3.1018  2.3251
  769MOL0     H 1459   1.778   9.885   7.892  1.4920 -0.2854  3.4435
  769MOL0     H 1460   1.895  10.008   7.840 -0.8534  1.4574 -1.8793
  769MOL0     H 1461   1.850  10.226   7.721  0.2016  0.1420 -2.9842
  769MOL0     H 1462   1.582  10.278   7.453  0.3200 -1.7261 -0.1534
  769MOL0     H 1463   1.741  10.344   7.504 -0.3478  1.0094  2.2624
  769MOL0     H 1464   1.580  10.522   7.534 -0.8597 -1.8444 -1.5335
  769MOL0     H 1465   1.620  10.462   7.703  1.1982 -2.3646  0.7078
  769MOL0     H 1466   1.400  10.293   7.640 -1.3744  0.9306  1.6927
  769MOL0     H 1467   1.396  10.432   7.731  0.1242  2.2271 -0.7926
  769MOL0     H 1468   1.334  10.569   7.533 -1.0348 -0.7419  1.7106
  769MOL0     H 1469   1.224  10.428   7.546  0.3209  1.1131 -0.6484
  769MOL0     H 1470   1.129  10.567   7.410  0.3179  0.1522 -0.5628
  769MOL0     H 1471   0.955  10.572   7.251 -1.0890 -1.8112 -0.1865
  769MOL0     H 1472   0.868  10.730   6.811 -0.0555 -0.3104 -0.9468
  769MOL0     H 1473   0.691  10.819   6.694  0.2310 -0.1450 -0.2898
  769MOL0     H 1474   0.320  10.884   6.928  0.4837  0.2657 -0.1390
  769MOL0     H 1475   0.263  10.766   6.813 -0.9619  0.2299  0.5649
  769MOL0     H 1476   0.264  10.924   6.640 -1.5635 -0.4194  0.9736
  769MOL0     H 1477   0.316  11.057   6.726 -0.7808 -1.0273  1.8565
  769MOL0     H 1478   0.084  10.985   6.881 -0.7078  0.3385 -0.0036
  769MOL0     H 1479   0.052  10.916   6.719 -0.9573  1.3084 -1.8649
  769MOL0     H 1480  -0.035  11.149   6.807 -0.0592 -0.4059 -0.7348
  769MOL0     H 1481   0.132  11.201   6.804 -0.8482  1.0296 -0.5926
  769MOL0     H 1482  -0.018  11.108   6.554  1.1081  0.9738 -1.7516
  769MOL0     H 1483   0.138  11.160   6.543 -0.6939  0.2214 -0.5008
  769MOL0     H 1484   0.018  11.344   6.499  1.0657  1.2077  0.8833
  769MOL0     H 1485   0.037  11.390   6.667 -1.8548 -0.1713  1.2709
  769MOL0     H 1486  -0.212  11.234   6.634 -1.6011  1.1548  1.3500
  769MOL0     H 1487  -0.164  11.351   6.754 -0.6579 -1.5537  0.4146
  769MOL0     H 1488  -0.229  11.533   6.595 -2.7241  0.8820 -1.8831
  769MOL0     H 1489  -0.351  11.422   6.608 -0.9973 -0.4404 -2.2595
  769MOL0     H 1490   0.413  10.667   6.991 -1.1697 -0.8549 -0.7080
  769MOL0     H 1491   0.598  10.527   7.080  1.3644  1.2437  2.1694
  769MOL0     H 1492   1.193  10.364   6.977 -0.0181 -1.3238  0.5728
  769MOL0     H 1493   1.383  10.335   7.151  0.1787 -1.3187 -2.4540
  769MOL0     H 1494   2.112   9.925   8.742  0.8985  1.1810  1.3343
  769MOL0     H 1495   2.365   9.887   8.817 -1.9234  1.3777  0.8889
  769MOL0     H 1496   2.707   9.616   8.739 -0.3471  1.8576 -1.5559
  769MOL0     H 1497   2.948   9.644   8.749  2.3162 -2.8657  2.4189
  769MOL0     H 1498   3.176   9.897   9.073 -1.9277 -2.3641  0.6052
  769MOL0     H 1499   3.065   9.992   8.965 -0.6587  0.5299  1.8856
  769MOL0     H 1500   3.312   9.868   8.843  3.4312  1.6017  0.4474
  769MOL0     H 1501   3.215  10.009   8.799 -3.7880  1.6955  2.7779
  769MOL0     H 1502   3.446  10.044   8.897 -0.1573  0.3102 -0.9890
  769MOL0     H 1503   3.375  10.002   9.057  2.2454 -1.0158 -1.2834
  769MOL0     H 1504   3.227  10.208   8.891  2.9665  1.2936 -2.7416
  769MOL0     H 1505   3.224  10.196   9.068 -1.3444 -1.6772 -0.6818
  769MOL0     H 1506   3.584  10.419   8.957 -0.8392 -0.2429 -0.5319
  769MOL0     H 1507   2.924   9.857   9.120  0.0900  1.6780 -1.4298
  769MOL0     H 1508   2.671   9.833   9.109 -1.5031 -0.4361 -1.4718
  770MOL0     O 1509   8.197   1.250   3.235  0.4522 -0.0582 -0.7527
  770MOL0     C 1510   8.227   1.183   3.341 -0.5879 -0.6272  0.4784
  770MOL0     O 1511   8.165   1.070   3.385 -0.5523  0.2876 -0.2663
  770MOL0     C 1512   8.068   1.011   3.317  0.3526  0.4339  0.5145
  770MOL0     C 1513   7.944   1.064   3.302 -0.0157  0.0061  0.2480
  770MOL0     C 1514   7.843   0.989   3.260  0.7666 -0.1855 -0.9856
  770MOL0     C 1515   7.866   0.857   3.229 -0.5784 -0.8976 -0.0129
  770MOL0     O 1516   7.757   0.793   3.180  0.0952 -0.3536  0.0858
  770MOL0     C 1517   7.780   0.683   3.097 -0.0904  0.5376 -0.3660
  770MOL0     C 1518   7.650   0.609   3.036  0.0453  0.0176  0.7126
  770MOL0     C 1519   7.642   0.601   2.886  0.0437  0.0144 -0.0775
  770MOL0     C 1520   7.706   0.468   2.823  0.7242  0.5848 -0.2348
  770MOL0     C 1521   7.634   0.335   2.874 -0.2733  0.6874 -0.7427
  770MOL0     C 1522   7.499   0.308   2.813  0.7989 -0.9902  0.7010
  770MOL0     C 1523   7.430   0.179   2.844  0.4478  0.4840 -0.2490
  770MOL0     C 1524   7.348   0.194   2.967 -0.4397 -0.4340 -0.6574
  770MOL0     N 1525   7.292   0.069   3.018 -0.4309  0.2505  0.0564
  770MOL0     C 1526   7.229  -0.024   2.941 -0.0573  0.0638  0.1937
  770MOL0     C 1527   7.202  -0.124   3.029 -0.2911 -0.8633  0.0654
  770MOL0     C 1528   7.127  -0.252   2.998  0.2856  0.0366 -1.1021
  770MOL0     C 1529   6.978  -0.234   3.052 -0.7785  0.2796  0.2963
  770MOL0     C 1530   6.874  -0.317   2.980 -0.3375 -0.9278 -0.2229
  770MOL0     C 1531   6.738  -0.291   3.050 -0.7614  0.8218  0.0106
  770MOL0     O 1532   6.666  -0.419   3.061 -0.1995  0.3940  1.1602
  770MOL0     C 1533   6.534  -0.396   3.064  0.7354 -0.0666 -0.3654
  770MOL0     C 1534   6.459  -0.453   2.961  0.2660  0.6937 -0.0968
  770MOL0     C 1535   6.319  -0.446   2.952 -0.1216 -0.8292 -0.3905
  770MOL0     C 1536   6.244  -0.364   3.043 -1.3555  0.4494  0.6428
  770MOL0     C 1537   6.094  -0.357   3.029 -0.1028  0.0758 -0.3716
  770MOL0     O 1538   6.026  -0.268   3.094  0.6458 -0.0029  0.6270
  770MOL0     C 1539   5.887  -0.263   3.116  1.2093  0.7880  0.4912
  770MOL0     C 1540   5.835  -0.140   3.153 -0.4727 -0.1121  0.3685
  770MOL0     C 1541   5.694  -0.131   3.158 -0.6371 -0.6729  0.1689
  770MOL0     C 1542   5.599  -0.235   3.132  0.0872 -0.1706  0.2400
  770MOL0     O 1543   5.464  -0.211   3.135  0.6232  0.4022  0.3640
  770MOL0     C 1544   5.376  -0.317   3.172  0.1055  0.4340  0.0312
  770MOL0     C 1545   5.235  -0.265   3.184 -0.1623  0.3344 -0.5105
  770MOL0     C 1546   5.135  -0.392   3.194  0.2733 -0.5449 -0.3121
  770MOL0     C 1547   4.998  -0.319   3.193  0.1382  0.5246 -0.0347
  770MOL0     C 1548   4.880  -0.420   3.227  0.0947  0.8866 -0.5954
  770MOL0     C 1549   4.737  -0.369   3.248  1.0496 -0.7555 -0.0317
  770MOL0     C 1550   4.624  -0.471   3.297  0.2441  0.0541 -0.0333
  770MOL0     C 1551   4.479  -0.420   3.283 -0.8302 -0.6947 -0.5925
  770MOL0    Cl 1552   4.447  -0.430   3.117 -0.4808 -0.3216  0.3293
  770MOL0     C 1553   5.655  -0.353   3.091  0.0564  0.2313  0.3553
  770MOL0     C 1554   5.796  -0.369   3.093 -0.2230 -0.3850  0.3457
  770MOL0     O 1555   6.045  -0.441   2.961  0.6607  0.1308  0.5042
  770MOL0     C 1556   6.308  -0.306   3.151 -0.1426 -0.4211  0.5743
  770MOL0     C 1557   6.450  -0.322   3.155 -0.4433  0.0086 -0.9234
  770MOL0     N 1558   7.252  -0.094   3.158  0.3042 -0.4384 -0.2539
  770MOL0     N 1559   7.307   0.019   3.142 -0.5575 -0.4807 -0.8042
  770MOL0     C 1560   7.989   0.796   3.246 -0.2209  0.9430 -0.5602
  770MOL0     C 1561   8.089   0.876   3.288 -0.5620  0.6280 -0.8221
  770MOL0     C 1562   8.329   1.243   3.429  0.0072 -0.2493  0.2983
  770MOL0     C 1563   8.363   1.184   3.555  0.5582 -0.1957  0.1983
  770MOL0     C 1564   8.462   1.237   3.634  0.0611 -0.0319  0.0315
  770MOL0     C 1565   8.528   1.352   3.610 -0.5754 -0.3417  0.0034
  770MOL0     O 1566   8.632   1.383   3.688 -0.3227 -0.5591 -0.0968
  770MOL0     C 1567   8.758   1.319   3.665 -0.8582  0.5406  0.6509
  770MOL0     C 1568   8.773   1.221   3.784 -0.3179  0.1536  0.6215
  770MOL0     C 1569   8.797   1.286   3.924 -0.0184 -0.0115 -0.7507
  770MOL0     C 1570   8.705   1.210   4.026  0.2173 -0.4388 -0.4404
  770MOL0     C 1571   8.763   1.207   4.162 -0.5872  0.1747 -0.1356
  770MOL0     C 1572   8.811   1.189   4.275 -0.2877 -0.1694 -0.3066
  770MOL0     C 1573   8.481   1.426   3.501  0.1861  0.5287  0.3044
  770MOL0     C 1574   8.398   1.368   3.408 -0.1263 -0.0481 -0.1312
  770MOL0     H 1575   7.940   1.168   3.335 -0.7527  0.9601 -2.5235
  770MOL0     H 1576   7.748   1.040   3.246  2.3647  2.7054 -2.1335
  770MOL0     H 1577   7.835   0.605   3.150 -0.1906 -0.5012 -1.7184
  770MOL0     H 1578   7.846   0.722   3.019  3.5445 -0.1205  2.1460
  770MOL0     H 1579   7.566   0.675   3.057 -0.3551 -0.7930  1.7989
  770MOL0     H 1580   7.640   0.511   3.086  0.4111 -0.5097 -0.2240
  770MOL0     H 1581   7.695   0.687   2.843 -1.1243  0.6503 -0.2792
  770MOL0     H 1582   7.536   0.601   2.857  0.2229  0.1165 -0.7630
  770MOL0     H 1583   7.682   0.474   2.716  0.3742  2.1783 -0.0876
  770MOL0     H 1584   7.814   0.464   2.836  0.7497  0.0196 -0.5781
  770MOL0     H 1585   7.626   0.320   2.983 -3.2214  1.1255 -0.8055
  770MOL0     H 1586   7.690   0.244   2.849 -0.5494 -0.7166  3.0323
  770MOL0     H 1587   7.509   0.307   2.704 -0.1437 -2.5763  0.6031
  770MOL0     H 1588   7.438   0.395   2.841  1.1729 -0.7956  0.9211
  770MOL0     H 1589   7.378   0.140   2.756  1.0556  1.5591 -1.1128
  770MOL0     H 1590   7.503   0.102   2.869  0.5522 -0.2541 -2.5747
  770MOL0     H 1591   7.270   0.270   2.956 -0.2465 -0.0207  0.6324
  770MOL0     H 1592   7.405   0.237   3.050 -2.7868 -0.2272  0.9570
  770MOL0     H 1593   7.193  -0.007   2.840 -0.4783  0.5734  0.4231
  770MOL0     H 1594   7.169  -0.323   3.069  1.1068  0.8795 -0.7226
  770MOL0     H 1595   7.131  -0.291   2.897  1.4366  1.9436 -1.8541
  770MOL0     H 1596   6.942  -0.131   3.044  3.0842  1.9374  1.8514
  770MOL0     H 1597   6.986  -0.252   3.159 -0.1551  1.7750  0.5372
  770MOL0     H 1598   6.870  -0.283   2.876  2.7202  2.5935  0.5695
  770MOL0     H 1599   6.906  -0.421   2.978  1.0671 -0.5046 -1.3614
  770MOL0     H 1600   6.687  -0.213   2.992  1.1570  1.8312 -0.4078
  770MOL0     H 1601   6.750  -0.269   3.156 -1.0307 -0.2387  0.2780
  770MOL0     H 1602   6.515  -0.501   2.882 -2.8925 -1.2174 -1.3866
  770MOL0     H 1603   6.266  -0.500   2.874  0.3824 -3.0669  0.7389
  770MOL0     H 1604   5.918  -0.071   3.169  1.0002 -2.0572  1.5481
  770MOL0     H 1605   5.654  -0.034   3.182  0.4567  0.4431 -2.1473
  770MOL0     H 1606   5.403  -0.366   3.266  0.0444 -0.3196 -0.3300
  770MOL0     H 1607   5.384  -0.392   3.092  2.1573 -0.2065  0.7700
  770MOL0     H 1608   5.210  -0.201   3.098  1.3301  2.6260  0.6606
  770MOL0     H 1609   5.236  -0.203   3.274  3.3400  2.7107 -1.9395
  770MOL0     H 1610   5.157  -0.457   3.279 -1.1644 -0.6240  0.0245
  770MOL0     H 1611   5.146  -0.456   3.106 -0.9684  1.3211 -1.9138
  770MOL0     H 1612   4.998  -0.252   3.279 -1.0593 -2.2598  2.3251
  770MOL0     H 1613   4.987  -0.277   3.093  0.2715  0.0440 -0.2566
  770MOL0     H 1614   4.901  -0.461   3.326 -1.0927 -0.2596 -0.7853
  770MOL0     H 1615   4.885  -0.498   3.151  1.5343 -0.7139  1.0556
  770MOL0     H 1616   4.707  -0.326   3.152 -0.3104 -2.3851 -0.3993
  770MOL0     H 1617   4.753  -0.281   3.311  1.1966  0.7565 -2.1079
  770MOL0     H 1618   4.646  -0.566   3.248  3.3031  0.5956  0.0749
  770MOL0     H 1619   4.640  -0.497   3.402  2.8242  0.7878 -0.1679
  770MOL0     H 1620   4.470  -0.317   3.319 -0.5689  0.1156 -2.7157
  770MOL0     H 1621   4.416  -0.487   3.343  1.4065 -3.4589 -1.1287
  770MOL0     H 1622   5.593  -0.441   3.071  0.6226 -0.4274  1.3735
  770MOL0     H 1623   5.844  -0.463   3.068  1.1698 -0.2022  2.1254
  770MOL0     H 1624   6.254  -0.243   3.222  0.5802  1.0175 -0.1092
  770MOL0     H 1625   6.497  -0.265   3.235 -3.3160  2.3134 -0.6938
  770MOL0     H 1626   7.998   0.689   3.239  0.6780  0.8693  1.0799
  770MOL0     H 1627   8.186   0.833   3.312 -0.1664  1.3033 -1.1971
  770MOL0     H 1628   8.319   1.092   3.593  1.0179 -2.1711 -3.5554
  770MOL0     H 1629   8.483   1.192   3.730  0.9178  2.7788  1.2965
  770MOL0     H 1630   8.832   1.398   3.652 -1.1481  1.0635  2.0124
  770MOL0     H 1631   8.762   1.260   3.573  2.3644  3.1035 -1.0766
  770MOL0     H 1632   8.685   1.156   3.781  1.3326 -2.2504  1.3556
  770MOL0     H 1633   8.856   1.157   3.751 -2.8389 -1.7459 -2.7441
  770MOL0     H 1634   8.759   1.388   3.912  1.0490  0.1492 -3.8542
  770MOL0     H 1635   8.901   1.279   3.955  0.2453  0.1969 -1.5523
  770MOL0     H 1636   8.605   1.256   4.027  0.6303  0.5229 -1.5423
  770MOL0     H 1637   8.683   1.106   3.996 -0.5127 -0.5448  0.4213
  770MOL0     H 1638   8.848   1.169   4.373  0.1172  0.9873 -0.2141
  770MOL0     H 1639   8.523   1.521   3.472 -1.2453  1.4680  1.1824
  770MOL0     H 1640   8.394   1.419   3.312  0.0990  0.3407  0.0656
  771MOL0     O 1641   8.856   8.119   0.639 -1.0087 -0.0131 -0.5866
  771MOL0     C 1642   8.820   8.025   0.567  0.0474 -0.0910  0.7973
  771MOL0     O 1643   8.689   7.987   0.539 -1.0197  0.1765  1.0284
  771MOL0     C 1644   8.584   8.064   0.595  0.1374  0.0932 -0.2186
  771MOL0     C 1645   8.478   8.107   0.518  0.6993  0.2936  0.3136
  771MOL0     C 1646   8.370   8.170   0.580 -0.3619 -0.2687 -0.5282
  771MOL0     C 1647   8.380   8.196   0.716 -0.1800  0.7786  0.6939
  771MOL0     O 1648   8.280   8.268   0.770  0.3529  0.4897  0.5318
  771MOL0     C 1649   8.296   8.343   0.887 -0.0935  1.1790  0.9195
  771MOL0     C 1650   8.167   8.409   0.941 -0.3467 -0.8313  0.7462
  771MOL0     C 1651   8.129   8.547   0.863  0.1757 -0.5994 -0.5976
  771MOL0     C 1652   8.131   8.529   0.714  0.6614 -0.2131 -0.2192
  771MOL0     C 1653   8.073   8.647   0.626  0.2502 -0.6845 -1.3209
  771MOL0     C 1654   7.980   8.582   0.523  0.2217  0.4529 -0.2214
  771MOL0     C 1655   7.924   8.706   0.449  0.2684  0.9394 -1.1382
  771MOL0     C 1656   7.783   8.675   0.394  0.7832  0.3272 -0.2793
  771MOL0     N 1657   7.669   8.708   0.485 -1.0803 -0.0311 -0.5176
  771MOL0     C 1658   7.553   8.646   0.469 -1.1011  0.1417  0.3480
  771MOL0     C 1659   7.496   8.667   0.590 -0.7755 -0.7511 -0.0431
  771MOL0     C 1660   7.352   8.628   0.607  0.1602  0.6357 -0.3201
  771MOL0     C 1661   7.301   8.684   0.748 -0.0415  0.6197  0.1530
  771MOL0     C 1662   7.270   8.835   0.722 -0.6977 -0.2912 -0.2580
  771MOL0     C 1663   7.149   8.890   0.641  0.4259  0.0125  0.3413
  771MOL0     O 1664   7.035   8.806   0.678  0.3725 -0.5005 -0.2155
  771MOL0     C 1665   6.907   8.853   0.699  0.1541 -0.9744  0.8016
  771MOL0     C 1666   6.858   8.968   0.641 -0.7766 -0.8868  0.3135
  771MOL0     C 1667   6.731   9.012   0.671  0.1345 -1.0205 -0.3624
  771MOL0     C 1668   6.640   8.932   0.740  0.5887  0.3935  0.2683
  771MOL0     C 1669   6.492   8.972   0.764 -1.0534 -0.3008  0.3507
  771MOL0     O 1670   6.457   9.099   0.728  0.9171  0.0972 -0.2276
  771MOL0     C 1671   6.336   9.159   0.759 -0.1893  0.4719 -0.0689
  771MOL0     C 1672   6.327   9.285   0.811 -0.8871 -0.0637  0.4486
  771MOL0     C 1673   6.206   9.343   0.839 -0.0071 -0.2681 -0.1454
  771MOL0     C 1674   6.089   9.272   0.831 -0.1812  0.3659  0.2262
  771MOL0     O 1675   5.969   9.324   0.863  0.1376  0.4385  0.5610
  771MOL0     C 1676   5.875   9.305   0.756  0.1653  0.2052 -1.0350
  771MOL0     C 1677   5.787   9.433   0.751 -0.5377  1.0959  0.2376
  771MOL0     C 1678   5.820   9.546   0.667  0.0970 -0.3907 -0.8106
  771MOL0     C 1679   5.958   9.623   0.698  0.0374  0.8714  0.2359
  771MOL0     C 1680   5.964   9.748   0.611 -0.4771 -0.3854  0.0520
  771MOL0     C 1681   6.101   9.796   0.597 -0.3596  0.5383  0.5809
  771MOL0     C 1682   6.151   9.860   0.727 -0.3439  0.3703 -0.3052
  771MOL0     C 1683   6.305   9.882   0.738 -0.1925  0.1730  0.1245
  771MOL0    Cl 1684   6.401   9.726   0.746  0.1304 -0.0896 -0.6721
  771MOL0     C 1685   6.105   9.135   0.791  0.3748  0.0058 -0.4996
  771MOL0     C 1686   6.224   9.083   0.750 -0.2357  0.2982  0.2645
  771MOL0     O 1687   6.425   8.892   0.825 -0.3617 -0.5209 -0.3937
  771MOL0     C 1688   6.689   8.807   0.788  0.0057  0.3296  0.0655
  771MOL0     C 1689   6.818   8.768   0.763 -0.7970 -0.7763 -0.3132
  771MOL0     N 1690   7.579   8.726   0.677 -0.5322  0.0886  0.1752
  771MOL0     N 1691   7.688   8.757   0.612  0.0023  0.4263 -0.1282
  771MOL0     C 1692   8.499   8.170   0.787  0.4305 -0.6050  0.0519
  771MOL0     C 1693   8.590   8.101   0.732  0.3269  0.3437  0.3826
  771MOL0     C 1694   8.937   7.946   0.504 -0.4216 -0.2416  0.8587
  771MOL0     C 1695   9.071   7.971   0.516 -1.1105 -0.2876  0.6481
  771MOL0     C 1696   9.175   7.892   0.458 -0.1663  0.1087 -0.1740
  771MOL0     C 1697   9.136   7.783   0.372  0.4355 -0.4358  0.0404
  771MOL0     O 1698   9.247   7.721   0.319  0.0042 -0.0934 -0.7110
  771MOL0     C 1699   9.233   7.619   0.228 -0.3021  0.3014 -0.3658
  771MOL0     C 1700   9.369   7.548   0.229 -0.3610 -0.2005  0.1178
  771MOL0     C 1701   9.379   7.445   0.120 -0.1397 -0.6100 -0.0217
  771MOL0     C 1702   9.410   7.302   0.181  0.5443 -0.0133 -0.0954
  771MOL0     C 1703   9.546   7.289   0.224  1.0346  0.0691  0.6764
  771MOL0     C 1704   9.656   7.261   0.260 -0.3452  0.4369  0.4987
  771MOL0     C 1705   8.997   7.758   0.352  0.6662  0.4175  0.8599
  771MOL0     C 1706   8.902   7.833   0.423 -0.6616 -0.4062 -0.4038
  771MOL0     H 1707   8.484   8.082   0.413  3.0208 -1.5170  0.7912
  771MOL0     H 1708   8.283   8.201   0.522 -1.3430  3.0489  2.3726
  771MOL0     H 1709   8.380   8.411   0.870  0.3333  0.5114  0.3166
  771MOL0     H 1710   8.328   8.269   0.961  2.7943 -2.0820 -3.0669
  771MOL0     H 1711   8.184   8.433   1.046  2.6778  0.9337 -0.0552
  771MOL0     H 1712   8.087   8.335   0.932 -0.5964 -0.6204  1.1905
  771MOL0     H 1713   8.207   8.623   0.878  0.4384 -1.4082  2.8532
  771MOL0     H 1714   8.033   8.586   0.896 -0.4752 -1.8724 -0.9598
  771MOL0     H 1715   8.231   8.496   0.686 -0.3799 -4.7596  0.6788
  771MOL0     H 1716   8.066   8.445   0.689  0.3967 -0.0661 -0.0318
  771MOL0     H 1717   8.161   8.695   0.582  0.0225  0.4028 -0.6243
  771MOL0     H 1718   8.016   8.716   0.689  2.6152  0.3336 -0.1715
  771MOL0     H 1719   7.888   8.536   0.562  0.3734 -1.6861 -2.1528
  771MOL0     H 1720   8.025   8.504   0.460 -2.1021 -0.9693 -0.2601
  771MOL0     H 1721   7.921   8.794   0.514 -1.7462 -0.4188  0.7312
  771MOL0     H 1722   7.993   8.738   0.371  0.8814  0.1865 -0.9131
  771MOL0     H 1723   7.769   8.575   0.352  0.3936  2.1314 -5.0528
  771MOL0     H 1724   7.767   8.750   0.317  3.0452  3.6542  2.2429
  771MOL0     H 1725   7.508   8.601   0.381  2.6831 -2.3397 -0.5899
  771MOL0     H 1726   7.330   8.521   0.603 -4.3857  1.3282  0.8752
  771MOL0     H 1727   7.288   8.686   0.539 -1.7048  2.4803  2.7591
  771MOL0     H 1728   7.375   8.695   0.827  1.3201  3.5526 -1.3367
  771MOL0     H 1729   7.213   8.629   0.783  1.5402 -0.5001  2.5886
  771MOL0     H 1730   7.269   8.886   0.818  1.6752  1.8374 -1.2485
  771MOL0     H 1731   7.359   8.878   0.675  0.0528 -1.3193  0.1885
  771MOL0     H 1732   7.176   8.881   0.535 -0.8800  1.7019 -0.1647
  771MOL0     H 1733   7.138   8.997   0.661  0.6463  0.0767  0.1367
  771MOL0     H 1734   6.915   9.025   0.569 -1.2775 -1.1842 -0.3293
  771MOL0     H 1735   6.704   9.105   0.622  1.7927 -0.5215 -0.3637
  771MOL0     H 1736   6.419   9.342   0.820 -1.6431  0.9803  2.2160
  771MOL0     H 1737   6.195   9.443   0.878  0.7030 -1.2666  2.9195
  771MOL0     H 1738   5.823   9.212   0.778  1.1818 -0.1973 -0.2047
  771MOL0     H 1739   5.926   9.288   0.661  1.6727 -0.9642 -0.0825
  771MOL0     H 1740   5.774   9.467   0.855 -1.1657 -0.5492  0.7399
  771MOL0     H 1741   5.689   9.401   0.714 -0.5628  1.1768  0.2341
  771MOL0     H 1742   5.747   9.627   0.681 -0.4211 -0.8376 -0.8891
  771MOL0     H 1743   5.812   9.518   0.561 -1.2443  3.3274 -1.8533
  771MOL0     H 1744   5.972   9.660   0.799  3.3337  2.3261 -0.6257
  771MOL0     H 1745   6.045   9.560   0.676  0.1327  1.8414 -2.6113
  771MOL0     H 1746   5.907   9.833   0.649  0.2925  0.0411  0.2611
  771MOL0     H 1747   5.929   9.716   0.512  0.7522 -0.1497 -0.4648
  771MOL0     H 1748   6.097   9.866   0.514 -1.1160  1.7037  1.5694
  771MOL0     H 1749   6.165   9.715   0.561 -1.4434 -0.2690  0.3972
  771MOL0     H 1750   6.107   9.959   0.737 -1.1679 -0.0494  0.4218
  771MOL0     H 1751   6.117   9.822   0.824  1.6549  1.2495  0.7924
  771MOL0     H 1752   6.340   9.941   0.824  0.2420  0.6179 -0.3548
  771MOL0     H 1753   6.340   9.941   0.654  0.7099  1.1865  1.1713
  771MOL0     H 1754   6.014   9.078   0.773 -0.3280  0.2602  1.9489
  771MOL0     H 1755   6.228   8.979   0.719 -2.3018  0.4617 -0.6867
  771MOL0     H 1756   6.627   8.740   0.847 -2.5317  2.4897  0.0825
  771MOL0     H 1757   6.840   8.674   0.813 -1.1203  0.1030  1.5800
  771MOL0     H 1758   8.514   8.201   0.890  2.4475 -1.1966 -0.0113
  771MOL0     H 1759   8.672   8.063   0.792  1.8539 -0.2530 -1.9292
  771MOL0     H 1760   9.090   8.050   0.587 -2.4518  0.2996  0.3885
  771MOL0     H 1761   9.279   7.917   0.474 -0.8537  1.0633  3.6367
  771MOL0     H 1762   9.216   7.663   0.129  4.8516  0.4532 -1.4949
  771MOL0     H 1763   9.151   7.559   0.268 -1.1024  0.9037 -1.0797
  771MOL0     H 1764   9.451   7.618   0.209  3.0324 -4.2209 -1.6347
  771MOL0     H 1765   9.407   7.512   0.324 -0.4086  1.6740  0.8966
  771MOL0     H 1766   9.444   7.480   0.038  1.3008 -3.8497 -0.4326
  771MOL0     H 1767   9.285   7.447   0.064 -1.6794  0.8254  2.4210
  771MOL0     H 1768   9.350   7.266   0.266  1.2985  0.4872  0.6660
  771MOL0     H 1769   9.397   7.224   0.105  2.0939  0.2802 -0.6958
  771MOL0     H 1770   9.755   7.236   0.292  0.8006  3.6624 -0.2112
  771MOL0     H 1771   8.956   7.687   0.280  1.2684  0.6427  0.2834
  771MOL0     H 1772   8.795   7.819   0.410 -0.6485  1.1723 -2.9117
  772MOL0     O 1773   5.796   0.816   3.637  0.0320 -0.4730 -0.0893
  772MOL0     C 1774   5.905   0.833   3.587  0.1318  0.5619 -0.7405
  772MOL0     O 1775   6.001   0.740   3.570  0.1602 -0.4258 -0.3378
  772MOL0     C 1776   5.967   0.606   3.583  0.1676  0.2447 -0.1372
  772MOL0     C 1777   5.881   0.550   3.489 -0.7815 -0.2469  0.3153
  772MOL0     C 1778   5.847   0.413   3.501 -0.2251 -0.0145  0.1146
  772MOL0     C 1779   5.881   0.340   3.615 -0.5894 -0.6569  0.2034
  772MOL0     O 1780   5.835   0.215   3.639  0.2000 -0.0009  0.0530
  772MOL0     C 1781   5.709   0.174   3.573  0.4704 -0.8633  0.6756
  772MOL0     C 1782   5.683   0.031   3.607  0.1913  0.0570 -0.7090
  772MOL0     C 1783   5.533  -0.002   3.592  0.6272  0.1235  0.1105
  772MOL0     C 1784   5.507  -0.153   3.585 -0.1404 -0.2314 -0.3108
  772MOL0     C 1785   5.359  -0.177   3.578  0.3648  0.5466  0.0862
  772MOL0     C 1786   5.337  -0.325   3.565  0.7479 -0.2596  0.1717
  772MOL0     C 1787   5.192  -0.364   3.551 -1.2731 -0.6910  0.2445
  772MOL0     C 1788   5.114  -0.328   3.669  0.4394  0.9028  1.0196
  772MOL0     N 1789   4.965  -0.357   3.659 -0.5760  0.3139  0.0732
  772MOL0     C 1790   4.872  -0.253   3.676  0.0966  0.7301  0.3306
  772MOL0     C 1791   4.753  -0.311   3.644  0.0272  0.6993  0.1449
  772MOL0     C 1792   4.620  -0.245   3.639  0.3972 -0.6174 -0.4833
  772MOL0     C 1793   4.509  -0.340   3.693 -0.4001 -0.4693  0.7440
  772MOL0     C 1794   4.362  -0.284   3.669 -1.2117  0.9697  0.1855
  772MOL0     C 1795   4.261  -0.369   3.750  0.2903 -0.5881 -0.1436
  772MOL0     O 1796   4.130  -0.309   3.734 -0.2287  0.0580  0.5994
  772MOL0     C 1797   4.032  -0.367   3.812 -0.6833 -0.6564 -0.0455
  772MOL0     C 1798   4.040  -0.490   3.885 -0.2164  0.2960 -0.0209
  772MOL0     C 1799   3.943  -0.536   3.979 -0.3759 -0.0995 -0.2444
  772MOL0     C 1800   3.819  -0.464   3.990  0.1208  0.1629  0.5421
  772MOL0     C 1801   3.723  -0.512   4.082 -0.0654 -0.9360  0.3726
  772MOL0     O 1802   3.594  -0.489   4.044 -0.2130  0.2786 -0.6908
  772MOL0     C 1803   3.490  -0.563   4.095  0.1008 -0.4437  1.4384
  772MOL0     C 1804   3.500  -0.690   4.153 -0.2546 -1.0043  0.0326
  772MOL0     C 1805   3.391  -0.746   4.227  0.6364  0.5779 -0.1906
  772MOL0     C 1806   3.272  -0.675   4.233 -0.6875 -0.4884 -1.2830
  772MOL0     O 1807   3.171  -0.745   4.300  0.5329  0.1587 -0.1579
  772MOL0     C 1808   3.033  -0.707   4.279 -0.0868  0.2340  0.4760
  772MOL0     C 1809   2.939  -0.832   4.311  0.5210  0.9034  0.0211
  772MOL0     C 1810   2.797  -0.788   4.350  0.6944  0.9328  0.7392
  772MOL0     C 1811   2.728  -0.702   4.235  0.1333  0.6918 -0.3711
  772MOL0     C 1812   2.697  -0.782   4.109  0.3052  0.2783 -1.1110
  772MOL0     C 1813   2.566  -0.724   4.051  0.4826  0.1889  0.5926
  772MOL0     C 1814   2.559  -0.777   3.911 -0.3825  0.5366  0.2383
  772MOL0     C 1815   2.435  -0.740   3.831  0.7199  0.6426  0.2424
  772MOL0    Cl 1816   2.376  -0.568   3.852  0.1013  1.0040 -0.4081
  772MOL0     C 1817   3.262  -0.547   4.175 -0.4469  0.3198  0.2751
  772MOL0     C 1818   3.377  -0.488   4.108 -0.4143  0.2803 -0.2357
  772MOL0     O 1819   3.763  -0.567   4.183  0.6523  0.1066  0.6350
  772MOL0     C 1820   3.801  -0.350   3.916 -0.2772 -0.3190 -0.4118
  772MOL0     C 1821   3.909  -0.300   3.833  0.6834 -0.9059 -0.2899
  772MOL0     N 1822   4.772  -0.447   3.611  0.0880  0.0748  0.0712
  772MOL0     N 1823   4.902  -0.470   3.608  0.2828  0.1106  0.0017
  772MOL0     C 1824   5.964   0.403   3.706  0.4063 -0.2906  0.4117
  772MOL0     C 1825   6.014   0.536   3.694 -0.3454  0.1745 -0.0281
  772MOL0     C 1826   5.918   0.965   3.538  0.5773 -1.7619 -0.2775
  772MOL0     C 1827   5.865   1.072   3.606 -0.1985  0.0562  0.0479
  772MOL0     C 1828   5.886   1.203   3.568  0.3635  1.0536  0.4977
  772MOL0     C 1829   5.939   1.233   3.451  0.0068 -0.2187  0.4446
  772MOL0     O 1830   5.953   1.360   3.404  1.0525 -0.5891  0.7544
  772MOL0     C 1831   5.835   1.432   3.366 -0.4938  0.2728  0.4042
  772MOL0     C 1832   5.777   1.367   3.233 -0.0746 -0.8416 -0.2154
  772MOL0     C 1833   5.647   1.449   3.189 -0.3119  0.5591  0.0145
  772MOL0     C 1834   5.529   1.425   3.288  0.6173 -0.5463 -0.0686
  772MOL0     C 1835   5.482   1.278   3.293 -0.3021 -0.0812 -0.3333
  772MOL0     C 1836   5.437   1.165   3.298  0.6335 -0.0749  0.5400
  772MOL0     C 1837   5.995   1.124   3.375 -0.5385 -0.7197  0.6512
  772MOL0     C 1838   5.977   0.990   3.414  0.3439  0.8888  0.2113
  772MOL0     H 1839   5.855   0.612   3.404 -2.7390 -3.4550 -1.6012
  772MOL0     H 1840   5.790   0.366   3.422  0.6742  3.2436 -2.7136
  772MOL0     H 1841   5.704   0.178   3.464  1.7481  0.0306  0.6385
  772MOL0     H 1842   5.636   0.240   3.621  3.4726  4.9480 -1.6731
  772MOL0     H 1843   5.712   0.017   3.712  0.9935 -1.5591 -1.1147
  772MOL0     H 1844   5.737  -0.038   3.541 -0.6244 -0.2998 -1.0153
  772MOL0     H 1845   5.492   0.030   3.496  0.0109 -2.9922 -0.7814
  772MOL0     H 1846   5.495   0.050   3.681  2.5006  1.2588  0.2972
  772MOL0     H 1847   5.553  -0.187   3.492 -0.0104  2.2358 -1.2315
  772MOL0     H 1848   5.557  -0.206   3.666 -3.2333 -1.7872  0.7459
  772MOL0     H 1849   5.311  -0.131   3.492 -2.2112 -0.9491  0.6106
  772MOL0     H 1850   5.307  -0.140   3.667  0.1707 -0.8608  0.5901
  772MOL0     H 1851   5.381  -0.377   3.651  2.0241 -0.7545 -0.7554
  772MOL0     H 1852   5.394  -0.375   3.487 -0.3474 -0.6589 -0.3937
  772MOL0     H 1853   5.149  -0.310   3.466 -0.1217  0.4817  0.3734
  772MOL0     H 1854   5.189  -0.473   3.542 -0.9751 -0.5706 -1.7514
  772MOL0     H 1855   5.121  -0.222   3.692 -1.3299  1.2519  0.1159
  772MOL0     H 1856   5.156  -0.392   3.747  2.5757  3.0717  1.7812
  772MOL0     H 1857   4.881  -0.154   3.719  0.9838  0.9447 -0.3322
  772MOL0     H 1858   4.598  -0.232   3.532 -1.6950  3.8036  0.2537
  772MOL0     H 1859   4.611  -0.147   3.686 -2.2018  0.0896 -2.2239
  772MOL0     H 1860   4.535  -0.349   3.799  2.9335 -1.2815 -0.0457
  772MOL0     H 1861   4.514  -0.438   3.644 -1.4659 -1.0535  1.7496
  772MOL0     H 1862   4.356  -0.180   3.700 -1.3767  0.2077  3.0315
  772MOL0     H 1863   4.342  -0.293   3.562  0.1942  2.4148 -0.2345
  772MOL0     H 1864   4.287  -0.362   3.856 -0.8818 -2.7005  0.3490
  772MOL0     H 1865   4.282  -0.470   3.713  0.5687 -1.2927  1.8023
  772MOL0     H 1866   4.128  -0.552   3.872  1.5927  2.8658 -0.7876
  772MOL0     H 1867   3.969  -0.622   4.039 -0.3292  2.3161  3.5560
  772MOL0     H 1868   3.599  -0.733   4.155 -0.0849 -0.5830  2.0808
  772MOL0     H 1869   3.391  -0.849   4.261 -3.1739 -0.4023 -2.4454
  772MOL0     H 1870   3.014  -0.686   4.173 -0.1927 -4.6910 -0.7112
  772MOL0     H 1871   2.994  -0.620   4.333 -1.0967 -0.5093  0.9712
  772MOL0     H 1872   2.987  -0.879   4.396 -0.6955  1.7558  1.2297
  772MOL0     H 1873   2.937  -0.905   4.230 -0.3000 -0.5928  1.3310
  772MOL0     H 1874   2.816  -0.710   4.424  0.4589  1.8790 -0.1640
  772MOL0     H 1875   2.741  -0.874   4.388  0.5241 -0.0412 -1.5259
  772MOL0     H 1876   2.628  -0.677   4.269 -0.9270  2.0470 -4.0337
  772MOL0     H 1877   2.783  -0.611   4.212  2.3502 -0.3900  0.3673
  772MOL0     H 1878   2.710  -0.889   4.129  2.6790  0.8747  1.2464
  772MOL0     H 1879   2.781  -0.764   4.042 -1.5581  1.6403 -3.1952
  772MOL0     H 1880   2.572  -0.615   4.049 -0.5344  0.2426  0.1482
  772MOL0     H 1881   2.480  -0.742   4.116 -0.1293  0.5654 -0.0996
  772MOL0     H 1882   2.642  -0.735   3.853  0.4348  1.9284  2.2979
  772MOL0     H 1883   2.566  -0.886   3.916  1.2113  0.4747 -1.8232
  772MOL0     H 1884   2.365  -0.809   3.879 -2.0719  0.6494 -3.3603
  772MOL0     H 1885   2.446  -0.766   3.725  1.3755  1.6955  0.0335
  772MOL0     H 1886   3.170  -0.490   4.171 -0.1028  0.8306 -1.0504
  772MOL0     H 1887   3.370  -0.391   4.059 -0.2097  0.7508  0.6367
  772MOL0     H 1888   3.706  -0.299   3.915  0.1444  0.4762 -0.7996
  772MOL0     H 1889   3.890  -0.206   3.781  2.3599 -0.4230 -0.0951
  772MOL0     H 1890   5.994   0.348   3.794 -1.0827 -0.2847  0.9577
  772MOL0     H 1891   6.083   0.584   3.762  1.2210  2.5427 -2.9978
  772MOL0     H 1892   5.830   1.068   3.709  0.3576 -3.3180  0.2397
  772MOL0     H 1893   5.846   1.279   3.635  1.7879  2.0091  0.3092
  772MOL0     H 1894   5.861   1.535   3.338  0.8764 -0.2613 -0.3930
  772MOL0     H 1895   5.757   1.443   3.441 -1.5349  2.8935 -0.9271
  772MOL0     H 1896   5.850   1.364   3.152 -1.3100  1.2631 -1.5076
  772MOL0     H 1897   5.746   1.262   3.240  0.6317 -0.9566  3.1406
  772MOL0     H 1898   5.613   1.421   3.089  1.1236 -0.9906 -0.0765
  772MOL0     H 1899   5.672   1.555   3.173  3.5327 -0.3718 -1.0460
  772MOL0     H 1900   5.560   1.463   3.386  1.0853 -0.6031 -0.1947
  772MOL0     H 1901   5.441   1.481   3.254 -0.0063 -1.8688 -0.7223
  772MOL0     H 1902   5.398   1.066   3.290  0.6277 -0.1313  1.2149
  772MOL0     H 1903   6.050   1.143   3.283  1.2378 -1.8147  1.4469
  772MOL0     H 1904   6.021   0.917   3.347  1.3074  1.1547  0.5405
  773MOL0     O 1905   1.159   7.038   0.497  0.2315 -0.1762 -0.3501
  773MOL0     C 1906   1.178   6.915   0.476 -0.3254 -0.3522 -0.6692
  773MOL0     O 1907   1.096   6.803   0.517 -0.2422  0.3225  0.3733
  773MOL0     C 1908   0.982   6.811   0.595 -0.4552 -0.0538 -0.2532
  773MOL0     C 1909   0.939   6.915   0.678 -0.6524 -0.4624 -0.4310
  773MOL0     C 1910   0.821   6.904   0.759  0.1014  0.2743 -0.4765
  773MOL0     C 1911   0.747   6.781   0.757 -0.2274  0.0880  0.5216
  773MOL0     O 1912   0.638   6.761   0.837  0.4085 -0.0279 -0.0867
  773MOL0     C 1913   0.548   6.867   0.874 -0.1729 -0.4357 -1.0259
  773MOL0     C 1914   0.497   6.855   1.023 -0.6207  0.0351  0.5791
  773MOL0     C 1915   0.397   6.958   1.050  0.2833 -0.1188  0.1132
  773MOL0     C 1916   0.344   6.945   1.205  0.5157 -0.2650  0.1220
  773MOL0     C 1917   0.215   7.035   1.224 -0.2556  0.9447 -0.0626
  773MOL0     C 1918   0.196   6.998   1.372  1.0139 -0.1590  1.1770
  773MOL0     C 1919   0.065   7.062   1.411 -1.0890 -0.2447 -0.6358
  773MOL0     C 1920   0.027   7.013   1.553  0.0826 -0.8376 -0.2532
  773MOL0     N 1921  -0.110   7.062   1.574  0.7516 -0.1196 -0.4467
  773MOL0     C 1922  -0.188   7.150   1.496 -0.5092  0.2949 -0.4963
  773MOL0     C 1923  -0.269   7.215   1.587 -0.0919  0.0577  0.3096
  773MOL0     C 1924  -0.370   7.326   1.560 -0.4342 -0.5172  0.1617
  773MOL0     C 1925  -0.502   7.259   1.579 -0.7383  0.2264 -0.4344
  773MOL0     C 1926  -0.611   7.375   1.583  0.1885  0.6648  0.0200
  773MOL0     C 1927  -0.761   7.323   1.583  0.1641 -0.2960  0.3144
  773MOL0     O 1928  -0.788   7.197   1.517  0.5584  0.0965 -0.0324
  773MOL0     C 1929  -0.851   7.101   1.588 -0.6393 -0.2881 -1.7236
  773MOL0     C 1930  -0.982   7.065   1.573  0.6185  0.3344  0.3368
  773MOL0     C 1931  -1.041   6.959   1.644 -0.2239 -0.1142  0.8361
  773MOL0     C 1932  -0.971   6.899   1.751  0.2741  0.4997 -0.0290
  773MOL0     C 1933  -1.033   6.795   1.830 -0.4376  0.5284 -0.0252
  773MOL0     O 1934  -0.942   6.695   1.864 -0.2032 -0.3042  1.0721
  773MOL0     C 1935  -0.994   6.586   1.933  0.1946  0.3315 -0.1721
  773MOL0     C 1936  -0.953   6.588   2.061  0.0795  1.1641 -0.3410
  773MOL0     C 1937  -0.984   6.479   2.141  0.8847  0.8929  0.5705
  773MOL0     C 1938  -1.072   6.374   2.098  0.0376  0.7014 -0.1720
  773MOL0     O 1939  -1.102   6.274   2.182 -0.3456 -0.2871 -0.4959
  773MOL0     C 1940  -1.219   6.194   2.176 -0.7270 -0.1790 -0.3312
  773MOL0     C 1941  -1.314   6.268   2.269 -0.3582 -0.1507  0.0374
  773MOL0     C 1942  -1.442   6.181   2.288 -0.6984 -0.6412  0.6134
  773MOL0     C 1943  -1.526   6.248   2.401 -0.3483  0.3064  0.8633
  773MOL0     C 1944  -1.662   6.177   2.428 -0.4936 -0.6788  1.0517
  773MOL0     C 1945  -1.766   6.256   2.511  0.3192  0.1042  0.3471
  773MOL0     C 1946  -1.731   6.274   2.651 -0.1750  0.2151  0.2693
  773MOL0     C 1947  -1.847   6.279   2.758 -1.2425  0.1773  0.7371
  773MOL0    Cl 1948  -1.947   6.425   2.733  0.2043 -0.2465 -0.3379
  773MOL0     C 1949  -1.120   6.383   1.961  0.3062  0.4700  0.0431
  773MOL0     C 1950  -1.085   6.489   1.880 -0.6798 -0.9398  0.0177
  773MOL0     O 1951  -1.151   6.797   1.846  0.6894 -0.2887 -0.1366
  773MOL0     C 1952  -0.842   6.947   1.786 -0.0976  0.2374  0.7494
  773MOL0     C 1953  -0.785   7.041   1.697 -0.1790  1.1868 -0.5937
  773MOL0     N 1954  -0.249   7.167   1.709 -0.1660 -0.0108 -0.0907
  773MOL0     N 1955  -0.161   7.074   1.708  0.5406  0.4972 -0.3786
  773MOL0     C 1956   0.787   6.679   0.677  1.2226  0.0330 -0.8051
  773MOL0     C 1957   0.900   6.694   0.604  0.6033  0.0970 -0.3296
  773MOL0     C 1958   1.302   6.875   0.404  0.2268 -0.6193 -0.4478
  773MOL0     C 1959   1.339   6.739   0.395  0.0791  0.0868  0.0623
  773MOL0     C 1960   1.451   6.701   0.336 -0.1928 -0.1500 -0.1890
  773MOL0     C 1961   1.549   6.794   0.289  0.2490 -0.8925  0.7455
  773MOL0     O 1962   1.655   6.756   0.212  0.3644  0.3130 -0.4392
  773MOL0     C 1963   1.722   6.847   0.127  0.1962  0.1572 -1.0423
  773MOL0     C 1964   1.643   6.876   0.003 -0.1826  0.2154 -0.3446
  773MOL0     C 1965   1.650   7.011  -0.063  0.3415 -0.0386  0.1398
  773MOL0     C 1966   1.785   7.033  -0.127  0.2325 -0.7976  0.3579
  773MOL0     C 1967   1.829   6.940  -0.226 -0.1684 -0.2203  0.8927
  773MOL0     C 1968   1.871   6.859  -0.306  0.0891  1.4071  0.3679
  773MOL0     C 1969   1.517   6.930   0.305 -0.4143 -0.3021 -0.1023
  773MOL0     C 1970   1.395   6.968   0.364  0.2442  0.3544 -0.1056
  773MOL0     H 1971   0.979   7.016   0.667 -1.1478 -0.1248  0.6761
  773MOL0     H 1972   0.789   6.991   0.816 -4.0621 -1.3661 -0.0244
  773MOL0     H 1973   0.465   6.863   0.803  0.2775  0.4081 -1.6072
  773MOL0     H 1974   0.587   6.965   0.847 -0.1968  0.1263  0.8033
  773MOL0     H 1975   0.571   6.873   1.100 -1.1262  1.0568  0.8493
  773MOL0     H 1976   0.457   6.754   1.035  0.0677 -0.7240 -2.5157
  773MOL0     H 1977   0.316   6.939   0.979  2.2927 -3.2695 -1.6037
  773MOL0     H 1978   0.436   7.058   1.028  0.5947  0.1763  1.8403
  773MOL0     H 1979   0.321   6.842   1.234 -3.3860  0.6941  1.0939
  773MOL0     H 1980   0.430   6.987   1.256  0.4634  2.1653 -1.6016
  773MOL0     H 1981   0.132   7.002   1.161 -0.0465 -3.1286  1.4814
  773MOL0     H 1982   0.236   7.140   1.200  0.1123  0.8949  0.0335
  773MOL0     H 1983   0.282   7.022   1.435  1.6260 -2.6389  1.3932
  773MOL0     H 1984   0.183   6.890   1.379  2.1411 -0.3256  0.9591
  773MOL0     H 1985   0.074   7.171   1.406 -2.8455 -0.0297  0.1887
  773MOL0     H 1986  -0.008   7.033   1.335  0.6252  1.6365 -3.1509
  773MOL0     H 1987   0.093   7.045   1.633 -1.8533 -0.7647  1.4042
  773MOL0     H 1988   0.021   6.903   1.554 -1.1291 -0.7904 -0.2276
  773MOL0     H 1989  -0.181   7.189   1.395  2.5192  1.0237 -0.1067
  773MOL0     H 1990  -0.377   7.357   1.456 -1.8848 -1.7561 -0.1317
  773MOL0     H 1991  -0.360   7.410   1.629 -2.2761 -0.8624  0.8794
  773MOL0     H 1992  -0.513   7.208   1.675 -2.1276  2.9188  0.9839
  773MOL0     H 1993  -0.516   7.189   1.496 -4.3115  2.3906 -1.8988
  773MOL0     H 1994  -0.601   7.435   1.674  1.5086  0.0464  0.3032
  773MOL0     H 1995  -0.601   7.435   1.492  0.7186  0.5462 -0.0035
  773MOL0     H 1996  -0.820   7.401   1.534  2.9343  0.8335 -1.4525
  773MOL0     H 1997  -0.794   7.317   1.688  4.2079 -0.7945  1.7455
  773MOL0     H 1998  -1.029   7.120   1.492  2.0374 -0.0327 -0.7794
  773MOL0     H 1999  -1.133   6.911   1.613 -0.6517  1.5652 -0.6629
  773MOL0     H 2000  -0.885   6.665   2.096  1.5300 -1.0374  2.0715
  773MOL0     H 2001  -0.958   6.467   2.246  0.9091 -0.5145  0.4198
  773MOL0     H 2002  -1.204   6.092   2.213 -0.2394 -0.1824 -0.5301
  773MOL0     H 2003  -1.255   6.178   2.074 -2.0633  0.8245 -0.0404
  773MOL0     H 2004  -1.341   6.369   2.238 -2.1404 -0.7695 -0.6105
  773MOL0     H 2005  -1.267   6.275   2.367 -0.9304 -2.6162  0.5735
  773MOL0     H 2006  -1.405   6.081   2.315  1.3381 -0.6810 -1.8844
  773MOL0     H 2007  -1.495   6.175   2.193  0.2357 -1.7075  0.1408
  773MOL0     H 2008  -1.459   6.244   2.487 -0.3393  0.0622  0.8437
  773MOL0     H 2009  -1.541   6.353   2.372  2.9727  0.1339 -2.2390
  773MOL0     H 2010  -1.644   6.079   2.472  0.1167 -1.5878 -1.0740
  773MOL0     H 2011  -1.701   6.158   2.327 -0.9536 -1.6072  1.3968
  773MOL0     H 2012  -1.863   6.207   2.510  0.6194 -0.5579  1.5853
  773MOL0     H 2013  -1.786   6.352   2.463  2.7565  0.0098 -1.0201
  773MOL0     H 2014  -1.674   6.189   2.690  0.5697  0.5197 -0.1383
  773MOL0     H 2015  -1.676   6.368   2.659 -0.3679  0.4107 -0.6869
  773MOL0     H 2016  -1.813   6.281   2.861 -0.5112  0.4267  0.4983
  773MOL0     H 2017  -1.916   6.195   2.743 -2.9837  1.8214 -1.3456
  773MOL0     H 2018  -1.184   6.309   1.914  0.7285 -0.5302  0.9908
  773MOL0     H 2019  -1.102   6.514   1.775 -0.2846  0.5300  0.2801
  773MOL0     H 2020  -0.785   6.921   1.875  4.3310  2.5628 -1.0677
  773MOL0     H 2021  -0.695   7.077   1.744 -0.8076 -0.5714  2.1882
  773MOL0     H 2022   0.739   6.582   0.677 -0.3130  0.7603  0.3924
  773MOL0     H 2023   0.933   6.604   0.552  3.5149  1.0629 -0.3505
  773MOL0     H 2024   1.267   6.665   0.429 -0.2897  0.0072 -0.8401
  773MOL0     H 2025   1.476   6.596   0.323  0.7226  0.1308 -0.7786
  773MOL0     H 2026   1.818   6.805   0.095  1.5006  4.4297 -3.5215
  773MOL0     H 2027   1.748   6.943   0.173 -0.2625 -0.1466 -0.1296
  773MOL0     H 2028   1.663   6.808  -0.081 -2.8431 -0.7989 -0.2472
  773MOL0     H 2029   1.540   6.853   0.031 -0.3907 -0.2213 -1.4026
  773MOL0     H 2030   1.628   7.091   0.009 -1.3642  0.4395 -0.8628
  773MOL0     H 2031   1.570   7.019  -0.137 -0.0065 -3.3815  0.0117
  773MOL0     H 2032   1.785   7.138  -0.157 -0.0763 -1.1849 -1.0672
  773MOL0     H 2033   1.859   7.024  -0.046 -1.7462 -0.4437  2.2999
  773MOL0     H 2034   1.920   6.786  -0.367 -1.2112  1.4128 -0.7181
  773MOL0     H 2035   1.582   7.012   0.274  2.1998 -1.3887  2.0625
  773MOL0     H 2036   1.364   7.072   0.366 -2.0310 -0.1753 -2.3072
  774MOL0     O 2037   9.815   7.890   7.123  0.3254 -0.3742  0.6110
  774MOL0     C 2038   9.835   7.845   7.240  0.8989  0.5792 -0.1990
  774MOL0     O 2039   9.916   7.895   7.337 -0.5645  0.1483  0.1327
  774MOL0     C 2040   9.963   8.030   7.334 -0.1481 -1.5459  0.1676
  774MOL0     C 2041   9.890   8.139   7.283  0.1516 -0.3970  0.6812
  774MOL0     C 2042   9.958   8.265   7.283  0.6372  0.4066 -0.0399
  774MOL0     C 2043  10.089   8.288   7.335  0.6660 -0.1988  0.0344
  774MOL0     O 2044  10.142   8.414   7.305 -0.5061 -0.5442 -0.4636
  774MOL0     C 2045  10.282   8.433   7.336 -0.1409 -1.4502  0.6120
  774MOL0     C 2046  10.318   8.578   7.291  0.3345 -0.3171  0.7831
  774MOL0     C 2047  10.286   8.678   7.402  0.5827  0.0904 -0.7229
  774MOL0     C 2048  10.322   8.812   7.353 -0.4926  0.2530 -0.2394
  774MOL0     C 2049  10.305   8.913   7.468 -0.8740  0.0356 -0.2776
  774MOL0     C 2050  10.166   8.932   7.524  0.7535 -0.2990  0.1009
  774MOL0     C 2051  10.071   9.007   7.421  0.1435 -0.0096 -0.5736
  774MOL0     C 2052   9.960   9.064   7.503 -0.1488  0.1172 -0.6422
  774MOL0     N 2053   9.856   9.124   7.415  0.4004 -0.1530  0.1273
  774MOL0     C 2054   9.732   9.066   7.387 -0.2339 -0.6419 -0.5398
  774MOL0     C 2055   9.663   9.169   7.331 -0.4048 -0.3327  0.7967
  774MOL0     C 2056   9.527   9.158   7.267  0.5861  0.3355  0.5430
  774MOL0     C 2057   9.410   9.192   7.350  0.1015 -0.9923  0.3971
  774MOL0     C 2058   9.391   9.341   7.382 -1.0212  0.1568 -0.3412
  774MOL0     C 2059   9.242   9.382   7.401  0.0887 -0.1992 -0.6214
  774MOL0     O 2060   9.165   9.395   7.282 -0.3761 -0.1053 -0.9601
  774MOL0     C 2061   9.032   9.424   7.274  0.5214  0.4721  0.8769
  774MOL0     C 2062   8.972   9.442   7.150  0.3646  0.0794 -0.7555
  774MOL0     C 2063   8.830   9.466   7.142 -0.2587  0.0860  0.8639
  774MOL0     C 2064   8.752   9.443   7.255  0.1425  0.0118 -0.6129
  774MOL0     C 2065   8.605   9.460   7.258  0.5965 -0.3737  0.3045
  774MOL0     O 2066   8.540   9.445   7.140 -0.3749 -0.3489 -1.0678
  774MOL0     C 2067   8.410   9.476   7.137  0.0916 -0.4714  1.1249
  774MOL0     C 2068   8.348   9.538   7.025  0.3545 -0.5251  0.9434
  774MOL0     C 2069   8.212   9.580   7.028  0.5383  1.0100  0.3325
  774MOL0     C 2070   8.129   9.541   7.135 -0.1376 -0.1878 -0.3421
  774MOL0     O 2071   7.993   9.556   7.148 -0.1439  0.0342 -0.0666
  774MOL0     C 2072   7.929   9.657   7.067  0.0792 -0.1698  0.6681
  774MOL0     C 2073   7.822   9.708   7.156 -0.0554  0.0534 -0.1921
  774MOL0     C 2074   7.701   9.760   7.079 -0.3057  0.0467 -0.6621
  774MOL0     C 2075   7.603   9.822   7.184 -0.1195 -0.3381  0.9638
  774MOL0     C 2076   7.480   9.883   7.115  0.8718  0.0132  0.3722
  774MOL0     C 2077   7.357   9.888   7.201 -0.6152 -0.0000  0.8608
  774MOL0     C 2078   7.233   9.948   7.117  0.2937  0.1194  0.4240
  774MOL0     C 2079   7.121   9.947   7.215 -0.6168  0.5810 -0.5977
  774MOL0    Cl 2080   7.021  10.098   7.224  0.0134  0.0066 -0.4437
  774MOL0     C 2081   8.181   9.463   7.234 -0.4076 -0.2234 -1.2395
  774MOL0     C 2082   8.320   9.433   7.236  0.6340 -0.6275  1.1146
  774MOL0     O 2083   8.548   9.499   7.362 -0.0015  0.2027 -0.1932
  774MOL0     C 2084   8.807   9.430   7.385 -1.5668  0.0872 -0.0204
  774MOL0     C 2085   8.952   9.406   7.391 -0.5381  0.2514 -0.2080
  774MOL0     N 2086   9.744   9.290   7.335  0.3504 -0.4778 -0.9987
  774MOL0     N 2087   9.849   9.257   7.403 -0.2479  0.2867 -0.1560
  774MOL0     C 2088  10.148   8.185   7.401  0.4372 -0.2058 -0.3559
  774MOL0     C 2089  10.092   8.059   7.395  0.2932  0.6261 -0.2950
  774MOL0     C 2090   9.769   7.711   7.258  0.4013 -0.2168 -0.1416
  774MOL0     C 2091   9.669   7.654   7.174 -0.4295 -0.3845  0.1311
  774MOL0     C 2092   9.613   7.528   7.195 -0.7357  0.2089 -0.1620
  774MOL0     C 2093   9.655   7.448   7.304 -0.6790  0.3663  1.4011
  774MOL0     O 2094   9.602   7.318   7.309  0.6518  0.3415 -0.8095
  774MOL0     C 2095   9.661   7.221   7.393 -1.5067 -0.2107  0.0406
  774MOL0     C 2096   9.596   7.088   7.378  0.6960 -0.4932  0.1108
  774MOL0     C 2097   9.446   7.091   7.418 -0.4938  0.2999 -0.3996
  774MOL0     C 2098   9.391   6.946   7.390  0.0231 -0.8483  0.7928
  774MOL0     C 2099   9.274   6.932   7.481  0.4794 -0.9670 -0.2056
  774MOL0     C 2100   9.180   6.902   7.553 -0.7330 -0.0278  0.8840
  774MOL0     C 2101   9.758   7.500   7.383  0.1834 -0.5647  1.3706
  774MOL0     C 2102   9.807   7.630   7.367 -0.6391  0.9517 -0.1295
  774MOL0     H 2103   9.795   8.136   7.232 -0.9664 -1.3469  2.7348
  774MOL0     H 2104   9.916   8.337   7.213  0.6396 -2.1642 -2.9379
  774MOL0     H 2105  10.356   8.375   7.280  0.3128 -1.9776  1.7330
  774MOL0     H 2106  10.305   8.422   7.443  0.8088 -0.8962  0.4788
  774MOL0     H 2107  10.280   8.606   7.192  3.5357 -2.1027 -1.0995
  774MOL0     H 2108  10.426   8.589   7.279  0.3377 -0.4971  0.6306
  774MOL0     H 2109  10.331   8.649   7.497 -1.3100 -2.8622 -0.6042
  774MOL0     H 2110  10.180   8.671   7.427  1.0284 -2.8255  0.8142
  774MOL0     H 2111  10.429   8.813   7.327 -0.2569 -1.3144  0.5201
  774MOL0     H 2112  10.258   8.850   7.273 -1.3769  2.1832  1.3150
  774MOL0     H 2113  10.338   9.004   7.418 -0.6078 -0.8664 -1.8231
  774MOL0     H 2114  10.362   8.873   7.552 -0.0788  2.0052  0.1498
  774MOL0     H 2115  10.170   8.998   7.612  1.6619 -1.0128  0.6069
  774MOL0     H 2116  10.118   8.842   7.563  0.5120  1.8277  5.6544
  774MOL0     H 2117  10.124   9.081   7.362 -0.2961  0.9604  0.2138
  774MOL0     H 2118  10.028   8.933   7.352  0.3756  0.3807 -1.1398
  774MOL0     H 2119   9.995   9.128   7.585  1.3712 -0.4547 -0.8108
  774MOL0     H 2120   9.913   8.986   7.563  3.7240 -1.1824  1.0340
  774MOL0     H 2121   9.705   8.965   7.416 -0.7645  0.8335  5.2985
  774MOL0     H 2122   9.532   9.054   7.233 -0.1588  1.1112 -2.1338
  774MOL0     H 2123   9.495   9.207   7.175 -0.2305 -0.8012  0.1969
  774MOL0     H 2124   9.416   9.143   7.447  3.0543 -0.8820  0.3536
  774MOL0     H 2125   9.324   9.149   7.298 -0.2678 -0.9887  0.9937
  774MOL0     H 2126   9.440   9.357   7.478 -2.0080 -0.6872  0.3246
  774MOL0     H 2127   9.429   9.403   7.300 -0.3569  0.2805  0.0533
  774MOL0     H 2128   9.233   9.475   7.458  0.1254 -0.8116  0.4100
  774MOL0     H 2129   9.195   9.307   7.464  0.8001  0.0652  0.2493
  774MOL0     H 2130   9.027   9.454   7.058 -2.0227 -0.7436 -2.3802
  774MOL0     H 2131   8.786   9.492   7.046  0.4849 -0.7509  0.2840
  774MOL0     H 2132   8.405   9.565   6.936 -0.1794 -0.7727  0.5206
  774MOL0     H 2133   8.170   9.643   6.950 -1.3268 -0.0949  0.3801
  774MOL0     H 2134   7.891   9.619   6.972  1.3766 -0.2451  0.1587
  774MOL0     H 2135   7.996   9.741   7.048  0.7261 -0.6298  0.8684
  774MOL0     H 2136   7.855   9.784   7.228 -1.9862  0.6895  0.0765
  774MOL0     H 2137   7.784   9.627   7.220 -2.6971 -0.4179 -2.1938
  774MOL0     H 2138   7.657   9.679   7.021 -0.1329  0.3691 -1.2444
  774MOL0     H 2139   7.746   9.831   7.009 -0.4644  0.3237 -0.4874
  774MOL0     H 2140   7.553   9.745   7.244 -4.1242  0.6547 -0.7436
  774MOL0     H 2141   7.639   9.909   7.239  0.5495 -0.2038  0.3255
  774MOL0     H 2142   7.449   9.828   7.025 -2.0369  3.2585 -0.8190
  774MOL0     H 2143   7.487   9.986   7.079 -2.0477  0.1303 -0.0713
  774MOL0     H 2144   7.377   9.935   7.297  1.9195 -0.0978  0.4554
  774MOL0     H 2145   7.335   9.784   7.228  4.4119 -1.0649  1.8015
  774MOL0     H 2146   7.250  10.047   7.073 -0.1745 -1.3106 -3.3430
  774MOL0     H 2147   7.194   9.876   7.046 -0.7314  2.0364 -1.0543
  774MOL0     H 2148   7.158   9.936   7.317  3.7543  2.9879 -1.6815
  774MOL0     H 2149   7.053   9.861   7.212  0.1749 -0.2036  1.7360
  774MOL0     H 2150   8.122   9.420   7.313 -2.2985 -0.7199 -2.8446
  774MOL0     H 2151   8.347   9.370   7.321  1.5228 -1.6552  0.1023
  774MOL0     H 2152   8.762   9.422   7.484  2.3533  0.4037  1.9777
  774MOL0     H 2153   8.998   9.367   7.482  0.3724  0.6180 -0.4976
  774MOL0     H 2154  10.250   8.187   7.438  1.7168 -2.7201 -3.2619
  774MOL0     H 2155  10.142   7.975   7.443 -0.0734  0.4451 -0.2320
  774MOL0     H 2156   9.630   7.718   7.096  0.5048 -0.8414 -0.7306
  774MOL0     H 2157   9.537   7.481   7.133 -0.1394 -2.6926  1.1029
  774MOL0     H 2158   9.658   7.258   7.496 -1.6337 -0.7265  0.2262
  774MOL0     H 2159   9.765   7.213   7.360 -1.5600  1.7448 -0.7418
  774MOL0     H 2160   9.607   7.071   7.270 -0.9407  0.5724 -0.2537
  774MOL0     H 2161   9.636   7.007   7.440  0.5316  0.3970  1.4040
  774MOL0     H 2162   9.383   7.158   7.360  2.0814  1.8324 -1.6015
  774MOL0     H 2163   9.433   7.119   7.523 -1.3293  1.9076 -0.8931
  774MOL0     H 2164   9.371   6.938   7.283 -2.2317  0.5460  1.0460
  774MOL0     H 2165   9.474   6.877   7.410  0.9152 -0.1062 -0.2367
  774MOL0     H 2166   9.111   6.878   7.631  3.2813 -3.2238  3.9009
  774MOL0     H 2167   9.778   7.437   7.470 -3.1970 -3.5591  0.2233
  774MOL0     H 2168   9.872   7.662   7.448 -0.9661  0.2451  0.4169
  775MOL0     O 2169   0.121   4.676   7.518  0.8622 -0.0134  0.3108
  775MOL0     C 2170   0.186   4.683   7.629  0.0020 -0.0423  0.4949
  775MOL0     O 2171   0.126   4.688   7.752 -0.6233 -0.7591  0.6384
  775MOL0     C 2172  -0.006   4.665   7.773  0.7658  0.1713  0.4101
  775MOL0     C 2173  -0.080   4.752   7.851 -0.7260  0.8672 -0.1304
  775MOL0     C 2174  -0.216   4.733   7.870 -0.6041  0.5506 -0.4155
  775MOL0     C 2175  -0.278   4.622   7.814  0.1284 -0.1567  0.1357
  775MOL0     O 2176  -0.413   4.596   7.843  0.1063 -0.1882  0.5282
  775MOL0     C 2177  -0.473   4.477   7.803  0.6941  0.6067  0.7135
  775MOL0     C 2178  -0.595   4.446   7.900  0.0240 -0.9271  0.7752
  775MOL0     C 2179  -0.630   4.294   7.879  0.2669 -0.4069  0.7425
  775MOL0     C 2180  -0.723   4.252   7.990 -0.0081  0.1958 -0.1758
  775MOL0     C 2181  -0.734   4.099   7.990  0.0843  0.0688 -0.1868
  775MOL0     C 2182  -0.812   4.054   8.117  0.2966 -0.2758  0.2095
  775MOL0     C 2183  -0.814   3.899   8.132  0.0783  0.7276 -0.4129
  775MOL0     C 2184  -0.864   3.842   8.259 -0.2113 -0.4715 -0.0395
  775MOL0     N 2185  -0.843   3.699   8.261 -0.5659  0.3169 -0.5987
  775MOL0     C 2186  -0.723   3.628   8.283  0.9811 -0.5758 -1.0268
  775MOL0     C 2187  -0.758   3.494   8.296  0.9547  0.3396  0.4993
  775MOL0     C 2188  -0.655   3.392   8.340  0.0464 -0.2263 -0.5184
  775MOL0     C 2189  -0.690   3.347   8.481 -0.5110  0.0781 -0.3342
  775MOL0     C 2190  -0.608   3.231   8.526  0.9026  0.4102 -0.5642
  775MOL0     C 2191  -0.622   3.192   8.683 -0.8010 -0.4198 -0.1814
  775MOL0     O 2192  -0.760   3.154   8.716  0.0369 -0.5242  0.0522
  775MOL0     C 2193  -0.792   3.113   8.834  0.1992  0.1001 -0.4944
  775MOL0     C 2194  -0.931   3.115   8.872  0.0130  0.0328  0.2071
  775MOL0     C 2195  -0.980   3.056   8.986 -0.2937  0.0717 -0.1239
  775MOL0     C 2196  -0.896   2.988   9.071 -0.5151 -0.0125 -0.0973
  775MOL0     C 2197  -0.945   2.909   9.193 -0.5048  0.0134  0.0621
  775MOL0     O 2198  -1.063   2.944   9.253  0.2470  0.1876  0.1832
  775MOL0     C 2199  -1.096   2.899   9.381 -0.1274 -0.3376  0.5094
  775MOL0     C 2200  -1.072   2.767   9.422  0.5822 -0.4898 -0.8570
  775MOL0     C 2201  -1.095   2.732   9.558 -0.0034  0.5582 -0.4481
  775MOL0     C 2202  -1.139   2.821   9.644  0.2919  1.0087  0.8982
  775MOL0     O 2203  -1.162   2.791   9.777 -0.3419  0.3553 -0.6799
  775MOL0     C 2204  -1.035   2.776   9.853  0.4560  0.1533  0.4581
  775MOL0     C 2205  -0.970   2.912   9.857  0.5950  0.2984 -0.1686
  775MOL0     C 2206  -0.857   2.935   9.756  0.3616  0.6288 -0.2412
  775MOL0     C 2207  -0.733   2.838   9.779  0.1942  0.2800 -0.4675
  775MOL0     C 2208  -0.627   2.851   9.667  0.1152  0.0198 -0.1572
  775MOL0     C 2209  -0.538   2.969   9.686 -0.1088  0.1949 -0.1642
  775MOL0     C 2210  -0.431   2.989   9.573  0.2502  0.2547  0.0950
  775MOL0     C 2211  -0.303   3.050   9.636  1.1976  0.6722  0.2164
  775MOL0    Cl 2212  -0.174   3.077   9.504  0.2048 -0.1210 -0.2195
  775MOL0     C 2213  -1.166   2.954   9.601 -0.6163  0.1183  0.2565
  775MOL0     C 2214  -1.157   2.994   9.471 -0.6986  0.8609  0.3272
  775MOL0     O 2215  -0.873   2.815   9.228 -0.2461 -0.4278  0.0373
  775MOL0     C 2216  -0.758   2.985   9.040  0.0412 -0.6557 -0.4044
  775MOL0     C 2217  -0.707   3.052   8.928 -1.1738 -0.6139  0.7431
  775MOL0     N 2218  -0.898   3.490   8.269 -0.0781 -0.3381  0.0651
  775MOL0     N 2219  -0.944   3.613   8.250 -0.1209  0.2615  1.3072
  775MOL0     C 2220  -0.207   4.545   7.724 -0.2174 -0.3519 -0.1706
  775MOL0     C 2221  -0.069   4.570   7.694  0.2251 -0.9825 -1.0470
  775MOL0     C 2222   0.337   4.700   7.617 -0.4059 -0.1709  0.1856
  775MOL0     C 2223   0.410   4.681   7.497 -0.4574 -0.2388  0.4699
  775MOL0     C 2224   0.551   4.688   7.500  0.1320  0.2939 -0.0395
  775MOL0     C 2225   0.622   4.706   7.620  1.1514  0.0073  0.2725
  775MOL0     O 2226   0.757   4.698   7.639  0.5139 -0.3959 -0.0452
  775MOL0     C 2227   0.836   4.801   7.590  0.3670  0.9738  0.1995
  775MOL0     C 2228   0.816   4.931   7.664 -1.0884  0.2176 -1.5445
  775MOL0     C 2229   0.888   5.050   7.578 -0.2714  0.1802 -0.3782
  775MOL0     C 2230   1.038   5.016   7.540  0.2554 -0.4093 -0.1891
  775MOL0     C 2231   1.120   5.142   7.542  0.2565 -0.4711  1.4100
  775MOL0     C 2232   1.172   5.253   7.549 -0.3119  0.4828  0.3232
  775MOL0     C 2233   0.553   4.728   7.737 -0.0065 -0.2376  0.6297
  775MOL0     C 2234   0.411   4.739   7.731 -0.0621  0.9437 -0.5075
  775MOL0     H 2235  -0.031   4.830   7.909  2.9714 -1.8292  0.7478
  775MOL0     H 2236  -0.260   4.807   7.935  1.5525  1.9266 -0.4368
  775MOL0     H 2237  -0.401   4.396   7.818 -0.3258 -0.8694 -1.6696
  775MOL0     H 2238  -0.493   4.465   7.696 -1.5180 -2.6325  1.3260
  775MOL0     H 2239  -0.684   4.500   7.866  0.7614  1.0045  1.7394
  775MOL0     H 2240  -0.573   4.470   8.004 -0.4745  4.5044 -0.0981
  775MOL0     H 2241  -0.532   4.247   7.886  0.4998 -0.0999 -0.3449
  775MOL0     H 2242  -0.673   4.274   7.780  1.6211  0.5066 -0.0490
  775MOL0     H 2243  -0.679   4.278   8.087 -1.1868 -1.5714  0.8699
  775MOL0     H 2244  -0.821   4.294   7.967 -1.6088 -3.6591 -1.1590
  775MOL0     H 2245  -0.638   4.046   7.984 -0.4108 -0.8308 -0.3820
  775MOL0     H 2246  -0.787   4.067   7.899  1.0153 -0.2500 -0.6369
  775MOL0     H 2247  -0.914   4.091   8.113  0.9162  1.6841  1.2988
  775MOL0     H 2248  -0.759   4.097   8.202  1.5689 -2.9159  0.8728
  775MOL0     H 2249  -0.860   3.856   8.042 -2.2335 -0.3059  1.1735
  775MOL0     H 2250  -0.710   3.865   8.134 -0.8220 -2.3294  1.8960
  775MOL0     H 2251  -0.970   3.870   8.261  0.2390  1.5581 -1.0166
  775MOL0     H 2252  -0.806   3.876   8.345  0.8373 -0.8406 -0.5896
  775MOL0     H 2253  -0.630   3.680   8.302  0.8259  0.0479 -1.9394
  775MOL0     H 2254  -0.554   3.430   8.324  0.8275 -2.1625 -0.4953
  775MOL0     H 2255  -0.650   3.302   8.277  0.4068 -0.6114  0.0537
  775MOL0     H 2256  -0.799   3.337   8.487 -0.5743  0.6463 -0.4707
  775MOL0     H 2257  -0.668   3.435   8.541 -3.1213 -0.5760  1.7603
  775MOL0     H 2258  -0.640   3.146   8.464 -1.0384  1.4287 -1.0250
  775MOL0     H 2259  -0.506   3.255   8.495  1.6688 -0.6314  1.0248
  775MOL0     H 2260  -0.579   3.269   8.747  1.2090  0.0326 -1.9558
  775MOL0     H 2261  -0.551   3.110   8.700 -0.9246 -0.2349  1.3548
  775MOL0     H 2262  -1.001   3.154   8.799  0.3160 -0.2326 -0.2225
  775MOL0     H 2263  -1.088   3.061   8.997 -0.2035  0.5338  0.6877
  775MOL0     H 2264  -1.039   2.686   9.359  0.7533 -1.8291  0.8696
  775MOL0     H 2265  -1.080   2.628   9.585 -1.3737  0.0504 -1.5110
  775MOL0     H 2266  -0.977   2.692   9.814 -2.9866 -2.6240  0.7550
  775MOL0     H 2267  -1.066   2.752   9.955 -1.3298  0.1308 -0.0592
  775MOL0     H 2268  -0.934   2.920   9.959 -0.8794  0.2823  0.3793
  775MOL0     H 2269  -1.041   2.995   9.843  1.2293  0.9199  0.2559
  775MOL0     H 2270  -0.826   3.039   9.773 -2.7832  1.6695 -0.0999
  775MOL0     H 2271  -0.890   2.917   9.653  0.0504  1.1357 -0.2345
  775MOL0     H 2272  -0.695   2.849   9.881 -1.1626 -1.7016  0.3169
  775MOL0     H 2273  -0.770   2.736   9.768  0.4616  0.3479 -2.2645
  775MOL0     H 2274  -0.669   2.857   9.566  1.7471 -1.0272 -0.9431
  775MOL0     H 2275  -0.555   2.772   9.689 -0.0777  0.3657  1.8937
  775MOL0     H 2276  -0.480   2.947   9.775 -0.0349 -2.3066 -0.7768
  775MOL0     H 2277  -0.581   3.070   9.691  0.0046  0.1798  2.3136
  775MOL0     H 2278  -0.414   2.902   9.508 -1.8119  1.1372 -1.7438
  775MOL0     H 2279  -0.472   3.062   9.503 -0.2190  1.6517  1.7719
  775MOL0     H 2280  -0.261   2.982   9.711  0.4798  0.6686  0.6244
  775MOL0     H 2281  -0.343   3.138   9.687  1.7850  0.2374  1.4477
  775MOL0     H 2282  -1.197   3.029   9.673 -0.3611  1.5296 -1.0613
  775MOL0     H 2283  -1.180   3.097   9.448 -3.2262  0.2760 -0.0757
  775MOL0     H 2284  -0.695   2.936   9.114 -2.8045 -4.2810 -0.0807
  775MOL0     H 2285  -0.600   3.046   8.916 -1.4063  1.0607 -5.8492
  775MOL0     H 2286  -0.260   4.465   7.673  0.6116  1.0696 -3.4772
  775MOL0     H 2287  -0.007   4.514   7.625  3.0298  0.5866  0.0402
  775MOL0     H 2288   0.366   4.650   7.403 -2.0917  2.5497  0.2199
  775MOL0     H 2289   0.607   4.670   7.409 -0.3499  0.9642 -0.4761
  775MOL0     H 2290   0.818   4.817   7.483  0.8435 -2.2791 -0.4924
  775MOL0     H 2291   0.938   4.762   7.599  1.0927  2.6404 -0.4724
  775MOL0     H 2292   0.711   4.960   7.672  0.0565  4.6542  0.3543
  775MOL0     H 2293   0.863   4.925   7.762  0.3325  1.7980 -2.0841
  775MOL0     H 2294   0.885   5.144   7.633  1.3740 -1.5798  3.0834
  775MOL0     H 2295   0.830   5.070   7.488  1.1098  1.2234 -1.0759
  775MOL0     H 2296   1.074   4.949   7.618 -2.7330 -0.5899  1.1973
  775MOL0     H 2297   1.038   4.971   7.440 -0.3846  3.1266 -1.9616
  775MOL0     H 2298   1.227   5.345   7.552  1.7174 -0.6218 -1.0620
  775MOL0     H 2299   0.613   4.731   7.828 -0.3395  3.3961  0.8922
  775MOL0     H 2300   0.354   4.759   7.821 -1.7035  0.3739 -1.3828
  776MOL0     O 2301   3.393   4.269   2.125 -0.0300 -1.0102  0.6423
  776MOL0     C 2302   3.440   4.185   2.200  0.4868 -0.2258  0.1945
  776MOL0     O 2303   3.411   4.057   2.189  0.3149  0.7472  0.3217
  776MOL0     C 2304   3.319   4.008   2.089 -0.3521 -0.1497 -0.6834
  776MOL0     C 2305   3.185   4.056   2.088 -0.7090 -0.6088  0.1591
  776MOL0     C 2306   3.107   4.015   1.976 -0.6599 -0.7215 -0.8198
  776MOL0     C 2307   3.148   3.928   1.880  0.4637  0.0982 -0.0927
  776MOL0     O 2308   3.064   3.910   1.770  0.0831  0.4502 -0.3622
  776MOL0     C 2309   2.998   3.784   1.780  0.1552 -0.4755  0.8924
  776MOL0     C 2310   2.858   3.796   1.836 -0.2454  1.0004 -0.2058
  776MOL0     C 2311   2.763   3.864   1.745 -0.3530  0.3114 -0.1565
  776MOL0     C 2312   2.626   3.877   1.805  0.2381  0.1555  0.4271
  776MOL0     C 2313   2.532   3.757   1.764  0.6949 -0.0496 -0.1710
  776MOL0     C 2314   2.388   3.783   1.818  0.4033 -0.2400  1.0072
  776MOL0     C 2315   2.287   3.722   1.730  0.7629  0.1675  0.7589
  776MOL0     C 2316   2.155   3.701   1.798 -0.5313 -0.0397 -0.4673
  776MOL0     N 2317   2.046   3.690   1.695  0.2890  0.4172 -0.7153
  776MOL0     C 2318   2.022   3.580   1.616 -0.5654  0.4047 -0.3324
  776MOL0     C 2319   1.892   3.596   1.573 -0.0987  0.6407 -0.2948
  776MOL0     C 2320   1.816   3.498   1.484 -0.0950 -0.2406  0.2459
  776MOL0     C 2321   1.682   3.467   1.527 -0.2504  0.4676 -0.5043
  776MOL0     C 2322   1.624   3.353   1.447 -1.2403 -0.7520  0.1166
  776MOL0     C 2323   1.472   3.329   1.477  0.0409 -0.1985 -0.3025
  776MOL0     O 2324   1.409   3.427   1.403  0.0597  0.1745 -0.7491
  776MOL0     C 2325   1.279   3.468   1.422 -0.4846  0.2480 -0.5798
  776MOL0     C 2326   1.229   3.565   1.340 -0.2074 -0.1595 -0.2054
  776MOL0     C 2327   1.109   3.632   1.360 -0.0237  0.5012  0.6713
  776MOL0     C 2328   1.022   3.577   1.459 -0.3017  0.2258 -0.7060
  776MOL0     C 2329   0.888   3.635   1.480 -0.7615  0.6140 -0.6712
  776MOL0     O 2330   0.861   3.749   1.404  0.0936 -0.3314  0.4260
  776MOL0     C 2331   0.737   3.798   1.415 -0.1713  0.0274  0.3823
  776MOL0     C 2332   0.645   3.749   1.329 -0.0028  0.0333  0.4352
  776MOL0     C 2333   0.508   3.780   1.342 -0.0972 -0.7745 -0.0325
  776MOL0     C 2334   0.465   3.881   1.435 -0.5488 -0.4639  0.6285
  776MOL0     O 2335   0.334   3.912   1.454 -0.3342 -0.3521 -0.2481
  776MOL0     C 2336   0.238   3.841   1.386 -0.4098  1.4426  0.9937
  776MOL0     C 2337   0.092   3.883   1.429 -0.8488 -0.1170  0.0310
  776MOL0     C 2338  -0.006   3.770   1.371  0.2539 -0.0544  0.8314
  776MOL0     C 2339  -0.134   3.826   1.309 -0.1627  0.7885 -0.1342
  776MOL0     C 2340  -0.218   3.714   1.246 -0.5317  0.5342 -0.0447
  776MOL0     C 2341  -0.335   3.763   1.163 -0.0590  0.8584 -0.7288
  776MOL0     C 2342  -0.312   3.855   1.060 -0.1685  0.8333  0.4824
  776MOL0     C 2343  -0.201   3.834   0.957 -0.1266  0.5518 -0.2399
  776MOL0    Cl 2344  -0.255   3.707   0.847 -0.8743  0.1612 -0.2660
  776MOL0     C 2345   0.571   3.947   1.506  0.0773  0.6052  0.3830
  776MOL0     C 2346   0.705   3.910   1.487 -0.5118 -0.6653  0.0157
  776MOL0     O 2347   0.812   3.582   1.563 -0.0574  0.0331 -0.1827
  776MOL0     C 2348   1.069   3.473   1.544 -0.5586  0.0625  0.3461
  776MOL0     C 2349   1.199   3.418   1.521 -0.2242  0.1208 -0.0742
  776MOL0     N 2350   1.840   3.709   1.638  0.6020  1.2062 -0.0528
  776MOL0     N 2351   1.937   3.773   1.696  0.5376 -0.0596 -0.8928
  776MOL0     C 2352   3.273   3.873   1.894  0.4303  0.0003  0.2048
  776MOL0     C 2353   3.359   3.915   1.989 -0.1776 -0.8069 -0.4516
  776MOL0     C 2354   3.519   4.239   2.311  1.2476  0.5115 -0.4451
  776MOL0     C 2355   3.492   4.359   2.379 -0.6410  0.4443  0.7656
  776MOL0     C 2356   3.567   4.395   2.491 -0.7930 -0.0079 -0.4457
  776MOL0     C 2357   3.665   4.308   2.539 -0.6240  0.1790  0.7480
  776MOL0     O 2358   3.738   4.336   2.652 -0.1403  0.3137 -0.4845
  776MOL0     C 2359   3.852   4.264   2.688 -0.0613  0.2197 -0.8175
  776MOL0     C 2360   3.817   4.161   2.794 -0.1355 -0.6384 -0.9239
  776MOL0     C 2361   3.940   4.073   2.831  0.2248  0.5932  0.3316
  776MOL0     C 2362   3.912   3.930   2.787  0.0628 -0.6385 -0.8046
  776MOL0     C 2363   3.920   3.912   2.641  0.0716 -0.2803  0.4343
  776MOL0     C 2364   3.919   3.896   2.521 -0.1289 -0.3742 -0.0999
  776MOL0     C 2365   3.674   4.172   2.490 -1.2886  0.1155  0.1693
  776MOL0     C 2366   3.604   4.147   2.376  0.7086  0.4171  0.2164
  776MOL0     H 2367   3.138   4.111   2.170 -2.6737 -1.0168 -0.6319
  776MOL0     H 2368   3.004   4.050   1.965  0.0190  2.1078  0.9067
  776MOL0     H 2369   3.055   3.720   1.848 -0.3637 -2.1992 -0.2285
  776MOL0     H 2370   2.994   3.732   1.684 -0.4849 -0.9155  1.1483
  776MOL0     H 2371   2.865   3.849   1.932  0.4210 -0.8677  0.8349
  776MOL0     H 2372   2.817   3.696   1.851 -2.8806  1.9861 -0.3843
  776MOL0     H 2373   2.754   3.801   1.656 -0.8648  2.3761 -1.6282
  776MOL0     H 2374   2.806   3.960   1.717  0.7691  0.7040  2.5687
  776MOL0     H 2375   2.636   3.891   1.913  2.6173 -1.5481  0.4873
  776MOL0     H 2376   2.575   3.967   1.769 -1.4077 -1.3363 -1.1671
  776MOL0     H 2377   2.562   3.659   1.803 -2.4353 -1.5189 -1.0888
  776MOL0     H 2378   2.525   3.753   1.654 -0.3319  4.3560 -0.4519
  776MOL0     H 2379   2.359   3.889   1.812  1.6367  0.0604 -0.2554
  776MOL0     H 2380   2.400   3.751   1.922  0.3242  0.0626  1.1103
  776MOL0     H 2381   2.272   3.786   1.643 -0.5338  1.2612  1.7500
  776MOL0     H 2382   2.318   3.624   1.693 -2.9991 -0.7587 -0.3840
  776MOL0     H 2383   2.136   3.786   1.865  0.3576 -0.2729  0.1105
  776MOL0     H 2384   2.155   3.612   1.862 -0.5171  0.6935  0.5743
  776MOL0     H 2385   2.090   3.498   1.594  1.3825  1.4555  1.4613
  776MOL0     H 2386   1.871   3.403   1.491 -1.1596 -0.9048 -0.2456
  776MOL0     H 2387   1.814   3.543   1.385 -1.5070  0.9065  0.7644
  776MOL0     H 2388   1.625   3.560   1.513  0.4260  0.5765 -3.0629
  776MOL0     H 2389   1.683   3.445   1.634  3.0217 -0.8717 -0.6960
  776MOL0     H 2390   1.641   3.372   1.341 -5.5642 -2.3178 -1.0655
  776MOL0     H 2391   1.665   3.253   1.466 -0.5306 -0.6703 -0.8791
  776MOL0     H 2392   1.452   3.339   1.584  2.3576  0.8714  0.0861
  776MOL0     H 2393   1.437   3.231   1.441 -0.0607 -0.3169  0.1123
  776MOL0     H 2394   1.287   3.609   1.259 -1.7702  0.0045 -1.2830
  776MOL0     H 2395   1.086   3.717   1.297 -2.3263  0.6836  1.6460
  776MOL0     H 2396   0.683   3.684   1.250  1.5686  2.1953 -0.7101
  776MOL0     H 2397   0.438   3.727   1.277 -4.3014  1.5529  2.1887
  776MOL0     H 2398   0.265   3.738   1.413  1.0169  1.5746  0.1933
  776MOL0     H 2399   0.253   3.854   1.279 -2.8658 -0.3271  0.3455
  776MOL0     H 2400   0.069   3.983   1.391  0.9780  0.2510 -0.1888
  776MOL0     H 2401   0.085   3.885   1.538  0.3533 -0.7712  0.1340
  776MOL0     H 2402  -0.031   3.696   1.448 -0.6679 -0.8930 -0.2440
  776MOL0     H 2403   0.040   3.719   1.286  0.5613  0.3908  0.7211
  776MOL0     H 2404  -0.202   3.877   1.378 -2.3506 -0.6696 -1.1026
  776MOL0     H 2405  -0.100   3.899   1.235  2.3200  0.1796  0.2895
  776MOL0     H 2406  -0.253   3.665   1.338 -0.6861  0.7324  0.0027
  776MOL0     H 2407  -0.150   3.646   1.193  1.7110  1.9044  0.9191
  776MOL0     H 2408  -0.414   3.800   1.230 -0.7950 -2.1185  0.1771
  776MOL0     H 2409  -0.377   3.673   1.118 -0.7764  1.2553 -0.8764
  776MOL0     H 2410  -0.405   3.877   1.007  0.1148 -0.5362 -0.6284
  776MOL0     H 2411  -0.281   3.945   1.114 -0.0322  1.7424 -1.0360
  776MOL0     H 2412  -0.103   3.806   0.998  1.3328  3.6371 -1.2574
  776MOL0     H 2413  -0.187   3.928   0.902 -0.8876 -0.8493 -3.0176
  776MOL0     H 2414   0.539   4.039   1.554 -0.5306  1.7326 -2.0220
  776MOL0     H 2415   0.782   3.951   1.551 -1.5501  2.9066 -0.8298
  776MOL0     H 2416   1.014   3.411   1.615  2.7866 -1.8493  1.5251
  776MOL0     H 2417   1.226   3.334   1.584 -0.6506 -0.0019 -0.0535
  776MOL0     H 2418   3.305   3.801   1.819 -0.7798  3.1600 -3.6728
  776MOL0     H 2419   3.457   3.870   1.999  0.4490  0.4167 -0.8229
  776MOL0     H 2420   3.415   4.421   2.335  1.8156  2.2985 -1.2595
  776MOL0     H 2421   3.566   4.491   2.542  2.1370 -0.0490 -0.1499
  776MOL0     H 2422   3.919   4.343   2.723 -2.3066  1.9283 -0.1541
  776MOL0     H 2423   3.896   4.215   2.600  1.9946 -1.2282  0.9035
  776MOL0     H 2424   3.784   4.216   2.882 -0.6491  1.0687 -2.1481
  776MOL0     H 2425   3.734   4.096   2.764 -2.2005  1.3009  0.3580
  776MOL0     H 2426   3.957   4.081   2.938 -0.8721  0.7870  0.5063
  776MOL0     H 2427   4.030   4.111   2.782  1.8488 -1.7083  1.3580
  776MOL0     H 2428   3.984   3.858   2.826  1.4526 -0.6185 -3.1240
  776MOL0     H 2429   3.815   3.898   2.827 -0.0819  1.8579  1.0903
  776MOL0     H 2430   3.911   3.898   2.414 -0.0632  2.9697 -0.1332
  776MOL0     H 2431   3.732   4.090   2.531 -2.6235 -0.4653  0.9576
  776MOL0     H 2432   3.613   4.048   2.332 -1.4848  0.5021 -0.4986
  777MOL0     O 2433   8.070   5.168  11.035  0.9933  0.6228 -0.2269
  777MOL0     C 2434   8.060   5.053  10.983 -0.1625 -0.6340 -0.2188
  777MOL0     O 2435   7.946   4.981  10.983 -0.1430 -0.3960  0.1719
  777MOL0     C 2436   7.833   5.053  11.018 -0.2816 -0.6437  0.7751
  777MOL0     C 2437   7.726   5.077  10.929 -0.4364  0.6159  0.0081
  777MOL0     C 2438   7.608   5.138  10.969 -0.6952  0.2910  0.1578
  777MOL0     C 2439   7.601   5.197  11.095 -0.2319  0.5534  0.0510
  777MOL0     O 2440   7.492   5.271  11.144 -0.1781 -0.3294 -0.4172
  777MOL0     C 2441   7.393   5.326  11.050  0.3996  0.0260 -0.4296
  777MOL0     C 2442   7.278   5.382  11.131  0.0922 -0.2646  0.5943
  777MOL0     C 2443   7.206   5.477  11.039  0.6061  0.5854 -0.1596
  777MOL0     C 2444   7.088   5.542  11.115  0.3346  0.0682 -0.2038
  777MOL0     C 2445   6.980   5.603  11.018 -0.1380  0.3228  0.1437
  777MOL0     C 2446   6.852   5.627  11.106  0.1390  0.4547  0.6558
  777MOL0     C 2447   6.751   5.706  11.020 -0.1358 -0.2196 -0.3289
  777MOL0     C 2448   6.624   5.748  11.094 -0.6090  0.2180 -0.1889
  777MOL0     N 2449   6.514   5.800  11.011 -0.1147 -0.5479 -0.5648
  777MOL0     C 2450   6.466   5.744  10.893 -0.4607 -0.0311  0.7289
  777MOL0     C 2451   6.375   5.833  10.854  0.4402 -0.5139  0.1666
  777MOL0     C 2452   6.308   5.825  10.729  0.9585  0.6066  0.8353
  777MOL0     C 2453   6.332   5.954  10.642  0.3343  0.8457 -0.6235
  777MOL0     C 2454   6.419   5.937  10.525  1.1178 -0.9731 -0.2489
  777MOL0     C 2455   6.473   6.065  10.454  0.5328  0.4972 -0.6485
  777MOL0     O 2456   6.421   6.072  10.315  0.6975  0.4021 -0.5242
  777MOL0     C 2457   6.311   6.151  10.285  0.7879 -0.7585 -0.9246
  777MOL0     C 2458   6.217   6.200  10.383  0.1354  0.3034  1.8929
  777MOL0     C 2459   6.100   6.276  10.354 -1.1630 -0.2826 -0.1625
  777MOL0     C 2460   6.084   6.314  10.214 -0.9574  0.1516  0.3153
  777MOL0     C 2461   5.965   6.385  10.183 -0.3520  0.2147 -0.3958
  777MOL0     O 2462   5.917   6.365  10.058 -0.0449  0.1952 -0.0850
  777MOL0     C 2463   5.796   6.413  10.011 -0.7508  0.0524  0.6646
  777MOL0     C 2464   5.679   6.422  10.085  0.4602 -1.1213  0.0173
  777MOL0     C 2465   5.563   6.489  10.031  0.5990  0.5352  0.0978
  777MOL0     C 2466   5.568   6.556   9.904 -0.2860  0.1722 -0.0925
  777MOL0     O 2467   5.459   6.612   9.849 -0.6166  0.7709  0.0818
  777MOL0     C 2468   5.490   6.740   9.793  0.4745 -1.2463  0.6190
  777MOL0     C 2469   5.363   6.781   9.707  0.3070 -0.8414  0.2918
  777MOL0     C 2470   5.357   6.722   9.567  0.3083  0.9699 -0.6738
  777MOL0     C 2471   5.255   6.789   9.476 -0.2872  0.1820  0.1378
  777MOL0     C 2472   5.262   6.737   9.327  0.4738 -0.8700  0.7654
  777MOL0     C 2473   5.172   6.817   9.239 -0.1615 -0.4309  0.6275
  777MOL0     C 2474   5.134   6.738   9.112 -0.4481  0.1066  0.5575
  777MOL0     C 2475   5.095   6.837   9.001 -0.0703 -0.1805 -0.2462
  777MOL0    Cl 2476   4.939   6.780   8.917 -0.2554  0.3378 -0.5378
  777MOL0     C 2477   5.692   6.545   9.834  0.0618  0.1259  0.2434
  777MOL0     C 2478   5.799   6.468   9.886  0.5531 -0.5512  0.6016
  777MOL0     O 2479   5.918   6.456  10.267 -0.1858  0.8602  0.0187
  777MOL0     C 2480   6.174   6.268  10.119 -0.8259  0.1365  0.3428
  777MOL0     C 2481   6.288   6.184  10.152  0.1351  0.6768  0.5568
  777MOL0     N 2482   6.363   5.935  10.942 -0.5289 -0.1163  0.8256
  777MOL0     N 2483   6.448   5.914  11.031 -0.9308  0.0540 -0.1277
  777MOL0     C 2484   7.706   5.170  11.186  0.4383 -0.9703 -0.1710
  777MOL0     C 2485   7.815   5.096  11.146 -1.0945 -0.3795 -0.2313
  777MOL0     C 2486   8.180   5.002  10.908 -0.3407  0.2797  0.5526
  777MOL0     C 2487   8.175   4.888  10.826  0.4663 -0.3541 -0.7991
  777MOL0     C 2488   8.282   4.847  10.757 -0.0827  0.3888 -0.1868
  777MOL0     C 2489   8.405   4.904  10.775 -0.1309  0.4026  0.9915
  777MOL0     O 2490   8.525   4.867  10.711 -0.1231 -0.3151  0.0641
  777MOL0     C 2491   8.531   4.860  10.569 -0.7431 -0.4361 -0.2072
  777MOL0     C 2492   8.559   5.014  10.511 -0.3158 -0.0941 -0.3033
  777MOL0     C 2493   8.701   5.058  10.538  0.0272 -0.0730  0.9127
  777MOL0     C 2494   8.755   5.172  10.449 -0.0322 -0.7131 -0.2514
  777MOL0     C 2495   8.667   5.287  10.463  0.1079  0.5753 -0.7898
  777MOL0     C 2496   8.592   5.377  10.483  0.5798 -0.1081  0.1268
  777MOL0     C 2497   8.416   5.018  10.864 -0.2569 -1.2834  0.1569
  777MOL0     C 2498   8.301   5.062  10.936 -0.7866 -0.9001  0.0813
  777MOL0     H 2499   7.740   5.045  10.827  1.8046  3.5015 -0.7355
  777MOL0     H 2500   7.529   5.153  10.896 -0.0629 -2.5262 -1.2312
  777MOL0     H 2501   7.354   5.243  10.991  0.2469  1.3272 -2.2348
  777MOL0     H 2502   7.434   5.394  10.975 -3.3182  0.7835 -1.9892
  777MOL0     H 2503   7.311   5.428  11.224 -0.8445  1.3274  0.1748
  777MOL0     H 2504   7.212   5.296  11.146 -0.7898 -0.1958 -2.2559
  777MOL0     H 2505   7.162   5.425  10.954 -0.9763  1.5864  0.0130
  777MOL0     H 2506   7.283   5.546  11.004  2.4301 -0.5939  1.3397
  777MOL0     H 2507   7.040   5.473  11.184 -1.2160  2.6939  1.5209
  777MOL0     H 2508   7.126   5.632  11.165  3.0951  1.8940 -4.8577
  777MOL0     H 2509   6.970   5.547  10.925  0.2183  0.0062  0.2907
  777MOL0     H 2510   7.012   5.704  10.990 -0.7029  0.4897  0.0944
  777MOL0     H 2511   6.893   5.672  11.197 -0.7644 -0.6319  1.6359
  777MOL0     H 2512   6.807   5.533  11.142  0.6502 -0.6820 -1.4744
  777MOL0     H 2513   6.808   5.797  10.998  3.1402 -1.0081  3.6754
  777MOL0     H 2514   6.721   5.654  10.929 -3.0203 -3.1770  2.0683
  777MOL0     H 2515   6.633   5.825  11.171  0.1808 -1.5570  1.5820
  777MOL0     H 2516   6.584   5.652  11.128 -1.0819 -0.1596 -1.7399
  777MOL0     H 2517   6.500   5.655  10.842 -2.8633 -0.2069 -0.7785
  777MOL0     H 2518   6.199   5.822  10.742  1.2187 -1.3885  3.3150
  777MOL0     H 2519   6.345   5.735  10.678 -1.8437  1.1731 -2.5525
  777MOL0     H 2520   6.384   6.022  10.710  0.8969 -0.8152  0.6706
  777MOL0     H 2521   6.232   5.988  10.615 -0.8481 -1.5611  0.3652
  777MOL0     H 2522   6.509   5.881  10.555 -0.4545 -4.2233 -1.1074
  777MOL0     H 2523   6.364   5.870  10.458 -2.4421 -1.1922  2.6216
  777MOL0     H 2524   6.582   6.061  10.444  0.4503 -0.7242 -1.3203
  777MOL0     H 2525   6.454   6.152  10.517 -0.6505 -1.1663  1.4163
  777MOL0     H 2526   6.231   6.185  10.490 -2.3285  1.5344  2.4530
  777MOL0     H 2527   6.016   6.302  10.419 -2.2009 -1.8740 -0.8105
  777MOL0     H 2528   5.680   6.379  10.184  0.9451  2.6868  1.8618
  777MOL0     H 2529   5.477   6.500  10.096  1.6614 -0.8852  1.8294
  777MOL0     H 2530   5.565   6.748   9.714 -1.9993  3.6861 -1.6869
  777MOL0     H 2531   5.517   6.811   9.871  1.2949 -1.7772  0.8237
  777MOL0     H 2532   5.368   6.890   9.699 -1.5133 -0.6578  1.3211
  777MOL0     H 2533   5.268   6.769   9.760  0.0085  0.0823 -0.0177
  777MOL0     H 2534   5.337   6.615   9.573  0.0508  1.0710  0.3543
  777MOL0     H 2535   5.458   6.728   9.525  0.9502 -0.9933  0.4655
  777MOL0     H 2536   5.154   6.766   9.513 -0.6230 -2.4739 -2.0988
  777MOL0     H 2537   5.280   6.894   9.492 -0.5144  0.1124  0.9886
  777MOL0     H 2538   5.235   6.631   9.318 -0.4846 -0.5008 -1.0833
  777MOL0     H 2539   5.369   6.746   9.304  1.1399 -1.1255  3.4636
  777MOL0     H 2540   5.227   6.904   9.200  1.6330 -2.0592 -0.6551
  777MOL0     H 2541   5.089   6.851   9.301 -2.1256 -2.9628 -0.4332
  777MOL0     H 2542   5.217   6.674   9.084  1.8408  2.1579  2.2277
  777MOL0     H 2543   5.045   6.675   9.125 -1.8576  1.3850 -2.0069
  777MOL0     H 2544   5.175   6.850   8.927  0.7871  1.6590  0.9086
  777MOL0     H 2545   5.086   6.935   9.049  1.8259  1.1642 -2.4475
  777MOL0     H 2546   5.700   6.588   9.735  2.6300  0.4321  0.5213
  777MOL0     H 2547   5.881   6.451   9.817  0.7403 -2.5573  1.2478
  777MOL0     H 2548   6.183   6.296  10.015 -0.4986 -0.1994  0.2796
  777MOL0     H 2549   6.352   6.151  10.070 -1.1953  1.1940 -0.7415
  777MOL0     H 2550   7.698   5.198  11.291 -3.1142 -3.3274  0.3650
  777MOL0     H 2551   7.895   5.073  11.215 -1.1522  1.8060  0.6570
  777MOL0     H 2552   8.077   4.840  10.820 -1.6060  2.8445  2.6998
  777MOL0     H 2553   8.282   4.772  10.679 -3.4053  0.3854 -0.2842
  777MOL0     H 2554   8.444   4.807  10.529 -0.5204 -2.2679  1.6103
  777MOL0     H 2555   8.617   4.798  10.541  0.2389  1.7967 -2.5913
  777MOL0     H 2556   8.540   5.022  10.403  0.8828 -0.2375 -0.5355
  777MOL0     H 2557   8.492   5.085  10.561  1.5389  2.8227 -1.6610
  777MOL0     H 2558   8.778   4.982  10.519  0.5570  0.6460  0.1084
  777MOL0     H 2559   8.712   5.107  10.635 -0.3390  1.9956 -0.0329
  777MOL0     H 2560   8.858   5.196  10.478  0.2468 -2.4029  0.2727
  777MOL0     H 2561   8.755   5.139  10.345 -0.6932  0.9505 -0.8204
  777MOL0     H 2562   8.508   5.444  10.491  0.1917 -0.4876 -0.6107
  777MOL0     H 2563   8.514   5.065  10.869 -0.4266 -1.0187  1.3591
  777MOL0     H 2564   8.319   5.146  11.003  0.3101  0.1698 -1.4854
  778MOL0     O 2565   4.477   3.476   1.026  0.4130  0.4301 -1.0191
  778MOL0     C 2566   4.523   3.427   1.132 -0.1456 -0.7943 -0.0035
  778MOL0     O 2567   4.452   3.396   1.245 -0.8448  0.6378  0.1649
  778MOL0     C 2568   4.320   3.413   1.254  0.1216 -0.2746  0.5405
  778MOL0     C 2569   4.236   3.326   1.186  0.6708 -0.6297  0.0239
  778MOL0     C 2570   4.088   3.340   1.194  0.1804  0.4169 -0.3716
  778MOL0     C 2571   4.034   3.442   1.269  0.1252 -0.0313  0.1026
  778MOL0     O 2572   3.901   3.449   1.283  0.5928  0.1986 -0.6375
  778MOL0     C 2573   3.844   3.447   1.412 -0.4680 -0.2313  0.4589
  778MOL0     C 2574   3.697   3.468   1.425 -0.9407 -0.3307  0.3563
  778MOL0     C 2575   3.630   3.355   1.338 -0.4202  0.1438 -0.5136
  778MOL0     C 2576   3.499   3.300   1.404 -0.0944 -0.0919  0.6206
  778MOL0     C 2577   3.441   3.189   1.339 -0.1805  0.1835  0.5818
  778MOL0     C 2578   3.384   3.240   1.204 -0.5465 -1.0416 -0.5991
  778MOL0     C 2579   3.284   3.157   1.130  1.1581  0.3111 -0.3063
  778MOL0     C 2580   3.151   3.154   1.214 -0.1455 -0.0245  0.6013
  778MOL0     N 2581   3.032   3.127   1.123 -0.6655 -0.4296 -0.2783
  778MOL0     C 2582   3.021   3.154   0.985 -0.1874 -0.8840  0.1648
  778MOL0     C 2583   2.908   3.082   0.950 -0.6264  0.1355 -0.3614
  778MOL0     C 2584   2.851   3.051   0.813  0.1037  0.9484 -0.5196
  778MOL0     C 2585   2.763   3.176   0.770  0.4111  0.6914 -0.3436
  778MOL0     C 2586   2.629   3.185   0.857 -0.5418  0.1044 -0.4484
  778MOL0     C 2587   2.556   3.303   0.799  0.4440 -0.0981  0.1301
  778MOL0     O 2588   2.416   3.291   0.816  0.0319  0.0972 -0.0049
  778MOL0     C 2589   2.323   3.329   0.728 -0.3079  0.6451  0.2327
  778MOL0     C 2590   2.342   3.378   0.600  0.6886  0.1361  0.2205
  778MOL0     C 2591   2.238   3.394   0.507  0.4539  0.0567  0.1257
  778MOL0     C 2592   2.104   3.382   0.540  0.3801 -0.0935  0.4805
  778MOL0     C 2593   1.991   3.395   0.447  0.3440 -0.0920 -0.2339
  778MOL0     O 2594   1.866   3.354   0.493  0.2512 -0.0861 -0.0830
  778MOL0     C 2595   1.755   3.395   0.421  1.1258 -0.2370 -0.5789
  778MOL0     C 2596   1.745   3.418   0.277 -0.2553 -0.5553 -0.3497
  778MOL0     C 2597   1.640   3.494   0.238 -0.2712  0.5149  1.4268
  778MOL0     C 2598   1.524   3.508   0.304 -0.5324 -0.0634  0.9800
  778MOL0     O 2599   1.422   3.584   0.249 -0.0776 -0.3230  0.4318
  778MOL0     C 2600   1.391   3.562   0.111  1.0899  0.4535  0.3167
  778MOL0     C 2601   1.328   3.420   0.091  1.0766 -0.1931 -0.2871
  778MOL0     C 2602   1.186   3.427   0.147 -0.5074 -0.1345  0.4969
  778MOL0     C 2603   1.100   3.507   0.043  0.2536 -0.6101  0.1553
  778MOL0     C 2604   0.944   3.476   0.039  0.4561  0.9640  1.0169
  778MOL0     C 2605   0.910   3.341  -0.019 -0.0663  0.2876 -0.2072
  778MOL0     C 2606   0.766   3.290   0.030 -0.3416  0.2231  0.0381
  778MOL0     C 2607   0.708   3.206  -0.083  0.6226 -0.2380  1.3859
  778MOL0    Cl 2608   0.567   3.118  -0.027 -0.5720 -0.4346  0.1742
  778MOL0     C 2609   1.509   3.447   0.431  0.2568 -0.4694 -1.4166
  778MOL0     C 2610   1.633   3.400   0.493 -0.8879 -0.8459 -0.3747
  778MOL0     O 2611   2.012   3.444   0.336  0.2519 -0.0483 -0.3226
  778MOL0     C 2612   2.086   3.344   0.676 -0.4325 -0.7599  0.7623
  778MOL0     C 2613   2.194   3.304   0.763 -0.1540 -0.2228 -0.1768
  778MOL0     N 2614   2.843   3.044   1.066 -0.0484  0.5512 -0.3963
  778MOL0     N 2615   2.916   3.061   1.164 -0.4055 -0.9745 -0.4130
  778MOL0     C 2616   4.115   3.524   1.339  0.2202 -1.3060  0.3107
  778MOL0     C 2617   4.257   3.518   1.333  0.6256  0.6926 -0.1919
  778MOL0     C 2618   4.671   3.432   1.152  0.5312  0.4816  0.5607
  778MOL0     C 2619   4.732   3.428   1.277 -0.1497  0.2225  0.5496
  778MOL0     C 2620   4.868   3.407   1.294 -0.0759  0.3521  0.6821
  778MOL0     C 2621   4.952   3.378   1.187 -0.3102 -0.2632 -0.0229
  778MOL0     O 2622   5.073   3.351   1.231 -0.0135 -0.1134 -0.0640
  778MOL0     C 2623   5.185   3.386   1.146  0.4318  0.9905  0.2422
  778MOL0     C 2624   5.239   3.524   1.162 -0.8929 -0.7017  0.3525
  778MOL0     C 2625   5.134   3.635   1.206 -0.7988 -0.2209 -0.1267
  778MOL0     C 2626   5.210   3.777   1.213  0.0158 -0.0732  0.3275
  778MOL0     C 2627   5.263   3.806   1.079 -0.1937 -0.6948  0.8789
  778MOL0     C 2628   5.305   3.829   0.966  0.0114  0.6119 -0.1387
  778MOL0     C 2629   4.897   3.375   1.062  0.1327 -0.3275  1.5447
  778MOL0     C 2630   4.757   3.413   1.040 -0.9351  0.4661  0.4746
  778MOL0     H 2631   4.279   3.269   1.104  0.2367  0.3388 -0.9119
  778MOL0     H 2632   4.015   3.277   1.143  2.4415 -1.4914 -1.4644
  778MOL0     H 2633   3.883   3.514   1.488 -1.8803  2.3922 -0.9695
  778MOL0     H 2634   3.868   3.346   1.446  2.7504 -0.4427 -1.8946
  778MOL0     H 2635   3.658   3.566   1.395  1.0524  0.9011  1.5646
  778MOL0     H 2636   3.679   3.457   1.533 -0.0474  0.7647  0.6401
  778MOL0     H 2637   3.703   3.276   1.322  2.0548  2.3604 -0.7102
  778MOL0     H 2638   3.619   3.399   1.239  2.8320 -1.3654 -1.6715
  778MOL0     H 2639   3.507   3.257   1.504  1.9486  1.7356  1.3330
  778MOL0     H 2640   3.424   3.379   1.413 -3.3983 -3.1202  1.8711
  778MOL0     H 2641   3.355   3.149   1.393  0.2955 -0.6462  0.7590
  778MOL0     H 2642   3.522   3.115   1.331  0.1036  0.3550  1.7101
  778MOL0     H 2643   3.472   3.255   1.140  1.2085 -1.8091  1.5005
  778MOL0     H 2644   3.338   3.339   1.208  1.2011 -0.1386 -1.4707
  778MOL0     H 2645   3.260   3.199   1.032 -5.4938  4.1306  2.3045
  778MOL0     H 2646   3.331   3.059   1.117 -2.1193 -1.5486  0.8089
  778MOL0     H 2647   3.133   3.237   1.284  0.2782 -0.4206  1.1918
  778MOL0     H 2648   3.157   3.069   1.282  0.0429 -0.2605  0.2878
  778MOL0     H 2649   3.098   3.193   0.919  1.6676 -3.5650  0.5638
  778MOL0     H 2650   2.799   2.954   0.810 -0.1579  1.0167  0.9202
  778MOL0     H 2651   2.941   3.046   0.751 -0.7582  0.6729 -1.7952
  778MOL0     H 2652   2.746   3.153   0.664 -1.2467  3.4215 -0.7837
  778MOL0     H 2653   2.816   3.272   0.780  2.2276 -0.4409  1.7972
  778MOL0     H 2654   2.570   3.095   0.877  1.2308 -0.5445  2.5577
  778MOL0     H 2655   2.664   3.218   0.955 -0.1835  2.0507 -1.1894
  778MOL0     H 2656   2.593   3.329   0.700 -1.0969 -1.0827 -0.7483
  778MOL0     H 2657   2.588   3.391   0.855 -0.0945 -0.1121  0.4680
  778MOL0     H 2658   2.440   3.402   0.560  1.9347 -4.2916  0.0893
  778MOL0     H 2659   2.269   3.399   0.403  3.5877 -0.3793  0.9211
  778MOL0     H 2660   1.828   3.398   0.211 -1.7484 -1.4930 -2.0533
  778MOL0     H 2661   1.649   3.519   0.133  0.5680  1.4247  1.7070
  778MOL0     H 2662   1.475   3.570   0.041  0.8950  2.8243  0.2688
  778MOL0     H 2663   1.313   3.636   0.087 -0.4552 -0.5649  1.9610
  778MOL0     H 2664   1.386   3.337   0.132 -1.0271 -2.5510 -1.7819
  778MOL0     H 2665   1.333   3.396  -0.016  3.0167 -1.8569  0.1148
  778MOL0     H 2666   1.178   3.469   0.247  5.0040  0.7610  0.8870
  778MOL0     H 2667   1.148   3.324   0.146  1.0083 -0.7482  1.7376
  778MOL0     H 2668   1.104   3.614   0.065 -2.2122 -0.9945  3.1739
  778MOL0     H 2669   1.145   3.489  -0.055  2.3502 -0.6016  1.0416
  778MOL0     H 2670   0.889   3.546  -0.024 -1.6097 -3.2735 -2.4163
  778MOL0     H 2671   0.894   3.476   0.137  0.1754 -0.2297  0.8910
  778MOL0     H 2672   0.984   3.264   0.003  0.2420  0.5008 -0.4833
  778MOL0     H 2673   0.921   3.350  -0.128  2.3506  1.5667  0.0829
  778MOL0     H 2674   0.783   3.224   0.116  1.0153 -2.1758 -1.9459
  778MOL0     H 2675   0.695   3.372   0.048  0.5807  1.3122 -1.0677
  778MOL0     H 2676   0.788   3.138  -0.115 -0.2671  0.2531 -2.4302
  778MOL0     H 2677   0.686   3.259  -0.176  1.4033 -2.2468 -0.0072
  778MOL0     H 2678   1.423   3.443   0.497 -0.8332 -0.9425 -2.8327
  778MOL0     H 2679   1.638   3.376   0.598 -1.1653 -1.6260 -0.5346
  778MOL0     H 2680   1.986   3.337   0.718 -1.8997  2.6890 -1.6408
  778MOL0     H 2681   2.161   3.262   0.858  0.4267 -0.5878 -0.1339
  778MOL0     H 2682   4.081   3.610   1.396  2.4006  1.0262 -1.6483
  778MOL0     H 2683   4.322   3.581   1.393  1.8545 -1.9788  1.4991
  778MOL0     H 2684   4.673   3.443   1.367 -0.3318 -1.4163  0.7484
  778MOL0     H 2685   4.917   3.417   1.390  1.5589 -0.1679 -0.0606
  778MOL0     H 2686   5.160   3.370   1.040  1.8801  2.4425 -0.3714
  778MOL0     H 2687   5.256   3.314   1.187 -1.4140 -1.1748 -0.1604
  778MOL0     H 2688   5.299   3.509   1.253 -2.6812 -1.9213  1.4039
  778MOL0     H 2689   5.308   3.542   1.079 -2.1902 -3.0612 -1.3498
  778MOL0     H 2690   5.112   3.609   1.310  1.8600 -3.2144 -0.1592
  778MOL0     H 2691   5.043   3.631   1.146 -1.0277  0.7954  0.1227
  778MOL0     H 2692   5.147   3.864   1.233  1.2757  1.2661 -1.2945
  778MOL0     H 2693   5.291   3.777   1.287  2.4459  0.4692 -2.1889
  778MOL0     H 2694   5.337   3.843   0.865  1.5272  0.2913  0.2775
  778MOL0     H 2695   4.954   3.333   0.979 -1.4092  0.8051 -0.1827
  778MOL0     H 2696   4.725   3.393   0.938  0.3321  3.3982 -0.6043
  779MOL0     O 2697   1.613   2.403   4.096  0.0394 -0.0413  0.3518
  779MOL0     C 2698   1.637   2.520   4.083  0.9193  0.2611 -0.7957
  779MOL0     O 2699   1.713   2.578   3.993 -1.2510 -0.4523  0.1981
  779MOL0     C 2700   1.731   2.526   3.868  0.3774  0.3245  0.4133
  779MOL0     C 2701   1.790   2.407   3.842 -0.0984  1.0028 -0.2050
  779MOL0     C 2702   1.791   2.360   3.710 -0.5835 -0.1216 -0.1501
  779MOL0     C 2703   1.750   2.440   3.602 -0.0273 -0.0215  0.2894
  779MOL0     O 2704   1.753   2.381   3.482 -0.0821  0.0412 -0.5514
  779MOL0     C 2705   1.631   2.312   3.447  0.5668  0.2443  0.0440
  779MOL0     C 2706   1.656   2.174   3.370 -0.4175  0.3613 -0.0440
  779MOL0     C 2707   1.539   2.070   3.349  0.3196 -0.1322 -0.2672
  779MOL0     C 2708   1.406   2.142   3.296  0.8677 -1.0755 -0.2353
  779MOL0     C 2709   1.303   2.038   3.249 -0.0533  0.1368 -0.0173
  779MOL0     C 2710   1.173   2.025   3.331 -0.7360 -0.9678 -0.5052
  779MOL0     C 2711   1.089   1.897   3.306  0.4098 -0.6730  0.0129
  779MOL0     C 2712   0.964   1.895   3.388 -0.0297  0.6241 -0.9980
  779MOL0     N 2713   0.885   1.769   3.384 -0.8595  0.5523  0.6070
  779MOL0     C 2714   0.840   1.708   3.275 -0.0332  0.2400 -0.8672
  779MOL0     C 2715   0.801   1.584   3.320  0.5167  0.3051 -0.0706
  779MOL0     C 2716   0.760   1.459   3.236 -1.0744 -0.2059  0.0380
  779MOL0     C 2717   0.641   1.477   3.138  0.3195  0.7848 -0.2167
  779MOL0     C 2718   0.515   1.470   3.223 -0.1049 -0.7786 -0.2938
  779MOL0     C 2719   0.381   1.475   3.152 -0.5580  0.9812 -0.0736
  779MOL0     O 2720   0.280   1.477   3.245  0.1644 -0.5444 -1.1620
  779MOL0     C 2721   0.157   1.459   3.191  0.9533  0.4325  0.3118
  779MOL0     C 2722   0.105   1.331   3.187 -0.1847  0.1212 -0.3825
  779MOL0     C 2723  -0.005   1.286   3.114  0.8968  0.0272 -0.2541
  779MOL0     C 2724  -0.087   1.386   3.067  0.0796  0.3550  0.3015
  779MOL0     C 2725  -0.211   1.360   2.980 -1.4314 -0.4711 -0.6298
  779MOL0     O 2726  -0.274   1.472   2.934 -1.0302 -0.9395 -0.1046
  779MOL0     C 2727  -0.398   1.460   2.877 -0.6764 -0.7731 -0.5896
  779MOL0     C 2728  -0.442   1.370   2.782  0.7347 -0.0400  0.7119
  779MOL0     C 2729  -0.571   1.378   2.722 -0.1858 -0.7176 -0.5093
  779MOL0     C 2730  -0.650   1.487   2.753 -0.2421 -0.3476  0.3453
  779MOL0     O 2731  -0.774   1.475   2.695  0.6846 -0.9010 -0.0844
  779MOL0     C 2732  -0.887   1.547   2.759 -0.4147 -0.1587 -0.0977
  779MOL0     C 2733  -1.021   1.502   2.700 -0.4024 -0.7444  0.2515
  779MOL0     C 2734  -1.132   1.584   2.762  0.1678  0.3749 -0.1287
  779MOL0     C 2735  -1.121   1.732   2.779  0.6653  0.2450  0.3832
  779MOL0     C 2736  -1.052   1.773   2.904 -0.0630  0.3737  0.3920
  779MOL0     C 2737  -1.108   1.698   3.030  0.1593 -0.5265 -0.3975
  779MOL0     C 2738  -1.009   1.592   3.086  0.4804 -0.5451  0.8133
  779MOL0     C 2739  -1.061   1.531   3.229  0.5439 -0.0415 -0.0031
  779MOL0    Cl 2740  -1.072   1.663   3.353 -0.0718  0.0004  0.2810
  779MOL0     C 2741  -0.611   1.589   2.843 -0.6204 -0.6585 -0.5171
  779MOL0     C 2742  -0.483   1.572   2.904 -0.1895 -0.0071  0.1172
  779MOL0     O 2743  -0.261   1.249   2.981 -0.1178 -0.1588  0.0756
  779MOL0     C 2744  -0.039   1.523   3.071  0.1321  0.0666 -0.6680
  779MOL0     C 2745   0.081   1.551   3.124 -0.4806 -0.3138 -0.4370
  779MOL0     N 2746   0.831   1.577   3.452 -0.0878  0.3346  0.3224
  779MOL0     N 2747   0.873   1.684   3.493  0.0784  0.0406 -0.9770
  779MOL0     C 2748   1.689   2.562   3.628 -0.8424  0.6572  0.4815
  779MOL0     C 2749   1.680   2.599   3.765 -0.2266 -0.2950 -0.4376
  779MOL0     C 2750   1.575   2.601   4.188 -0.4361  1.0267 -0.2179
  779MOL0     C 2751   1.548   2.542   4.318  0.2759 -0.9475  0.1852
  779MOL0     C 2752   1.491   2.611   4.427  0.1983 -0.0303  0.1123
  779MOL0     C 2753   1.471   2.743   4.413  0.0112 -0.7385 -0.2414
  779MOL0     O 2754   1.408   2.807   4.521 -0.2721  0.2434 -0.1912
  779MOL0     C 2755   1.486   2.906   4.594 -0.4959  0.0821 -0.6014
  779MOL0     C 2756   1.454   2.894   4.750  1.1331 -0.5526  1.1199
  779MOL0     C 2757   1.308   2.924   4.775  0.7702 -0.4527  0.3284
  779MOL0     C 2758   1.267   3.072   4.770 -0.1213  0.2051 -0.5769
  779MOL0     C 2759   1.118   3.090   4.772  0.1703 -0.1903 -0.1854
  779MOL0     C 2760   1.005   3.119   4.773 -0.1049  0.9970 -0.0917
  779MOL0     C 2761   1.512   2.813   4.294  1.1539  0.7180 -0.0436
  779MOL0     C 2762   1.557   2.742   4.178 -0.4969  0.1823 -0.6869
  779MOL0     H 2763   1.812   2.340   3.924 -0.9608 -0.1943 -0.9284
  779MOL0     H 2764   1.838   2.264   3.691  4.0866  1.6699  0.8744
  779MOL0     H 2765   1.570   2.373   3.380  0.1085 -1.7388 -1.4405
  779MOL0     H 2766   1.575   2.294   3.539  1.5420 -0.1477  0.5714
  779MOL0     H 2767   1.732   2.124   3.431 -1.2856  1.5608  2.1804
  779MOL0     H 2768   1.699   2.201   3.273 -0.2433  0.6549  0.1123
  779MOL0     H 2769   1.514   2.027   3.446 -3.5608  1.1867 -0.4843
  779MOL0     H 2770   1.564   1.997   3.271 -2.4237 -0.5055 -0.9112
  779MOL0     H 2771   1.368   2.209   3.372  1.9728  1.8539 -2.0919
  779MOL0     H 2772   1.421   2.202   3.206  1.5430  1.6517  1.5958
  779MOL0     H 2773   1.354   1.943   3.231  0.9274  1.1041 -3.0082
  779MOL0     H 2774   1.277   2.059   3.145 -2.8727 -0.8660  0.3835
  779MOL0     H 2775   1.108   2.106   3.297 -0.3213 -0.3789  0.0864
  779MOL0     H 2776   1.191   2.044   3.438  0.1507 -0.6379 -0.7052
  779MOL0     H 2777   1.069   1.885   3.199  2.2694 -1.1533 -0.3296
  779MOL0     H 2778   1.154   1.812   3.331 -1.1367 -1.3953  1.7950
  779MOL0     H 2779   0.903   1.978   3.351  1.5758  2.7146  0.7907
  779MOL0     H 2780   0.987   1.923   3.491  4.0812  1.1008 -1.8791
  779MOL0     H 2781   0.845   1.753   3.176 -0.3146  1.6112 -0.2731
  779MOL0     H 2782   0.743   1.377   3.306  1.2561 -0.3294  0.5235
  779MOL0     H 2783   0.851   1.435   3.181  0.6235  1.0945  2.1198
  779MOL0     H 2784   0.637   1.391   3.072 -1.1732 -1.7248  2.8496
  779MOL0     H 2785   0.649   1.573   3.087  0.9197  1.2137  0.6502
  779MOL0     H 2786   0.512   1.380   3.285  0.7382 -0.8911 -0.4084
  779MOL0     H 2787   0.523   1.554   3.292  1.5910 -1.5141  0.4511
  779MOL0     H 2788   0.380   1.381   3.095  0.2736  0.0737  1.3232
  779MOL0     H 2789   0.366   1.556   3.081 -3.8382 -1.2865 -2.2187
  779MOL0     H 2790   0.169   1.253   3.226  0.3736  2.0630  2.9648
  779MOL0     H 2791  -0.040   1.184   3.101 -2.6475  0.8032  1.8406
  779MOL0     H 2792  -0.384   1.280   2.764  0.4869 -0.5233  2.1610
  779MOL0     H 2793  -0.606   1.311   2.644  0.3965  0.2415 -1.6199
  779MOL0     H 2794  -0.864   1.649   2.725 -0.5584  0.6958  2.2047
  779MOL0     H 2795  -0.882   1.533   2.867 -1.3395  1.4908  0.1969
  779MOL0     H 2796  -1.030   1.394   2.711 -0.7211 -0.6793  0.6324
  779MOL0     H 2797  -1.019   1.510   2.591  0.7333  0.0813  0.3238
  779MOL0     H 2798  -1.154   1.532   2.856  3.0911 -2.2819 -0.7380
  779MOL0     H 2799  -1.215   1.552   2.697  0.5649 -1.7411  0.3094
  779MOL0     H 2800  -1.081   1.775   2.687  0.7567 -1.8886 -0.6527
  779MOL0     H 2801  -1.225   1.765   2.788  0.3382 -0.8837  0.9804
  779MOL0     H 2802  -1.061   1.880   2.922  1.5443  0.4374  0.8783
  779MOL0     H 2803  -0.945   1.754   2.898 -0.4020 -1.4997 -0.8326
  779MOL0     H 2804  -1.206   1.651   3.018 -0.6667 -0.1237  3.5795
  779MOL0     H 2805  -1.123   1.762   3.117  1.4616 -0.7820  0.0257
  779MOL0     H 2806  -1.021   1.502   3.025 -0.8498 -0.0477  0.3295
  779MOL0     H 2807  -0.905   1.625   3.075 -0.5777  3.0203  0.3935
  779MOL0     H 2808  -0.994   1.451   3.262  2.8825  2.3825  1.5237
  779MOL0     H 2809  -1.162   1.490   3.225  0.5511 -0.3485  1.7944
  779MOL0     H 2810  -0.670   1.677   2.865 -3.1613 -1.5521 -3.0397
  779MOL0     H 2811  -0.441   1.634   2.982 -0.6075 -0.4458  0.6980
  779MOL0     H 2812  -0.109   1.596   3.032  0.6173  0.0397 -1.6071
  779MOL0     H 2813   0.115   1.654   3.130 -3.2197  0.7816 -1.9210
  779MOL0     H 2814   1.647   2.606   3.538 -0.5228  2.4094  1.1609
  779MOL0     H 2815   1.615   2.683   3.788 -1.3192 -1.1028 -0.4828
  779MOL0     H 2816   1.568   2.436   4.327  1.8913 -1.0844 -3.4154
  779MOL0     H 2817   1.454   2.560   4.515 -1.4567  0.2318 -0.3936
  779MOL0     H 2818   1.474   3.008   4.555 -0.6655  0.1786 -0.2968
  779MOL0     H 2819   1.592   2.881   4.598  0.0351  2.2849  1.7722
  779MOL0     H 2820   1.468   2.789   4.778 -1.6764 -1.1070  0.7417
  779MOL0     H 2821   1.531   2.955   4.800  1.3648  1.9760 -2.0124
  779MOL0     H 2822   1.284   2.871   4.868  0.8595  1.6503  1.6049
  779MOL0     H 2823   1.241   2.874   4.705 -1.0349 -2.2158  3.1304
  779MOL0     H 2824   1.311   3.129   4.852  0.6305 -1.0640 -0.0651
  779MOL0     H 2825   1.306   3.120   4.680 -0.4294 -0.1643 -0.9117
  779MOL0     H 2826   0.908   3.163   4.767 -0.0136  1.0539 -1.2615
  779MOL0     H 2827   1.508   2.922   4.291 -2.5421  0.7556  0.7684
  779MOL0     H 2828   1.584   2.792   4.085 -0.3266  2.8212  0.6708
  780MOL0     O 2829   8.622   2.236   4.508 -0.1399 -0.8535 -0.4550
  780MOL0     C 2830   8.700   2.183   4.586 -0.2524  0.0890 -0.3457
  780MOL0     O 2831   8.666   2.109   4.699  0.5235 -0.3745  0.4642
  780MOL0     C 2832   8.540   2.132   4.744  0.5499 -0.7557 -0.0825
  780MOL0     C 2833   8.444   2.019   4.737 -0.0903  0.2675  0.1053
  780MOL0     C 2834   8.320   2.031   4.780  0.9319  0.6296  0.7389
  780MOL0     C 2835   8.268   2.153   4.839 -0.0549  0.9176  0.7146
  780MOL0     O 2836   8.148   2.141   4.904  0.3616  0.5306 -0.8127
  780MOL0     C 2837   8.106   2.248   4.987  0.4617 -0.3939 -0.3456
  780MOL0     C 2838   7.968   2.238   5.050  0.3891  0.3364  0.0345
  780MOL0     C 2839   7.934   2.113   5.128 -1.5445  1.0537 -0.3647
  780MOL0     C 2840   7.981   2.118   5.272 -0.0716  0.5567  0.6319
  780MOL0     C 2841   7.938   1.990   5.345 -0.0381  0.1334 -0.3780
  780MOL0     C 2842   8.027   1.975   5.472  0.1266 -0.0136  0.2217
  780MOL0     C 2843   7.990   1.841   5.529 -0.6899  0.0191  0.2832
  780MOL0     C 2844   8.059   1.798   5.665 -0.5441 -1.0031  0.3534
  780MOL0     N 2845   8.040   1.654   5.695 -0.2073 -0.0903  0.3398
  780MOL0     C 2846   8.058   1.548   5.616  0.3590  0.0731 -0.2280
  780MOL0     C 2847   7.987   1.446   5.675  0.4358  0.9206  0.7605
  780MOL0     C 2848   7.964   1.306   5.618  0.0348  0.4645 -0.4746
  780MOL0     C 2849   8.094   1.245   5.583 -0.3223  0.2916  0.0412
  780MOL0     C 2850   8.180   1.199   5.696 -0.1008  0.1780  0.2505
  780MOL0     C 2851   8.322   1.148   5.654 -0.5686  0.0048  0.0170
  780MOL0     O 2852   8.401   1.090   5.758  0.2041  0.3333 -1.0885
  780MOL0     C 2853   8.536   1.071   5.747 -0.8111 -0.5665  0.4910
  780MOL0     C 2854   8.608   1.105   5.634 -0.6328  1.0496 -0.4718
  780MOL0     C 2855   8.743   1.087   5.628 -1.2222 -0.5729  0.1483
  780MOL0     C 2856   8.807   1.022   5.733 -0.1890  0.8301 -0.0580
  780MOL0     C 2857   8.952   1.012   5.727  0.2660 -0.2246 -0.5854
  780MOL0     O 2858   9.019   1.023   5.848  0.1846  0.1791 -0.0564
  780MOL0     C 2859   9.148   0.975   5.852 -0.1737 -0.4602  0.6144
  780MOL0     C 2860   9.181   0.865   5.931 -0.0351 -1.0463  0.5045
  780MOL0     C 2861   9.316   0.812   5.936 -0.0843  0.6710  0.3836
  780MOL0     C 2862   9.420   0.868   5.859  0.7813 -0.4080  0.7894
  780MOL0     O 2863   9.548   0.838   5.874 -0.4242 -0.6645 -0.0204
  780MOL0     C 2864   9.570   0.704   5.910  0.2008  0.4089 -0.1503
  780MOL0     C 2865   9.716   0.681   5.879  0.4924 -0.3272 -0.9086
  780MOL0     C 2866   9.729   0.644   5.736 -0.1362  0.3723  0.4884
  780MOL0     C 2867   9.874   0.609   5.708 -0.4073  0.3737 -0.6430
  780MOL0     C 2868   9.893   0.574   5.561 -0.2333  0.5245 -0.1945
  780MOL0     C 2869  10.045   0.544   5.534 -0.1587  0.7487 -0.1018
  780MOL0     C 2870  10.071   0.536   5.383 -0.0170 -1.0649  0.4262
  780MOL0     C 2871  10.224   0.496   5.366  0.4749 -0.1495 -0.0960
  780MOL0    Cl 2872  10.256   0.324   5.389  0.0400  0.3242 -0.1636
  780MOL0     C 2873   9.376   0.981   5.779 -0.0216  0.1955 -1.1894
  780MOL0     C 2874   9.247   1.031   5.772  0.4450 -0.3803 -0.2884
  780MOL0     O 2875   9.007   0.994   5.621  0.4186  0.4710  0.5625
  780MOL0     C 2876   8.737   0.977   5.851  0.0702  0.0424 -0.0041
  780MOL0     C 2877   8.600   1.008   5.855  0.3628  1.1816 -0.6841
  780MOL0     N 2878   7.944   1.496   5.789  0.5621 -0.4862 -0.2622
  780MOL0     N 2879   7.975   1.615   5.809  0.7987  0.1197 -0.1035
  780MOL0     C 2880   8.355   2.257   4.850  0.2636  0.1242 -0.1814
  780MOL0     C 2881   8.490   2.250   4.806  0.5240 -0.3411 -0.0280
  780MOL0     C 2882   8.843   2.184   4.540 -0.5846 -0.2585 -0.0628
  780MOL0     C 2883   8.938   2.101   4.605  0.4198  0.5602  0.7608
  780MOL0     C 2884   9.074   2.108   4.567 -0.7724 -0.7336  0.1561
  780MOL0     C 2885   9.129   2.206   4.482 -0.2299  0.6685 -0.7927
  780MOL0     O 2886   9.265   2.224   4.473 -0.2164 -0.7641 -0.8576
  780MOL0     C 2887   9.359   2.130   4.531 -1.0064  0.0274  0.2070
  780MOL0     C 2888   9.495   2.189   4.538  0.5220  0.0747 -0.6318
  780MOL0     C 2889   9.551   2.208   4.390  0.4207 -0.0429  0.2731
  780MOL0     C 2890   9.705   2.226   4.383 -0.1775  0.0363  0.8226
  780MOL0     C 2891   9.769   2.102   4.438 -0.0052 -0.4325 -0.2089
  780MOL0     C 2892   9.820   2.002   4.479  0.7250  0.4040 -0.3588
  780MOL0     C 2893   9.029   2.282   4.413 -0.1224 -0.7760 -0.4245
  780MOL0     C 2894   8.893   2.262   4.432 -0.4988 -0.1617 -0.8569
  780MOL0     H 2895   8.482   1.921   4.709 -0.2360  1.2530 -4.3607
  780MOL0     H 2896   8.244   1.958   4.756 -0.1459  2.2119 -0.9972
  780MOL0     H 2897   8.113   2.340   4.927  1.5874 -0.1678  0.1186
  780MOL0     H 2898   8.166   2.250   5.078 -1.5833 -1.8510  1.1140
  780MOL0     H 2899   7.903   2.233   4.963  0.5029 -4.7060 -0.0528
  780MOL0     H 2900   7.946   2.328   5.108 -0.0465 -0.0672  0.5054
  780MOL0     H 2901   7.975   2.020   5.088 -2.0927  1.4073 -1.8038
  780MOL0     H 2902   7.826   2.105   5.119 -1.3375 -3.3441 -1.1418
  780MOL0     H 2903   8.090   2.132   5.271 -0.1921  1.5788  0.5087
  780MOL0     H 2904   7.941   2.202   5.329 -1.6362 -0.9895  1.9133
  780MOL0     H 2905   7.946   1.907   5.274  0.9272  0.7153 -0.9736
  780MOL0     H 2906   7.832   1.997   5.370  1.0445  1.6185  5.0084
  780MOL0     H 2907   8.011   2.065   5.532  3.4226  0.2990  0.8432
  780MOL0     H 2908   8.135   1.973   5.454  0.0250  1.6107 -0.7629
  780MOL0     H 2909   7.881   1.843   5.535 -0.8742 -3.2937  0.0839
  780MOL0     H 2910   8.024   1.762   5.461  0.1168  1.5940 -1.2090
  780MOL0     H 2911   8.032   1.865   5.747  0.1055  0.2391 -0.4100
  780MOL0     H 2912   8.168   1.790   5.652 -0.2573  2.2657 -0.0090
  780MOL0     H 2913   8.094   1.556   5.514  1.7534  5.2741  0.3756
  780MOL0     H 2914   7.892   1.299   5.536  0.7691 -1.7576 -1.0080
  780MOL0     H 2915   7.922   1.243   5.698  2.1728  1.5056  1.5711
  780MOL0     H 2916   8.150   1.310   5.515 -1.0855  0.5849 -0.3166
  780MOL0     H 2917   8.083   1.153   5.526 -0.5737  0.9369 -0.9774
  780MOL0     H 2918   8.197   1.287   5.758 -1.2972 -1.4074  3.0280
  780MOL0     H 2919   8.134   1.124   5.761 -0.0486  0.6448  0.8411
  780MOL0     H 2920   8.366   1.240   5.615  1.6172 -0.6673  0.7237
  780MOL0     H 2921   8.295   1.071   5.580 -0.1337 -1.5795  1.4359
  780MOL0     H 2922   8.556   1.154   5.552 -3.6620 -0.8630  0.1484
  780MOL0     H 2923   8.794   1.119   5.538 -2.7323 -0.7541 -0.7991
  780MOL0     H 2924   9.113   0.815   5.999 -1.1745 -0.0945  0.0943
  780MOL0     H 2925   9.331   0.727   6.001  0.3816  1.9123  1.9706
  780MOL0     H 2926   9.503   0.635   5.857 -1.4380  0.2775  1.9248
  780MOL0     H 2927   9.554   0.682   6.016 -3.8392  0.3727 -0.5844
  780MOL0     H 2928   9.735   0.589   5.934  0.2743 -1.2345 -2.2789
  780MOL0     H 2929   9.784   0.760   5.909  2.4457 -2.3332  0.2400
  780MOL0     H 2930   9.683   0.722   5.674 -3.0770  0.2857  2.3868
  780MOL0     H 2931   9.677   0.551   5.713 -1.5849  1.6906 -2.0979
  780MOL0     H 2932   9.932   0.701   5.720 -1.8484  1.3605 -0.9650
  780MOL0     H 2933   9.907   0.533   5.779 -1.5377  1.8283  1.5466
  780MOL0     H 2934   9.863   0.660   5.501  0.3661  1.0087  0.1826
  780MOL0     H 2935   9.842   0.478   5.550 -0.9885  0.5165  2.6207
  780MOL0     H 2936  10.085   0.460   5.591 -0.4663  1.3039  0.9728
  780MOL0     H 2937  10.101   0.629   5.574 -1.5518  2.9308 -2.4452
  780MOL0     H 2938  10.024   0.447   5.339  0.6878 -1.1962 -0.0865
  780MOL0     H 2939  10.055   0.636   5.342  4.7789  1.7441  4.3446
  780MOL0     H 2940  10.278   0.551   5.444 -2.2076 -0.4857  2.2074
  780MOL0     H 2941  10.252   0.520   5.264  1.5847 -3.8058 -0.7876
  780MOL0     H 2942   9.452   1.042   5.731 -0.5491  1.0630 -0.9353
  780MOL0     H 2943   9.216   1.110   5.704 -0.6511 -0.5839 -0.0481
  780MOL0     H 2944   8.793   0.919   5.924 -0.5463 -0.8014 -0.1868
  780MOL0     H 2945   8.547   0.992   5.949 -2.1254  0.7764 -2.0889
  780MOL0     H 2946   8.324   2.342   4.909 -2.3701 -2.8629  3.1420
  780MOL0     H 2947   8.559   2.330   4.832 -0.8160  0.6756  0.4873
  780MOL0     H 2948   8.915   2.035   4.687 -0.2748  1.3130  1.1783
  780MOL0     H 2949   9.136   2.041   4.625  0.6788 -0.6668 -1.2483
  780MOL0     H 2950   9.375   2.041   4.470  0.8575  1.5121 -1.6105
  780MOL0     H 2951   9.347   2.104   4.636  2.9520 -2.2235  0.3160
  780MOL0     H 2952   9.496   2.279   4.599 -1.7808 -0.6297  0.5409
  780MOL0     H 2953   9.556   2.114   4.590  1.0901  2.2150  1.9948
  780MOL0     H 2954   9.497   2.297   4.359 -3.2422 -1.7881  1.1057
  780MOL0     H 2955   9.528   2.120   4.329  1.6704  0.1443 -0.5164
  780MOL0     H 2956   9.738   2.245   4.280  1.9602  1.4337  1.6961
  780MOL0     H 2957   9.753   2.309   4.435 -1.7987  0.7655  1.1885
  780MOL0     H 2958   9.863   1.910   4.512  2.2107  0.9896 -0.5762
  780MOL0     H 2959   9.055   2.361   4.342  0.3925 -0.0225  0.5806
  780MOL0     H 2960   8.818   2.331   4.394 -2.2239 -0.4336  1.8080
  781MOL0     O 2961   9.082   5.421   8.648  0.3055 -0.7403 -0.1874
  781MOL0     C 2962   9.054   5.300   8.614  0.1437  0.1029 -0.4787
  781MOL0     O 2963   9.152   5.208   8.588  0.2139  0.1471  0.2494
  781MOL0     C 2964   9.292   5.223   8.608 -0.1121  0.4878  0.6828
  781MOL0     C 2965   9.396   5.140   8.542 -0.7942 -0.3165 -0.9818
  781MOL0     C 2966   9.533   5.165   8.563 -0.8448  0.1815 -0.3416
  781MOL0     C 2967   9.575   5.265   8.650  0.1381  0.3313  0.0445
  781MOL0     O 2968   9.705   5.311   8.657 -0.1140  0.0017 -0.1581
  781MOL0     C 2969   9.786   5.300   8.527  0.3204  0.2977  0.5138
  781MOL0     C 2970   9.931   5.301   8.565  0.1911  0.5295 -0.5404
  781MOL0     C 2971  10.023   5.336   8.451  1.0495  0.0050  0.0195
  781MOL0     C 2972  10.170   5.309   8.479  0.0810  0.3836 -0.7025
  781MOL0     C 2973  10.262   5.319   8.351 -0.2459 -0.0563 -0.1163
  781MOL0     C 2974  10.412   5.311   8.383  1.4775  0.4762  0.4242
  781MOL0     C 2975  10.454   5.166   8.417 -1.0793  0.2561 -1.1837
  781MOL0     C 2976  10.608   5.171   8.470  0.3539  0.1325 -0.0319
  781MOL0     N 2977  10.649   5.034   8.482  0.1311 -0.7174  0.7178
  781MOL0     C 2978  10.705   4.961   8.376  0.8348  0.2933 -0.0284
  781MOL0     C 2979  10.695   4.830   8.427 -0.6014  0.6060 -0.6098
  781MOL0     C 2980  10.749   4.718   8.349  0.2932  0.5548  0.5686
  781MOL0     C 2981  10.676   4.693   8.213 -0.3154 -0.5519  0.0472
  781MOL0     C 2982  10.524   4.685   8.237  0.7354 -0.5994 -0.6831
  781MOL0     C 2983  10.446   4.681   8.109  0.3359  0.3393 -0.6601
  781MOL0     O 2984  10.310   4.691   8.155  0.4125 -0.5569  0.0553
  781MOL0     C 2985  10.214   4.705   8.053 -0.3977  0.0852  0.4042
  781MOL0     C 2986  10.081   4.724   8.089 -0.3752  0.5283  0.2139
  781MOL0     C 2987   9.977   4.735   8.004  0.0442 -0.3562  0.4793
  781MOL0     C 2988   9.988   4.719   7.862  0.3741  0.6752 -0.0589
  781MOL0     C 2989   9.873   4.716   7.765 -0.2176  0.2098 -0.1267
  781MOL0     O 2990   9.757   4.769   7.812 -0.2062 -0.0959  0.0691
  781MOL0     C 2991   9.656   4.775   7.723  0.7591 -0.3958 -0.0353
  781MOL0     C 2992   9.609   4.896   7.690 -0.0724 -0.6256  0.6493
  781MOL0     C 2993   9.499   4.913   7.612  0.8760  0.1738 -0.7927
  781MOL0     C 2994   9.426   4.796   7.580  0.4075 -0.4879  0.9037
  781MOL0     O 2995   9.315   4.835   7.503 -0.1508  0.9128  0.3813
  781MOL0     C 2996   9.226   4.734   7.454  1.6353  0.4867  1.0423
  781MOL0     C 2997   9.161   4.799   7.319  0.2117 -0.3152 -0.8204
  781MOL0     C 2998   9.256   4.831   7.201 -0.3388  0.1697  0.2437
  781MOL0     C 2999   9.188   4.900   7.075 -0.6546 -0.5922 -0.8656
  781MOL0     C 3000   9.264   4.892   6.945 -0.2022  0.3873  0.4527
  781MOL0     C 3001   9.266   4.751   6.897  0.2864 -0.3027  0.0029
  781MOL0     C 3002   9.122   4.697   6.858  0.3425 -0.3970 -0.2607
  781MOL0     C 3003   9.029   4.786   6.763  0.0783  0.8752 -0.4357
  781MOL0    Cl 3004   8.870   4.711   6.724  0.0514  0.2723  0.8189
  781MOL0     C 3005   9.458   4.668   7.621 -0.2563  0.7013  0.0124
  781MOL0     C 3006   9.579   4.656   7.690  0.7252 -0.2018 -0.5755
  781MOL0     O 3007   9.889   4.666   7.652 -1.0081 -0.2691  0.5958
  781MOL0     C 3008  10.117   4.689   7.821  0.5203 -0.0684  0.5061
  781MOL0     C 3009  10.227   4.698   7.913 -0.6991 -1.1220 -0.1948
  781MOL0     N 3010  10.632   4.831   8.549 -0.2510  0.1619 -0.2471
  781MOL0     N 3011  10.618   4.949   8.583  0.4431  0.1454 -0.3705
  781MOL0     C 3012   9.478   5.331   8.724  0.3058  0.7589 -0.5035
  781MOL0     C 3013   9.339   5.318   8.708 -0.4828 -0.5494  0.4585
  781MOL0     C 3014   8.908   5.257   8.620 -0.5161 -0.0828  0.3323
  781MOL0     C 3015   8.811   5.348   8.653 -0.3682 -0.7030 -0.0845
  781MOL0     C 3016   8.677   5.291   8.662  0.0327 -0.0416 -0.2757
  781MOL0     C 3017   8.644   5.157   8.632  0.8721 -0.0231 -0.4701
  781MOL0     O 3018   8.508   5.127   8.622  0.2187 -0.3616  0.0718
  781MOL0     C 3019   8.457   5.028   8.540  0.2096 -0.0470  0.1271
  781MOL0     C 3020   8.336   5.061   8.450  0.0292 -0.6622  0.5984
  781MOL0     C 3021   8.303   4.943   8.362  0.7954  0.6098 -0.2846
  781MOL0     C 3022   8.171   4.961   8.279  0.4400  0.3614  0.8596
  781MOL0     C 3023   8.070   5.051   8.338  0.6547  0.1350 -0.1691
  781MOL0     C 3024   7.985   5.111   8.389  0.4017  0.2563 -0.0101
  781MOL0     C 3025   8.750   5.074   8.605  0.2273  0.7874  0.8233
  781MOL0     C 3026   8.882   5.121   8.606 -0.7754 -0.3633 -0.5894
  781MOL0     H 3027   9.362   5.059   8.478 -0.5080  1.0777 -2.9591
  781MOL0     H 3028   9.609   5.110   8.508  1.8893  0.5993  2.7477
  781MOL0     H 3029   9.757   5.380   8.458 -1.3861 -0.2868  0.4997
  781MOL0     H 3030   9.767   5.204   8.476  1.0015  0.5148 -0.1625
  781MOL0     H 3031   9.954   5.201   8.603 -3.0440 -0.7202 -1.5941
  781MOL0     H 3032   9.936   5.375   8.646 -0.2698 -0.8398  0.7871
  781MOL0     H 3033  10.009   5.440   8.420 -3.0185  0.2691  1.9896
  781MOL0     H 3034   9.988   5.274   8.368 -1.5778  2.9135 -1.2384
  781MOL0     H 3035  10.213   5.385   8.546 -1.4684  1.8933 -1.3463
  781MOL0     H 3036  10.161   5.208   8.520  0.7838  1.3923  2.2476
  781MOL0     H 3037  10.249   5.421   8.313  2.5802  1.5384  2.7169
  781MOL0     H 3038  10.233   5.240   8.281  2.3016  0.2969 -1.6799
  781MOL0     H 3039  10.435   5.373   8.470  0.6607  0.0652  0.9494
  781MOL0     H 3040  10.464   5.350   8.295 -0.6458  2.3451 -0.0844
  781MOL0     H 3041  10.399   5.122   8.501 -0.8226  0.2546 -1.0145
  781MOL0     H 3042  10.442   5.108   8.325 -1.1863 -1.9981  0.1729
  781MOL0     H 3043  10.629   5.204   8.572  1.1567 -2.7533  0.8261
  781MOL0     H 3044  10.679   5.217   8.400  0.7088 -1.2878 -0.6220
  781MOL0     H 3045  10.739   4.992   8.278 -2.3390  0.6255 -1.1405
  781MOL0     H 3046  10.741   4.624   8.405 -0.1470  0.6344  0.6399
  781MOL0     H 3047  10.857   4.731   8.331  0.0522 -0.8019 -2.5443
  781MOL0     H 3048  10.709   4.596   8.174 -3.5249 -2.2844  1.1877
  781MOL0     H 3049  10.697   4.764   8.133  0.7488 -1.7106 -0.7326
  781MOL0     H 3050  10.500   4.604   8.306  1.4855  0.1735  0.5344
  781MOL0     H 3051  10.483   4.771   8.291 -2.5513 -1.8720 -0.9082
  781MOL0     H 3052  10.464   4.584   8.062  3.9124 -0.8964  2.6956
  781MOL0     H 3053  10.479   4.763   8.044 -1.0103  0.8603 -0.7209
  781MOL0     H 3054  10.054   4.716   8.194 -1.9782  0.7730 -0.1545
  781MOL0     H 3055   9.879   4.746   8.049  0.9603  2.9690  1.9136
  781MOL0     H 3056   9.662   4.987   7.714 -0.5361  0.5127 -2.2500
  781MOL0     H 3057   9.469   5.007   7.568 -2.0650 -0.5113 -0.4334
  781MOL0     H 3058   9.141   4.712   7.519  1.0523 -2.7669 -0.6568
  781MOL0     H 3059   9.270   4.636   7.437  2.6316  1.1839 -0.5334
  781MOL0     H 3060   9.106   4.889   7.348  0.0541 -0.8441  0.5863
  781MOL0     H 3061   9.083   4.731   7.284  0.2825 -0.4022 -0.8098
  781MOL0     H 3062   9.284   4.729   7.173  2.1574  1.1930 -1.2584
  781MOL0     H 3063   9.345   4.886   7.233 -0.5524 -1.3066  3.8835
  781MOL0     H 3064   9.083   4.874   7.064 -1.2113  0.7752  0.7791
  781MOL0     H 3065   9.176   5.005   7.104 -0.3263 -1.2230  1.9011
  781MOL0     H 3066   9.366   4.928   6.955  1.1844 -3.1850  0.4796
  781MOL0     H 3067   9.211   4.955   6.873  0.1066  0.2913  0.1402
  781MOL0     H 3068   9.301   4.672   6.964  0.6275 -2.0025 -2.0631
  781MOL0     H 3069   9.335   4.740   6.813  1.2761 -2.0312  0.9736
  781MOL0     H 3070   9.135   4.605   6.800  3.4377  1.0609 -2.1456
  781MOL0     H 3071   9.064   4.666   6.946  1.2598 -0.1121  0.4532
  781MOL0     H 3072   9.077   4.797   6.665 -2.2731 -1.1157 -1.9264
  781MOL0     H 3073   9.008   4.882   6.812  0.4544 -0.6438  2.9539
  781MOL0     H 3074   9.389   4.585   7.613  1.5104 -0.7894 -0.5151
  781MOL0     H 3075   9.613   4.573   7.750  1.8739 -0.6293 -1.7694
  781MOL0     H 3076  10.142   4.674   7.716 -3.2216  0.4306 -0.6030
  781MOL0     H 3077  10.312   4.675   7.849  0.7118 -0.9241  1.5413
  781MOL0     H 3078   9.504   5.405   8.799 -0.2198 -0.0596  0.5156
  781MOL0     H 3079   9.280   5.386   8.769 -2.8318  1.4924 -3.6866
  781MOL0     H 3080   8.844   5.451   8.663  1.7956 -1.5115  1.8396
  781MOL0     H 3081   8.604   5.369   8.680  0.3432  0.5635 -1.5285
  781MOL0     H 3082   8.428   4.935   8.590  1.3632 -1.8624 -2.3701
  781MOL0     H 3083   8.539   5.001   8.473  0.6997  1.9223 -0.1462
  781MOL0     H 3084   8.252   5.098   8.509  1.8279  2.0467  1.6250
  781MOL0     H 3085   8.360   5.145   8.384  0.0022 -1.9527 -1.1566
  781MOL0     H 3086   8.298   4.855   8.427  5.4588 -0.0276 -0.4850
  781MOL0     H 3087   8.382   4.922   8.290 -0.9386 -1.0205 -1.7992
  781MOL0     H 3088   8.185   4.997   8.176 -0.4510  0.4222  0.7542
  781MOL0     H 3089   8.134   4.859   8.272  0.1714  0.5611 -1.7036
  781MOL0     H 3090   7.903   5.147   8.448  0.4960 -1.6652  1.3839
  781MOL0     H 3091   8.749   4.966   8.596 -1.8097  0.4480  3.7378
  781MOL0     H 3092   8.964   5.056   8.577  0.5255  1.8893 -2.3256
  782MOL0     O 3093   1.434   7.317   1.871  0.3710  0.1110 -0.2759
  782MOL0     C 3094   1.471   7.277   1.763  0.3691  0.2969  0.0387
  782MOL0     O 3095   1.394   7.265   1.654  1.6234 -0.2072 -0.4224
  782MOL0     C 3096   1.263   7.295   1.665 -0.0694 -0.3930 -0.1307
  782MOL0     C 3097   1.210   7.412   1.597 -1.0264  0.3408 -0.0711
  782MOL0     C 3098   1.088   7.442   1.603 -0.2622 -0.2704 -0.6070
  782MOL0     C 3099   0.996   7.365   1.684 -0.4254  0.0622  0.5784
  782MOL0     O 3100   0.867   7.416   1.687  0.1844 -0.6548  0.0946
  782MOL0     C 3101   0.778   7.372   1.792  0.5905 -0.3963  0.3291
  782MOL0     C 3102   0.632   7.416   1.756 -0.2586  0.3804  0.3175
  782MOL0     C 3103   0.525   7.414   1.868 -0.9770  0.5390  0.6835
  782MOL0     C 3104   0.404   7.493   1.816 -0.1110  0.2803 -0.5735
  782MOL0     C 3105   0.271   7.454   1.879  0.5101 -0.2717  0.9738
  782MOL0     C 3106   0.227   7.323   1.815 -0.6060 -0.4929 -0.4108
  782MOL0     C 3107   0.082   7.283   1.851  0.6415 -0.6126  0.1008
  782MOL0     C 3108   0.056   7.249   1.999 -0.4703  0.4744  0.9691
  782MOL0     N 3109   0.095   7.116   2.035 -0.1942 -0.0309 -0.5125
  782MOL0     C 3110   0.045   6.998   1.986  0.2751 -0.4384 -0.0171
  782MOL0     C 3111   0.105   6.895   2.058  0.4759  0.9088 -0.4629
  782MOL0     C 3112   0.065   6.753   2.063 -0.6817  0.5448  0.5150
  782MOL0     C 3113  -0.055   6.724   2.149 -1.5143 -0.5151 -0.6516
  782MOL0     C 3114  -0.022   6.775   2.296  0.2569  0.2820 -0.9013
  782MOL0     C 3115  -0.116   6.715   2.399  0.3351  0.3113  0.2648
  782MOL0     O 3116  -0.231   6.800   2.411 -0.1813  0.4928 -0.2027
  782MOL0     C 3117  -0.315   6.786   2.523  1.4529  0.0935  0.3246
  782MOL0     C 3118  -0.408   6.886   2.552 -0.3818  0.3075  0.9743
  782MOL0     C 3119  -0.491   6.870   2.656  0.4308  0.0833 -0.1660
  782MOL0     C 3120  -0.486   6.754   2.739  0.8405  0.3241  0.5003
  782MOL0     C 3121  -0.583   6.741   2.856 -0.9536 -0.0275 -0.7181
  782MOL0     O 3122  -0.690   6.834   2.871  0.8103 -0.1884 -0.1125
  782MOL0     C 3123  -0.785   6.811   2.964 -0.0701  0.2003 -0.0660
  782MOL0     C 3124  -0.762   6.805   3.104 -0.6692 -0.4804  0.0833
  782MOL0     C 3125  -0.865   6.787   3.191 -0.0385  0.3309 -0.3575
  782MOL0     C 3126  -0.996   6.777   3.150 -0.4326  0.8120  1.0777
  782MOL0     O 3127  -1.105   6.744   3.225 -0.2931 -0.0486 -0.6604
  782MOL0     C 3128  -1.096   6.701   3.366 -0.9145 -0.1328  0.2388
  782MOL0     C 3129  -1.231   6.701   3.435  0.0622 -0.1267  0.2644
  782MOL0     C 3130  -1.330   6.638   3.332  0.7248  0.0492  0.1117
  782MOL0     C 3131  -1.462   6.614   3.415 -0.0752 -0.1682 -0.6301
  782MOL0     C 3132  -1.562   6.531   3.323 -0.2084 -1.2469  0.1613
  782MOL0     C 3133  -1.684   6.470   3.404  0.1358  0.1570 -0.5797
  782MOL0     C 3134  -1.748   6.367   3.314  0.2278 -0.6010 -0.5334
  782MOL0     C 3135  -1.877   6.319   3.383 -1.0987  0.5177 -0.6857
  782MOL0    Cl 3136  -1.960   6.206   3.276  0.0358 -0.7382  0.0310
  782MOL0     C 3137  -1.027   6.770   3.006 -0.1168 -0.6330 -0.6870
  782MOL0     C 3138  -0.919   6.797   2.916  0.8541 -0.2640 -0.5584
  782MOL0     O 3139  -0.563   6.639   2.925  0.3322 -0.1884  0.2968
  782MOL0     C 3140  -0.399   6.650   2.715 -0.0571 -0.0022 -0.7581
  782MOL0     C 3141  -0.329   6.658   2.595  0.7865  0.1296  0.2435
  782MOL0     N 3142   0.196   6.961   2.140  0.5577  0.4841 -0.3023
  782MOL0     N 3143   0.176   7.088   2.139 -0.4262 -0.8007 -0.8696
  782MOL0     C 3144   1.050   7.257   1.752  0.2997 -0.6769 -0.1808
  782MOL0     C 3145   1.184   7.216   1.737 -0.1415  0.2645 -0.6426
  782MOL0     C 3146   1.614   7.244   1.746 -0.3537 -1.2697  0.0667
  782MOL0     C 3147   1.666   7.261   1.619  0.2368  0.0924  0.3033
  782MOL0     C 3148   1.805   7.235   1.602 -0.0006  0.1129 -0.1472
  782MOL0     C 3149   1.893   7.195   1.704  0.6997 -0.4059  0.6922
  782MOL0     O 3150   2.021   7.166   1.686  0.6983  0.7351 -0.4081
  782MOL0     C 3151   2.050   7.038   1.629  0.0208 -1.0725 -0.5194
  782MOL0     C 3152   2.195   7.021   1.579  0.7875  0.5937  0.8475
  782MOL0     C 3153   2.198   6.873   1.523  0.4136  0.7807  0.2402
  782MOL0     C 3154   2.339   6.832   1.486 -0.0105 -0.4952  0.6556
  782MOL0     C 3155   2.331   6.727   1.388  0.1022 -0.0843  0.1967
  782MOL0     C 3156   2.297   6.644   1.299 -0.4417  0.1970 -0.5231
  782MOL0     C 3157   1.836   7.182   1.829 -0.2593  0.0677 -0.4405
  782MOL0     C 3158   1.707   7.209   1.849  0.5653  0.0066 -1.2343
  782MOL0     H 3159   1.282   7.480   1.552  2.3195 -1.0921  2.6940
  782MOL0     H 3160   1.044   7.526   1.550 -1.8653 -0.3319  0.5379
  782MOL0     H 3161   0.801   7.419   1.887  2.0796  1.5775 -0.9282
  782MOL0     H 3162   0.769   7.264   1.811 -0.3908 -0.4496 -0.3501
  782MOL0     H 3163   0.600   7.363   1.666 -1.3279  0.3422  0.7079
  782MOL0     H 3164   0.649   7.522   1.735  0.1483  0.1589 -0.5090
  782MOL0     H 3165   0.573   7.475   1.944  0.4087  2.2417 -1.4188
  782MOL0     H 3166   0.492   7.314   1.897  2.7058 -1.2083 -0.4973
  782MOL0     H 3167   0.427   7.598   1.838  2.4294  0.6647 -4.1174
  782MOL0     H 3168   0.406   7.486   1.706  3.7045 -0.0432 -0.6097
  782MOL0     H 3169   0.194   7.526   1.850  1.6909 -0.0709 -1.9407
  782MOL0     H 3170   0.282   7.451   1.988  1.9179  0.7380  0.8865
  782MOL0     H 3171   0.291   7.237   1.836 -2.8277 -2.4006 -1.0381
  782MOL0     H 3172   0.236   7.333   1.706  0.2145  3.9537 -0.1141
  782MOL0     H 3173   0.006   7.353   1.815 -1.5744 -3.4924 -1.3639
  782MOL0     H 3174   0.064   7.200   1.781 -1.8097 -1.5671  1.6861
  782MOL0     H 3175  -0.046   7.265   2.033 -0.5710  1.8046  0.1137
  782MOL0     H 3176   0.124   7.310   2.059 -1.1969  1.2013  1.0791
  782MOL0     H 3177  -0.037   6.988   1.915 -0.6406  0.7541  0.8425
  782MOL0     H 3178   0.153   6.693   2.085 -1.8792 -0.7186  2.1529
  782MOL0     H 3179   0.046   6.728   1.958  3.4904 -1.3352  0.0153
  782MOL0     H 3180  -0.079   6.618   2.157  1.0148 -1.0322  1.3142
  782MOL0     H 3181  -0.143   6.776   2.109 -2.8115 -1.2905  1.0616
  782MOL0     H 3182   0.073   6.740   2.337 -0.7963 -1.0769  0.5180
  782MOL0     H 3183  -0.006   6.882   2.309 -1.5894  0.4157  0.6408
  782MOL0     H 3184  -0.069   6.701   2.497 -0.7371 -0.8307  0.6403
  782MOL0     H 3185  -0.136   6.612   2.369  2.0298 -0.4846  1.6976
  782MOL0     H 3186  -0.417   6.973   2.488  0.5822  0.0993  0.5214
  782MOL0     H 3187  -0.543   6.960   2.687  2.9277  1.5041  0.1570
  782MOL0     H 3188  -0.662   6.832   3.137 -0.6962  3.2180 -2.3189
  782MOL0     H 3189  -0.854   6.782   3.299  0.8935 -0.7605 -0.4850
  782MOL0     H 3190  -1.025   6.767   3.416 -2.2598  3.3344 -2.0484
  782MOL0     H 3191  -1.055   6.599   3.359  0.1239  0.2522  0.5033
  782MOL0     H 3192  -1.265   6.802   3.461  2.1791  0.5835  0.4683
  782MOL0     H 3193  -1.226   6.633   3.520 -0.5106  0.6506  0.9460
  782MOL0     H 3194  -1.299   6.544   3.285 -0.2527 -0.0852 -0.2923
  782MOL0     H 3195  -1.338   6.711   3.251 -1.0880  0.7219  0.8449
  782MOL0     H 3196  -1.441   6.560   3.508  3.7757  1.6127 -0.2810
  782MOL0     H 3197  -1.510   6.704   3.456 -0.6367 -0.4072 -0.7492
  782MOL0     H 3198  -1.495   6.453   3.286  2.1764  1.2512 -1.2457
  782MOL0     H 3199  -1.594   6.599   3.243 -3.7312 -0.3637  2.1150
  782MOL0     H 3200  -1.754   6.551   3.423 -0.9491 -0.2769 -2.4437
  782MOL0     H 3201  -1.657   6.426   3.500  0.5073 -0.4863 -0.9718
  782MOL0     H 3202  -1.766   6.407   3.213  0.3371 -2.4226 -1.3074
  782MOL0     H 3203  -1.672   6.289   3.298  1.4081  0.3311  0.3099
  782MOL0     H 3204  -1.938   6.407   3.406 -3.7291 -1.1340 -0.8377
  782MOL0     H 3205  -1.854   6.272   3.479  1.7527  1.4415 -0.8256
  782MOL0     H 3206  -1.127   6.752   2.968  0.1848 -2.3229 -0.7555
  782MOL0     H 3207  -0.948   6.792   2.812  2.7413 -1.1242 -1.0798
  782MOL0     H 3208  -0.394   6.563   2.780  1.4166  1.1016  0.6881
  782MOL0     H 3209  -0.259   6.578   2.573  1.0146 -0.1744  1.9243
  782MOL0     H 3210   0.994   7.188   1.814  0.3284  0.4751  1.1672
  782MOL0     H 3211   1.223   7.135   1.799 -1.6514 -0.8354 -1.0673
  782MOL0     H 3212   1.609   7.293   1.532 -1.4846 -0.0793  1.3231
  782MOL0     H 3213   1.855   7.257   1.508  0.4844 -0.1507  0.0460
  782MOL0     H 3214   1.983   7.034   1.543 -2.3165 -0.0241  1.1449
  782MOL0     H 3215   2.027   6.965   1.707 -0.4838 -1.1788 -0.7681
  782MOL0     H 3216   2.200   7.090   1.494  0.5315 -2.7790 -2.1524
  782MOL0     H 3217   2.272   7.037   1.655 -0.8775  2.3387  2.2470
  782MOL0     H 3218   2.147   6.878   1.427  0.3435  0.2391  0.2444
  782MOL0     H 3219   2.151   6.793   1.581 -0.9619 -0.8231 -2.8375
  782MOL0     H 3220   2.395   6.917   1.447 -1.9081  0.8475  0.6874
  782MOL0     H 3221   2.381   6.790   1.578 -0.4677  0.4119  1.3001
  782MOL0     H 3222   2.279   6.570   1.223 -0.9036 -0.4777  0.2302
  782MOL0     H 3223   1.901   7.157   1.913 -1.8157 -1.7384  0.3014
  782MOL0     H 3224   1.660   7.200   1.946  1.0449  0.8880 -0.9017
  783MOL0     O 3225   2.854   5.384   4.442  0.3805  0.1118 -0.5354
  783MOL0     C 3226   2.897   5.499   4.461 -0.5098  0.0515 -0.2824
  783MOL0     O 3227   2.825   5.617   4.478 -0.5336 -0.7146  0.3706
  783MOL0     C 3228   2.691   5.610   4.444  0.5550  0.4781 -0.3635
  783MOL0     C 3229   2.599   5.527   4.514  0.0073  0.0818  0.1778
  783MOL0     C 3230   2.462   5.537   4.492  0.4290 -0.1404  0.7831
  783MOL0     C 3231   2.412   5.640   4.400 -0.5430  0.0342 -0.2555
  783MOL0     O 3232   2.276   5.658   4.395  0.1113  0.4605 -0.7120
  783MOL0     C 3233   2.216   5.757   4.309 -0.2253 -0.2597  0.3309
  783MOL0     C 3234   2.072   5.731   4.286 -0.9579 -1.0375  0.1009
  783MOL0     C 3235   2.005   5.725   4.428 -0.1183 -0.4399  0.2514
  783MOL0     C 3236   1.893   5.621   4.409  0.8004 -0.6389  0.7452
  783MOL0     C 3237   1.768   5.649   4.496  0.1654  0.1214 -0.0649
  783MOL0     C 3238   1.664   5.542   4.472 -0.2691 -0.2059  0.8264
  783MOL0     C 3239   1.519   5.562   4.531  0.3537 -1.3176 -0.3340
  783MOL0     C 3240   1.523   5.609   4.676 -0.4018 -0.2843 -0.4047
  783MOL0     N 3241   1.394   5.599   4.748  0.2864  0.2175  0.2016
  783MOL0     C 3242   1.324   5.481   4.766  0.6044 -0.0002  0.8366
  783MOL0     C 3243   1.234   5.512   4.857 -0.0013 -0.5870  0.9171
  783MOL0     C 3244   1.115   5.418   4.903  0.5694  0.9752  0.8573
  783MOL0     C 3245   1.012   5.513   4.965  0.2809 -1.1609 -0.4573
  783MOL0     C 3246   0.890   5.432   5.009  0.1031 -0.7020 -0.3092
  783MOL0     C 3247   0.776   5.457   4.915 -0.1506 -0.0281 -0.8462
  783MOL0     O 3248   0.667   5.364   4.928 -0.2252  0.0338  0.3627
  783MOL0     C 3249   0.539   5.417   4.946 -0.0189  1.2405 -0.4035
  783MOL0     C 3250   0.498   5.532   4.900  0.7599 -0.4149 -0.3356
  783MOL0     C 3251   0.366   5.573   4.923  0.2081 -0.2600 -0.3818
  783MOL0     C 3252   0.261   5.495   4.982  0.0112 -0.4630  0.6567
  783MOL0     C 3253   0.126   5.542   4.997 -0.9133  0.5311  0.9633
  783MOL0     O 3254   0.095   5.662   4.949 -0.4579  0.2598  0.3726
  783MOL0     C 3255  -0.036   5.707   4.961  0.6168 -0.7956 -0.3313
  783MOL0     C 3256  -0.160   5.639   4.980  0.3831  0.3076 -0.5086
  783MOL0     C 3257  -0.280   5.709   4.959  0.1424 -0.5630  0.1129
  783MOL0     C 3258  -0.288   5.843   4.945 -0.2286 -0.6949  0.8393
  783MOL0     O 3259  -0.393   5.922   4.913  0.1899 -0.4015  0.2225
  783MOL0     C 3260  -0.529   5.889   4.936  0.8294  0.1845 -0.6205
  783MOL0     C 3261  -0.618   6.005   4.892 -0.0138 -0.2478  0.9133
  783MOL0     C 3262  -0.647   6.014   4.737  1.3761  0.3067 -0.1490
  783MOL0     C 3263  -0.649   6.154   4.680 -0.0619 -0.6544  0.2259
  783MOL0     C 3264  -0.712   6.154   4.541  0.0203  0.0815 -0.4356
  783MOL0     C 3265  -0.716   6.298   4.487  0.5971 -0.0755  0.3816
  783MOL0     C 3266  -0.593   6.338   4.405  0.8012  0.5723 -0.4932
  783MOL0     C 3267  -0.626   6.377   4.267  0.2790  0.1201 -0.3908
  783MOL0    Cl 3268  -0.678   6.240   4.172 -0.0380  0.4164  0.2937
  783MOL0     C 3269  -0.160   5.912   4.938  0.8479  0.0203 -0.1735
  783MOL0     C 3270  -0.041   5.848   4.950  0.0579 -0.2405 -0.2020
  783MOL0     O 3271   0.067   5.475   5.079  0.2423 -0.0765 -0.0337
  783MOL0     C 3272   0.315   5.371   5.029  0.5488  1.5179  0.2612
  783MOL0     C 3273   0.453   5.333   5.016 -0.6525  0.2301 -0.5534
  783MOL0     N 3274   1.239   5.641   4.895  0.0397  0.8412  0.4069
  783MOL0     N 3275   1.338   5.695   4.829 -0.3061 -0.5513 -0.0378
  783MOL0     C 3276   2.515   5.708   4.325  1.4346 -1.0941  0.1449
  783MOL0     C 3277   2.644   5.699   4.346  0.3832  0.3482 -0.3312
  783MOL0     C 3278   3.042   5.502   4.466 -0.0870 -0.4402 -0.4956
  783MOL0     C 3279   3.106   5.611   4.530  0.3544  0.1723  1.2524
  783MOL0     C 3280   3.246   5.610   4.538  0.5162 -0.3069 -0.9104
  783MOL0     C 3281   3.319   5.505   4.504 -0.4821  0.1726  0.0527
  783MOL0     O 3282   3.450   5.493   4.539  0.4646 -0.7477 -0.0169
  783MOL0     C 3283   3.537   5.603   4.545  0.5778  0.6210  0.5023
  783MOL0     C 3284   3.688   5.566   4.547  0.2113  0.0876 -0.1628
  783MOL0     C 3285   3.733   5.486   4.424  0.3806  0.2506  0.7059
  783MOL0     C 3286   3.695   5.553   4.287  0.5329 -0.0735  0.2344
  783MOL0     C 3287   3.752   5.691   4.282 -0.0972  0.8523 -0.4419
  783MOL0     C 3288   3.823   5.788   4.281 -0.4107  0.0368  0.5272
  783MOL0     C 3289   3.255   5.400   4.448 -0.8603 -0.5926  0.1201
  783MOL0     C 3290   3.121   5.393   4.423  1.3866  0.0622 -0.2593
  783MOL0     H 3291   2.638   5.455   4.586 -2.2148 -0.2354  1.1294
  783MOL0     H 3292   2.387   5.477   4.541 -0.0031  0.7108  1.1964
  783MOL0     H 3293   2.259   5.754   4.208  0.2471  0.6981  0.5005
  783MOL0     H 3294   2.220   5.860   4.344  1.0333  0.0920 -0.7794
  783MOL0     H 3295   2.062   5.635   4.234  1.6211 -0.8904 -0.8283
  783MOL0     H 3296   2.037   5.812   4.221 -0.1116 -0.6689  0.0790
  783MOL0     H 3297   1.962   5.823   4.451 -2.6414 -0.9868 -1.7459
  783MOL0     H 3298   2.073   5.698   4.509 -0.7943 -0.9099  0.6642
  783MOL0     H 3299   1.862   5.636   4.305  2.5920 -0.3330  0.2180
  783MOL0     H 3300   1.931   5.520   4.426  2.2725 -0.3586 -0.6035
  783MOL0     H 3301   1.723   5.745   4.467  1.4241  0.7458 -0.0297
  783MOL0     H 3302   1.807   5.634   4.597  2.5560  0.6943 -0.8306
  783MOL0     H 3303   1.697   5.440   4.496 -0.7968 -0.5455  0.1283
  783MOL0     H 3304   1.649   5.539   4.364  0.2843  1.5795  0.6605
  783MOL0     H 3305   1.471   5.643   4.476  0.5426 -0.1761  1.1274
  783MOL0     H 3306   1.446   5.484   4.509 -2.4783  0.9769  0.3422
  783MOL0     H 3307   1.562   5.711   4.688 -1.5083  0.1370 -0.3169
  783MOL0     H 3308   1.586   5.532   4.720  0.0719 -0.3206 -1.1224
  783MOL0     H 3309   1.335   5.386   4.716  0.3313  0.8193 -0.8512
  783MOL0     H 3310   1.159   5.344   4.970  2.1814  0.6703 -0.4766
  783MOL0     H 3311   1.063   5.369   4.820  0.1780  0.8533  1.1698
  783MOL0     H 3312   0.985   5.594   4.897  0.7478  0.0094  0.7110
  783MOL0     H 3313   1.055   5.564   5.052 -3.1402  0.9919  0.1524
  783MOL0     H 3314   0.916   5.326   5.022  1.5108 -0.1158  2.5536
  783MOL0     H 3315   0.864   5.460   5.112 -1.8837  1.0648 -1.2138
  783MOL0     H 3316   0.810   5.447   4.811  1.5491  1.9492 -0.5376
  783MOL0     H 3317   0.744   5.558   4.942  2.2580  0.1442  1.8849
  783MOL0     H 3318   0.566   5.592   4.841  1.0919  1.0981  1.5032
  783MOL0     H 3319   0.338   5.666   4.874  1.2992  2.1630  3.1803
  783MOL0     H 3320  -0.153   5.533   5.003 -1.5810  0.1984 -0.2111
  783MOL0     H 3321  -0.371   5.651   4.968 -0.2448  0.0032 -0.1618
  783MOL0     H 3322  -0.560   5.874   5.040  0.9209  2.9374 -0.1220
  783MOL0     H 3323  -0.556   5.798   4.881  1.3346 -1.1593  1.2222
  783MOL0     H 3324  -0.566   6.098   4.921 -0.8681  0.4340  0.2936
  783MOL0     H 3325  -0.706   6.007   4.956  1.7125 -1.2002  3.5064
  783MOL0     H 3326  -0.744   5.966   4.728  0.0261  3.0391 -1.6940
  783MOL0     H 3327  -0.584   5.941   4.685  0.4201 -0.5691 -0.0983
  783MOL0     H 3328  -0.722   6.210   4.740 -0.1053 -1.9830  1.4612
  783MOL0     H 3329  -0.548   6.196   4.682  0.6668 -2.3607  1.5051
  783MOL0     H 3330  -0.816   6.124   4.556 -0.0761 -0.7019 -2.3194
  783MOL0     H 3331  -0.665   6.084   4.470  1.8729 -0.6254  1.3945
  783MOL0     H 3332  -0.734   6.364   4.572  4.5290 -0.0876  1.3826
  783MOL0     H 3333  -0.802   6.296   4.419 -0.0123 -0.2346  1.1366
  783MOL0     H 3334  -0.546   6.425   4.452 -0.3773  0.0090  1.9034
  783MOL0     H 3335  -0.524   6.253   4.407  0.9854  0.7204  1.0878
  783MOL0     H 3336  -0.527   6.403   4.229  0.7229 -3.3656 -1.9829
  783MOL0     H 3337  -0.697   6.460   4.271 -1.1998 -1.1167 -0.1595
  783MOL0     H 3338  -0.163   6.021   4.931 -1.0079  0.0203  0.0783
  783MOL0     H 3339   0.046   5.907   4.925  0.6530  0.0175  2.2955
  783MOL0     H 3340   0.249   5.300   5.077 -0.0113  1.8358 -0.0363
  783MOL0     H 3341   0.481   5.238   5.060 -1.9441 -0.6133 -1.4612
  783MOL0     H 3342   2.485   5.776   4.246  0.2166  0.0073  1.4931
  783MOL0     H 3343   2.715   5.755   4.286 -0.8563  1.7917 -0.5074
  783MOL0     H 3344   3.056   5.700   4.567 -2.7587 -1.0756  0.3460
  783MOL0     H 3345   3.293   5.691   4.593 -2.4615  1.2831 -0.5018
  783MOL0     H 3346   3.505   5.668   4.627 -3.2642  0.8836 -1.0266
  783MOL0     H 3347   3.530   5.649   4.446  1.1785 -1.3439 -0.5104
  783MOL0     H 3348   3.755   5.652   4.557  0.7101 -0.2158 -0.7886
  783MOL0     H 3349   3.696   5.511   4.641  1.0875  0.8369  0.2092
  783MOL0     H 3350   3.688   5.387   4.434  0.7506 -0.0254 -0.2646
  783MOL0     H 3351   3.842   5.469   4.422  0.6790  2.0534 -0.7839
  783MOL0     H 3352   3.752   5.493   4.215 -0.5971  1.4943 -2.0699
  783MOL0     H 3353   3.591   5.544   4.255  0.8314 -1.9185 -0.3991
  783MOL0     H 3354   3.898   5.863   4.291  2.0407 -1.7808 -2.6638
  783MOL0     H 3355   3.322   5.315   4.436 -1.1790 -0.5090 -3.0591
  783MOL0     H 3356   3.076   5.308   4.373 -0.3717  1.0336 -0.3971
  784MOL0     O 3357  10.554   8.302   7.630 -0.2018  0.8817 -0.3043
  784MOL0     C 3358  10.563   8.336   7.747 -0.7291 -0.3342  0.2392
  784MOL0     O 3359  10.485   8.423   7.811 -0.4478  0.4127 -0.4736
  784MOL0     C 3360  10.355   8.451   7.764 -0.1379 -0.2209  0.0939
  784MOL0     C 3361  10.326   8.587   7.777 -0.2376  0.2829 -0.7522
  784MOL0     C 3362  10.204   8.632   7.741  1.1075  0.0519  0.0283
  784MOL0     C 3363  10.108   8.552   7.689  0.0919  0.1800  0.3588
  784MOL0     O 3364   9.983   8.610   7.659 -1.0293  1.4378  0.2680
  784MOL0     C 3365   9.899   8.552   7.563  0.2281  1.0803 -0.3563
  784MOL0     C 3366   9.768   8.628   7.538 -0.5393  0.4974  0.0240
  784MOL0     C 3367   9.699   8.593   7.416  0.1257 -0.0570  1.1080
  784MOL0     C 3368   9.544   8.623   7.417  0.4290  0.3628  0.0351
  784MOL0     C 3369   9.508   8.766   7.455  0.1516 -0.2422  0.1921
  784MOL0     C 3370   9.367   8.803   7.412 -0.2989 -0.0489 -0.3361
  784MOL0     C 3371   9.316   8.761   7.281  0.2752  0.5237 -0.0680
  784MOL0     C 3372   9.179   8.825   7.248  0.3000  0.8030  0.1579
  784MOL0     N 3373   9.108   8.775   7.131  0.0491  0.0522  0.5561
  784MOL0     C 3374   9.150   8.772   7.002 -0.4491  0.5220  0.0162
  784MOL0     C 3375   9.048   8.735   6.920 -0.0720 -0.3928  0.4176
  784MOL0     C 3376   9.067   8.743   6.765 -0.4072 -0.1145 -0.3278
  784MOL0     C 3377   9.012   8.631   6.689 -0.6834 -0.1330  0.1510
  784MOL0     C 3378   9.087   8.498   6.714  0.0561 -0.2755  0.2075
  784MOL0     C 3379   9.045   8.410   6.602 -0.8302 -0.2797 -0.7678
  784MOL0     O 3380   8.924   8.346   6.651 -0.5021 -0.2549  0.4556
  784MOL0     C 3381   8.837   8.284   6.569  0.3811 -0.0172 -0.9129
  784MOL0     C 3382   8.816   8.312   6.436  0.3824  0.1869  0.3537
  784MOL0     C 3383   8.698   8.279   6.375 -0.1305  0.0036  0.9505
  784MOL0     C 3384   8.600   8.197   6.437 -0.0032 -0.0134  0.7910
  784MOL0     C 3385   8.463   8.180   6.374 -0.1160  0.8967 -0.1839
  784MOL0     O 3386   8.365   8.153   6.455  0.1480  0.9743 -0.0438
  784MOL0     C 3387   8.229   8.165   6.422  0.0359 -0.0574  0.3703
  784MOL0     C 3388   8.177   8.243   6.316 -0.4050 -0.3843  0.5660
  784MOL0     C 3389   8.045   8.268   6.302  0.1644 -0.5211  0.1126
  784MOL0     C 3390   7.948   8.183   6.374 -0.6326 -0.3230 -0.4692
  784MOL0     O 3391   7.807   8.194   6.356 -0.8040  0.4515 -0.4052
  784MOL0     C 3392   7.738   8.235   6.238  0.1539 -0.5323 -0.4561
  784MOL0     C 3393   7.592   8.224   6.273 -0.7460 -0.3427  0.3229
  784MOL0     C 3394   7.555   8.324   6.393  0.8508  0.4128  1.2680
  784MOL0     C 3395   7.403   8.306   6.426  0.5970 -0.7842 -0.7403
  784MOL0     C 3396   7.367   8.426   6.525  0.8755  0.3214  0.3276
  784MOL0     C 3397   7.211   8.438   6.541 -0.6061  0.1924 -0.4076
  784MOL0     C 3398   7.172   8.569   6.610 -0.9582  0.1422 -0.1976
  784MOL0     C 3399   7.021   8.570   6.632 -0.4056 -0.1553  0.0624
  784MOL0    Cl 3400   6.978   8.706   6.736 -0.1085  0.0680  0.3375
  784MOL0     C 3401   7.998   8.099   6.471  0.4168 -0.4751  0.3392
  784MOL0     C 3402   8.136   8.103   6.495  0.2453  0.4269 -0.4056
  784MOL0     O 3403   8.464   8.194   6.250  1.1175 -0.1269  0.2476
  784MOL0     C 3404   8.625   8.164   6.573 -0.2309 -0.0366 -0.0243
  784MOL0     C 3405   8.749   8.205   6.633  0.3867 -0.9008 -0.9068
  784MOL0     N 3406   8.943   8.714   7.007 -0.2478 -0.4251  0.1872
  784MOL0     N 3407   8.983   8.732   7.126  0.0816 -0.5150 -0.1962
  784MOL0     C 3408  10.136   8.418   7.670 -0.0010  0.6465 -0.1713
  784MOL0     C 3409  10.263   8.359   7.707 -0.1130 -0.3155 -0.0910
  784MOL0     C 3410  10.677   8.283   7.816 -0.6133 -0.7086 -1.2444
  784MOL0     C 3411  10.728   8.158   7.768 -0.4685 -0.2923 -0.0056
  784MOL0     C 3412  10.848   8.116   7.827 -0.6237 -0.3817 -0.3361
  784MOL0     C 3413  10.903   8.179   7.938  0.2187 -0.1235  0.2928
  784MOL0     O 3414  11.019   8.111   7.987 -0.2431  0.0816  0.4177
  784MOL0     C 3415  11.068   8.177   8.113  0.1468  0.0587  0.4758
  784MOL0     C 3416  11.223   8.132   8.131  0.7537  0.4668 -0.0463
  784MOL0     C 3417  11.234   7.984   8.168  0.8921  0.4108 -0.2554
  784MOL0     C 3418  11.381   7.938   8.204  0.4445  0.0400 -0.5103
  784MOL0     C 3419  11.378   7.799   8.264 -0.9967  0.1316  0.7832
  784MOL0     C 3420  11.405   7.693   8.308 -0.1909  0.4188  0.3211
  784MOL0     C 3421  10.848   8.303   7.985 -0.9435 -0.2802  0.5342
  784MOL0     C 3422  10.740   8.358   7.917  0.2206  0.4520  0.2132
  784MOL0     H 3423  10.406   8.648   7.819  2.1896 -0.8036 -3.4448
  784MOL0     H 3424  10.198   8.741   7.737  2.8534  0.2568  1.4139
  784MOL0     H 3425   9.870   8.453   7.596 -0.4664  1.8889  1.5676
  784MOL0     H 3426   9.953   8.528   7.471 -1.2981 -0.2082 -0.9524
  784MOL0     H 3427   9.798   8.733   7.534  1.6126 -0.0895 -0.3696
  784MOL0     H 3428   9.694   8.620   7.619 -1.0672  2.5444 -0.1995
  784MOL0     H 3429   9.704   8.484   7.416 -1.5001 -0.2882 -2.4875
  784MOL0     H 3430   9.742   8.638   7.326  0.8888 -2.6730  0.0784
  784MOL0     H 3431   9.500   8.598   7.320  0.3483 -0.7805  0.3529
  784MOL0     H 3432   9.500   8.558   7.493 -0.2060 -0.1086 -0.7185
  784MOL0     H 3433   9.575   8.837   7.406 -1.2212  0.9432 -0.0309
  784MOL0     H 3434   9.514   8.773   7.564  0.7026 -1.1160  0.2271
  784MOL0     H 3435   9.352   8.911   7.419 -1.5875 -0.1562 -1.0898
  784MOL0     H 3436   9.292   8.772   7.486 -0.5509 -0.5792 -0.8115
  784MOL0     H 3437   9.381   8.785   7.196  0.7403  0.4964  0.2744
  784MOL0     H 3438   9.310   8.652   7.272 -1.3420  0.6041 -0.2514
  784MOL0     H 3439   9.180   8.933   7.231 -0.4956  0.9391  0.8692
  784MOL0     H 3440   9.111   8.817   7.334 -0.3552  3.9504  0.0500
  784MOL0     H 3441   9.249   8.794   6.965  0.8933 -0.9492  2.5170
  784MOL0     H 3442   9.174   8.755   6.745  0.1608 -0.5275  2.0576
  784MOL0     H 3443   9.021   8.837   6.732  0.8590  0.3743 -0.7701
  784MOL0     H 3444   9.023   8.668   6.586  1.6267 -0.5651  0.1813
  784MOL0     H 3445   8.907   8.616   6.716 -0.4441  0.3070  1.3994
  784MOL0     H 3446   9.195   8.517   6.720 -0.2208  1.8090 -0.5717
  784MOL0     H 3447   9.074   8.458   6.815 -1.7261 -0.1156  0.0748
  784MOL0     H 3448   9.122   8.336   6.578  0.2589  0.8389 -0.8425
  784MOL0     H 3449   9.041   8.471   6.511  1.1567 -2.0887 -2.1945
  784MOL0     H 3450   8.888   8.367   6.377 -1.2744  2.7678  0.5726
  784MOL0     H 3451   8.698   8.300   6.268  0.6095 -0.6716  0.8080
  784MOL0     H 3452   8.246   8.296   6.251 -2.5392  0.8738 -0.7591
  784MOL0     H 3453   7.998   8.332   6.229  0.3397 -0.4280  0.0809
  784MOL0     H 3454   7.769   8.172   6.154  2.7931 -0.0110  0.0530
  784MOL0     H 3455   7.761   8.339   6.213 -0.0655 -0.6972 -1.3874
  784MOL0     H 3456   7.574   8.119   6.299 -2.9105 -0.4280 -1.2430
  784MOL0     H 3457   7.527   8.238   6.186 -3.9713 -0.1162  2.5678
  784MOL0     H 3458   7.575   8.425   6.357  0.6134  0.0854  0.1714
  784MOL0     H 3459   7.618   8.295   6.478 -0.3722 -3.0388  1.1503
  784MOL0     H 3460   7.342   8.302   6.335 -0.5413  1.4251 -0.1439
  784MOL0     H 3461   7.384   8.214   6.482 -2.2965  0.2321  0.1221
  784MOL0     H 3462   7.425   8.515   6.498 -2.5966  2.5910 -0.3042
  784MOL0     H 3463   7.402   8.406   6.626 -2.4772 -0.2992  1.4893
  784MOL0     H 3464   7.167   8.347   6.582 -0.2191  0.2178  0.0726
  784MOL0     H 3465   7.171   8.440   6.439 -4.3947 -0.7666  0.9001
  784MOL0     H 3466   7.220   8.582   6.707 -0.4647 -1.1053 -0.2549
  784MOL0     H 3467   7.203   8.648   6.541 -2.8491 -0.7646 -2.2135
  784MOL0     H 3468   6.983   8.474   6.667 -5.0441  0.8259 -1.5020
  784MOL0     H 3469   6.976   8.570   6.532 -0.0633 -0.4224 -0.0922
  784MOL0     H 3470   7.939   8.027   6.526  0.3168  0.3707  1.3723
  784MOL0     H 3471   8.178   8.030   6.563 -1.6600 -0.1824  0.1972
  784MOL0     H 3472   8.546   8.116   6.631 -2.2000  0.7791 -1.9030
  784MOL0     H 3473   8.770   8.186   6.738 -1.6257 -0.5786 -0.3895
  784MOL0     H 3474  10.066   8.356   7.614  1.3236 -2.2482  1.1593
  784MOL0     H 3475  10.288   8.255   7.686 -0.2802 -0.1078 -1.4540
  784MOL0     H 3476  10.675   8.097   7.697  0.1133 -0.6104 -0.1695
  784MOL0     H 3477  10.891   8.024   7.788  0.0895  0.0320 -0.5424
  784MOL0     H 3478  11.007   8.156   8.200  1.0786  1.9564  1.6607
  784MOL0     H 3479  11.070   8.286   8.104  2.1082 -0.0996 -3.8171
  784MOL0     H 3480  11.266   8.151   8.032  0.9400  2.8825  0.4291
  784MOL0     H 3481  11.280   8.188   8.206  0.9069 -1.0067  0.9643
  784MOL0     H 3482  11.201   7.908   8.097  0.7187 -2.1315  2.3542
  784MOL0     H 3483  11.163   7.966   8.249  0.3289 -0.8813 -1.0018
  784MOL0     H 3484  11.439   7.945   8.112  1.1814  1.1470  0.0178
  784MOL0     H 3485  11.427   8.004   8.277 -0.0282  0.8198 -0.9097
  784MOL0     H 3486  11.441   7.598   8.344  3.3533  1.5304  0.0395
  784MOL0     H 3487  10.892   8.354   8.070 -2.0576 -0.8112  1.4488
  784MOL0     H 3488  10.683   8.440   7.960 -3.0876 -0.3835 -2.1957
  785MOL0     O 3489   3.086   5.653   0.500  0.4136 -0.7563 -0.3244
  785MOL0     C 3490   3.160   5.691   0.588 -0.1422  0.5975 -0.5119
  785MOL0     O 3491   3.158   5.814   0.647 -0.2450  0.1187  0.5674
  785MOL0     C 3492   3.052   5.898   0.617  0.2914  1.2369  0.5458
  785MOL0     C 3493   3.074   6.019   0.544  0.4082 -0.6086  1.0410
  785MOL0     C 3494   2.970   6.111   0.504 -0.0515 -0.7542 -0.4058
  785MOL0     C 3495   2.842   6.067   0.537  0.2277 -0.5067 -0.4025
  785MOL0     O 3496   2.745   6.145   0.487 -0.2252 -0.4809 -0.2596
  785MOL0     C 3497   2.620   6.085   0.450  0.3163  0.2415 -0.6371
  785MOL0     C 3498   2.529   6.176   0.363 -0.5583  0.5847  0.3450
  785MOL0     C 3499   2.525   6.329   0.400 -0.7492  0.6285 -0.4920
  785MOL0     C 3500   2.439   6.387   0.294 -0.3252 -0.1837  0.6535
  785MOL0     C 3501   2.423   6.538   0.299 -0.4399 -0.1558 -0.3662
  785MOL0     C 3502   2.545   6.623   0.279 -0.1552 -0.4000 -1.0308
  785MOL0     C 3503   2.623   6.669   0.405  0.8810  1.0073 -0.4216
  785MOL0     C 3504   2.722   6.780   0.379  0.5903  0.4175 -1.2925
  785MOL0     N 3505   2.823   6.736   0.278  1.0239  0.2040  0.2007
  785MOL0     C 3506   2.892   6.621   0.273 -0.1501  0.5286 -0.2144
  785MOL0     C 3507   2.957   6.627   0.153  0.1719 -0.1269  1.0605
  785MOL0     C 3508   3.047   6.525   0.093  0.6051  0.2481 -0.5476
  785MOL0     C 3509   3.187   6.542   0.145  0.2759 -0.6336  0.4263
  785MOL0     C 3510   3.244   6.671   0.079 -0.2572 -0.3670  0.2070
  785MOL0     C 3511   3.391   6.658   0.102 -1.3145 -0.3126 -0.4230
  785MOL0     O 3512   3.448   6.793   0.083  1.3544  0.0440  0.1554
  785MOL0     C 3513   3.578   6.812   0.069  0.0239  0.6759 -0.4198
  785MOL0     C 3514   3.622   6.930   0.016 -0.8905  1.0506  1.3083
  785MOL0     C 3515   3.759   6.956  -0.017  0.5105  0.3827 -0.6588
  785MOL0     C 3516   3.862   6.862   0.020 -0.0555 -1.7409 -0.7194
  785MOL0     C 3517   4.003   6.885  -0.010 -0.0395  0.1709  0.7636
  785MOL0     O 3518   4.077   6.783   0.030  0.6662  0.0705 -0.2907
  785MOL0     C 3519   4.217   6.799   0.019  0.6293  0.1907 -0.9377
  785MOL0     C 3520   4.299   6.790   0.131 -0.0621 -0.0702 -0.9331
  785MOL0     C 3521   4.438   6.802   0.135 -0.4430 -0.0883  0.3651
  785MOL0     C 3522   4.500   6.821   0.006 -0.0508  0.5957 -0.1756
  785MOL0     O 3523   4.632   6.840  -0.006 -0.7424  0.8408 -0.1216
  785MOL0     C 3524   4.721   6.761   0.068  0.5851 -0.3120  0.6999
  785MOL0     C 3525   4.862   6.776   0.024  0.1006  1.0148 -0.4432
  785MOL0     C 3526   4.961   6.712   0.121 -0.0544 -0.2905 -0.1881
  785MOL0     C 3527   5.105   6.734   0.059 -0.7972 -0.1486  0.0664
  785MOL0     C 3528   5.208   6.681   0.151 -0.2676  0.1459  0.1739
  785MOL0     C 3529   5.351   6.682   0.108 -0.8199 -0.3500 -0.1004
  785MOL0     C 3530   5.405   6.812   0.049  0.3428  0.0092  0.1231
  785MOL0     C 3531   5.550   6.819   0.016  1.0411  0.1844 -0.1883
  785MOL0    Cl 3532   5.594   6.993   0.019 -0.0205  0.4332  0.4103
  785MOL0     C 3533   4.414   6.831  -0.103  0.0154  0.2528  0.4074
  785MOL0     C 3534   4.277   6.823  -0.102  1.1028  0.0590  0.2771
  785MOL0     O 3535   4.046   6.984  -0.077 -0.6482 -0.4409 -1.3265
  785MOL0     C 3536   3.819   6.743   0.093 -0.4816 -0.1930 -0.4822
  785MOL0     C 3537   3.675   6.718   0.106 -0.7754 -0.5837 -0.2979
  785MOL0     N 3538   2.928   6.758   0.105 -0.2142 -0.1602 -0.5419
  785MOL0     N 3539   2.847   6.821   0.182 -0.2607  0.5424 -0.2234
  785MOL0     C 3540   2.824   5.946   0.609  0.0584 -0.6213 -0.4795
  785MOL0     C 3541   2.927   5.868   0.659 -0.4598 -0.3025  0.5431
  785MOL0     C 3542   3.265   5.594   0.636  0.0878 -0.6354  0.9682
  785MOL0     C 3543   3.262   5.464   0.591 -0.0488  0.4024 -0.1252
  785MOL0     C 3544   3.364   5.384   0.632  0.1209  1.1189  0.3908
  785MOL0     C 3545   3.471   5.427   0.714 -0.3530  0.2156 -0.1928
  785MOL0     O 3546   3.569   5.341   0.748  0.3780  0.1179  0.2442
  785MOL0     C 3547   3.676   5.326   0.665  0.0295 -0.0599 -0.7044
  785MOL0     C 3548   3.778   5.248   0.759  0.4706 -0.1099  0.2978
  785MOL0     C 3549   3.909   5.243   0.686  1.1034 -0.1602  0.1905
  785MOL0     C 3550   4.031   5.272   0.777  0.0371 -0.0504 -1.0372
  785MOL0     C 3551   4.026   5.174   0.888 -0.1956  0.2538 -0.4393
  785MOL0     C 3552   4.018   5.094   0.978  0.1298 -0.0256  0.8970
  785MOL0     C 3553   3.463   5.554   0.766 -0.2482  0.3984 -0.6305
  785MOL0     C 3554   3.360   5.640   0.727  0.6781 -0.1251 -0.5721
  785MOL0     H 3555   3.174   6.049   0.515 -0.3479 -0.9970 -2.3862
  785MOL0     H 3556   2.990   6.199   0.444  0.2728 -0.3129  0.3403
  785MOL0     H 3557   2.556   6.064   0.536  2.2134  0.0593  0.7873
  785MOL0     H 3558   2.639   5.989   0.400  3.0173  0.6837 -0.6047
  785MOL0     H 3559   2.426   6.141   0.370 -0.2350 -1.0307 -2.0272
  785MOL0     H 3560   2.561   6.169   0.259 -2.0684 -1.8871 -0.0315
  785MOL0     H 3561   2.629   6.360   0.391 -0.3144 -0.7981 -0.6200
  785MOL0     H 3562   2.480   6.345   0.498  0.2025  1.2195 -0.1414
  785MOL0     H 3563   2.471   6.365   0.192 -2.8611 -0.5181 -0.1410
  785MOL0     H 3564   2.341   6.339   0.294  1.2046 -3.6118  1.9422
  785MOL0     H 3565   2.390   6.554   0.402  3.2500 -2.9720  1.4813
  785MOL0     H 3566   2.358   6.567   0.216  1.4274  3.2871 -0.8361
  785MOL0     H 3567   2.499   6.711   0.233 -1.8692 -0.4657  0.4409
  785MOL0     H 3568   2.610   6.581   0.202  1.2381  0.5807 -0.4360
  785MOL0     H 3569   2.545   6.698   0.475  0.6125  0.2550 -0.4041
  785MOL0     H 3570   2.669   6.591   0.466  0.1741  3.1433  3.1142
  785MOL0     H 3571   2.772   6.817   0.470 -1.3331  0.2008 -0.0836
  785MOL0     H 3572   2.669   6.873   0.355 -0.0063  0.4086 -0.1212
  785MOL0     H 3573   2.910   6.539   0.341  2.0362  1.7960  0.8328
  785MOL0     H 3574   3.054   6.534  -0.016  0.9496 -5.1368 -1.2038
  785MOL0     H 3575   3.028   6.421   0.118  0.4606  0.6490  1.1115
  785MOL0     H 3576   3.243   6.450   0.128 -1.4939 -1.5167 -0.9760
  785MOL0     H 3577   3.179   6.560   0.253  0.6308 -2.1133  0.7195
  785MOL0     H 3578   3.236   6.660  -0.029  0.5579  0.2882  0.0706
  785MOL0     H 3579   3.201   6.765   0.116  0.5865  0.5343 -1.0545
  785MOL0     H 3580   3.436   6.590   0.028  1.7802  1.9788 -0.8302
  785MOL0     H 3581   3.419   6.622   0.201  0.5530 -0.8208 -1.0934
  785MOL0     H 3582   3.542   7.000  -0.010 -1.9098  0.3836  2.5204
  785MOL0     H 3583   3.784   7.047  -0.070  4.2283  0.1989  0.4706
  785MOL0     H 3584   4.255   6.782   0.229  2.1702  1.5802  0.2950
  785MOL0     H 3585   4.494   6.801   0.227  1.8793 -1.0746 -0.9616
  785MOL0     H 3586   4.700   6.658   0.038 -1.9031  0.4986 -0.5626
  785MOL0     H 3587   4.706   6.773   0.176 -3.5006 -0.5097  0.2840
  785MOL0     H 3588   4.879   6.884   0.025  0.7827  0.9076 -0.2207
  785MOL0     H 3589   4.876   6.726  -0.073 -0.2988 -0.7944  0.3948
  785MOL0     H 3590   4.928   6.608   0.130 -0.2172 -0.3273 -1.0897
  785MOL0     H 3591   4.963   6.758   0.220  0.0344 -3.0725  1.2114
  785MOL0     H 3592   5.109   6.684  -0.039  3.6441  1.4699 -0.7840
  785MOL0     H 3593   5.112   6.842   0.044  0.8201 -0.4745 -2.1777
  785MOL0     H 3594   5.205   6.578   0.188  1.5967  0.9869  2.9778
  785MOL0     H 3595   5.199   6.745   0.239 -1.0674  0.1045  0.1311
  785MOL0     H 3596   5.360   6.609   0.027 -2.3347 -0.1400 -0.4936
  785MOL0     H 3597   5.424   6.660   0.186 -1.6502 -2.7524  0.0885
  785MOL0     H 3598   5.349   6.833  -0.043  0.4638  0.2834  0.1122
  785MOL0     H 3599   5.380   6.893   0.118 -3.3959 -0.7389 -0.1157
  785MOL0     H 3600   5.574   6.760  -0.073  0.4191 -1.9740  0.9979
  785MOL0     H 3601   5.595   6.765   0.100  0.4707  0.3472  0.2334
  785MOL0     H 3602   4.455   6.856  -0.201  3.5782 -1.3121  1.3260
  785MOL0     H 3603   4.221   6.822  -0.195  0.5706 -1.4184  0.5849
  785MOL0     H 3604   3.891   6.672   0.133 -1.4526 -0.4258  0.9610
  785MOL0     H 3605   3.635   6.629   0.153  1.7464  0.1077  3.5735
  785MOL0     H 3606   2.722   5.913   0.629 -1.2891  0.9520 -3.9516
  785MOL0     H 3607   2.912   5.778   0.717  1.5712 -1.5984 -0.8297
  785MOL0     H 3608   3.192   5.412   0.527  1.3786 -0.3498 -1.1269
  785MOL0     H 3609   3.371   5.286   0.587  1.9523 -0.7932  4.3726
  785MOL0     H 3610   3.727   5.418   0.633 -0.2881 -0.4658 -2.4786
  785MOL0     H 3611   3.647   5.269   0.576  2.4214 -0.0881 -1.5586
  785MOL0     H 3612   3.773   5.291   0.860  2.6129 -0.1042  0.4568
  785MOL0     H 3613   3.742   5.145   0.762 -1.3448  0.4573 -0.5666
  785MOL0     H 3614   3.928   5.313   0.604 -0.3555 -1.0890 -0.9988
  785MOL0     H 3615   3.922   5.143   0.643  1.2947  0.8596 -2.2784
  785MOL0     H 3616   4.122   5.252   0.720  0.1545 -1.4796 -0.3799
  785MOL0     H 3617   4.034   5.372   0.821 -1.2957 -1.1002  1.6838
  785MOL0     H 3618   4.029   5.020   1.054  1.7864 -0.9250 -0.1591
  785MOL0     H 3619   3.532   5.588   0.843 -0.4566  0.3038 -0.4008
  785MOL0     H 3620   3.369   5.735   0.779  1.8516 -0.5600  0.0431
  786MOL0     O 3621   7.842   8.112   3.336 -0.4869 -0.4043 -0.4146
  786MOL0     C 3622   7.819   8.049   3.233  0.1323 -0.2922  0.4012
  786MOL0     O 3623   7.904   8.029   3.117  0.0701  0.2322  0.1018
  786MOL0     C 3624   8.027   8.087   3.099 -0.0929  0.5411  0.4397
  786MOL0     C 3625   8.110   8.109   3.214  0.3928 -0.4244 -0.0649
  786MOL0     C 3626   8.233   8.162   3.203 -0.4940 -0.3243  0.8422
  786MOL0     C 3627   8.276   8.213   3.082  0.5896  0.6887  0.0612
  786MOL0     O 3628   8.413   8.237   3.062 -0.0277  0.4592 -0.7089
  786MOL0     C 3629   8.481   8.191   2.943 -0.3917 -0.0152 -0.3519
  786MOL0     C 3630   8.539   8.301   2.854  0.9206 -0.3233 -0.1518
  786MOL0     C 3631   8.421   8.375   2.784  1.2134 -1.0171  0.8660
  786MOL0     C 3632   8.472   8.496   2.697 -0.3706  0.2027  1.7138
  786MOL0     C 3633   8.526   8.461   2.559 -0.2327  0.8668  1.0385
  786MOL0     C 3634   8.588   8.588   2.494  0.2860  0.9028  0.1695
  786MOL0     C 3635   8.635   8.552   2.342  0.6605 -0.0058  0.7011
  786MOL0     C 3636   8.572   8.654   2.244  0.0979 -0.1899 -0.2154
  786MOL0     N 3637   8.648   8.655   2.126 -0.4947 -0.9272 -0.6489
  786MOL0     C 3638   8.715   8.764   2.080 -1.1026 -0.7737 -0.2060
  786MOL0     C 3639   8.761   8.724   1.955  0.1152 -0.7256 -0.0337
  786MOL0     C 3640   8.835   8.795   1.834  0.2400 -0.3790 -0.3142
  786MOL0     C 3641   8.953   8.717   1.799  0.1832 -0.6208 -0.2353
  786MOL0     C 3642   9.023   8.775   1.671 -0.2474 -0.4418  0.5115
  786MOL0     C 3643   9.076   8.915   1.675 -0.6907 -0.4110 -0.1187
  786MOL0     O 3644   9.158   8.945   1.552  0.1525  0.8005  0.2068
  786MOL0     C 3645   9.292   8.947   1.571 -0.0465 -0.7012  0.3356
  786MOL0     C 3646   9.354   8.874   1.674 -0.3258 -0.6606  0.7305
  786MOL0     C 3647   9.489   8.856   1.673 -0.4863  0.1083  0.8267
  786MOL0     C 3648   9.574   8.897   1.568  0.3419  0.4278  0.8324
  786MOL0     C 3649   9.717   8.886   1.591 -0.3052 -0.1815  0.3393
  786MOL0     O 3650   9.754   8.833   1.713 -0.0369 -0.5763 -0.1979
  786MOL0     C 3651   9.890   8.824   1.744 -0.4626 -0.6960  0.6984
  786MOL0     C 3652   9.927   8.696   1.775 -0.7714  0.9094  0.3659
  786MOL0     C 3653  10.058   8.665   1.792 -0.6443  0.9230  0.8275
  786MOL0     C 3654  10.162   8.746   1.759 -0.1942 -1.4547 -0.0372
  786MOL0     O 3655  10.291   8.700   1.770 -0.4825 -0.8210  0.0652
  786MOL0     C 3656  10.397   8.776   1.698  1.9101  0.0185 -0.8352
  786MOL0     C 3657  10.496   8.863   1.773 -0.5022 -0.2910  0.1883
  786MOL0     C 3658  10.629   8.880   1.688  0.4986  0.7614 -0.7210
  786MOL0     C 3659  10.737   8.916   1.780 -0.2930  0.1778  0.1123
  786MOL0     C 3660  10.868   8.953   1.707 -0.6191  0.1190  0.0461
  786MOL0     C 3661  10.864   9.090   1.629 -0.5089 -0.7403 -0.7688
  786MOL0     C 3662  10.999   9.142   1.576 -0.1164 -0.1393 -0.8892
  786MOL0     C 3663  11.094   9.172   1.693  0.0007  0.0811 -0.5673
  786MOL0    Cl 3664  11.010   9.250   1.830  0.5222  0.2961  0.0386
  786MOL0     C 3665  10.121   8.888   1.732  0.0645 -0.1006  0.0767
  786MOL0     C 3666   9.989   8.927   1.734 -0.2305  0.6212 -0.6643
  786MOL0     O 3667   9.792   8.928   1.507  0.2059  0.2162  0.1038
  786MOL0     C 3668   9.511   8.968   1.462  0.0768  0.8664 -0.4927
  786MOL0     C 3669   9.371   8.994   1.465  0.1549  1.3865  0.2073
  786MOL0     N 3670   8.721   8.593   1.939  0.6522  0.1499  0.2481
  786MOL0     N 3671   8.656   8.553   2.044  0.1625 -0.2692  0.1549
  786MOL0     C 3672   8.180   8.205   2.969 -0.9918  0.8108 -0.4348
  786MOL0     C 3673   8.066   8.137   2.971  0.4183  0.2961 -0.2119
  786MOL0     C 3674   7.692   7.971   3.228  0.1777  0.3054 -1.1747
  786MOL0     C 3675   7.666   7.865   3.136  0.6777 -0.3166 -0.1251
  786MOL0     C 3676   7.548   7.796   3.153  0.2941 -0.8021  0.0424
  786MOL0     C 3677   7.454   7.829   3.251  0.3893  1.0668 -0.3785
  786MOL0     O 3678   7.350   7.740   3.269  0.7410  0.6774 -0.6739
  786MOL0     C 3679   7.235   7.775   3.181 -0.5318 -0.2305 -0.2327
  786MOL0     C 3680   7.121   7.695   3.237 -0.2882  0.5101  1.1091
  786MOL0     C 3681   7.096   7.698   3.385 -0.0612 -0.5542 -0.0753
  786MOL0     C 3682   6.951   7.699   3.415  0.0739  0.0785  0.1693
  786MOL0     C 3683   6.881   7.584   3.363  0.7142  0.7906 -0.1949
  786MOL0     C 3684   6.818   7.502   3.298 -0.6600  0.4957  0.3228
  786MOL0     C 3685   7.474   7.934   3.336  0.2254  0.3586 -0.5808
  786MOL0     C 3686   7.588   8.010   3.318 -0.1994  0.4936 -0.7707
  786MOL0     H 3687   8.086   8.081   3.316  1.1017  1.3528  0.6120
  786MOL0     H 3688   8.303   8.162   3.286 -0.0163 -1.3711  0.4658
  786MOL0     H 3689   8.430   8.117   2.881  0.2991  0.9751 -2.1536
  786MOL0     H 3690   8.575   8.147   2.977  0.7187  1.7581 -0.9454
  786MOL0     H 3691   8.608   8.257   2.781  1.8309  0.5520  0.1525
  786MOL0     H 3692   8.601   8.369   2.914  0.4761 -0.3223  0.3035
  786MOL0     H 3693   8.369   8.424   2.867 -2.2429  0.3203 -1.8105
  786MOL0     H 3694   8.352   8.307   2.732  0.5597  1.3559 -1.6508
  786MOL0     H 3695   8.397   8.574   2.681  0.4608  0.3825 -2.4178
  786MOL0     H 3696   8.556   8.545   2.748  0.8844  1.9152 -1.6475
  786MOL0     H 3697   8.442   8.425   2.500 -1.3181  2.3016  1.6432
  786MOL0     H 3698   8.603   8.384   2.570 -0.5114 -0.1017 -2.6711
  786MOL0     H 3699   8.671   8.605   2.562  0.2109 -0.3243  0.5872
  786MOL0     H 3700   8.517   8.671   2.495 -0.5082  0.2587 -0.6112
  786MOL0     H 3701   8.741   8.551   2.315 -0.0130 -1.3936 -2.3168
  786MOL0     H 3702   8.585   8.459   2.315 -1.7980  1.9721 -2.1085
  786MOL0     H 3703   8.574   8.754   2.288  2.7801 -0.8926  1.5230
  786MOL0     H 3704   8.469   8.617   2.234  0.0104 -0.7685  2.2507
  786MOL0     H 3705   8.725   8.861   2.129 -1.3536 -1.0938  0.4761
  786MOL0     H 3706   8.857   8.902   1.848  3.1517 -0.6106 -2.3588
  786MOL0     H 3707   8.758   8.784   1.756 -1.7998  0.6479  1.4465
  786MOL0     H 3708   8.936   8.613   1.772  3.9312 -0.6882 -3.2350
  786MOL0     H 3709   9.016   8.724   1.889  0.0793 -0.0670 -0.1977
  786MOL0     H 3710   9.097   8.695   1.659  0.9573  0.2739  2.6200
  786MOL0     H 3711   8.951   8.763   1.590 -1.0308 -1.6395  1.3428
  786MOL0     H 3712   9.123   8.953   1.766 -0.1957  0.6205 -0.7838
  786MOL0     H 3713   8.988   8.981   1.665 -3.5583 -3.5074  2.2964
  786MOL0     H 3714   9.300   8.838   1.762  1.9293  1.4168  3.1077
  786MOL0     H 3715   9.531   8.809   1.762  3.0722 -0.2749 -0.8523
  786MOL0     H 3716   9.851   8.619   1.780  0.1882 -0.0975  0.0901
  786MOL0     H 3717  10.072   8.559   1.808  3.0574  1.1187 -0.1920
  786MOL0     H 3718  10.350   8.823   1.612 -1.8150  1.8261  1.8843
  786MOL0     H 3719  10.465   8.697   1.666 -1.2520 -2.8953 -0.9351
  786MOL0     H 3720  10.514   8.816   1.870  0.2541 -2.2944 -0.8579
  786MOL0     H 3721  10.452   8.961   1.795 -3.0009 -0.9200 -1.5827
  786MOL0     H 3722  10.620   8.958   1.612  0.7083  1.9430  0.4230
  786MOL0     H 3723  10.652   8.788   1.632 -1.2094 -1.3371  1.7665
  786MOL0     H 3724  10.694   9.006   1.824 -1.1660 -0.3904  0.4333
  786MOL0     H 3725  10.759   8.846   1.862  1.6290 -2.2201 -2.2712
  786MOL0     H 3726  10.894   8.864   1.649 -0.0316 -1.4922  2.5991
  786MOL0     H 3727  10.950   8.972   1.777 -0.2785 -1.4223  0.1002
  786MOL0     H 3728  10.816   9.167   1.689  1.9323  0.2548  0.0678
  786MOL0     H 3729  10.804   9.065   1.541  0.8183 -1.0621 -1.6309
  786MOL0     H 3730  11.043   9.068   1.508  1.2636  1.5435 -1.9154
  786MOL0     H 3731  10.974   9.236   1.526  0.0949 -0.8533 -2.4040
  786MOL0     H 3732  11.183   9.220   1.651  0.9974 -0.7984  0.4648
  786MOL0     H 3733  11.125   9.075   1.734  0.6277 -0.0809 -1.4011
  786MOL0     H 3734  10.197   8.966   1.727 -2.4611  2.6214  1.0028
  786MOL0     H 3735   9.977   9.034   1.722  4.6117  1.5741  0.9642
  786MOL0     H 3736   9.572   8.988   1.374 -0.3011  1.4797 -0.6210
  786MOL0     H 3737   9.308   9.032   1.385 -0.3689 -1.7619 -1.0106
  786MOL0     H 3738   8.206   8.245   2.872  1.9575 -1.9707 -0.9529
  786MOL0     H 3739   7.995   8.121   2.890 -1.2342 -0.7674  1.3538
  786MOL0     H 3740   7.731   7.836   3.055  0.3623  0.8596 -0.8192
  786MOL0     H 3741   7.531   7.703   3.099  2.5460 -1.6285  0.6436
  786MOL0     H 3742   7.244   7.750   3.075 -2.0733  2.1598 -1.0072
  786MOL0     H 3743   7.202   7.878   3.200 -0.9429 -0.3976 -0.0227
  786MOL0     H 3744   7.032   7.729   3.183 -0.1915 -0.9151 -0.0098
  786MOL0     H 3745   7.146   7.590   3.216 -1.1514  0.2577  1.2854
  786MOL0     H 3746   7.131   7.787   3.437  0.5399 -0.9371  0.1878
  786MOL0     H 3747   7.150   7.614   3.430 -1.0665 -1.2569 -0.1486
  786MOL0     H 3748   6.924   7.703   3.521 -2.7500 -0.5596 -0.4273
  786MOL0     H 3749   6.906   7.787   3.369 -1.2072 -1.1790 -1.0916
  786MOL0     H 3750   6.762   7.430   3.242 -0.3266  0.8534 -0.4797
  786MOL0     H 3751   7.425   7.954   3.432  0.1448  1.3602 -0.8244
  786MOL0     H 3752   7.602   8.086   3.394 -2.4185 -2.0290  2.4073
  787MOL0     O 3753   6.613   1.567   1.050  0.7050  0.1491 -0.0771
  787MOL0     C 3754   6.517   1.495   1.089 -0.2629 -0.2890 -0.3833
  787MOL0     O 3755   6.389   1.535   1.098 -0.5020 -0.1856  0.9414
  787MOL0     C 3756   6.355   1.670   1.093 -0.2106 -0.8513 -0.0661
  787MOL0     C 3757   6.237   1.712   1.024 -0.0305  0.7241 -0.5956
  787MOL0     C 3758   6.204   1.844   1.008 -0.3365 -0.0630 -0.4469
  787MOL0     C 3759   6.274   1.940   1.083 -0.8967 -0.5199 -0.2073
  787MOL0     O 3760   6.240   2.070   1.077 -0.4363  0.0826  0.7812
  787MOL0     C 3761   6.253   2.128   0.939 -0.9864  0.3755 -0.3384
  787MOL0     C 3762   6.119   2.188   0.893 -0.3075  0.3467  0.1207
  787MOL0     C 3763   6.090   2.328   0.957 -0.3964  0.2413 -0.0547
  787MOL0     C 3764   6.176   2.454   0.913 -0.2630  0.1534  0.5614
  787MOL0     C 3765   6.102   2.587   0.946  0.6514  0.5618  0.0266
  787MOL0     C 3766   6.148   2.692   0.854 -1.3148  0.1265  0.6084
  787MOL0     C 3767   6.087   2.827   0.891 -0.2160 -0.0590  0.5679
  787MOL0     C 3768   5.938   2.842   0.835  0.4171 -0.7524  0.3660
  787MOL0     N 3769   5.823   2.796   0.921 -0.0465  0.2748 -0.2352
  787MOL0     C 3770   5.771   2.851   1.041 -0.4522  0.1175  0.5678
  787MOL0     C 3771   5.660   2.777   1.063 -1.1874 -0.6375 -0.2015
  787MOL0     C 3772   5.571   2.805   1.180  0.4067  0.0442 -0.0275
  787MOL0     C 3773   5.624   2.788   1.314  0.6624  0.8412  0.3008
  787MOL0     C 3774   5.696   2.662   1.331 -0.0814  0.4910  0.5523
  787MOL0     C 3775   5.608   2.531   1.319 -0.3808  0.3462 -0.5087
  787MOL0     O 3776   5.520   2.553   1.428 -0.9620  0.1451 -0.2715
  787MOL0     C 3777   5.392   2.507   1.419 -0.0422 -0.2326 -0.6089
  787MOL0     C 3778   5.314   2.453   1.316 -0.3213 -0.3217 -0.2738
  787MOL0     C 3779   5.179   2.426   1.332  0.3117 -0.7144 -0.2095
  787MOL0     C 3780   5.109   2.447   1.451 -0.2561 -0.2043 -0.2748
  787MOL0     C 3781   4.957   2.435   1.461 -0.4388 -1.3802 -1.0524
  787MOL0     O 3782   4.890   2.421   1.343  0.4263 -0.1121 -0.4209
  787MOL0     C 3783   4.750   2.409   1.350 -0.2315  0.4778  0.5051
  787MOL0     C 3784   4.688   2.302   1.413 -0.0517 -0.1109  0.7326
  787MOL0     C 3785   4.545   2.300   1.416  0.4792 -0.1850 -0.9319
  787MOL0     C 3786   4.471   2.372   1.321  0.3966 -0.2915 -0.0148
  787MOL0     O 3787   4.336   2.388   1.326 -0.6471 -0.2941  0.0909
  787MOL0     C 3788   4.266   2.327   1.435  0.8253 -0.8555 -1.0502
  787MOL0     C 3789   4.117   2.345   1.421  0.1708  0.1690  0.0183
  787MOL0     C 3790   4.058   2.325   1.560  0.1831  0.3100 -1.0947
  787MOL0     C 3791   3.906   2.300   1.568 -1.4659 -0.6951  0.1437
  787MOL0     C 3792   3.851   2.308   1.707 -0.0987  1.1779  0.6645
  787MOL0     C 3793   3.694   2.292   1.709  0.1290 -1.1326  0.2905
  787MOL0     C 3794   3.632   2.239   1.841 -0.7521 -0.0977 -0.4470
  787MOL0     C 3795   3.483   2.215   1.837  0.1570 -0.1437 -0.0700
  787MOL0    Cl 3796   3.395   2.361   1.818  0.1714  0.1653 -0.8647
  787MOL0     C 3797   4.538   2.453   1.230 -0.7230 -0.5389 -0.1409
  787MOL0     C 3798   4.676   2.472   1.244 -0.4434  0.1660  0.4386
  787MOL0     O 3799   4.912   2.427   1.572 -0.4678 -0.4270 -0.1143
  787MOL0     C 3800   5.189   2.495   1.559 -0.1868 -0.1362 -0.8694
  787MOL0     C 3801   5.326   2.511   1.543 -0.2598 -0.5292 -0.5396
  787MOL0     N 3802   5.633   2.685   0.965  0.1125 -0.5739 -0.7950
  787MOL0     N 3803   5.736   2.695   0.887 -0.0075  0.2493  0.9937
  787MOL0     C 3804   6.396   1.898   1.141 -0.8563  0.0141 -0.5930
  787MOL0     C 3805   6.437   1.769   1.156  0.4207 -0.5484  0.8631
  787MOL0     C 3806   6.551   1.355   1.136 -0.3032 -0.6246  1.1329
  787MOL0     C 3807   6.455   1.259   1.151 -1.2903 -0.0900  1.0113
  787MOL0     C 3808   6.483   1.129   1.174  0.1338 -0.2338 -0.1080
  787MOL0     C 3809   6.612   1.089   1.207 -0.4612  0.4286  0.5353
  787MOL0     O 3810   6.634   0.960   1.250  0.4373 -0.2477 -0.2154
  787MOL0     C 3811   6.530   0.861   1.246 -0.0852  0.7481 -1.0763
  787MOL0     C 3812   6.451   0.856   1.378  0.0916  0.2216  0.5126
  787MOL0     C 3813   6.549   0.824   1.501  0.1554  1.1954 -0.3748
  787MOL0     C 3814   6.658   0.713   1.476  0.6704  0.5813  0.6175
  787MOL0     C 3815   6.595   0.578   1.457 -0.4830  0.2389 -0.0977
  787MOL0     C 3816   6.560   0.465   1.447 -1.6648  0.5394 -0.1807
  787MOL0     C 3817   6.712   1.186   1.191  1.1886  0.5865  0.0649
  787MOL0     C 3818   6.684   1.323   1.161 -0.5990 -0.4047  1.1573
  787MOL0     H 3819   6.172   1.642   0.972  0.2515  0.9849 -1.3126
  787MOL0     H 3820   6.127   1.892   0.949 -0.8730  3.1025  2.5327
  787MOL0     H 3821   6.268   2.041   0.874 -0.5341 -0.2070  0.5176
  787MOL0     H 3822   6.342   2.189   0.919  1.9920 -3.9918 -1.9443
  787MOL0     H 3823   6.036   2.129   0.933  0.3495  0.7449  2.1588
  787MOL0     H 3824   6.110   2.189   0.784  3.0065 -0.1621 -0.2452
  787MOL0     H 3825   6.093   2.314   1.066  0.9240 -1.4736 -0.2515
  787MOL0     H 3826   5.984   2.340   0.934 -0.1648 -0.0875 -1.3929
  787MOL0     H 3827   6.273   2.463   0.961 -1.4368  5.3494  2.5492
  787MOL0     H 3828   6.197   2.444   0.806  2.3799 -0.6257  1.0904
  787MOL0     H 3829   6.109   2.594   1.055 -1.3548 -1.3040  0.3640
  787MOL0     H 3830   5.997   2.564   0.924  1.3522 -3.0775 -0.2396
  787MOL0     H 3831   6.124   2.681   0.748  1.2618 -1.2885  0.0877
  787MOL0     H 3832   6.256   2.702   0.867 -1.6298  0.8358  3.3828
  787MOL0     H 3833   6.089   2.839   1.000 -2.4746 -2.5938  0.9731
  787MOL0     H 3834   6.142   2.910   0.845  1.1408 -2.1731 -1.8820
  787MOL0     H 3835   5.933   2.795   0.736  0.5326 -2.5923  1.1915
  787MOL0     H 3836   5.918   2.949   0.824  2.2354 -0.6211 -3.7041
  787MOL0     H 3837   5.811   2.932   1.101  0.7283 -1.1529  1.5656
  787MOL0     H 3838   5.484   2.738   1.180  0.7432 -0.6060  3.6593
  787MOL0     H 3839   5.535   2.909   1.180 -1.1003 -0.4508  0.5356
  787MOL0     H 3840   5.540   2.798   1.383 -0.1646  0.2529 -0.5995
  787MOL0     H 3841   5.699   2.867   1.328 -0.3327  2.5545 -2.9955
  787MOL0     H 3842   5.770   2.647   1.251 -1.3367 -1.6665 -0.2722
  787MOL0     H 3843   5.755   2.674   1.422  5.1682  3.4708 -2.6915
  787MOL0     H 3844   5.664   2.440   1.336  1.0291  0.9457 -1.6953
  787MOL0     H 3845   5.564   2.515   1.220 -0.6694  1.0972 -0.5161
  787MOL0     H 3846   5.349   2.472   1.215 -1.6440  2.4020 -0.3308
  787MOL0     H 3847   5.125   2.397   1.243  1.0963 -2.8518 -0.0639
  787MOL0     H 3848   4.746   2.243   1.483  0.4148 -0.6254 -0.0721
  787MOL0     H 3849   4.491   2.228   1.476  1.4535 -1.7206 -1.8232
  787MOL0     H 3850   4.293   2.370   1.532  0.8703 -3.0917 -0.0178
  787MOL0     H 3851   4.293   2.221   1.439 -2.1311 -1.7841  4.1464
  787MOL0     H 3852   4.068   2.271   1.358  0.3848 -3.5262  3.7268
  787MOL0     H 3853   4.088   2.438   1.371  0.2728  0.5218  0.6049
  787MOL0     H 3854   4.084   2.408   1.626 -0.4563 -0.5052  0.2239
  787MOL0     H 3855   4.117   2.245   1.604  3.0695  1.4244 -2.6695
  787MOL0     H 3856   3.863   2.376   1.502 -1.5122 -0.2286  0.7074
  787MOL0     H 3857   3.879   2.203   1.524  0.4566  0.4488 -4.1194
  787MOL0     H 3858   3.877   2.401   1.758 -0.7550  2.2433 -0.8474
  787MOL0     H 3859   3.882   2.225   1.771 -1.3445  1.5244  1.7758
  787MOL0     H 3860   3.662   2.217   1.637  1.8931 -1.8394  0.1963
  787MOL0     H 3861   3.641   2.387   1.696  0.8029 -0.9683 -1.5420
  787MOL0     H 3862   3.678   2.143   1.863  0.1501  0.2204 -0.8898
  787MOL0     H 3863   3.640   2.309   1.924 -1.2280  2.3610 -2.3346
  787MOL0     H 3864   3.435   2.169   1.923 -0.6870  2.6850  1.0988
  787MOL0     H 3865   3.462   2.142   1.758  0.6780 -2.3791  1.7769
  787MOL0     H 3866   4.475   2.504   1.158  0.0924 -0.5430 -0.8779
  787MOL0     H 3867   4.745   2.509   1.169  0.2271 -2.1544 -0.1567
  787MOL0     H 3868   5.133   2.511   1.650 -0.3862  0.3396 -1.0758
  787MOL0     H 3869   5.374   2.558   1.629  0.3919 -0.9170 -0.6848
  787MOL0     H 3870   6.462   1.971   1.186 -1.2685 -1.7463  3.2920
  787MOL0     H 3871   6.533   1.752   1.204  1.1421  1.2625  0.1431
  787MOL0     H 3872   6.349   1.274   1.136 -1.1225 -0.3363 -0.6164
  787MOL0     H 3873   6.392   1.071   1.185  0.4390 -0.1907  4.3822
  787MOL0     H 3874   6.561   0.758   1.226 -0.2261  0.3347  0.6807
  787MOL0     H 3875   6.459   0.879   1.164 -1.9222  0.4568  0.3698
  787MOL0     H 3876   6.401   0.953   1.378  0.4799  0.4295 -0.4529
  787MOL0     H 3877   6.372   0.781   1.385  0.3195 -0.1566 -0.6752
  787MOL0     H 3878   6.488   0.814   1.591  0.9553 -0.2889  0.0414
  787MOL0     H 3879   6.599   0.921   1.516  0.9250  0.8150 -0.4103
  787MOL0     H 3880   6.701   0.749   1.383 -4.0749  1.7713 -1.4275
  787MOL0     H 3881   6.719   0.715   1.567 -4.5735  2.9964  4.6199
  787MOL0     H 3882   6.523   0.367   1.421  1.7924 -0.6141 -1.2991
  787MOL0     H 3883   6.815   1.153   1.197  0.8484 -1.0243 -1.9108
  787MOL0     H 3884   6.764   1.396   1.154  0.1986 -1.3989 -1.2744
  788MOL0     O 3885   8.848   4.464   8.646  0.0098 -0.3682  0.2487
  788MOL0     C 3886   8.918   4.373   8.621  0.5096  0.4737  0.4644
  788MOL0     O 3887   8.894   4.266   8.554  0.3530  0.1062 -0.0529
  788MOL0     C 3888   8.759   4.233   8.520 -0.2714  0.5428  0.1097
  788MOL0     C 3889   8.743   4.163   8.399  0.2568 -0.6703 -0.6020
  788MOL0     C 3890   8.616   4.116   8.357  0.5999  0.4648 -0.4038
  788MOL0     C 3891   8.499   4.153   8.427 -0.7661  0.4212 -0.4096
  788MOL0     O 3892   8.366   4.118   8.399 -0.7257 -0.4222 -0.0541
  788MOL0     C 3893   8.334   4.016   8.303  0.5057 -0.5443  0.7039
  788MOL0     C 3894   8.175   4.002   8.274 -0.4647  0.6344  0.3946
  788MOL0     C 3895   8.127   4.082   8.160 -0.8432  0.2777 -0.1214
  788MOL0     C 3896   8.002   4.036   8.083 -0.5649 -0.2794 -0.0210
  788MOL0     C 3897   7.881   4.023   8.174  0.5281  1.0158  0.4211
  788MOL0     C 3898   7.755   4.005   8.091  0.5892 -1.0271  0.1821
  788MOL0     C 3899   7.629   3.970   8.178 -1.0657 -0.5960 -1.1900
  788MOL0     C 3900   7.489   3.955   8.102 -0.4844  0.2757 -0.3300
  788MOL0     N 3901   7.380   3.961   8.197  0.1706  0.3571 -0.2045
  788MOL0     C 3902   7.356   4.062   8.298  0.4361  0.2066 -0.5968
  788MOL0     C 3903   7.229   4.042   8.347  0.3080  0.6068  0.1694
  788MOL0     C 3904   7.184   4.113   8.472  0.1052 -0.9683 -0.6426
  788MOL0     C 3905   7.087   4.229   8.437 -0.5605  0.2981 -0.5834
  788MOL0     C 3906   7.053   4.283   8.569  0.0994  0.2034 -0.7837
  788MOL0     C 3907   6.925   4.364   8.551 -0.1670  0.3395 -0.6609
  788MOL0     O 3908   6.895   4.430   8.680  0.9921 -0.5712  0.2242
  788MOL0     C 3909   6.776   4.503   8.693 -0.0396  0.2316 -0.7578
  788MOL0     C 3910   6.752   4.583   8.806 -0.1448 -0.5124  0.7819
  788MOL0     C 3911   6.632   4.646   8.827  0.1176  0.0712 -0.1373
  788MOL0     C 3912   6.529   4.641   8.732  1.1478  0.1232 -0.7943
  788MOL0     C 3913   6.398   4.700   8.773  0.9538 -0.4057  0.8392
  788MOL0     O 3914   6.288   4.662   8.695 -1.0418 -0.5974 -0.8819
  788MOL0     C 3915   6.159   4.657   8.755 -0.9102 -0.4772  0.4926
  788MOL0     C 3916   6.041   4.647   8.673  0.5150 -0.6981  0.0817
  788MOL0     C 3917   5.908   4.653   8.722 -0.3536  0.0999  0.6745
  788MOL0     C 3918   5.883   4.652   8.860 -0.6012  0.1897 -0.1806
  788MOL0     O 3919   5.752   4.642   8.916  0.1493  0.1680 -0.3536
  788MOL0     C 3920   5.661   4.749   8.884 -0.0668  0.6171 -1.2401
  788MOL0     C 3921   5.552   4.762   8.986 -1.0808  0.5141 -0.2127
  788MOL0     C 3922   5.455   4.875   8.945 -0.6177 -0.2079 -0.4490
  788MOL0     C 3923   5.357   4.937   9.049 -0.0260 -0.1596 -0.6750
  788MOL0     C 3924   5.305   4.828   9.154  0.8118 -0.7165 -0.4186
  788MOL0     C 3925   5.181   4.885   9.227 -0.0573  0.6405  0.3031
  788MOL0     C 3926   5.066   4.931   9.142 -0.2330 -0.5498  0.7457
  788MOL0     C 3927   4.947   4.953   9.229  1.2777  0.2722  0.6195
  788MOL0    Cl 3928   4.808   4.964   9.112 -0.0060 -0.0466 -0.0920
  788MOL0     C 3929   5.991   4.646   8.947 -0.5691  0.3516 -0.2964
  788MOL0     C 3930   6.126   4.656   8.900 -0.0070  0.0296  0.1026
  788MOL0     O 3931   6.389   4.778   8.868 -0.8365  0.6712  0.0310
  788MOL0     C 3932   6.548   4.567   8.615 -1.5631 -0.2029 -0.7661
  788MOL0     C 3933   6.671   4.494   8.602 -0.5063  0.1495 -0.1041
  788MOL0     N 3934   7.176   3.932   8.272  0.3084  0.1251  0.5659
  788MOL0     N 3935   7.272   3.878   8.192 -0.0647 -0.0829  0.2763
  788MOL0     C 3936   8.516   4.222   8.549 -0.1217  1.3139 -0.1518
  788MOL0     C 3937   8.646   4.267   8.587  0.8130  0.1748 -0.5391
  788MOL0     C 3938   9.053   4.378   8.655  0.1173 -0.0928 -0.9788
  788MOL0     C 3939   9.152   4.340   8.560 -0.1738 -0.4250 -0.4482
  788MOL0     C 3940   9.295   4.343   8.596  0.0758 -0.1544  0.3440
  788MOL0     C 3941   9.336   4.363   8.730 -0.2526 -0.1260  0.0361
  788MOL0     O 3942   9.462   4.356   8.787 -0.2866 -0.4648  0.1346
  788MOL0     C 3943   9.543   4.244   8.761  0.0809 -0.3409 -0.4828
  788MOL0     C 3944   9.655   4.292   8.676  0.8053  0.1214 -0.2684
  788MOL0     C 3945   9.736   4.176   8.621  0.3015 -0.3327  1.0845
  788MOL0     C 3946   9.860   4.228   8.560 -0.7729  0.3304 -0.9595
  788MOL0     C 3947   9.959   4.268   8.661 -0.0225  1.2340 -0.5536
  788MOL0     C 3948  10.040   4.297   8.747 -0.3007 -0.8019  0.6930
  788MOL0     C 3949   9.233   4.401   8.816 -0.2941  0.7770 -0.1939
  788MOL0     C 3950   9.097   4.409   8.783  0.2525 -0.2276  0.4055
  788MOL0     H 3951   8.833   4.140   8.342 -0.1649 -0.4154 -1.3954
  788MOL0     H 3952   8.615   4.063   8.262 -1.2234  0.5396 -0.4680
  788MOL0     H 3953   8.369   3.922   8.347 -3.1458 -2.1152  0.6031
  788MOL0     H 3954   8.385   4.033   8.207 -2.6007 -0.2634 -1.0438
  788MOL0     H 3955   8.132   4.032   8.370 -1.3623  0.4533  0.0579
  788MOL0     H 3956   8.159   3.895   8.256  0.5892  0.6977 -1.1576
  788MOL0     H 3957   8.205   4.081   8.082  1.7734  0.5326  2.3269
  788MOL0     H 3958   8.101   4.185   8.183  1.9614  1.0919 -0.2114
  788MOL0     H 3959   7.982   4.107   8.002 -1.0948 -0.1834  0.1885
  788MOL0     H 3960   8.018   3.941   8.030  0.8128  1.1162 -2.2569
  788MOL0     H 3961   7.875   4.119   8.226 -2.1297  1.9621 -1.3724
  788MOL0     H 3962   7.889   3.944   8.249  0.1933 -1.6646 -2.1845
  788MOL0     H 3963   7.767   3.922   8.022 -0.1114  0.7842 -2.2398
  788MOL0     H 3964   7.736   4.095   8.032  1.8873 -0.2897  0.8176
  788MOL0     H 3965   7.642   3.870   8.220  0.0115  0.0147  0.0265
  788MOL0     H 3966   7.627   4.033   8.268  2.2549  0.1472 -1.5271
  788MOL0     H 3967   7.488   3.856   8.055  0.6852 -0.1085  0.4179
  788MOL0     H 3968   7.480   4.033   8.026  1.3959 -0.7743 -1.7132
  788MOL0     H 3969   7.430   4.139   8.314 -0.1036  1.1990 -2.5344
  788MOL0     H 3970   7.279   4.154   8.509  1.1642 -2.0404 -2.0551
  788MOL0     H 3971   7.140   4.040   8.540 -1.2767 -1.4807 -2.0475
  788MOL0     H 3972   7.003   4.180   8.388  0.2408 -0.4986 -1.1996
  788MOL0     H 3973   7.127   4.309   8.374 -3.7397  0.9588 -1.9252
  788MOL0     H 3974   7.024   4.197   8.629 -2.0678  2.9082  2.3870
  788MOL0     H 3975   7.134   4.339   8.617 -1.2196  0.5613  1.1023
  788MOL0     H 3976   6.835   4.309   8.521 -0.8037  0.4689  0.9129
  788MOL0     H 3977   6.953   4.431   8.469  1.2658 -0.1293 -0.5745
  788MOL0     H 3978   6.830   4.577   8.881  0.5458 -1.3014  0.0309
  788MOL0     H 3979   6.624   4.702   8.920  0.8452 -1.7853  1.0858
  788MOL0     H 3980   6.057   4.643   8.566 -0.8396  0.4426 -0.1941
  788MOL0     H 3981   5.819   4.670   8.663  0.5663  2.4814 -0.1593
  788MOL0     H 3982   5.629   4.755   8.780 -0.5967 -0.6892 -1.1759
  788MOL0     H 3983   5.727   4.835   8.893 -1.4483  1.4642  2.9057
  788MOL0     H 3984   5.592   4.793   9.084  0.2184  1.6665 -1.0620
  788MOL0     H 3985   5.493   4.670   8.993 -1.0028  0.3440 -1.6546
  788MOL0     H 3986   5.402   4.834   8.859 -0.2672 -2.9014  0.5268
  788MOL0     H 3987   5.515   4.962   8.913 -0.3135 -0.3223 -0.2030
  788MOL0     H 3988   5.395   5.016   9.115 -0.4659 -2.3453  2.4384
  788MOL0     H 3989   5.275   4.974   8.988  0.5393  0.7788 -0.8876
  788MOL0     H 3990   5.389   4.815   9.223 -0.1295  1.6557  1.3093
  788MOL0     H 3991   5.282   4.729   9.115  0.1394 -1.0652  0.8194
  788MOL0     H 3992   5.200   4.970   9.294 -1.2224  0.6187  0.6865
  788MOL0     H 3993   5.146   4.806   9.294  2.0478  0.8239  1.7401
  788MOL0     H 3994   5.075   5.027   9.091 -5.1219  1.1620  2.4906
  788MOL0     H 3995   5.045   4.856   9.065 -0.8525  1.9469 -1.7022
  788MOL0     H 3996   4.954   5.039   9.296 -1.9664  0.8378  0.4172
  788MOL0     H 3997   4.936   4.857   9.281  0.9860 -0.8982 -1.4993
  788MOL0     H 3998   5.960   4.644   9.051  0.4446  3.1750  0.1469
  788MOL0     H 3999   6.204   4.676   8.973 -1.0009 -0.8400  1.4340
  788MOL0     H 4000   6.476   4.560   8.534 -0.4503 -0.1606 -1.7963
  788MOL0     H 4001   6.677   4.442   8.507 -1.7951  0.6241 -0.4660
  788MOL0     H 4002   8.432   4.250   8.613  0.1327 -3.4765  2.7750
  788MOL0     H 4003   8.667   4.323   8.678  0.4110  0.2846 -0.5099
  788MOL0     H 4004   9.130   4.312   8.457  0.4678  2.0096 -1.3179
  788MOL0     H 4005   9.370   4.328   8.519  2.6189  1.3213  2.3928
  788MOL0     H 4006   9.491   4.162   8.711 -0.4574 -2.0818  2.6520
  788MOL0     H 4007   9.598   4.207   8.848  0.3718  2.1393  0.4663
  788MOL0     H 4008   9.616   4.351   8.592  2.9424  2.4920  0.2892
  788MOL0     H 4009   9.715   4.357   8.741  1.3354  0.1587 -0.7899
  788MOL0     H 4010   9.673   4.127   8.546 -2.0306  0.7807  2.2033
  788MOL0     H 4011   9.767   4.099   8.692  1.7080 -0.5263  0.2811
  788MOL0     H 4012   9.903   4.147   8.500  0.1449  1.2813 -1.6204
  788MOL0     H 4013   9.847   4.313   8.494  0.8680 -0.8242 -2.8789
  788MOL0     H 4014  10.111   4.339   8.815  0.3633  0.4636 -0.7297
  788MOL0     H 4015   9.271   4.444   8.908  2.1460  1.2124 -1.3029
  788MOL0     H 4016   9.031   4.440   8.863 -0.3875  2.9387 -1.2000
  789MOL0     O 4017   6.206   8.366   0.331  0.6356  0.5974  0.0137
  789MOL0     C 4018   6.136   8.389   0.237  0.2291  0.6827  0.0747
  789MOL0     O 4019   6.002   8.402   0.239 -0.2408 -0.3159 -0.1803
  789MOL0     C 4020   5.933   8.394   0.360 -0.1903  0.1295 -1.2534
  789MOL0     C 4021   5.973   8.473   0.475 -0.5197  0.6178  1.1796
  789MOL0     C 4022   5.883   8.481   0.581 -0.4017 -0.4618 -0.4488
  789MOL0     C 4023   5.747   8.431   0.577 -0.7373 -0.6678 -0.4251
  789MOL0     O 4024   5.670   8.467   0.688  0.0504 -0.3562 -0.3358
  789MOL0     C 4025   5.537   8.427   0.708  0.7404  0.0463 -0.2808
  789MOL0     C 4026   5.462   8.548   0.771 -0.0251  0.1492  0.3591
  789MOL0     C 4027   5.316   8.529   0.785  0.2948 -0.0373  0.2955
  789MOL0     C 4028   5.230   8.635   0.859 -0.8187 -0.2439 -0.3218
  789MOL0     C 4029   5.084   8.631   0.815 -0.0717  0.1356  0.1636
  789MOL0     C 4030   4.999   8.732   0.891  0.1764 -0.5082  0.5063
  789MOL0     C 4031   4.848   8.721   0.856  0.2588 -0.7079  0.2972
  789MOL0     C 4032   4.775   8.833   0.935  0.6170  0.5838 -0.6246
  789MOL0     N 4033   4.647   8.878   0.877 -0.5807 -0.0448 -0.0887
  789MOL0     C 4034   4.578   8.986   0.921 -0.0392 -0.2963 -0.0078
  789MOL0     C 4035   4.482   8.998   0.824  0.2328  0.3366 -0.3881
  789MOL0     C 4036   4.383   9.105   0.817 -0.1407 -1.5355  0.1759
  789MOL0     C 4037   4.254   9.072   0.904 -0.0211  0.8121  0.2253
  789MOL0     C 4038   4.153   9.189   0.895  0.0951 -1.0577 -0.2927
  789MOL0     C 4039   4.042   9.165   0.994  0.1968 -0.2947 -1.0971
  789MOL0     O 4040   3.949   9.059   0.963 -0.1780 -0.5682 -0.3828
  789MOL0     C 4041   3.830   9.054   1.039  0.0511  0.1003  0.6149
  789MOL0     C 4042   3.753   8.939   1.009  0.3161  0.1416 -1.0208
  789MOL0     C 4043   3.634   8.915   1.077  0.9353 -0.0600  0.2813
  789MOL0     C 4044   3.581   9.012   1.167  0.3789  0.2053  0.3605
  789MOL0     C 4045   3.451   8.985   1.244 -0.8818 -0.2009 -0.2511
  789MOL0     O 4046   3.416   8.845   1.239  0.9067 -0.0056  0.3771
  789MOL0     C 4047   3.298   8.816   1.284 -0.6986  0.1312  0.1035
  789MOL0     C 4048   3.230   8.736   1.192 -0.2163 -0.9576  0.7307
  789MOL0     C 4049   3.103   8.692   1.218  0.5007  0.6601  0.2040
  789MOL0     C 4050   3.051   8.694   1.348 -1.1199 -0.2572 -0.0749
  789MOL0     O 4051   2.938   8.631   1.394 -0.6033 -0.0912  0.4042
  789MOL0     C 4052   2.886   8.529   1.308 -0.7499 -0.1894 -0.1044
  789MOL0     C 4053   2.973   8.405   1.331  0.3790  0.1814 -0.5288
  789MOL0     C 4054   2.920   8.291   1.257 -0.6561 -0.0162 -0.3102
  789MOL0     C 4055   2.940   8.309   1.106 -0.0763  0.7936 -0.5008
  789MOL0     C 4056   2.937   8.170   1.040 -0.2448 -0.4064  0.0967
  789MOL0     C 4057   2.972   8.161   0.890 -0.1545 -0.8317  0.1630
  789MOL0     C 4058   2.898   8.276   0.810  0.2655  0.0858  0.4889
  789MOL0     C 4059   2.927   8.277   0.659 -0.6242  0.2977  0.1470
  789MOL0    Cl 4060   2.766   8.252   0.580  0.2889  0.6263 -0.4170
  789MOL0     C 4061   3.117   8.786   1.436 -0.1263  0.4661 -0.8734
  789MOL0     C 4062   3.239   8.849   1.407  0.5273  0.8695  0.2917
  789MOL0     O 4063   3.406   9.073   1.315  0.8867  0.1407 -0.5285
  789MOL0     C 4064   3.654   9.129   1.192 -1.3851 -0.1608  0.5037
  789MOL0     C 4065   3.786   9.147   1.143 -0.0004  0.4811  0.5962
  789MOL0     N 4066   4.495   8.907   0.722  0.7374  0.9332 -0.5668
  789MOL0     N 4067   4.602   8.845   0.753 -0.8001 -0.0220 -0.2627
  789MOL0     C 4068   5.718   8.357   0.469  1.2316 -0.3586 -0.1281
  789MOL0     C 4069   5.808   8.333   0.368  0.2481 -0.4487  0.6668
  789MOL0     C 4070   6.207   8.421   0.106 -0.4947 -0.5404 -0.1054
  789MOL0     C 4071   6.142   8.402  -0.019 -0.0082  1.0548 -0.5502
  789MOL0     C 4072   6.199   8.449  -0.136 -0.3351  0.3823 -1.0323
  789MOL0     C 4073   6.315   8.515  -0.138 -0.2423  0.0937 -0.4457
  789MOL0     O 4074   6.372   8.550  -0.253  0.5133 -0.2858 -0.2363
  789MOL0     C 4075   6.505   8.494  -0.282  0.0133 -0.1850  0.1294
  789MOL0     C 4076   6.578   8.601  -0.370  0.8320 -0.2015  0.2598
  789MOL0     C 4077   6.592   8.731  -0.293  0.8630 -0.2048 -0.7891
  789MOL0     C 4078   6.702   8.828  -0.335 -0.6043 -1.2755 -0.1535
  789MOL0     C 4079   6.826   8.784  -0.270 -0.4011  0.0004 -0.1615
  789MOL0     C 4080   6.934   8.749  -0.224 -0.1010 -1.0594  1.0469
  789MOL0     C 4081   6.380   8.536  -0.017 -1.1563  0.4418  0.1847
  789MOL0     C 4082   6.331   8.492   0.101  0.7639 -0.6500 -1.0234
  789MOL0     H 4083   6.074   8.513   0.476  0.7962 -2.0104 -2.6929
  789MOL0     H 4084   5.923   8.541   0.662  0.4601 -1.1412 -0.3603
  789MOL0     H 4085   5.542   8.354   0.790  0.3569  0.9964  0.6132
  789MOL0     H 4086   5.492   8.383   0.619 -0.9300 -0.8548  0.9354
  789MOL0     H 4087   5.464   8.630   0.698 -1.0639 -0.0761  0.0597
  789MOL0     H 4088   5.512   8.578   0.863 -0.9116  0.5376  0.7295
  789MOL0     H 4089   5.285   8.438   0.836 -1.6111  2.3235  3.8482
  789MOL0     H 4090   5.279   8.510   0.684 -0.1021  0.3144  0.3691
  789MOL0     H 4091   5.250   8.624   0.966  2.8509 -1.6115 -1.0075
  789MOL0     H 4092   5.261   8.738   0.840 -1.5564 -0.3743 -2.4546
  789MOL0     H 4093   5.041   8.530   0.811 -0.4667  0.3037 -4.0478
  789MOL0     H 4094   5.081   8.667   0.712  3.7488 -1.0551 -0.5117
  789MOL0     H 4095   5.041   8.830   0.868  2.3771 -1.3373  0.7856
  789MOL0     H 4096   5.007   8.702   0.995 -1.8042 -1.9849  0.3103
  789MOL0     H 4097   4.839   8.734   0.748  2.1978 -0.4571  0.1278
  789MOL0     H 4098   4.813   8.620   0.877 -1.4189 -0.2078  0.0790
  789MOL0     H 4099   4.840   8.921   0.947 -0.7000  1.2665  2.3098
  789MOL0     H 4100   4.771   8.798   1.038  0.8435  2.3121  0.0094
  789MOL0     H 4101   4.594   9.049   1.009  4.4363 -0.9538 -0.0841
  789MOL0     H 4102   4.348   9.130   0.716 -1.1606 -1.2144  0.5999
  789MOL0     H 4103   4.435   9.199   0.839 -1.5159 -0.5659 -0.5534
  789MOL0     H 4104   4.294   9.073   1.006  0.5119 -2.0367  0.1033
  789MOL0     H 4105   4.203   8.976   0.892 -0.2291  0.8364  0.8609
  789MOL0     H 4106   4.211   9.281   0.906  1.9905 -2.0183 -1.6240
  789MOL0     H 4107   4.100   9.193   0.799 -0.6973  0.0061  0.1732
  789MOL0     H 4108   3.982   9.257   0.996  0.9641  0.2079 -0.6350
  789MOL0     H 4109   4.094   9.155   1.090 -1.2873  1.5111 -0.0377
  789MOL0     H 4110   3.791   8.858   0.948  1.1806 -2.1285  2.2584
  789MOL0     H 4111   3.575   8.827   1.054 -1.0308  1.2002  0.3118
  789MOL0     H 4112   3.280   8.701   1.102 -0.6834  1.1365 -0.4040
  789MOL0     H 4113   3.042   8.664   1.133  1.3452  0.5154 -0.3673
  789MOL0     H 4114   2.877   8.552   1.201 -0.5657  1.3641  0.1780
  789MOL0     H 4115   2.793   8.486   1.344 -0.1483 -0.6334  0.9763
  789MOL0     H 4116   2.971   8.380   1.437  0.1016  0.4343 -0.4725
  789MOL0     H 4117   3.078   8.424   1.308  0.2814 -0.7899 -1.8661
  789MOL0     H 4118   2.817   8.269   1.289  0.2392 -1.0940  2.1273
  789MOL0     H 4119   2.978   8.204   1.290  1.5431  1.4060 -0.2249
  789MOL0     H 4120   2.861   8.369   1.058 -1.6272 -0.7158  0.0394
  789MOL0     H 4121   3.041   8.346   1.086 -0.3866 -0.2858 -5.2551
  789MOL0     H 4122   2.843   8.119   1.062  0.8067 -2.5919 -0.1835
  789MOL0     H 4123   3.010   8.101   1.084  2.4839  0.1898 -3.0660
  789MOL0     H 4124   2.942   8.065   0.846  1.8354 -0.3379 -2.5388
  789MOL0     H 4125   3.080   8.173   0.880 -0.4270  2.0803 -0.1282
  789MOL0     H 4126   2.791   8.268   0.827 -0.0264  1.0165 -0.7037
  789MOL0     H 4127   2.926   8.377   0.844 -1.1811  1.2623 -1.5915
  789MOL0     H 4128   3.001   8.198   0.641 -1.9741 -0.8736 -0.4511
  789MOL0     H 4129   2.970   8.372   0.627 -1.3210  0.6003  0.1100
  789MOL0     H 4130   3.066   8.811   1.529  1.3405  2.2459 -0.4848
  789MOL0     H 4131   3.283   8.916   1.480 -2.6869  0.7238  2.5812
  789MOL0     H 4132   3.608   9.203   1.256 -1.8464 -0.8440  0.9784
  789MOL0     H 4133   3.850   9.230   1.170  2.8949 -2.2464  2.9964
  789MOL0     H 4134   5.614   8.327   0.463  0.7276  0.0159  3.8510
  789MOL0     H 4135   5.776   8.286   0.276  0.4959 -1.6101  1.1533
  789MOL0     H 4136   6.051   8.345  -0.039 -0.2922 -0.4327  3.8466
  789MOL0     H 4137   6.149   8.449  -0.232 -2.5803  0.6246  0.0692
  789MOL0     H 4138   6.485   8.405  -0.343  0.1080 -1.9756  2.5592
  789MOL0     H 4139   6.564   8.453  -0.199  1.2538 -1.1080 -1.1626
  789MOL0     H 4140   6.677   8.562  -0.395  1.4257  2.1157 -1.3493
  789MOL0     H 4141   6.539   8.617  -0.471 -0.8972 -0.4209  0.8737
  789MOL0     H 4142   6.602   8.721  -0.184 -1.8577  0.6151 -0.3829
  789MOL0     H 4143   6.494   8.780  -0.298  0.7126 -0.3812  0.1429
  789MOL0     H 4144   6.708   8.835  -0.444  1.5465 -3.5983 -0.2691
  789MOL0     H 4145   6.689   8.927  -0.291 -0.6598 -0.7888 -1.2186
  789MOL0     H 4146   7.029   8.723  -0.182  0.3108 -1.2701  0.0105
  789MOL0     H 4147   6.470   8.593  -0.038 -0.0435 -1.4217 -0.3280
  789MOL0     H 4148   6.387   8.508   0.193 -0.9263  4.0751 -0.5593
  790MOL0     O 4149   3.564   1.328   7.746  0.6243  0.2256 -0.5249
  790MOL0     C 4150   3.533   1.372   7.636 -0.7904 -0.1494 -0.0123
  790MOL0     O 4151   3.618   1.415   7.533 -0.3959 -1.0543  0.1573
  790MOL0     C 4152   3.756   1.415   7.547  0.1901 -0.1690  0.7278
  790MOL0     C 4153   3.821   1.473   7.436  0.3088 -0.1473 -0.2794
  790MOL0     C 4154   3.961   1.482   7.432  0.9582  1.2014  0.7174
  790MOL0     C 4155   4.041   1.439   7.537 -0.0359 -0.0749 -0.4715
  790MOL0     O 4156   4.173   1.453   7.526 -0.1823 -0.3522  0.6089
  790MOL0     C 4157   4.258   1.365   7.606 -0.1331 -0.8734 -0.1076
  790MOL0     C 4158   4.407   1.389   7.568  0.0261 -0.6823 -0.0639
  790MOL0     C 4159   4.494   1.306   7.669  0.0701  0.3610 -0.7564
  790MOL0     C 4160   4.641   1.315   7.630  1.2688 -0.1662 -0.3976
  790MOL0     C 4161   4.749   1.246   7.718  0.6540  0.9984 -0.5283
  790MOL0     C 4162   4.750   1.276   7.870 -0.2032 -0.0687  0.1519
  790MOL0     C 4163   4.854   1.192   7.936 -0.3073  0.4278 -0.1320
  790MOL0     C 4164   4.856   1.226   8.087 -0.3611 -0.1024 -0.4253
  790MOL0     N 4165   4.952   1.138   8.155  0.2254 -0.9826 -0.4266
  790MOL0     C 4166   5.065   1.179   8.223 -0.3359 -0.1741 -0.2187
  790MOL0     C 4167   5.112   1.066   8.282  0.1401 -0.0342 -0.8022
  790MOL0     C 4168   5.207   1.083   8.397 -0.1858  0.5285 -0.3311
  790MOL0     C 4169   5.310   0.975   8.429 -0.3465  0.0356  0.3249
  790MOL0     C 4170   5.434   1.045   8.488 -1.1247 -0.4174 -0.5325
  790MOL0     C 4171   5.522   0.947   8.548  0.3784  0.4916 -0.6837
  790MOL0     O 4172   5.633   1.016   8.616  0.2590 -0.5544  0.3749
  790MOL0     C 4173   5.730   0.940   8.676  0.9514 -0.7742 -0.7766
  790MOL0     C 4174   5.759   0.803   8.647  0.3451 -0.3476 -0.2246
  790MOL0     C 4175   5.882   0.752   8.685 -0.2759  0.7842  0.9858
  790MOL0     C 4176   5.975   0.824   8.764  0.5640 -0.1372 -0.8662
  790MOL0     C 4177   6.096   0.766   8.814 -0.0600  0.9077  0.4358
  790MOL0     O 4178   6.142   0.645   8.770  0.0855 -0.4579  0.5895
  790MOL0     C 4179   6.255   0.593   8.843 -0.2269 -0.9184  0.6218
  790MOL0     C 4180   6.360   0.538   8.773 -1.0090 -0.6330  0.3759
  790MOL0     C 4181   6.467   0.485   8.841 -0.3987  0.6775  0.6699
  790MOL0     C 4182   6.466   0.470   8.979  0.3214  0.3391 -0.8154
  790MOL0     O 4183   6.560   0.404   9.046 -0.1073 -0.3687 -0.2855
  790MOL0     C 4184   6.650   0.321   8.966 -0.8113  0.1929  0.6166
  790MOL0     C 4185   6.700   0.202   9.044 -0.4817 -0.3243  0.2165
  790MOL0     C 4186   6.829   0.227   9.133 -0.5545 -0.5342 -0.1515
  790MOL0     C 4187   6.898   0.097   9.189  0.0266 -0.7809 -1.0321
  790MOL0     C 4188   6.965   0.015   9.082  0.6230  0.9435  0.7139
  790MOL0     C 4189   7.094  -0.052   9.140  0.3850 -0.0944  0.1082
  790MOL0     C 4190   7.127  -0.147   9.027 -0.8021 -0.6389  0.7683
  790MOL0     C 4191   7.281  -0.157   9.035 -0.3131 -0.4467  0.3115
  790MOL0    Cl 4192   7.339  -0.242   8.887  0.1028 -0.0915  0.1522
  790MOL0     C 4193   6.361   0.520   9.051  0.8699  0.4016 -0.6642
  790MOL0     C 4194   6.258   0.585   8.992 -0.6488 -0.1675 -0.2101
  790MOL0     O 4195   6.155   0.832   8.896  0.3012  0.6400 -0.5956
  790MOL0     C 4196   5.948   0.961   8.783 -0.1188  1.2234 -1.1689
  790MOL0     C 4197   5.828   1.016   8.739 -0.4603 -0.0615 -0.7192
  790MOL0     N 4198   5.036   0.954   8.243  0.7427  0.0317  0.6600
  790MOL0     N 4199   4.935   1.004   8.170 -0.2145  1.0828 -0.6079
  790MOL0     C 4200   3.972   1.388   7.653  0.1491 -0.0894  0.6805
  790MOL0     C 4201   3.831   1.382   7.655  0.7756 -0.3295  0.1473
  790MOL0     C 4202   3.392   1.393   7.608  0.0060 -0.0891  0.0829
  790MOL0     C 4203   3.346   1.469   7.501  0.1651 -0.2070  0.1292
  790MOL0     C 4204   3.203   1.498   7.487  0.1024 -0.3199  0.5347
  790MOL0     C 4205   3.117   1.473   7.594  0.4856  0.1237 -0.8061
  790MOL0     O 4206   2.990   1.523   7.568  0.8194  0.0657  0.0771
  790MOL0     C 4207   2.897   1.438   7.515  0.4086  0.6132 -0.4290
  790MOL0     C 4208   2.804   1.513   7.418 -1.2066 -0.2997 -0.2999
  790MOL0     C 4209   2.696   1.421   7.352 -0.0447  0.6639  0.2822
  790MOL0     C 4210   2.559   1.391   7.421 -0.2633  0.8271 -0.5457
  790MOL0     C 4211   2.473   1.304   7.343  0.2150 -0.6571 -0.5957
  790MOL0     C 4212   2.393   1.238   7.274 -0.4627 -0.2735  0.6872
  790MOL0     C 4213   3.164   1.389   7.703  0.5055  0.0205  0.5087
  790MOL0     C 4214   3.296   1.340   7.705 -0.7838 -1.2206  0.9487
  790MOL0     H 4215   3.774   1.510   7.346  2.5004  0.6381 -1.1670
  790MOL0     H 4216   4.005   1.504   7.335  3.0368 -0.3887  1.2309
  790MOL0     H 4217   4.231   1.262   7.579 -1.4663  0.1259 -2.9520
  790MOL0     H 4218   4.245   1.387   7.712  3.9419  0.6336  0.2684
  790MOL0     H 4219   4.426   1.495   7.582  1.8666 -0.4466 -3.4207
  790MOL0     H 4220   4.429   1.359   7.465  0.0015 -3.5384  0.6794
  790MOL0     H 4221   4.465   1.200   7.665  1.9929 -0.2446  0.0988
  790MOL0     H 4222   4.481   1.339   7.772 -1.7768  2.4316 -1.5798
  790MOL0     H 4223   4.643   1.273   7.530 -1.4535  4.6327 -2.8500
  790MOL0     H 4224   4.654   1.424   7.625 -1.2054  0.2975  1.1406
  790MOL0     H 4225   4.844   1.281   7.678  0.1864 -0.2316 -2.8631
  790MOL0     H 4226   4.712   1.144   7.705  0.8416  0.8165  0.2833
  790MOL0     H 4227   4.651   1.253   7.910 -1.0157  0.2933 -1.5483
  790MOL0     H 4228   4.766   1.383   7.886  1.5674 -0.1130 -1.0262
  790MOL0     H 4229   4.830   1.085   7.930 -0.4029  0.4885 -0.9443
  790MOL0     H 4230   4.955   1.202   7.895  0.9430 -1.0170  2.3224
  790MOL0     H 4231   4.764   1.228   8.145 -1.0034  0.0192 -1.4150
  790MOL0     H 4232   4.893   1.328   8.095  0.7498 -0.3590 -1.7380
  790MOL0     H 4233   5.104   1.277   8.249  0.9014 -0.9560  0.9702
  790MOL0     H 4234   5.158   1.083   8.494 -0.9390 -1.2928 -0.6656
  790MOL0     H 4235   5.248   1.180   8.368  0.5464 -0.1706 -1.8187
  790MOL0     H 4236   5.348   0.914   8.346 -2.5599 -0.8956 -0.0812
  790MOL0     H 4237   5.269   0.903   8.501  0.3485 -0.4671  0.2317
  790MOL0     H 4238   5.483   1.107   8.412  0.5518  0.2275  1.0094
  790MOL0     H 4239   5.394   1.107   8.569 -1.1584  0.6183 -1.3185
  790MOL0     H 4240   5.568   0.876   8.478  0.0354 -2.0862  1.5487
  790MOL0     H 4241   5.474   0.883   8.622 -0.1686 -1.4921 -2.6525
  790MOL0     H 4242   5.688   0.735   8.600 -1.1209 -0.6123  2.1771
  790MOL0     H 4243   5.878   0.645   8.675 -1.0605  0.8757  0.2191
  790MOL0     H 4244   6.350   0.543   8.665  0.0025  0.3378  0.3114
  790MOL0     H 4245   6.540   0.442   8.773 -0.7367  0.7289  0.2737
  790MOL0     H 4246   6.732   0.381   8.926 -1.1747  3.2958  4.0025
  790MOL0     H 4247   6.588   0.279   8.887 -1.3880 -0.0402  1.1853
  790MOL0     H 4248   6.722   0.136   8.959 -2.5398 -2.4346  1.2151
  790MOL0     H 4249   6.614   0.160   9.097 -1.0414  1.3660  0.7134
  790MOL0     H 4250   6.807   0.303   9.209 -0.7480  0.0529 -0.7754
  790MOL0     H 4251   6.898   0.280   9.066  0.0666  0.4512  1.2272
  790MOL0     H 4252   6.966   0.131   9.268 -1.3595  2.0984 -0.9587
  790MOL0     H 4253   6.825   0.032   9.240 -0.9377  1.7431  1.0501
  790MOL0     H 4254   6.996   0.074   8.995  3.6744 -0.7774  0.4803
  790MOL0     H 4255   6.898  -0.067   9.054  0.0986  1.5854  0.0747
  790MOL0     H 4256   7.088  -0.108   9.234 -0.1171 -0.0414  0.1066
  790MOL0     H 4257   7.160   0.032   9.165 -0.0739  0.8277 -1.6084
  790MOL0     H 4258   7.078  -0.243   9.041 -1.0533 -0.4667  1.0962
  790MOL0     H 4259   7.105  -0.098   8.932  1.3596  0.8171  0.9358
  790MOL0     H 4260   7.325  -0.217   9.115  0.3565  1.3514  1.3509
  790MOL0     H 4261   7.327  -0.058   9.037  0.7057 -0.8922 -0.4916
  790MOL0     H 4262   6.375   0.513   9.158  1.0361 -1.3459 -0.7704
  790MOL0     H 4263   6.182   0.626   9.057 -0.3115 -1.2601  0.9059
  790MOL0     H 4264   6.010   1.010   8.857 -2.4800 -0.4246  2.1774
  790MOL0     H 4265   5.800   1.120   8.752 -2.7980 -0.5569 -1.2247
  790MOL0     H 4266   4.030   1.361   7.740 -1.3125  0.3846  1.8505
  790MOL0     H 4267   3.808   1.358   7.758  2.7926  0.1213  0.7384
  790MOL0     H 4268   3.414   1.512   7.429  0.8251 -1.7381 -0.1790
  790MOL0     H 4269   3.166   1.559   7.406  1.0242  2.8513  2.3416
  790MOL0     H 4270   2.841   1.408   7.604  2.9461  2.4612  1.9409
  790MOL0     H 4271   2.949   1.353   7.470  0.1224  1.5196 -2.6029
  790MOL0     H 4272   2.763   1.595   7.477  0.1478 -0.1335  0.4259
  790MOL0     H 4273   2.873   1.551   7.342  2.2890 -0.9622  2.3536
  790MOL0     H 4274   2.747   1.324   7.344 -0.3041  0.6461 -5.6268
  790MOL0     H 4275   2.682   1.442   7.245  3.4669 -3.2909 -1.2729
  790MOL0     H 4276   2.584   1.330   7.508 -2.3279 -2.4887 -2.0825
  790MOL0     H 4277   2.510   1.487   7.437 -1.7436  0.8054 -4.0311
  790MOL0     H 4278   2.330   1.179   7.211 -2.1746 -0.4176  2.4412
  790MOL0     H 4279   3.103   1.363   7.789 -3.2998  0.4344 -1.8439
  790MOL0     H 4280   3.341   1.293   7.792  3.0452  1.6681  0.8209
  791MOL0     O 4281   1.066   7.012   3.258 -0.0169  0.2101 -0.3173
  791MOL0     C 4282   1.101   7.091   3.346 -0.5717 -0.8277  0.4011
  791MOL0     O 4283   1.051   7.089   3.475  0.1772  0.0658 -0.5853
  791MOL0     C 4284   0.982   6.987   3.532  0.7145  0.6790 -0.6535
  791MOL0     C 4285   0.910   7.021   3.651 -0.4274 -0.8757  0.1149
  791MOL0     C 4286   0.826   6.929   3.717  0.2987 -0.6267  0.1468
  791MOL0     C 4287   0.815   6.795   3.665 -0.2160 -0.5498  0.4385
  791MOL0     O 4288   0.737   6.691   3.724 -0.0679  0.4387  0.7591
  791MOL0     C 4289   0.631   6.729   3.812 -0.3519 -0.3733  0.2969
  791MOL0     C 4290   0.521   6.629   3.789  0.4664 -0.0224  0.6734
  791MOL0     C 4291   0.539   6.494   3.851  0.3278  0.7676 -0.1649
  791MOL0     C 4292   0.436   6.395   3.791  0.6359 -0.8055  1.6122
  791MOL0     C 4293   0.419   6.274   3.883  0.4234 -0.0072  0.8040
  791MOL0     C 4294   0.275   6.219   3.911 -0.4334 -0.0471  0.3337
  791MOL0     C 4295   0.220   6.157   3.785 -0.9294 -0.1770 -0.1974
  791MOL0     C 4296   0.076   6.117   3.787  0.5850 -0.5692  0.1315
  791MOL0     N 4297  -0.014   6.234   3.810  0.5435  0.2718  0.1476
  791MOL0     C 4298   0.006   6.369   3.793 -0.0001 -0.8404  0.1276
  791MOL0     C 4299  -0.107   6.422   3.851 -0.2241 -0.0191  0.0676
  791MOL0     C 4300  -0.141   6.572   3.849 -0.4445  0.2782  1.2321
  791MOL0     C 4301  -0.013   6.661   3.874 -0.1066 -0.4258  0.3916
  791MOL0     C 4302   0.057   6.653   4.006 -0.4014  0.3597  0.0630
  791MOL0     C 4303   0.195   6.719   3.999  0.2860  0.2089  0.1496
  791MOL0     O 4304   0.180   6.851   4.072 -0.0173  0.7634  0.8773
  791MOL0     C 4305   0.294   6.920   4.099  0.5605 -0.3758  0.5050
  791MOL0     C 4306   0.392   6.945   4.005 -0.3422  0.5807  0.0523
  791MOL0     C 4307   0.517   7.009   4.037  0.5009  0.0580  0.7307
  791MOL0     C 4308   0.519   7.072   4.168  0.8089  0.1029  0.2935
  791MOL0     C 4309   0.644   7.150   4.211  0.4549 -0.7017  0.2098
  791MOL0     O 4310   0.646   7.188   4.335 -0.2745  0.1028 -0.0361
  791MOL0     C 4311   0.739   7.274   4.390  0.1461 -0.1617  0.0391
  791MOL0     C 4312   0.775   7.259   4.529 -0.4537 -0.6065 -0.0912
  791MOL0     C 4313   0.858   7.360   4.587  0.1409  0.9745 -0.4069
  791MOL0     C 4314   0.904   7.471   4.509 -0.7852 -0.5418  0.4987
  791MOL0     O 4315   1.006   7.560   4.541  0.2847  1.1503 -0.2152
  791MOL0     C 4316   1.074   7.534   4.667  0.2648  0.3505 -1.2609
  791MOL0     C 4317   1.209   7.611   4.662 -0.5158 -0.2384  0.7073
  791MOL0     C 4318   1.277   7.606   4.800  0.6574  0.7015  0.0689
  791MOL0     C 4319   1.217   7.690   4.910  0.8595 -0.9658  0.6470
  791MOL0     C 4320   1.257   7.641   5.048  1.1221 -0.0377 -0.2433
  791MOL0     C 4321   1.410   7.639   5.080 -0.1442 -0.2716  0.2834
  791MOL0     C 4322   1.453   7.630   5.227 -0.0789 -0.3951 -0.4935
  791MOL0     C 4323   1.607   7.612   5.258  0.7466  0.2493  0.5076
  791MOL0    Cl 4324   1.669   7.435   5.240 -0.2179  0.5471  0.4148
  791MOL0     C 4325   0.848   7.488   4.377 -0.7359  0.8557 -0.5070
  791MOL0     C 4326   0.773   7.388   4.320  0.1404 -0.7383 -0.1562
  791MOL0     O 4327   0.730   7.159   4.129  0.7732 -0.2155 -0.0449
  791MOL0     C 4328   0.408   7.047   4.259  0.3387 -0.2618  0.3240
  791MOL0     C 4329   0.299   6.969   4.225 -0.2195  0.1555  0.3295
  791MOL0     N 4330  -0.198   6.332   3.878  0.4580 -0.3888  0.5024
  791MOL0     N 4331  -0.146   6.218   3.848  0.9195  0.3900 -0.4011
  791MOL0     C 4332   0.885   6.762   3.545  0.3549 -0.5993 -0.3837
  791MOL0     C 4333   0.972   6.852   3.489  0.1159  0.4863 -0.0415
  791MOL0     C 4334   1.199   7.193   3.282 -0.5296  0.8786 -0.4442
  791MOL0     C 4335   1.266   7.171   3.165 -0.3920 -0.0624 -0.1159
  791MOL0     C 4336   1.348   7.278   3.105  0.7614  0.8295 -0.5099
  791MOL0     C 4337   1.370   7.393   3.181 -0.3329  0.3390 -0.5026
  791MOL0     O 4338   1.456   7.495   3.147 -0.5547 -0.1200 -0.3372
  791MOL0     C 4339   1.544   7.475   3.030  0.9419 -0.0636  0.0355
  791MOL0     C 4340   1.454   7.499   2.905 -0.8181  0.0752  0.0686
  791MOL0     C 4341   1.550   7.518   2.780 -0.2082  0.0917  0.7355
  791MOL0     C 4342   1.667   7.420   2.756 -0.5204 -0.7532  0.1254
  791MOL0     C 4343   1.615   7.277   2.759  0.2710 -1.2030  0.7423
  791MOL0     C 4344   1.585   7.164   2.753  0.5958  0.6782 -0.3048
  791MOL0     C 4345   1.313   7.405   3.309 -0.0333 -0.0331 -0.2364
  791MOL0     C 4346   1.228   7.311   3.362 -0.1072 -0.2539  0.3151
  791MOL0     H 4347   0.909   7.124   3.683 -0.2665 -1.2447  1.3436
  791MOL0     H 4348   0.790   6.969   3.811 -1.5989  2.3466 -1.6856
  791MOL0     H 4349   0.586   6.815   3.761 -1.3255 -1.3250 -0.4913
  791MOL0     H 4350   0.658   6.734   3.918  1.4283 -0.4208 -0.1265
  791MOL0     H 4351   0.510   6.614   3.681  3.2467  1.7984  0.0254
  791MOL0     H 4352   0.426   6.674   3.819 -0.0835  0.0871 -1.1202
  791MOL0     H 4353   0.522   6.510   3.958 -3.7010  0.9294 -0.6859
  791MOL0     H 4354   0.641   6.457   3.832  0.2959  1.1976 -1.2216
  791MOL0     H 4355   0.342   6.451   3.798  0.2669 -1.0632 -0.6593
  791MOL0     H 4356   0.464   6.373   3.688  2.0331  2.9240  1.0319
  791MOL0     H 4357   0.470   6.301   3.976  2.4552 -2.2222  0.4277
  791MOL0     H 4358   0.474   6.183   3.857  1.5143  0.3227  1.8547
  791MOL0     H 4359   0.203   6.296   3.940 -1.6948 -0.7345 -0.8270
  791MOL0     H 4360   0.280   6.137   3.983  3.0551  0.6819  1.1074
  791MOL0     H 4361   0.232   6.224   3.699 -3.4573 -0.6691 -1.0022
  791MOL0     H 4362   0.280   6.070   3.756 -2.2546 -1.1441 -0.1288
  791MOL0     H 4363   0.055   6.036   3.857 -2.4378  1.1041  1.3276
  791MOL0     H 4364   0.062   6.096   3.681 -0.7430  1.8100 -0.2257
  791MOL0     H 4365   0.090   6.421   3.749  1.1831 -3.5794 -1.1253
  791MOL0     H 4366  -0.216   6.609   3.920 -1.1692 -0.2829  0.7760
  791MOL0     H 4367  -0.176   6.609   3.753 -0.9535 -0.9276  0.9249
  791MOL0     H 4368  -0.047   6.765   3.867 -0.3877 -0.6326 -2.8721
  791MOL0     H 4369   0.056   6.635   3.794 -1.2495 -3.2300  0.2115
  791MOL0     H 4370  -0.010   6.696   4.081  0.6922  1.4675  0.4229
  791MOL0     H 4371   0.068   6.547   4.033 -0.4216  0.6980  1.4362
  791MOL0     H 4372   0.220   6.743   3.895 -0.2056 -0.8784 -0.2418
  791MOL0     H 4373   0.275   6.659   4.043 -0.4238  0.7805  2.3155
  791MOL0     H 4374   0.376   6.944   3.897  0.8116  4.9493 -0.3610
  791MOL0     H 4375   0.596   7.025   3.965 -1.5166 -0.1548 -1.6838
  791MOL0     H 4376   0.753   7.172   4.590 -0.9950  0.7354  1.7342
  791MOL0     H 4377   0.919   7.327   4.671 -1.4195 -2.5385 -0.4954
  791MOL0     H 4378   1.096   7.427   4.672 -0.6868  0.2132  1.1926
  791MOL0     H 4379   1.003   7.556   4.747  0.2834 -2.6485 -0.2905
  791MOL0     H 4380   1.193   7.716   4.635  2.1630  0.0179 -0.1909
  791MOL0     H 4381   1.282   7.574   4.590 -1.7005 -0.6208 -0.3409
  791MOL0     H 4382   1.385   7.622   4.792  0.8322  0.2106  1.2549
  791MOL0     H 4383   1.257   7.503   4.829  3.5277 -0.1498 -0.6283
  791MOL0     H 4384   1.242   7.797   4.915 -1.1614 -0.4285  0.0369
  791MOL0     H 4385   1.109   7.708   4.906  1.2864  2.2458  0.2585
  791MOL0     H 4386   1.216   7.540   5.052  0.5194 -0.0461 -3.5817
  791MOL0     H 4387   1.198   7.694   5.123  0.5808 -0.6898 -0.2021
  791MOL0     H 4388   1.453   7.734   5.047 -0.4205  0.4485  1.8871
  791MOL0     H 4389   1.460   7.564   5.018  0.2697  0.7276 -0.6444
  791MOL0     H 4390   1.420   7.723   5.273 -2.5028 -2.0646  1.3959
  791MOL0     H 4391   1.400   7.556   5.288  1.5589 -0.1982  1.2746
  791MOL0     H 4392   1.637   7.647   5.357  0.7256  1.3970  0.1148
  791MOL0     H 4393   1.660   7.678   5.189 -1.6744 -0.3715 -2.1040
  791MOL0     H 4394   0.872   7.573   4.314  0.3351  0.8106 -0.1851
  791MOL0     H 4395   0.737   7.399   4.218  3.4202 -1.9036 -1.5498
  791MOL0     H 4396   0.411   7.093   4.358  1.7438  0.6592 -0.1243
  791MOL0     H 4397   0.215   6.943   4.289 -1.3632  2.9042  0.0838
  791MOL0     H 4398   0.882   6.660   3.507  2.8372 -0.8467 -0.1020
  791MOL0     H 4399   1.039   6.818   3.411  4.0369  2.3480  2.1894
  791MOL0     H 4400   1.237   7.082   3.110 -3.2027  1.2440 -0.9596
  791MOL0     H 4401   1.398   7.248   3.013  3.3188 -1.9105  1.5698
  791MOL0     H 4402   1.590   7.375   3.033  1.3774  0.1089 -0.6969
  791MOL0     H 4403   1.622   7.552   3.030  0.5104  0.4311 -2.3852
  791MOL0     H 4404   1.382   7.420   2.886 -1.3232  0.1869  1.4484
  791MOL0     H 4405   1.392   7.588   2.923  0.1516  0.6095  0.8612
  791MOL0     H 4406   1.585   7.620   2.767  0.1222  0.0263  1.0871
  791MOL0     H 4407   1.481   7.513   2.695 -1.6315  0.7599  1.8027
  791MOL0     H 4408   1.719   7.433   2.661 -0.9169 -0.5779 -0.0684
  791MOL0     H 4409   1.753   7.429   2.824 -0.8218 -2.1645  0.7375
  791MOL0     H 4410   1.561   7.060   2.760  3.4615  0.0169  0.7173
  791MOL0     H 4411   1.338   7.497   3.361  0.7054 -0.0497 -0.5411
  791MOL0     H 4412   1.188   7.324   3.462  1.9577 -0.8404  1.2701
  792MOL0     O 4413   1.853   5.018   5.515  0.3201  0.0286  0.1261
  792MOL0     C 4414   1.774   5.108   5.492  0.1303 -0.5926 -0.4924
  792MOL0     O 4415   1.781   5.189   5.379  1.0983  0.1385 -0.0753
  792MOL0     C 4416   1.881   5.169   5.286  0.3342 -0.0975  0.1251
  792MOL0     C 4417   1.867   5.065   5.195  0.7477 -0.8971  0.3770
  792MOL0     C 4418   1.975   5.030   5.112  0.5174  0.1219 -0.4680
  792MOL0     C 4419   2.096   5.095   5.117 -0.3615 -0.3553 -0.0234
  792MOL0     O 4420   2.184   5.036   5.043 -0.7098 -0.6649 -0.2567
  792MOL0     C 4421   2.318   5.081   5.038 -0.2024 -0.6666  1.0059
  792MOL0     C 4422   2.393   5.034   4.911 -0.9848  0.2015 -0.1106
  792MOL0     C 4423   2.532   4.990   4.950 -0.1841 -0.6713 -0.6637
  792MOL0     C 4424   2.539   4.879   5.051  0.1624  0.4041  0.0702
  792MOL0     C 4425   2.458   4.757   5.019  0.3422 -0.9054  0.4164
  792MOL0     C 4426   2.531   4.622   5.022  0.2883  0.2291 -0.1594
  792MOL0     C 4427   2.457   4.505   4.962  1.0381  1.1266 -0.5613
  792MOL0     C 4428   2.500   4.367   5.028 -0.2907 -0.0619  0.1963
  792MOL0     N 4429   2.427   4.264   4.967 -0.0385 -0.0696  0.1131
  792MOL0     C 4430   2.338   4.179   5.033  0.9361 -0.0201 -0.5807
  792MOL0     C 4431   2.292   4.093   4.932 -0.7459  0.3006  0.3184
  792MOL0     C 4432   2.188   3.989   4.940 -0.2790  0.3223 -0.4818
  792MOL0     C 4433   2.041   4.042   4.910  0.4345  0.1763 -0.9046
  792MOL0     C 4434   1.942   3.932   4.901  0.1115  0.2283 -0.3747
  792MOL0     C 4435   1.796   3.980   4.884  0.5829 -0.4642 -0.3244
  792MOL0     O 4436   1.702   3.865   4.891  0.2147 -0.7417 -0.3891
  792MOL0     C 4437   1.650   3.850   5.019  0.1326 -0.4170  0.1212
  792MOL0     C 4438   1.575   3.945   5.093 -0.9682 -0.7998 -0.1370
  792MOL0     C 4439   1.518   3.910   5.219 -0.2533  0.3490 -0.6502
  792MOL0     C 4440   1.542   3.780   5.275  0.3698 -0.2758  0.5117
  792MOL0     C 4441   1.474   3.731   5.393 -0.0914  0.0513  1.1318
  792MOL0     O 4442   1.362   3.801   5.424 -0.6653  0.0308  0.7768
  792MOL0     C 4443   1.276   3.759   5.522  0.2568  0.0753  0.5645
  792MOL0     C 4444   1.140   3.783   5.493  0.0795 -0.8247  0.0522
  792MOL0     C 4445   1.037   3.747   5.580  0.0884  0.2619 -0.7173
  792MOL0     C 4446   1.072   3.682   5.705  0.8234 -0.6072  0.4076
  792MOL0     O 4447   0.975   3.639   5.787 -0.4951  0.7938  0.6018
  792MOL0     C 4448   0.989   3.617   5.922 -0.7047 -0.2291 -0.1315
  792MOL0     C 4449   1.009   3.468   5.951  0.2173  0.3531  0.0409
  792MOL0     C 4450   0.896   3.370   5.907 -0.1076 -0.4001  0.0690
  792MOL0     C 4451   0.785   3.377   6.010 -0.2297  0.8639 -0.1455
  792MOL0     C 4452   0.656   3.312   5.957  0.0588  0.0973  0.8223
  792MOL0     C 4453   0.540   3.322   6.054  0.1251 -0.5750 -0.5260
  792MOL0     C 4454   0.416   3.250   5.992  1.0432 -0.7358  0.1690
  792MOL0     C 4455   0.312   3.222   6.105  0.1461 -0.0351  0.5077
  792MOL0    Cl 4456   0.170   3.113   6.038 -0.0791  0.1619 -0.0408
  792MOL0     C 4457   1.209   3.670   5.737  0.5016  0.3863 -0.5956
  792MOL0     C 4458   1.316   3.704   5.651 -0.0214 -1.3939  0.3687
  792MOL0     O 4459   1.508   3.626   5.446 -0.4384 -0.2542  0.0103
  792MOL0     C 4460   1.612   3.691   5.194 -0.3708  1.2191  0.5002
  792MOL0     C 4461   1.671   3.726   5.067  0.3841 -0.5170 -0.1913
  792MOL0     N 4462   2.370   4.122   4.814  0.0594  0.3247 -0.3507
  792MOL0     N 4463   2.449   4.217   4.843 -0.4069 -0.1970  0.3581
  792MOL0     C 4464   2.106   5.204   5.210 -0.3850  0.3973 -0.2970
  792MOL0     C 4465   2.000   5.241   5.291  0.5249  1.3372  0.3231
  792MOL0     C 4466   1.655   5.125   5.574  0.8824  1.0758  0.2570
  792MOL0     C 4467   1.532   5.179   5.527  0.4664  1.0432  0.3536
  792MOL0     C 4468   1.425   5.185   5.612 -0.3384  0.8580  0.1580
  792MOL0     C 4469   1.443   5.171   5.746 -0.0608 -0.4622  0.0305
  792MOL0     O 4470   1.341   5.216   5.820  0.1803  0.0404 -0.0595
  792MOL0     C 4471   1.362   5.214   5.959 -0.1589 -0.3813  0.1167
  792MOL0     C 4472   1.240   5.275   6.024  0.0375  0.3200 -0.8565
  792MOL0     C 4473   1.121   5.178   6.011  0.7518 -0.7093 -0.6453
  792MOL0     C 4474   1.142   5.049   6.090 -1.2205 -0.0919  0.0269
  792MOL0     C 4475   1.023   4.970   6.080 -0.0360  0.2325  0.8406
  792MOL0     C 4476   0.932   4.892   6.077 -0.2639 -0.2168 -0.7349
  792MOL0     C 4477   1.552   5.099   5.792 -0.8565  1.6894  0.5815
  792MOL0     C 4478   1.660   5.072   5.703  0.1737  0.0727 -0.1914
  792MOL0     H 4479   1.770   5.023   5.172 -0.0486  2.3209 -3.0539
  792MOL0     H 4480   1.965   4.951   5.039 -0.1434 -1.8274  1.6386
  792MOL0     H 4481   2.366   5.045   5.129  4.1707  0.8384 -0.4295
  792MOL0     H 4482   2.315   5.191   5.036 -3.0611 -0.6278 -2.1177
  792MOL0     H 4483   2.406   5.109   4.832  1.2103  0.6303  0.5769
  792MOL0     H 4484   2.330   4.963   4.857 -2.0594 -0.0433  1.3808
  792MOL0     H 4485   2.597   5.068   4.992  1.2092 -2.4534  0.6123
  792MOL0     H 4486   2.580   4.962   4.856 -1.5246  0.1644 -1.6427
  792MOL0     H 4487   2.639   4.836   5.045 -0.3109 -1.0167  1.4340
  792MOL0     H 4488   2.508   4.915   5.150  2.1721 -0.2304  0.9823
  792MOL0     H 4489   2.433   4.765   4.913  2.5235  1.1295 -0.0387
  792MOL0     H 4490   2.370   4.760   5.084  1.3991  3.2259  1.9157
  792MOL0     H 4491   2.543   4.599   5.128 -0.3711  0.8649  0.0609
  792MOL0     H 4492   2.630   4.617   4.977  0.2346  3.1344 -0.7822
  792MOL0     H 4493   2.348   4.513   4.963  0.8537 -0.5349 -1.5325
  792MOL0     H 4494   2.498   4.505   4.860  2.1662 -1.7341 -0.2114
  792MOL0     H 4495   2.475   4.366   5.135 -0.3259 -2.1045  0.2140
  792MOL0     H 4496   2.608   4.355   5.014 -0.4054 -0.7906 -0.1494
  792MOL0     H 4497   2.300   4.183   5.135  3.0231  0.1506  0.2318
  792MOL0     H 4498   2.199   3.950   5.042  0.3003  1.3562 -0.1334
  792MOL0     H 4499   2.220   3.913   4.869  1.7153  1.8092 -1.2840
  792MOL0     H 4500   2.035   4.114   4.827  0.1449 -0.5672 -1.5329
  792MOL0     H 4501   2.001   4.108   4.988 -1.3325 -4.0357  2.0758
  792MOL0     H 4502   1.963   3.863   4.819 -2.3249 -2.1512  0.8335
  792MOL0     H 4503   1.944   3.869   4.991  3.0000  0.8047  0.0647
  792MOL0     H 4504   1.774   4.026   4.787 -2.4104  0.8203  0.8216
  792MOL0     H 4505   1.768   4.050   4.964 -1.5825 -3.0651  1.3555
  792MOL0     H 4506   1.552   4.040   5.047  1.5484  2.5645  4.6836
  792MOL0     H 4507   1.459   3.986   5.268  0.0777 -0.2465  0.7152
  792MOL0     H 4508   1.126   3.841   5.403 -0.9252 -0.5652  0.3626
  792MOL0     H 4509   0.933   3.768   5.559 -1.4040 -3.2515  2.2360
  792MOL0     H 4510   0.895   3.652   5.966  0.0811  1.9696 -0.0870
  792MOL0     H 4511   1.080   3.663   5.963  1.2284 -3.6131 -0.2737
  792MOL0     H 4512   1.026   3.458   6.058 -0.6013 -1.8870  0.0181
  792MOL0     H 4513   1.105   3.451   5.902 -0.2300 -1.5748 -0.2362
  792MOL0     H 4514   0.936   3.268   5.906  0.3663 -0.2224  0.3603
  792MOL0     H 4515   0.861   3.396   5.807 -1.4323 -0.1475  0.5812
  792MOL0     H 4516   0.819   3.321   6.098 -0.7289  0.9723  0.1207
  792MOL0     H 4517   0.758   3.479   6.041 -0.3759  0.8933 -0.3703
  792MOL0     H 4518   0.676   3.207   5.934 -0.9024 -0.3320  1.8679
  792MOL0     H 4519   0.634   3.354   5.858  1.1853  1.3433  1.0679
  792MOL0     H 4520   0.520   3.429   6.065  2.3995  0.1835 -2.7691
  792MOL0     H 4521   0.557   3.279   6.153 -2.0424 -1.7031 -0.5905
  792MOL0     H 4522   0.362   3.315   5.923  2.2409  3.7590  3.0268
  792MOL0     H 4523   0.445   3.158   5.941  1.9630  1.2334 -3.1446
  792MOL0     H 4524   0.277   3.316   6.149 -0.0560 -0.4308  1.2093
  792MOL0     H 4525   0.345   3.167   6.194 -2.3934  0.6886  2.0148
  792MOL0     H 4526   1.243   3.619   5.826 -0.2461  0.8060 -0.0634
  792MOL0     H 4527   1.422   3.693   5.674  0.5094  0.2177 -1.0902
  792MOL0     H 4528   1.632   3.592   5.235 -0.4548  0.9226 -0.1607
  792MOL0     H 4529   1.744   3.667   5.013  2.3826  0.7385  1.0414
  792MOL0     H 4530   2.198   5.261   5.220  0.6529 -1.0882 -1.1035
  792MOL0     H 4531   1.997   5.330   5.354  0.1649  1.4968  0.0816
  792MOL0     H 4532   1.522   5.202   5.422  0.9231  1.7345  0.4511
  792MOL0     H 4533   1.329   5.228   5.587 -0.3208  1.2943  0.8269
  792MOL0     H 4534   1.445   5.278   5.991  0.3637 -1.7557  1.6584
  792MOL0     H 4535   1.387   5.113   5.994  0.4473 -0.1675  0.3037
  792MOL0     H 4536   1.263   5.310   6.125  1.0384  1.9981 -1.6173
  792MOL0     H 4537   1.226   5.373   5.976  0.6624 -0.5620 -2.9542
  792MOL0     H 4538   1.109   5.144   5.907  3.1697 -0.9894 -0.8930
  792MOL0     H 4539   1.028   5.223   6.045 -0.4073 -1.8798 -2.0976
  792MOL0     H 4540   1.220   4.991   6.039 -0.9078  1.1480 -0.9274
  792MOL0     H 4541   1.169   5.076   6.193  2.7334 -0.2019 -0.8129
  792MOL0     H 4542   0.854   4.818   6.077  1.1356 -1.7950  1.5676
  792MOL0     H 4543   1.561   5.067   5.895 -0.2106  2.3718  0.7418
  792MOL0     H 4544   1.747   5.022   5.743 -0.0751  1.0904  1.7590
  793MOL0     O 4545   0.025   2.619   6.739 -0.0708 -0.4403  0.2368
  793MOL0     C 4546   0.012   2.535   6.652  1.0914 -0.3221  0.7634
  793MOL0     O 4547   0.120   2.457   6.612  0.0303  0.0681  0.3824
  793MOL0     C 4548   0.240   2.477   6.673 -0.0676  0.3640  1.0614
  793MOL0     C 4549   0.312   2.592   6.659  0.4980 -0.2355 -1.2964
  793MOL0     C 4550   0.432   2.628   6.721 -0.2744  0.3575 -0.1086
  793MOL0     C 4551   0.487   2.530   6.799  0.3526 -0.3773  0.8485
  793MOL0     O 4552   0.609   2.553   6.858  0.7079 -0.7701  0.0835
  793MOL0     C 4553   0.699   2.456   6.920 -0.9060  0.1283 -0.8692
  793MOL0     C 4554   0.795   2.522   7.013  1.3910  0.1561 -0.0863
  793MOL0     C 4555   0.735   2.646   7.086 -0.2672  0.8644  0.0774
  793MOL0     C 4556   0.840   2.703   7.185 -0.8015  0.2939 -0.3088
  793MOL0     C 4557   0.899   2.830   7.115 -0.0434  0.5639  0.2050
  793MOL0     C 4558   0.999   2.898   7.203  0.3596  0.0932 -0.4597
  793MOL0     C 4559   1.124   2.817   7.259  0.0520 -0.0232  1.3145
  793MOL0     C 4560   1.223   2.791   7.138  0.3419 -1.3068 -0.7426
  793MOL0     N 4561   1.224   2.652   7.088 -0.0702 -0.8464 -0.3540
  793MOL0     C 4562   1.148   2.613   6.983  0.7843 -0.1302  0.5442
  793MOL0     C 4563   1.196   2.494   6.953  0.4490  0.4752 -0.5481
  793MOL0     C 4564   1.141   2.413   6.850  0.0139  0.7413 -0.1540
  793MOL0     C 4565   1.104   2.268   6.887 -0.4620 -0.0656 -0.5691
  793MOL0     C 4566   1.100   2.186   6.752 -0.5037  0.5380  0.4551
  793MOL0     C 4567   0.966   2.189   6.678  0.7564  0.3205  0.0702
  793MOL0     O 4568   0.873   2.146   6.771 -0.2571 -0.3792 -0.5687
  793MOL0     C 4569   0.747   2.105   6.736  0.9042  0.3459  0.1885
  793MOL0     C 4570   0.667   2.063   6.843 -0.3727 -0.8480  0.1725
  793MOL0     C 4571   0.547   2.007   6.819  0.1583 -0.4622 -0.3583
  793MOL0     C 4572   0.481   1.999   6.692  0.9457  0.0634  0.2702
  793MOL0     C 4573   0.338   1.957   6.684  1.9557 -1.0733  0.7639
  793MOL0     O 4574   0.284   1.946   6.558  0.2731  0.1403 -0.2824
  793MOL0     C 4575   0.148   1.905   6.548 -0.6088 -0.0172 -0.2876
  793MOL0     C 4576   0.105   1.776   6.592 -0.4755 -0.7157  0.6745
  793MOL0     C 4577  -0.032   1.735   6.568 -0.0024 -0.9335 -0.4955
  793MOL0     C 4578  -0.126   1.824   6.525 -0.3312 -0.1309 -0.2456
  793MOL0     O 4579  -0.248   1.769   6.497 -0.3605  0.0720  0.4909
  793MOL0     C 4580  -0.338   1.851   6.437 -0.6888 -0.7213 -0.0116
  793MOL0     C 4581  -0.480   1.809   6.399  0.3249 -0.3894 -0.6503
  793MOL0     C 4582  -0.549   1.746   6.526 -0.6778 -0.2834  0.3114
  793MOL0     C 4583  -0.693   1.719   6.504  1.3586 -0.4152  0.8017
  793MOL0     C 4584  -0.780   1.682   6.630 -0.3873  0.5020 -0.8347
  793MOL0     C 4585  -0.938   1.682   6.614  0.0790 -0.1977  0.3085
  793MOL0     C 4586  -0.989   1.566   6.514 -1.3127 -0.3800  0.0425
  793MOL0     C 4587  -1.132   1.582   6.461 -0.6296  0.3060  0.2790
  793MOL0    Cl 4588  -1.249   1.668   6.565 -0.0328  0.4158  0.4652
  793MOL0     C 4589  -0.079   1.959   6.490  0.2465  0.0694 -0.7050
  793MOL0     C 4590   0.055   1.992   6.501  0.3119 -0.4705  0.3539
  793MOL0     O 4591   0.271   1.944   6.791  0.5387 -0.3460 -0.3075
  793MOL0     C 4592   0.567   2.024   6.576 -1.5873 -0.8643  0.1807
  793MOL0     C 4593   0.694   2.087   6.602 -1.0596 -0.0207 -0.6846
  793MOL0     N 4594   1.316   2.465   7.026  0.0273 -0.3137  0.1742
  793MOL0     N 4595   1.324   2.565   7.106  0.5717 -0.3240  0.3978
  793MOL0     C 4596   0.422   2.404   6.812 -0.6406 -0.2834  0.1857
  793MOL0     C 4597   0.304   2.374   6.749  0.9198  0.6904  0.6352
  793MOL0     C 4598  -0.114   2.489   6.606 -0.7793  0.0042 -0.1643
  793MOL0     C 4599  -0.124   2.363   6.543 -0.0265 -0.2363 -0.2531
  793MOL0     C 4600  -0.243   2.329   6.480 -0.2840  1.0217 -0.4362
  793MOL0     C 4601  -0.366   2.401   6.486 -0.6234 -0.4130 -0.0852
  793MOL0     O 4602  -0.484   2.366   6.425 -0.4567 -0.3540 -0.8554
  793MOL0     C 4603  -0.511   2.230   6.410  0.5427  0.2180  0.0451
  793MOL0     C 4604  -0.655   2.209   6.354  0.4001 -0.1089 -0.4326
  793MOL0     C 4605  -0.740   2.142   6.455 -0.4589 -0.1902 -0.4183
  793MOL0     C 4606  -0.765   2.217   6.590 -0.4376 -0.3904  0.1432
  793MOL0     C 4607  -0.861   2.139   6.671  0.4313 -0.2772 -0.3988
  793MOL0     C 4608  -0.937   2.075   6.735 -0.3192  0.4563  0.3378
  793MOL0     C 4609  -0.349   2.531   6.542 -1.0934 -0.8682 -0.2847
  793MOL0     C 4610  -0.229   2.579   6.601 -0.6631 -0.1658 -0.7395
  793MOL0     H 4611   0.261   2.669   6.603 -1.1378 -1.6781 -1.8768
  793MOL0     H 4612   0.480   2.725   6.712  1.3510 -0.1580  2.1004
  793MOL0     H 4613   0.758   2.403   6.845  0.2301  2.2798 -1.5935
  793MOL0     H 4614   0.647   2.375   6.972 -0.7563 -0.5724 -1.7886
  793MOL0     H 4615   0.884   2.558   6.960  0.1378  2.8538 -0.4802
  793MOL0     H 4616   0.823   2.444   7.085  0.5893 -0.4687 -0.4377
  793MOL0     H 4617   0.649   2.603   7.138 -0.6878  1.3570 -0.1919
  793MOL0     H 4618   0.700   2.728   7.022  2.2606  1.7112 -0.3489
  793MOL0     H 4619   0.794   2.735   7.279 -0.8913 -1.7800  0.4270
  793MOL0     H 4620   0.925   2.639   7.213 -1.1815 -0.5048 -0.9455
  793MOL0     H 4621   0.824   2.908   7.097 -0.9565  0.0365  1.5393
  793MOL0     H 4622   0.936   2.819   7.013  0.1569  1.7138  0.1402
  793MOL0     H 4623   0.929   2.918   7.284  0.9351  1.3426 -0.2556
  793MOL0     H 4624   1.032   2.995   7.164  3.1956 -0.1666  0.9980
  793MOL0     H 4625   1.175   2.870   7.340 -0.2986  1.6319  0.4874
  793MOL0     H 4626   1.080   2.726   7.301 -0.3302 -1.2157 -1.4471
  793MOL0     H 4627   1.328   2.802   7.168  0.8071 -1.7029 -2.1772
  793MOL0     H 4628   1.206   2.867   7.062 -2.1532 -0.4217  0.5693
  793MOL0     H 4629   1.055   2.658   6.949  1.2157  0.7842  0.5592
  793MOL0     H 4630   1.220   2.421   6.775  3.0926  2.1393  2.9648
  793MOL0     H 4631   1.049   2.456   6.809 -0.3202 -0.8827 -1.2151
  793MOL0     H 4632   1.008   2.248   6.936 -0.7053  2.1951 -0.0157
  793MOL0     H 4633   1.192   2.243   6.947 -0.5871 -2.9151 -1.4360
  793MOL0     H 4634   1.172   2.226   6.680 -2.5562  0.9900 -1.4234
  793MOL0     H 4635   1.118   2.079   6.764  1.0876  0.7907  0.6006
  793MOL0     H 4636   0.975   2.118   6.595 -0.2113  0.2566  0.0011
  793MOL0     H 4637   0.931   2.283   6.633  0.3164 -1.0323 -2.6065
  793MOL0     H 4638   0.708   2.085   6.941  1.9709 -0.9796 -0.6915
  793MOL0     H 4639   0.492   1.973   6.907 -0.4962 -1.9778 -1.3106
  793MOL0     H 4640   0.181   1.704   6.618  2.2391  1.5525 -0.4221
  793MOL0     H 4641  -0.059   1.631   6.582  1.9424 -1.5618 -1.0240
  793MOL0     H 4642  -0.302   1.877   6.337 -1.0747 -3.2772 -0.8744
  793MOL0     H 4643  -0.341   1.951   6.481 -0.5820  0.7782 -3.1399
  793MOL0     H 4644  -0.461   1.735   6.321  0.9947  0.2870 -1.1413
  793MOL0     H 4645  -0.540   1.897   6.371  0.5245  0.3621  1.1510
  793MOL0     H 4646  -0.533   1.824   6.600  2.1712  0.5740 -1.0474
  793MOL0     H 4647  -0.502   1.656   6.567 -2.7082 -2.2962 -1.4631
  793MOL0     H 4648  -0.742   1.798   6.445 -0.1984 -0.5411  1.8669
  793MOL0     H 4649  -0.709   1.624   6.452 -0.6438 -0.4457  1.4097
  793MOL0     H 4650  -0.751   1.753   6.709 -1.2108  2.7001 -2.4139
  793MOL0     H 4651  -0.760   1.579   6.663 -1.2531  0.5348 -0.1660
  793MOL0     H 4652  -0.983   1.776   6.581 -0.8914 -0.2253  1.4691
  793MOL0     H 4653  -0.990   1.659   6.708  1.9063 -1.9621  0.9612
  793MOL0     H 4654  -0.939   1.569   6.417 -1.6414  1.5417 -0.1081
  793MOL0     H 4655  -0.980   1.472   6.570 -1.5835 -1.4710 -1.6908
  793MOL0     H 4656  -1.168   1.479   6.448 -1.7532  0.2112  3.3060
  793MOL0     H 4657  -1.135   1.628   6.362  1.9611 -2.5408 -1.3011
  793MOL0     H 4658  -0.151   2.033   6.456 -1.5330 -0.5106  1.5435
  793MOL0     H 4659   0.084   2.091   6.468 -4.2530  0.8881 -0.3820
  793MOL0     H 4660   0.516   2.007   6.482 -2.3218 -1.6627  0.7048
  793MOL0     H 4661   0.758   2.120   6.520 -1.1686  0.4310 -0.5867
  793MOL0     H 4662   0.469   2.314   6.851 -0.2114 -0.0051  0.3215
  793MOL0     H 4663   0.246   2.282   6.751  1.0475  0.6038  0.3768
  793MOL0     H 4664  -0.042   2.294   6.559  1.6706  1.5855 -0.7220
  793MOL0     H 4665  -0.247   2.235   6.426  1.2885  0.3997  0.4798
  793MOL0     H 4666  -0.473   2.168   6.492  1.9553  1.3542  0.2956
  793MOL0     H 4667  -0.448   2.218   6.321  1.4783  2.2156  0.3767
  793MOL0     H 4668  -0.694   2.305   6.318 -1.6905 -0.3714  0.9511
  793MOL0     H 4669  -0.655   2.138   6.271  1.0794  0.4686 -0.9430
  793MOL0     H 4670  -0.707   2.041   6.478 -0.3814 -0.3543 -1.2222
  793MOL0     H 4671  -0.840   2.134   6.410 -1.1493  0.0803  1.0001
  793MOL0     H 4672  -0.677   2.237   6.652 -1.5962  0.7021  1.4958
  793MOL0     H 4673  -0.825   2.306   6.569  1.3695  0.4394 -1.8609
  793MOL0     H 4674  -0.994   2.011   6.799 -2.4577  1.4773 -0.4620
  793MOL0     H 4675  -0.440   2.587   6.561  0.2100  0.9356  0.9626
  793MOL0     H 4676  -0.232   2.678   6.644 -1.2987 -1.1055  1.5285
  794MOL0     O 4677   7.676   6.228   3.715  0.6942  0.5279 -1.3073
  794MOL0     C 4678   7.623   6.222   3.608 -0.2586  0.8395 -0.4492
  794MOL0     O 4679   7.678   6.236   3.492 -0.0332  0.8066 -0.7349
  794MOL0     C 4680   7.809   6.264   3.477 -1.2390 -1.0155  0.2660
  794MOL0     C 4681   7.870   6.206   3.363  1.0359  0.5303 -0.8940
  794MOL0     C 4682   8.005   6.218   3.336 -0.1570  0.0659  0.7645
  794MOL0     C 4683   8.092   6.300   3.403 -0.1625 -0.1217  0.2698
  794MOL0     O 4684   8.226   6.322   3.371  0.1010  0.3555  0.3901
  794MOL0     C 4685   8.262   6.263   3.243 -0.0313 -0.1566 -0.3300
  794MOL0     C 4686   8.404   6.301   3.188  0.2031 -0.6613 -0.5175
  794MOL0     C 4687   8.500   6.231   3.275 -0.5431 -0.3912 -0.3809
  794MOL0     C 4688   8.643   6.271   3.239  1.1049  0.6404 -0.1852
  794MOL0     C 4689   8.738   6.205   3.337  0.2653 -0.3319 -0.6269
  794MOL0     C 4690   8.886   6.218   3.302 -0.3684 -0.5268 -0.5425
  794MOL0     C 4691   8.976   6.165   3.413  0.8140 -0.4087 -0.0071
  794MOL0     C 4692   9.110   6.217   3.376 -0.0062 -0.2085 -0.2415
  794MOL0     N 4693   9.125   6.359   3.412  0.2542 -1.2051 -0.1036
  794MOL0     C 4694   9.116   6.415   3.538 -0.4601 -1.0068 -0.0927
  794MOL0     C 4695   9.092   6.549   3.524 -0.9022  0.4659  0.1598
  794MOL0     C 4696   9.092   6.645   3.636 -0.4676 -0.4516 -0.3016
  794MOL0     C 4697   9.103   6.790   3.588  0.3454 -0.4704  0.3478
  794MOL0     C 4698   8.981   6.843   3.515 -1.0044 -0.3057  0.2128
  794MOL0     C 4699   8.857   6.825   3.609 -0.2630  0.2893  0.4060
  794MOL0     O 4700   8.745   6.905   3.566  0.0785 -0.1475  0.3997
  794MOL0     C 4701   8.726   7.029   3.607  0.2306  0.1558  0.1708
  794MOL0     C 4702   8.617   7.093   3.547 -0.3047 -0.3495  0.2324
  794MOL0     C 4703   8.577   7.224   3.578 -0.1953  0.7473  0.1672
  794MOL0     C 4704   8.656   7.299   3.668 -0.4700  0.9234 -0.1860
  794MOL0     C 4705   8.622   7.431   3.712  0.2434 -0.1947 -0.1447
  794MOL0     O 4706   8.509   7.504   3.659  0.6916  0.4455  0.5828
  794MOL0     C 4707   8.501   7.628   3.713 -0.4745 -0.1363 -0.1379
  794MOL0     C 4708   8.418   7.671   3.820  0.0716  0.0913 -1.0675
  794MOL0     C 4709   8.414   7.804   3.868 -0.2707  0.1180 -0.3884
  794MOL0     C 4710   8.509   7.888   3.814  0.5304 -0.3562  0.5004
  794MOL0     O 4711   8.508   8.025   3.835  0.6574 -0.2391  0.3241
  794MOL0     C 4712   8.403   8.091   3.919 -0.7267 -1.2016 -0.7108
  794MOL0     C 4713   8.393   8.240   3.877 -0.5826 -0.9139  0.0395
  794MOL0     C 4714   8.317   8.251   3.748 -0.1553 -0.2519  1.3843
  794MOL0     C 4715   8.167   8.214   3.782 -0.0514 -0.4482 -0.3303
  794MOL0     C 4716   8.073   8.244   3.662 -0.0415 -0.4707  0.6321
  794MOL0     C 4717   7.935   8.265   3.708  0.5741 -0.0137 -0.0752
  794MOL0     C 4718   7.862   8.315   3.593  0.8394  0.4453 -0.2919
  794MOL0     C 4719   7.702   8.323   3.621 -1.3167  0.3474  0.3829
  794MOL0    Cl 4720   7.654   8.447   3.753 -0.1406 -0.4433 -0.1988
  794MOL0     C 4721   8.595   7.846   3.711  0.6576 -0.4028  1.1617
  794MOL0     C 4722   8.590   7.722   3.656 -0.4039  1.0560  0.6650
  794MOL0     O 4723   8.697   7.483   3.798  0.2686  0.1717  0.9958
  794MOL0     C 4724   8.771   7.239   3.728  0.4475  0.4264  0.1906
  794MOL0     C 4725   8.806   7.098   3.697  0.6476  0.0648  1.4579
  794MOL0     N 4726   9.101   6.567   3.386 -0.0952  0.3475 -0.0661
  794MOL0     N 4727   9.112   6.454   3.327 -0.4620  0.2899  0.2072
  794MOL0     C 4728   8.041   6.351   3.524  1.1427  0.4615  0.4450
  794MOL0     C 4729   7.907   6.334   3.561  0.4724  0.3079 -0.2402
  794MOL0     C 4730   7.476   6.205   3.616 -0.4390  0.6881  1.2760
  794MOL0     C 4731   7.406   6.218   3.737  1.0781 -0.4811  0.7253
  794MOL0     C 4732   7.267   6.201   3.746 -0.0239  0.0925  0.0106
  794MOL0     C 4733   7.199   6.161   3.630  1.2164  0.1404 -0.5392
  794MOL0     O 4734   7.066   6.135   3.650 -0.4984 -0.3412 -0.4808
  794MOL0     C 4735   6.986   6.161   3.534  0.1254  0.0798  0.1857
  794MOL0     C 4736   6.839   6.157   3.562 -0.0952 -0.1605  0.3243
  794MOL0     C 4737   6.786   6.019   3.602  0.7586 -0.1307 -0.1116
  794MOL0     C 4738   6.780   5.991   3.757  0.9778 -0.2414 -0.3899
  794MOL0     C 4739   6.655   6.020   3.829 -0.0599  0.2136 -0.3909
  794MOL0     C 4740   6.551   6.054   3.886 -0.1480 -0.4482 -0.2494
  794MOL0     C 4741   7.265   6.158   3.507  0.5141  0.5343  0.7365
  794MOL0     C 4742   7.398   6.176   3.501  0.2648  0.1866 -0.8144
  794MOL0     H 4743   7.805   6.139   3.310 -0.2460 -0.6050  1.9258
  794MOL0     H 4744   8.036   6.154   3.254 -0.2181 -2.1729  2.3950
  794MOL0     H 4745   8.194   6.289   3.161 -2.7499 -2.4505  1.0235
  794MOL0     H 4746   8.261   6.155   3.260  1.1161 -0.0613  0.4955
  794MOL0     H 4747   8.407   6.410   3.192  2.2395 -0.6870 -0.3247
  794MOL0     H 4748   8.424   6.271   3.084 -0.2505  1.7762 -1.3709
  794MOL0     H 4749   8.492   6.122   3.275 -1.3921 -0.4533  3.3612
  794MOL0     H 4750   8.477   6.255   3.379  0.2028 -1.8967  0.1684
  794MOL0     H 4751   8.649   6.231   3.137 -1.4359 -0.9951  0.2068
  794MOL0     H 4752   8.659   6.379   3.238 -3.5058  1.6493 -4.4742
  794MOL0     H 4753   8.698   6.103   3.328 -1.7307  0.1465  1.5903
  794MOL0     H 4754   8.719   6.238   3.440 -1.5974  3.5097 -2.0064
  794MOL0     H 4755   8.903   6.323   3.276  1.0176  0.0144  2.1910
  794MOL0     H 4756   8.909   6.157   3.214  2.1987  0.4138 -0.6198
  794MOL0     H 4757   8.950   6.209   3.509 -3.4730 -0.8250 -0.7709
  794MOL0     H 4758   8.966   6.056   3.416 -2.6226 -0.2395 -0.7250
  794MOL0     H 4759   9.126   6.191   3.271 -0.5838  0.5272 -0.5233
  794MOL0     H 4760   9.182   6.158   3.433 -1.2338 -0.3916  1.1740
  794MOL0     H 4761   9.126   6.379   3.639 -0.6057 -0.5708  0.0799
  794MOL0     H 4762   9.173   6.611   3.701 -1.5587  0.3235  1.5568
  794MOL0     H 4763   9.006   6.635   3.704 -1.8409  1.5766 -1.6181
  794MOL0     H 4764   9.195   6.809   3.531  0.8352 -2.8607  0.2538
  794MOL0     H 4765   9.121   6.856   3.673  0.8990  1.1405 -0.9535
  794MOL0     H 4766   8.990   6.949   3.490 -0.7560 -0.1721  0.8595
  794MOL0     H 4767   8.965   6.798   3.416 -0.0734  2.1285 -1.1268
  794MOL0     H 4768   8.885   6.844   3.713  0.1319 -1.7277  0.6914
  794MOL0     H 4769   8.830   6.719   3.608  1.6979 -0.3442  3.4334
  794MOL0     H 4770   8.561   7.043   3.469  0.4046 -1.1999  0.2396
  794MOL0     H 4771   8.482   7.266   3.547 -0.2605 -0.7631 -1.8574
  794MOL0     H 4772   8.344   7.594   3.840 -1.7545  1.6329 -1.5577
  794MOL0     H 4773   8.354   7.828   3.955 -2.3052 -3.8227 -0.4753
  794MOL0     H 4774   8.442   8.091   4.021 -3.3413  0.1954  0.3936
  794MOL0     H 4775   8.305   8.044   3.903 -1.1084 -1.0053  0.9093
  794MOL0     H 4776   8.490   8.290   3.867  1.0427 -3.2024  2.6108
  794MOL0     H 4777   8.341   8.291   3.959  1.8098 -1.3225  1.9183
  794MOL0     H 4778   8.347   8.181   3.670 -2.2114 -2.4833  2.4562
  794MOL0     H 4779   8.334   8.347   3.699 -0.0198 -1.1907 -0.4873
  794MOL0     H 4780   8.146   8.108   3.800 -0.3287 -0.1674  1.1474
  794MOL0     H 4781   8.136   8.270   3.870  4.7139 -0.3581  1.5728
  794MOL0     H 4782   8.092   8.156   3.599  4.1256  1.8073 -1.6700
  794MOL0     H 4783   8.113   8.333   3.614  1.5048 -1.5140 -0.1089
  794MOL0     H 4784   7.931   8.343   3.784  0.6891  1.2333 -1.3027
  794MOL0     H 4785   7.892   8.178   3.758 -1.0179  0.5824 -0.3316
  794MOL0     H 4786   7.890   8.416   3.563  1.6736  0.9025  1.8047
  794MOL0     H 4787   7.873   8.246   3.510 -1.8468  1.8227 -1.9312
  794MOL0     H 4788   7.663   8.223   3.644  0.5948 -0.6687 -0.5322
  794MOL0     H 4789   7.654   8.353   3.527 -3.8402 -2.9333  0.4283
  794MOL0     H 4790   8.656   7.927   3.672 -0.5230 -0.5046 -1.0190
  794MOL0     H 4791   8.661   7.689   3.581  0.8242 -0.4468  2.3682
  794MOL0     H 4792   8.842   7.289   3.793  1.5454 -0.2023 -0.4896
  794MOL0     H 4793   8.897   7.052   3.733  0.5420 -1.3378  0.0240
  794MOL0     H 4794   8.100   6.413   3.591  0.6554 -0.1144  1.4447
  794MOL0     H 4795   7.867   6.372   3.654 -4.3523  0.9594 -2.2584
  794MOL0     H 4796   7.461   6.258   3.822 -2.0068  0.3750  2.5202
  794MOL0     H 4797   7.215   6.229   3.837 -1.9429 -0.7534 -0.7679
  794MOL0     H 4798   7.003   6.082   3.459 -1.0650  1.4276 -1.5828
  794MOL0     H 4799   7.006   6.260   3.492  1.9346 -0.2578  0.1963
  794MOL0     H 4800   6.819   6.235   3.636  0.1967  0.1214  0.1088
  794MOL0     H 4801   6.788   6.190   3.471  1.5198 -2.1396 -1.3967
  794MOL0     H 4802   6.842   5.938   3.554 -0.8136 -1.3309  0.0199
  794MOL0     H 4803   6.680   6.019   3.577 -0.1376  2.3553  3.1060
  794MOL0     H 4804   6.785   5.882   3.763 -0.1566 -0.2434  0.8782
  794MOL0     H 4805   6.873   6.035   3.794  0.7759 -0.7562  0.7606
  794MOL0     H 4806   6.452   6.088   3.909  1.1281  2.6676  1.0404
  794MOL0     H 4807   7.206   6.118   3.426  1.7428  2.4753 -1.2435
  794MOL0     H 4808   7.458   6.162   3.412  0.5891 -1.6010 -0.3461
  795MOL0     O 4809   2.578   8.397   6.716 -0.2486 -1.2998 -0.1873
  795MOL0     C 4810   2.586   8.311   6.624 -0.3679 -0.8099  0.3339
  795MOL0     O 4811   2.472   8.267   6.560  0.0748  0.4395  0.5540
  795MOL0     C 4812   2.346   8.313   6.588  0.0172 -0.0293  0.7176
  795MOL0     C 4813   2.310   8.445   6.571  0.4269 -0.3898 -0.0259
  795MOL0     C 4814   2.178   8.500   6.579 -0.1266  0.1619 -0.3869
  795MOL0     C 4815   2.078   8.414   6.632  0.7509 -0.4484 -0.3648
  795MOL0     O 4816   1.956   8.477   6.672 -0.4923  0.0959 -0.0028
  795MOL0     C 4817   1.886   8.419   6.774  0.9921  0.2395  0.6299
  795MOL0     C 4818   1.770   8.511   6.826  0.0736  0.4617 -0.4181
  795MOL0     C 4819   1.653   8.520   6.730  0.1753  0.5019 -0.2297
  795MOL0     C 4820   1.552   8.398   6.725  0.1941 -0.4317  0.6709
  795MOL0     C 4821   1.450   8.409   6.609  0.3700  0.0733 -0.2049
  795MOL0     C 4822   1.342   8.522   6.632  0.5180  0.1620  0.2080
  795MOL0     C 4823   1.220   8.502   6.533  0.8032  0.2733  0.0539
  795MOL0     C 4824   1.128   8.626   6.533 -0.3401 -0.1726 -0.5417
  795MOL0     N 4825   1.070   8.652   6.665  0.5567  1.3305 -0.6880
  795MOL0     C 4826   0.947   8.625   6.707 -0.2349  0.2456 -0.5142
  795MOL0     C 4827   0.931   8.688   6.829  0.0469 -0.0192 -0.0153
  795MOL0     C 4828   0.804   8.706   6.912  0.0861 -0.8212  0.8630
  795MOL0     C 4829   0.711   8.803   6.853 -0.1116 -1.1784 -0.5706
  795MOL0     C 4830   0.740   8.947   6.851 -0.1444  0.9484 -0.1849
  795MOL0     C 4831   0.620   9.021   6.822  1.6710 -0.0621 -0.3489
  795MOL0     O 4832   0.567   8.982   6.688  0.1677 -0.5901  0.9116
  795MOL0     C 4833   0.430   8.999   6.682  0.1314  0.3420 -0.3919
  795MOL0     C 4834   0.346   8.904   6.744  0.3350 -0.1876 -0.1382
  795MOL0     C 4835   0.211   8.924   6.753  0.3491 -0.1495  0.0522
  795MOL0     C 4836   0.154   9.046   6.706 -0.0350 -0.4673 -0.3118
  795MOL0     C 4837   0.010   9.075   6.714  0.0398  0.1689 -0.2661
  795MOL0     O 4838  -0.079   8.970   6.750  0.2631 -0.3818  0.6073
  795MOL0     C 4839  -0.214   9.002   6.764 -0.1714  0.1758  0.1140
  795MOL0     C 4840  -0.291   8.959   6.878  0.3069  0.3837  0.9387
  795MOL0     C 4841  -0.428   8.983   6.881  0.4228 -0.3675  0.1565
  795MOL0     C 4842  -0.499   9.045   6.779 -0.2857  0.8900 -0.7451
  795MOL0     O 4843  -0.632   9.056   6.797 -0.3113  0.5466  0.2296
  795MOL0     C 4844  -0.700   8.943   6.736  0.4764 -0.4506 -0.0322
  795MOL0     C 4845  -0.853   8.938   6.743  0.1032  0.0137  0.0868
  795MOL0     C 4846  -0.908   8.946   6.883 -0.5720  0.8219  0.0256
  795MOL0     C 4847  -1.066   8.948   6.886  0.0515 -0.5446 -0.8493
  795MOL0     C 4848  -1.128   8.821   6.829 -0.5467 -0.8294 -0.6928
  795MOL0     C 4849  -1.281   8.826   6.858 -0.0095  0.7776 -0.1442
  795MOL0     C 4850  -1.366   8.739   6.762 -0.5563  0.3735 -0.4438
  795MOL0     C 4851  -1.321   8.592   6.771  0.6385  0.2743 -0.5813
  795MOL0    Cl 4852  -1.359   8.523   6.942 -0.1882  0.8833 -0.3555
  795MOL0     C 4853  -0.431   9.082   6.667 -0.4125 -0.3772  1.1255
  795MOL0     C 4854  -0.292   9.053   6.657  0.0556 -0.2408 -0.3024
  795MOL0     O 4855  -0.028   9.186   6.685 -0.4335  0.3850  0.1243
  795MOL0     C 4856   0.232   9.143   6.641  0.1386 -0.2850  0.1045
  795MOL0     C 4857   0.366   9.120   6.624 -0.2862  0.5354 -0.5310
  795MOL0     N 4858   1.055   8.736   6.864 -0.8181  0.3416  0.1952
  795MOL0     N 4859   1.137   8.715   6.764  0.4193  0.5850  0.4733
  795MOL0     C 4860   2.107   8.279   6.642  0.7446 -0.3242 -0.5422
  795MOL0     C 4861   2.240   8.227   6.623 -0.3374 -0.4419 -0.5842
  795MOL0     C 4862   2.720   8.281   6.566  1.0286 -0.3674 -0.2289
  795MOL0     C 4863   2.835   8.329   6.633  0.1475  0.1484  0.3499
  795MOL0     C 4864   2.951   8.318   6.562  0.2361 -0.1285  0.7962
  795MOL0     C 4865   2.967   8.239   6.451 -0.1599 -0.0660  0.0772
  795MOL0     O 4866   3.094   8.203   6.410  0.0796 -0.1491 -0.5750
  795MOL0     C 4867   3.111   8.190   6.272  0.5603  0.1949 -0.9465
  795MOL0     C 4868   3.176   8.319   6.228  0.3399 -0.4534  0.4152
  795MOL0     C 4869   3.330   8.332   6.270 -0.2065 -0.8848  0.3394
  795MOL0     C 4870   3.375   8.298   6.417  0.1662  0.5865  0.4117
  795MOL0     C 4871   3.491   8.372   6.452  0.2813 -0.5197  0.3378
  795MOL0     C 4872   3.600   8.423   6.485 -0.4114  0.6076 -0.6315
  795MOL0     C 4873   2.853   8.182   6.393  0.6633 -0.0764  0.4238
  795MOL0     C 4874   2.730   8.213   6.445  0.4212  0.1249 -0.4573
  795MOL0     H 4875   2.404   8.494   6.550  1.4561 -0.0046  4.4707
  795MOL0     H 4876   2.168   8.607   6.569  0.4802  0.2700  0.1076
  795MOL0     H 4877   1.957   8.419   6.857  0.4377 -1.5694  1.1590
  795MOL0     H 4878   1.859   8.316   6.752 -3.3666  1.4579 -0.6738
  795MOL0     H 4879   1.809   8.613   6.831  1.2283  0.2962 -3.6363
  795MOL0     H 4880   1.734   8.485   6.926 -1.2333  2.4677 -0.3119
  795MOL0     H 4881   1.696   8.534   6.630  1.1043  1.5490  0.3056
  795MOL0     H 4882   1.595   8.612   6.740  0.0195  0.6589 -2.1689
  795MOL0     H 4883   1.603   8.301   6.717  1.0331  0.0208  0.4981
  795MOL0     H 4884   1.503   8.402   6.823 -1.7239 -0.2522 -0.2380
  795MOL0     H 4885   1.393   8.316   6.605  0.4643 -0.2501  3.4315
  795MOL0     H 4886   1.506   8.416   6.515  1.2992 -3.0117  0.0013
  795MOL0     H 4887   1.379   8.625   6.625 -1.6942  0.9271 -1.3764
  795MOL0     H 4888   1.305   8.524   6.735 -2.5768 -1.1877 -0.7496
  795MOL0     H 4889   1.257   8.481   6.433  1.0525 -3.6114  0.7890
  795MOL0     H 4890   1.157   8.418   6.566 -3.9034  3.7270  0.8697
  795MOL0     H 4891   1.049   8.630   6.458  0.4537 -0.8746 -1.4495
  795MOL0     H 4892   1.193   8.713   6.518 -1.7490  0.7270 -1.5993
  795MOL0     H 4893   0.878   8.571   6.643  0.4827  0.2053 -1.2668
  795MOL0     H 4894   0.837   8.741   7.011 -2.6897  0.1576  1.5498
  795MOL0     H 4895   0.756   8.609   6.901  0.5599 -0.7169 -3.9094
  795MOL0     H 4896   0.616   8.783   6.904  1.8764  0.1897  4.2482
  795MOL0     H 4897   0.688   8.781   6.749 -0.1139  1.2390 -1.1513
  795MOL0     H 4898   0.776   8.982   6.948 -0.2328 -1.5545  0.8048
  795MOL0     H 4899   0.821   8.975   6.782  0.2260  0.4675  0.0490
  795MOL0     H 4900   0.639   9.129   6.815 -0.3065  0.2486 -1.4931
  795MOL0     H 4901   0.551   9.002   6.904  1.0818 -0.8658 -1.0246
  795MOL0     H 4902   0.391   8.812   6.781  1.7892  0.1427 -0.9908
  795MOL0     H 4903   0.147   8.850   6.799 -0.2923 -1.1780 -2.3503
  795MOL0     H 4904  -0.245   8.921   6.969 -0.3686 -1.6456  0.4851
  795MOL0     H 4905  -0.469   8.972   6.981 -0.1920  1.3292  0.1142
  795MOL0     H 4906  -0.656   8.854   6.783 -0.1574 -0.0867  1.2880
  795MOL0     H 4907  -0.666   8.932   6.632  2.8135 -1.8965  0.7855
  795MOL0     H 4908  -0.894   8.846   6.701 -5.6211  1.8832  0.7078
  795MOL0     H 4909  -0.891   9.023   6.685  1.3883  0.8965  0.4813
  795MOL0     H 4910  -0.875   9.038   6.931  1.3991 -0.9125  2.2003
  795MOL0     H 4911  -0.861   8.868   6.942  0.8365  0.7244 -1.1523
  795MOL0     H 4912  -1.112   8.980   6.980 -1.4739  0.2438 -1.8176
  795MOL0     H 4913  -1.098   9.029   6.819 -1.1335  2.0522  2.5977
  795MOL0     H 4914  -1.071   8.739   6.875 -3.0134 -2.6845 -0.7864
  795MOL0     H 4915  -1.109   8.817   6.722 -2.2770 -0.1162 -1.0503
  795MOL0     H 4916  -1.317   8.929   6.853 -2.2958  0.2005  1.9528
  795MOL0     H 4917  -1.302   8.795   6.961  2.5640  0.3766  0.3068
  795MOL0     H 4918  -1.469   8.734   6.799  0.3523 -3.5432  2.1771
  795MOL0     H 4919  -1.365   8.764   6.656 -2.2879 -2.3383 -1.1696
  795MOL0     H 4920  -1.220   8.570   6.734  1.3156  2.6808 -0.3330
  795MOL0     H 4921  -1.399   8.541   6.713  0.6687 -0.4238 -0.0197
  795MOL0     H 4922  -0.486   9.116   6.580 -1.5010 -1.9080  1.1746
  795MOL0     H 4923  -0.236   9.084   6.569  1.0278  1.2511  0.7778
  795MOL0     H 4924   0.183   9.234   6.608 -0.9936 -0.0940  2.1536
  795MOL0     H 4925   0.431   9.190   6.574  2.6593 -1.7386 -0.1478
  795MOL0     H 4926   2.040   8.198   6.669  0.2107  0.4694  0.5693
  795MOL0     H 4927   2.261   8.125   6.653  1.6267 -0.0928 -0.6570
  795MOL0     H 4928   2.823   8.379   6.728 -1.1029 -1.0358  0.8423
  795MOL0     H 4929   3.045   8.358   6.600 -0.4947  3.2461 -0.6027
  795MOL0     H 4930   3.022   8.172   6.212  1.6458 -1.4641 -2.1375
  795MOL0     H 4931   3.177   8.104   6.255  0.5017 -0.7500  2.6789
  795MOL0     H 4932   3.168   8.320   6.119 -2.6472 -0.8412  0.5527
  795MOL0     H 4933   3.123   8.407   6.264  0.2922 -1.2797  2.4683
  795MOL0     H 4934   3.344   8.439   6.253 -3.5434 -0.6745 -2.1185
  795MOL0     H 4935   3.386   8.270   6.200 -2.3016 -4.2469  1.3522
  795MOL0     H 4936   3.301   8.324   6.493  1.3066  4.4638  0.4100
  795MOL0     H 4937   3.392   8.190   6.413  2.3637  0.9033  0.0330
  795MOL0     H 4938   3.694   8.455   6.525 -0.2817  1.5993 -1.6737
  795MOL0     H 4939   2.848   8.131   6.297  0.2300  0.8327 -0.0456
  795MOL0     H 4940   2.634   8.206   6.396  0.0982 -0.6504  0.2651
  796MOL0     O 4941   2.339   3.718  11.078 -0.4024 -0.0782  0.0309
  796MOL0     C 4942   2.409   3.691  10.978 -0.0907  0.4583 -1.2823
  796MOL0     O 4943   2.369   3.611  10.881  0.6802 -0.3287  0.0127
  796MOL0     C 4944   2.238   3.576  10.876  0.0704 -0.7278 -0.2478
  796MOL0     C 4945   2.162   3.633  10.773 -0.2123 -0.0438  1.2556
  796MOL0     C 4946   2.030   3.600  10.757 -0.4137  0.7406  1.1043
  796MOL0     C 4947   1.969   3.500  10.841  0.4323 -0.4410  0.1813
  796MOL0     O 4948   1.835   3.464  10.818  0.3245 -0.1750  1.0608
  796MOL0     C 4949   1.747   3.485  10.926  0.5566 -1.4058  0.1417
  796MOL0     C 4950   1.593   3.471  10.888  0.3339  0.4173 -0.1247
  796MOL0     C 4951   1.548   3.584  10.790  0.6865 -0.9241 -0.2780
  796MOL0     C 4952   1.402   3.635  10.805  0.5721  0.2084 -0.3133
  796MOL0     C 4953   1.300   3.550  10.728  0.2357  0.9553 -1.5461
  796MOL0     C 4954   1.308   3.579  10.583 -0.7971  0.4613  0.7820
  796MOL0     C 4955   1.186   3.520  10.497  0.9103  0.7142 -0.2145
  796MOL0     C 4956   1.136   3.378  10.529  0.4193  0.0134 -0.4485
  796MOL0     N 4957   1.228   3.286  10.458  0.0609 -0.2394 -0.5929
  796MOL0     C 4958   1.333   3.236  10.529 -0.3050  0.3651 -0.5720
  796MOL0     C 4959   1.413   3.187  10.434 -0.7583  0.7403 -0.1248
  796MOL0     C 4960   1.538   3.119  10.467  0.2224  0.6439 -0.0716
  796MOL0     C 4961   1.639   3.201  10.538  0.4656 -0.1078 -0.0167
  796MOL0     C 4962   1.765   3.121  10.525  0.3571 -0.6862 -0.2984
  796MOL0     C 4963   1.890   3.207  10.562  0.0180  0.2667  0.1490
  796MOL0     O 4964   1.997   3.113  10.556  0.5785  0.1193 -0.8992
  796MOL0     C 4965   2.124   3.170  10.576 -0.0431 -0.5760 -0.4593
  796MOL0     C 4966   2.225   3.093  10.523  0.0081 -0.1182  0.5126
  796MOL0     C 4967   2.352   3.144  10.520  1.1664  0.0867  0.0664
  796MOL0     C 4968   2.387   3.265  10.577  0.5036 -0.6762 -0.2000
  796MOL0     C 4969   2.534   3.320  10.576  0.3596 -0.4537  1.2332
  796MOL0     O 4970   2.638   3.235  10.533  0.1312 -0.6546  0.2399
  796MOL0     C 4971   2.762   3.288  10.536  0.2590  0.1684 -0.3138
  796MOL0     C 4972   2.842   3.280  10.419  0.2954  0.5729  0.2884
  796MOL0     C 4973   2.979   3.342  10.422  0.3256  0.2556 -0.0124
  796MOL0     C 4974   3.031   3.395  10.546  0.5835 -0.2668  0.0001
  796MOL0     O 4975   3.159   3.447  10.539 -0.0787  0.3482  0.4880
  796MOL0     C 4976   3.226   3.515  10.641  0.2805 -0.0161  0.5439
  796MOL0     C 4977   3.301   3.640  10.589 -0.6489 -0.5383 -0.7545
  796MOL0     C 4978   3.380   3.701  10.703 -0.4795  0.0454  0.2767
  796MOL0     C 4979   3.294   3.746  10.822 -0.0108  1.1687  0.1259
  796MOL0     C 4980   3.367   3.838  10.930 -0.5077  0.7831 -0.2087
  796MOL0     C 4981   3.491   3.775  10.976 -0.3279  0.3983  0.9330
  796MOL0     C 4982   3.582   3.855  11.074 -0.2492  0.3700  0.3770
  796MOL0     C 4983   3.615   4.000  11.040  0.9892 -0.1627  0.3426
  796MOL0    Cl 4984   3.707   4.040  10.890  0.1389  0.0243 -0.4790
  796MOL0     C 4985   2.951   3.389  10.657  0.3330  0.3542 -0.1047
  796MOL0     C 4986   2.822   3.339  10.658  0.5059  0.6344  0.7184
  796MOL0     O 4987   2.554   3.430  10.630 -0.3074 -0.5065  0.3720
  796MOL0     C 4988   2.288   3.346  10.634  0.6207  0.6291  0.2235
  796MOL0     C 4989   2.156   3.301  10.630 -0.5285 -0.1456  0.0591
  796MOL0     N 4990   1.359   3.212  10.311 -0.2538 -0.3127  0.1233
  796MOL0     N 4991   1.239   3.259  10.329 -0.1082  0.2203 -0.1677
  796MOL0     C 4992   2.041   3.461  10.944  0.6936  0.5474 -0.0350
  796MOL0     C 4993   2.174   3.488  10.957 -0.3274 -1.1831 -0.4808
  796MOL0     C 4994   2.543   3.742  10.981 -0.3901  0.3594 -0.3605
  796MOL0     C 4995   2.588   3.818  11.088  0.0528 -0.1997 -0.9225
  796MOL0     C 4996   2.718   3.867  11.095  0.0754  0.2755 -0.4985
  796MOL0     C 4997   2.811   3.837  10.984  0.2800  0.3022  0.4320
  796MOL0     O 4998   2.940   3.879  10.970 -0.8800 -0.7834 -1.2332
  796MOL0     C 4999   2.932   4.028  10.979  0.6401 -0.1499 -0.5362
  796MOL0     C 5000   3.069   4.095  11.020 -0.4306  0.2820 -0.1300
  796MOL0     C 5001   3.052   4.246  10.990 -0.2876 -0.8758 -0.2817
  796MOL0     C 5002   3.154   4.325  11.065 -0.6091 -0.3049  0.1639
  796MOL0     C 5003   3.285   4.332  11.005  0.7247 -0.5860  0.1797
  796MOL0     C 5004   3.381   4.337  10.927 -0.1319 -0.4903 -0.2746
  796MOL0     C 5005   2.767   3.759  10.877 -0.4706  0.3318  0.4041
  796MOL0     C 5006   2.635   3.710  10.873  0.2673 -0.3147  0.3774
  796MOL0     H 5007   2.201   3.710  10.707 -0.3118 -0.8864  0.1676
  796MOL0     H 5008   1.969   3.631  10.673 -1.9846 -1.1138  1.4764
  796MOL0     H 5009   1.755   3.587  10.966 -2.4196 -0.6292 -0.9473
  796MOL0     H 5010   1.768   3.422  11.013 -1.3940  0.2172  1.9127
  796MOL0     H 5011   1.539   3.487  10.982 -1.2572  2.0631 -1.2517
  796MOL0     H 5012   1.576   3.366  10.863 -0.1429  0.2020  1.0325
  796MOL0     H 5013   1.572   3.559  10.687  0.2999 -0.7592 -0.4123
  796MOL0     H 5014   1.609   3.671  10.816  4.0094 -2.9253 -0.8994
  796MOL0     H 5015   1.375   3.635  10.911  0.1378 -1.5603 -0.3807
  796MOL0     H 5016   1.387   3.739  10.774 -2.0897  0.0864  0.3103
  796MOL0     H 5017   1.199   3.570  10.764  1.5503 -0.2091  3.5742
  796MOL0     H 5018   1.309   3.444  10.754 -1.7738  0.0275 -4.1638
  796MOL0     H 5019   1.392   3.524  10.539 -1.9543 -1.0096  0.3454
  796MOL0     H 5020   1.319   3.686  10.561  1.2414 -0.6207 -5.8735
  796MOL0     H 5021   1.103   3.587  10.522 -0.2289 -1.1529  1.2895
  796MOL0     H 5022   1.211   3.529  10.391  0.4972 -1.4817 -0.5393
  796MOL0     H 5023   1.031   3.368  10.501 -0.5419 -0.4608  2.8480
  796MOL0     H 5024   1.147   3.359  10.636  3.9384  0.1872 -0.6474
  796MOL0     H 5025   1.346   3.250  10.636  2.5350  2.5566 -1.0688
  796MOL0     H 5026   1.584   3.082  10.374  2.7121  2.0056  0.5317
  796MOL0     H 5027   1.514   3.031  10.527  0.6363  0.6541  0.1114
  796MOL0     H 5028   1.613   3.199  10.645  1.2463 -0.6815  0.1792
  796MOL0     H 5029   1.652   3.302  10.498  1.6568  0.0331  0.6886
  796MOL0     H 5030   1.763   3.035  10.593 -1.9695  0.2342  0.9005
  796MOL0     H 5031   1.780   3.079  10.425 -1.5706  1.0936 -1.4010
  796MOL0     H 5032   1.880   3.249  10.662  0.9118  2.6099 -0.6678
  796MOL0     H 5033   1.914   3.297  10.505 -1.3204  0.8501  0.4570
  796MOL0     H 5034   2.201   3.001  10.471 -2.3322  0.0703  1.1654
  796MOL0     H 5035   2.425   3.074  10.481  1.8318  1.8632 -2.1029
  796MOL0     H 5036   2.799   3.226  10.335  0.4465 -0.4690  0.8616
  796MOL0     H 5037   3.041   3.331  10.333  2.7580 -0.9508  1.6958
  796MOL0     H 5038   3.304   3.448  10.677  0.5892  0.1361  0.1626
  796MOL0     H 5039   3.170   3.528  10.734 -0.8537  1.8829 -0.3356
  796MOL0     H 5040   3.238   3.722  10.552  1.7323  1.4181 -0.8044
  796MOL0     H 5041   3.361   3.624  10.499 -2.3281 -0.4283 -1.9452
  796MOL0     H 5042   3.430   3.783  10.650 -0.5301 -1.1256 -1.6839
  796MOL0     H 5043   3.461   3.632  10.726  1.2754  2.3598  1.5363
  796MOL0     H 5044   3.197   3.792  10.798 -0.8061 -0.6204 -0.2453
  796MOL0     H 5045   3.270   3.653  10.875 -0.8890  1.4174  0.1920
  796MOL0     H 5046   3.299   3.854  11.015 -3.6083 -3.0952 -1.6340
  796MOL0     H 5047   3.412   3.930  10.891  2.1257  0.7260  2.3681
  796MOL0     H 5048   3.555   3.748  10.891 -1.0211 -0.9266  0.8019
  796MOL0     H 5049   3.465   3.677  11.017 -0.4652 -0.0656 -0.2256
  796MOL0     H 5050   3.540   3.846  11.175 -0.0751  1.2462  0.5371
  796MOL0     H 5051   3.673   3.794  11.078 -0.4791 -0.2346 -1.9488
  796MOL0     H 5052   3.684   4.044  11.113  0.7100  0.7058  0.0909
  796MOL0     H 5053   3.531   4.069  11.028  0.8797 -0.5081 -0.9885
  796MOL0     H 5054   2.980   3.425  10.755  0.8716  0.2900 -0.2347
  796MOL0     H 5055   2.755   3.335  10.743  2.2615 -0.0001  2.1453
  796MOL0     H 5056   2.312   3.444  10.675  1.4794  1.3317 -1.8090
  796MOL0     H 5057   2.075   3.361  10.672  0.0793  1.8981 -1.5213
  796MOL0     H 5058   2.004   3.389  11.017 -0.7087  1.0831 -0.1826
  796MOL0     H 5059   2.234   3.445  11.037  0.6128 -2.2727 -1.7195
  796MOL0     H 5060   2.525   3.837  11.174  0.8963  0.5910 -0.4761
  796MOL0     H 5061   2.767   3.913  11.181  3.6388 -1.7825 -1.2051
  796MOL0     H 5062   2.867   4.070  11.056  1.0325 -0.8676  0.1968
  796MOL0     H 5063   2.901   4.074  10.885 -1.9400  1.6950  1.0911
  796MOL0     H 5064   3.093   4.071  11.124  2.8303 -2.1723 -1.2742
  796MOL0     H 5065   3.153   4.055  10.963 -0.0950 -0.7921  1.0463
  796MOL0     H 5066   2.953   4.272  11.028 -0.3372 -2.9722  1.2475
  796MOL0     H 5067   3.058   4.274  10.885 -1.3669  0.8947  0.0859
  796MOL0     H 5068   3.117   4.427  11.072  1.2711  0.3777  0.8784
  796MOL0     H 5069   3.169   4.291  11.168  3.1241 -0.1887 -0.2107
  796MOL0     H 5070   3.470   4.330  10.868 -0.1896  0.7636 -0.5436
  796MOL0     H 5071   2.832   3.761  10.790 -2.9335  0.5431 -1.5473
  796MOL0     H 5072   2.598   3.642  10.797 -0.1622 -0.9672  1.1502
  797MOL0     O 5073   3.150   8.408   6.851 -0.2529  0.7102 -0.4845
  797MOL0     C 5074   3.230   8.497   6.896  0.7639 -0.4621  0.7009
  797MOL0     O 5075   3.186   8.620   6.932 -0.1126 -0.8531  0.0896
  797MOL0     C 5076   3.055   8.654   6.890  0.4648  0.7622 -0.5480
  797MOL0     C 5077   3.025   8.764   6.813  0.6749  0.0916  0.3928
  797MOL0     C 5078   2.889   8.803   6.781 -0.2140 -0.2046  0.4502
  797MOL0     C 5079   2.784   8.719   6.828  0.8775  0.4563  0.5325
  797MOL0     O 5080   2.644   8.741   6.806  0.2694  0.5356 -0.2134
  797MOL0     C 5081   2.613   8.864   6.732  0.6427 -0.1563 -0.2498
  797MOL0     C 5082   2.459   8.857   6.702 -0.5646  0.0731 -0.7210
  797MOL0     C 5083   2.396   8.963   6.613  0.0561 -0.6094  0.2300
  797MOL0     C 5084   2.443   8.963   6.468 -1.1158 -0.0658  0.1305
  797MOL0     C 5085   2.427   9.102   6.415 -0.0184  0.3885 -0.0867
  797MOL0     C 5086   2.559   9.181   6.435 -0.8619 -0.6533 -0.2956
  797MOL0     C 5087   2.663   9.149   6.320 -0.6473  0.3740  0.0380
  797MOL0     C 5088   2.794   9.223   6.355  0.1386 -1.0734 -0.1501
  797MOL0     N 5089   2.906   9.207   6.254  0.0909  0.6696 -0.5071
  797MOL0     C 5090   2.938   9.303   6.157 -0.4003  0.2488  0.5079
  797MOL0     C 5091   3.051   9.253   6.103 -0.1975  0.6860  0.0890
  797MOL0     C 5092   3.144   9.306   6.001  0.0397  0.4336 -1.1181
  797MOL0     C 5093   3.273   9.368   6.074  0.6221 -0.1404  0.2348
  797MOL0     C 5094   3.363   9.414   5.959  0.2143 -0.5302  0.0488
  797MOL0     C 5095   3.504   9.463   6.009 -0.7179  0.0273 -0.7374
  797MOL0     O 5096   3.553   9.539   5.901 -0.0089 -0.0900  0.6056
  797MOL0     C 5097   3.683   9.581   5.906  0.0553  0.0090  0.5109
  797MOL0     C 5098   3.709   9.715   5.904 -0.8376 -0.8617 -0.6412
  797MOL0     C 5099   3.842   9.762   5.921  0.0212  0.0173 -0.7211
  797MOL0     C 5100   3.950   9.668   5.925  0.0784 -0.5089  0.2002
  797MOL0     C 5101   4.086   9.718   5.924  0.0074 -0.1680  0.0354
  797MOL0     O 5102   4.178   9.651   5.858  0.2220  0.9431  0.0269
  797MOL0     C 5103   4.309   9.689   5.872 -1.7501 -0.7047 -0.2572
  797MOL0     C 5104   4.360   9.818   5.866  0.4334  0.8355  0.5220
  797MOL0     C 5105   4.496   9.845   5.860 -0.7423 -0.2704  0.0921
  797MOL0     C 5106   4.592   9.739   5.871  1.1343  0.2593  0.5206
  797MOL0     O 5107   4.730   9.755   5.864 -0.2330  0.0345  0.0658
  797MOL0     C 5108   4.799   9.877   5.887  0.5164 -0.9345 -0.4067
  797MOL0     C 5109   4.945   9.872   5.837  0.4027  0.2434 -0.1149
  797MOL0     C 5110   4.998  10.015   5.812  0.6219  0.2227  0.8615
  797MOL0     C 5111   5.151  10.018   5.798  0.9171 -0.3974 -0.4462
  797MOL0     C 5112   5.186  10.158   5.742 -0.1581 -0.8418  0.3313
  797MOL0     C 5113   5.342  10.193   5.768 -0.2823  0.2846 -0.4138
  797MOL0     C 5114   5.386  10.223   5.909  0.2131  0.7862 -0.4504
  797MOL0     C 5115   5.543  10.236   5.936  0.1787 -0.0367 -0.7297
  797MOL0    Cl 5116   5.556  10.240   6.116  0.1996  0.3799  0.5004
  797MOL0     C 5117   4.544   9.615   5.892 -0.1554  0.0289 -0.8928
  797MOL0     C 5118   4.410   9.588   5.896 -0.8669  0.0674 -0.9211
  797MOL0     O 5119   4.107   9.818   5.991 -0.4148 -0.0419 -0.6619
  797MOL0     C 5120   3.918   9.530   5.922 -0.1149  0.0456  0.8460
  797MOL0     C 5121   3.786   9.484   5.916 -0.0508  0.1189 -0.0012
  797MOL0     N 5122   3.087   9.140   6.173 -0.0083 -0.3730 -0.4202
  797MOL0     N 5123   2.994   9.105   6.253 -0.1156 -0.6897 -1.0320
  797MOL0     C 5124   2.822   8.618   6.914 -0.2019 -0.0359  0.1228
  797MOL0     C 5125   2.950   8.587   6.952  0.1434  0.1813 -0.2204
  797MOL0     C 5126   3.367   8.460   6.918  0.3715  0.4755  1.0516
  797MOL0     C 5127   3.436   8.377   6.824  0.2660 -0.3333  0.6451
  797MOL0     C 5128   3.573   8.349   6.830 -0.6092  0.1661  0.3756
  797MOL0     C 5129   3.654   8.405   6.932  0.8218  0.6118 -0.8496
  797MOL0     O 5130   3.784   8.374   6.956 -0.5951  0.3263 -0.0745
  797MOL0     C 5131   3.852   8.297   6.856 -0.3486  0.0281  0.2351
  797MOL0     C 5132   3.998   8.302   6.894  0.8443 -0.2111 -0.2034
  797MOL0     C 5133   4.050   8.450   6.868  0.3388 -1.3521  0.2507
  797MOL0     C 5134   4.203   8.434   6.892  0.3428 -0.2100 -0.8851
  797MOL0     C 5135   4.264   8.563   6.886  0.1759 -0.4084  0.5541
  797MOL0     C 5136   4.319   8.671   6.854 -0.2342 -0.8278 -0.1794
  797MOL0     C 5137   3.588   8.481   7.031 -0.2232 -0.1634  0.0013
  797MOL0     C 5138   3.449   8.513   7.018  0.6999 -0.5518 -0.4441
  797MOL0     H 5139   3.104   8.814   6.757  1.5343 -1.9392 -0.3060
  797MOL0     H 5140   2.865   8.886   6.716 -2.3337 -0.1766  1.1935
  797MOL0     H 5141   2.672   8.856   6.641 -0.1697 -3.4334 -0.6051
  797MOL0     H 5142   2.627   8.954   6.794 -1.6388 -0.5091  0.9025
  797MOL0     H 5143   2.405   8.845   6.797 -0.4456 -2.7731 -0.9108
  797MOL0     H 5144   2.442   8.759   6.657 -0.0150  0.8530 -2.6933
  797MOL0     H 5145   2.410   9.064   6.655  2.5346 -1.2809  1.2319
  797MOL0     H 5146   2.291   8.935   6.607 -0.5040  1.4728 -0.4463
  797MOL0     H 5147   2.548   8.935   6.454 -1.5085 -1.4603 -0.1350
  797MOL0     H 5148   2.389   8.883   6.418  0.1150  1.2277 -3.5652
  797MOL0     H 5149   2.345   9.156   6.464 -0.3439 -0.9057  0.8535
  797MOL0     H 5150   2.418   9.101   6.306  1.7600 -0.1920 -0.2588
  797MOL0     H 5151   2.597   9.148   6.532  1.3628  1.5654 -0.2939
  797MOL0     H 5152   2.538   9.289   6.442  1.9660 -0.0523 -0.0272
  797MOL0     H 5153   2.691   9.045   6.307  2.3406  0.8429  1.8558
  797MOL0     H 5154   2.621   9.190   6.228  1.4336 -0.1781 -1.2244
  797MOL0     H 5155   2.833   9.187   6.451 -1.4227  0.0569  0.9441
  797MOL0     H 5156   2.770   9.329   6.362  2.7062 -0.5168  2.0380
  797MOL0     H 5157   2.909   9.404   6.131  2.9964  1.5833  1.2845
  797MOL0     H 5158   3.097   9.377   5.932 -0.0307  1.9620  0.4142
  797MOL0     H 5159   3.172   9.221   5.939  1.1747  0.1466 -0.2389
  797MOL0     H 5160   3.323   9.291   6.134 -1.6107 -0.4335  1.8254
  797MOL0     H 5161   3.242   9.454   6.134  1.8482  0.2749  0.3175
  797MOL0     H 5162   3.374   9.331   5.888 -1.0360 -1.1203  0.5246
  797MOL0     H 5163   3.310   9.491   5.902 -1.5704 -0.9769  1.0288
  797MOL0     H 5164   3.571   9.380   6.032 -0.9439  0.3028  1.0588
  797MOL0     H 5165   3.504   9.532   6.093 -0.6554 -0.7292 -0.1095
  797MOL0     H 5166   3.625   9.783   5.896  0.2458  0.3416 -2.4798
  797MOL0     H 5167   3.853   9.869   5.929 -1.4865  0.1106  0.4247
  797MOL0     H 5168   4.293   9.902   5.857  0.3056  0.5571 -1.5916
  797MOL0     H 5169   4.528   9.949   5.858  2.0301 -1.0320  0.1396
  797MOL0     H 5170   4.793   9.903   5.993 -0.6114  0.3812 -0.7701
  797MOL0     H 5171   4.749   9.952   5.824 -2.7464 -3.4658 -1.1221
  797MOL0     H 5172   4.936   9.819   5.742  0.0458  2.3957 -1.3580
  797MOL0     H 5173   5.008   9.815   5.906  2.6915  2.4151 -0.2500
  797MOL0     H 5174   4.958  10.082   5.888  1.4152  1.7395 -0.0042
  797MOL0     H 5175   4.963  10.055   5.716  1.0786  0.4686  0.7941
  797MOL0     H 5176   5.177  10.017   5.904 -2.1009  3.6823  0.5889
  797MOL0     H 5177   5.191   9.931   5.744  0.0653 -0.5039 -0.9328
  797MOL0     H 5178   5.125  10.236   5.788 -1.3438 -2.1132  1.0121
  797MOL0     H 5179   5.174  10.148   5.634 -2.2779 -5.3197  0.7248
  797MOL0     H 5180   5.357  10.280   5.704 -0.9642  0.5344 -0.2328
  797MOL0     H 5181   5.404  10.117   5.718  1.7317  0.8434  1.0770
  797MOL0     H 5182   5.335  10.310   5.950  2.8017  1.7556  0.9518
  797MOL0     H 5183   5.351  10.139   5.970  1.6048  1.4432  1.3512
  797MOL0     H 5184   5.585  10.330   5.897  1.7496  0.1418  1.2623
  797MOL0     H 5185   5.591  10.150   5.889 -1.4739 -1.5340  0.2008
  797MOL0     H 5186   4.616   9.534   5.894  2.4866  2.2237 -1.0885
  797MOL0     H 5187   4.378   9.486   5.912 -1.4198  0.2084 -1.0822
  797MOL0     H 5188   3.997   9.456   5.933  0.6714  0.3887 -1.8819
  797MOL0     H 5189   3.777   9.377   5.904  0.5615 -0.0776  1.1160
  797MOL0     H 5190   2.735   8.563   6.949 -0.2407 -0.0706 -0.0253
  797MOL0     H 5191   2.976   8.507   7.020 -0.5716  0.9933  1.0624
  797MOL0     H 5192   3.384   8.324   6.745  1.3656 -1.3582  0.5787
  797MOL0     H 5193   3.618   8.291   6.749 -0.6026  0.7715 -0.0560
  797MOL0     H 5194   3.827   8.331   6.755  0.8102  3.5065  0.9891
  797MOL0     H 5195   3.819   8.194   6.871  1.0140 -0.0371  3.8031
  797MOL0     H 5196   4.008   8.274   6.999 -0.1198  0.6349  0.1315
  797MOL0     H 5197   4.053   8.230   6.833 -0.0169 -0.7464 -0.3552
  797MOL0     H 5198   4.010   8.512   6.949  4.6619  1.9952  0.2096
  797MOL0     H 5199   4.013   8.489   6.772  0.4954  1.5649  1.2596
  797MOL0     H 5200   4.220   8.392   6.992  3.4817 -0.0225 -1.2444
  797MOL0     H 5201   4.249   8.364   6.822 -2.9209 -1.3339 -2.0901
  797MOL0     H 5202   4.380   8.758   6.839 -0.5482 -0.5651  0.0468
  797MOL0     H 5203   3.630   8.525   7.121 -1.2109 -2.0818  1.4956
  797MOL0     H 5204   3.406   8.584   7.087  0.7374 -1.0511  0.1017
  798MOL0     O 5205   7.009   8.130   8.201  0.0128 -0.1070  0.5109
  798MOL0     C 5206   6.928   8.116   8.111  0.1710  0.4944  0.2521
  798MOL0     O 5207   6.957   8.092   7.972 -0.5372  0.3724 -0.2324
  798MOL0     C 5208   7.084   8.115   7.928  0.2113 -0.4249 -1.0391
  798MOL0     C 5209   7.136   8.028   7.830 -0.1876 -0.0157 -0.2656
  798MOL0     C 5210   7.261   8.051   7.783 -0.5543  0.5245  0.3610
  798MOL0     C 5211   7.346   8.148   7.835 -0.1370 -1.2196 -0.2759
  798MOL0     O 5212   7.463   8.174   7.765 -0.2755  0.6694 -0.8717
  798MOL0     C 5213   7.561   8.071   7.783 -0.5747 -1.2224  1.1767
  798MOL0     C 5214   7.595   8.038   7.934  0.0438  0.8511 -0.6561
  798MOL0     C 5215   7.748   8.008   7.941 -0.1627 -0.2631  0.3528
  798MOL0     C 5216   7.807   7.883   7.866  0.3640 -0.6866  0.6207
  798MOL0     C 5217   7.938   7.900   7.787 -0.2466 -0.1874 -0.0158
  798MOL0     C 5218   7.937   7.991   7.669 -0.1981  0.1533  0.1233
  798MOL0     C 5219   8.064   8.078   7.664  0.5134  0.0185 -0.3135
  798MOL0     C 5220   8.084   8.182   7.771  0.7588 -1.0083  0.4881
  798MOL0     N 5221   8.020   8.308   7.745 -0.8760 -0.0787  0.2954
  798MOL0     C 5222   8.074   8.402   7.652  0.1596  0.5881  0.9683
  798MOL0     C 5223   7.992   8.506   7.664  1.2864  0.0081 -0.4390
  798MOL0     C 5224   8.007   8.644   7.602  0.3138 -0.0948 -0.9270
  798MOL0     C 5225   8.016   8.638   7.448  0.2531  0.6960  0.2006
  798MOL0     C 5226   7.899   8.571   7.364  0.2047 -0.2531  0.8715
  798MOL0     C 5227   7.946   8.500   7.234  0.5975  0.4607 -0.2406
  798MOL0     O 5228   7.851   8.404   7.171  0.0195 -1.2472 -1.3719
  798MOL0     C 5229   7.715   8.430   7.165 -0.0010 -1.1896  0.0036
  798MOL0     C 5230   7.664   8.510   7.063  0.1582  0.5135 -0.3470
  798MOL0     C 5231   7.522   8.517   7.035  0.0712  0.2878 -0.3849
  798MOL0     C 5232   7.432   8.461   7.126 -0.4774 -0.7748  0.0759
  798MOL0     C 5233   7.286   8.476   7.104  0.0828  0.8771 -0.1059
  798MOL0     O 5234   7.211   8.500   7.222  0.6561  0.2956  0.4035
  798MOL0     C 5235   7.078   8.475   7.207  0.0588 -0.0711 -0.2705
  798MOL0     C 5236   6.989   8.542   7.114  0.5502 -0.1106 -0.6648
  798MOL0     C 5237   6.853   8.516   7.108 -0.0700  0.1734  0.1115
  798MOL0     C 5238   6.800   8.413   7.188  0.9495 -0.6292 -0.5377
  798MOL0     O 5239   6.661   8.393   7.180  0.2834 -0.3121 -0.5347
  798MOL0     C 5240   6.609   8.272   7.243 -0.3249  0.1957 -0.6161
  798MOL0     C 5241   6.458   8.272   7.221  0.1488 -0.5246 -0.1565
  798MOL0     C 5242   6.391   8.156   7.298  0.1356  0.1690  0.8571
  798MOL0     C 5243   6.251   8.127   7.236  0.1322 -0.4930 -0.5747
  798MOL0     C 5244   6.173   8.038   7.337  0.2781  0.7131 -0.0504
  798MOL0     C 5245   6.031   8.016   7.298 -0.9404 -0.8771 -0.0001
  798MOL0     C 5246   5.952   7.903   7.362 -0.4921  0.0318 -0.4622
  798MOL0     C 5247   5.817   7.880   7.303 -0.5300 -0.0184 -0.3989
  798MOL0    Cl 5248   5.829   7.859   7.129  0.1871  0.5391  0.1412
  798MOL0     C 5249   6.881   8.342   7.279 -0.1664  1.2811 -0.4107
  798MOL0     C 5250   7.021   8.383   7.299  0.3988 -0.5831  0.7970
  798MOL0     O 5251   7.246   8.462   6.991  0.1629 -0.5523  0.2934
  798MOL0     C 5252   7.485   8.397   7.239 -0.6455 -0.8989 -0.7665
  798MOL0     C 5253   7.625   8.389   7.263  0.3629  0.4023 -0.0721
  798MOL0     N 5254   7.898   8.480   7.769  0.9763  0.1657  0.0965
  798MOL0     N 5255   7.921   8.363   7.811  0.1278  0.1400 -0.6733
  798MOL0     C 5256   7.308   8.226   7.934  0.7512  0.9020 -0.2075
  798MOL0     C 5257   7.176   8.215   7.984 -0.7421 -0.5655 -1.4548
  798MOL0     C 5258   6.787   8.085   8.134  0.1885 -0.1801 -0.8232
  798MOL0     C 5259   6.685   8.078   8.043 -0.0560  0.2641  0.4372
  798MOL0     C 5260   6.558   8.051   8.074  0.1022  0.1145  0.1851
  798MOL0     C 5261   6.515   8.015   8.205 -0.1782  0.0431 -0.4238
  798MOL0     O 5262   6.388   7.987   8.254  0.3326 -0.6695  0.0119
  798MOL0     C 5263   6.290   7.929   8.163 -0.1100  0.1575  1.1628
  798MOL0     C 5264   6.173   7.863   8.233  0.4095  0.5018  0.3502
  798MOL0     C 5265   6.223   7.727   8.296 -0.4322 -0.4604  0.2592
  798MOL0     C 5266   6.311   7.740   8.416 -0.2045 -0.0405 -0.3352
  798MOL0     C 5267   6.260   7.839   8.515 -0.4659 -0.6981 -0.4796
  798MOL0     C 5268   6.207   7.913   8.596 -0.2208 -0.3854  0.1704
  798MOL0     C 5269   6.611   8.023   8.302  0.1704  0.3413 -0.7067
  798MOL0     C 5270   6.744   8.061   8.270 -0.1753  1.3856  0.1780
  798MOL0     H 5271   7.080   7.941   7.799  2.2045 -1.4990 -0.6518
  798MOL0     H 5272   7.299   7.992   7.701 -0.1264  1.9682 -0.5261
  798MOL0     H 5273   7.658   8.101   7.743 -0.0740  0.1356  3.2974
  798MOL0     H 5274   7.539   7.981   7.724 -1.6159 -0.3645  0.2001
  798MOL0     H 5275   7.536   7.952   7.964  1.9932 -0.1586  0.5301
  798MOL0     H 5276   7.579   8.123   8.002  1.3894 -0.4957  1.4659
  798MOL0     H 5277   7.782   8.005   8.044  0.9028 -0.6489  0.0047
  798MOL0     H 5278   7.786   8.106   7.910 -0.8033  0.7201  2.5108
  798MOL0     H 5279   7.811   7.795   7.931 -2.6765 -1.4723 -0.0913
  798MOL0     H 5280   7.726   7.853   7.799 -0.0422  1.0203  0.3136
  798MOL0     H 5281   7.963   7.798   7.756  0.1084  0.1297 -0.8138
  798MOL0     H 5282   8.004   7.934   7.867 -1.9784  3.5710  0.0266
  798MOL0     H 5283   7.851   8.059   7.665  0.2869  0.7645 -0.0066
  798MOL0     H 5284   7.948   7.927   7.580  0.9318  1.2390 -0.5432
  798MOL0     H 5285   8.151   8.016   7.646  0.7519  0.7251 -1.7688
  798MOL0     H 5286   8.061   8.129   7.567  0.9911  2.9087  1.0700
  798MOL0     H 5287   8.191   8.204   7.777  0.1523  2.8321 -0.0058
  798MOL0     H 5288   8.041   8.145   7.865 -0.7666 -1.4552 -0.3649
  798MOL0     H 5289   8.161   8.394   7.587 -0.0328 -3.4048  0.9560
  798MOL0     H 5290   8.085   8.700   7.654 -2.2119  1.5525  1.2692
  798MOL0     H 5291   7.912   8.691   7.629  0.5611 -1.4642  2.9601
  798MOL0     H 5292   8.108   8.590   7.414  0.0439  0.5195 -0.1232
  798MOL0     H 5293   8.029   8.741   7.414 -1.6526  0.2668 -2.0506
  798MOL0     H 5294   7.861   8.487   7.423  2.7010 -1.5200  0.8386
  798MOL0     H 5295   7.828   8.652   7.345  1.0557  0.3993  0.4023
  798MOL0     H 5296   8.040   8.446   7.252 -0.8630 -2.4221 -0.6441
  798MOL0     H 5297   7.957   8.580   7.160 -0.8387  0.4186 -0.5171
  798MOL0     H 5298   7.719   8.550   6.978 -0.5690  0.7886 -0.7010
  798MOL0     H 5299   7.470   8.562   6.952 -0.7920 -1.0424 -0.5944
  798MOL0     H 5300   7.024   8.626   7.054  0.3297  0.0097 -0.6238
  798MOL0     H 5301   6.779   8.575   7.056 -0.3753 -0.9191 -0.7480
  798MOL0     H 5302   6.636   8.272   7.349  1.7072 -0.0084 -1.0959
  798MOL0     H 5303   6.653   8.180   7.203  0.0737 -2.1788  4.3933
  798MOL0     H 5304   6.437   8.247   7.117 -0.2794 -1.7857  0.2177
  798MOL0     H 5305   6.425   8.372   7.253  1.3004 -0.6722  1.6000
  798MOL0     H 5306   6.376   8.189   7.402 -1.2568  3.1726 -0.1821
  798MOL0     H 5307   6.446   8.062   7.309  2.3638  1.5976  3.4320
  798MOL0     H 5308   6.197   8.222   7.223 -3.1436 -1.5745  3.0334
  798MOL0     H 5309   6.265   8.072   7.143  4.0432 -1.6760  0.5534
  798MOL0     H 5310   6.175   8.075   7.440 -0.4066  0.2432  0.1414
  798MOL0     H 5311   6.223   7.941   7.340 -1.4973 -0.2191  1.3281
  798MOL0     H 5312   6.029   8.006   7.189  4.4948 -1.4880 -0.2953
  798MOL0     H 5313   5.979   8.108   7.327 -1.2247 -0.2947 -2.1569
  798MOL0     H 5314   6.006   7.808   7.359 -3.3225 -1.6356 -3.3464
  798MOL0     H 5315   5.944   7.928   7.469 -1.2853  2.9076 -1.1060
  798MOL0     H 5316   5.750   7.962   7.329  1.4942  1.8020 -0.6814
  798MOL0     H 5317   5.781   7.788   7.350  0.9081 -0.6853 -0.5699
  798MOL0     H 5318   6.842   8.261   7.340  2.1815  0.7121  0.4580
  798MOL0     H 5319   7.081   8.334   7.375  0.3074 -1.1828  0.4874
  798MOL0     H 5320   7.412   8.340   7.297  0.8467 -3.1190 -0.9488
  798MOL0     H 5321   7.664   8.331   7.347 -0.1674  0.6293  0.3369
  798MOL0     H 5322   7.379   8.299   7.972  0.7689 -0.0301  1.7114
  798MOL0     H 5323   7.155   8.290   8.059  2.7656 -0.8899  0.0173
  798MOL0     H 5324   6.705   8.099   7.938  0.1234 -2.7589 -0.2098
  798MOL0     H 5325   6.478   8.061   8.002  0.1658  2.3986  0.3770
  798MOL0     H 5326   6.330   7.856   8.092  1.0627  2.0897 -0.2531
  798MOL0     H 5327   6.264   8.012   8.097  2.3869  0.6685  0.7301
  798MOL0     H 5328   6.129   7.924   8.312 -0.7153 -0.2007  0.2870
  798MOL0     H 5329   6.091   7.839   8.165 -1.3361 -1.8387  3.0511
  798MOL0     H 5330   6.287   7.681   8.220  3.6551  1.6314  2.1224
  798MOL0     H 5331   6.132   7.666   8.304 -2.9869  2.8538 -1.0014
  798MOL0     H 5332   6.326   7.644   8.465 -3.3125 -0.1857  0.5026
  798MOL0     H 5333   6.407   7.785   8.386  1.3066 -1.9391  1.3834
  798MOL0     H 5334   6.176   7.984   8.671 -3.1741 -0.2148 -1.0404
  798MOL0     H 5335   6.578   8.005   8.404  2.6970  0.3206  0.1919
  798MOL0     H 5336   6.812   8.067   8.354 -1.6672  4.6639  1.3204
  799MOL0     O 5337  11.128   3.176   4.369 -0.3469 -0.3359  0.2805
  799MOL0     C 5338  11.221   3.161   4.451 -0.1449  0.1308 -0.1207
  799MOL0     O 5339  11.207   3.137   4.580  0.6684  0.1511 -0.5863
  799MOL0     C 5340  11.073   3.106   4.613  0.0191 -0.5548 -0.0081
  799MOL0     C 5341  11.005   3.219   4.645 -0.4180  0.2456  0.2157
  799MOL0     C 5342  10.868   3.212   4.679 -0.0745  0.3904  0.2852
  799MOL0     C 5343  10.804   3.084   4.671 -0.7373 -0.0655  0.9290
  799MOL0     O 5344  10.671   3.091   4.682 -0.6327  0.2363  0.6179
  799MOL0     C 5345  10.615   2.989   4.771  0.7350 -0.7164 -0.5741
  799MOL0     C 5346  10.464   3.005   4.773  1.5569 -0.1208  0.5648
  799MOL0     C 5347  10.407   3.004   4.626  0.4849 -0.2219 -0.4428
  799MOL0     C 5348  10.261   3.042   4.623 -0.7499 -0.1278 -0.6279
  799MOL0     C 5349  10.246   3.175   4.693  1.0130 -0.5516 -0.6449
  799MOL0     C 5350  10.122   3.243   4.644  0.4392  0.4580  0.1416
  799MOL0     C 5351  10.084   3.357   4.746 -0.4256 -0.0426 -0.5614
  799MOL0     C 5352  10.064   3.502   4.694 -0.0063 -0.0985 -0.1812
  799MOL0     N 5353   9.953   3.502   4.597 -0.3536  0.2508 -1.0004
  799MOL0     C 5354   9.848   3.586   4.613  0.1786 -0.5128 -0.7385
  799MOL0     C 5355   9.781   3.572   4.498 -0.7919  0.1547  0.6353
  799MOL0     C 5356   9.657   3.639   4.461  0.1527  0.0343 -0.6524
  799MOL0     C 5357   9.537   3.541   4.461 -1.4196 -0.6687 -0.4506
  799MOL0     C 5358   9.507   3.449   4.579 -0.3078  0.2753 -0.5001
  799MOL0     C 5359   9.481   3.529   4.711 -0.2906 -0.2952 -0.7929
  799MOL0     O 5360   9.396   3.647   4.697 -0.5564 -0.1875 -0.0420
  799MOL0     C 5361   9.268   3.631   4.682 -0.5252  0.0231 -0.0682
  799MOL0     C 5362   9.208   3.704   4.586 -0.4816  0.0056 -0.3419
  799MOL0     C 5363   9.070   3.715   4.572 -1.0794  0.0795 -0.6006
  799MOL0     C 5364   8.984   3.644   4.661 -0.5405  0.2748 -1.0547
  799MOL0     C 5365   8.840   3.631   4.657 -0.4835  0.7190 -0.0658
  799MOL0     O 5366   8.773   3.574   4.755 -0.4641  0.0556 -0.1502
  799MOL0     C 5367   8.635   3.587   4.749  0.2137 -0.0985 -0.5461
  799MOL0     C 5368   8.560   3.492   4.669 -0.0818 -0.1374 -0.1308
  799MOL0     C 5369   8.419   3.497   4.660 -0.0625  0.0187 -0.9527
  799MOL0     C 5370   8.353   3.604   4.723 -0.3287  0.8234  0.8665
  799MOL0     O 5371   8.219   3.606   4.718 -0.0023 -0.0561  0.1459
  799MOL0     C 5372   8.165   3.603   4.585 -0.2976  0.2318  0.7580
  799MOL0     C 5373   8.013   3.645   4.571 -0.3323  0.3622 -0.0864
  799MOL0     C 5374   7.916   3.535   4.631  0.2850 -0.2737  0.6952
  799MOL0     C 5375   7.779   3.525   4.557 -0.8695  0.3368 -0.9967
  799MOL0     C 5376   7.785   3.541   4.409  0.2613 -0.8699 -0.2785
  799MOL0     C 5377   7.674   3.461   4.352 -0.0473  0.5444  1.0829
  799MOL0     C 5378   7.664   3.485   4.196  0.7811  0.1727  0.1868
  799MOL0     C 5379   7.537   3.420   4.139 -0.2303  0.8723 -0.0431
  799MOL0    Cl 5380   7.501   3.264   4.198 -0.2463  0.2521 -0.3857
  799MOL0     C 5381   8.421   3.704   4.793 -0.2679 -0.2315 -0.3054
  799MOL0     C 5382   8.566   3.700   4.804  0.6405 -0.8516  0.1531
  799MOL0     O 5383   8.793   3.675   4.551  0.2585 -0.4953 -0.2343
  799MOL0     C 5384   9.048   3.560   4.754 -0.1368 -0.0350 -0.7907
  799MOL0     C 5385   9.188   3.558   4.772  0.7512  0.9769 -1.3441
  799MOL0     N 5386   9.850   3.490   4.412  0.4364 -0.0016 -0.4054
  799MOL0     N 5387   9.953   3.450   4.474 -0.4365 -0.1026 -0.1916
  799MOL0     C 5388  10.877   2.966   4.648  0.2946  0.1766  0.6408
  799MOL0     C 5389  11.017   2.975   4.621 -0.5189  0.3748  0.0953
  799MOL0     C 5390  11.354   3.141   4.405  0.2233  0.1247  0.2868
  799MOL0     C 5391  11.466   3.124   4.494 -0.4392 -0.5341 -0.2207
  799MOL0     C 5392  11.594   3.097   4.436  0.5070  0.4716 -0.5788
  799MOL0     C 5393  11.610   3.082   4.298 -0.6639 -1.5153 -0.4341
  799MOL0     O 5394  11.725   3.054   4.226  0.1761 -0.1902 -0.7007
  799MOL0     C 5395  11.849   3.051   4.303 -0.0760  0.5948  0.3261
  799MOL0     C 5396  11.972   3.086   4.211 -0.3215  0.1865  1.0388
  799MOL0     C 5397  12.097   3.118   4.286  0.1418 -0.4990 -0.6200
  799MOL0     C 5398  12.152   3.010   4.380 -0.5914 -0.4269  0.2901
  799MOL0     C 5399  12.070   2.966   4.495  0.6054 -0.8505  0.9933
  799MOL0     C 5400  12.015   2.921   4.595 -0.4518  0.4758 -0.3561
  799MOL0     C 5401  11.496   3.098   4.220 -0.5602  0.1733 -0.2284
  799MOL0     C 5402  11.376   3.131   4.268  0.4868 -0.1404 -0.1657
  799MOL0     H 5403  11.053   3.317   4.650 -1.3623  0.6697  1.3713
  799MOL0     H 5404  10.807   3.297   4.709 -0.3065 -0.4679  2.4457
  799MOL0     H 5405  10.645   2.994   4.876 -3.2968  0.2557  0.7016
  799MOL0     H 5406  10.636   2.885   4.746  0.2262 -1.4412  1.7735
  799MOL0     H 5407  10.442   3.104   4.815 -1.1173 -1.4362  2.5821
  799MOL0     H 5408  10.415   2.926   4.830 -1.4205  0.2201 -1.3031
  799MOL0     H 5409  10.417   2.916   4.562 -0.3566  0.5746 -1.7151
  799MOL0     H 5410  10.458   3.078   4.564  1.4989  0.0170  0.6494
  799MOL0     H 5411  10.235   3.048   4.517  0.1422  0.5374 -0.8150
  799MOL0     H 5412  10.198   2.968   4.672  2.2474 -3.1723 -0.9524
  799MOL0     H 5413  10.336   3.237   4.693 -0.5309  2.1101  3.1861
  799MOL0     H 5414  10.228   3.156   4.799  0.7883  1.9083 -0.1877
  799MOL0     H 5415  10.035   3.177   4.630 -1.6714  3.4647 -2.4569
  799MOL0     H 5416  10.146   3.286   4.546  0.8169 -1.5724 -0.7102
  799MOL0     H 5417   9.986   3.329   4.787 -1.1407 -0.8220 -2.6651
  799MOL0     H 5418  10.159   3.383   4.821 -4.0363  0.4363  3.3061
  799MOL0     H 5419  10.150   3.530   4.633 -0.7636 -0.5593 -1.5211
  799MOL0     H 5420  10.050   3.576   4.773 -0.0825  1.7498 -1.8627
  799MOL0     H 5421   9.842   3.669   4.684  1.5323  1.0876 -2.3756
  799MOL0     H 5422   9.669   3.704   4.373  0.1992  1.1880  0.1881
  799MOL0     H 5423   9.628   3.718   4.531 -1.9974 -0.1459 -1.2570
  799MOL0     H 5424   9.538   3.472   4.376 -1.8482  0.2951 -1.2715
  799MOL0     H 5425   9.451   3.607   4.444 -2.3292 -2.4825 -3.7842
  799MOL0     H 5426   9.406   3.411   4.561  0.7270 -2.7534 -0.5759
  799MOL0     H 5427   9.580   3.369   4.597 -1.5767 -0.4957  1.5005
  799MOL0     H 5428   9.568   3.567   4.765 -0.3598 -0.6516 -0.4299
  799MOL0     H 5429   9.430   3.456   4.774 -1.8254  0.6574 -0.8702
  799MOL0     H 5430   9.276   3.758   4.521  3.9584 -1.2046  2.8387
  799MOL0     H 5431   9.025   3.758   4.483  2.9807  1.9684 -1.9858
  799MOL0     H 5432   8.614   3.408   4.625  0.4986  0.6382 -0.9120
  799MOL0     H 5433   8.364   3.423   4.603 -0.8057  0.1717 -0.4460
  799MOL0     H 5434   8.171   3.500   4.551  2.3510  0.5537  0.0866
  799MOL0     H 5435   8.236   3.648   4.515  2.9197 -1.3204  2.8071
  799MOL0     H 5436   7.985   3.667   4.467  0.6386  1.5361 -0.1358
  799MOL0     H 5437   7.998   3.735   4.632  1.4431 -0.5414  1.8012
  799MOL0     H 5438   7.917   3.552   4.739  0.0653  1.8998  0.4161
  799MOL0     H 5439   7.967   3.439   4.627  0.7214 -0.0786 -3.4134
  799MOL0     H 5440   7.740   3.427   4.584  3.4402 -1.5090 -0.6901
  799MOL0     H 5441   7.707   3.598   4.595  0.5858  2.2838 -1.7813
  799MOL0     H 5442   7.878   3.499   4.370 -0.6810 -3.0329 -0.3585
  799MOL0     H 5443   7.772   3.647   4.388 -2.5303  0.0796  4.6042
  799MOL0     H 5444   7.573   3.492   4.380 -0.4528 -0.2284  0.5210
  799MOL0     H 5445   7.675   3.353   4.372 -3.6299  0.0511 -0.6511
  799MOL0     H 5446   7.650   3.593   4.185  2.2861  0.6956  2.5485
  799MOL0     H 5447   7.752   3.440   4.149  0.6854 -2.2591  2.1242
  799MOL0     H 5448   7.550   3.418   4.031 -0.7588 -1.1397 -0.0904
  799MOL0     H 5449   7.462   3.495   4.166 -0.4492  0.3494  0.8477
  799MOL0     H 5450   8.357   3.782   4.832  2.1375  0.7143  2.0651
  799MOL0     H 5451   8.627   3.767   4.865  0.9718 -0.4264 -0.6389
  799MOL0     H 5452   8.994   3.487   4.813 -0.0161 -0.8411 -1.6529
  799MOL0     H 5453   9.234   3.500   4.852 -2.0527  2.0635  1.2314
  799MOL0     H 5454  10.831   2.868   4.643  1.8970 -0.5447 -2.3581
  799MOL0     H 5455  11.077   2.885   4.613  1.0136  1.4105 -0.4590
  799MOL0     H 5456  11.463   3.129   4.603 -1.1306 -1.2589 -0.1995
  799MOL0     H 5457  11.673   3.086   4.510 -1.1276 -0.9822  1.0504
  799MOL0     H 5458  11.854   2.946   4.333 -0.7086 -0.9636 -4.1395
  799MOL0     H 5459  11.842   3.118   4.389  3.0913 -0.2832  1.3808
  799MOL0     H 5460  11.998   3.004   4.143  0.6165  0.2631  1.2888
  799MOL0     H 5461  11.952   3.181   4.161 -2.2612  0.5839  2.4453
  799MOL0     H 5462  12.078   3.209   4.344 -3.2050  1.3464 -4.1571
  799MOL0     H 5463  12.165   3.145   4.206 -3.4382  0.5985 -3.5727
  799MOL0     H 5464  12.170   2.924   4.314 -1.4109  0.2061 -0.7996
  799MOL0     H 5465  12.250   3.040   4.418 -0.7083  1.8127 -1.0266
  799MOL0     H 5466  11.974   2.888   4.688  0.6262  2.3460  0.8503
  799MOL0     H 5467  11.501   3.094   4.112  1.6574 -0.8544 -0.1371
  799MOL0     H 5468  11.302   3.142   4.189 -1.2196 -0.8937  1.2659
  800MOL0     O 5469  10.088  10.350   3.121 -0.5239  0.2876 -0.4821
  800MOL0     C 5470  10.144  10.358   3.010 -0.2845  0.3751 -0.3533
  800MOL0     O 5471  10.077  10.339   2.894 -0.2831 -0.5874  0.3509
  800MOL0     C 5472   9.953  10.275   2.892  0.3504  0.5171 -0.1903
  800MOL0     C 5473   9.917  10.172   2.978  0.3871  0.1519 -0.0790
  800MOL0     C 5474   9.796  10.107   2.970  0.5170 -0.3593  0.9778
  800MOL0     C 5475   9.696  10.147   2.876  0.0417  0.2843 -0.7013
  800MOL0     O 5476   9.575  10.081   2.881 -0.2988  0.0825  0.4309
  800MOL0     C 5477   9.457  10.137   2.809  1.1947 -0.0055  0.4099
  800MOL0     C 5478   9.436  10.080   2.675  0.5372  0.4307  0.2291
  800MOL0     C 5479   9.417   9.935   2.694 -0.4890  0.5205  0.4055
  800MOL0     C 5480   9.408   9.874   2.546 -0.6379 -0.2548  0.1352
  800MOL0     C 5481   9.521   9.785   2.522  0.3254 -0.0966 -0.3406
  800MOL0     C 5482   9.488   9.704   2.393 -0.6235 -0.3886 -0.7190
  800MOL0     C 5483   9.438   9.558   2.412 -0.0630 -0.2837  0.6072
  800MOL0     C 5484   9.535   9.478   2.505  0.1142 -0.0907 -0.6089
  800MOL0     N 5485   9.520   9.327   2.492 -0.5722 -0.5644 -1.0678
  800MOL0     C 5486   9.500   9.259   2.373 -0.2671  0.0713  0.3039
  800MOL0     C 5487   9.457   9.135   2.407  0.5521 -0.1086  0.1107
  800MOL0     C 5488   9.409   9.017   2.331  0.1992  0.7025  0.5075
  800MOL0     C 5489   9.445   8.893   2.408  0.1804  0.2169 -1.4054
  800MOL0     C 5490   9.337   8.829   2.496  0.8464  0.1779 -0.4686
  800MOL0     C 5491   9.398   8.718   2.580  0.7834  1.0505 -0.0468
  800MOL0     O 5492   9.488   8.636   2.502  0.5805 -0.0835  0.4619
  800MOL0     C 5493   9.432   8.513   2.469 -0.0003 -0.1047  0.2422
  800MOL0     C 5494   9.379   8.489   2.343  0.7884 -0.4177 -0.7730
  800MOL0     C 5495   9.317   8.369   2.306 -0.6065  0.6559  0.6470
  800MOL0     C 5496   9.326   8.250   2.388 -0.0512 -1.2019  0.3477
  800MOL0     C 5497   9.288   8.126   2.327  0.4981  0.6812 -0.2001
  800MOL0     O 5498   9.252   8.037   2.424  0.7477 -0.2504  0.1935
  800MOL0     C 5499   9.218   7.912   2.388  0.0770  0.6875 -1.1441
  800MOL0     C 5500   9.087   7.860   2.383 -0.3849  0.0731  0.9928
  800MOL0     C 5501   9.066   7.727   2.342 -0.1915 -0.6670 -0.2913
  800MOL0     C 5502   9.170   7.640   2.331  0.3934 -0.3223 -0.8534
  800MOL0     O 5503   9.133   7.514   2.291  0.4589  0.5795 -0.8003
  800MOL0     C 5504   9.223   7.441   2.199 -0.0632  0.7047 -0.3689
  800MOL0     C 5505   9.126   7.377   2.095  0.7870  0.0530  0.2532
  800MOL0     C 5506   9.052   7.248   2.157  0.0317  0.2260 -0.3747
  800MOL0     C 5507   8.971   7.184   2.045 -0.3428 -0.4941 -0.1905
  800MOL0     C 5508   8.897   7.052   2.088  0.2381  0.6254 -0.2557
  800MOL0     C 5509   8.807   7.002   1.968  0.3981  0.0742 -0.0732
  800MOL0     C 5510   8.736   6.872   2.005 -0.6342 -0.4150  1.0003
  800MOL0     C 5511   8.639   6.876   2.122  0.1278  1.0633 -0.5781
  800MOL0    Cl 5512   8.494   6.766   2.088  0.0772 -0.0825 -0.2754
  800MOL0     C 5513   9.301   7.694   2.348  1.0083 -0.1217  0.5906
  800MOL0     C 5514   9.321   7.822   2.375 -0.1515  0.4655 -0.1549
  800MOL0     O 5515   9.313   8.101   2.210 -0.1256  0.4448 -0.8395
  800MOL0     C 5516   9.376   8.270   2.518 -0.0997 -0.8263  0.0031
  800MOL0     C 5517   9.428   8.399   2.558  0.2811 -0.4055 -0.4923
  800MOL0     N 5518   9.437   9.132   2.542  0.1632 -0.1064 -0.4291
  800MOL0     N 5519   9.463   9.248   2.593  0.0550 -0.0533 -0.1303
  800MOL0     C 5520   9.734  10.252   2.791  0.2358  0.2491 -0.1911
  800MOL0     C 5521   9.856  10.313   2.802 -0.5487  0.0995  0.4183
  800MOL0     C 5522  10.282  10.385   3.003  0.6885  0.2437 -0.4926
  800MOL0     C 5523  10.363  10.406   3.113  0.0307  0.4898  0.0892
  800MOL0     C 5524  10.502  10.446   3.101  2.2618  0.2025 -0.8967
  800MOL0     C 5525  10.556  10.461   2.973  0.3041  0.6897  0.1525
  800MOL0     O 5526  10.688  10.483   2.966  0.3219  0.1022 -0.6006
  800MOL0     C 5527  10.757  10.562   2.867 -0.1123 -0.4961  0.4298
  800MOL0     C 5528  10.896  10.629   2.922 -0.4868 -0.6011  1.8817
  800MOL0     C 5529  10.866  10.707   3.049 -0.6587 -0.4067  0.1302
  800MOL0     C 5530  10.987  10.769   3.107  0.0863 -0.2670 -0.2879
  800MOL0     C 5531  11.036  10.692   3.226  0.4967 -0.1863  0.6192
  800MOL0     C 5532  11.083  10.632   3.323  1.4345  0.9057  0.1650
  800MOL0     C 5533  10.483  10.442   2.858  0.1066 -1.0013  0.2476
  800MOL0     C 5534  10.343  10.412   2.875 -0.1463  0.5830 -0.1464
  800MOL0     H 5535   9.976  10.142   3.063 -0.4630  1.5721  1.0581
  800MOL0     H 5536   9.776  10.030   3.044 -2.6249  0.9982  1.7144
  800MOL0     H 5537   9.466  10.246   2.812  2.1490 -0.0500  4.2260
  800MOL0     H 5538   9.368  10.131   2.871  0.0921  1.0517 -0.9836
  800MOL0     H 5539   9.522  10.103   2.612 -1.1126  2.2248 -1.5409
  800MOL0     H 5540   9.351  10.124   2.622  0.7952  1.1156  0.3747
  800MOL0     H 5541   9.328   9.902   2.750 -1.4872 -2.8275 -2.7468
  800MOL0     H 5542   9.493   9.884   2.753 -1.3344 -1.2916  0.0060
  800MOL0     H 5543   9.313   9.820   2.552 -0.6750 -0.1186  0.8769
  800MOL0     H 5544   9.425   9.951   2.471 -0.5694 -0.7189 -0.3283
  800MOL0     H 5545   9.539   9.710   2.599 -1.0208 -1.6028 -1.4494
  800MOL0     H 5546   9.607   9.847   2.495 -0.9846  1.3223 -1.4717
  800MOL0     H 5547   9.583   9.698   2.339  0.6705  1.2240  1.2072
  800MOL0     H 5548   9.446   9.771   2.318 -1.5016  0.4000  0.4444
  800MOL0     H 5549   9.333   9.562   2.442 -0.3171  0.7256 -0.3354
  800MOL0     H 5550   9.435   9.502   2.319  1.7069 -0.8932  0.8779
  800MOL0     H 5551   9.520   9.508   2.610  1.2088 -0.8616 -0.2185
  800MOL0     H 5552   9.636   9.503   2.472  0.4202 -0.7759 -0.2022
  800MOL0     H 5553   9.524   9.289   2.272  1.0859  0.2247  0.6578
  800MOL0     H 5554   9.454   9.034   2.232 -0.5010  3.0845  0.5613
  800MOL0     H 5555   9.300   9.024   2.328  0.1930  1.7078  2.1477
  800MOL0     H 5556   9.544   8.903   2.454  0.1242  1.2437 -1.4807
  800MOL0     H 5557   9.463   8.815   2.334  1.0802 -0.1949 -0.7777
  800MOL0     H 5558   9.301   8.899   2.571  1.6817 -0.4389  0.5366
  800MOL0     H 5559   9.257   8.804   2.425  0.7007  0.9003 -0.5714
  800MOL0     H 5560   9.320   8.660   2.629  0.1580  2.5735  0.8222
  800MOL0     H 5561   9.463   8.755   2.661 -0.0277 -2.3377  2.4012
  800MOL0     H 5562   9.383   8.575   2.276  0.6552 -0.9402 -1.4727
  800MOL0     H 5563   9.272   8.367   2.208 -1.8139  3.4238  1.0483
  800MOL0     H 5564   9.010   7.935   2.400  2.1060  2.7725  1.1363
  800MOL0     H 5565   8.966   7.695   2.315 -0.5228  0.1542 -0.0701
  800MOL0     H 5566   9.286   7.359   2.236 -0.6595 -0.2510 -1.4163
  800MOL0     H 5567   9.295   7.499   2.140  0.9602 -1.2319 -1.1100
  800MOL0     H 5568   9.185   7.353   2.006  1.1768  0.6401  0.3455
  800MOL0     H 5569   9.043   7.440   2.063  0.5678 -0.7660 -0.8650
  800MOL0     H 5570   9.000   7.269   2.251  0.3946 -2.7257  0.5822
  800MOL0     H 5571   9.123   7.176   2.198 -1.8345 -2.1753 -1.1082
  800MOL0     H 5572   8.900   7.261   2.013 -0.1435 -0.9614 -1.8617
  800MOL0     H 5573   9.045   7.156   1.969  2.0628 -0.3626  1.9729
  800MOL0     H 5574   8.822   7.077   2.164 -0.9802 -0.0191 -1.2006
  800MOL0     H 5575   8.956   6.975   2.138  0.5270  1.4064  0.6510
  800MOL0     H 5576   8.867   6.992   1.877 -0.1413  1.4054 -0.5961
  800MOL0     H 5577   8.732   7.072   1.931  2.0133 -0.0891 -4.1891
  800MOL0     H 5578   8.681   6.843   1.916  1.0558 -1.0755  0.1361
  800MOL0     H 5579   8.812   6.794   2.014 -2.2882 -2.6514 -2.5602
  800MOL0     H 5580   8.602   6.979   2.120  1.8992  1.7558 -2.5167
  800MOL0     H 5581   8.687   6.859   2.218  0.6372 -0.4665 -1.0779
  800MOL0     H 5582   9.383   7.622   2.348 -0.7016 -2.2161  2.2765
  800MOL0     H 5583   9.428   7.839   2.367 -0.3269  1.0270 -1.7288
  800MOL0     H 5584   9.373   8.181   2.579  1.2041  1.6314  4.0543
  800MOL0     H 5585   9.463   8.407   2.660 -3.7400 -0.7842  1.1140
  800MOL0     H 5586   9.679  10.288   2.705  1.8566  0.8983 -0.9919
  800MOL0     H 5587   9.881  10.391   2.731 -1.8257  0.6947  0.6067
  800MOL0     H 5588  10.323  10.401   3.214 -0.8840  0.8450 -0.2441
  800MOL0     H 5589  10.551  10.479   3.192 -0.0742 -0.3590  0.6503
  800MOL0     H 5590  10.698  10.652   2.847  1.0273  0.7055  2.2154
  800MOL0     H 5591  10.780  10.504   2.777  0.8855  0.5168  0.0093
  800MOL0     H 5592  10.970  10.550   2.936  0.2910 -0.0848  0.8105
  800MOL0     H 5593  10.919  10.699   2.841 -2.4982  1.4399  2.9616
  800MOL0     H 5594  10.822  10.641   3.124  1.7677 -0.8975  1.2447
  800MOL0     H 5595  10.792  10.783   3.023 -1.1440 -0.1839  1.9665
  800MOL0     H 5596  11.072  10.775   3.039  0.7821 -1.0197  0.4729
  800MOL0     H 5597  10.959  10.871   3.135 -4.7424 -1.9348  2.1435
  800MOL0     H 5598  11.119  10.583   3.411  4.9914  2.6141 -0.1655
  800MOL0     H 5599  10.525  10.443   2.758  2.8482 -0.6737  1.3074
  800MOL0     H 5600  10.289  10.422   2.782  1.1877  2.0094 -0.8206
  801MOL0     O 5601   4.725  10.668   8.580 -0.1987  0.4918 -0.0915
  801MOL0     C 5602   4.809  10.640   8.495  0.1271  0.2073 -0.0667
  801MOL0     O 5603   4.807  10.631   8.363 -0.0269  0.2502 -0.6940
  801MOL0     C 5604   4.694  10.662   8.287  0.7756 -0.2085  0.3243
  801MOL0     C 5605   4.567  10.614   8.321 -0.2642 -0.4349 -0.6995
  801MOL0     C 5606   4.459  10.644   8.242 -0.1918  0.5825  0.5742
  801MOL0     C 5607   4.479  10.699   8.122 -0.2363 -0.1582 -0.0047
  801MOL0     O 5608   4.381  10.708   8.017  0.1791 -0.2802  0.3570
  801MOL0     C 5609   4.261  10.631   8.045 -0.1440 -0.6802  0.4036
  801MOL0     C 5610   4.157  10.629   7.919 -0.5488 -0.5622 -0.8943
  801MOL0     C 5611   4.213  10.542   7.807  0.8836  0.7520  0.2538
  801MOL0     C 5612   4.103  10.472   7.730  0.1666  0.0251 -0.4823
  801MOL0     C 5613   4.136  10.458   7.578  0.5578 -0.4590 -0.2440
  801MOL0     C 5614   4.024  10.411   7.483 -0.0974  0.0087 -0.3100
  801MOL0     C 5615   3.961  10.279   7.518  0.3503  0.6884 -0.6063
  801MOL0     C 5616   3.848  10.236   7.438  1.3317  0.5009  0.2672
  801MOL0     N 5617   3.723  10.295   7.491 -0.4697 -0.4719 -0.6362
  801MOL0     C 5618   3.641  10.391   7.435  0.0001  0.1139 -0.3976
  801MOL0     C 5619   3.532  10.389   7.515  0.6448 -0.3285  0.1607
  801MOL0     C 5620   3.421  10.484   7.498 -0.1168  0.9518  0.1682
  801MOL0     C 5621   3.290  10.416   7.459 -0.4112  1.3231 -0.5236
  801MOL0     C 5622   3.180  10.521   7.462  1.0485 -0.2401  0.6957
  801MOL0     C 5623   3.037  10.466   7.438  1.2914 -0.0021  0.7693
  801MOL0     O 5624   2.998  10.499   7.301 -0.6144 -0.5889  0.5920
  801MOL0     C 5625   2.861  10.531   7.273 -0.2223  0.0312  0.0595
  801MOL0     C 5626   2.756  10.467   7.336  0.2229  0.2442 -0.3692
  801MOL0     C 5627   2.626  10.493   7.287  0.1635  0.8526  0.2532
  801MOL0     C 5628   2.596  10.570   7.178 -0.1799 -0.5342  0.3712
  801MOL0     C 5629   2.462  10.600   7.140 -0.2335 -0.3009  0.2246
  801MOL0     O 5630   2.359  10.556   7.213 -0.3695  0.1583 -0.3038
  801MOL0     C 5631   2.224  10.564   7.183 -0.7298 -0.1630  0.6937
  801MOL0     C 5632   2.130  10.501   7.273 -0.0852 -0.9218 -0.9499
  801MOL0     C 5633   1.994  10.503   7.257 -0.8897  0.2969 -1.0664
  801MOL0     C 5634   1.942  10.562   7.144 -0.6318 -0.0091  0.2031
  801MOL0     O 5635   1.804  10.575   7.118  0.5459 -0.2691 -0.0432
  801MOL0     C 5636   1.744  10.439   7.125 -0.5092 -0.2978  0.5458
  801MOL0     C 5637   1.635  10.419   7.020  0.0106 -0.0295  0.1111
  801MOL0     C 5638   1.682  10.442   6.877  0.3741  0.5756  0.2985
  801MOL0     C 5639   1.566  10.430   6.782  0.2179 -0.0093  0.7024
  801MOL0     C 5640   1.505  10.284   6.762 -0.2749 -0.9303 -1.2953
  801MOL0     C 5641   1.383  10.279   6.661  0.1540  0.1146  0.7953
  801MOL0     C 5642   1.259  10.356   6.718 -0.8854 -0.0385  0.5573
  801MOL0     C 5643   1.175  10.406   6.603  1.4884 -0.1671 -0.2214
  801MOL0    Cl 5644   1.067  10.276   6.540 -0.2933  0.1713  0.1587
  801MOL0     C 5645   2.030  10.610   7.047  0.8850  0.3123 -0.5254
  801MOL0     C 5646   2.167  10.625   7.068  0.2121 -1.0252 -0.6566
  801MOL0     O 5647   2.452  10.683   7.047 -0.4366  0.3971 -0.1248
  801MOL0     C 5648   2.701  10.608   7.100  0.2226  0.2736  0.3737
  801MOL0     C 5649   2.830  10.595   7.155  0.5853  0.3165 -0.7788
  801MOL0     N 5650   3.550  10.313   7.631  0.2603  0.2549  0.3583
  801MOL0     N 5651   3.665  10.251   7.610  0.0798 -0.8500  0.3517
  801MOL0     C 5652   4.609  10.730   8.075  2.0062  0.3026 -1.1684
  801MOL0     C 5653   4.718  10.717   8.161 -0.0928 -0.0130  0.8421
  801MOL0     C 5654   4.935  10.599   8.556  0.7399  0.8094 -0.8415
  801MOL0     C 5655   4.938  10.525   8.676 -0.1479 -0.1476 -0.4036
  801MOL0     C 5656   5.062  10.469   8.729  1.0877 -0.7207 -0.4966
  801MOL0     C 5657   5.174  10.495   8.658  0.1931  0.4503 -1.3306
  801MOL0     O 5658   5.290  10.434   8.708  0.8292  0.1925  0.1498
  801MOL0     C 5659   5.351  10.336   8.625 -0.4864  0.3706  0.8688
  801MOL0     C 5660   5.271  10.202   8.657  0.5126 -0.0000 -0.1976
  801MOL0     C 5661   5.222  10.136   8.522 -0.6605 -0.5303  1.0633
  801MOL0     C 5662   5.117  10.210   8.441  0.5870 -0.2833 -0.5931
  801MOL0     C 5663   5.080  10.124   8.325 -0.6262  0.3507 -0.5771
  801MOL0     C 5664   5.078  10.058   8.230 -1.1462  0.4657  0.1447
  801MOL0     C 5665   5.171  10.577   8.550  1.0745  0.3517 -0.7776
  801MOL0     C 5666   5.058  10.628   8.493  0.6550  0.1814  0.1111
  801MOL0     H 5667   4.544  10.564   8.415 -0.5185 -3.5644 -2.2688
  801MOL0     H 5668   4.366  10.600   8.276  0.1365 -1.7213 -1.2454
  801MOL0     H 5669   4.210  10.697   8.116  2.0195 -0.0689  1.4630
  801MOL0     H 5670   4.286  10.533   8.085  0.6448 -0.5376  0.2687
  801MOL0     H 5671   4.142  10.731   7.883  0.7753 -1.0160 -2.8843
  801MOL0     H 5672   4.062  10.604   7.968 -0.4318  2.6156  1.2374
  801MOL0     H 5673   4.289  10.468   7.835  1.1803  0.3392 -1.5022
  801MOL0     H 5674   4.265  10.611   7.740 -1.0147 -0.2211 -2.3629
  801MOL0     H 5675   4.064  10.381   7.777  1.2623  0.9216  2.4114
  801MOL0     H 5676   4.019  10.541   7.737  0.2921  0.3344 -1.9059
  801MOL0     H 5677   4.227  10.398   7.560  2.0801  2.1041 -1.6538
  801MOL0     H 5678   4.165  10.557   7.543  1.1029 -0.8729 -1.0166
  801MOL0     H 5679   4.070  10.417   7.384  2.2520 -2.1242  0.5490
  801MOL0     H 5680   3.946  10.488   7.480  1.4476  1.6794 -3.0290
  801MOL0     H 5681   4.034  10.199   7.531 -1.7427 -0.8459  3.6582
  801MOL0     H 5682   3.931  10.282   7.623  0.8621 -3.3383 -0.1944
  801MOL0     H 5683   3.838  10.127   7.443 -1.9866  0.6100 -1.4749
  801MOL0     H 5684   3.864  10.266   7.334  1.0935  1.9780  0.6268
  801MOL0     H 5685   3.658  10.450   7.346  0.4831 -0.5280 -0.7315
  801MOL0     H 5686   3.445  10.553   7.417 -2.6235 -0.5614 -2.0400
  801MOL0     H 5687   3.419  10.540   7.592 -2.4512  0.2023  0.6317
  801MOL0     H 5688   3.253  10.340   7.528  1.5974 -0.6407 -1.4971
  801MOL0     H 5689   3.309  10.361   7.366 -2.2142  1.3277 -0.9353
  801MOL0     H 5690   3.181  10.571   7.559 -0.7705 -0.8775  1.0856
  801MOL0     H 5691   3.206  10.597   7.387  1.9727  0.1449  1.3826
  801MOL0     H 5692   2.970  10.503   7.516 -2.0582 -0.0042 -1.9099
  801MOL0     H 5693   3.019  10.359   7.447 -2.6130  0.4131 -0.3243
  801MOL0     H 5694   2.772  10.405   7.424  0.4683  2.1358  0.9860
  801MOL0     H 5695   2.545  10.452   7.346  0.3430  1.2236  0.7638
  801MOL0     H 5696   2.183  10.458   7.357 -1.2390  2.4406  1.7420
  801MOL0     H 5697   1.931  10.456   7.332 -1.0030  0.3255 -1.1442
  801MOL0     H 5698   1.699  10.419   7.223  3.9393  0.6409  3.0624
  801MOL0     H 5699   1.827  10.369   7.107  1.6793  2.0932  0.8333
  801MOL0     H 5700   1.541  10.474   7.034  0.8430  1.1159  1.4549
  801MOL0     H 5701   1.606  10.314   7.035 -0.5660  0.0763 -0.2149
  801MOL0     H 5702   1.768  10.377   6.858  0.2073  1.2682 -3.9362
  801MOL0     H 5703   1.724  10.543   6.866  1.8562  0.4343  3.5035
  801MOL0     H 5704   1.491  10.505   6.809 -0.5188  0.0618 -1.2913
  801MOL0     H 5705   1.595  10.450   6.678  0.4090  0.1645  0.7891
  801MOL0     H 5706   1.472  10.248   6.860  1.5871 -0.6131 -0.5082
  801MOL0     H 5707   1.579  10.210   6.733 -1.6585 -1.9972 -2.2234
  801MOL0     H 5708   1.365  10.173   6.640  0.2632  0.2686 -0.1559
  801MOL0     H 5709   1.419  10.324   6.568  0.7105 -0.6015  0.6487
  801MOL0     H 5710   1.200  10.287   6.779 -4.4028  1.6190 -0.6492
  801MOL0     H 5711   1.292  10.439   6.781  0.6080 -1.3225  1.5210
  801MOL0     H 5712   1.241  10.436   6.522  1.3230 -2.1033 -1.1327
  801MOL0     H 5713   1.125  10.496   6.640  1.4592 -0.1898 -0.2067
  801MOL0     H 5714   2.000  10.651   6.952 -0.4967  0.1898 -0.1553
  801MOL0     H 5715   2.221  10.656   6.979  0.3048  1.8261  0.2869
  801MOL0     H 5716   2.685  10.660   7.006  0.9705 -1.1445 -0.5713
  801MOL0     H 5717   2.913  10.627   7.092  1.7296 -0.9439  0.0323
  801MOL0     H 5718   4.607  10.780   7.979 -3.1615  1.5442 -0.7571
  801MOL0     H 5719   4.815  10.736   8.118 -1.7313  2.9623 -1.9665
  801MOL0     H 5720   4.846  10.510   8.732 -0.4008 -0.4515 -0.8931
  801MOL0     H 5721   5.062  10.407   8.818 -3.2055  0.5420  0.6227
  801MOL0     H 5722   5.456  10.316   8.647 -0.9619 -2.0511  1.2379
  801MOL0     H 5723   5.354  10.368   8.520 -1.7624  2.4640  1.4132
  801MOL0     H 5724   5.334  10.133   8.714 -1.9130 -2.0909  0.1524
  801MOL0     H 5725   5.187  10.211   8.727  1.2820 -2.2632  1.1161
  801MOL0     H 5726   5.189  10.032   8.528  0.5979 -1.1371 -1.1239
  801MOL0     H 5727   5.302  10.131   8.447 -0.3301  0.0901  1.3611
  801MOL0     H 5728   5.031  10.226   8.507  1.1272  0.8747 -0.1348
  801MOL0     H 5729   5.142  10.311   8.408  2.6550 -0.4156  0.4178
  801MOL0     H 5730   5.069  10.014   8.132  0.6475 -0.4914  0.3576
  801MOL0     H 5731   5.270  10.597   8.510  1.9600  2.0094  2.0094
  801MOL0     H 5732   5.080  10.693   8.409  0.5888  2.3029  1.6489
  802MOL0     O 5733   5.685   5.108   1.363  0.3842 -0.2478 -0.0705
  802MOL0     C 5734   5.730   5.157   1.263 -0.4825  0.5810 -0.5790
  802MOL0     O 5735   5.663   5.246   1.192 -0.2070 -0.3893 -0.0505
  802MOL0     C 5736   5.533   5.296   1.230 -0.1719  0.5363  0.2011
  802MOL0     C 5737   5.423   5.251   1.165  0.2801 -0.3713  0.3752
  802MOL0     C 5738   5.299   5.302   1.193  0.4426  0.6774 -0.5628
  802MOL0     C 5739   5.281   5.388   1.303  0.2881  0.5722 -0.2132
  802MOL0     O 5740   5.161   5.413   1.363 -0.3488 -0.4588 -0.5689
  802MOL0     C 5741   5.048   5.375   1.292  0.7665  0.4083  0.1835
  802MOL0     C 5742   4.923   5.410   1.377  0.2825 -0.2827  0.6305
  802MOL0     C 5743   4.813   5.416   1.276  0.7140  0.3461  0.6281
  802MOL0     C 5744   4.690   5.492   1.329  0.3753  0.6230 -0.5196
  802MOL0     C 5745   4.565   5.474   1.249  0.0953 -0.3541 -1.1971
  802MOL0     C 5746   4.452   5.548   1.303 -0.1014  0.7309 -0.1180
  802MOL0     C 5747   4.327   5.541   1.216  0.5115 -0.1718 -0.2624
  802MOL0     C 5748   4.217   5.630   1.267  0.2754 -0.3178 -0.2165
  802MOL0     N 5749   4.080   5.601   1.217 -0.3402  0.2806  0.1870
  802MOL0     C 5750   4.021   5.662   1.113 -0.5486 -1.0562  0.6571
  802MOL0     C 5751   3.908   5.598   1.091 -0.3973  1.1745 -0.8393
  802MOL0     C 5752   3.803   5.616   0.981 -0.9272 -0.0251  0.4511
  802MOL0     C 5753   3.797   5.753   0.897  0.5509 -0.4481 -0.5566
  802MOL0     C 5754   3.755   5.869   0.993  0.3923 -0.1751  0.0284
  802MOL0     C 5755   3.618   5.934   0.953  0.1004 -0.2551  0.4881
  802MOL0     O 5756   3.511   5.860   1.005  0.4160  0.1064 -0.6137
  802MOL0     C 5757   3.389   5.915   1.027  0.3596  0.2166 -0.2810
  802MOL0     C 5758   3.348   6.037   0.972  0.1864 -0.6893  0.2300
  802MOL0     C 5759   3.218   6.084   1.002 -0.0650 -0.6320 -0.4734
  802MOL0     C 5760   3.128   6.007   1.076 -0.6148  0.3417 -0.1087
  802MOL0     C 5761   2.999   6.065   1.111  0.9336 -0.5013  0.3454
  802MOL0     O 5762   2.938   6.153   1.020  0.0357 -0.5739  0.5615
  802MOL0     C 5763   2.816   6.203   1.037 -0.1597  0.2453 -0.3854
  802MOL0     C 5764   2.746   6.209   0.914 -0.9437  0.5938  0.0633
  802MOL0     C 5765   2.630   6.272   0.898 -0.0805  0.3943 -0.8287
  802MOL0     C 5766   2.572   6.341   1.006 -0.1715 -0.0173  0.0398
  802MOL0     O 5767   2.457   6.418   1.012 -0.7597 -0.3379  1.0307
  802MOL0     C 5768   2.386   6.438   0.892 -0.1637 -0.3921 -0.4490
  802MOL0     C 5769   2.290   6.325   0.855  0.0005 -0.0192  0.1298
  802MOL0     C 5770   2.213   6.367   0.727 -0.4133  0.2782  0.2164
  802MOL0     C 5771   2.124   6.256   0.678  0.5044  0.9518  0.3549
  802MOL0     C 5772   1.980   6.224   0.741 -0.6065  0.2606 -0.5053
  802MOL0     C 5773   1.978   6.177   0.884  0.0944  0.1567  0.1007
  802MOL0     C 5774   1.843   6.107   0.929 -0.0584 -0.2342  0.2531
  802MOL0     C 5775   1.839   6.057   1.082 -0.3044  0.1708 -0.2247
  802MOL0    Cl 5776   1.772   5.895   1.119  0.3614  0.1762 -0.3821
  802MOL0     C 5777   2.633   6.325   1.135 -0.9061  0.5265  0.7187
  802MOL0     C 5778   2.753   6.257   1.146  0.7847 -0.3102 -0.3198
  802MOL0     O 5779   2.948   6.024   1.209 -0.0272 -0.2460  1.2560
  802MOL0     C 5780   3.164   5.883   1.117  0.4900  0.0347  0.7541
  802MOL0     C 5781   3.294   5.838   1.084 -0.0144  0.3966 -0.2959
  802MOL0     N 5782   3.903   5.493   1.188 -1.0988 -0.2077 -0.1363
  802MOL0     N 5783   4.007   5.500   1.264 -0.2688  0.4174 -0.3641
  802MOL0     C 5784   5.396   5.428   1.382  0.0688  0.5988  0.0203
  802MOL0     C 5785   5.523   5.379   1.338 -0.1964  0.0119 -0.0223
  802MOL0     C 5786   5.866   5.127   1.208  0.2169 -0.4347 -0.6561
  802MOL0     C 5787   5.965   5.072   1.297 -0.5258  0.8315  0.3768
  802MOL0     C 5788   6.100   5.067   1.258  0.9754 -0.1180 -0.3365
  802MOL0     C 5789   6.135   5.095   1.122 -0.1103  0.4990 -0.0838
  802MOL0     O 5790   6.262   5.077   1.079 -0.5353 -0.6521  0.6897
  802MOL0     C 5791   6.365   5.036   1.179  0.1416 -0.1882 -0.7277
  802MOL0     C 5792   6.507   5.033   1.125  0.1333 -0.5783  0.2060
  802MOL0     C 5793   6.554   5.175   1.078 -0.9676  0.3144  0.9014
  802MOL0     C 5794   6.470   5.296   1.126 -0.3701 -0.2325  0.5692
  802MOL0     C 5795   6.552   5.420   1.093  0.4888  0.4498  0.7920
  802MOL0     C 5796   6.608   5.523   1.067 -0.4922 -1.4289 -0.3748
  802MOL0     C 5797   6.042   5.158   1.038 -0.2081  0.4416 -0.2403
  802MOL0     C 5798   5.911   5.172   1.083  0.9489  0.0129 -1.3345
  802MOL0     H 5799   5.428   5.169   1.095  3.8791  0.4159 -0.5355
  802MOL0     H 5800   5.210   5.270   1.140  1.2702  1.1615 -2.3255
  802MOL0     H 5801   5.048   5.266   1.291 -1.1477  0.3701  0.8819
  802MOL0     H 5802   5.049   5.429   1.196  1.3881  0.2085  0.0760
  802MOL0     H 5803   4.927   5.511   1.419  2.4991  0.0110 -0.1817
  802MOL0     H 5804   4.898   5.327   1.444  1.4299 -1.6889 -0.6107
  802MOL0     H 5805   4.788   5.311   1.258 -0.8134  0.8102 -0.1506
  802MOL0     H 5806   4.846   5.460   1.182 -1.5887 -0.9773 -0.9071
  802MOL0     H 5807   4.667   5.459   1.431  1.0944  1.9710  0.1157
  802MOL0     H 5808   4.713   5.599   1.335  0.6408  0.5751 -0.6861
  802MOL0     H 5809   4.539   5.368   1.252  0.8579 -0.5339  0.4140
  802MOL0     H 5810   4.589   5.504   1.147  1.0185  1.3682 -0.5127
  802MOL0     H 5811   4.479   5.654   1.297  3.5266 -0.0741 -0.1895
  802MOL0     H 5812   4.434   5.527   1.409 -2.1466  0.8357 -0.3868
  802MOL0     H 5813   4.354   5.571   1.114  0.6931 -0.0360 -0.1743
  802MOL0     H 5814   4.301   5.434   1.219 -0.5830  0.1108  2.0569
  802MOL0     H 5815   4.245   5.734   1.252  1.1385 -0.8314 -2.4924
  802MOL0     H 5816   4.205   5.616   1.375 -0.0759 -1.9382 -0.4439
  802MOL0     H 5817   4.047   5.752   1.058 -1.4017  0.4109  2.5354
  802MOL0     H 5818   3.709   5.594   1.032 -1.3983  0.8388 -0.0302
  802MOL0     H 5819   3.823   5.532   0.914 -0.9127 -1.6486  2.4043
  802MOL0     H 5820   3.721   5.744   0.819  0.0546  3.1932 -0.6729
  802MOL0     H 5821   3.898   5.771   0.861  1.0094  0.7442  1.1916
  802MOL0     H 5822   3.748   5.831   1.096  1.7980 -1.6867 -0.3768
  802MOL0     H 5823   3.831   5.947   0.988  1.4704 -1.2897 -1.9818
  802MOL0     H 5824   3.602   5.939   0.845 -2.4158  0.8755  0.8478
  802MOL0     H 5825   3.620   6.040   0.983 -0.3025  0.1471 -0.8536
  802MOL0     H 5826   3.414   6.090   0.904 -0.9849 -1.6697 -1.7462
  802MOL0     H 5827   3.200   6.174   0.943 -0.3629 -0.3604  0.0308
  802MOL0     H 5828   2.801   6.159   0.835  3.5207  1.3542  2.3554
  802MOL0     H 5829   2.595   6.272   0.796  1.3598 -1.1722 -1.3646
  802MOL0     H 5830   2.456   6.455   0.810  2.3821 -0.5805  1.5626
  802MOL0     H 5831   2.318   6.523   0.907 -1.2436 -1.5448  1.7104
  802MOL0     H 5832   2.228   6.296   0.940  0.4665  0.7826  0.7508
  802MOL0     H 5833   2.351   6.236   0.837 -1.8608 -1.1284 -1.0317
  802MOL0     H 5834   2.285   6.380   0.646  0.8618 -1.0819  1.0644
  802MOL0     H 5835   2.148   6.453   0.742 -1.6420 -0.0795 -2.4669
  802MOL0     H 5836   2.097   6.276   0.573  0.2957  0.1496  0.2523
  802MOL0     H 5837   2.177   6.161   0.682 -4.1247 -2.0301 -1.4461
  802MOL0     H 5838   1.945   6.136   0.687  0.2801  0.0412 -0.7300
  802MOL0     H 5839   1.912   6.310   0.736  0.0430  0.8035 -0.2140
  802MOL0     H 5840   2.000   6.262   0.949  0.8732 -0.9366  1.3340
  802MOL0     H 5841   2.064   6.111   0.898  1.4610  1.7511 -0.4134
  802MOL0     H 5842   1.758   6.174   0.916 -0.9526 -1.8780 -3.7165
  802MOL0     H 5843   1.840   6.017   0.867  2.2499 -0.4115  0.2829
  802MOL0     H 5844   1.790   6.132   1.144  2.1991  2.6345 -1.0114
  802MOL0     H 5845   1.945   6.062   1.108  0.3213  2.0853 -2.7935
  802MOL0     H 5846   2.596   6.372   1.226 -0.2074  0.3515  1.0948
  802MOL0     H 5847   2.810   6.236   1.236  2.4435 -1.1912 -1.5180
  802MOL0     H 5848   3.089   5.813   1.153 -0.9168 -1.0417 -3.5983
  802MOL0     H 5849   3.320   5.736   1.110 -0.6284 -0.4553 -2.7703
  802MOL0     H 5850   5.385   5.478   1.478  2.5708 -0.5635  1.0142
  802MOL0     H 5851   5.609   5.400   1.401 -1.5998  1.5053  1.4959
  802MOL0     H 5852   5.938   5.046   1.399  0.5420 -0.4321  0.3617
  802MOL0     H 5853   6.166   5.025   1.333  2.1232  1.4947 -0.3867
  802MOL0     H 5854   6.339   4.933   1.202 -2.6064  0.1760 -1.7467
  802MOL0     H 5855   6.358   5.104   1.264 -0.0487  0.9426 -1.6051
  802MOL0     H 5856   6.566   4.997   1.210  1.5846 -1.3764 -1.0948
  802MOL0     H 5857   6.514   4.972   1.034  1.1649  1.0768 -0.8907
  802MOL0     H 5858   6.559   5.176   0.968  4.6948  1.4486  0.8756
  802MOL0     H 5859   6.662   5.184   1.089 -0.6701 -0.9891 -0.5332
  802MOL0     H 5860   6.369   5.320   1.092 -0.2779 -0.0326  0.4422
  802MOL0     H 5861   6.460   5.297   1.235 -0.8165  3.8267  0.6318
  802MOL0     H 5862   6.655   5.619   1.055  0.6618 -1.9920 -0.5203
  802MOL0     H 5863   6.078   5.185   0.940 -0.2227 -2.1330 -1.0270
  802MOL0     H 5864   5.838   5.206   1.011  2.0262  2.7327 -1.2299
  803MOL0     O 5865   3.917   1.438   0.430  0.0752 -0.7885 -0.4710
  803MOL0     C 5866   3.913   1.318   0.449  0.7813  0.4737 -0.2271
  803MOL0     O 5867   3.854   1.228   0.367 -0.0933  0.7653 -0.1095
  803MOL0     C 5868   3.788   1.270   0.254 -0.2293 -0.1382 -0.5388
  803MOL0     C 5869   3.671   1.335   0.268  0.1178  0.2389  0.4009
  803MOL0     C 5870   3.591   1.357   0.151 -0.6267 -0.8093 -0.9537
  803MOL0     C 5871   3.639   1.319   0.027 -0.4483 -0.2411  0.0962
  803MOL0     O 5872   3.575   1.344  -0.088 -0.1914  0.7199 -0.6411
  803MOL0     C 5873   3.510   1.473  -0.094  0.1438 -0.5515 -0.3441
  803MOL0     C 5874   3.474   1.509  -0.238  0.3381  0.3174  0.1891
  803MOL0     C 5875   3.365   1.619  -0.239 -0.5277  0.2412 -1.0909
  803MOL0     C 5876   3.379   1.712  -0.362 -0.3573  1.1073 -0.1237
  803MOL0     C 5877   3.294   1.834  -0.333 -0.1578  0.5150 -0.1795
  803MOL0     C 5878   3.314   1.947  -0.433  0.2149 -0.1258  0.4298
  803MOL0     C 5879   3.238   2.086  -0.410  0.2881 -0.4244 -0.0691
  803MOL0     C 5880   3.087   2.060  -0.361 -0.5357  0.6196  0.4569
  803MOL0     N 5881   3.014   1.980  -0.463  0.0625  0.1129 -0.2931
  803MOL0     C 5882   2.964   2.040  -0.573  0.0734 -0.1809 -0.8160
  803MOL0     C 5883   2.879   1.948  -0.624 -0.1583 -0.2067  0.5805
  803MOL0     C 5884   2.816   1.948  -0.761 -0.0553 -0.2426  0.2455
  803MOL0     C 5885   2.740   2.072  -0.801  0.4694  0.0646  0.2723
  803MOL0     C 5886   2.626   2.046  -0.894  0.6773  0.2044 -0.7521
  803MOL0     C 5887   2.671   2.010  -1.036 -0.5280  0.6090 -0.0532
  803MOL0     O 5888   2.686   2.131  -1.125  0.2790 -0.5667 -0.1863
  803MOL0     C 5889   2.770   2.229  -1.081  0.2208 -0.6857  0.2809
  803MOL0     C 5890   2.720   2.349  -1.035  0.0638 -1.0789 -0.1137
  803MOL0     C 5891   2.803   2.465  -1.017  0.5082  0.0461 -0.8237
  803MOL0     C 5892   2.948   2.444  -1.025  0.1099 -1.2695  0.5696
  803MOL0     C 5893   3.053   2.551  -1.003  0.2094  0.5646 -0.1123
  803MOL0     O 5894   3.006   2.677  -0.977  0.6063  1.0829 -0.2249
  803MOL0     C 5895   3.103   2.764  -0.942  0.3106  0.7551 -0.8248
  803MOL0     C 5896   3.180   2.743  -0.832  0.1052 -0.4861 -0.5026
  803MOL0     C 5897   3.272   2.844  -0.791 -0.5203  0.2885  0.7570
  803MOL0     C 5898   3.290   2.962  -0.865  0.4206 -1.1468  0.3043
  803MOL0     O 5899   3.393   3.047  -0.836  0.5283 -0.4484  0.5242
  803MOL0     C 5900   3.359   3.186  -0.817  0.0205  0.2968 -0.1830
  803MOL0     C 5901   3.446   3.270  -0.917  0.1681  0.2223 -0.9472
  803MOL0     C 5902   3.597   3.236  -0.894  0.2122 -0.2608 -0.5266
  803MOL0     C 5903   3.676   3.326  -0.995 -0.1700 -0.1900  0.5736
  803MOL0     C 5904   3.821   3.344  -0.962  0.3478  0.0027 -0.7159
  803MOL0     C 5905   3.908   3.343  -1.084  0.4625  0.1206 -0.2450
  803MOL0     C 5906   4.052   3.293  -1.056  0.1915 -0.0787  0.0911
  803MOL0     C 5907   4.122   3.308  -1.188 -0.2022 -0.7453  0.6218
  803MOL0    Cl 5908   4.300   3.337  -1.142  0.2923  0.3909 -0.1095
  803MOL0     C 5909   3.206   2.980  -0.975 -0.1803 -0.6625 -0.2857
  803MOL0     C 5910   3.118   2.883  -1.014 -0.3557  0.1150 -0.1842
  803MOL0     O 5911   3.170   2.519  -1.008 -0.5324 -0.3853 -0.6070
  803MOL0     C 5912   2.995   2.321  -1.068 -0.1957  0.1899  0.8687
  803MOL0     C 5913   2.912   2.214  -1.087  0.0966 -0.4766  0.7428
  803MOL0     N 5914   2.890   1.836  -0.553  0.2073 -0.0185  0.0436
  803MOL0     N 5915   2.960   1.855  -0.443  0.3082  0.3583  0.4811
  803MOL0     C 5916   3.756   1.243   0.016 -1.1712 -0.0124  0.2557
  803MOL0     C 5917   3.828   1.219   0.133  0.3152 -0.3095  0.5059
  803MOL0     C 5918   3.969   1.267   0.574 -0.4110  0.3541 -0.6081
  803MOL0     C 5919   3.960   1.129   0.596  0.1639  0.6774 -0.2683
  803MOL0     C 5920   4.020   1.055   0.699  0.9788 -0.5198 -0.6748
  803MOL0     C 5921   4.088   1.126   0.802  0.2403 -0.2229  0.1669
  803MOL0     O 5922   4.145   1.070   0.913 -0.1284  0.2613 -0.0078
  803MOL0     C 5923   4.126   0.925   0.939  0.4350  0.9768  0.3429
  803MOL0     C 5924   4.218   0.878   1.050 -0.3945  0.2968 -0.0600
  803MOL0     C 5925   4.179   0.933   1.193  1.1260 -0.2139 -0.1471
  803MOL0     C 5926   4.280   0.902   1.300  0.1045 -0.1246  0.2315
  803MOL0     C 5927   4.399   0.990   1.306  0.1543 -0.3950  0.3240
  803MOL0     C 5928   4.499   1.065   1.318  0.7745  0.0312 -0.5306
  803MOL0     C 5929   4.093   1.268   0.799 -0.5625  0.3166 -0.0391
  803MOL0     C 5930   4.039   1.336   0.680 -0.0358 -0.4287 -0.2177
  803MOL0     H 5931   3.650   1.371   0.368  4.8173 -0.4445  1.9209
  803MOL0     H 5932   3.511   1.427   0.175 -1.4077 -2.2071  0.7953
  803MOL0     H 5933   3.568   1.553  -0.048 -1.8132  0.9527 -0.3307
  803MOL0     H 5934   3.421   1.451  -0.033  1.2455 -1.7802  0.9121
  803MOL0     H 5935   3.429   1.426  -0.293  0.5515 -0.4023  1.0795
  803MOL0     H 5936   3.564   1.541  -0.291  2.0110  2.2982  3.8594
  803MOL0     H 5937   3.373   1.682  -0.149 -1.6636 -1.6912  0.4397
  803MOL0     H 5938   3.272   1.562  -0.234 -0.2983 -0.1295  2.9212
  803MOL0     H 5939   3.481   1.750  -0.366 -0.7421  2.6843  2.4836
  803MOL0     H 5940   3.356   1.667  -0.459 -0.1819  1.0715 -0.1489
  803MOL0     H 5941   3.328   1.875  -0.237 -1.6620  0.3016  0.4772
  803MOL0     H 5942   3.186   1.818  -0.325 -0.9695  4.2377 -1.6087
  803MOL0     H 5943   3.291   1.900  -0.530  0.0748  1.4020 -0.3036
  803MOL0     H 5944   3.419   1.976  -0.435  0.1720  0.4848  3.3460
  803MOL0     H 5945   3.294   2.152  -0.342 -0.2966 -0.1287  0.1337
  803MOL0     H 5946   3.235   2.158  -0.492  2.7035 -2.1366 -1.7938
  803MOL0     H 5947   3.023   2.149  -0.357  0.0088  1.0115  0.3993
  803MOL0     H 5948   3.088   1.999  -0.271  0.4723 -3.4788 -2.0637
  803MOL0     H 5949   3.015   2.123  -0.623  2.9455 -1.9502 -1.0590
  803MOL0     H 5950   2.749   1.862  -0.774 -0.9606  0.6827 -1.8034
  803MOL0     H 5951   2.893   1.935  -0.837  3.0371  2.6345  2.6090
  803MOL0     H 5952   2.803   2.148  -0.847 -1.6758 -0.0558 -3.2272
  803MOL0     H 5953   2.706   2.116  -0.707  0.4443 -1.0293  0.7971
  803MOL0     H 5954   2.555   1.974  -0.851  2.0143  0.5777  2.3832
  803MOL0     H 5955   2.561   2.134  -0.898 -1.4930 -1.3090 -0.7447
  803MOL0     H 5956   2.591   1.950  -1.081 -2.2270  1.4252  1.6949
  803MOL0     H 5957   2.757   1.943  -1.037  1.9262  3.3257  3.4800
  803MOL0     H 5958   2.612   2.353  -1.039 -0.1132 -1.6856  2.3606
  803MOL0     H 5959   2.760   2.554  -0.971 -2.6421 -3.5333  4.2328
  803MOL0     H 5960   3.160   2.652  -0.777 -0.4857  1.2305  2.3478
  803MOL0     H 5961   3.364   2.823  -0.737  0.5371  0.5121 -0.8656
  803MOL0     H 5962   3.388   3.213  -0.715 -1.1779 -2.8553  1.1096
  803MOL0     H 5963   3.252   3.208  -0.824  0.2028  1.4033  0.3412
  803MOL0     H 5964   3.427   3.376  -0.900  0.3985 -0.0158  1.0377
  803MOL0     H 5965   3.415   3.245  -1.018 -1.0932  0.2217 -0.5751
  803MOL0     H 5966   3.622   3.137  -0.934  0.6497  0.2309 -1.5085
  803MOL0     H 5967   3.635   3.263  -0.795  1.7530  1.8922 -1.6133
  803MOL0     H 5968   3.672   3.283  -1.095  1.2936  2.6119 -0.8041
  803MOL0     H 5969   3.630   3.425  -1.003  0.1427 -0.0409  0.6178
  803MOL0     H 5970   3.852   3.255  -0.906  1.4216 -0.1628 -1.5389
  803MOL0     H 5971   3.841   3.436  -0.906 -0.1760  0.2875 -0.9879
  803MOL0     H 5972   3.912   3.446  -1.120  0.2739  0.3304  0.3257
  803MOL0     H 5973   3.858   3.279  -1.157 -2.2981  1.2508  0.4932
  803MOL0     H 5974   4.098   3.355  -0.979  2.0476  0.3719 -1.2902
  803MOL0     H 5975   4.051   3.190  -1.020  0.6051 -0.2314 -0.3304
  803MOL0     H 5976   4.071   3.381  -1.251  1.3134 -0.9914 -0.9517
  803MOL0     H 5977   4.103   3.214  -1.242 -2.4547 -1.9960  3.3306
  803MOL0     H 5978   3.203   3.073  -1.031 -0.9942 -1.1896 -1.1303
  803MOL0     H 5979   3.050   2.891  -1.098  0.5128 -2.5310 -1.2632
  803MOL0     H 5980   3.102   2.315  -1.088 -0.4091  2.1643 -1.2007
  803MOL0     H 5981   2.950   2.120  -1.126 -0.3353 -1.0751  1.7447
  803MOL0     H 5982   3.802   1.201  -0.072 -3.5182 -2.4568  0.0596
  803MOL0     H 5983   3.921   1.163   0.135  1.3034  1.3179  2.0954
  803MOL0     H 5984   3.903   1.061   0.532 -1.2655 -0.1721  1.7773
  803MOL0     H 5985   3.998   0.949   0.713 -0.6536 -0.6803 -3.6594
  803MOL0     H 5986   4.138   0.856   0.855 -1.0628  0.5376  0.4723
  803MOL0     H 5987   4.020   0.921   0.963  0.4436 -2.0186  0.2246
  803MOL0     H 5988   4.206   0.769   1.059  0.0829  0.3711  1.9486
  803MOL0     H 5989   4.323   0.905   1.038 -0.6947  1.5220  0.0018
  803MOL0     H 5990   4.089   0.894   1.242  1.9767  0.2863  1.9157
  803MOL0     H 5991   4.165   1.041   1.195 -3.0092 -0.5929  0.6865
  803MOL0     H 5992   4.229   0.901   1.397 -1.4430 -0.7253 -0.5620
  803MOL0     H 5993   4.314   0.799   1.290 -1.9952 -1.6233  5.2163
  803MOL0     H 5994   4.587   1.116   1.348  1.5465 -2.0634  1.0201
  803MOL0     H 5995   4.148   1.318   0.878 -0.1742 -2.3925  1.5484
  803MOL0     H 5996   4.044   1.444   0.669  2.5035 -0.6767 -2.8340
  804MOL0     O 5997   8.046   6.726   4.452  0.4867  0.2419 -0.0032
  804MOL0     C 5998   8.075   6.625   4.380  0.5458  0.1443  0.5094
  804MOL0     O 5999   7.991   6.512   4.354 -0.3213  0.0078  0.2021
  804MOL0     C 6000   7.854   6.527   4.349 -0.4042  0.0642  0.0382
  804MOL0     C 6001   7.785   6.502   4.233 -0.9194 -0.0942  0.3567
  804MOL0     C 6002   7.651   6.525   4.226  0.1088 -0.5135  0.7201
  804MOL0     C 6003   7.592   6.583   4.329  1.0187 -0.4625 -0.1943
  804MOL0     O 6004   7.469   6.641   4.308  0.3270  0.1818  0.6048
  804MOL0     C 6005   7.391   6.707   4.400 -0.4060 -0.2657  0.7712
  804MOL0     C 6006   7.349   6.611   4.510 -0.3148  0.3612  0.0572
  804MOL0     C 6007   7.207   6.661   4.570 -0.4588  0.8271  0.6374
  804MOL0     C 6008   7.143   6.540   4.648 -0.1761 -0.7573 -0.3983
  804MOL0     C 6009   6.990   6.568   4.677  0.2439 -0.4234  0.1293
  804MOL0     C 6010   6.934   6.460   4.771 -0.0911  0.0191  0.1622
  804MOL0     C 6011   6.784   6.470   4.783  0.0505 -0.3566  0.1987
  804MOL0     C 6012   6.725   6.333   4.789 -0.2548 -0.7580 -0.4344
  804MOL0     N 6013   6.585   6.350   4.827  0.4392  0.6181  0.5229
  804MOL0     C 6014   6.534   6.363   4.954  0.3731  1.1128  0.5696
  804MOL0     C 6015   6.399   6.389   4.940 -0.0820 -0.5492 -0.4496
  804MOL0     C 6016   6.297   6.414   5.054 -0.4617  0.5192 -0.1322
  804MOL0     C 6017   6.247   6.283   5.121  0.2516 -0.8072 -0.5776
  804MOL0     C 6018   6.181   6.321   5.255 -0.9085  0.2039  0.8007
  804MOL0     C 6019   6.104   6.212   5.322  1.1540  0.3180  0.0829
  804MOL0     O 6020   5.988   6.196   5.249 -0.0940 -0.6155  0.2181
  804MOL0     C 6021   5.892   6.130   5.318  0.0722  0.2997  0.1646
  804MOL0     C 6022   5.762   6.183   5.324  0.6515 -0.0006  0.2715
  804MOL0     C 6023   5.665   6.132   5.411 -0.4312  0.6300 -0.6389
  804MOL0     C 6024   5.690   6.020   5.483  0.1739  0.9679  0.5463
  804MOL0     C 6025   5.574   5.963   5.553  0.0166 -0.1149  0.3481
  804MOL0     O 6026   5.600   5.881   5.664  0.4191 -0.9554  0.0515
  804MOL0     C 6027   5.502   5.821   5.731 -0.5748 -0.6585 -0.8338
  804MOL0     C 6028   5.505   5.825   5.872 -0.7800 -0.4496  0.2597
  804MOL0     C 6029   5.406   5.778   5.949  0.1560  0.4710 -0.0186
  804MOL0     C 6030   5.294   5.721   5.885 -1.1342  0.0686 -1.0845
  804MOL0     O 6031   5.188   5.680   5.955  0.0333 -0.2387  0.2266
  804MOL0     C 6032   5.184   5.551   6.010  0.3974  0.3946  0.0259
  804MOL0     C 6033   5.194   5.556   6.167  0.2948 -0.4259 -0.8139
  804MOL0     C 6034   5.048   5.576   6.224  0.5886 -0.2908 -0.5875
  804MOL0     C 6035   5.052   5.547   6.372 -0.0641 -0.2853  0.2211
  804MOL0     C 6036   5.110   5.673   6.444 -0.5135  0.5593  0.1738
  804MOL0     C 6037   5.151   5.641   6.592  0.5422  0.9958  0.2180
  804MOL0     C 6038   5.276   5.707   6.636 -0.9929 -1.0692  0.2320
  804MOL0     C 6039   5.304   5.680   6.782 -0.1993  0.1086  0.3168
  804MOL0    Cl 6040   5.354   5.510   6.804  0.0399  0.3672 -0.0081
  804MOL0     C 6041   5.290   5.705   5.746 -0.2620 -0.4583 -0.1537
  804MOL0     C 6042   5.396   5.755   5.669 -0.2561  1.2182  0.7443
  804MOL0     O 6043   5.462   5.990   5.517  0.0897  0.4821  0.1718
  804MOL0     C 6044   5.817   5.965   5.481 -0.2205 -0.2168  0.9604
  804MOL0     C 6045   5.922   6.018   5.399  0.2034 -0.3903 -0.8009
  804MOL0     N 6046   6.367   6.381   4.807  0.1267  0.6568  0.3784
  804MOL0     N 6047   6.483   6.368   4.737  0.9711 -0.2671  0.3522
  804MOL0     C 6048   7.652   6.591   4.448  1.0934  0.4801 -0.0307
  804MOL0     C 6049   7.786   6.559   4.460  0.6930  1.3643 -0.2285
  804MOL0     C 6050   8.219   6.627   4.326  0.0073 -0.1609 -0.4084
  804MOL0     C 6051   8.283   6.748   4.287 -0.6218  0.7316 -1.0695
  804MOL0     C 6052   8.418   6.744   4.249 -0.0147 -1.3092  0.1047
  804MOL0     C 6053   8.489   6.626   4.230 -0.3368 -0.0846  0.4835
  804MOL0     O 6054   8.612   6.637   4.166  0.2720 -0.3007  0.4744
  804MOL0     C 6055   8.683   6.521   4.135 -0.4466  0.2315 -0.5631
  804MOL0     C 6056   8.636   6.469   3.998  0.1914  0.0079 -0.3107
  804MOL0     C 6057   8.547   6.341   3.993 -0.0786 -1.1943 -0.3497
  804MOL0     C 6058   8.517   6.294   3.855 -0.4535  0.3491  0.2151
  804MOL0     C 6059   8.629   6.244   3.777 -0.0453 -0.1107  0.0513
  804MOL0     C 6060   8.718   6.197   3.703 -0.1424 -0.6964 -0.2249
  804MOL0     C 6061   8.420   6.513   4.267 -0.7635  0.3964  0.6081
  804MOL0     C 6062   8.289   6.506   4.306 -0.2097 -0.1571 -0.6291
  804MOL0     H 6063   7.834   6.477   4.139 -0.4600  1.0472  0.2726
  804MOL0     H 6064   7.597   6.514   4.133  2.8918 -0.6193 -0.9946
  804MOL0     H 6065   7.302   6.749   4.352  0.3274  0.0871 -0.3270
  804MOL0     H 6066   7.440   6.797   4.437  0.6868 -0.9890  1.1426
  804MOL0     H 6067   7.425   6.608   4.588 -1.8764 -3.6260  1.7083
  804MOL0     H 6068   7.336   6.510   4.469 -2.6548  0.6099  0.0618
  804MOL0     H 6069   7.145   6.674   4.481  0.4643  0.8486 -0.0119
  804MOL0     H 6070   7.202   6.756   4.625  1.7288  0.6016  1.3050
  804MOL0     H 6071   7.164   6.452   4.586  2.6264 -1.9862  2.0832
  804MOL0     H 6072   7.195   6.526   4.743 -1.1408 -0.9363  0.1146
  804MOL0     H 6073   6.939   6.572   4.580  1.6665 -1.5632 -0.7036
  804MOL0     H 6074   6.982   6.669   4.719  2.6183  1.9852 -4.3816
  804MOL0     H 6075   6.996   6.453   4.861  3.0050 -2.9951 -1.9383
  804MOL0     H 6076   6.952   6.365   4.720 -0.0374  0.5711 -0.8671
  804MOL0     H 6077   6.770   6.539   4.867 -2.6791 -0.1712 -0.3060
  804MOL0     H 6078   6.744   6.522   4.695  2.4636  1.0518 -0.1518
  804MOL0     H 6079   6.779   6.275   4.864  1.7030  0.9196 -0.4602
  804MOL0     H 6080   6.725   6.290   4.688 -0.7447  2.0447 -1.7342
  804MOL0     H 6081   6.578   6.358   5.054 -3.7296  0.6967  2.5415
  804MOL0     H 6082   6.213   6.471   5.012 -0.4263  0.9172  0.3257
  804MOL0     H 6083   6.352   6.484   5.117  2.2990 -1.5082 -0.0825
  804MOL0     H 6084   6.328   6.211   5.141  0.8000  0.0378  0.3144
  804MOL0     H 6085   6.175   6.230   5.058  1.7870 -1.0495 -2.2452
  804MOL0     H 6086   6.269   6.347   5.315  1.8911 -1.2828 -2.3176
  804MOL0     H 6087   6.115   6.407   5.248  0.4386  1.1743 -0.7174
  804MOL0     H 6088   6.076   6.254   5.419  1.2474 -0.3885  0.4226
  804MOL0     H 6089   6.154   6.116   5.342 -0.6757 -0.6891  0.0391
  804MOL0     H 6090   5.742   6.269   5.260 -1.8082  0.8382  2.0269
  804MOL0     H 6091   5.567   6.179   5.403 -0.7618 -0.1587 -1.4158
  804MOL0     H 6092   5.584   5.875   5.926 -1.6763  0.4507  0.7653
  804MOL0     H 6093   5.412   5.784   6.057 -1.8864 -2.2683  0.3545
  804MOL0     H 6094   5.280   5.508   5.979 -0.1820 -0.4198 -0.6705
  804MOL0     H 6095   5.099   5.488   5.984 -1.1075  2.5803 -0.5293
  804MOL0     H 6096   5.266   5.628   6.206 -0.8246 -0.2556  1.0123
  804MOL0     H 6097   5.221   5.457   6.207 -1.3821 -0.8961 -0.7791
  804MOL0     H 6098   4.981   5.510   6.169  0.4702 -0.4324 -0.2751
  804MOL0     H 6099   5.014   5.680   6.220  0.9696 -0.1259  0.1918
  804MOL0     H 6100   4.948   5.556   6.405  0.1760  2.2379  0.4923
  804MOL0     H 6101   5.091   5.446   6.387  0.5794 -0.1546 -0.4935
  804MOL0     H 6102   5.041   5.759   6.445  0.2200  1.1525  1.4446
  804MOL0     H 6103   5.195   5.716   6.389  0.7440 -1.5853  0.3673
  804MOL0     H 6104   5.164   5.532   6.592  1.4848  1.0114 -2.8947
  804MOL0     H 6105   5.064   5.672   6.651  0.7112  0.4117  0.7901
  804MOL0     H 6106   5.362   5.682   6.573 -1.3699 -3.3321  0.5267
  804MOL0     H 6107   5.260   5.814   6.621  0.6169 -1.0893 -2.1320
  804MOL0     H 6108   5.220   5.712   6.845 -1.3102  1.4324 -1.7149
  804MOL0     H 6109   5.393   5.735   6.812  1.8300 -2.5462 -0.4782
  804MOL0     H 6110   5.198   5.669   5.700 -0.8085  0.9364 -0.1925
  804MOL0     H 6111   5.400   5.753   5.560 -1.4835  5.4267  0.4124
  804MOL0     H 6112   5.842   5.879   5.543 -0.2497 -1.6295 -0.8884
  804MOL0     H 6113   6.019   5.974   5.418  1.2345  2.0941  0.0171
  804MOL0     H 6114   7.608   6.638   4.535 -4.0142  0.4814 -2.2626
  804MOL0     H 6115   7.837   6.577   4.554 -0.3768 -2.1234  1.2152
  804MOL0     H 6116   8.216   6.832   4.302 -2.5887 -1.0939  1.2926
  804MOL0     H 6117   8.472   6.832   4.218  2.7422 -1.6486  3.3601
  804MOL0     H 6118   8.683   6.447   4.215 -1.2912  1.4278  0.5700
  804MOL0     H 6119   8.790   6.545   4.131 -0.0985 -1.2460 -0.8566
  804MOL0     H 6120   8.584   6.553   3.951  1.7310  2.6753  2.4091
  804MOL0     H 6121   8.720   6.450   3.931 -0.2863 -0.8498 -0.6848
  804MOL0     H 6122   8.447   6.364   4.030  0.1214  2.8898 -1.7980
  804MOL0     H 6123   8.600   6.258   4.041 -0.4400 -0.5527  1.2077
  804MOL0     H 6124   8.440   6.216   3.862  0.5600 -0.6160  0.8424
  804MOL0     H 6125   8.471   6.382   3.808  0.5939  1.1987  0.7534
  804MOL0     H 6126   8.806   6.171   3.649  0.7840  5.3523 -2.4771
  804MOL0     H 6127   8.466   6.415   4.256 -0.1401  0.7425  0.0276
  804MOL0     H 6128   8.260   6.405   4.334  1.0782 -1.1899 -2.8035
  805MOL0     O 6129   9.344   4.110   7.704 -0.6180 -0.5815 -0.1073
  805MOL0     C 6130   9.420   4.202   7.675  0.1593  0.3789 -0.1455
  805MOL0     O 6131   9.375   4.326   7.646 -0.3730 -0.1660  0.0186
  805MOL0     C 6132   9.234   4.346   7.641 -0.1740 -0.8594 -0.3854
  805MOL0     C 6133   9.149   4.288   7.549  0.1156 -0.1293 -0.5938
  805MOL0     C 6134   9.014   4.309   7.547 -0.1549 -0.3018 -0.0041
  805MOL0     C 6135   8.954   4.403   7.632 -0.9154 -0.4135  0.5811
  805MOL0     O 6136   8.820   4.430   7.642 -0.0375  0.5376  0.3204
  805MOL0     C 6137   8.738   4.385   7.533  0.4207 -0.2057 -0.0567
  805MOL0     C 6138   8.597   4.436   7.564  0.6511  0.5861 -0.1331
  805MOL0     C 6139   8.492   4.365   7.470  0.8420 -0.2860 -0.2993
  805MOL0     C 6140   8.521   4.349   7.315 -1.0838  0.2066 -0.5947
  805MOL0     C 6141   8.420   4.247   7.264 -0.6480 -0.0450 -0.5510
  805MOL0     C 6142   8.274   4.246   7.301 -0.3694 -0.0228 -0.2092
  805MOL0     C 6143   8.191   4.144   7.222 -0.3858  0.1916  0.1320
  805MOL0     C 6144   8.072   4.092   7.312 -0.4414 -0.3514 -0.2594
  805MOL0     N 6145   7.962   4.054   7.230  0.2369  0.1919 -0.1318
  805MOL0     C 6146   7.917   3.927   7.229  0.4077 -0.4799  0.6100
  805MOL0     C 6147   7.812   3.929   7.140  0.4710 -0.9845 -0.0957
  805MOL0     C 6148   7.750   3.802   7.089  1.1440 -1.5401 -0.3936
  805MOL0     C 6149   7.619   3.766   7.170  1.1587 -1.0098 -0.0486
  805MOL0     C 6150   7.496   3.865   7.133 -0.6849 -0.3391  0.4737
  805MOL0     C 6151   7.371   3.842   7.210 -0.8677  1.6692 -0.2377
  805MOL0     O 6152   7.284   3.955   7.187  0.2552  0.3138  0.1177
  805MOL0     C 6153   7.154   3.942   7.235 -0.2414 -0.5006  0.0575
  805MOL0     C 6154   7.098   3.836   7.291  0.3085 -0.6051 -0.1272
  805MOL0     C 6155   6.966   3.827   7.341  0.4059 -0.4937 -0.3708
  805MOL0     C 6156   6.883   3.943   7.323  0.2069  0.3944 -0.0634
  805MOL0     C 6157   6.748   3.939   7.360 -0.0213 -1.0133 -0.0657
  805MOL0     O 6158   6.698   3.820   7.410 -0.1273 -0.0652 -0.3895
  805MOL0     C 6159   6.578   3.815   7.474  0.1250  0.8659 -0.3457
  805MOL0     C 6160   6.555   3.887   7.585 -0.7822  0.1980 -0.6077
  805MOL0     C 6161   6.437   3.887   7.652 -0.1751 -0.2125  0.9679
  805MOL0     C 6162   6.344   3.790   7.625  0.5401 -0.1416  0.0048
  805MOL0     O 6163   6.224   3.782   7.687  0.5579  0.0922  0.3162
  805MOL0     C 6164   6.192   3.851   7.805 -0.2616 -0.6338 -0.0691
  805MOL0     C 6165   6.050   3.830   7.852 -0.1458  0.0904  1.2678
  805MOL0     C 6166   6.025   3.711   7.951 -0.1069  1.1577  0.1398
  805MOL0     C 6167   5.878   3.673   7.958 -0.0493 -0.3842 -0.2827
  805MOL0     C 6168   5.851   3.546   8.046  0.2588 -0.8907  0.3719
  805MOL0     C 6169   5.717   3.483   8.009 -0.4400  0.4889 -0.4361
  805MOL0     C 6170   5.603   3.588   8.050 -0.9941  0.2924  0.2136
  805MOL0     C 6171   5.470   3.510   8.044 -0.4460  0.9477  0.3224
  805MOL0    Cl 6172   5.442   3.425   7.892  0.2963 -1.1595  0.9006
  805MOL0     C 6173   6.368   3.700   7.515 -1.7877  0.2067 -0.4259
  805MOL0     C 6174   6.482   3.716   7.436  0.3359 -0.8072  0.1822
  805MOL0     O 6175   6.681   4.045   7.349 -0.1105 -0.8037  0.8921
  805MOL0     C 6176   6.945   4.057   7.278  0.2491 -0.5548  0.6155
  805MOL0     C 6177   7.076   4.064   7.235 -0.8689 -0.4662  0.0562
  805MOL0     N 6178   7.810   4.056   7.080  0.6454 -0.3052 -0.0468
  805MOL0     N 6179   7.891   4.130   7.147 -0.2581 -0.2919  0.0655
  805MOL0     C 6180   9.039   4.458   7.727  0.4121  0.5017 -0.1851
  805MOL0     C 6181   9.183   4.442   7.722  0.1388  0.3338  0.2970
  805MOL0     C 6182   9.569   4.183   7.684 -0.5089 -0.3861  0.0690
  805MOL0     C 6183   9.651   4.291   7.641 -0.2932  0.9036 -0.8742
  805MOL0     C 6184   9.787   4.276   7.669  0.1253  1.1744  0.0421
  805MOL0     C 6185   9.846   4.164   7.724 -0.1365 -0.3709 -0.2387
  805MOL0     O 6186   9.977   4.148   7.744 -0.3636  0.7197 -0.0080
  805MOL0     C 6187  10.078   4.254   7.713 -0.3009  0.7534  0.6720
  805MOL0     C 6188  10.218   4.184   7.714 -0.1513 -0.3618  0.0616
  805MOL0     C 6189  10.337   4.285   7.712  0.7085 -0.3379 -0.5789
  805MOL0     C 6190  10.311   4.395   7.616 -0.7171 -0.8221 -0.4756
  805MOL0     C 6191  10.432   4.477   7.587  0.0633 -0.4648 -0.0811
  805MOL0     C 6192  10.539   4.528   7.558  0.2072 -0.1769  1.1200
  805MOL0     C 6193   9.765   4.049   7.753 -0.4788 -0.1227  1.5091
  805MOL0     C 6194   9.630   4.068   7.737  0.3318 -0.1562 -0.2013
  805MOL0     H 6195   9.192   4.224   7.471 -1.4101 -1.3220 -0.5053
  805MOL0     H 6196   8.958   4.253   7.473  0.6747 -1.0958 -0.0486
  805MOL0     H 6197   8.738   4.276   7.539 -2.3422 -0.3604 -1.1797
  805MOL0     H 6198   8.777   4.417   7.436  1.4305 -1.2209  0.0008
  805MOL0     H 6199   8.590   4.543   7.544 -4.3943  0.2981 -1.2428
  805MOL0     H 6200   8.554   4.417   7.663 -2.7894  1.8584 -1.2358
  805MOL0     H 6201   8.401   4.423   7.483  0.7262 -0.4438 -0.4038
  805MOL0     H 6202   8.472   4.269   7.517  2.8259 -0.7915 -0.3752
  805MOL0     H 6203   8.513   4.449   7.272  1.3085  1.1422  0.9427
  805MOL0     H 6204   8.622   4.312   7.292 -1.6511 -0.5319 -2.0817
  805MOL0     H 6205   8.466   4.150   7.284  4.3523  1.8195 -1.4293
  805MOL0     H 6206   8.426   4.257   7.155 -2.4781 -1.1044 -0.7973
  805MOL0     H 6207   8.228   4.345   7.296  1.2743  0.8168  0.6175
  805MOL0     H 6208   8.278   4.201   7.400 -1.8740 -1.4521 -0.7526
  805MOL0     H 6209   8.138   4.179   7.133 -0.2479 -0.9564 -0.4264
  805MOL0     H 6210   8.255   4.059   7.193  0.2415  1.8191 -3.8866
  805MOL0     H 6211   8.044   4.182   7.367  4.5968  2.0698 -1.1025
  805MOL0     H 6212   8.105   4.003   7.367 -2.6194 -0.2506  1.3516
  805MOL0     H 6213   7.950   3.846   7.293  0.9530  0.1610  1.1570
  805MOL0     H 6214   7.807   3.709   7.097 -0.4744 -2.6400 -1.2026
  805MOL0     H 6215   7.720   3.821   6.986 -0.8413  2.0347  0.6688
  805MOL0     H 6216   7.644   3.772   7.276  3.6223 -1.9053 -0.5166
  805MOL0     H 6217   7.592   3.662   7.148 -3.2173 -0.2307  0.7007
  805MOL0     H 6218   7.529   3.966   7.158  1.0873 -0.9135  0.5851
  805MOL0     H 6219   7.478   3.864   7.025  2.9589  0.2897 -0.2700
  805MOL0     H 6220   7.402   3.839   7.315  0.8688  1.4239 -0.7274
  805MOL0     H 6221   7.337   3.741   7.183  1.7074  0.2567  1.3618
  805MOL0     H 6222   7.157   3.745   7.291  0.5390 -0.4609  0.3930
  805MOL0     H 6223   6.917   3.731   7.351 -2.0536  0.3396 -3.0411
  805MOL0     H 6224   6.627   3.961   7.618  0.7888 -1.0469 -1.1655
  805MOL0     H 6225   6.421   3.956   7.734  1.4228  2.6206 -0.9363
  805MOL0     H 6226   6.200   3.957   7.779  0.8170 -1.0952 -1.8323
  805MOL0     H 6227   6.264   3.826   7.884  0.0398  0.2278 -0.0615
  805MOL0     H 6228   5.985   3.811   7.766  0.4497  2.7284  0.1415
  805MOL0     H 6229   6.007   3.922   7.892  2.7552  1.2679  1.9032
  805MOL0     H 6230   6.073   3.741   8.044  2.6654  2.6170 -1.6121
  805MOL0     H 6231   6.071   3.619   7.915 -1.1173  0.7640 -0.1921
  805MOL0     H 6232   5.815   3.752   8.000  1.9131  2.4904 -2.3337
  805MOL0     H 6233   5.848   3.666   7.853 -3.3406  2.2460  0.3011
  805MOL0     H 6234   5.850   3.575   8.152 -1.2786  1.5475 -0.2403
  805MOL0     H 6235   5.931   3.471   8.043  0.1081 -1.0972  1.1730
  805MOL0     H 6236   5.705   3.388   8.062  0.9796 -0.0372 -1.0190
  805MOL0     H 6237   5.708   3.472   7.901 -3.3255  1.3565 -0.3764
  805MOL0     H 6238   5.632   3.623   8.149  0.6521  0.0606 -0.1445
  805MOL0     H 6239   5.605   3.667   7.975 -0.3212  0.5748  0.5181
  805MOL0     H 6240   5.384   3.574   8.066 -1.8722 -0.9539  0.5799
  805MOL0     H 6241   5.482   3.431   8.119  0.2289  0.2272 -0.5296
  805MOL0     H 6242   6.314   3.608   7.496 -1.8448 -1.4798  5.6771
  805MOL0     H 6243   6.511   3.644   7.359  1.5348  1.3804 -1.5237
  805MOL0     H 6244   6.895   4.153   7.268 -2.4495 -2.0938 -2.9684
  805MOL0     H 6245   7.105   4.160   7.195  0.3813 -0.4258  0.9790
  805MOL0     H 6246   8.992   4.517   7.805  2.3668  0.7022  0.8984
  805MOL0     H 6247   9.241   4.488   7.802  0.7287  1.0176 -0.5054
  805MOL0     H 6248   9.611   4.379   7.591  0.9422  2.5109  0.8287
  805MOL0     H 6249   9.853   4.359   7.644 -0.2290  0.8489 -2.1668
  805MOL0     H 6250  10.068   4.327   7.794 -0.4088  1.6909 -0.1671
  805MOL0     H 6251  10.049   4.290   7.614  2.5302 -0.4681 -0.7021
  805MOL0     H 6252  10.219   4.124   7.805 -2.5878  1.1514  1.1859
  805MOL0     H 6253  10.229   4.116   7.629 -3.8445  0.0514 -0.8934
  805MOL0     H 6254  10.428   4.230   7.686 -0.1879 -1.4560 -1.4611
  805MOL0     H 6255  10.361   4.312   7.816  1.9962  2.2714 -1.4661
  805MOL0     H 6256  10.274   4.348   7.525  1.0380 -1.5807 -0.8313
  805MOL0     H 6257  10.238   4.467   7.656 -0.2746 -2.3727  3.5885
  805MOL0     H 6258  10.622   4.582   7.519 -1.6435  0.4931 -2.3875
  805MOL0     H 6259   9.795   3.949   7.783 -2.4104 -0.8272  1.2119
  805MOL0     H 6260   9.559   3.993   7.773  0.1074 -0.6485 -1.6219
  806MOL0     O 6261   6.794   6.317   1.025 -0.3280 -0.4982  0.1576
  806MOL0     C 6262   6.864   6.350   1.119 -0.1020 -0.6540  0.3019
  806MOL0     O 6263   6.822   6.387   1.247 -0.6899 -0.0197  0.1760
  806MOL0     C 6264   6.687   6.423   1.267 -0.1393  0.0754  0.2569
  806MOL0     C 6265   6.629   6.399   1.392  0.5740 -0.4123 -0.0193
  806MOL0     C 6266   6.490   6.423   1.424 -0.1628  1.0874 -0.4817
  806MOL0     C 6267   6.402   6.470   1.329 -0.5977 -0.3582  0.1418
  806MOL0     O 6268   6.273   6.506   1.343 -0.1746  0.0485 -0.0777
  806MOL0     C 6269   6.237   6.571   1.463  0.1813  0.4847  0.1147
  806MOL0     C 6270   6.083   6.571   1.475 -0.3002 -0.8161 -0.2572
  806MOL0     C 6271   6.030   6.678   1.579 -0.3093  0.3011 -0.0508
  806MOL0     C 6272   5.873   6.694   1.571  0.1072  0.8957 -0.2125
  806MOL0     C 6273   5.823   6.839   1.609 -0.1088  0.3084 -0.4876
  806MOL0     C 6274   5.678   6.847   1.584  0.0448  0.7936  0.4520
  806MOL0     C 6275   5.621   6.977   1.642  0.1467  0.2506 -0.1020
  806MOL0     C 6276   5.464   6.991   1.615 -0.3083  1.0996  0.3371
  806MOL0     N 6277   5.388   7.066   1.710 -0.0864  0.1205 -0.1746
  806MOL0     C 6278   5.350   7.200   1.705  0.2821 -0.3900 -0.1604
  806MOL0     C 6279   5.251   7.209   1.796 -0.2163 -0.3747 -0.3776
  806MOL0     C 6280   5.178   7.332   1.837 -0.4539  0.0921  0.1123
  806MOL0     C 6281   5.122   7.399   1.706  0.2269  0.0975 -0.6589
  806MOL0     C 6282   5.019   7.306   1.637 -0.0492 -0.7450  0.6885
  806MOL0     C 6283   4.889   7.296   1.700  0.1451  0.3066  0.3608
  806MOL0     O 6284   4.814   7.420   1.717  0.0894  0.2184 -0.2186
  806MOL0     C 6285   4.688   7.427   1.775  0.0480  1.2997  0.5559
  806MOL0     C 6286   4.639   7.318   1.853 -0.8229 -0.1639  0.3360
  806MOL0     C 6287   4.525   7.341   1.921  1.2380  0.2013  0.6281
  806MOL0     C 6288   4.443   7.455   1.905 -0.0817 -0.1981 -0.6242
  806MOL0     C 6289   4.317   7.476   1.980 -0.2686 -0.1124 -0.8643
  806MOL0     O 6290   4.274   7.380   2.050  0.3346 -0.0330 -0.5496
  806MOL0     C 6291   4.161   7.410   2.130 -1.0050 -0.5500 -1.1542
  806MOL0     C 6292   4.169   7.414   2.263 -1.0859  0.0846  0.2418
  806MOL0     C 6293   4.059   7.407   2.345  0.4219  0.3852 -1.1548
  806MOL0     C 6294   3.932   7.414   2.292  0.3758 -0.0021 -0.2723
  806MOL0     O 6295   3.827   7.415   2.383  0.0227  0.8418  0.8275
  806MOL0     C 6296   3.702   7.401   2.325 -0.1078 -0.2812 -0.2367
  806MOL0     C 6297   3.595   7.404   2.440  0.2672 -0.0692 -0.1437
  806MOL0     C 6298   3.590   7.288   2.542  0.3491  0.8297 -0.0800
  806MOL0     C 6299   3.455   7.287   2.614 -0.2536 -0.6401  0.7633
  806MOL0     C 6300   3.461   7.190   2.737 -0.3707  0.0601  0.3118
  806MOL0     C 6301   3.317   7.161   2.786 -0.4705 -0.4824  0.3158
  806MOL0     C 6302   3.327   7.092   2.926 -0.0383 -0.3242 -0.0412
  806MOL0     C 6303   3.196   7.042   2.981 -0.5510  0.1524  0.4955
  806MOL0    Cl 6304   3.194   7.051   3.165 -0.2438 -0.3736  0.0197
  806MOL0     C 6305   3.919   7.416   2.149  0.5453  0.1994  0.4964
  806MOL0     C 6306   4.038   7.408   2.071  0.3568 -0.2132  0.3136
  806MOL0     O 6307   4.280   7.591   1.982  1.0605  1.1024 -1.0705
  806MOL0     C 6308   4.499   7.560   1.825  0.8347  0.0200 -0.6111
  806MOL0     C 6309   4.617   7.545   1.755 -0.5000  0.9584  0.5477
  806MOL0     N 6310   5.234   7.085   1.864 -1.5535  0.8874 -1.5223
  806MOL0     N 6311   5.325   7.014   1.814  0.3707  1.0226  0.3554
  806MOL0     C 6312   6.455   6.499   1.205  0.4216  0.4996  0.3266
  806MOL0     C 6313   6.593   6.485   1.170 -0.2791  0.6137 -0.1729
  806MOL0     C 6314   7.007   6.318   1.097 -1.0373 -0.9377  0.2428
  806MOL0     C 6315   7.103   6.322   1.202  1.0191  0.9096  0.0202
  806MOL0     C 6316   7.231   6.296   1.179  0.2031  0.6567 -0.2913
  806MOL0     C 6317   7.281   6.261   1.058  0.7385 -0.0796  0.5549
  806MOL0     O 6318   7.409   6.219   1.044 -0.4782  0.7436  0.1530
  806MOL0     C 6319   7.502   6.274   1.132 -0.7474  0.5888  0.3139
  806MOL0     C 6320   7.648   6.283   1.096 -0.1221 -0.3681 -0.8779
  806MOL0     C 6321   7.683   6.162   1.027 -0.7682 -0.0715 -0.1642
  806MOL0     C 6322   7.839   6.178   0.993 -0.8411  0.6426 -0.0123
  806MOL0     C 6323   7.873   6.051   0.942 -1.2402  0.1622  0.1509
  806MOL0     C 6324   7.883   5.936   0.908  0.3153 -0.0018  0.6346
  806MOL0     C 6325   7.188   6.252   0.948  0.1522  0.1159 -0.3105
  806MOL0     C 6326   7.056   6.272   0.973 -0.0465 -0.5648  0.0522
  806MOL0     H 6327   6.692   6.357   1.470  0.2102 -0.6406  0.1599
  806MOL0     H 6328   6.457   6.398   1.524 -1.9607  0.2744 -1.2153
  806MOL0     H 6329   6.277   6.673   1.476  1.5372 -0.1775  1.4879
  806MOL0     H 6330   6.269   6.508   1.547  2.0387 -0.6271 -1.3480
  806MOL0     H 6331   6.047   6.480   1.523 -2.7193  0.8193  1.3057
  806MOL0     H 6332   6.043   6.586   1.374  0.9044 -0.1447 -0.6486
  806MOL0     H 6333   6.091   6.767   1.560  2.0723 -1.0407  0.8936
  806MOL0     H 6334   6.045   6.650   1.683  0.1292  1.1501  0.1304
  806MOL0     H 6335   5.846   6.687   1.465  0.0322  2.4406 -0.3168
  806MOL0     H 6336   5.826   6.612   1.626 -0.1970  0.7899 -0.6212
  806MOL0     H 6337   5.885   6.908   1.552 -0.3592  5.4710  4.5867
  806MOL0     H 6338   5.850   6.869   1.711 -1.6231 -0.9418  0.3409
  806MOL0     H 6339   5.634   6.762   1.638 -0.9527  1.5670  0.9016
  806MOL0     H 6340   5.632   6.832   1.486  0.2278  1.3796  0.2694
  806MOL0     H 6341   5.647   6.988   1.748  1.2971  0.2186 -0.3711
  806MOL0     H 6342   5.686   7.053   1.598  0.1102  0.3913  0.0826
  806MOL0     H 6343   5.423   6.891   1.603 -1.1623  1.3035  1.4613
  806MOL0     H 6344   5.446   7.049   1.524 -0.2523  2.5993  1.2564
  806MOL0     H 6345   5.384   7.273   1.632  0.1342  0.5231  0.6632
  806MOL0     H 6346   5.243   7.404   1.888 -2.6940  2.5191 -0.2548
  806MOL0     H 6347   5.093   7.314   1.904 -2.0443 -1.3957 -2.1701
  806MOL0     H 6348   5.195   7.425   1.629 -0.9436  1.6454 -1.2912
  806MOL0     H 6349   5.081   7.494   1.742  1.3037  0.2251  0.3234
  806MOL0     H 6350   5.013   7.347   1.536 -2.2740  0.2736  1.1662
  806MOL0     H 6351   5.059   7.206   1.621 -1.1852 -0.8586 -1.8521
  806MOL0     H 6352   4.910   7.262   1.802  0.3670  2.3405  1.0348
  806MOL0     H 6353   4.835   7.214   1.653 -1.1958 -0.8370  3.5776
  806MOL0     H 6354   4.697   7.226   1.854  0.5629  0.6576 -1.0557
  806MOL0     H 6355   4.479   7.258   1.974  1.5612 -1.7172 -1.9047
  806MOL0     H 6356   4.263   7.414   2.316  0.1556  1.2400 -1.7989
  806MOL0     H 6357   4.076   7.400   2.452  0.8806  4.8528 -0.7233
  806MOL0     H 6358   3.695   7.301   2.279 -2.9325 -1.3450  2.1840
  806MOL0     H 6359   3.676   7.473   2.247 -4.1904 -3.0064 -1.7384
  806MOL0     H 6360   3.496   7.404   2.394  1.4634  3.0085 -3.1142
  806MOL0     H 6361   3.616   7.503   2.481  1.0418 -0.6265  0.8512
  806MOL0     H 6362   3.671   7.291   2.614  0.7711 -0.4789 -0.4712
  806MOL0     H 6363   3.590   7.194   2.486  0.3193 -0.3828  1.8816
  806MOL0     H 6364   3.433   7.391   2.643 -1.5765  0.2721 -2.9750
  806MOL0     H 6365   3.376   7.263   2.542 -2.5941  0.1272  2.9003
  806MOL0     H 6366   3.532   7.235   2.806  2.8822 -2.4653 -1.1048
  806MOL0     H 6367   3.495   7.093   2.698 -1.2379  0.2499 -0.9965
  806MOL0     H 6368   3.254   7.118   2.708  0.7950  3.3649 -3.1798
  806MOL0     H 6369   3.278   7.261   2.810  2.4672  0.5660  1.2191
  806MOL0     H 6370   3.407   7.017   2.928  0.2467 -0.0516  2.3361
  806MOL0     H 6371   3.357   7.168   2.998 -0.7740 -1.0975  1.1111
  806MOL0     H 6372   3.180   6.937   2.953 -1.6718 -0.1650  2.1767
  806MOL0     H 6373   3.114   7.104   2.942  0.0973  0.4387 -0.4372
  806MOL0     H 6374   3.828   7.403   2.092  0.4548 -1.0894  0.8950
  806MOL0     H 6375   4.024   7.416   1.963  0.0688  0.2145  0.3813
  806MOL0     H 6376   4.442   7.653   1.824 -0.1913 -0.5940 -0.4249
  806MOL0     H 6377   4.654   7.627   1.695 -0.1017  0.3071 -0.1106
  806MOL0     H 6378   6.389   6.526   1.123 -0.8016 -0.3622  0.9939
  806MOL0     H 6379   6.632   6.521   1.075 -0.8220  0.9735 -0.2606
  806MOL0     H 6380   7.073   6.347   1.304  2.0706 -0.9203  0.8351
  806MOL0     H 6381   7.292   6.275   1.266 -1.0409 -1.7165  0.0803
  806MOL0     H 6382   7.498   6.216   1.225  1.3854 -1.5633 -0.8316
  806MOL0     H 6383   7.476   6.377   1.159 -0.7750  0.2381  1.6836
  806MOL0     H 6384   7.691   6.376   1.059 -4.1386  1.9818 -0.1765
  806MOL0     H 6385   7.680   6.263   1.199 -0.3891 -0.0916 -0.7422
  806MOL0     H 6386   7.635   6.162   0.929 -1.3636 -0.4811  0.1215
  806MOL0     H 6387   7.665   6.072   1.087  0.5388 -1.0679 -1.1973
  806MOL0     H 6388   7.862   6.253   0.917 -0.0431  2.9349  2.2937
  806MOL0     H 6389   7.889   6.210   1.086  0.1935  0.8990 -0.6451
  806MOL0     H 6390   7.890   5.836   0.872 -1.2808  0.2514 -0.5107
  806MOL0     H 6391   7.224   6.227   0.849 -0.8972 -4.6447  0.2702
  806MOL0     H 6392   6.986   6.276   0.890  0.6365  0.2637 -0.4987
  807MOL0     O 6393   8.842   7.425   0.825  0.2713  0.0381 -0.2050
  807MOL0     C 6394   8.809   7.470   0.715 -0.1052 -0.6918  1.0364
  807MOL0     O 6395   8.879   7.456   0.593 -0.4495 -0.3089 -0.1406
  807MOL0     C 6396   8.994   7.381   0.595  1.0696  0.3055 -0.1554
  807MOL0     C 6397   9.109   7.436   0.534  0.2621  0.6424 -0.3065
  807MOL0     C 6398   9.225   7.360   0.537  0.4793 -0.7363  0.4068
  807MOL0     C 6399   9.227   7.219   0.558  0.2717  0.3441  0.3387
  807MOL0     O 6400   9.341   7.141   0.534 -0.1563 -0.5197 -0.2670
  807MOL0     C 6401   9.348   7.021   0.608  0.4002 -0.9954 -0.1919
  807MOL0     C 6402   9.485   6.955   0.583 -1.1997  0.4552  0.3032
  807MOL0     C 6403   9.500   6.903   0.439  0.1317 -0.5146 -0.6279
  807MOL0     C 6404   9.641   6.827   0.425 -0.3183 -0.2743  0.5536
  807MOL0     C 6405   9.659   6.782   0.279 -0.2624 -0.3925  0.2256
  807MOL0     C 6406   9.764   6.677   0.274  0.6071 -0.8164  0.2551
  807MOL0     C 6407   9.906   6.719   0.318 -0.3765  0.5481 -0.5475
  807MOL0     C 6408   9.960   6.848   0.275  0.3207 -0.8181 -0.1421
  807MOL0     N 6409   9.984   6.852   0.128  0.9987 -0.1512 -0.3602
  807MOL0     C 6410   9.903   6.905   0.032 -0.1712  0.8258  0.4781
  807MOL0     C 6411   9.968   6.889  -0.090  0.4697  0.8487 -1.0839
  807MOL0     C 6412   9.939   6.952  -0.225 -0.0342  0.0826  0.7516
  807MOL0     C 6413   9.861   6.852  -0.311 -0.5128  0.1844  0.1827
  807MOL0     C 6414   9.713   6.871  -0.281 -0.0286 -1.1434  0.6624
  807MOL0     C 6415   9.617   6.750  -0.313  0.7434 -0.1620  0.9743
  807MOL0     O 6416   9.650   6.638  -0.234 -0.7440  0.4295  0.0836
  807MOL0     C 6417   9.546   6.549  -0.212 -0.1852 -0.1801 -0.5881
  807MOL0     C 6418   9.480   6.549  -0.087  0.4288 -0.2408 -0.5658
  807MOL0     C 6419   9.366   6.467  -0.066  0.2909  0.1145  0.1527
  807MOL0     C 6420   9.331   6.375  -0.165 -0.1069  0.7333 -0.1748
  807MOL0     C 6421   9.228   6.274  -0.131  0.1912  0.6535  0.3205
  807MOL0     O 6422   9.216   6.176  -0.237 -0.6317  0.4551 -0.4134
  807MOL0     C 6423   9.167   6.057  -0.194  0.1477 -0.2326 -0.2483
  807MOL0     C 6424   9.033   6.027  -0.182  0.0938 -0.4473  0.3837
  807MOL0     C 6425   8.994   5.919  -0.103  0.0103 -0.5187  0.3015
  807MOL0     C 6426   9.081   5.826  -0.044 -0.3443 -0.9997  1.0945
  807MOL0     O 6427   9.039   5.722   0.028 -0.9112  0.5956 -0.3014
  807MOL0     C 6428   9.119   5.597   0.047  0.9040  0.6938  0.0217
  807MOL0     C 6429   9.162   5.535  -0.086  0.5091  0.0354 -0.0153
  807MOL0     C 6430   9.047   5.478  -0.168  0.1791  0.0259  0.3293
  807MOL0     C 6431   9.081   5.456  -0.313 -0.1780  0.4048  0.2431
  807MOL0     C 6432   8.979   5.396  -0.412 -0.5563 -0.6025 -0.0707
  807MOL0     C 6433   8.844   5.462  -0.405 -0.0396  0.0674 -0.4170
  807MOL0     C 6434   8.752   5.405  -0.526 -1.1955 -0.1070  0.3005
  807MOL0     C 6435   8.597   5.403  -0.502 -0.3877  0.2470  0.2299
  807MOL0    Cl 6436   8.562   5.344  -0.341  0.5164  0.1768  0.2547
  807MOL0     C 6437   9.222   5.853  -0.072 -0.5568  0.4884  1.0165
  807MOL0     C 6438   9.260   5.971  -0.138  0.2761 -0.6383 -0.8673
  807MOL0     O 6439   9.172   6.271  -0.022  0.3866 -0.2049  0.6757
  807MOL0     C 6440   9.404   6.365  -0.291 -0.6039 -0.0481  0.1759
  807MOL0     C 6441   9.508   6.459  -0.308 -0.1687  0.0514  0.0028
  807MOL0     N 6442  10.077   6.818  -0.062 -0.3471  0.9773 -0.1362
  807MOL0     N 6443  10.085   6.790   0.065  0.5498  0.0534 -0.0542
  807MOL0     C 6444   9.105   7.161   0.594 -0.2005 -0.9264 -0.7880
  807MOL0     C 6445   8.992   7.241   0.617  0.0705 -0.3846 -0.1808
  807MOL0     C 6446   8.679   7.541   0.702  0.4091 -0.5144  0.7277
  807MOL0     C 6447   8.580   7.510   0.796  0.1900  1.0981  0.1019
  807MOL0     C 6448   8.464   7.570   0.804 -0.0531 -0.0064  0.6759
  807MOL0     C 6449   8.431   7.676   0.719  0.0166 -0.4563  0.4659
  807MOL0     O 6450   8.314   7.740   0.723 -0.8444 -0.3569  0.3384
  807MOL0     C 6451   8.317   7.861   0.805  0.2172  0.3168  0.1278
  807MOL0     C 6452   8.186   7.934   0.837 -0.7005 -0.2871  0.0185
  807MOL0     C 6453   8.091   7.851   0.923  0.4523 -0.1439  0.7431
  807MOL0     C 6454   7.954   7.930   0.933 -0.9457 -0.4331 -0.4753
  807MOL0     C 6455   7.849   7.845   0.985 -0.5984  0.4382 -0.5142
  807MOL0     C 6456   7.766   7.781   1.036  0.1933  0.7126 -1.0344
  807MOL0     C 6457   8.528   7.708   0.616 -0.2055 -0.8862  0.2366
  807MOL0     C 6458   8.654   7.645   0.611  0.2236 -0.5791  0.0967
  807MOL0     H 6459   9.097   7.536   0.494 -0.5448 -0.2960 -2.5481
  807MOL0     H 6460   9.309   7.420   0.503  0.3816 -1.0863 -0.4756
  807MOL0     H 6461   9.268   6.957   0.568 -2.9719  1.2036  2.4204
  807MOL0     H 6462   9.342   7.036   0.716  0.3869  4.5078 -0.6971
  807MOL0     H 6463   9.491   6.864   0.643 -1.2302  0.9294  1.0384
  807MOL0     H 6464   9.573   7.011   0.619 -1.5421  0.7314  0.7216
  807MOL0     H 6465   9.481   6.981   0.364  1.5802 -0.8873 -1.4112
  807MOL0     H 6466   9.421   6.830   0.419  2.3322 -3.6204  1.1003
  807MOL0     H 6467   9.727   6.887   0.458  1.2200 -2.9721  1.7895
  807MOL0     H 6468   9.649   6.738   0.488  1.4000  1.1020  2.4317
  807MOL0     H 6469   9.669   6.868   0.211  1.9550  0.3690  1.4419
  807MOL0     H 6470   9.561   6.745   0.247 -0.3929  0.7814 -0.8522
  807MOL0     H 6471   9.773   6.651   0.168 -0.6700  2.4444 -0.7795
  807MOL0     H 6472   9.724   6.591   0.328 -2.2452  0.7263  0.7934
  807MOL0     H 6473   9.900   6.713   0.427  1.0805  0.8031 -0.4352
  807MOL0     H 6474   9.970   6.636   0.288 -1.0934 -0.8640  1.5975
  807MOL0     H 6475  10.053   6.872   0.327  0.2441  0.7224 -0.6740
  807MOL0     H 6476   9.893   6.928   0.305  1.1481  0.6513 -2.0349
  807MOL0     H 6477   9.815   6.966   0.053  1.6515  3.8881 -0.0701
  807MOL0     H 6478  10.039   6.973  -0.263  0.8705 -0.3537  2.7493
  807MOL0     H 6479   9.888   7.048  -0.218  2.6061  1.7227 -0.9090
  807MOL0     H 6480   9.896   6.749  -0.298  0.7536  0.6721  0.8253
  807MOL0     H 6481   9.876   6.880  -0.416  1.2970  1.6264  0.7703
  807MOL0     H 6482   9.697   6.896  -0.176 -1.0481 -0.9110  0.4602
  807MOL0     H 6483   9.669   6.954  -0.336  0.1999 -1.1872  0.4136
  807MOL0     H 6484   9.617   6.731  -0.421  1.2372  0.1024  0.9270
  807MOL0     H 6485   9.516   6.776  -0.280  0.4982 -1.9968  1.8329
  807MOL0     H 6486   9.496   6.630  -0.017 -0.5623  0.5341 -1.2028
  807MOL0     H 6487   9.298   6.482   0.017  0.0340 -1.4466  0.2402
  807MOL0     H 6488   8.957   6.093  -0.222  1.7188  0.4767 -1.3296
  807MOL0     H 6489   8.886   5.911  -0.090 -0.1308  1.4169  0.6487
  807MOL0     H 6490   9.060   5.526   0.106  2.8083 -0.0684  1.1268
  807MOL0     H 6491   9.207   5.611   0.112  2.5844 -0.7438 -1.8000
  807MOL0     H 6492   9.233   5.455  -0.065 -2.2504 -2.1248  1.9531
  807MOL0     H 6493   9.215   5.604  -0.152 -0.9021 -0.1790 -1.4479
  807MOL0     H 6494   8.956   5.538  -0.166  1.1129  1.4946 -0.0021
  807MOL0     H 6495   9.022   5.382  -0.121 -2.0075 -0.1732 -1.1255
  807MOL0     H 6496   9.094   5.556  -0.355 -0.4241  0.5563  0.5292
  807MOL0     H 6497   9.172   5.397  -0.325 -1.2076 -0.8108 -2.5791
  807MOL0     H 6498   8.982   5.291  -0.380  2.1931 -0.8065 -0.7141
  807MOL0     H 6499   9.024   5.403  -0.511  3.5833  0.3289  1.6559
  807MOL0     H 6500   8.854   5.570  -0.420 -2.7452  0.2872 -0.9957
  807MOL0     H 6501   8.806   5.452  -0.303 -2.6735  2.4156 -1.0337
  807MOL0     H 6502   8.782   5.465  -0.612  0.7193  0.8160  1.5530
  807MOL0     H 6503   8.792   5.305  -0.544  4.1526  2.2553 -3.4849
  807MOL0     H 6504   8.544   5.336  -0.571  0.7233 -0.2550 -0.1536
  807MOL0     H 6505   8.557   5.503  -0.521 -0.5254 -0.2957 -2.8606
  807MOL0     H 6506   9.294   5.779  -0.039 -2.4262 -2.4407 -0.9452
  807MOL0     H 6507   9.365   5.996  -0.149  0.1213  1.8308  1.9951
  807MOL0     H 6508   9.384   6.295  -0.371  0.0618  3.2526 -3.1810
  807MOL0     H 6509   9.565   6.467  -0.400  0.1392 -3.9283 -0.3451
  807MOL0     H 6510   9.091   7.058   0.626 -0.0239 -0.8003 -0.2989
  807MOL0     H 6511   8.897   7.214   0.662 -0.2667 -0.4787 -0.9458
  807MOL0     H 6512   8.600   7.422   0.856  0.3699  2.0168  1.4285
  807MOL0     H 6513   8.374   7.541   0.858 -1.8961 -2.7057 -3.3390
  807MOL0     H 6514   8.388   7.931   0.760 -0.7385 -0.3710 -2.6579
  807MOL0     H 6515   8.355   7.848   0.907 -2.6135 -2.3089  0.9963
  807MOL0     H 6516   8.201   8.033   0.881 -0.3750 -0.3413  0.0370
  807MOL0     H 6517   8.130   7.954   0.745 -4.4973 -2.5470  1.5842
  807MOL0     H 6518   8.123   7.821   1.023 -2.2513 -2.7929  0.9747
  807MOL0     H 6519   8.070   7.763   0.861 -2.6878 -0.0394  1.4725
  807MOL0     H 6520   7.961   8.020   0.995  2.3609 -1.4925  0.9449
  807MOL0     H 6521   7.934   7.961   0.830  0.4379  1.4112 -0.2509
  807MOL0     H 6522   7.690   7.721   1.080  1.0502 -0.6034 -1.2728
  807MOL0     H 6523   8.513   7.775   0.532 -1.8021  0.7265  1.7076
  807MOL0     H 6524   8.721   7.664   0.528  1.1876  0.2284  1.0348
  808MOL0     O 6525   7.010   3.289   9.781 -0.3717  0.1697  0.1795
  808MOL0     C 6526   7.050   3.220   9.686 -0.0182  0.6105 -0.5789
  808MOL0     O 6527   6.969   3.155   9.601  0.0519  0.5184 -0.1784
  808MOL0     C 6528   6.832   3.169   9.598 -0.7138 -1.1667  0.7206
  808MOL0     C 6529   6.762   3.057   9.560 -0.5150  0.1858 -1.1139
  808MOL0     C 6530   6.627   3.055   9.573  0.3543  0.1643  0.0180
  808MOL0     C 6531   6.560   3.164   9.614  0.2525 -0.3447 -0.2064
  808MOL0     O 6532   6.419   3.152   9.633 -0.1419 -0.3001  0.5959
  808MOL0     C 6533   6.352   3.277   9.672  0.6810 -0.9110 -0.2927
  808MOL0     C 6534   6.206   3.245   9.693 -0.0724  0.8931  0.4184
  808MOL0     C 6535   6.139   3.208   9.555 -0.3805 -0.3474  0.1558
  808MOL0     C 6536   5.990   3.198   9.559  1.3574  0.2041 -0.2118
  808MOL0     C 6537   5.937   3.270   9.433  0.1008 -0.2487 -0.6314
  808MOL0     C 6538   5.982   3.208   9.304  0.2433  0.5473  0.3696
  808MOL0     C 6539   5.908   3.235   9.171  0.3243 -0.6695 -0.5488
  808MOL0     C 6540   5.912   3.391   9.139  0.8047  0.4134  0.2386
  808MOL0     N 6541   5.795   3.457   9.211 -1.1380  0.0315  0.4424
  808MOL0     C 6542   5.662   3.456   9.179  0.3291  0.7444  0.3133
  808MOL0     C 6543   5.599   3.529   9.278 -0.1254 -0.9634 -0.0003
  808MOL0     C 6544   5.452   3.566   9.280  0.5063 -0.0317 -0.4609
  808MOL0     C 6545   5.380   3.523   9.403  0.7494 -0.3519 -0.6494
  808MOL0     C 6546   5.433   3.564   9.547  0.2811 -0.0501  0.3124
  808MOL0     C 6547   5.449   3.711   9.563 -0.3482 -0.0691 -0.1660
  808MOL0     O 6548   5.510   3.745   9.693  0.9620 -0.9374  0.1722
  808MOL0     C 6549   5.644   3.759   9.708 -0.3153 -0.0408 -0.4765
  808MOL0     C 6550   5.683   3.770   9.842 -0.1536 -0.2447  0.4227
  808MOL0     C 6551   5.811   3.772   9.881 -0.5850  0.2260 -0.6465
  808MOL0     C 6552   5.917   3.764   9.784 -0.1061  0.4243 -0.0747
  808MOL0     C 6553   6.063   3.743   9.817  0.0810  0.3119  1.0099
  808MOL0     O 6554   6.145   3.685   9.725 -0.3950  0.8917 -0.1250
  808MOL0     C 6555   6.281   3.672   9.739  0.8328 -0.1057 -0.2669
  808MOL0     C 6556   6.344   3.577   9.825 -0.2476 -0.0441  0.6265
  808MOL0     C 6557   6.485   3.578   9.830 -0.4028 -1.1099  0.1063
  808MOL0     C 6558   6.559   3.667   9.751 -0.4157  1.1630 -0.0419
  808MOL0     O 6559   6.694   3.663   9.739 -0.1526 -0.3996 -0.2690
  808MOL0     C 6560   6.768   3.649   9.862  0.1570 -0.4060  0.1145
  808MOL0     C 6561   6.917   3.683   9.839  0.6897  0.7660 -0.5335
  808MOL0     C 6562   7.018   3.623   9.937 -0.2377  0.2721  0.3195
  808MOL0     C 6563   7.165   3.643   9.905 -0.0307  0.2783  0.0514
  808MOL0     C 6564   7.268   3.610  10.012 -0.2816  0.3377 -0.0056
  808MOL0     C 6565   7.404   3.636   9.944  0.0993  0.2317  0.5848
  808MOL0     C 6566   7.512   3.616  10.047 -0.3762 -0.3708 -0.5610
  808MOL0     C 6567   7.652   3.587   9.991 -0.0912  0.2207 -0.0234
  808MOL0    Cl 6568   7.733   3.712   9.896 -0.2157  0.4165  0.2167
  808MOL0     C 6569   6.502   3.764   9.670 -0.4344  0.1148  0.1493
  808MOL0     C 6570   6.359   3.770   9.671 -0.2890  0.8959 -1.0843
  808MOL0     O 6571   6.096   3.791   9.925  0.2545  0.7106  0.2351
  808MOL0     C 6572   5.875   3.760   9.648  0.2966 -0.6816  0.2614
  808MOL0     C 6573   5.744   3.755   9.616 -0.5828  0.2488  0.9125
  808MOL0     N 6574   5.691   3.562   9.367 -0.5460 -0.2846  0.5121
  808MOL0     N 6575   5.811   3.515   9.331 -0.6025 -0.6000  0.4038
  808MOL0     C 6576   6.629   3.286   9.641 -0.3637  0.5799  0.2999
  808MOL0     C 6577   6.765   3.290   9.620 -0.2076  0.7361 -1.0899
  808MOL0     C 6578   7.198   3.217   9.674  0.5243  0.9161 -0.4521
  808MOL0     C 6579   7.256   3.146   9.570 -0.1262  0.4295  0.8061
  808MOL0     C 6580   7.400   3.122   9.569 -0.3823 -0.0048 -0.1044
  808MOL0     C 6581   7.486   3.181   9.665  1.1674  0.1475 -0.1795
  808MOL0     O 6582   7.615   3.152   9.668 -0.0898  0.3611  0.3711
  808MOL0     C 6583   7.656   3.042   9.761  0.9366 -0.4456  0.6805
  808MOL0     C 6584   7.808   2.995   9.745 -0.1065 -0.1659 -1.1555
  808MOL0     C 6585   7.808   2.888   9.641 -0.0799  0.6108 -0.0105
  808MOL0     C 6586   7.758   2.742   9.685  0.2947  0.2719 -0.4767
  808MOL0     C 6587   7.865   2.676   9.760 -0.4370  0.1288  0.1601
  808MOL0     C 6588   7.953   2.614   9.816  0.3380 -0.4291  0.6662
  808MOL0     C 6589   7.429   3.252   9.771 -0.0819  0.5568 -0.5155
  808MOL0     C 6590   7.291   3.276   9.772  1.1668  0.1066  0.2637
  808MOL0     H 6591   6.833   2.976   9.542 -0.5088 -0.1794  0.4137
  808MOL0     H 6592   6.580   2.958   9.557  2.2408 -0.7632 -0.2141
  808MOL0     H 6593   6.367   3.361   9.604 -0.1267 -0.6732 -0.1955
  808MOL0     H 6594   6.392   3.305   9.769  2.7009 -0.8794 -1.1025
  808MOL0     H 6595   6.152   3.333   9.730 -2.0739  0.0128 -0.2766
  808MOL0     H 6596   6.182   3.162   9.760 -0.3012 -0.1458 -0.9116
  808MOL0     H 6597   6.200   3.121   9.530  0.8450  0.8388 -1.1910
  808MOL0     H 6598   6.168   3.299   9.502 -2.4756  0.8025  0.8664
  808MOL0     H 6599   5.969   3.091   9.574 -1.1052  0.8770  1.7288
  808MOL0     H 6600   5.958   3.254   9.647  2.6090  2.1351 -0.9328
  808MOL0     H 6601   5.977   3.372   9.437 -0.9002  0.1335 -0.0165
  808MOL0     H 6602   5.828   3.259   9.436  0.1270 -0.3597  1.9822
  808MOL0     H 6603   5.991   3.100   9.317  3.2897  0.6463 -0.1115
  808MOL0     H 6604   6.090   3.226   9.296  1.1741 -3.2925  1.9259
  808MOL0     H 6605   5.957   3.186   9.086 -0.1037 -0.0893 -1.1435
  808MOL0     H 6606   5.802   3.210   9.184  0.1370  0.4556  0.2622
  808MOL0     H 6607   5.895   3.417   9.034 -0.9363 -1.0353  0.1116
  808MOL0     H 6608   6.007   3.436   9.168  0.4163  1.9049 -0.7193
  808MOL0     H 6609   5.602   3.412   9.099  1.4137  0.4334 -0.3547
  808MOL0     H 6610   5.389   3.532   9.197 -2.7188 -1.0259  2.1707
  808MOL0     H 6611   5.435   3.674   9.274  0.3436  0.3041  3.3717
  808MOL0     H 6612   5.378   3.414   9.409 -0.2006 -0.3700 -1.0086
  808MOL0     H 6613   5.275   3.548   9.385  0.2532 -2.6774 -1.3373
  808MOL0     H 6614   5.371   3.536   9.632  0.7614 -2.4541 -0.0509
  808MOL0     H 6615   5.531   3.519   9.564  0.8712  2.4242  5.4912
  808MOL0     H 6616   5.358   3.771   9.554  0.7103  2.2569  2.8966
  808MOL0     H 6617   5.519   3.747   9.487 -2.5215  3.3659 -0.7700
  808MOL0     H 6618   5.605   3.784   9.916 -0.8656  0.2108 -0.3937
  808MOL0     H 6619   5.831   3.777   9.987  3.7215  1.8975 -1.3577
  808MOL0     H 6620   6.290   3.504   9.883 -2.8136  2.0098  1.0244
  808MOL0     H 6621   6.533   3.489   9.869 -0.4707 -1.4709 -0.6084
  808MOL0     H 6622   6.759   3.544   9.892  4.3059 -1.6212 -1.9835
  808MOL0     H 6623   6.740   3.727   9.933  1.5110  1.9232 -1.7808
  808MOL0     H 6624   6.935   3.791   9.827 -1.3082  0.8705 -3.3852
  808MOL0     H 6625   6.933   3.638   9.741  1.8016  2.3408 -1.1297
  808MOL0     H 6626   6.991   3.517   9.943 -3.0879  0.8998  0.0955
  808MOL0     H 6627   7.000   3.673  10.033 -0.1751  2.3732 -0.6892
  808MOL0     H 6628   7.188   3.583   9.816 -1.3167 -2.9760  1.7278
  808MOL0     H 6629   7.178   3.745   9.867 -4.7577  0.0641 -3.0014
  808MOL0     H 6630   7.253   3.513  10.060  0.9415 -1.1340 -2.4550
  808MOL0     H 6631   7.261   3.684  10.093  1.5650 -1.2020  1.6756
  808MOL0     H 6632   7.411   3.729   9.886 -0.3295  0.8066  1.4326
  808MOL0     H 6633   7.407   3.555   9.870 -3.7198 -1.4407  1.9517
  808MOL0     H 6634   7.518   3.706  10.108  1.7751  0.4437 -1.8685
  808MOL0     H 6635   7.486   3.535  10.115 -0.0262 -1.1052 -1.2855
  808MOL0     H 6636   7.642   3.493   9.935 -2.8110  0.4226  0.0040
  808MOL0     H 6637   7.711   3.557  10.077  1.2130  1.7916 -0.3113
  808MOL0     H 6638   6.550   3.841   9.611  1.7802  1.0467  2.9631
  808MOL0     H 6639   6.304   3.847   9.617  2.7288  0.6677 -4.9339
  808MOL0     H 6640   5.949   3.739   9.571  0.6170 -1.8089  0.8683
  808MOL0     H 6641   5.732   3.738   9.510 -0.0109 -1.3219  1.0719
  808MOL0     H 6642   6.570   3.370   9.677 -0.1893  0.3639  1.0977
  808MOL0     H 6643   6.827   3.377   9.635 -0.3180  0.5234  1.0058
  808MOL0     H 6644   7.196   3.100   9.492  1.2034  0.0888 -0.0628
  808MOL0     H 6645   7.455   3.060   9.500  2.0603 -0.2650  1.9086
  808MOL0     H 6646   7.581   2.964   9.743  2.0472 -1.7637  1.5581
  808MOL0     H 6647   7.635   3.082   9.861  0.0223  2.9658 -0.7370
  808MOL0     H 6648   7.872   3.081   9.721 -0.6025  0.1576 -1.3357
  808MOL0     H 6649   7.851   2.965   9.841  0.0081  2.0299 -0.4648
  808MOL0     H 6650   7.906   2.900   9.594  0.5250  1.1167  1.3264
  808MOL0     H 6651   7.738   2.931   9.568  0.4772  1.7942  0.1303
  808MOL0     H 6652   7.664   2.753   9.740  0.5367 -0.0980  0.0179
  808MOL0     H 6653   7.733   2.678   9.600 -2.5854 -0.5562  0.8354
  808MOL0     H 6654   8.031   2.563   9.869  0.7415 -2.1457 -1.4404
  808MOL0     H 6655   7.498   3.294   9.843 -1.4143  0.6965  0.7106
  808MOL0     H 6656   7.247   3.333   9.853 -3.6451 -2.7971  0.0584
  809MOL0     O 6657   0.794   8.413   9.076  0.8864  0.0037 -0.0232
  809MOL0     C 6658   0.733   8.306   9.088  0.8797  0.3568 -0.7742
  809MOL0     O 6659   0.790   8.185   9.126 -0.0545  0.3264 -0.0867
  809MOL0     C 6660   0.932   8.182   9.107 -0.0992 -0.5578 -0.0165
  809MOL0     C 6661   0.995   8.186   8.979 -0.2329  0.3850 -0.3061
  809MOL0     C 6662   1.131   8.229   8.975  0.2858 -0.1527  0.8888
  809MOL0     C 6663   1.207   8.250   9.086  0.1579  0.9743  0.1671
  809MOL0     O 6664   1.337   8.269   9.071 -0.1301 -0.3897  0.3571
  809MOL0     C 6665   1.423   8.288   9.188  0.7629 -0.1541  0.3045
  809MOL0     C 6666   1.572   8.290   9.132 -0.5038  0.5449 -0.1816
  809MOL0     C 6667   1.680   8.288   9.245 -0.4558  0.7694 -0.2030
  809MOL0     C 6668   1.813   8.259   9.175  0.9564  0.0954 -0.5924
  809MOL0     C 6669   1.915   8.242   9.286  0.8979  0.0124  0.8751
  809MOL0     C 6670   2.064   8.271   9.240  0.3361  0.1284  0.1290
  809MOL0     C 6671   2.162   8.194   9.330 -0.3121 -0.3418 -0.7835
  809MOL0     C 6672   2.181   8.260   9.470 -0.0622  1.1569 -0.3590
  809MOL0     N 6673   2.319   8.323   9.496  0.2571  0.5339  0.1025
  809MOL0     C 6674   2.403   8.270   9.584 -1.1499  0.1227 -0.1478
  809MOL0     C 6675   2.521   8.330   9.570  0.7450 -0.2081 -0.6653
  809MOL0     C 6676   2.644   8.307   9.667 -0.1469  0.4779 -0.3197
  809MOL0     C 6677   2.772   8.373   9.604  0.3347 -0.0682  0.6958
  809MOL0     C 6678   2.882   8.373   9.706 -0.2993 -0.8404 -0.5168
  809MOL0     C 6679   2.971   8.254   9.687  0.3198 -0.8734 -0.4992
  809MOL0     O 6680   3.054   8.256   9.794  0.2319  1.1536  0.4820
  809MOL0     C 6681   3.168   8.186   9.789  0.1465  0.3621  0.1684
  809MOL0     C 6682   3.178   8.051   9.799  0.5957  0.3352  0.6331
  809MOL0     C 6683   3.301   7.972   9.796  0.0351 -0.1376  0.5888
  809MOL0     C 6684   3.428   8.044   9.785  1.3264 -0.2909 -0.4907
  809MOL0     C 6685   3.553   7.973   9.756 -0.4974  0.0924  0.4266
  809MOL0     O 6686   3.551   7.846   9.705 -0.5333 -0.5639 -0.4600
  809MOL0     C 6687   3.663   7.761   9.713 -0.7228 -0.8424 -0.3951
  809MOL0     C 6688   3.713   7.698   9.596  0.9217 -0.4288  0.0661
  809MOL0     C 6689   3.836   7.628   9.610  1.1543  0.5383  0.2376
  809MOL0     C 6690   3.914   7.613   9.730 -0.3250 -0.5533  0.6143
  809MOL0     O 6691   4.024   7.531   9.733  0.2461  0.4681 -0.4367
  809MOL0     C 6692   4.061   7.473   9.853  0.2478  0.5491 -0.7257
  809MOL0     C 6693   4.148   7.353   9.817 -0.9394  0.1541  0.9956
  809MOL0     C 6694   4.272   7.410   9.740  0.0534  0.3743 -0.6261
  809MOL0     C 6695   4.406   7.375   9.812 -0.8331 -0.2495 -0.1032
  809MOL0     C 6696   4.526   7.454   9.757  1.4943  0.1073  0.2407
  809MOL0     C 6697   4.652   7.429   9.830 -0.1299 -0.0341  0.1322
  809MOL0     C 6698   4.740   7.563   9.855  0.1414  0.7816  0.1069
  809MOL0     C 6699   4.849   7.554   9.959 -0.3695 -1.0953  0.1473
  809MOL0    Cl 6700   4.956   7.442   9.874  0.2004  0.0995 -0.4172
  809MOL0     C 6701   3.862   7.675   9.850  0.3274 -0.4053  0.2834
  809MOL0     C 6702   3.743   7.751   9.834  0.3241 -0.9292  0.3441
  809MOL0     O 6703   3.657   8.030   9.792 -0.0654 -0.9285 -0.7678
  809MOL0     C 6704   3.406   8.180   9.757 -0.1458 -0.1319  0.9293
  809MOL0     C 6705   3.284   8.249   9.757 -0.0250 -0.7229  0.5361
  809MOL0     N 6706   2.505   8.421   9.464 -0.2916 -0.7541  0.1935
  809MOL0     N 6707   2.383   8.416   9.422 -0.0768 -0.2351  0.3607
  809MOL0     C 6708   1.152   8.239   9.207 -0.2324 -0.9593  0.5277
  809MOL0     C 6709   1.008   8.212   9.223 -0.2812  0.6820  0.2372
  809MOL0     C 6710   0.589   8.322   9.063  0.3503 -0.1094 -0.0691
  809MOL0     C 6711   0.513   8.198   9.056 -0.4568  0.2185 -1.0415
  809MOL0     C 6712   0.379   8.212   9.030 -0.1166 -0.0883 -0.7194
  809MOL0     C 6713   0.318   8.328   9.007 -0.0385 -0.4774 -1.0694
  809MOL0     O 6714   0.182   8.327   8.973  0.2245 -0.2370  0.6753
  809MOL0     C 6715   0.124   8.456   8.948 -0.3690 -0.8618  0.5947
  809MOL0     C 6716  -0.020   8.421   8.909  0.7419 -0.2574 -1.1685
  809MOL0     C 6717  -0.119   8.533   8.924 -0.0482  0.1010 -1.2569
  809MOL0     C 6718  -0.084   8.644   8.825  0.0890  0.2628  0.1824
  809MOL0     C 6719  -0.178   8.758   8.822 -0.0378  0.2865  0.3527
  809MOL0     C 6720  -0.271   8.832   8.824 -1.0030 -0.0666  0.8689
  809MOL0     C 6721   0.392   8.452   9.018 -0.1577  0.2429  0.9213
  809MOL0     C 6722   0.531   8.453   9.047  1.0052  0.3794  0.9321
  809MOL0     H 6723   0.928   8.164   8.897 -1.5391  2.7631  0.0347
  809MOL0     H 6724   1.180   8.239   8.879 -0.8393 -0.8552  0.2197
  809MOL0     H 6725   1.425   8.202   9.256  1.9443 -0.7013 -0.3815
  809MOL0     H 6726   1.395   8.381   9.239 -3.3873 -2.1736  2.1285
  809MOL0     H 6727   1.581   8.382   9.073 -1.8351  0.6421 -0.2648
  809MOL0     H 6728   1.572   8.203   9.066 -1.3282 -0.1911  0.7575
  809MOL0     H 6729   1.656   8.206   9.313  0.9129  0.8643  0.4232
  809MOL0     H 6730   1.678   8.384   9.296  3.7469 -0.1238  2.1301
  809MOL0     H 6731   1.809   8.162   9.124  0.4956 -0.3495  0.2546
  809MOL0     H 6732   1.833   8.336   9.101  1.6965 -0.6226 -1.1549
  809MOL0     H 6733   1.909   8.141   9.327 -2.3880 -0.3764 -0.2733
  809MOL0     H 6734   1.898   8.321   9.359  1.1454  1.5119 -0.6250
  809MOL0     H 6735   2.080   8.379   9.245  2.5368 -0.1035 -0.7967
  809MOL0     H 6736   2.078   8.243   9.135 -0.5356  0.9306 -0.2057
  809MOL0     H 6737   2.131   8.089   9.333  2.5255 -1.2898 -1.4774
  809MOL0     H 6738   2.259   8.181   9.283 -1.3993 -0.5501 -3.1034
  809MOL0     H 6739   2.152   8.179   9.538 -0.0226 -2.2001 -4.0490
  809MOL0     H 6740   2.112   8.345   9.473 -0.1310  1.1432 -1.2885
  809MOL0     H 6741   2.375   8.190   9.651 -0.4769  0.0051  0.0015
  809MOL0     H 6742   2.666   8.200   9.675 -0.6956  0.3541 -0.4569
  809MOL0     H 6743   2.621   8.347   9.767 -1.2258  2.9679 -1.4900
  809MOL0     H 6744   2.755   8.477   9.576  0.3204 -0.7447 -2.1238
  809MOL0     H 6745   2.808   8.314   9.519  1.6282  0.2578  0.9977
  809MOL0     H 6746   2.936   8.467   9.691 -2.0444  0.8035  2.4863
  809MOL0     H 6747   2.851   8.385   9.810  1.5545 -1.9038  0.2008
  809MOL0     H 6748   3.036   8.272   9.601  2.4112  2.8163  1.5753
  809MOL0     H 6749   2.920   8.158   9.678 -0.2191 -0.5254 -1.2888
  809MOL0     H 6750   3.087   7.992   9.798  0.7460  0.0922  1.1031
  809MOL0     H 6751   3.297   7.863   9.791 -0.8190 -0.0709 -0.3547
  809MOL0     H 6752   3.657   7.701   9.503  2.4716  3.4386 -0.9783
  809MOL0     H 6753   3.879   7.582   9.521  0.0813  0.1380 -0.0945
  809MOL0     H 6754   3.976   7.453   9.920 -0.7909  0.5238 -2.0167
  809MOL0     H 6755   4.116   7.556   9.898  2.4226 -3.0717  4.2740
  809MOL0     H 6756   4.083   7.304   9.743 -0.5931  2.5709 -1.0395
  809MOL0     H 6757   4.177   7.296   9.906  3.8636  2.1188  0.9555
  809MOL0     H 6758   4.275   7.519   9.747  0.6805  0.2365  2.5686
  809MOL0     H 6759   4.281   7.364   9.641 -0.3071  0.7725 -0.8478
  809MOL0     H 6760   4.404   7.399   9.919  2.3309  0.4794 -0.0932
  809MOL0     H 6761   4.450   7.276   9.795  2.7730  0.9935  0.9240
  809MOL0     H 6762   4.486   7.555   9.766  1.0043 -0.0207 -0.4624
  809MOL0     H 6763   4.545   7.445   9.650 -3.3718  4.6485 -1.4135
  809MOL0     H 6764   4.714   7.355   9.778  3.0704 -0.6305  4.2675
  809MOL0     H 6765   4.638   7.390   9.931  0.2662  0.4132  0.3636
  809MOL0     H 6766   4.781   7.574   9.755  0.6477 -1.3390  0.0457
  809MOL0     H 6767   4.680   7.653   9.875  0.4341  0.8828  0.5377
  809MOL0     H 6768   4.807   7.530  10.057  1.3095 -0.2766  1.1093
  809MOL0     H 6769   4.909   7.645   9.962  1.3482 -2.0906 -1.5133
  809MOL0     H 6770   3.910   7.685   9.948  0.3983 -1.3329  0.3452
  809MOL0     H 6771   3.690   7.813   9.905 -2.3443  1.2875 -3.2255
  809MOL0     H 6772   3.499   8.234   9.741 -0.0577 -0.4589  0.2963
  809MOL0     H 6773   3.303   8.355   9.743 -0.9311 -0.8330 -2.1585
  809MOL0     H 6774   1.203   8.246   9.303 -2.6253  1.5027  1.7740
  809MOL0     H 6775   0.952   8.229   9.314 -3.3075  1.3388 -1.5976
  809MOL0     H 6776   0.555   8.102   9.084 -1.9998  0.5462  3.0852
  809MOL0     H 6777   0.313   8.127   9.045 -0.3412  0.3985  1.4014
  809MOL0     H 6778   0.185   8.507   8.873 -0.8137  0.7687  1.3099
  809MOL0     H 6779   0.129   8.520   9.036 -2.1184 -1.6828  1.3323
  809MOL0     H 6780  -0.014   8.392   8.804 -2.6789  0.9113 -1.8146
  809MOL0     H 6781  -0.058   8.333   8.962  0.0800  1.5012  1.4741
  809MOL0     H 6782  -0.120   8.578   9.024  0.2542 -2.4225 -0.0456
  809MOL0     H 6783  -0.221   8.498   8.907 -0.6869  1.0753  0.4223
  809MOL0     H 6784   0.013   8.686   8.853  0.7282  1.4922 -3.3193
  809MOL0     H 6785  -0.080   8.601   8.724  1.0561 -0.7585  0.6542
  809MOL0     H 6786  -0.354   8.900   8.827 -0.4394  0.7881 -1.1842
  809MOL0     H 6787   0.360   8.553   8.993  0.2364  0.0653 -0.4259
  809MOL0     H 6788   0.596   8.540   9.045  0.1970  0.9966  0.7943
  810MOL0     O 6789   4.911   8.706   4.765 -0.7908 -0.0766  0.3761
  810MOL0     C 6790   4.986   8.724   4.860  1.1100 -0.6192 -0.1815
  810MOL0     O 6791   4.980   8.660   4.977 -0.2074  0.4709  0.7639
  810MOL0     C 6792   4.887   8.567   4.982  0.3036 -0.5330 -0.3670
  810MOL0     C 6793   4.887   8.443   4.925  0.0347 -0.1132 -0.1471
  810MOL0     C 6794   4.779   8.354   4.944 -0.4505 -0.6633 -0.4433
  810MOL0     C 6795   4.667   8.380   5.026  0.0858 -0.4908  0.2335
  810MOL0     O 6796   4.559   8.300   5.053 -0.6763 -1.0281 -0.0511
  810MOL0     C 6797   4.566   8.170   4.983  0.3414 -0.6587  0.1105
  810MOL0     C 6798   4.446   8.094   5.034  0.1879 -0.1511  0.6781
  810MOL0     C 6799   4.310   8.146   4.977 -0.1123 -0.0108 -0.0675
  810MOL0     C 6800   4.216   8.202   5.084  0.5545  0.1529 -1.0012
  810MOL0     C 6801   4.072   8.223   5.027 -0.5854 -0.8773 -0.0944
  810MOL0     C 6802   3.998   8.092   5.036  0.3721 -0.4370  0.3516
  810MOL0     C 6803   3.865   8.093   4.966 -0.7993  0.1314  1.4697
  810MOL0     C 6804   3.747   8.138   5.055 -0.7733  0.6143 -1.4643
  810MOL0     N 6805   3.620   8.124   4.988 -0.4851 -0.4879 -0.5963
  810MOL0     C 6806   3.560   8.228   4.926 -0.8971 -0.8206 -0.1720
  810MOL0     C 6807   3.440   8.185   4.881  0.8687 -0.2936  0.4933
  810MOL0     C 6808   3.327   8.258   4.803 -0.5727 -0.0866  0.6171
  810MOL0     C 6809   3.232   8.320   4.899  0.9086 -1.0009 -0.1504
  810MOL0     C 6810   3.095   8.247   4.883 -0.3324  0.4351 -0.9089
  810MOL0     C 6811   3.000   8.278   4.997  0.2282  0.6653  0.2163
  810MOL0     O 6812   3.051   8.236   5.125 -0.5541  0.5900 -1.2687
  810MOL0     C 6813   2.948   8.195   5.204 -0.2762  0.3199 -0.2344
  810MOL0     C 6814   2.845   8.270   5.243 -0.2960 -0.0145  0.3528
  810MOL0     C 6815   2.757   8.228   5.344 -0.1389  0.5188 -0.1537
  810MOL0     C 6816   2.772   8.097   5.399 -0.0083 -0.6812 -0.6227
  810MOL0     C 6817   2.677   8.042   5.507  0.0641 -0.1876  0.4901
  810MOL0     O 6818   2.563   8.123   5.539 -0.1473  0.0734  0.1975
  810MOL0     C 6819   2.461   8.071   5.616  1.0002  0.2034  0.6008
  810MOL0     C 6820   2.459   8.050   5.754 -0.5648 -1.0218 -0.6902
  810MOL0     C 6821   2.342   8.000   5.813  0.4053 -0.6573 -0.0631
  810MOL0     C 6822   2.233   7.957   5.742 -0.1278 -0.5022 -0.2320
  810MOL0     O 6823   2.109   7.908   5.802 -1.0765  0.7862 -0.1614
  810MOL0     C 6824   2.065   7.780   5.736  0.3030 -0.1302 -0.2434
  810MOL0     C 6825   1.926   7.803   5.692  0.4781 -0.1975 -0.3703
  810MOL0     C 6826   1.819   7.843   5.801 -0.6986  0.6656  0.0028
  810MOL0     C 6827   1.805   7.995   5.820  0.2361  0.0524 -0.0749
  810MOL0     C 6828   1.660   8.012   5.881  0.1998  0.0357  0.4274
  810MOL0     C 6829   1.652   8.140   5.942 -0.7256 -0.9377  0.3059
  810MOL0     C 6830   1.502   8.170   5.985  0.3643 -0.1824  0.5984
  810MOL0     C 6831   1.497   8.299   6.053 -0.0015  0.0153  1.0219
  810MOL0    Cl 6832   1.333   8.346   6.076 -0.0003 -0.2437 -0.2503
  810MOL0     C 6833   2.234   7.990   5.604  0.2138  0.5897 -0.2340
  810MOL0     C 6834   2.343   8.046   5.540  0.7097  0.5152 -0.4695
  810MOL0     O 6835   2.698   7.939   5.556 -0.0928  0.6453 -0.3100
  810MOL0     C 6836   2.880   8.022   5.355  0.4208  0.2682  0.4782
  810MOL0     C 6837   2.966   8.075   5.261 -0.3914 -0.2139 -0.4300
  810MOL0     N 6838   3.418   8.057   4.917 -0.2729 -0.0599  0.0542
  810MOL0     N 6839   3.530   8.023   4.987  0.0755 -0.6528 -0.0770
  810MOL0     C 6840   4.664   8.512   5.068  0.4182 -0.2857 -0.1003
  810MOL0     C 6841   4.775   8.597   5.065  0.1621  0.0245 -0.5928
  810MOL0     C 6842   5.081   8.829   4.848 -0.1237 -0.8470  0.2651
  810MOL0     C 6843   5.158   8.865   4.962 -0.3542 -0.2919  0.1035
  810MOL0     C 6844   5.262   8.962   4.948 -0.4497  0.9806 -0.2792
  810MOL0     C 6845   5.276   9.029   4.831 -0.5804 -0.4107 -0.2691
  810MOL0     O 6846   5.357   9.139   4.829 -0.0702 -0.1303 -1.0064
  810MOL0     C 6847   5.464   9.159   4.920 -0.2614  0.4364 -0.4539
  810MOL0     C 6848   5.569   9.238   4.846 -0.1903  0.6700 -0.5227
  810MOL0     C 6849   5.701   9.293   4.920  1.0006 -0.4573 -0.0778
  810MOL0     C 6850   5.762   9.193   5.025  0.1840  0.2555 -0.1590
  810MOL0     C 6851   5.886   9.248   5.083  0.0747 -0.1240  0.7011
  810MOL0     C 6852   5.987   9.276   5.145 -0.4441  0.2364  0.0619
  810MOL0     C 6853   5.192   8.996   4.721 -0.0619  0.6716  0.5624
  810MOL0     C 6854   5.104   8.887   4.717 -0.5181 -0.4184 -1.0018
  810MOL0     H 6855   4.955   8.405   4.849  1.1017 -2.0135  1.6564
  810MOL0     H 6856   4.786   8.257   4.895 -2.4667 -1.0221 -0.1208
  810MOL0     H 6857   4.654   8.115   5.017  0.7547  0.6396  1.2198
  810MOL0     H 6858   4.552   8.171   4.874  2.1245 -0.3807 -0.1383
  810MOL0     H 6859   4.452   8.091   5.144  0.8313 -1.0657  0.6294
  810MOL0     H 6860   4.453   7.990   5.002  1.3718  0.3195 -0.6948
  810MOL0     H 6861   4.249   8.067   4.932  0.6939 -1.4160  1.1768
  810MOL0     H 6862   4.337   8.214   4.896  3.4652 -0.9384  0.1680
  810MOL0     H 6863   4.217   8.145   5.177  2.1795 -0.3220 -1.2812
  810MOL0     H 6864   4.254   8.300   5.114 -0.7418  1.3049 -2.8716
  810MOL0     H 6865   4.081   8.257   4.924  0.4492 -0.7938  0.0100
  810MOL0     H 6866   4.029   8.299   5.093 -0.5202 -0.5722 -0.4027
  810MOL0     H 6867   3.978   8.067   5.141  1.1412 -2.1885  0.1239
  810MOL0     H 6868   4.061   8.007   5.008 -2.0069 -2.0574 -0.4500
  810MOL0     H 6869   3.866   8.157   4.877 -0.3963  1.6567  2.5318
  810MOL0     H 6870   3.842   7.991   4.936 -1.1528  0.2397  1.3617
  810MOL0     H 6871   3.759   8.240   5.093  4.4536 -0.7238  1.5494
  810MOL0     H 6872   3.750   8.064   5.136 -1.9133 -1.5200 -3.2875
  810MOL0     H 6873   3.603   8.325   4.900 -3.0966  0.1309 -0.5491
  810MOL0     H 6874   3.276   8.203   4.724 -1.2025 -0.6316  1.3972
  810MOL0     H 6875   3.368   8.341   4.743  0.7192 -1.8847 -1.1092
  810MOL0     H 6876   3.219   8.424   4.868  0.6063 -1.6508 -2.4757
  810MOL0     H 6877   3.263   8.312   5.003  1.6140 -1.3235 -0.3818
  810MOL0     H 6878   3.045   8.260   4.787 -0.0712 -0.4414 -1.1719
  810MOL0     H 6879   3.107   8.139   4.897  2.9455  0.9395  1.3675
  810MOL0     H 6880   2.902   8.234   4.975  0.7795 -0.9168  0.7715
  810MOL0     H 6881   2.987   8.386   5.000 -3.3043  0.3546 -0.1391
  810MOL0     H 6882   2.839   8.371   5.205  2.4369 -0.1357 -0.5741
  810MOL0     H 6883   2.678   8.298   5.370 -0.1149  0.4930 -0.0105
  810MOL0     H 6884   2.548   8.080   5.810  0.5717  1.0618 -3.3903
  810MOL0     H 6885   2.337   8.008   5.921  2.2204  0.6921 -0.0440
  810MOL0     H 6886   2.071   7.703   5.813 -0.4720 -0.2966 -0.3398
  810MOL0     H 6887   2.117   7.748   5.645 -1.7483 -0.5443 -1.3270
  810MOL0     H 6888   1.897   7.711   5.640  0.6276  1.4170 -3.5585
  810MOL0     H 6889   1.935   7.887   5.623 -1.9093  2.3712  2.2060
  810MOL0     H 6890   1.836   7.800   5.900 -0.8247  2.2881  0.7580
  810MOL0     H 6891   1.723   7.798   5.776  0.5611 -1.7012 -0.9442
  810MOL0     H 6892   1.886   8.016   5.890  0.4665  1.3411 -0.7162
  810MOL0     H 6893   1.816   8.057   5.730  0.0265  0.1785 -0.0134
  810MOL0     H 6894   1.656   7.932   5.956  0.7200 -1.2469 -0.8482
  810MOL0     H 6895   1.588   7.991   5.802  1.2924 -2.7674  0.0480
  810MOL0     H 6896   1.688   8.216   5.873  1.6379  0.1757  2.5985
  810MOL0     H 6897   1.717   8.149   6.029  2.6501 -0.9174 -2.0464
  810MOL0     H 6898   1.428   8.191   5.908 -0.5401  0.6610  1.6647
  810MOL0     H 6899   1.463   8.088   6.047 -2.0450  0.5204  0.1037
  810MOL0     H 6900   1.551   8.373   5.993  0.5591 -1.3216 -0.1939
  810MOL0     H 6901   1.548   8.281   6.148  4.1285 -0.3833 -1.0624
  810MOL0     H 6902   2.146   7.980   5.542 -2.5697 -1.6328  3.6379
  810MOL0     H 6903   2.332   8.078   5.437  2.1287 -1.1606 -1.1676
  810MOL0     H 6904   2.901   7.917   5.377 -0.4299 -0.3840 -1.5341
  810MOL0     H 6905   3.047   8.009   5.229 -0.8396 -0.8555 -0.2692
  810MOL0     H 6906   4.587   8.574   5.111  2.8236  4.6561 -2.1237
  810MOL0     H 6907   4.778   8.690   5.120 -0.4303 -0.2553 -0.0824
  810MOL0     H 6908   5.149   8.828   5.064 -2.1831  1.7307  0.7491
  810MOL0     H 6909   5.316   8.992   5.037  0.6045  0.4354 -0.7168
  810MOL0     H 6910   5.507   9.063   4.951 -1.0508 -0.4239 -1.8712
  810MOL0     H 6911   5.443   9.211   5.014  2.7161 -1.4647  1.4404
  810MOL0     H 6912   5.603   9.183   4.758  3.4015 -2.1516  2.3007
  810MOL0     H 6913   5.515   9.325   4.808  0.3820  1.3504  0.2075
  810MOL0     H 6914   5.673   9.387   4.969 -0.0573 -0.8138  0.0342
  810MOL0     H 6915   5.784   9.313   4.852  0.5488 -0.1897 -0.5530
  810MOL0     H 6916   5.688   9.177   5.104 -0.8902 -0.5752 -1.3167
  810MOL0     H 6917   5.779   9.097   4.975  0.0712 -0.6750  1.5090
  810MOL0     H 6918   6.058   9.300   5.221  1.8486 -1.2253 -1.4721
  810MOL0     H 6919   5.217   9.041   4.625  0.7599 -1.9865 -0.5704
  810MOL0     H 6920   5.050   8.850   4.630 -2.9474 -1.3075  0.7592
  811MOL0     O 6921   9.075   5.187   3.006 -0.1912 -0.0999  0.1024
  811MOL0     C 6922   9.051   5.100   3.091 -0.2182 -0.0386  0.4466
  811MOL0     O 6923   9.138   5.032   3.168  0.5333 -0.4955  0.2768
  811MOL0     C 6924   9.274   5.025   3.159 -0.3526  0.1671  0.6485
  811MOL0     C 6925   9.352   5.077   3.050  0.3014 -0.2421 -0.2163
  811MOL0     C 6926   9.487   5.077   3.053 -0.1595 -0.0678  0.1844
  811MOL0     C 6927   9.549   5.005   3.147 -0.2497  0.5145  0.0697
  811MOL0     O 6928   9.684   5.000   3.153  0.1180  0.1596 -0.2399
  811MOL0     C 6929   9.760   4.914   3.247  0.3743 -0.2059  0.2328
  811MOL0     C 6930   9.897   4.931   3.201 -0.0310  0.3389  0.0700
  811MOL0     C 6931   9.964   5.057   3.261 -0.3636 -0.2689 -0.5447
  811MOL0     C 6932  10.108   5.079   3.208 -0.1695 -0.2639 -0.6680
  811MOL0     C 6933  10.164   5.222   3.247 -0.6957 -0.2319 -0.6385
  811MOL0     C 6934  10.267   5.269   3.142 -0.4296  0.0161 -0.8762
  811MOL0     C 6935  10.396   5.183   3.142 -0.3866  0.0801 -0.0256
  811MOL0     C 6936  10.476   5.198   3.016 -0.2150 -0.9475  0.4281
  811MOL0     N 6937  10.599   5.117   3.019  0.2699  0.1271  0.3576
  811MOL0     C 6938  10.706   5.149   3.105  0.8981  0.6785 -0.1038
  811MOL0     C 6939  10.753   5.021   3.137 -0.8541  0.4028  0.2184
  811MOL0     C 6940  10.865   4.991   3.220 -1.0476 -0.3815  0.8396
  811MOL0     C 6941  10.997   5.037   3.158  1.5067  0.4823  0.1778
  811MOL0     C 6942  11.115   5.004   3.252  0.0900 -0.8246  0.8712
  811MOL0     C 6943  11.246   5.073   3.204 -0.0754  0.3469 -0.0313
  811MOL0     O 6944  11.230   5.206   3.258  0.2977 -0.4825  0.4797
  811MOL0     C 6945  11.346   5.284   3.271  0.3027  0.3225  1.3309
  811MOL0     C 6946  11.473   5.251   3.241 -0.3277 -0.6613  1.1510
  811MOL0     C 6947  11.575   5.348   3.262  0.2563 -0.0445  0.5362
  811MOL0     C 6948  11.556   5.476   3.316  0.6650  0.1977  0.0379
  811MOL0     C 6949  11.665   5.561   3.359  0.3923 -0.3377 -0.6552
  811MOL0     O 6950  11.629   5.685   3.405 -0.0537  0.3597  0.0830
  811MOL0     C 6951  11.724   5.774   3.438 -0.0203  1.0143 -0.4318
  811MOL0     C 6952  11.674   5.907   3.440  0.1713  0.2630  0.2642
  811MOL0     C 6953  11.751   6.014   3.475 -0.5171 -0.0773 -0.6839
  811MOL0     C 6954  11.883   5.983   3.523  0.0445  0.1851 -0.1354
  811MOL0     O 6955  11.947   6.086   3.582  0.5157 -0.2020  0.1744
  811MOL0     C 6956  12.044   6.055   3.683  0.8380  0.5372 -0.4838
  811MOL0     C 6957  12.118   6.185   3.738 -1.3780  0.7216  1.3052
  811MOL0     C 6958  12.191   6.258   3.623  0.3141  0.5829  0.1627
  811MOL0     C 6959  12.251   6.394   3.660 -1.6373 -1.2078 -0.1613
  811MOL0     C 6960  12.378   6.425   3.577 -0.0682 -0.3714 -1.0278
  811MOL0     C 6961  12.496   6.340   3.637  0.3485 -0.5928  0.0453
  811MOL0     C 6962  12.625   6.354   3.549  0.1444  0.9390 -0.7152
  811MOL0     C 6963  12.694   6.486   3.548  0.6199  0.4051  1.1529
  811MOL0    Cl 6964  12.839   6.489   3.440 -0.4318 -0.3264  0.1887
  811MOL0     C 6965  11.929   5.849   3.532 -0.8833  0.4476  0.0234
  811MOL0     C 6966  11.852   5.747   3.490 -0.7223 -0.7559  0.8105
  811MOL0     O 6967  11.783   5.521   3.341 -0.0037 -0.4466  0.2845
  811MOL0     C 6968  11.421   5.507   3.340 -1.0771  1.0271 -0.2690
  811MOL0     C 6969  11.319   5.414   3.314  0.0767 -0.2278  0.1736
  811MOL0     N 6970  10.680   4.927   3.072  0.1869  0.2410 -0.5336
  811MOL0     N 6971  10.584   4.980   3.008  0.3298  1.0983 -0.8595
  811MOL0     C 6972   9.478   4.932   3.249 -0.3021 -0.2832 -0.3074
  811MOL0     C 6973   9.340   4.940   3.250  0.0732  0.2369 -0.2034
  811MOL0     C 6974   8.906   5.084   3.113  0.2915 -0.1146 -0.4519
  811MOL0     C 6975   8.800   5.153   3.050 -0.1615  0.2909 -1.0503
  811MOL0     C 6976   8.666   5.145   3.093 -0.4680 -0.1287  0.0396
  811MOL0     C 6977   8.630   5.050   3.197 -0.4705  0.6596 -0.0117
  811MOL0     O 6978   8.503   5.029   3.252  0.2687  0.4671 -0.6604
  811MOL0     C 6979   8.399   5.120   3.210  0.5896 -0.1803  0.3653
  811MOL0     C 6980   8.321   5.062   3.089  0.2028 -0.3705  0.8265
  811MOL0     C 6981   8.215   5.158   3.031  0.1344 -0.7180  0.2535
  811MOL0     C 6982   8.076   5.142   3.101 -0.5637  0.2560 -0.1254
  811MOL0     C 6983   8.000   5.265   3.059  0.3245  0.6222  0.7585
  811MOL0     C 6984   7.956   5.365   3.028  0.0166 -0.5376 -0.6410
  811MOL0     C 6985   8.739   4.977   3.246  0.9467 -0.6133 -0.4267
  811MOL0     C 6986   8.867   4.985   3.204  0.7442 -0.0160  0.1781
  811MOL0     H 6987   9.304   5.113   2.960 -0.6279 -0.7452  0.0701
  811MOL0     H 6988   9.544   5.114   2.968 -1.6005  0.9504 -0.3746
  811MOL0     H 6989   9.725   4.811   3.236 -0.1410 -0.2232  1.7778
  811MOL0     H 6990   9.755   4.951   3.350  4.1302 -1.3353  0.9779
  811MOL0     H 6991   9.900   4.924   3.092  3.9128  0.3990  0.0279
  811MOL0     H 6992   9.964   4.852   3.236 -1.2484  1.4247  5.8879
  811MOL0     H 6993   9.966   5.042   3.369 -1.3897 -2.5888 -0.7978
  811MOL0     H 6994   9.904   5.145   3.235 -0.4042 -0.3417 -0.6973
  811MOL0     H 6995  10.171   4.999   3.246  0.7540  0.1982 -1.2038
  811MOL0     H 6996  10.097   5.077   3.100 -1.8024  0.7969 -0.5706
  811MOL0     H 6997  10.214   5.214   3.344  0.9743  1.2629 -1.3330
  811MOL0     H 6998  10.092   5.304   3.246  1.3868  1.7277 -3.5626
  811MOL0     H 6999  10.290   5.373   3.168 -2.0433 -0.0606  1.0278
  811MOL0     H 7000  10.213   5.268   3.047 -0.4906 -2.3475 -0.8701
  811MOL0     H 7001  10.457   5.209   3.229  0.3208 -0.0883 -0.4650
  811MOL0     H 7002  10.362   5.079   3.141 -4.5556  1.1299 -3.8213
  811MOL0     H 7003  10.499   5.304   3.001  0.5909 -0.9142  1.7602
  811MOL0     H 7004  10.404   5.162   2.942 -0.7873 -2.1423  1.5101
  811MOL0     H 7005  10.737   5.251   3.128 -1.4745  2.1209 -2.5468
  811MOL0     H 7006  10.874   4.883   3.236  1.4349 -0.6880 -1.8329
  811MOL0     H 7007  10.843   5.050   3.309 -1.0696 -0.4739  0.8953
  811MOL0     H 7008  10.987   5.138   3.119 -1.8515  0.8602  1.6347
  811MOL0     H 7009  11.013   4.976   3.069  1.8272  1.3961 -0.3941
  811MOL0     H 7010  11.091   5.023   3.357 -2.3470  1.9938 -0.0646
  811MOL0     H 7011  11.125   4.896   3.241  1.3614 -0.5667 -0.9336
  811MOL0     H 7012  11.252   5.073   3.095  0.4849 -0.4912 -0.0124
  811MOL0     H 7013  11.330   5.016   3.246 -0.1065  0.9981  0.9431
  811MOL0     H 7014  11.498   5.157   3.193 -2.2272 -1.5652  1.8555
  811MOL0     H 7015  11.676   5.312   3.249  0.3123  1.0442 -3.4650
  811MOL0     H 7016  11.573   5.927   3.405 -1.3428 -2.4047  2.6350
  811MOL0     H 7017  11.714   6.115   3.468  1.3532  0.5986 -1.4782
  811MOL0     H 7018  12.123   5.983   3.659  1.3524  0.4304  1.3588
  811MOL0     H 7019  11.990   6.012   3.767 -2.2622  1.2969 -1.9283
  811MOL0     H 7020  12.197   6.157   3.807  1.2180  0.3526 -1.6250
  811MOL0     H 7021  12.050   6.262   3.778  0.8149  2.7526  1.3761
  811MOL0     H 7022  12.125   6.278   3.537  2.6995  2.3994 -1.3908
  811MOL0     H 7023  12.255   6.186   3.572 -0.1433 -0.5947  1.2113
  811MOL0     H 7024  12.178   6.475   3.649  0.2039  1.0099  2.3930
  811MOL0     H 7025  12.272   6.395   3.768 -0.1684  0.7437 -0.4126
  811MOL0     H 7026  12.411   6.528   3.571  2.2514 -1.0873 -1.3521
  811MOL0     H 7027  12.367   6.404   3.470  1.5602  1.5969 -1.6413
  811MOL0     H 7028  12.472   6.234   3.638 -0.4132 -0.4300 -0.5734
  811MOL0     H 7029  12.503   6.373   3.741  0.9146  0.0863 -0.1956
  811MOL0     H 7030  12.684   6.273   3.593 -4.0384 -2.3630 -0.4778
  811MOL0     H 7031  12.591   6.316   3.453 -0.3762 -0.3218 -0.0580
  811MOL0     H 7032  12.730   6.503   3.650  0.2316  2.1203  1.0287
  811MOL0     H 7033  12.621   6.562   3.519 -0.4381 -0.7613  0.6269
  811MOL0     H 7034  12.022   5.817   3.578 -2.9764 -1.5202  3.2924
  811MOL0     H 7035  11.896   5.648   3.489 -0.9570 -0.9196 -2.5185
  811MOL0     H 7036  11.395   5.606   3.378 -0.3739  0.8732  0.6543
  811MOL0     H 7037  11.214   5.443   3.319  0.3338  0.5606  3.5810
  811MOL0     H 7038   9.531   4.883   3.330 -1.0606 -1.8071 -0.7041
  811MOL0     H 7039   9.287   4.891   3.331  0.2049 -1.4183 -1.0887
  811MOL0     H 7040   8.835   5.240   2.994 -0.6474  0.0043 -1.8120
  811MOL0     H 7041   8.592   5.214   3.053  0.4775  0.8332 -0.0881
  811MOL0     H 7042   8.448   5.217   3.195  1.0453 -0.3596  0.6599
  811MOL0     H 7043   8.327   5.124   3.292  3.5496 -1.3259  3.2057
  811MOL0     H 7044   8.390   5.039   3.006  0.2003  1.8214  0.1523
  811MOL0     H 7045   8.276   4.969   3.125  1.3123 -0.9218  0.8500
  811MOL0     H 7046   8.209   5.130   2.925  0.6271  3.2886 -0.9856
  811MOL0     H 7047   8.244   5.263   3.041 -3.6196  0.2159  4.8760
  811MOL0     H 7048   8.029   5.048   3.069 -1.7673 -0.4769  3.3801
  811MOL0     H 7049   8.073   5.141   3.210 -0.8396  0.1312 -0.1313
  811MOL0     H 7050   7.907   5.460   3.018  2.1819  0.3901 -4.1400
  811MOL0     H 7051   8.719   4.907   3.327  3.6066 -2.0937 -0.9342
  811MOL0     H 7052   8.944   4.932   3.259  0.0724  1.4659  2.7211
  812MOL0     O 7053   4.162   9.035   1.996  0.6551  0.6192  0.3124
  812MOL0     C 7054   4.148   8.928   1.948  0.2648  1.1088  0.3527
  812MOL0     O 7055   4.230   8.876   1.852 -0.5663  0.3571  0.3909
  812MOL0     C 7056   4.349   8.946   1.822  0.1064  0.1350  1.0416
  812MOL0     C 7057   4.439   8.992   1.924  0.2156  0.1918  1.1187
  812MOL0     C 7058   4.563   9.048   1.889  1.3858  0.5824  0.3601
  812MOL0     C 7059   4.585   9.080   1.754 -0.0968 -1.3005 -0.1267
  812MOL0     O 7060   4.702   9.142   1.740 -0.7232 -0.1019 -0.0287
  812MOL0     C 7061   4.756   9.178   1.608 -0.2033 -0.2403  0.6920
  812MOL0     C 7062   4.845   9.294   1.646  0.1691  1.3651 -0.4176
  812MOL0     C 7063   4.972   9.229   1.702 -0.0122 -0.6163 -0.1110
  812MOL0     C 7064   5.084   9.327   1.737  0.2155  0.2233 -1.0226
  812MOL0     C 7065   5.204   9.240   1.793 -0.8866 -0.0331  0.9447
  812MOL0     C 7066   5.333   9.329   1.823  0.9852 -0.1290  0.4487
  812MOL0     C 7067   5.418   9.399   1.709 -0.0998 -0.7068  0.3396
  812MOL0     C 7068   5.525   9.488   1.762 -0.3827 -0.6080 -1.1852
  812MOL0     N 7069   5.652   9.415   1.769  0.4113 -0.8427 -0.5225
  812MOL0     C 7070   5.764   9.404   1.688 -0.0841  0.3152  0.8723
  812MOL0     C 7071   5.863   9.333   1.742  0.7239 -0.9360 -0.1083
  812MOL0     C 7072   5.995   9.310   1.682 -0.3906  0.9139  0.5690
  812MOL0     C 7073   6.067   9.176   1.742  0.8707  0.0816  0.4182
  812MOL0     C 7074   6.213   9.177   1.689 -0.7271 -0.5409 -0.1458
  812MOL0     C 7075   6.271   9.042   1.699  0.1114 -0.3083  0.4719
  812MOL0     O 7076   6.407   9.055   1.652  0.3926 -0.6724 -0.4787
  812MOL0     C 7077   6.485   8.949   1.682 -0.9630 -0.1996  0.5089
  812MOL0     C 7078   6.508   8.852   1.585  0.7793  0.1917  0.1405
  812MOL0     C 7079   6.603   8.748   1.601  1.1731  0.1330  1.4182
  812MOL0     C 7080   6.688   8.759   1.712 -0.0475  0.1026  0.0752
  812MOL0     C 7081   6.819   8.690   1.714 -0.6374  0.4761  0.3610
  812MOL0     O 7082   6.881   8.700   1.832 -0.1436  0.6679 -0.6049
  812MOL0     C 7083   7.021   8.699   1.841 -0.7310 -0.4740 -0.5309
  812MOL0     C 7084   7.075   8.653   1.957  0.5989  0.3306  0.4117
  812MOL0     C 7085   7.206   8.638   1.975 -0.1407 -0.5263 -0.0513
  812MOL0     C 7086   7.299   8.677   1.877 -0.4651  0.8620 -0.0488
  812MOL0     O 7087   7.428   8.681   1.916  0.5697  0.0287  0.2134
  812MOL0     C 7088   7.533   8.709   1.810  0.4580 -0.1365 -1.0364
  812MOL0     C 7089   7.655   8.704   1.891 -0.4410  0.3721 -0.8918
  812MOL0     C 7090   7.785   8.733   1.815  0.2911  0.4721  0.1846
  812MOL0     C 7091   7.905   8.741   1.909 -0.1265  0.5618 -0.3931
  812MOL0     C 7092   8.017   8.806   1.821  0.1828 -0.1309 -0.2217
  812MOL0     C 7093   8.151   8.792   1.900 -0.9923 -0.0614 -0.4224
  812MOL0     C 7094   8.275   8.780   1.793  0.2677  0.0901  0.3992
  812MOL0     C 7095   8.408   8.770   1.878  0.6918  0.6863  0.0084
  812MOL0    Cl 7096   8.458   8.937   1.931  0.4992 -0.0459 -0.3104
  812MOL0     C 7097   7.249   8.732   1.758 -1.6121 -0.7784  0.1272
  812MOL0     C 7098   7.113   8.739   1.747  0.5259  0.8156  1.2319
  812MOL0     O 7099   6.863   8.639   1.615 -0.2063  0.5824 -0.8285
  812MOL0     C 7100   6.649   8.848   1.819 -0.4919  0.5202  0.7884
  812MOL0     C 7101   6.555   8.949   1.805  1.2252 -0.3891 -0.3866
  812MOL0     N 7102   5.807   9.315   1.868 -0.0843  0.0628 -0.4201
  812MOL0     N 7103   5.692   9.364   1.890 -0.1493 -0.4720 -1.0502
  812MOL0     C 7104   4.494   9.036   1.652 -0.3205  0.1549  1.0411
  812MOL0     C 7105   4.381   8.966   1.683 -1.0568  0.3476 -1.2488
  812MOL0     C 7106   4.038   8.841   2.005  0.3973 -0.4053 -0.3723
  812MOL0     C 7107   4.016   8.710   1.949  0.1661  0.3489 -0.0863
  812MOL0     C 7108   3.910   8.631   2.007  0.1227 -0.0042  0.4250
  812MOL0     C 7109   3.840   8.671   2.117  0.6006  0.6739 -0.5316
  812MOL0     O 7110   3.756   8.576   2.153  0.3871 -0.3961  0.0120
  812MOL0     C 7111   3.676   8.583   2.268 -0.9805  1.0820  1.4419
  812MOL0     C 7112   3.556   8.674   2.229  0.2367  0.5502 -0.1681
  812MOL0     C 7113   3.418   8.607   2.261 -0.2243 -0.5870  0.2434
  812MOL0     C 7114   3.405   8.597   2.415 -0.1035 -0.5448  0.0554
  812MOL0     C 7115   3.382   8.721   2.495 -1.1141  0.6123 -0.4532
  812MOL0     C 7116   3.370   8.832   2.541 -0.7732  0.3276  0.1625
  812MOL0     C 7117   3.866   8.795   2.170  0.3729  0.3552  0.4807
  812MOL0     C 7118   3.966   8.871   2.116  0.1537 -0.5654 -0.4920
  812MOL0     H 7119   4.409   8.978   2.028 -1.9642 -0.8559  0.4072
  812MOL0     H 7120   4.624   9.091   1.969  2.3199  0.1268 -0.0871
  812MOL0     H 7121   4.678   9.217   1.542 -0.4244 -2.4775 -0.4528
  812MOL0     H 7122   4.798   9.096   1.550  0.5723 -0.9345  2.1877
  812MOL0     H 7123   4.795   9.355   1.722 -1.1371  0.5159 -0.5725
  812MOL0     H 7124   4.881   9.350   1.559 -0.0951 -1.5571 -2.5489
  812MOL0     H 7125   5.003   9.153   1.630 -2.1318 -1.8569  0.2022
  812MOL0     H 7126   4.961   9.169   1.793 -0.7110  2.1838  1.7895
  812MOL0     H 7127   5.094   9.389   1.648 -2.7600  1.2418 -0.7635
  812MOL0     H 7128   5.053   9.396   1.816  0.7404 -1.7375  0.9901
  812MOL0     H 7129   5.233   9.171   1.712 -2.3591  0.9065 -0.4511
  812MOL0     H 7130   5.175   9.191   1.886 -3.1891 -2.7003 -1.0139
  812MOL0     H 7131   5.406   9.259   1.864  3.4086  0.7517 -2.0273
  812MOL0     H 7132   5.302   9.403   1.897  2.1102 -2.1552  3.1033
  812MOL0     H 7133   5.459   9.320   1.645  0.4295 -0.9386  0.9487
  812MOL0     H 7134   5.352   9.469   1.658  0.0357 -2.5911 -2.6820
  812MOL0     H 7135   5.508   9.535   1.859 -1.9430  2.9214 -2.9953
  812MOL0     H 7136   5.543   9.575   1.698  2.1163  1.4419  1.9833
  812MOL0     H 7137   5.768   9.452   1.591 -2.0471  3.3628  2.1790
  812MOL0     H 7138   6.070   9.390   1.691  1.6508 -0.8572  0.0495
  812MOL0     H 7139   5.976   9.307   1.574  0.4430  3.6623  0.2638
  812MOL0     H 7140   6.009   9.089   1.709  0.7367 -0.2965  1.6132
  812MOL0     H 7141   6.055   9.187   1.850  0.9267 -0.3134  0.4665
  812MOL0     H 7142   6.212   9.202   1.582 -0.1040 -0.3949 -0.1248
  812MOL0     H 7143   6.262   9.248   1.756 -0.6022  0.7352 -1.5221
  812MOL0     H 7144   6.209   8.977   1.637 -0.8496 -0.8741  1.9756
  812MOL0     H 7145   6.274   9.004   1.802 -1.9186 -4.8227 -0.9040
  812MOL0     H 7146   6.455   8.867   1.491 -0.8529 -0.3119  0.9487
  812MOL0     H 7147   6.627   8.673   1.526 -0.2534  2.1838 -1.2453
  812MOL0     H 7148   7.011   8.631   2.042  1.0536  0.4026  0.7745
  812MOL0     H 7149   7.237   8.596   2.070 -1.0261 -0.9630  0.0432
  812MOL0     H 7150   7.513   8.811   1.775  4.2462  0.7067 -1.1925
  812MOL0     H 7151   7.537   8.628   1.737  4.4093 -1.2412  0.1624
  812MOL0     H 7152   7.657   8.601   1.928 -3.8780  0.6757  0.6159
  812MOL0     H 7153   7.660   8.774   1.976 -0.9013 -2.0426  1.2628
  812MOL0     H 7154   7.757   8.823   1.760 -4.8040 -0.3370  0.9726
  812MOL0     H 7155   7.792   8.651   1.742 -1.8564 -0.2489  0.7078
  812MOL0     H 7156   7.878   8.807   1.992 -1.1362  1.2282 -1.2234
  812MOL0     H 7157   7.929   8.637   1.933 -1.2002  0.1422 -1.0553
  812MOL0     H 7158   8.005   8.910   1.789 -0.3678 -0.5611 -1.4713
  812MOL0     H 7159   8.025   8.752   1.726 -0.9358  2.7237 -2.0828
  812MOL0     H 7160   8.155   8.706   1.967 -0.2700  1.5414  1.6984
  812MOL0     H 7161   8.158   8.872   1.974  0.0426 -0.6181  0.1027
  812MOL0     H 7162   8.264   8.696   1.723 -1.2140 -1.6951  2.6334
  812MOL0     H 7163   8.274   8.874   1.736 -1.3138 -0.6073 -0.7980
  812MOL0     H 7164   8.475   8.714   1.813 -2.7372 -2.3230 -1.2908
  812MOL0     H 7165   8.391   8.700   1.961  0.2696 -0.1237 -0.7514
  812MOL0     H 7166   7.311   8.772   1.679 -2.2832 -0.9596 -0.4974
  812MOL0     H 7167   7.086   8.771   1.646  2.9141 -1.3996 -0.2297
  812MOL0     H 7168   6.697   8.837   1.915  1.4054 -0.8272 -0.2543
  812MOL0     H 7169   6.523   9.018   1.884  0.2647 -0.7744 -0.4193
  812MOL0     H 7170   4.506   9.046   1.545 -1.0098 -2.1530  0.7095
  812MOL0     H 7171   4.324   8.925   1.600 -5.4787  2.0632  0.6369
  812MOL0     H 7172   4.080   8.677   1.868 -0.7334 -1.8537  0.0299
  812MOL0     H 7173   3.888   8.533   1.967  0.6018  0.4904 -1.0895
  812MOL0     H 7174   3.724   8.630   2.354 -2.0116  3.1792  0.9478
  812MOL0     H 7175   3.651   8.484   2.306  0.2612 -0.0870 -0.5821
  812MOL0     H 7176   3.572   8.773   2.272  1.5383  0.1677  0.2526
  812MOL0     H 7177   3.558   8.699   2.122 -0.5396 -1.6980 -0.7514
  812MOL0     H 7178   3.421   8.515   2.202 -0.1375  2.4020 -5.0360
  812MOL0     H 7179   3.338   8.664   2.213 -0.3771  1.1742  2.4248
  812MOL0     H 7180   3.318   8.534   2.430  0.9786 -2.1174 -0.0749
  812MOL0     H 7181   3.492   8.547   2.459 -0.0819 -0.8912 -0.3754
  812MOL0     H 7182   3.362   8.937   2.561  2.1780  1.1776 -2.2935
  812MOL0     H 7183   3.822   8.829   2.263 -3.6617 -0.9035 -0.7814
  812MOL0     H 7184   3.977   8.959   2.178 -0.8354 -1.7400  1.4534
  813MOL0     O 7185   3.585   5.282  10.803  0.5773  0.3308 -0.4624
  813MOL0     C 7186   3.621   5.178  10.757 -0.0047 -0.5920  0.0246
  813MOL0     O 7187   3.553   5.101  10.662 -0.2616 -0.0149  0.5222
  813MOL0     C 7188   3.423   5.110  10.620 -0.7501 -0.1943 -0.2641
  813MOL0     C 7189   3.321   5.203  10.665 -0.3817 -0.3818  0.2861
  813MOL0     C 7190   3.183   5.197  10.621  0.0836  0.4343 -0.2669
  813MOL0     C 7191   3.142   5.091  10.538  0.2903 -0.7006 -0.4258
  813MOL0     O 7192   3.007   5.087  10.506 -0.2813  0.1614  0.8220
  813MOL0     C 7193   2.963   4.970  10.425  0.2222 -0.2652 -0.2552
  813MOL0     C 7194   2.810   4.962  10.414 -0.3785 -0.3839 -0.4163
  813MOL0     C 7195   2.762   5.085  10.348  0.6722  0.0564 -0.4651
  813MOL0     C 7196   2.612   5.071  10.351  0.1670  0.0935  0.7552
  813MOL0     C 7197   2.546   5.185  10.280 -0.2310 -0.2861 -0.5977
  813MOL0     C 7198   2.395   5.162  10.258 -0.2095  0.4485  0.0576
  813MOL0     C 7199   2.339   5.277  10.176  0.2334 -0.6675 -0.0448
  813MOL0     C 7200   2.210   5.233  10.101 -0.1850 -0.1755  0.0345
  813MOL0     N 7201   2.125   5.352  10.068  0.2506 -0.3462  0.4335
  813MOL0     C 7202   2.057   5.377   9.950 -0.2024 -0.5057  0.9515
  813MOL0     C 7203   1.976   5.474   9.968  0.3316 -1.7199  1.1758
  813MOL0     C 7204   1.885   5.545   9.871 -0.1783  0.1298 -1.0170
  813MOL0     C 7205   1.745   5.486   9.883  0.2155  0.9370  0.7485
  813MOL0     C 7206   1.741   5.337   9.852 -0.1304 -0.2686  1.0684
  813MOL0     C 7207   1.596   5.289   9.841 -0.6297 -0.3875  0.0295
  813MOL0     O 7208   1.595   5.162   9.785  0.0085 -0.1443 -0.5204
  813MOL0     C 7209   1.474   5.095   9.767  0.3653  0.1396 -0.3782
  813MOL0     C 7210   1.479   4.970   9.706  0.0366  0.4579  0.0964
  813MOL0     C 7211   1.365   4.888   9.683 -0.1629 -0.9962  0.3724
  813MOL0     C 7212   1.243   4.946   9.721 -0.2033 -0.4965 -0.3225
  813MOL0     C 7213   1.110   4.880   9.694  0.1560  0.1872  0.1908
  813MOL0     O 7214   0.996   4.937   9.744  0.3380  0.4672 -0.1537
  813MOL0     C 7215   0.878   4.901   9.691  0.8888  0.3176  0.2655
  813MOL0     C 7216   0.829   4.780   9.736  0.6859  0.1780 -0.0821
  813MOL0     C 7217   0.701   4.736   9.704 -0.6071 -0.8870  0.2219
  813MOL0     C 7218   0.618   4.809   9.618 -0.0673 -0.0002 -0.6387
  813MOL0     O 7219   0.491   4.755   9.599  0.0172  1.1269  0.7119
  813MOL0     C 7220   0.396   4.846   9.549 -0.0972 -0.4037  0.4481
  813MOL0     C 7221   0.258   4.775   9.553 -0.4946  1.0114  0.3962
  813MOL0     C 7222   0.191   4.767   9.420 -0.4978 -0.7704  0.2193
  813MOL0     C 7223   0.250   4.654   9.321  0.3905 -0.0273 -0.9949
  813MOL0     C 7224   0.224   4.654   9.167 -0.2755  0.4900  0.2987
  813MOL0     C 7225   0.073   4.631   9.160 -1.1547  0.0283  0.4409
  813MOL0     C 7226   0.019   4.658   9.016 -0.5402 -0.3218 -0.8815
  813MOL0     C 7227  -0.119   4.582   9.004 -0.3654  0.6751 -0.1400
  813MOL0    Cl 7228  -0.198   4.632   8.845 -0.0980  0.0563 -0.0005
  813MOL0     C 7229   0.665   4.934   9.573  0.1972 -0.5858 -0.0003
  813MOL0     C 7230   0.793   4.982   9.621  0.7608 -0.4410 -0.0463
  813MOL0     O 7231   1.113   4.783   9.630 -0.4546  0.2213 -0.0689
  813MOL0     C 7232   1.245   5.066   9.788  0.5175  0.4327  0.4879
  813MOL0     C 7233   1.353   5.139   9.814  0.0244 -0.4009 -1.2858
  813MOL0     N 7234   2.001   5.525  10.091 -0.1955 -0.5185  0.9664
  813MOL0     N 7235   2.083   5.448  10.146 -0.2330 -0.0268  0.2914
  813MOL0     C 7236   3.239   5.007  10.491 -0.2873 -0.4620 -0.3358
  813MOL0     C 7237   3.375   5.016  10.526  0.5572 -0.1408  0.2350
  813MOL0     C 7238   3.754   5.140  10.792  0.5362  0.0735  0.1121
  813MOL0     C 7239   3.818   5.032  10.723 -0.1294 -0.4237 -0.0237
  813MOL0     C 7240   3.954   4.989  10.747  0.2167 -1.8286  0.1546
  813MOL0     C 7241   4.029   5.052  10.853 -0.1668  0.0090  0.0565
  813MOL0     O 7242   4.157   5.002  10.882  0.2934 -0.5606  0.1999
  813MOL0     C 7243   4.236   5.049  10.986 -0.2819  0.4193  0.5193
  813MOL0     C 7244   4.375   4.987  10.995  0.1622 -0.4711 -0.1323
  813MOL0     C 7245   4.483   5.101  11.033 -0.3298  0.6861  0.2919
  813MOL0     C 7246   4.619   5.042  11.063  0.5003  0.2720  0.6590
  813MOL0     C 7247   4.711   5.141  11.116  0.6074  0.2349  0.1065
  813MOL0     C 7248   4.793   5.224  11.155  0.3643 -0.6318 -0.1427
  813MOL0     C 7249   3.956   5.152  10.922  0.0153  0.8217 -0.1541
  813MOL0     C 7250   3.832   5.202  10.888  0.4708 -0.9301  0.3464
  813MOL0     H 7251   3.348   5.281  10.735  0.4671  0.7762 -1.2573
  813MOL0     H 7252   3.114   5.266  10.669  0.2529 -0.2103  0.9305
  813MOL0     H 7253   2.989   4.882  10.484 -2.9566 -1.6986 -0.7983
  813MOL0     H 7254   3.007   4.970  10.325 -2.9423  0.0532 -1.7719
  813MOL0     H 7255   2.762   4.953  10.512  0.2833  0.2073 -0.0269
  813MOL0     H 7256   2.791   4.871  10.357 -2.5332  0.0565 -0.5200
  813MOL0     H 7257   2.809   5.092  10.249 -0.5091 -1.5721 -1.1867
  813MOL0     H 7258   2.781   5.179  10.401 -0.4642  0.7345 -1.2059
  813MOL0     H 7259   2.581   4.982  10.295 -3.0093  1.6421 -0.2103
  813MOL0     H 7260   2.584   5.080  10.456  1.7835 -0.6141  1.2622
  813MOL0     H 7261   2.598   5.204  10.186 -1.9491 -0.1697 -1.5760
  813MOL0     H 7262   2.564   5.277  10.335  0.4981 -0.2834 -0.8350
  813MOL0     H 7263   2.330   5.150  10.345 -2.1322  2.2264 -1.0422
  813MOL0     H 7264   2.390   5.063  10.213 -0.4989  0.5754 -0.1868
  813MOL0     H 7265   2.303   5.353  10.246  2.0016 -0.3005  0.5247
  813MOL0     H 7266   2.412   5.317  10.105  2.1376 -1.4493  1.3896
  813MOL0     H 7267   2.147   5.160  10.153  2.1847 -1.0842  1.8001
  813MOL0     H 7268   2.239   5.205   9.999 -0.7963  4.6009 -1.7261
  813MOL0     H 7269   2.067   5.326   9.855 -0.1061  2.9446 -1.0638
  813MOL0     H 7270   1.918   5.531   9.768  2.0311  0.1678 -0.3694
  813MOL0     H 7271   1.885   5.655   9.874  4.6785  0.3740 -1.3477
  813MOL0     H 7272   1.683   5.547   9.817 -0.3557  0.9858  1.3111
  813MOL0     H 7273   1.700   5.506   9.981  2.7575  0.3078  2.1225
  813MOL0     H 7274   1.786   5.299   9.760  0.9945 -1.8484  2.2210
  813MOL0     H 7275   1.781   5.284   9.939 -1.7420 -4.4292 -0.4849
  813MOL0     H 7276   1.541   5.354   9.773 -0.1811 -0.0370 -0.0051
  813MOL0     H 7277   1.547   5.275   9.938 -0.5553  0.3461  0.1799
  813MOL0     H 7278   1.572   4.917   9.687 -2.2726 -5.1879  2.5137
  813MOL0     H 7279   1.365   4.793   9.631 -1.0922 -0.4169 -0.7451
  813MOL0     H 7280   0.880   4.722   9.812 -2.1690 -0.3756  1.5599
  813MOL0     H 7281   0.676   4.647   9.761  0.8978 -1.0807  0.6326
  813MOL0     H 7282   0.431   4.867   9.448  0.0970  0.6928  0.7258
  813MOL0     H 7283   0.398   4.940   9.606  1.2201 -1.2625  1.8712
  813MOL0     H 7284   0.183   4.814   9.623 -1.8687  0.6165 -0.8157
  813MOL0     H 7285   0.269   4.672   9.587 -2.5279  1.4479  2.7614
  813MOL0     H 7286   0.206   4.869   9.382  0.5350 -0.3660  1.6336
  813MOL0     H 7287   0.083   4.749   9.426 -0.3176 -2.7671 -1.4664
  813MOL0     H 7288   0.357   4.646   9.340  0.2939 -0.4437 -0.6168
  813MOL0     H 7289   0.200   4.568   9.365 -2.6677  0.0718 -3.8778
  813MOL0     H 7290   0.285   4.576   9.121  3.0129  2.5091  0.8996
  813MOL0     H 7291   0.243   4.753   9.124 -2.6621  0.2398 -1.5706
  813MOL0     H 7292   0.012   4.698   9.221 -5.5351  0.7521 -4.1183
  813MOL0     H 7293   0.054   4.527   9.188 -1.3372 -0.0456  0.0440
  813MOL0     H 7294   0.007   4.766   9.021 -2.9899 -0.6054  2.4414
  813MOL0     H 7295   0.084   4.637   8.930  0.8122 -4.8080  0.8988
  813MOL0     H 7296  -0.175   4.616   9.091 -2.5290 -1.5904 -0.5164
  813MOL0     H 7297  -0.107   4.473   9.009 -2.3944  0.4750  2.2317
  813MOL0     H 7298   0.600   4.997   9.514 -3.9020 -3.5247  0.9480
  813MOL0     H 7299   0.819   5.086   9.602 -2.2692  0.6267  1.0460
  813MOL0     H 7300   1.146   5.102   9.814  1.2632  0.9356  2.9427
  813MOL0     H 7301   1.340   5.238   9.856 -1.2230  0.5486 -3.7360
  813MOL0     H 7302   3.220   4.928  10.419  0.1764 -3.4148  2.5295
  813MOL0     H 7303   3.448   4.947  10.485  2.7752  1.7493  0.7796
  813MOL0     H 7304   3.758   4.986  10.645 -2.3504  1.3864  0.4615
  813MOL0     H 7305   3.995   4.903  10.696  1.4001  0.3230 -2.8153
  813MOL0     H 7306   4.190   5.007  11.077  0.1915 -0.0956  0.5283
  813MOL0     H 7307   4.243   5.158  10.996 -3.2497  0.8099 -0.7344
  813MOL0     H 7308   4.380   4.903  11.065  0.1736 -1.2227 -1.0210
  813MOL0     H 7309   4.409   4.947  10.899 -1.8154 -0.7691 -0.7687
  813MOL0     H 7310   4.458   5.146  11.130  2.5996 -0.8555  1.9256
  813MOL0     H 7311   4.496   5.174  10.952 -1.0162 -0.2151 -0.6493
  813MOL0     H 7312   4.593   4.969  11.140  0.2949 -0.4067 -0.0386
  813MOL0     H 7313   4.649   4.994  10.970  0.2707 -0.3853  0.9219
  813MOL0     H 7314   4.868   5.299  11.175 -1.3446  1.3462 -0.8521
  813MOL0     H 7315   3.999   5.188  11.015 -1.6541  3.8285 -0.4204
  813MOL0     H 7316   3.786   5.270  10.959  4.3648  0.6499  1.6186
  814MOL0     O 7317   7.282   6.773   3.418  0.5856 -0.2526  0.3440
  814MOL0     C 7318   7.353   6.680   3.404  0.2086  0.3562  0.0293
  814MOL0     O 7319   7.321   6.554   3.432 -0.1241 -0.3402  0.3790
  814MOL0     C 7320   7.212   6.526   3.515 -0.7366 -0.3677 -0.1992
  814MOL0     C 7321   7.085   6.526   3.462  0.6101  0.9108 -0.2314
  814MOL0     C 7322   6.972   6.521   3.537  0.1004  0.1286  1.0939
  814MOL0     C 7323   6.979   6.502   3.674 -0.1726 -0.7733 -0.1504
  814MOL0     O 7324   6.859   6.489   3.740 -0.4919  0.2904  0.9876
  814MOL0     C 7325   6.854   6.401   3.854 -0.2442  0.4131 -0.4058
  814MOL0     C 7326   6.725   6.389   3.925 -0.3699  0.6208  0.9050
  814MOL0     C 7327   6.671   6.514   3.994 -1.3854 -0.3942 -0.2141
  814MOL0     C 7328   6.536   6.484   4.073 -0.2091  0.6561 -0.6484
  814MOL0     C 7329   6.492   6.599   4.157 -0.2417 -1.3881 -0.7737
  814MOL0     C 7330   6.421   6.697   4.063  0.3252  0.5789 -0.0749
  814MOL0     C 7331   6.373   6.831   4.136 -0.3325  0.0803  0.1181
  814MOL0     C 7332   6.285   6.805   4.251  0.4201  0.1009 -0.2718
  814MOL0     N 7333   6.214   6.927   4.296 -0.1695 -0.5176  0.6277
  814MOL0     C 7334   6.256   7.012   4.387  0.0401  0.4612 -0.0861
  814MOL0     C 7335   6.151   7.090   4.414  1.0536 -0.1975 -1.0753
  814MOL0     C 7336   6.148   7.211   4.508 -1.1801 -0.3525  0.1590
  814MOL0     C 7337   6.071   7.181   4.640  0.5713  0.2364 -0.2603
  814MOL0     C 7338   5.920   7.222   4.635  0.0018 -0.0501 -0.6627
  814MOL0     C 7339   5.856   7.256   4.779 -1.0674 -0.8831  0.4524
  814MOL0     O 7340   5.851   7.136   4.865  0.3050  0.9926  0.5350
  814MOL0     C 7341   5.795   7.159   4.988  0.6034  0.9697 -0.1994
  814MOL0     C 7342   5.741   7.271   5.049  0.0060  0.1727  0.2715
  814MOL0     C 7343   5.675   7.278   5.168  0.0620  0.2947  0.2747
  814MOL0     C 7344   5.665   7.153   5.241  0.1958  1.1363  0.7229
  814MOL0     C 7345   5.597   7.143   5.381  0.6560  0.4227 -0.0094
  814MOL0     O 7346   5.495   7.240   5.388 -0.0699  0.1037 -0.1028
  814MOL0     C 7347   5.421   7.242   5.499 -0.3980  0.0064  0.2150
  814MOL0     C 7348   5.459   7.326   5.607  0.2841 -0.0313 -1.0041
  814MOL0     C 7349   5.368   7.343   5.712  0.5450  0.5066 -0.5308
  814MOL0     C 7350   5.246   7.283   5.717  0.1052  0.3539 -0.2406
  814MOL0     O 7351   5.152   7.279   5.817  0.2619 -0.1835  0.2874
  814MOL0     C 7352   5.180   7.359   5.930 -0.1897  0.5754  0.1970
  814MOL0     C 7353   5.071   7.329   6.040  0.4098  0.3724  0.6654
  814MOL0     C 7354   5.068   7.178   6.065 -0.9429 -0.1110 -0.0460
  814MOL0     C 7355   5.201   7.112   6.134  0.3375  0.5079 -0.0282
  814MOL0     C 7356   5.205   6.962   6.137 -0.6239 -0.3187 -0.3681
  814MOL0     C 7357   5.218   6.902   6.002 -1.2359  1.0390  0.1693
  814MOL0     C 7358   5.320   6.956   5.907 -0.4988 -0.1655 -0.4662
  814MOL0     C 7359   5.356   6.874   5.784  0.1161 -0.1195  0.2610
  814MOL0    Cl 7360   5.455   6.741   5.834  0.3303 -0.4827  0.7334
  814MOL0     C 7361   5.208   7.197   5.607  0.8872 -0.2515 -0.3495
  814MOL0     C 7362   5.297   7.188   5.492 -0.0405 -0.5534 -0.3156
  814MOL0     O 7363   5.611   7.049   5.461 -0.2989 -0.5929 -0.3118
  814MOL0     C 7364   5.738   7.037   5.198  0.9377  0.8489  0.9670
  814MOL0     C 7365   5.802   7.043   5.073 -0.2667  0.3837 -0.3426
  814MOL0     N 7366   6.041   7.043   4.340 -0.2991 -0.4507 -0.4317
  814MOL0     N 7367   6.081   6.942   4.273 -0.1245 -0.1667 -1.0791
  814MOL0     C 7368   7.105   6.515   3.737  0.1351  0.7168 -0.0730
  814MOL0     C 7369   7.219   6.522   3.657 -0.2624  0.6472 -0.4944
  814MOL0     C 7370   7.481   6.692   3.349 -0.4090 -0.1498 -0.7008
  814MOL0     C 7371   7.532   6.818   3.300  0.1924  0.1379 -0.5480
  814MOL0     C 7372   7.656   6.829   3.248 -0.3601  0.0726  0.7332
  814MOL0     C 7373   7.739   6.717   3.229  0.2088  0.0434 -0.5015
  814MOL0     O 7374   7.860   6.738   3.165 -0.5479  0.1122  0.1542
  814MOL0     C 7375   7.956   6.635   3.165 -0.1914  0.6425 -0.0654
  814MOL0     C 7376   8.078   6.696   3.086  1.0956 -0.2854 -0.4018
  814MOL0     C 7377   8.183   6.588   3.043  0.0408  0.1407 -0.1006
  814MOL0     C 7378   8.296   6.638   2.951 -0.3022 -0.7732  0.4882
  814MOL0     C 7379   8.355   6.526   2.875  0.0354  0.0349 -0.6882
  814MOL0     C 7380   8.409   6.428   2.830  0.2624 -0.3046  0.2825
  814MOL0     C 7381   7.693   6.590   3.270 -0.5797 -0.2741 -0.3077
  814MOL0     C 7382   7.571   6.581   3.334 -0.4646  0.1147 -0.0190
  814MOL0     H 7383   7.082   6.537   3.354 -0.8020 -2.2048 -0.6055
  814MOL0     H 7384   6.875   6.529   3.489  0.0188  2.6953  1.5267
  814MOL0     H 7385   6.929   6.418   3.931  0.3620  1.0028 -1.1086
  814MOL0     H 7386   6.889   6.301   3.826  3.7906  0.1536  4.3087
  814MOL0     H 7387   6.739   6.314   4.004 -0.7227  0.3980  0.7582
  814MOL0     H 7388   6.640   6.365   3.860  0.6686  1.1182 -0.6937
  814MOL0     H 7389   6.654   6.591   3.918  2.1627  0.0764 -0.7129
  814MOL0     H 7390   6.747   6.548   4.065 -0.4248 -1.3229 -0.7898
  814MOL0     H 7391   6.459   6.454   4.001  1.9509 -0.7851 -2.5039
  814MOL0     H 7392   6.549   6.400   4.142 -4.0493  2.0967  2.1772
  814MOL0     H 7393   6.582   6.637   4.206  0.1214 -1.7922 -1.1246
  814MOL0     H 7394   6.424   6.569   4.237 -2.3135  0.4930 -1.6809
  814MOL0     H 7395   6.328   6.649   4.031 -0.9737  0.9190  2.8772
  814MOL0     H 7396   6.486   6.721   3.978 -1.2081  2.5428 -0.7639
  814MOL0     H 7397   6.467   6.875   4.171  0.3912 -0.2108 -1.3814
  814MOL0     H 7398   6.338   6.901   4.059 -0.0288 -0.8285 -0.8658
  814MOL0     H 7399   6.329   6.763   4.342 -2.2811  1.8326  2.0051
  814MOL0     H 7400   6.211   6.732   4.219  1.6215 -0.6154 -1.4747
  814MOL0     H 7401   6.354   7.014   4.434  0.3279  0.9904 -0.6875
  814MOL0     H 7402   6.103   7.297   4.457 -0.0678  0.0313 -0.1939
  814MOL0     H 7403   6.252   7.242   4.520 -1.3072 -1.0530  4.6088
  814MOL0     H 7404   6.102   7.246   4.722 -0.4175  0.0004  0.3175
  814MOL0     H 7405   6.087   7.078   4.672  1.3923 -0.2459 -2.0951
  814MOL0     H 7406   5.908   7.317   4.583 -1.6159 -0.3811 -0.9374
  814MOL0     H 7407   5.859   7.143   4.590 -1.3209  0.6162 -0.0836
  814MOL0     H 7408   5.755   7.290   4.753 -0.3340  0.4543 -0.8309
  814MOL0     H 7409   5.914   7.332   4.831 -1.3616 -1.0371  1.0037
  814MOL0     H 7410   5.751   7.368   5.000 -0.7873 -0.2433 -0.7418
  814MOL0     H 7411   5.630   7.373   5.196  0.9068  1.5762 -2.4220
  814MOL0     H 7412   5.556   7.373   5.615 -0.0435  0.3492  1.4545
  814MOL0     H 7413   5.402   7.415   5.786  0.5661  0.5149 -0.5489
  814MOL0     H 7414   5.168   7.463   5.898 -1.7309 -0.1600 -1.8052
  814MOL0     H 7415   5.280   7.352   5.973 -0.9854  2.0154  2.4762
  814MOL0     H 7416   4.972   7.365   6.010 -0.4755 -1.1550  1.6338
  814MOL0     H 7417   5.104   7.374   6.135  2.1981  0.2674  0.1197
  814MOL0     H 7418   5.048   7.124   5.972 -0.9506 -1.7089  0.8570
  814MOL0     H 7419   4.984   7.157   6.131  1.2172 -1.3762  2.5157
  814MOL0     H 7420   5.286   7.132   6.068  0.2174 -2.8199 -1.3722
  814MOL0     H 7421   5.218   7.150   6.235  0.9648  0.7983 -0.2364
  814MOL0     H 7422   5.113   6.921   6.181 -2.1676  2.1205 -1.1396
  814MOL0     H 7423   5.287   6.929   6.202 -1.3814  1.1347  1.4309
  814MOL0     H 7424   5.125   6.918   5.946 -0.1614  1.0637 -1.6670
  814MOL0     H 7425   5.227   6.794   6.018 -0.4099  1.2497  1.2529
  814MOL0     H 7426   5.269   7.044   5.866  0.2822  0.4824 -0.0704
  814MOL0     H 7427   5.409   6.978   5.966 -0.2846  1.6933 -1.4083
  814MOL0     H 7428   5.412   6.930   5.709  0.5074 -1.7846 -0.7483
  814MOL0     H 7429   5.268   6.847   5.725 -0.6059  1.6358  0.4849
  814MOL0     H 7430   5.113   7.144   5.607  1.5854 -1.6763  2.1577
  814MOL0     H 7431   5.281   7.119   5.410  1.7360 -0.3961 -0.8289
  814MOL0     H 7432   5.739   6.945   5.256 -1.4972 -1.3100 -2.1203
  814MOL0     H 7433   5.866   6.957   5.056 -2.3393 -0.8965 -2.1966
  814MOL0     H 7434   7.106   6.520   3.846  1.7328 -2.6961  0.1848
  814MOL0     H 7435   7.320   6.521   3.695  1.3243  0.1625 -4.2097
  814MOL0     H 7436   7.465   6.903   3.307 -0.9102 -0.7506  0.2599
  814MOL0     H 7437   7.686   6.925   3.208  1.2744 -1.5053 -2.2280
  814MOL0     H 7438   7.921   6.543   3.118  1.7384 -0.0613 -0.2094
  814MOL0     H 7439   7.990   6.603   3.263  2.1295  0.2159 -0.9410
  814MOL0     H 7440   8.042   6.722   2.987  1.1408 -0.3455 -0.4342
  814MOL0     H 7441   8.120   6.774   3.150  1.2856 -0.6841 -0.0364
  814MOL0     H 7442   8.126   6.512   2.989  2.0257  0.0827 -2.3052
  814MOL0     H 7443   8.236   6.551   3.131  1.6245  0.2616 -0.9543
  814MOL0     H 7444   8.270   6.714   2.877  1.8822 -4.0741 -4.2066
  814MOL0     H 7445   8.372   6.687   3.014 -1.2336  3.1112 -1.1528
  814MOL0     H 7446   8.450   6.346   2.774  1.0330 -0.9324  1.6977
  814MOL0     H 7447   7.739   6.492   3.260 -3.1932 -1.5020 -1.1490
  814MOL0     H 7448   7.542   6.480   3.365 -1.8368  0.4537 -0.1246
  815MOL0     O 7449  10.212   5.128   5.225  0.1715 -0.1796  0.0902
  815MOL0     C 7450  10.323   5.184   5.239 -0.2550  0.3365  0.1988
  815MOL0     O 7451  10.419   5.195   5.141  0.0582 -0.3659  0.2045
  815MOL0     C 7452  10.395   5.139   5.018 -0.0568 -0.0071 -0.5898
  815MOL0     C 7453  10.391   5.005   4.986  0.1292 -0.0127 -1.0923
  815MOL0     C 7454  10.378   4.958   4.854  0.4376 -0.0719  0.5803
  815MOL0     C 7455  10.355   5.052   4.740 -0.1599 -0.3085  0.0520
  815MOL0     O 7456  10.317   5.016   4.615  0.2273  0.1691  0.0318
  815MOL0     C 7457  10.268   4.879   4.595 -0.4885  0.2211 -0.1573
  815MOL0     C 7458  10.227   4.873   4.454  0.4327  0.1742  0.6299
  815MOL0     C 7459  10.148   4.985   4.395  0.1937 -0.5329  0.2281
  815MOL0     C 7460  10.132   4.953   4.248  0.4282  0.9847  0.3065
  815MOL0     C 7461  10.039   5.033   4.162 -0.0953 -0.3393 -0.0676
  815MOL0     C 7462   9.929   4.948   4.096 -0.0054 -1.2382  0.1032
  815MOL0     C 7463   9.833   5.040   4.014  0.2636  0.3078  0.2217
  815MOL0     C 7464   9.723   4.968   3.944 -0.4662  0.9095 -0.1485
  815MOL0     N 7465   9.620   5.054   3.896 -0.1645 -0.5785 -0.1895
  815MOL0     C 7466   9.636   5.144   3.792 -0.0965 -0.0544 -0.2910
  815MOL0     C 7467   9.512   5.183   3.751  0.2172 -0.4042 -0.1437
  815MOL0     C 7468   9.478   5.278   3.643  0.3001 -0.5048 -0.2422
  815MOL0     C 7469   9.468   5.206   3.509 -0.4759  0.0813  0.5713
  815MOL0     C 7470   9.413   5.301   3.397 -0.8600 -0.7085  0.3407
  815MOL0     C 7471   9.252   5.308   3.407  0.0334 -0.3855 -0.1473
  815MOL0     O 7472   9.214   5.404   3.513  0.6371 -0.4488  0.2544
  815MOL0     C 7473   9.078   5.421   3.521  0.2942 -0.0545  0.2205
  815MOL0     C 7474   8.977   5.418   3.421  0.0202 -0.0080  0.1427
  815MOL0     C 7475   8.841   5.430   3.444 -0.6994 -0.7104  0.1440
  815MOL0     C 7476   8.799   5.458   3.578 -0.0018 -0.3309 -0.5310
  815MOL0     C 7477   8.653   5.475   3.612 -0.5359 -0.9536 -0.6759
  815MOL0     O 7478   8.562   5.434   3.525 -0.0704  0.1030 -0.2329
  815MOL0     C 7479   8.437   5.447   3.564 -0.4469  0.2157  0.9819
  815MOL0     C 7480   8.383   5.376   3.673  0.5253 -0.6724  0.7442
  815MOL0     C 7481   8.256   5.392   3.700  0.0975 -0.0558  0.0657
  815MOL0     C 7482   8.166   5.463   3.627  0.0458  0.7042  1.0160
  815MOL0     O 7483   8.040   5.450   3.658  0.0320 -0.8715 -0.9481
  815MOL0     C 7484   7.960   5.375   3.568  0.2878 -0.3364  0.0853
  815MOL0     C 7485   7.862   5.278   3.636 -0.0079 -0.3762 -0.1371
  815MOL0     C 7486   7.934   5.186   3.732  0.8506  0.2802  0.8992
  815MOL0     C 7487   7.841   5.091   3.807  0.2382  0.1115  0.5908
  815MOL0     C 7488   7.925   5.021   3.913  0.4398 -1.2615 -0.8257
  815MOL0     C 7489   7.838   5.008   4.043  1.0640 -0.3093 -0.1824
  815MOL0     C 7490   7.917   4.933   4.163 -0.4379 -0.7198  0.2599
  815MOL0     C 7491   7.960   4.790   4.128  0.1056 -0.5376  0.8008
  815MOL0    Cl 7492   7.831   4.675   4.098  0.5989 -0.1720  0.4951
  815MOL0     C 7493   8.212   5.514   3.503 -0.9288 -0.6519 -0.3206
  815MOL0     C 7494   8.349   5.524   3.478  0.8525  0.1038 -0.2135
  815MOL0     O 7495   8.629   5.530   3.724 -0.2720  0.1346 -0.4837
  815MOL0     C 7496   8.900   5.481   3.678  0.1046 -0.1036 -0.2678
  815MOL0     C 7497   9.034   5.460   3.648 -0.4375  0.2889  0.5150
  815MOL0     N 7498   9.426   5.116   3.825 -0.2483  0.2393  0.7999
  815MOL0     N 7499   9.486   5.042   3.916  1.1604 -0.1587  1.1018
  815MOL0     C 7500  10.358   5.188   4.782 -0.5412 -0.1137  0.3741
  815MOL0     C 7501  10.387   5.221   4.911  0.1848 -0.4604  0.0729
  815MOL0     C 7502  10.369   5.226   5.368 -0.4231  0.8488 -0.1204
  815MOL0     C 7503  10.290   5.220   5.487  0.3366 -0.5783  0.5558
  815MOL0     C 7504  10.361   5.250   5.608  0.5954 -0.2207  0.0844
  815MOL0     C 7505  10.493   5.286   5.617  0.1124 -0.3071  0.3170
  815MOL0     O 7506  10.525   5.332   5.745  0.4022  0.2833  0.0783
  815MOL0     C 7507  10.673   5.357   5.761  1.0750  0.2713  0.5581
  815MOL0     C 7508  10.696   5.401   5.905  0.5051 -0.5052 -0.0135
  815MOL0     C 7509  10.847   5.415   5.935  0.0655 -0.2377 -0.0264
  815MOL0     C 7510  10.891   5.290   6.000 -0.6470 -0.1185 -0.4745
  815MOL0     C 7511  11.028   5.307   6.054  0.1904 -0.4860  0.3799
  815MOL0     C 7512  11.141   5.312   6.095  0.2331  0.1902 -0.1781
  815MOL0     C 7513  10.574   5.282   5.503 -0.1048 -0.8206  0.1583
  815MOL0     C 7514  10.511   5.258   5.380 -0.8542 -0.0258 -0.6303
  815MOL0     H 7515  10.440   4.950   5.066 -0.0865  1.7273  0.2821
  815MOL0     H 7516  10.369   4.852   4.831  1.4309  0.1069 -0.7545
  815MOL0     H 7517  10.183   4.857   4.661 -1.8828 -1.2593 -2.3389
  815MOL0     H 7518  10.340   4.799   4.619  0.8905  1.2671 -0.6881
  815MOL0     H 7519  10.170   4.781   4.442 -0.5424  0.8630 -0.2186
  815MOL0     H 7520  10.320   4.861   4.397  0.7292 -0.5055  1.2431
  815MOL0     H 7521  10.184   5.088   4.398 -1.5335  0.1585 -0.8272
  815MOL0     H 7522  10.049   4.993   4.442  0.2115  1.7082  0.0250
  815MOL0     H 7523  10.231   4.953   4.200  2.4705 -2.0089  3.9030
  815MOL0     H 7524  10.100   4.848   4.241  1.8306  0.4452  1.3940
  815MOL0     H 7525  10.108   5.079   4.091  1.1196 -0.7668  0.8095
  815MOL0     H 7526   9.987   5.111   4.219  1.5613  0.1168  0.8876
  815MOL0     H 7527   9.863   4.917   4.177  0.3859  1.3110  1.5071
  815MOL0     H 7528   9.963   4.868   4.029 -0.9835 -2.5453  1.1280
  815MOL0     H 7529   9.774   5.102   4.082  0.6011  1.6075 -0.6310
  815MOL0     H 7530   9.896   5.096   3.944  1.7054 -1.3669  0.1029
  815MOL0     H 7531   9.691   4.900   4.024 -2.5843 -0.2627 -1.9073
  815MOL0     H 7532   9.765   4.906   3.864  3.8409  0.3972  2.1637
  815MOL0     H 7533   9.731   5.181   3.754  0.6700 -0.6954  0.9457
  815MOL0     H 7534   9.541   5.366   3.634 -0.5992 -0.0734 -3.1609
  815MOL0     H 7535   9.377   5.311   3.671 -0.7864 -1.6221 -2.5706
  815MOL0     H 7536   9.415   5.111   3.501  3.1374 -2.1229  0.1624
  815MOL0     H 7537   9.570   5.173   3.488 -0.8951  0.1812 -1.8702
  815MOL0     H 7538   9.458   5.400   3.401 -2.1930 -0.0410 -0.7491
  815MOL0     H 7539   9.434   5.259   3.298 -2.8350  1.8045 -1.2496
  815MOL0     H 7540   9.210   5.208   3.419 -0.8871 -0.0053 -0.1447
  815MOL0     H 7541   9.210   5.345   3.313  3.2479 -2.2390 -2.5191
  815MOL0     H 7542   9.007   5.391   3.320 -2.9767 -2.1549 -0.2860
  815MOL0     H 7543   8.767   5.411   3.367 -1.3258  1.9260 -0.0122
  815MOL0     H 7544   8.450   5.310   3.728  0.9829 -2.1968 -1.4972
  815MOL0     H 7545   8.220   5.342   3.790 -0.4656 -0.0007 -0.1238
  815MOL0     H 7546   8.017   5.321   3.492  0.0140 -1.2208  0.4963
  815MOL0     H 7547   7.905   5.453   3.514 -0.3788 -1.2011 -0.5171
  815MOL0     H 7548   7.814   5.211   3.565  1.1043 -1.7739  0.3823
  815MOL0     H 7549   7.779   5.334   3.680 -1.7473 -1.1597 -2.2525
  815MOL0     H 7550   7.996   5.240   3.805  3.2950 -0.8019 -0.2516
  815MOL0     H 7551   8.000   5.125   3.669  0.9404 -1.7005  2.7780
  815MOL0     H 7552   7.755   5.146   3.847  1.5820  2.5419  0.2817
  815MOL0     H 7553   7.807   5.019   3.731 -2.7703  0.7139  1.2184
  815MOL0     H 7554   8.012   5.079   3.944  1.2644 -1.5547 -2.5111
  815MOL0     H 7555   7.969   4.930   3.870  1.3654 -1.6488  0.8388
  815MOL0     H 7556   7.752   4.944   4.024 -0.0987  1.1020  0.1358
  815MOL0     H 7557   7.790   5.102   4.071 -0.1701 -0.6844 -0.9671
  815MOL0     H 7558   8.010   4.987   4.181 -0.3528 -0.0418 -1.8572
  815MOL0     H 7559   7.867   4.914   4.258  0.6901 -0.4196  0.9245
  815MOL0     H 7560   8.001   4.767   4.227 -2.1740  0.4900  2.0697
  815MOL0     H 7561   8.038   4.784   4.053 -0.7740 -0.4580 -0.1466
  815MOL0     H 7562   8.142   5.568   3.440 -0.3911 -2.3192 -2.4799
  815MOL0     H 7563   8.374   5.577   3.387 -0.3643  1.2667  0.1127
  815MOL0     H 7564   8.888   5.507   3.783  4.1367 -5.2289  1.9435
  815MOL0     H 7565   9.109   5.465   3.727  0.0287 -0.2585  0.1135
  815MOL0     H 7566  10.346   5.265   4.706 -0.4236 -0.3299  0.1353
  815MOL0     H 7567  10.395   5.326   4.939 -0.6942 -0.5126  0.5236
  815MOL0     H 7568  10.186   5.192   5.476 -0.8769  3.6442 -0.5342
  815MOL0     H 7569  10.303   5.254   5.699  2.0430  1.5283  0.9969
  815MOL0     H 7570  10.698   5.429   5.683 -1.3740  0.0583 -0.5381
  815MOL0     H 7571  10.726   5.264   5.744 -0.1252 -0.6229  1.5150
  815MOL0     H 7572  10.643   5.496   5.921 -0.9443 -1.2036 -0.4126
  815MOL0     H 7573  10.640   5.328   5.964 -0.6957 -0.2978 -0.8404
  815MOL0     H 7574  10.874   5.504   5.992  2.4835 -0.5857 -0.5493
  815MOL0     H 7575  10.904   5.430   5.843  0.3056  0.9779  0.3094
  815MOL0     H 7576  10.829   5.271   6.089 -0.8348  0.0256 -0.5745
  815MOL0     H 7577  10.898   5.216   5.920  0.5046  0.5092 -0.9745
  815MOL0     H 7578  11.244   5.316   6.124 -0.0747  2.5921  0.8060
  815MOL0     H 7579  10.680   5.300   5.486 -0.3083 -1.5486 -2.2805
  815MOL0     H 7580  10.575   5.266   5.292 -0.8823 -0.5390 -0.7012
  816MOL0     O 7581   1.078   8.705   6.036 -0.1627  0.1003 -0.3520
  816MOL0     C 7582   1.139   8.747   6.132 -0.1038  0.1813  1.1865
  816MOL0     O 7583   1.086   8.808   6.232  0.7416  0.3791  0.3933
  816MOL0     C 7584   0.963   8.858   6.232  0.6426  0.6599 -0.3230
  816MOL0     C 7585   0.903   8.875   6.356 -1.4919  0.1784 -0.1261
  816MOL0     C 7586   0.767   8.905   6.367 -0.3535  0.5613  0.1813
  816MOL0     C 7587   0.687   8.919   6.254  0.7479  0.4115 -1.0326
  816MOL0     O 7588   0.554   8.944   6.277  0.5834 -0.7079  0.6259
  816MOL0     C 7589   0.469   8.939   6.159 -0.7836 -0.0373 -0.4814
  816MOL0     C 7590   0.332   8.969   6.220  0.6854  0.6826  0.4392
  816MOL0     C 7591   0.285   9.101   6.163  1.0162  0.4819 -0.6879
  816MOL0     C 7592   0.158   9.155   6.234  0.5218  0.5781  0.2633
  816MOL0     C 7593   0.120   9.291   6.184 -1.0273 -0.0604 -0.1446
  816MOL0     C 7594   0.055   9.281   6.053  0.5907  0.1881 -0.2664
  816MOL0     C 7595   0.063   9.415   5.971  0.0471 -0.1727 -0.0783
  816MOL0     C 7596  -0.012   9.531   6.034 -0.1256  0.1651  0.0098
  816MOL0     N 7597  -0.159   9.509   6.044 -0.1995 -1.0517  0.3438
  816MOL0     C 7598  -0.213   9.435   6.146 -0.2858  0.8025  0.5361
  816MOL0     C 7599  -0.342   9.425   6.117 -0.0147 -0.9209  1.1098
  816MOL0     C 7600  -0.454   9.359   6.194 -0.0616  0.3901  0.5684
  816MOL0     C 7601  -0.539   9.258   6.120  0.0918 -0.3959  0.7180
  816MOL0     C 7602  -0.468   9.126   6.070  0.0304  0.4267 -0.9378
  816MOL0     C 7603  -0.569   9.037   6.001 -0.1150 -0.9777  0.2618
  816MOL0     O 7604  -0.668   9.005   6.104 -0.4874 -0.6451  0.1145
  816MOL0     C 7605  -0.802   9.019   6.075  0.0943 -0.8434 -0.1773
  816MOL0     C 7606  -0.874   8.914   6.127 -0.0350  0.0630  0.0395
  816MOL0     C 7607  -1.009   8.909   6.104  0.1267  0.5240 -0.2349
  816MOL0     C 7608  -1.075   9.010   6.034  0.1439 -0.4663  0.5579
  816MOL0     C 7609  -1.220   9.000   6.015 -0.0841  0.3266  0.9113
  816MOL0     O 7610  -1.288   9.117   6.005 -0.2147  0.1842  0.9962
  816MOL0     C 7611  -1.422   9.116   6.007 -0.4230 -0.1253  0.1590
  816MOL0     C 7612  -1.501   9.041   6.105  0.0694  0.7260  1.3482
  816MOL0     C 7613  -1.641   9.064   6.115  0.3112 -0.0308 -0.1808
  816MOL0     C 7614  -1.704   9.121   6.007 -1.0083 -0.0059  0.0518
  816MOL0     O 7615  -1.839   9.118   6.011  0.1056 -0.0692  0.1859
  816MOL0     C 7616  -1.913   9.233   5.962 -0.1994 -0.1269 -0.5262
  816MOL0     C 7617  -2.060   9.201   5.963  0.3394 -0.5112  0.6445
  816MOL0     C 7618  -2.113   9.167   6.102 -0.4423 -0.1950  0.5074
  816MOL0     C 7619  -2.261   9.160   6.099 -0.2548 -0.6488  0.3902
  816MOL0     C 7620  -2.327   9.120   6.231 -0.8436 -0.2862 -0.0653
  816MOL0     C 7621  -2.472   9.087   6.209  0.0210  0.5078 -0.5067
  816MOL0     C 7622  -2.553   9.201   6.151 -0.4150  0.3353 -0.9978
  816MOL0     C 7623  -2.696   9.156   6.122 -0.2500 -0.6347 -0.0285
  816MOL0    Cl 7624  -2.790   9.105   6.262  0.5229 -0.0454 -0.1645
  816MOL0     C 7625  -1.633   9.181   5.905  0.8027  0.7508  0.8212
  816MOL0     C 7626  -1.488   9.186   5.911 -0.6974  0.8420 -0.0575
  816MOL0     O 7627  -1.278   8.887   6.002  0.7494 -0.4909 -0.0264
  816MOL0     C 7628  -0.996   9.123   5.995  0.3113 -0.0807  0.2194
  816MOL0     C 7629  -0.855   9.135   6.014  0.1976 -0.0368 -0.4636
  816MOL0     N 7630  -0.362   9.498   6.003  0.3874 -0.2645  0.3258
  816MOL0     N 7631  -0.250   9.543   5.953  0.2970 -0.0072  0.0498
  816MOL0     C 7632   0.751   8.916   6.132 -0.5593 -0.7227 -0.1652
  816MOL0     C 7633   0.886   8.891   6.117  0.9979 -0.2942 -0.4523
  816MOL0     C 7634   1.289   8.727   6.136 -1.0354 -0.1223 -0.4630
  816MOL0     C 7635   1.364   8.768   6.244 -0.8572 -0.5363  0.3285
  816MOL0     C 7636   1.504   8.746   6.251  0.4497 -0.3167  0.6147
  816MOL0     C 7637   1.573   8.681   6.149 -0.1060 -0.5467 -0.9158
  816MOL0     O 7638   1.707   8.673   6.161 -0.6405 -0.6088  0.3249
  816MOL0     C 7639   1.776   8.564   6.109  0.6225  0.2830 -0.7091
  816MOL0     C 7640   1.762   8.438   6.196 -1.0629 -0.1880 -0.6623
  816MOL0     C 7641   1.866   8.428   6.305 -0.2926  0.0835  0.6471
  816MOL0     C 7642   1.853   8.311   6.393 -0.1251 -0.2382 -0.1367
  816MOL0     C 7643   1.885   8.186   6.328 -0.3514 -0.6746 -0.7999
  816MOL0     C 7644   1.917   8.071   6.290  0.4345  0.5484  0.1234
  816MOL0     C 7645   1.505   8.660   6.031 -0.2882  0.3344  0.7427
  816MOL0     C 7646   1.367   8.685   6.026  0.4535  0.0510 -0.3157
  816MOL0     H 7647   0.969   8.851   6.440  0.7210  2.4658 -1.0752
  816MOL0     H 7648   0.722   8.908   6.466 -0.2269  0.2817  0.2501
  816MOL0     H 7649   0.471   8.840   6.113  0.8535 -1.3416  2.1428
  816MOL0     H 7650   0.493   9.012   6.082  2.0924 -1.5823 -1.2087
  816MOL0     H 7651   0.350   8.982   6.327  4.0379  0.3196  0.0006
  816MOL0     H 7652   0.251   8.899   6.199  0.8753 -0.0834  2.0735
  816MOL0     H 7653   0.262   9.076   6.059  3.0953  1.9698 -1.5806
  816MOL0     H 7654   0.373   9.165   6.169  1.4711 -0.0595 -1.4515
  816MOL0     H 7655   0.078   9.081   6.222 -0.0221  1.0822  0.7425
  816MOL0     H 7656   0.189   9.148   6.338 -2.1521  1.3947  1.1873
  816MOL0     H 7657   0.215   9.344   6.170  0.0275 -2.1603 -1.5783
  816MOL0     H 7658   0.061   9.342   6.260 -0.0322 -0.6763  1.0621
  816MOL0     H 7659  -0.046   9.243   6.063 -0.5896  2.9341 -0.8384
  816MOL0     H 7660   0.101   9.212   5.981 -1.1394  1.2584 -2.5216
  816MOL0     H 7661   0.165   9.454   5.960  0.5208 -1.8763 -2.3221
  816MOL0     H 7662   0.029   9.398   5.869  1.8144  1.1186 -0.9469
  816MOL0     H 7663   0.016   9.618   5.975  0.4441  0.6941  1.0268
  816MOL0     H 7664   0.023   9.560   6.134  2.0267 -1.2346 -0.2826
  816MOL0     H 7665  -0.154   9.396   6.228  0.8890  0.8236 -0.2727
  816MOL0     H 7666  -0.521   9.439   6.226 -3.0158 -1.1137 -1.4215
  816MOL0     H 7667  -0.408   9.299   6.273 -0.8850 -0.6400  0.2748
  816MOL0     H 7668  -0.587   9.293   6.028  1.0247 -2.3962 -0.5743
  816MOL0     H 7669  -0.618   9.224   6.188  1.2475 -2.7943  0.9481
  816MOL0     H 7670  -0.391   9.141   5.994 -0.2443  0.2256 -1.2583
  816MOL0     H 7671  -0.422   9.073   6.154 -0.7460 -0.3958 -1.0075
  816MOL0     H 7672  -0.508   8.949   5.979 -0.3388 -0.9320 -0.5737
  816MOL0     H 7673  -0.621   9.090   5.921 -1.0788 -0.1521  1.3976
  816MOL0     H 7674  -0.817   8.833   6.172  0.4346  0.7713  0.7409
  816MOL0     H 7675  -1.065   8.823   6.139  0.2624  1.1727  1.6941
  816MOL0     H 7676  -1.455   8.978   6.180  0.4449  0.3803  0.8342
  816MOL0     H 7677  -1.702   8.996   6.173  1.2808  0.6964  1.7798
  816MOL0     H 7678  -1.893   9.256   5.857 -0.8827  1.2569 -0.3819
  816MOL0     H 7679  -1.885   9.313   6.031 -0.4520 -2.4784  2.5171
  816MOL0     H 7680  -2.083   9.129   5.884  1.0881 -0.2882  0.2180
  816MOL0     H 7681  -2.116   9.289   5.930  0.7090 -0.9612 -1.3148
  816MOL0     H 7682  -2.087   9.246   6.172  2.4266 -0.4923 -0.1125
  816MOL0     H 7683  -2.061   9.082   6.146 -1.4699 -0.1420  1.8647
  816MOL0     H 7684  -2.292   9.263   6.079 -0.9676 -1.0176 -0.5066
  816MOL0     H 7685  -2.298   9.096   6.018  1.7872 -2.4633  0.8096
  816MOL0     H 7686  -2.317   9.216   6.283  1.3619 -1.4454  1.8343
  816MOL0     H 7687  -2.283   9.030   6.274 -0.6113 -1.6532 -2.8901
  816MOL0     H 7688  -2.512   9.065   6.308  2.4393  0.1306  0.4514
  816MOL0     H 7689  -2.474   8.998   6.145 -1.3116  1.3904 -1.7283
  816MOL0     H 7690  -2.564   9.288   6.216 -0.3667 -1.7051  1.9081
  816MOL0     H 7691  -2.507   9.230   6.056 -0.1029 -1.6300 -1.4894
  816MOL0     H 7692  -2.689   9.071   6.054 -0.6217  0.1326 -1.0591
  816MOL0     H 7693  -2.752   9.241   6.081 -0.4880 -0.9902 -0.4549
  816MOL0     H 7694  -1.688   9.215   5.817 -0.1311  0.4290  1.2685
  816MOL0     H 7695  -1.424   9.242   5.843 -0.8404  1.4550  0.3085
  816MOL0     H 7696  -1.050   9.205   5.949 -2.0407 -1.4605  0.3675
  816MOL0     H 7697  -0.792   9.216   5.981  0.8410 -1.4299 -2.9037
  816MOL0     H 7698   0.689   8.931   6.043  0.3092 -2.6364 -1.1588
  816MOL0     H 7699   0.919   8.896   6.013 -0.7227  0.5327 -0.9994
  816MOL0     H 7700   1.305   8.820   6.319 -1.7783 -1.2901  0.1500
  816MOL0     H 7701   1.555   8.765   6.345  1.3142 -3.8783  1.0104
  816MOL0     H 7702   1.883   8.588   6.102  0.7490 -0.4186 -1.4043
  816MOL0     H 7703   1.738   8.535   6.011 -0.3111 -0.0405 -0.2652
  816MOL0     H 7704   1.661   8.442   6.238 -1.7380 -3.1548 -1.7316
  816MOL0     H 7705   1.774   8.348   6.135  0.5772 -1.3788  1.2907
  816MOL0     H 7706   1.851   8.515   6.370 -3.5680  0.6373 -0.6685
  816MOL0     H 7707   1.968   8.427   6.264  0.2938  0.6061  2.0163
  816MOL0     H 7708   1.911   8.310   6.486 -0.3456 -2.0700  0.0234
  816MOL0     H 7709   1.750   8.305   6.429  0.7089 -1.3188  2.2528
  816MOL0     H 7710   1.939   7.967   6.277 -1.4219 -0.0558  1.3517
  816MOL0     H 7711   1.559   8.640   5.939 -0.4338 -1.5153  1.0228
  816MOL0     H 7712   1.317   8.656   5.934 -0.0837  1.6602 -0.5628
  817MOL0     O 7713   6.205   6.145   4.277  0.8615  0.1449 -0.2143
  817MOL0     C 7714   6.263   6.249   4.310 -0.0130  0.1320  0.3092
  817MOL0     O 7715   6.208   6.377   4.327  0.5338 -0.1559 -0.6071
  817MOL0     C 7716   6.073   6.395   4.319 -0.1280  0.9125 -0.4321
  817MOL0     C 7717   6.000   6.408   4.436 -0.1001  0.4476 -0.5116
  817MOL0     C 7718   5.858   6.412   4.430  0.2970 -0.3137  0.3302
  817MOL0     C 7719   5.783   6.411   4.306 -0.2278 -0.3740 -0.4339
  817MOL0     O 7720   5.650   6.429   4.316 -0.1034 -0.2981 -0.2884
  817MOL0     C 7721   5.573   6.329   4.243  0.0534 -0.0381 -0.6843
  817MOL0     C 7722   5.418   6.376   4.252  0.5635  0.2662  0.2275
  817MOL0     C 7723   5.354   6.384   4.112 -1.5096 -0.1797 -0.5104
  817MOL0     C 7724   5.220   6.455   4.107  1.1253 -0.6128  0.4206
  817MOL0     C 7725   5.167   6.468   3.962 -0.2786 -0.7511 -0.0645
  817MOL0     C 7726   5.022   6.481   3.963 -0.3317  0.5508  1.0319
  817MOL0     C 7727   4.974   6.523   3.816 -0.3722 -0.0930 -0.8155
  817MOL0     C 7728   4.828   6.594   3.811  0.8946  0.1721 -0.0348
  817MOL0     N 7729   4.721   6.492   3.856  0.2074 -0.0916  0.2898
  817MOL0     C 7730   4.668   6.470   3.986 -0.2579  0.6070  0.0346
  817MOL0     C 7731   4.579   6.369   3.958  1.0711  0.3091  0.1469
  817MOL0     C 7732   4.471   6.302   4.037 -0.2555  0.4569  0.5543
  817MOL0     C 7733   4.340   6.362   4.015 -1.1117  0.3018  0.3614
  817MOL0     C 7734   4.316   6.483   4.107 -1.1419 -0.2937 -0.2330
  817MOL0     C 7735   4.307   6.613   4.029 -0.7091 -0.4291  0.6642
  817MOL0     O 7736   4.301   6.720   4.124  0.0414  0.8715  0.0901
  817MOL0     C 7737   4.175   6.734   4.170 -0.3596 -0.1938  0.4396
  817MOL0     C 7738   4.061   6.750   4.083 -0.9680 -0.0923  0.3636
  817MOL0     C 7739   3.926   6.768   4.136  0.1772 -0.6321  1.2813
  817MOL0     C 7740   3.908   6.782   4.276 -0.1382  0.7989  0.1183
  817MOL0     C 7741   3.773   6.819   4.330  0.0034 -0.0755  1.2508
  817MOL0     O 7742   3.680   6.886   4.258 -0.2127  0.9453  0.0814
  817MOL0     C 7743   3.558   6.922   4.322  0.8291 -0.8191 -0.1073
  817MOL0     C 7744   3.524   7.048   4.356  0.1199  0.4112  0.1976
  817MOL0     C 7745   3.401   7.073   4.412 -0.1429  0.3270  0.0371
  817MOL0     C 7746   3.314   6.969   4.442  0.0062 -0.3601 -0.7173
  817MOL0     O 7747   3.195   7.006   4.498 -0.9139 -0.0082  0.3923
  817MOL0     C 7748   3.195   6.984   4.638  0.8153  0.1004 -1.1182
  817MOL0     C 7749   3.073   7.058   4.709  0.0102  0.6427  0.6457
  817MOL0     C 7750   2.945   6.989   4.657  0.7853  0.4599 -0.1287
  817MOL0     C 7751   2.819   7.035   4.738  0.5045  0.5077  0.8978
  817MOL0     C 7752   2.696   6.949   4.736 -0.0919  0.3366 -0.1481
  817MOL0     C 7753   2.653   6.921   4.598  0.7154 -0.6882 -0.7147
  817MOL0     C 7754   2.517   6.856   4.590  0.4561 -0.0015  0.3592
  817MOL0     C 7755   2.487   6.807   4.450  0.1082  0.5130 -0.5738
  817MOL0    Cl 7756   2.490   6.933   4.328 -0.1641 -0.2849 -0.5550
  817MOL0     C 7757   3.338   6.837   4.401  0.0908  0.7983  0.4865
  817MOL0     C 7758   3.464   6.815   4.338  0.1459 -0.6107 -0.8421
  817MOL0     O 7759   3.753   6.774   4.447  0.4264 -1.3335  0.2667
  817MOL0     C 7760   4.025   6.774   4.355  0.2025  0.1831  1.6779
  817MOL0     C 7761   4.151   6.751   4.307 -0.3261 -0.9556  0.1654
  817MOL0     N 7762   4.590   6.327   3.833 -0.7290  0.0429 -0.1319
  817MOL0     N 7763   4.672   6.396   3.768 -0.2845  0.1919 -0.0477
  817MOL0     C 7764   5.859   6.420   4.193 -0.2391  0.0798 -0.0958
  817MOL0     C 7765   5.998   6.404   4.199 -0.2809 -0.5167 -0.8377
  817MOL0     C 7766   6.408   6.238   4.321 -0.3173  0.4008  0.6193
  817MOL0     C 7767   6.485   6.148   4.244 -0.1380  0.7219  0.2074
  817MOL0     C 7768   6.624   6.153   4.251  0.3953  0.2213 -0.3594
  817MOL0     C 7769   6.700   6.249   4.320  0.7140 -0.7246  0.2009
  817MOL0     O 7770   6.838   6.252   4.311  0.2604 -0.5548  0.1328
  817MOL0     C 7771   6.904   6.382   4.340  0.6128 -0.0663 -0.4601
  817MOL0     C 7772   7.061   6.384   4.299  0.0555 -0.4399  0.8584
  817MOL0     C 7773   7.083   6.294   4.182 -0.8405 -0.0541 -0.2797
  817MOL0     C 7774   7.235   6.301   4.142  0.1545 -0.9118  0.6200
  817MOL0     C 7775   7.284   6.420   4.079 -0.3465  0.5231 -0.2380
  817MOL0     C 7776   7.325   6.526   4.040 -0.1825  0.4431  0.2410
  817MOL0     C 7777   6.619   6.339   4.398  0.1728  0.3732 -0.1942
  817MOL0     C 7778   6.477   6.332   4.399 -0.6190  0.2538  0.2287
  817MOL0     H 7779   6.060   6.419   4.526  3.9595 -0.8320 -2.8408
  817MOL0     H 7780   5.799   6.410   4.521  3.1275 -2.5060  2.2783
  817MOL0     H 7781   5.586   6.233   4.294  2.8282  1.7122  2.2947
  817MOL0     H 7782   5.595   6.330   4.136  0.5120  1.1143 -0.5844
  817MOL0     H 7783   5.405   6.481   4.277 -0.8056  0.2984 -0.5291
  817MOL0     H 7784   5.360   6.303   4.310  2.2074 -1.6472 -0.4019
  817MOL0     H 7785   5.351   6.285   4.068 -2.1640  1.2680 -4.0373
  817MOL0     H 7786   5.418   6.440   4.044 -2.1944 -1.6862 -2.4889
  817MOL0     H 7787   5.150   6.392   4.163  1.5541 -1.7237 -0.2576
  817MOL0     H 7788   5.230   6.559   4.138 -1.3067  0.3636 -1.6590
  817MOL0     H 7789   5.192   6.383   3.899 -0.7684  0.0728 -1.4156
  817MOL0     H 7790   5.207   6.557   3.913  2.6707 -2.0535 -0.2198
  817MOL0     H 7791   4.999   6.556   4.039  1.1039  0.1042  1.9441
  817MOL0     H 7792   4.993   6.378   3.983 -0.2141 -0.0918 -1.7029
  817MOL0     H 7793   5.044   6.598   3.781 -0.7018  0.0718 -1.1274
  817MOL0     H 7794   4.984   6.440   3.746 -1.1662 -3.2365  2.4772
  817MOL0     H 7795   4.804   6.618   3.707 -1.7192 -1.8099 -0.0017
  817MOL0     H 7796   4.825   6.686   3.870 -3.9086  0.7844 -0.7953
  817MOL0     H 7797   4.690   6.520   4.080 -1.5397 -0.9559  1.2123
  817MOL0     H 7798   4.501   6.295   4.143  0.1174 -0.9418  0.3883
  817MOL0     H 7799   4.466   6.197   4.004 -1.4462  1.6810 -3.7121
  817MOL0     H 7800   4.271   6.284   4.050  1.5417 -0.3253  5.1015
  817MOL0     H 7801   4.309   6.372   3.911 -1.1909 -2.2017  0.0892
  817MOL0     H 7802   4.220   6.478   4.160 -0.7588 -1.5315  0.3886
  817MOL0     H 7803   4.397   6.487   4.180  0.9393  0.2503 -2.4450
  817MOL0     H 7804   4.225   6.602   3.956 -0.5663  0.2376  0.3906
  817MOL0     H 7805   4.397   6.626   3.968 -1.1314  1.5800  0.3816
  817MOL0     H 7806   4.066   6.755   3.974 -1.1742 -1.2507  0.2872
  817MOL0     H 7807   3.846   6.790   4.066  1.6357 -1.3306 -0.7166
  817MOL0     H 7808   3.590   7.133   4.340 -0.9748  0.9432 -1.9159
  817MOL0     H 7809   3.378   7.175   4.440  1.7096  0.6941  0.3739
  817MOL0     H 7810   3.284   7.020   4.690  1.4968 -0.9462 -1.5370
  817MOL0     H 7811   3.184   6.877   4.655  1.6802  0.1822  0.0536
  817MOL0     H 7812   3.078   7.163   4.679 -2.6263  0.9777  1.0883
  817MOL0     H 7813   3.083   7.043   4.816  0.3611 -0.7171  0.4408
  817MOL0     H 7814   2.958   6.881   4.667 -1.8726 -0.0022 -1.0204
  817MOL0     H 7815   2.932   7.028   4.556 -0.8452  2.7804  0.8950
  817MOL0     H 7816   2.844   7.033   4.844  0.0322  0.2718  1.0056
  817MOL0     H 7817   2.804   7.142   4.717  2.1741  0.3001 -1.9694
  817MOL0     H 7818   2.622   6.994   4.803  0.6805  0.0477  0.9317
  817MOL0     H 7819   2.729   6.855   4.782  2.6900  0.0299 -2.4965
  817MOL0     H 7820   2.726   6.873   4.532  0.2458  0.6120 -2.2584
  817MOL0     H 7821   2.636   7.023   4.562  2.6711 -0.2023 -0.3640
  817MOL0     H 7822   2.499   6.767   4.652 -0.6415 -1.7833 -2.3194
  817MOL0     H 7823   2.442   6.932   4.613  2.6182  2.8390 -1.2236
  817MOL0     H 7824   2.387   6.762   4.444  0.1652  0.4887 -1.6298
  817MOL0     H 7825   2.551   6.723   4.421 -0.8079 -0.9480  1.4084
  817MOL0     H 7826   3.267   6.760   4.427  1.8380 -0.8716  0.5330
  817MOL0     H 7827   3.494   6.713   4.318  1.1410 -0.7283  1.0337
  817MOL0     H 7828   4.017   6.782   4.463  0.7833  2.0947  1.6076
  817MOL0     H 7829   4.241   6.753   4.367  0.8682 -1.4370 -1.5284
  817MOL0     H 7830   5.811   6.445   4.099  1.5917  0.2646 -1.0351
  817MOL0     H 7831   6.063   6.410   4.112  2.1323  0.7430  0.9387
  817MOL0     H 7832   6.440   6.068   4.187  2.8942 -1.0359  0.1192
  817MOL0     H 7833   6.683   6.092   4.183 -1.9270 -0.4918 -1.8541
  817MOL0     H 7834   6.897   6.413   4.444 -0.8869 -3.2948  0.5433
  817MOL0     H 7835   6.853   6.454   4.275  0.5799 -2.3806 -3.2319
  817MOL0     H 7836   7.097   6.484   4.272  0.0794  0.1201  2.8176
  817MOL0     H 7837   7.115   6.347   4.387 -0.3667  0.4393  1.5045
  817MOL0     H 7838   7.032   6.335   4.095  0.4306  2.3376  0.0367
  817MOL0     H 7839   7.041   6.195   4.204  1.7950 -1.9751 -3.1340
  817MOL0     H 7840   7.288   6.273   4.232  2.0151  0.9803  0.1864
  817MOL0     H 7841   7.251   6.219   4.072  0.3768  1.0522 -1.8075
  817MOL0     H 7842   7.374   6.614   4.005  0.1844  0.6802  1.2970
  817MOL0     H 7843   6.675   6.402   4.466 -1.7079  0.9939  0.8652
  817MOL0     H 7844   6.417   6.396   4.462 -0.1419 -0.0178  0.9597
  818MOL0     O 7845   3.571   9.355   0.393  0.5283  0.5914 -0.5154
  818MOL0     C 7846   3.512   9.461   0.374 -0.3234  1.5642  0.7550
  818MOL0     O 7847   3.573   9.582   0.370  0.5999  1.0632  0.6275
  818MOL0     C 7848   3.708   9.579   0.357 -0.3453 -0.5774  0.4659
  818MOL0     C 7849   3.786   9.650   0.449  0.0955  0.2716 -1.0681
  818MOL0     C 7850   3.928   9.674   0.443  0.6065  0.3445  0.0987
  818MOL0     C 7851   3.988   9.634   0.329  0.3477 -0.4954  0.3617
  818MOL0     O 7852   4.112   9.655   0.289 -0.4420  0.0572  0.3836
  818MOL0     C 7853   4.199   9.697   0.396 -0.9886  0.3719  0.2928
  818MOL0     C 7854   4.341   9.725   0.340 -0.2051  0.1299 -0.0228
  818MOL0     C 7855   4.442   9.772   0.448 -0.1515 -0.2474  0.5571
  818MOL0     C 7856   4.578   9.812   0.391 -0.8259 -0.1804 -0.2969
  818MOL0     C 7857   4.664   9.874   0.498  0.4848  0.1315 -0.8476
  818MOL0     C 7858   4.817   9.864   0.478  0.2963 -0.1532 -1.0550
  818MOL0     C 7859   4.903   9.956   0.577  0.7241  0.2126 -0.0088
  818MOL0     C 7860   5.046   9.914   0.578 -0.0255 -0.3695  0.4528
  818MOL0     N 7861   5.099   9.942   0.445  0.3655  0.7945 -0.5873
  818MOL0     C 7862   5.124   9.838   0.362 -0.3641 -0.2171  1.0002
  818MOL0     C 7863   5.175   9.904   0.252 -1.0604  0.1846  0.5908
  818MOL0     C 7864   5.210   9.851   0.112  0.2413 -0.8277  0.1345
  818MOL0     C 7865   5.132   9.913  -0.002  0.0459  0.4718 -0.1560
  818MOL0     C 7866   5.205  10.048  -0.037 -0.4221 -0.3295  0.6814
  818MOL0     C 7867   5.121  10.128  -0.138 -0.0723  0.9806  0.4313
  818MOL0     O 7868   5.005  10.167  -0.062  0.3903 -0.4411 -0.0207
  818MOL0     C 7869   4.898  10.198  -0.142  0.6132  0.3694 -0.6574
  818MOL0     C 7870   4.897  10.245  -0.274  0.3227  0.0443 -0.0390
  818MOL0     C 7871   4.779  10.264  -0.347 -0.4276 -0.2873  0.3107
  818MOL0     C 7872   4.653  10.245  -0.282  1.1325  0.0954  0.6744
  818MOL0     C 7873   4.525  10.293  -0.343 -0.9384  0.5386  0.2407
  818MOL0     O 7874   4.396  10.263  -0.281 -0.1284 -0.5472 -0.7055
  818MOL0     C 7875   4.278  10.330  -0.311 -0.5270  0.2496  0.4184
  818MOL0     C 7876   4.262  10.451  -0.381 -0.2551  0.2611  0.3555
  818MOL0     C 7877   4.136  10.499  -0.408  0.5460 -0.4230 -0.0298
  818MOL0     C 7878   4.019  10.443  -0.345 -0.6404 -0.3837  0.1328
  818MOL0     O 7879   3.901  10.498  -0.360  0.5184 -0.9034 -0.6207
  818MOL0     C 7880   3.868  10.549  -0.495 -0.9198  0.6945 -0.3159
  818MOL0     C 7881   3.717  10.533  -0.526 -0.5220 -0.5833 -0.1135
  818MOL0     C 7882   3.634  10.628  -0.446 -0.7468  0.0367 -0.0715
  818MOL0     C 7883   3.495  10.626  -0.499  0.5088  0.7248  0.3971
  818MOL0     C 7884   3.395  10.686  -0.396  0.4840 -0.0829 -0.6867
  818MOL0     C 7885   3.244  10.677  -0.440  0.4056  0.5238  1.0524
  818MOL0     C 7886   3.184  10.535  -0.425  0.8074 -0.4593 -0.6575
  818MOL0     C 7887   3.029  10.536  -0.447 -0.7612 -0.7652  0.0658
  818MOL0    Cl 7888   2.957  10.641  -0.319  0.4220 -0.2280  0.1351
  818MOL0     C 7889   4.038  10.325  -0.271  0.3589  0.0935  0.8445
  818MOL0     C 7890   4.168  10.269  -0.253  1.2935 -0.5748  1.0013
  818MOL0     O 7891   4.540  10.357  -0.442 -0.3858 -0.3639 -0.5030
  818MOL0     C 7892   4.664  10.193  -0.147  0.4222 -0.4331  0.5947
  818MOL0     C 7893   4.777  10.166  -0.076  0.2993  0.4378 -1.1362
  818MOL0     N 7894   5.179  10.035   0.285 -0.1473  0.4888 -0.6168
  818MOL0     N 7895   5.138  10.056   0.399  1.6389 -0.1561 -0.2021
  818MOL0     C 7896   3.916   9.563   0.237 -0.4342  0.6326  0.0218
  818MOL0     C 7897   3.779   9.529   0.240  0.4569  1.2379 -0.2042
  818MOL0     C 7898   3.365   9.454   0.349 -0.8392  0.3980 -1.0636
  818MOL0     C 7899   3.305   9.560   0.288 -0.0892 -0.0131  0.6284
  818MOL0     C 7900   3.165   9.586   0.304  0.0339 -0.3615  0.8635
  818MOL0     C 7901   3.082   9.487   0.353 -0.3874 -0.7136  0.2194
  818MOL0     O 7902   2.944   9.489   0.350  0.5894 -0.2605 -0.4510
  818MOL0     C 7903   2.881   9.616   0.372 -0.2351 -0.9036  0.0405
  818MOL0     C 7904   2.731   9.599   0.378 -1.1825 -0.7349 -0.2973
  818MOL0     C 7905   2.690   9.528   0.510  0.3005  0.4511 -0.2838
  818MOL0     C 7906   2.534   9.507   0.503  0.0210 -0.2464  0.2750
  818MOL0     C 7907   2.476   9.635   0.548  0.8074 -0.2299  0.2957
  818MOL0     C 7908   2.449   9.747   0.579  0.4164  0.2030  0.4500
  818MOL0     C 7909   3.140   9.373   0.401  0.6705  0.2269 -0.0042
  818MOL0     C 7910   3.275   9.359   0.411  0.6791  0.3759 -0.3930
  818MOL0     H 7911   3.730   9.676   0.538 -0.2496 -1.6875 -0.6704
  818MOL0     H 7912   3.974   9.705   0.536 -1.4751 -1.7122  1.9165
  818MOL0     H 7913   4.205   9.614   0.468 -2.0745 -1.2594 -1.4054
  818MOL0     H 7914   4.168   9.785   0.453  0.6692 -0.4472  2.6617
  818MOL0     H 7915   4.329   9.805   0.266  1.4683  1.1835  0.7788
  818MOL0     H 7916   4.381   9.638   0.286  1.4917  2.2298 -2.3746
  818MOL0     H 7917   4.452   9.690   0.520  1.8704  0.0898  0.6960
  818MOL0     H 7918   4.407   9.862   0.499  1.6393  0.7714  0.0517
  818MOL0     H 7919   4.620   9.721   0.349  2.5564  2.2152 -2.6806
  818MOL0     H 7920   4.571   9.880   0.306 -3.2433  0.6774  0.5043
  818MOL0     H 7921   4.641   9.827   0.595  0.8136  0.1339 -0.7682
  818MOL0     H 7922   4.632   9.979   0.492 -5.0912 -1.0241  1.8553
  818MOL0     H 7923   4.834   9.899   0.375 -1.5598  3.0749 -0.3797
  818MOL0     H 7924   4.842   9.758   0.481  2.3625  0.3115 -0.2386
  818MOL0     H 7925   4.887  10.060   0.548 -0.4150  0.3824  1.1556
  818MOL0     H 7926   4.865   9.940   0.678 -2.0991  1.4961 -0.7769
  818MOL0     H 7927   5.064   9.808   0.599 -0.9229 -0.2282  2.0542
  818MOL0     H 7928   5.089   9.976   0.658 -0.5166 -1.0767  1.2858
  818MOL0     H 7929   5.096   9.737   0.389 -1.6598  0.4835  2.4739
  818MOL0     H 7930   5.194   9.742   0.108  7.0531 -2.2730 -1.2155
  818MOL0     H 7931   5.318   9.866   0.100  0.0203  0.5059 -0.3210
  818MOL0     H 7932   5.026   9.931   0.017 -0.2189  2.7165 -3.0128
  818MOL0     H 7933   5.142   9.842  -0.084 -0.8605 -2.1260  1.8383
  818MOL0     H 7934   5.222  10.111   0.050  0.9076 -0.7236  0.7227
  818MOL0     H 7935   5.306  10.030  -0.074  0.5453 -1.6231  3.7300
  818MOL0     H 7936   5.097  10.072  -0.229  3.7443 -0.3647  0.0732
  818MOL0     H 7937   5.175  10.216  -0.175  0.9660 -0.5769 -2.0511
  818MOL0     H 7938   4.992  10.259  -0.326  0.2076 -0.7654 -0.4737
  818MOL0     H 7939   4.796  10.301  -0.448 -0.0172  1.9458  1.1548
  818MOL0     H 7940   4.349  10.507  -0.413  0.3738  0.4518  2.2734
  818MOL0     H 7941   4.132  10.587  -0.472  1.0425  0.1122  0.6542
  818MOL0     H 7942   3.925  10.480  -0.559  0.2458 -0.6696  2.0355
  818MOL0     H 7943   3.903  10.652  -0.496 -0.2712  0.7034  3.8990
  818MOL0     H 7944   3.697  10.434  -0.486 -0.7188  0.5193  2.7642
  818MOL0     H 7945   3.701  10.530  -0.634 -1.1218 -1.5089 -0.0093
  818MOL0     H 7946   3.677  10.728  -0.455  1.1867 -0.5180  2.1219
  818MOL0     H 7947   3.655  10.600  -0.342 -1.0207  1.6666  0.4477
  818MOL0     H 7948   3.488  10.668  -0.599  1.8847 -0.2355 -0.1342
  818MOL0     H 7949   3.478  10.518  -0.510 -0.9531  0.8376  1.3190
  818MOL0     H 7950   3.417  10.792  -0.387  0.4807 -0.1059 -0.4024
  818MOL0     H 7951   3.401  10.647  -0.294  0.4452 -1.2367 -1.1031
  818MOL0     H 7952   3.215  10.696  -0.544 -3.1269 -0.3444  1.7512
  818MOL0     H 7953   3.192  10.744  -0.371 -2.2785  0.9861 -1.2097
  818MOL0     H 7954   3.215  10.472  -0.509  0.3518 -0.0134 -1.1654
  818MOL0     H 7955   3.204  10.483  -0.331  0.8163 -0.3540 -0.6005
  818MOL0     H 7956   2.999  10.431  -0.443  2.1608 -1.7317  4.3396
  818MOL0     H 7957   3.004  10.586  -0.541  0.8797  0.6291  0.3042
  818MOL0     H 7958   3.950  10.268  -0.245  0.7613 -1.3917 -0.8792
  818MOL0     H 7959   4.192  10.176  -0.203  3.4888 -1.0378 -0.7363
  818MOL0     H 7960   4.572  10.191  -0.089 -2.1762 -2.3625 -3.1543
  818MOL0     H 7961   4.778  10.120   0.023 -0.4678  0.2860 -1.1948
  818MOL0     H 7962   3.970   9.528   0.148  0.5786 -0.4959  1.0357
  818MOL0     H 7963   3.722   9.488   0.156  0.4239  0.2055  0.3052
  818MOL0     H 7964   3.364   9.631   0.232 -0.7985 -1.9143 -2.8150
  818MOL0     H 7965   3.115   9.677   0.272  0.0392  0.6789  3.5440
  818MOL0     H 7966   2.906   9.686   0.292 -0.1152  1.1502  1.7817
  818MOL0     H 7967   2.913   9.659   0.466 -0.9928 -0.0350 -0.0822
  818MOL0     H 7968   2.688   9.698   0.393  0.8324  0.1151  0.1580
  818MOL0     H 7969   2.694   9.554   0.285 -2.9213  0.9291 -0.4589
  818MOL0     H 7970   2.726   9.585   0.597  0.7996 -0.2726 -0.0063
  818MOL0     H 7971   2.732   9.427   0.514  0.2381  0.4497  3.0712
  818MOL0     H 7972   2.492   9.484   0.404 -1.2565  1.5965  0.3411
  818MOL0     H 7973   2.491   9.436   0.575 -0.5595  0.1068  0.2785
  818MOL0     H 7974   2.414   9.848   0.591 -0.1615  0.5658 -3.1299
  818MOL0     H 7975   3.064   9.300   0.428 -2.6779  2.9704 -1.1825
  818MOL0     H 7976   3.312   9.273   0.466  1.2512  0.8912  0.0328
  819MOL0     O 7977   8.790  10.282   5.785  0.0027 -0.1681  0.2276
  819MOL0     C 7978   8.880  10.366   5.762 -0.2667 -0.3283 -0.2004
  819MOL0     O 7979   8.856  10.501   5.725 -0.5351 -0.2303 -0.4723
  819MOL0     C 7980   8.734  10.554   5.740 -0.8313 -0.3428  0.0496
  819MOL0     C 7981   8.668  10.561   5.625  0.3848 -0.3582 -0.4770
  819MOL0     C 7982   8.541  10.610   5.621  0.1264 -0.0222 -0.2944
  819MOL0     C 7983   8.487  10.667   5.734 -0.1684  1.5845 -0.2280
  819MOL0     O 7984   8.368  10.734   5.723 -0.2171  0.8586 -0.3285
  819MOL0     C 7985   8.272  10.737   5.823  0.2475 -0.7115 -0.2733
  819MOL0     C 7986   8.136  10.706   5.768  0.1176  0.8199 -0.6015
  819MOL0     C 7987   8.024  10.673   5.864 -0.1501 -0.6097  0.0404
  819MOL0     C 7988   8.058  10.558   5.964  0.4887 -0.4457 -0.1667
  819MOL0     C 7989   7.940  10.511   6.034 -0.3595  0.8570 -0.8172
  819MOL0     C 7990   7.887  10.613   6.138  1.0419 -0.2861  0.2572
  819MOL0     C 7991   7.740  10.605   6.171 -0.3862 -0.4516  0.2027
  819MOL0     C 7992   7.694  10.475   6.234 -0.9929 -0.2359 -0.2512
  819MOL0     N 7993   7.776  10.452   6.348 -0.3857 -0.3745 -0.2457
  819MOL0     C 7994   7.833  10.334   6.375  0.2375  0.5834 -0.0805
  819MOL0     C 7995   7.904  10.368   6.486 -0.2900 -1.0707 -0.4221
  819MOL0     C 7996   7.979  10.273   6.570 -0.4297 -0.3948 -0.6605
  819MOL0     C 7997   7.931  10.228   6.711  0.0915  0.3244  0.6392
  819MOL0     C 7998   7.923  10.349   6.806 -0.6010  0.1090  0.5026
  819MOL0     C 7999   7.974  10.309   6.941 -1.2261  0.3265 -0.5005
  819MOL0     O 8000   7.886  10.209   6.998  0.3896  1.3331 -0.4242
  819MOL0     C 8001   7.765  10.252   7.040  0.0950 -0.5005  0.3282
  819MOL0     C 8002   7.654  10.229   6.952 -0.2999 -0.2368  0.5576
  819MOL0     C 8003   7.524  10.277   6.983  0.3186 -0.8093 -0.1799
  819MOL0     C 8004   7.498  10.351   7.106 -0.1878 -0.1371  0.4422
  819MOL0     C 8005   7.363  10.401   7.136 -0.2797 -0.2711 -0.5672
  819MOL0     O 8006   7.278  10.395   7.032 -0.7399 -0.6421  0.1040
  819MOL0     C 8007   7.156  10.454   7.045  0.3905 -0.6122  0.3164
  819MOL0     C 8008   7.148  10.586   7.078 -0.2525  0.7657 -0.1340
  819MOL0     C 8009   7.028  10.658   7.076 -0.4572 -0.0898  0.4661
  819MOL0     C 8010   6.906  10.596   7.032  0.0018 -0.2547 -0.1959
  819MOL0     O 8011   6.787  10.656   7.007  0.0264 -0.3207 -0.7165
  819MOL0     C 8012   6.770  10.786   7.068 -0.5653  0.5916 -0.7735
  819MOL0     C 8013   6.649  10.845   7.023 -0.1379 -0.5535 -0.4186
  819MOL0     C 8014   6.531  10.746   7.031 -0.4993  0.9761 -0.5133
  819MOL0     C 8015   6.396  10.816   6.988 -0.0098 -0.7175 -0.9131
  819MOL0     C 8016   6.400  10.863   6.846 -1.3313 -0.3713  0.2655
  819MOL0     C 8017   6.270  10.902   6.790 -0.5159 -0.3859 -0.0318
  819MOL0     C 8018   6.240  11.041   6.820  1.4255  0.0759  0.3682
  819MOL0     C 8019   6.088  11.067   6.805  0.0102  0.5232 -0.2640
  819MOL0    Cl 8020   6.055  11.093   6.625  0.4667 -0.0999  0.0549
  819MOL0     C 8021   6.913  10.468   6.993 -0.0128  0.3747  0.3701
  819MOL0     C 8022   7.034  10.395   7.005 -0.6861  0.2234 -0.0279
  819MOL0     O 8023   7.335  10.446   7.251 -0.6028 -0.0502 -0.0451
  819MOL0     C 8024   7.603  10.359   7.201  0.2129  0.1020  0.6598
  819MOL0     C 8025   7.735  10.317   7.164 -0.2173 -0.7777 -0.0397
  819MOL0     N 8026   7.869  10.500   6.530  0.1309  0.1910  1.0026
  819MOL0     N 8027   7.782  10.546   6.445  0.0540 -0.1885 -0.0905
  819MOL0     C 8028   8.566  10.679   5.855  0.0500 -0.8181  0.0071
  819MOL0     C 8029   8.688  10.609   5.860  1.2668  0.7713  0.2357
  819MOL0     C 8030   9.009  10.302   5.735  0.7851 -0.2658  0.8034
  819MOL0     C 8031   9.092  10.365   5.645  0.3923  0.9926  0.5592
  819MOL0     C 8032   9.222  10.319   5.635  0.4356  0.9379  0.2150
  819MOL0     C 8033   9.259  10.196   5.696  0.1239  0.6398  0.0042
  819MOL0     O 8034   9.387  10.143   5.695 -0.3728 -0.5462  0.4778
  819MOL0     C 8035   9.484  10.192   5.607  0.1163 -0.9911 -0.0223
  819MOL0     C 8036   9.606  10.104   5.599  0.7249 -0.2069  0.7725
  819MOL0     C 8037   9.554   9.963   5.610 -0.7000 -0.5743  0.4041
  819MOL0     C 8038   9.665   9.863   5.564  0.3279 -0.5983  0.3545
  819MOL0     C 8039   9.770   9.841   5.671 -0.1264 -0.1701  0.7454
  819MOL0     C 8040   9.865   9.818   5.744 -0.5686 -0.4617 -0.2492
  819MOL0     C 8041   9.166  10.123   5.778  0.2176 -0.5281 -0.5828
  819MOL0     C 8042   9.041  10.186   5.799 -1.1298  0.8332  1.1345
  819MOL0     H 8043   8.699  10.509   5.535  1.4435 -1.1108  0.2913
  819MOL0     H 8044   8.483  10.620   5.529 -0.5694  1.0193  0.2304
  819MOL0     H 8045   8.267  10.830   5.879  2.4141 -1.2935  0.9888
  819MOL0     H 8046   8.298  10.662   5.898 -3.7135 -1.0667  1.0016
  819MOL0     H 8047   8.153  10.618   5.705  2.5678  1.9597 -1.6782
  819MOL0     H 8048   8.106  10.792   5.708 -2.7766  0.8250  0.6872
  819MOL0     H 8049   7.935  10.637   5.811  0.9519 -2.0923 -0.8853
  819MOL0     H 8050   8.014  10.771   5.913  1.9114 -0.7598  0.8955
  819MOL0     H 8051   8.099  10.470   5.913  0.5838 -0.5246  0.0402
  819MOL0     H 8052   8.133  10.589   6.038  1.5787  1.2284 -1.8919
  819MOL0     H 8053   7.961  10.416   6.084 -0.4148  0.3676 -1.7117
  819MOL0     H 8054   7.869  10.491   5.953  1.5637  1.3074 -2.7246
  819MOL0     H 8055   7.911  10.706   6.087  0.1115 -0.1352  0.0703
  819MOL0     H 8056   7.949  10.592   6.226  2.6856  1.6346 -0.3741
  819MOL0     H 8057   7.708  10.691   6.232  2.2424  3.3323 -3.2415
  819MOL0     H 8058   7.683  10.600   6.078 -0.7664 -0.3992  0.4294
  819MOL0     H 8059   7.719  10.388   6.173  0.6733 -0.4022  0.6090
  819MOL0     H 8060   7.587  10.471   6.257 -0.9145  2.3382  0.9433
  819MOL0     H 8061   7.833  10.242   6.318 -0.4178  0.3261  0.3205
  819MOL0     H 8062   8.081  10.313   6.574 -0.6820  0.7801 -3.7239
  819MOL0     H 8063   7.982  10.175   6.520  1.8266 -0.5172 -0.4039
  819MOL0     H 8064   8.004  10.157   6.750 -0.5870 -0.0833  1.2051
  819MOL0     H 8065   7.841  10.169   6.688  0.8934 -0.9468  0.6589
  819MOL0     H 8066   7.982  10.430   6.763 -2.0088  0.7732 -0.2447
  819MOL0     H 8067   7.823  10.395   6.804 -1.3374 -1.4544 -0.6220
  819MOL0     H 8068   7.991  10.392   7.010  0.0520 -0.0650 -0.3239
  819MOL0     H 8069   8.076  10.270   6.930 -0.0775  3.1482 -0.6305
  819MOL0     H 8070   7.668  10.178   6.857 -2.1580  0.2114 -0.0072
  819MOL0     H 8071   7.452  10.261   6.903  0.3236 -0.1437 -0.3254
  819MOL0     H 8072   7.238  10.641   7.104 -0.3884 -0.2571  2.8488
  819MOL0     H 8073   7.024  10.760   7.112  0.6546 -0.4931  1.8250
  819MOL0     H 8074   6.845  10.861   7.041 -2.2330  3.4387  1.9524
  819MOL0     H 8075   6.768  10.783   7.177 -1.7999  2.2827 -0.7237
  819MOL0     H 8076   6.660  10.880   6.920 -2.7464 -1.2080 -0.9872
  819MOL0     H 8077   6.626  10.929   7.090  0.7132 -1.3276  0.8778
  819MOL0     H 8078   6.521  10.704   7.131 -0.4476 -5.0769 -2.6461
  819MOL0     H 8079   6.546  10.656   6.970  0.3049  0.7641 -0.0164
  819MOL0     H 8080   6.322  10.738   7.005  0.6286 -0.8852  1.4634
  819MOL0     H 8081   6.375  10.902   7.052  0.3377 -1.5662  0.3772
  819MOL0     H 8082   6.432  10.775   6.789 -0.8965 -0.1163  0.1147
  819MOL0     H 8083   6.477  10.938   6.825 -0.2288 -0.8883  2.3025
  819MOL0     H 8084   6.193  10.834   6.829 -0.7249 -0.6702 -0.9268
  819MOL0     H 8085   6.273  10.889   6.682  0.7225 -1.8104  0.1389
  819MOL0     H 8086   6.273  11.070   6.920  0.6435 -1.5211  1.1298
  819MOL0     H 8087   6.301  11.101   6.752  0.1188  0.7248 -0.2683
  819MOL0     H 8088   6.054  11.152   6.865  0.1311  0.7391 -0.4997
  819MOL0     H 8089   6.021  10.987   6.837 -1.5062  2.5618  2.0186
  819MOL0     H 8090   6.829  10.414   6.951 -0.3113  0.7239  0.5163
  819MOL0     H 8091   7.042  10.289   6.986 -3.7277 -0.1899  0.5379
  819MOL0     H 8092   7.580  10.397   7.301 -0.1900  1.4175  0.0975
  819MOL0     H 8093   7.816  10.332   7.234 -1.4928  2.3193  0.9725
  819MOL0     H 8094   8.529  10.736   5.941 -0.9602 -0.3266 -0.7342
  819MOL0     H 8095   8.752  10.615   5.947 -1.8063  1.5773  2.6021
  819MOL0     H 8096   9.069  10.454   5.589  4.0040 -0.7291 -4.3340
  819MOL0     H 8097   9.296  10.372   5.576 -2.3419  2.4613 -2.0914
  819MOL0     H 8098   9.515  10.292   5.640  0.4572 -0.5645 -1.5456
  819MOL0     H 8099   9.451  10.186   5.503  0.8842  1.3788 -0.4523
  819MOL0     H 8100   9.659  10.122   5.505 -0.6950  0.6843  0.1050
  819MOL0     H 8101   9.667  10.114   5.690 -2.2777  0.3744  2.8578
  819MOL0     H 8102   9.464   9.948   5.549 -1.4778 -3.0086  2.0119
  819MOL0     H 8103   9.521   9.947   5.713 -1.1387 -0.6114  0.2610
  819MOL0     H 8104   9.606   9.772   5.549  0.5700 -1.0234  1.8233
  819MOL0     H 8105   9.700   9.899   5.467 -0.6653  0.3225  0.3168
  819MOL0     H 8106   9.931   9.785   5.821  1.0210  0.6226 -1.0932
  819MOL0     H 8107   9.201  10.032   5.827  3.0395  0.3167 -0.8425
  819MOL0     H 8108   8.963  10.142   5.861  1.0369 -0.3647  3.1370
  820MOL0     O 8109   3.310   9.053   7.785  0.1217  0.2245  0.6606
  820MOL0     C 8110   3.238   9.128   7.719 -0.4456 -0.5201 -0.7982
  820MOL0     O 8111   3.101   9.146   7.741  0.6737  0.8814  0.0051
  820MOL0     C 8112   3.036   9.056   7.826 -0.4350  0.2100 -1.0098
  820MOL0     C 8113   2.978   9.113   7.944  0.9578 -0.3884  0.5394
  820MOL0     C 8114   2.906   9.024   8.032  0.4938  1.2372  1.5576
  820MOL0     C 8115   2.887   8.893   7.998 -0.0178 -0.4750 -0.4712
  820MOL0     O 8116   2.809   8.812   8.082  0.3056 -0.7773  1.0582
  820MOL0     C 8117   2.832   8.669   8.076 -0.2937 -0.5813 -0.3982
  820MOL0     C 8118   2.754   8.602   7.965  0.4867  0.0967  0.7265
  820MOL0     C 8119   2.604   8.593   7.992  0.4150 -0.6327 -0.2973
  820MOL0     C 8120   2.541   8.493   7.887 -0.5442  0.4966 -0.3064
  820MOL0     C 8121   2.383   8.492   7.897 -0.4238 -0.4321  0.4302
  820MOL0     C 8122   2.305   8.413   7.792  0.1964  0.2220 -0.6896
  820MOL0     C 8123   2.157   8.441   7.822 -1.1136 -0.5396 -0.5270
  820MOL0     C 8124   2.065   8.389   7.717 -0.7626  0.5512 -0.7316
  820MOL0     N 8125   1.924   8.368   7.752 -0.3692 -0.7812  1.0908
  820MOL0     C 8126   1.846   8.259   7.725 -0.5785  0.5159 -0.2030
  820MOL0     C 8127   1.721   8.278   7.781 -0.0172  0.5775 -0.4179
  820MOL0     C 8128   1.606   8.177   7.775  0.1271 -0.5761 -0.9931
  820MOL0     C 8129   1.509   8.220   7.661  0.6598  0.0816 -0.6533
  820MOL0     C 8130   1.377   8.137   7.684 -0.3952  1.1738 -0.3614
  820MOL0     C 8131   1.273   8.190   7.585 -0.7768 -0.0651 -0.1387
  820MOL0     O 8132   1.164   8.101   7.571  0.2759  0.3283  0.1865
  820MOL0     C 8133   1.038   8.140   7.527  0.8521 -0.2532  1.1460
  820MOL0     C 8134   0.945   8.033   7.502  0.5971 -0.4508  0.3469
  820MOL0     C 8135   0.819   8.066   7.448 -0.8434  1.0175  0.3939
  820MOL0     C 8136   0.774   8.194   7.419  0.4277 -1.0591  0.1366
  820MOL0     C 8137   0.639   8.226   7.368  0.0260 -0.5327  0.0741
  820MOL0     O 8138   0.548   8.130   7.390  0.1018 -0.5549 -0.2219
  820MOL0     C 8139   0.419   8.181   7.377  0.3727 -0.3607  0.5998
  820MOL0     C 8140   0.340   8.222   7.479 -1.0016  0.0514  0.1508
  820MOL0     C 8141   0.207   8.249   7.468 -0.1775 -0.5418 -0.8330
  820MOL0     C 8142   0.141   8.224   7.348 -0.1541 -0.1048 -0.0166
  820MOL0     O 8143   0.007   8.236   7.345  0.4268  0.1482 -0.0447
  820MOL0     C 8144  -0.052   8.224   7.213 -0.7679  0.0852  0.3089
  820MOL0     C 8145  -0.204   8.209   7.218 -0.2943 -0.3455  0.5232
  820MOL0     C 8146  -0.282   8.332   7.267  1.1351 -1.1462 -0.1464
  820MOL0     C 8147  -0.443   8.311   7.259 -0.0125 -0.0650  0.5060
  820MOL0     C 8148  -0.535   8.427   7.306 -0.7379 -0.3543  0.1143
  820MOL0     C 8149  -0.516   8.480   7.442 -0.9601 -0.0668  0.4397
  820MOL0     C 8150  -0.642   8.557   7.497  0.0856  0.4950 -0.5938
  820MOL0     C 8151  -0.627   8.600   7.643  0.5902  0.2062  1.3975
  820MOL0    Cl 8152  -0.505   8.732   7.647 -0.3460  0.0345 -0.3744
  820MOL0     C 8153   0.223   8.202   7.235 -0.4652 -0.5177  0.8265
  820MOL0     C 8154   0.360   8.174   7.255  0.1587 -0.0356 -0.2741
  820MOL0     O 8155   0.613   8.337   7.332 -0.4427 -0.4751  0.1277
  820MOL0     C 8156   0.878   8.297   7.441  0.8168  0.8479  0.0981
  820MOL0     C 8157   1.003   8.273   7.498 -0.3689  0.9008 -0.1877
  820MOL0     N 8158   1.728   8.395   7.853  0.0096 -0.3870 -0.3177
  820MOL0     N 8159   1.848   8.444   7.835  0.2012 -1.0977  0.1265
  820MOL0     C 8160   2.947   8.842   7.879  0.2528 -0.3314  0.1892
  820MOL0     C 8161   3.025   8.919   7.790  0.2811 -0.4665  0.4891
  820MOL0     C 8162   3.305   9.182   7.605  0.0798 -0.2865  0.1333
  820MOL0     C 8163   3.405   9.114   7.531  0.2227  0.4045  0.4573
  820MOL0     C 8164   3.447   9.174   7.411  0.0547 -0.2647  0.2639
  820MOL0     C 8165   3.396   9.294   7.364 -0.5089  0.6646  0.7113
  820MOL0     O 8166   3.433   9.358   7.244 -0.0433 -0.0966 -0.1935
  820MOL0     C 8167   3.525   9.286   7.164 -0.8572 -0.4323  0.0680
  820MOL0     C 8168   3.565   9.387   7.055  0.3330 -0.4741  0.4235
  820MOL0     C 8169   3.637   9.302   6.932  0.1415  0.5539 -0.5540
  820MOL0     C 8170   3.792   9.312   6.923 -0.6311 -0.6252  0.0973
  820MOL0     C 8171   3.862   9.259   7.040 -1.2395 -0.3620 -0.1710
  820MOL0     C 8172   3.918   9.199   7.132  0.0674  0.5648 -0.3056
  820MOL0     C 8173   3.295   9.351   7.435  0.2045 -0.0541  0.4761
  820MOL0     C 8174   3.249   9.300   7.554 -0.7015  1.2808 -0.0078
  820MOL0     H 8175   2.978   9.219   7.969  1.6501 -0.4761  0.9436
  820MOL0     H 8176   2.863   9.059   8.126 -3.2965 -1.0333  0.8859
  820MOL0     H 8177   2.793   8.626   8.169  0.8496  1.2459  0.9832
  820MOL0     H 8178   2.934   8.631   8.077 -1.8044 -5.6453  3.6123
  820MOL0     H 8179   2.800   8.505   7.948  0.5508  0.4725 -1.5384
  820MOL0     H 8180   2.762   8.655   7.869 -2.7233  0.7524  0.6996
  820MOL0     H 8181   2.557   8.692   7.988 -3.2037 -2.0031  2.0994
  820MOL0     H 8182   2.580   8.550   8.090  2.0410  1.3548  1.0415
  820MOL0     H 8183   2.565   8.523   7.785  0.4967  1.6538  0.2485
  820MOL0     H 8184   2.586   8.395   7.902  0.3709  0.8407 -0.7180
  820MOL0     H 8185   2.353   8.595   7.880  1.9395 -0.2074 -3.8546
  820MOL0     H 8186   2.344   8.465   7.995 -3.1791 -1.3611 -0.8308
  820MOL0     H 8187   2.324   8.306   7.799  0.0018  0.2792  1.0518
  820MOL0     H 8188   2.327   8.451   7.692 -0.5032  1.5996 -0.3454
  820MOL0     H 8189   2.138   8.397   7.920  1.1428  1.6099  0.9797
  820MOL0     H 8190   2.145   8.550   7.823 -2.9808 -0.6763 -1.5309
  820MOL0     H 8191   2.106   8.296   7.677 -2.3332 -0.7269  0.5106
  820MOL0     H 8192   2.072   8.463   7.637 -1.6572  0.1874 -1.1606
  820MOL0     H 8193   1.884   8.177   7.665  1.7845 -1.5734  3.7354
  820MOL0     H 8194   1.550   8.193   7.868  1.7351 -2.3757  0.3502
  820MOL0     H 8195   1.647   8.077   7.765  2.3243  0.0723  0.6769
  820MOL0     H 8196   1.563   8.188   7.571 -1.7608 -0.5026 -1.9756
  820MOL0     H 8197   1.489   8.326   7.672 -0.3215 -0.3620  3.6546
  820MOL0     H 8198   1.405   8.032   7.672 -0.9868  1.1850 -2.0909
  820MOL0     H 8199   1.334   8.158   7.783  3.7032  0.3474  1.8268
  820MOL0     H 8200   1.327   8.201   7.490  4.1448  0.8671  2.4206
  820MOL0     H 8201   1.230   8.287   7.610 -1.2063 -0.4876  0.8082
  820MOL0     H 8202   0.981   7.931   7.511 -0.9174 -0.9070  1.6056
  820MOL0     H 8203   0.753   7.980   7.437 -0.0375  0.4418 -0.0253
  820MOL0     H 8204   0.382   8.232   7.579 -2.2626  1.0765  0.6095
  820MOL0     H 8205   0.161   8.269   7.565 -1.3564 -1.1148 -1.2519
  820MOL0     H 8206  -0.008   8.135   7.168  4.7473  3.4585 -2.0726
  820MOL0     H 8207  -0.028   8.310   7.149 -3.3304  0.2801 -0.5019
  820MOL0     H 8208  -0.232   8.127   7.286 -2.0976  0.5373  0.9068
  820MOL0     H 8209  -0.235   8.180   7.117  1.7445  1.6486 -0.7656
  820MOL0     H 8210  -0.249   8.426   7.221 -3.6020 -0.2299 -2.2131
  820MOL0     H 8211  -0.254   8.347   7.372  1.9011  1.0760 -0.6038
  820MOL0     H 8212  -0.465   8.292   7.154 -2.3409 -0.4119  1.0103
  820MOL0     H 8213  -0.463   8.216   7.309  2.7335 -0.9843 -0.0081
  820MOL0     H 8214  -0.634   8.382   7.295  0.4539 -2.7865 -1.6390
  820MOL0     H 8215  -0.533   8.511   7.237 -0.6596 -0.0582  0.4739
  820MOL0     H 8216  -0.428   8.545   7.432 -0.5552 -0.7540 -0.5287
  820MOL0     H 8217  -0.492   8.394   7.506  2.0072  0.9329  0.8275
  820MOL0     H 8218  -0.659   8.643   7.432 -2.7845 -0.6503 -1.5430
  820MOL0     H 8219  -0.728   8.492   7.477  0.4378  0.6035 -2.6634
  820MOL0     H 8220  -0.590   8.523   7.712 -1.6880 -2.6583 -0.3366
  820MOL0     H 8221  -0.723   8.647   7.667  0.1790  0.8316 -1.2032
  820MOL0     H 8222   0.196   8.212   7.130  0.4886  1.5376  0.7357
  820MOL0     H 8223   0.425   8.153   7.171  0.3139  0.2695 -0.2307
  820MOL0     H 8224   0.868   8.403   7.419 -1.5194  0.9395  1.3505
  820MOL0     H 8225   1.074   8.354   7.509 -2.9687  3.7907 -2.6223
  820MOL0     H 8226   2.941   8.736   7.858 -1.5401  0.2593 -2.9717
  820MOL0     H 8227   3.090   8.880   7.713 -1.3099  0.8027 -1.6010
  820MOL0     H 8228   3.438   9.016   7.566 -1.3996 -0.4143 -0.1912
  820MOL0     H 8229   3.528   9.123   7.361 -2.2627 -3.2428 -0.7064
  820MOL0     H 8230   3.477   9.196   7.125 -0.7548 -1.5086  2.2485
  820MOL0     H 8231   3.613   9.256   7.222 -0.5710 -0.0158 -0.1411
  820MOL0     H 8232   3.484   9.440   7.005  2.2561 -0.7016 -3.2914
  820MOL0     H 8233   3.635   9.462   7.094 -1.8524  2.3376 -0.7091
  820MOL0     H 8234   3.605   9.324   6.830  1.0482 -1.6248 -1.3742
  820MOL0     H 8235   3.613   9.196   6.950  0.3178  0.6413  0.2456
  820MOL0     H 8236   3.833   9.254   6.839 -0.4841 -0.8255  0.3065
  820MOL0     H 8237   3.816   9.418   6.912 -2.5313 -0.1133  0.4669
  820MOL0     H 8238   3.974   9.146   7.207  2.7625  0.5648 -2.2037
  820MOL0     H 8239   3.262   9.440   7.382  1.4474  0.3640  0.3674
  820MOL0     H 8240   3.166   9.348   7.606  0.3555  4.8510 -1.3173
  821MOL0     O 8241   6.713   0.521   7.978 -0.8880  0.1700  0.7290
  821MOL0     C 8242   6.781   0.625   7.958  0.1890  0.9438 -0.9283
  821MOL0     O 8243   6.736   0.747   7.985  0.0208 -0.1684 -0.9807
  821MOL0     C 8244   6.617   0.761   8.057 -0.4790  0.3412  0.5429
  821MOL0     C 8245   6.580   0.676   8.162 -0.3342  0.1822  1.1946
  821MOL0     C 8246   6.461   0.685   8.235  0.3314  0.0060  0.7228
  821MOL0     C 8247   6.372   0.786   8.197 -0.0831 -0.3225  0.1467
  821MOL0     O 8248   6.258   0.791   8.273 -0.2993  0.4271  0.0017
  821MOL0     C 8249   6.152   0.855   8.207 -0.0622  0.2728 -0.1333
  821MOL0     C 8250   6.094   0.757   8.094  1.2702  0.5559 -0.3031
  821MOL0     C 8251   6.004   0.836   8.006  0.8249  0.1368 -0.2346
  821MOL0     C 8252   5.911   0.754   7.914 -0.0308 -0.5234 -0.3331
  821MOL0     C 8253   5.824   0.838   7.818  0.7555  0.7785 -0.7981
  821MOL0     C 8254   5.888   0.942   7.719 -0.6072 -0.6580  0.6512
  821MOL0     C 8255   5.992   0.885   7.619 -0.4567  0.7579  0.2973
  821MOL0     C 8256   5.936   0.775   7.521  0.6343 -0.1831 -0.5414
  821MOL0     N 8257   5.814   0.824   7.444 -0.4128 -0.6088 -0.2849
  821MOL0     C 8258   5.804   0.923   7.354  0.3236  0.5527  0.1264
  821MOL0     C 8259   5.670   0.945   7.326  0.0728  0.6514 -0.3248
  821MOL0     C 8260   5.621   1.055   7.232 -0.3693  0.0331 -0.4438
  821MOL0     C 8261   5.489   1.120   7.271  1.6861 -0.0718 -0.5443
  821MOL0     C 8262   5.440   1.216   7.163  1.1836 -0.0406 -0.9326
  821MOL0     C 8263   5.315   1.290   7.195 -0.4074 -0.1952  0.6478
  821MOL0     O 8264   5.242   1.324   7.075  0.0063 -0.6513 -0.5927
  821MOL0     C 8265   5.103   1.357   7.082  0.0933  0.8332 -0.3676
  821MOL0     C 8266   5.047   1.389   7.210  0.5730 -0.8321  0.1407
  821MOL0     C 8267   4.911   1.432   7.221  0.3128  0.0363  0.4319
  821MOL0     C 8268   4.832   1.428   7.106 -0.5053  0.2065  0.6300
  821MOL0     C 8269   4.689   1.448   7.114 -0.0240 -0.3118  0.1195
  821MOL0     O 8270   4.600   1.382   7.036 -0.3841  0.4674 -0.1259
  821MOL0     C 8271   4.469   1.401   7.061 -0.0168  0.1778 -0.2182
  821MOL0     C 8272   4.382   1.433   6.959 -0.6376  0.6248 -0.0356
  821MOL0     C 8273   4.245   1.439   6.972  0.7640  0.2721 -0.1325
  821MOL0     C 8274   4.194   1.425   7.101  0.1265  0.2699 -0.2662
  821MOL0     O 8275   4.059   1.435   7.122  0.3631 -0.0127  0.1161
  821MOL0     C 8276   3.975   1.352   7.039 -0.0294 -0.3750 -0.0980
  821MOL0     C 8277   3.885   1.257   7.134  0.3979 -0.5821  0.2767
  821MOL0     C 8278   3.973   1.163   7.214  0.6881 -0.6272 -0.3937
  821MOL0     C 8279   3.880   1.075   7.295 -0.3925  0.6903 -1.0653
  821MOL0     C 8280   3.972   0.988   7.395  0.6331  0.0561 -0.9445
  821MOL0     C 8281   3.968   1.043   7.537  0.3165  0.3196 -0.9651
  821MOL0     C 8282   4.011   0.933   7.639 -0.1416  0.0936  0.2946
  821MOL0     C 8283   4.089   0.977   7.764 -0.2206 -0.6006 -0.1499
  821MOL0    Cl 8284   4.243   1.042   7.716 -0.0121 -0.2287 -0.5744
  821MOL0     C 8285   4.274   1.388   7.211  0.0687  1.3532  0.2245
  821MOL0     C 8286   4.411   1.371   7.187 -0.2717 -0.8816 -0.7522
  821MOL0     O 8287   4.668   1.533   7.197  0.6678  0.0644 -0.8590
  821MOL0     C 8288   4.889   1.399   6.978  0.1531  1.2346 -0.2156
  821MOL0     C 8289   5.020   1.356   6.973  0.0970 -1.3703  0.3680
  821MOL0     N 8290   5.592   0.871   7.414 -0.5643  0.3640 -0.2363
  821MOL0     N 8291   5.684   0.802   7.477 -0.7933  0.2507  0.2908
  821MOL0     C 8292   6.408   0.873   8.099  0.0511 -1.1738  0.3411
  821MOL0     C 8293   6.527   0.874   8.029 -1.0049  0.5497 -0.0710
  821MOL0     C 8294   6.910   0.616   7.892  0.8078 -0.3333  0.2909
  821MOL0     C 8295   7.005   0.719   7.898 -0.5029 -0.4444 -0.7013
  821MOL0     C 8296   7.123   0.715   7.830  0.1600  0.2500 -0.7178
  821MOL0     C 8297   7.156   0.604   7.751 -0.6018  0.3021  0.1240
  821MOL0     O 8298   7.279   0.609   7.690 -0.3615 -0.5215  0.4676
  821MOL0     C 8299   7.346   0.492   7.647 -1.0639  0.4574  0.2005
  821MOL0     C 8300   7.459   0.464   7.746 -0.4341  0.5193 -0.2153
  821MOL0     C 8301   7.549   0.342   7.707 -0.1998  0.2229 -0.6075
  821MOL0     C 8302   7.613   0.342   7.566  0.4013 -0.3153 -0.3495
  821MOL0     C 8303   7.657   0.206   7.524  0.2975 -0.4303  0.0027
  821MOL0     C 8304   7.693   0.095   7.478  0.3189 -0.2054 -0.4300
  821MOL0     C 8305   7.053   0.510   7.735 -0.8491  0.4657 -0.0056
  821MOL0     C 8306   6.938   0.506   7.811  0.0810  0.3783 -0.1267
  821MOL0     H 8307   6.638   0.588   8.187 -0.5420 -0.2776  0.0816
  821MOL0     H 8308   6.418   0.624   8.314 -2.0624 -0.5982 -0.9406
  821MOL0     H 8309   6.170   0.958   8.175 -2.7738  2.2223  3.7803
  821MOL0     H 8310   6.080   0.866   8.288  3.8850 -1.0916  4.0205
  821MOL0     H 8311   6.033   0.677   8.137  2.2688  1.9892  4.4107
  821MOL0     H 8312   6.182   0.712   8.047  1.1983  0.2117 -0.1126
  821MOL0     H 8313   6.069   0.892   7.938 -0.2040  0.5933 -0.8570
  821MOL0     H 8314   5.944   0.907   8.064  2.1977 -0.4424  2.0419
  821MOL0     H 8315   5.973   0.694   7.847  1.3179  2.1064 -1.5734
  821MOL0     H 8316   5.852   0.684   7.975 -1.9299  1.2612  0.0070
  821MOL0     H 8317   5.766   0.894   7.893  3.2017  0.1458  1.7459
  821MOL0     H 8318   5.758   0.770   7.763 -0.7583  2.1045 -0.6934
  821MOL0     H 8319   5.949   1.010   7.779  2.0696 -2.7306  0.4956
  821MOL0     H 8320   5.805   0.993   7.668  0.8033  1.1302  0.0597
  821MOL0     H 8321   6.038   0.972   7.571  0.9930  0.8568  1.7522
  821MOL0     H 8322   6.076   0.835   7.669  0.4547  0.0926 -1.8106
  821MOL0     H 8323   5.919   0.674   7.558  1.4002 -2.0614 -4.7476
  821MOL0     H 8324   6.012   0.749   7.446 -0.4067 -0.9423 -1.3514
  821MOL0     H 8325   5.889   0.967   7.302 -0.7270  2.9779  0.3512
  821MOL0     H 8326   5.595   1.011   7.135  1.0572 -1.5347 -0.1613
  821MOL0     H 8327   5.699   1.131   7.231 -1.6469  1.3907 -0.1582
  821MOL0     H 8328   5.499   1.174   7.365  2.8539 -0.7972 -0.2239
  821MOL0     H 8329   5.420   1.036   7.287  0.2798  0.3893 -3.4347
  821MOL0     H 8330   5.523   1.284   7.145  1.9540 -0.6797  0.1143
  821MOL0     H 8331   5.426   1.162   7.068  3.9142 -2.2450 -0.2199
  821MOL0     H 8332   5.343   1.371   7.263 -0.9617  0.0799  0.5551
  821MOL0     H 8333   5.253   1.231   7.263 -2.6354  2.2810  0.9468
  821MOL0     H 8334   5.107   1.392   7.301  1.1573  0.7538 -0.2586
  821MOL0     H 8335   4.873   1.457   7.319 -2.1328 -1.2965 -0.1085
  821MOL0     H 8336   4.427   1.444   6.861 -2.5835 -0.4025 -1.0952
  821MOL0     H 8337   4.178   1.439   6.887 -2.6992 -0.9999  2.3698
  821MOL0     H 8338   4.018   1.288   6.962 -2.6396 -0.1188 -1.8823
  821MOL0     H 8339   3.921   1.426   6.980  3.0241  2.2653  0.1473
  821MOL0     H 8340   3.838   1.192   7.061  0.0347  1.7023 -1.6647
  821MOL0     H 8341   3.813   1.317   7.190 -3.3167 -2.8634 -1.7225
  821MOL0     H 8342   4.044   1.214   7.280  1.1020 -1.0575 -0.5005
  821MOL0     H 8343   4.034   1.105   7.145  0.4596 -0.0065 -1.1220
  821MOL0     H 8344   3.800   1.127   7.350  0.1134  0.2622  0.1132
  821MOL0     H 8345   3.827   1.000   7.235 -1.3926  1.1789 -0.8105
  821MOL0     H 8346   4.079   0.975   7.373  1.4170 -0.8348  2.7156
  821MOL0     H 8347   3.937   0.885   7.393  1.5955 -0.4656  2.4983
  821MOL0     H 8348   3.864   1.069   7.559  0.3613 -1.7558  2.4200
  821MOL0     H 8349   4.038   1.124   7.558  1.0460 -1.0028  2.4555
  821MOL0     H 8350   3.917   0.894   7.678  0.2621 -2.4109 -1.0492
  821MOL0     H 8351   4.053   0.848   7.585  0.4567  0.0523  0.8196
  821MOL0     H 8352   4.082   0.894   7.834 -0.5689 -0.3860  0.0728
  821MOL0     H 8353   4.041   1.057   7.821  1.9232  0.5479  0.1243
  821MOL0     H 8354   4.227   1.371   7.307 -1.5406  1.4058 -0.5248
  821MOL0     H 8355   4.486   1.338   7.257  1.2516  0.8026 -1.5128
  821MOL0     H 8356   4.828   1.392   6.888  1.0672 -3.8260 -0.7768
  821MOL0     H 8357   5.058   1.329   6.875 -2.0239 -4.3694  0.2571
  821MOL0     H 8358   6.350   0.961   8.072  1.7925  0.1107  0.6238
  821MOL0     H 8359   6.542   0.952   7.955  0.1088 -1.2331 -1.7955
  821MOL0     H 8360   6.992   0.813   7.952 -1.7357 -1.7460  1.4506
  821MOL0     H 8361   7.191   0.799   7.843  0.1824  0.1333 -0.0848
  821MOL0     H 8362   7.382   0.515   7.546 -1.2665  5.6530  1.0124
  821MOL0     H 8363   7.281   0.404   7.642  1.4353 -1.4199 -2.0989
  821MOL0     H 8364   7.526   0.551   7.750  0.1814  0.0135  0.9625
  821MOL0     H 8365   7.425   0.433   7.844 -6.5913 -0.0672 -2.1382
  821MOL0     H 8366   7.497   0.247   7.720  2.8655 -1.1903  4.0241
  821MOL0     H 8367   7.632   0.333   7.779 -1.6409  3.6136  1.7337
  821MOL0     H 8368   7.546   0.384   7.491  0.9711  0.9430 -0.1814
  821MOL0     H 8369   7.702   0.404   7.578  0.3706 -0.3715  0.2303
  821MOL0     H 8370   7.716   0.013   7.414  1.3715  0.7943 -1.3765
  821MOL0     H 8371   7.061   0.427   7.665 -1.9388 -0.1706  0.5949
  821MOL0     H 8372   6.876   0.418   7.794 -0.7383  1.3617 -2.6891
  822MOL0     O 8373   1.132   3.408   5.219  0.2098  0.1941  0.0997
  822MOL0     C 8374   1.157   3.430   5.109  0.4318  0.0384  0.1336
  822MOL0     O 8375   1.077   3.503   5.019  0.8660  0.9908 -0.2059
  822MOL0     C 8376   0.959   3.535   5.066 -0.0042  0.0599 -1.4261
  822MOL0     C 8377   0.840   3.465   5.032 -0.2325  0.2250 -0.0592
  822MOL0     C 8378   0.718   3.512   5.079 -0.3260  0.2729 -0.0286
  822MOL0     C 8379   0.703   3.617   5.173 -0.4521 -1.2821  0.2805
  822MOL0     O 8380   0.589   3.663   5.229  0.1297  0.4819  0.0161
  822MOL0     C 8381   0.482   3.676   5.137 -0.4478  0.6590  0.0849
  822MOL0     C 8382   0.354   3.726   5.183  0.4389 -0.1550 -0.5342
  822MOL0     C 8383   0.368   3.873   5.232  0.2596  0.4656 -0.6986
  822MOL0     C 8384   0.377   3.993   5.143  0.4589  0.0437  0.0798
  822MOL0     C 8385   0.364   4.125   5.212  0.1457 -0.0801  0.4930
  822MOL0     C 8386   0.481   4.149   5.307 -0.4949  0.2731  0.6586
  822MOL0     C 8387   0.624   4.132   5.264  0.6086  0.2879  0.1695
  822MOL0     C 8388   0.711   4.160   5.388 -0.2405  0.0789  0.1663
  822MOL0     N 8389   0.851   4.146   5.341  0.1605  0.5302  0.2453
  822MOL0     C 8390   0.954   4.225   5.381  0.1901 -0.8336  0.3858
  822MOL0     C 8391   1.069   4.168   5.328 -0.1865 -0.9641  0.4382
  822MOL0     C 8392   1.213   4.218   5.326 -0.2142  0.0129 -0.3967
  822MOL0     C 8393   1.285   4.196   5.459  0.4171  0.1227 -1.0244
  822MOL0     C 8394   1.403   4.283   5.483 -1.0411  0.3930  0.1764
  822MOL0     C 8395   1.537   4.219   5.443 -0.9254  0.0193  0.2080
  822MOL0     O 8396   1.581   4.114   5.524  0.2005 -0.1853  0.1445
  822MOL0     C 8397   1.685   4.041   5.483  0.3325 -0.2221  0.6046
  822MOL0     C 8398   1.715   3.931   5.563  0.4259  0.2215  0.0849
  822MOL0     C 8399   1.812   3.837   5.522 -0.4797 -0.2945 -0.2396
  822MOL0     C 8400   1.872   3.854   5.391 -0.6396  0.4575 -0.8643
  822MOL0     C 8401   1.980   3.756   5.355  0.8681 -0.0813  1.0026
  822MOL0     O 8402   1.976   3.723   5.221 -0.1206 -0.4062 -0.5871
  822MOL0     C 8403   2.064   3.626   5.181  0.0292 -0.0292 -0.3090
  822MOL0     C 8404   2.010   3.522   5.100 -0.6283  0.2010 -0.6387
  822MOL0     C 8405   2.090   3.419   5.045  0.3771 -0.1902  1.1491
  822MOL0     C 8406   2.224   3.416   5.068  0.6598 -0.7419 -0.4056
  822MOL0     O 8407   2.295   3.312   5.024  0.3483  0.4309  0.1538
  822MOL0     C 8408   2.422   3.277   5.090  0.1786  0.0207  0.0166
  822MOL0     C 8409   2.461   3.132   5.076  0.1138  0.0041 -0.0081
  822MOL0     C 8410   2.609   3.099   5.076 -0.6998  0.4954 -0.7376
  822MOL0     C 8411   2.637   2.957   5.056 -0.1962 -0.8259 -0.3000
  822MOL0     C 8412   2.768   2.939   4.972 -0.9101  0.4582 -0.4430
  822MOL0     C 8413   2.900   3.020   5.011 -0.2441 -0.5487 -0.4136
  822MOL0     C 8414   2.945   2.988   5.153 -0.5380 -0.0976 -0.8508
  822MOL0     C 8415   3.076   3.066   5.195  0.8039 -0.3903 -0.1052
  822MOL0    Cl 8416   3.194   3.060   5.057 -0.0653  0.0248  0.2285
  822MOL0     C 8417   2.273   3.527   5.144  0.3995  0.1334  0.6100
  822MOL0     C 8418   2.198   3.629   5.193  0.5770 -0.4592  0.5688
  822MOL0     O 8419   2.052   3.699   5.443  0.2881 -0.4654  0.4760
  822MOL0     C 8420   1.859   3.970   5.318 -0.5884 -0.0644  0.3958
  822MOL0     C 8421   1.754   4.057   5.356 -0.5066  0.4755  0.2447
  822MOL0     N 8422   1.035   4.045   5.266  0.9484 -0.1263 -0.1590
  822MOL0     N 8423   0.905   4.036   5.279  0.6504  0.1586  0.0768
  822MOL0     C 8424   0.817   3.692   5.202 -0.1498 -0.3365  0.5793
  822MOL0     C 8425   0.943   3.651   5.148  0.5934  0.1266 -0.6947
  822MOL0     C 8426   1.300   3.399   5.067 -0.2240 -0.1819 -0.0397
  822MOL0     C 8427   1.358   3.450   4.949  0.2055 -0.7615  0.9782
  822MOL0     C 8428   1.485   3.411   4.924  0.9708 -0.4276 -0.1904
  822MOL0     C 8429   1.577   3.352   5.018 -0.5805  0.0477  0.3245
  822MOL0     O 8430   1.718   3.329   4.986 -0.4001  0.2779 -0.1414
  822MOL0     C 8431   1.744   3.250   4.877 -0.1296  1.1395 -0.7803
  822MOL0     C 8432   1.779   3.352   4.763 -0.3540  1.6945  0.2287
  822MOL0     C 8433   1.796   3.284   4.622  0.5467  0.0226  1.2260
  822MOL0     C 8434   1.667   3.207   4.584  0.3543 -0.3707 -0.2659
  822MOL0     C 8435   1.540   3.280   4.614  0.0857  0.0817 -0.6347
  822MOL0     C 8436   1.427   3.323   4.616  0.6983 -0.1584 -0.7156
  822MOL0     C 8437   1.517   3.300   5.134  0.5252  0.0805 -0.0007
  822MOL0     C 8438   1.382   3.329   5.153  0.1855  1.2934 -0.4943
  822MOL0     H 8439   0.847   3.380   4.965  0.4221  0.6277 -0.5196
  822MOL0     H 8440   0.632   3.450   5.051 -0.3653  0.0299  0.6047
  822MOL0     H 8441   0.473   3.577   5.092 -0.0700  0.3731  0.6405
  822MOL0     H 8442   0.518   3.749   5.063  0.6282  0.1344  0.0796
  822MOL0     H 8443   0.310   3.664   5.262 -0.8739  1.0750 -0.2656
  822MOL0     H 8444   0.288   3.709   5.098 -0.7671 -2.0941  0.7003
  822MOL0     H 8445   0.452   3.875   5.303 -0.0236 -0.8095 -0.3068
  822MOL0     H 8446   0.282   3.892   5.296 -0.2476  1.0260 -1.5233
  822MOL0     H 8447   0.466   3.990   5.079 -0.3694 -0.3147 -1.1012
  822MOL0     H 8448   0.287   3.993   5.080 -2.2866  2.1731  3.6296
  822MOL0     H 8449   0.262   4.132   5.252 -0.5225 -0.9958 -0.9742
  822MOL0     H 8450   0.366   4.209   5.142 -1.1646 -2.4378 -2.6261
  822MOL0     H 8451   0.458   4.084   5.392  0.3615  0.1869  0.8307
  822MOL0     H 8452   0.468   4.247   5.354 -0.6677 -0.1068  1.4220
  822MOL0     H 8453   0.644   4.030   5.230 -0.5882 -0.1824  0.8324
  822MOL0     H 8454   0.651   4.203   5.186  0.5330  1.3011  1.0515
  822MOL0     H 8455   0.698   4.078   5.459 -0.7880 -1.0528 -1.2145
  822MOL0     H 8456   0.708   4.261   5.431 -1.6105  0.1338 -0.0280
  822MOL0     H 8457   0.942   4.317   5.438  0.1486  0.5050 -1.6467
  822MOL0     H 8458   1.205   4.323   5.295 -1.5832 -1.2264 -4.9248
  822MOL0     H 8459   1.258   4.160   5.246 -1.2428  0.2745 -1.1927
  822MOL0     H 8460   1.313   4.092   5.481 -0.1273  0.3714  1.0845
  822MOL0     H 8461   1.221   4.216   5.545  0.4371 -0.2371 -0.9237
  822MOL0     H 8462   1.394   4.375   5.424  4.6550  1.6937  0.7331
  822MOL0     H 8463   1.423   4.307   5.587  0.5182 -1.5132  0.3743
  822MOL0     H 8464   1.613   4.296   5.458 -0.7517  0.0573 -0.7443
  822MOL0     H 8465   1.530   4.184   5.339  0.3519  0.3126  0.0045
  822MOL0     H 8466   1.662   3.930   5.658  0.6500 -3.4815  0.3146
  822MOL0     H 8467   1.840   3.752   5.583 -0.2302 -1.0777 -1.3984
  822MOL0     H 8468   1.902   3.518   5.093 -0.6982  1.5108 -0.4777
  822MOL0     H 8469   2.052   3.335   4.988  2.1973  1.4132 -2.8630
  822MOL0     H 8470   2.423   3.316   5.192 -0.0637  2.5819 -0.8686
  822MOL0     H 8471   2.497   3.336   5.036  2.0630  0.0471  2.5202
  822MOL0     H 8472   2.419   3.089   4.985  2.2993 -0.4087 -0.8785
  822MOL0     H 8473   2.408   3.095   5.164  0.2635  2.9300  1.4156
  822MOL0     H 8474   2.656   3.141   5.166 -0.8371 -0.2809 -0.2912
  822MOL0     H 8475   2.659   3.146   4.991  1.4500  1.3364  0.8990
  822MOL0     H 8476   2.619   2.904   5.150  0.4188 -0.4349  0.0504
  822MOL0     H 8477   2.564   2.922   4.983 -3.8190  3.9066  0.5675
  822MOL0     H 8478   2.739   2.982   4.876  1.3260 -3.6502 -3.2867
  822MOL0     H 8479   2.801   2.835   4.963  3.2964  1.4126  1.6634
  822MOL0     H 8480   2.887   3.129   5.006  0.0289 -0.3895  1.7073
  822MOL0     H 8481   2.974   2.993   4.935  1.2245  3.8041 -0.7722
  822MOL0     H 8482   2.866   3.006   5.226  0.0065  1.7209 -0.6756
  822MOL0     H 8483   2.969   2.881   5.147 -2.4369 -0.5343 -1.3240
  822MOL0     H 8484   3.111   3.023   5.289  0.1418 -1.1852 -0.2095
  822MOL0     H 8485   3.053   3.167   5.230  0.1876  0.0953 -1.7768
  822MOL0     H 8486   2.376   3.520   5.175  0.4198 -1.2712  0.2711
  822MOL0     H 8487   2.247   3.706   5.251 -1.4660  0.0801  1.7039
  822MOL0     H 8488   1.903   3.988   5.220 -1.6705  1.2695  0.1225
  822MOL0     H 8489   1.747   4.146   5.294  1.2521  1.7598  1.7959
  822MOL0     H 8490   0.830   3.777   5.269  0.6835 -0.2304  0.2909
  822MOL0     H 8491   1.021   3.714   5.190  0.7847 -1.0746  0.8216
  822MOL0     H 8492   1.303   3.524   4.892  0.1445 -0.7180  1.0939
  822MOL0     H 8493   1.533   3.449   4.835  0.4179  1.0783  0.1324
  822MOL0     H 8494   1.659   3.189   4.847  2.8214 -2.8669 -1.9217
  822MOL0     H 8495   1.837   3.193   4.890  0.0609  1.3547 -1.1806
  822MOL0     H 8496   1.708   3.435   4.758 -0.1282  1.8712 -0.1035
  822MOL0     H 8497   1.875   3.395   4.792 -0.9579  3.5757 -0.4057
  822MOL0     H 8498   1.892   3.230   4.620  0.3564 -0.3292 -0.4616
  822MOL0     H 8499   1.806   3.357   4.541 -3.1433  0.3913  0.9533
  822MOL0     H 8500   1.671   3.198   4.475  1.4133 -0.2109 -0.2455
  822MOL0     H 8501   1.657   3.105   4.622 -0.3740  1.0292  3.7570
  822MOL0     H 8502   1.322   3.338   4.631  0.6114 -1.8098  0.7049
  822MOL0     H 8503   1.567   3.245   5.213 -1.5955  0.2701  1.5592
  822MOL0     H 8504   1.338   3.289   5.244 -2.0284  0.9297 -1.6814
  823MOL0     O 8505   1.065   2.353   6.373 -0.0279  0.3502  0.2852
  823MOL0     C 8506   1.086   2.468   6.410  0.7217  0.3338  0.2004
  823MOL0     O 8507   1.002   2.571   6.397 -0.1252  0.0224  0.8177
  823MOL0     C 8508   0.879   2.540   6.344  0.8020  0.9360 -0.4908
  823MOL0     C 8509   0.774   2.497   6.426 -0.3117  0.1592  0.3945
  823MOL0     C 8510   0.651   2.462   6.370 -0.8001 -0.4864  0.4301
  823MOL0     C 8511   0.631   2.490   6.233  0.3279 -0.1249 -0.8077
  823MOL0     O 8512   0.505   2.491   6.174 -0.1773 -0.0906  0.0211
  823MOL0     C 8513   0.423   2.384   6.208  0.4790 -0.0914 -0.1969
  823MOL0     C 8514   0.288   2.411   6.134 -1.3930 -0.0832  0.3724
  823MOL0     C 8515   0.177   2.316   6.173 -0.5790 -1.1061  0.7018
  823MOL0     C 8516   0.039   2.356   6.113 -0.3214  0.5043 -0.3653
  823MOL0     C 8517  -0.077   2.254   6.130 -0.7319 -0.2166  0.1561
  823MOL0     C 8518  -0.152   2.225   5.999  0.4307  1.1544 -0.8804
  823MOL0     C 8519  -0.266   2.124   6.016  0.5785  0.1473 -0.4962
  823MOL0     C 8520  -0.319   2.091   5.878  1.0907  0.4841  0.4774
  823MOL0     N 8521  -0.416   1.979   5.866 -0.3375  0.6601 -0.1438
  823MOL0     C 8522  -0.397   1.875   5.778  1.1933  0.0441 -0.0639
  823MOL0     C 8523  -0.507   1.794   5.796  0.5512  0.3823  1.2129
  823MOL0     C 8524  -0.527   1.660   5.723 -0.1281 -0.2571  0.1330
  823MOL0     C 8525  -0.664   1.617   5.711  0.2964  0.7429 -0.0665
  823MOL0     C 8526  -0.669   1.497   5.612 -0.0371 -0.7142  0.5728
  823MOL0     C 8527  -0.802   1.441   5.585 -0.1224 -0.2504 -0.5867
  823MOL0     O 8528  -0.892   1.540   5.531  0.4914 -0.2808  0.5818
  823MOL0     C 8529  -1.027   1.531   5.534  0.3365  0.0154 -0.9868
  823MOL0     C 8530  -1.108   1.640   5.508  0.6566  0.5066  0.3669
  823MOL0     C 8531  -1.245   1.638   5.492  0.8122 -0.1168 -0.6382
  823MOL0     C 8532  -1.320   1.522   5.536  0.2501 -0.7717  0.2807
  823MOL0     C 8533  -1.463   1.514   5.532  0.5394 -0.1935 -0.1045
  823MOL0     O 8534  -1.528   1.409   5.596 -0.6950  0.0459 -0.0457
  823MOL0     C 8535  -1.659   1.428   5.640 -0.1012 -0.1624  0.4659
  823MOL0     C 8536  -1.771   1.475   5.557  0.5174  1.2136  1.0196
  823MOL0     C 8537  -1.891   1.512   5.614 -0.5808  0.2013  0.5306
  823MOL0     C 8538  -1.905   1.507   5.754  0.1451  0.7393 -0.6173
  823MOL0     O 8539  -2.030   1.551   5.808 -0.2732  0.7238 -0.2088
  823MOL0     C 8540  -2.102   1.464   5.886  0.3513  0.6998 -0.0703
  823MOL0     C 8541  -2.240   1.437   5.814  0.7773  0.5734 -0.4810
  823MOL0     C 8542  -2.346   1.384   5.912  0.1148 -0.3092 -0.4855
  823MOL0     C 8543  -2.489   1.430   5.873  0.5779 -0.4628  0.2608
  823MOL0     C 8544  -2.585   1.391   5.977 -0.3025  0.2710 -0.0038
  823MOL0     C 8545  -2.709   1.459   5.931 -0.1697 -0.1767  0.3367
  823MOL0     C 8546  -2.821   1.394   6.003 -0.1485  0.6927 -1.1191
  823MOL0     C 8547  -2.956   1.436   5.944 -0.9041  0.0361 -0.4864
  823MOL0    Cl 8548  -3.080   1.401   6.070 -0.3563 -0.2264  0.3671
  823MOL0     C 8549  -1.802   1.443   5.837  0.0117 -0.5807 -0.3899
  823MOL0     C 8550  -1.683   1.403   5.773  0.2180 -0.2035  0.4246
  823MOL0     O 8551  -1.520   1.612   5.483 -0.1323  1.0789  0.1412
  823MOL0     C 8552  -1.234   1.412   5.576  0.3546  0.0371  0.0151
  823MOL0     C 8553  -1.092   1.403   5.569 -0.5646  0.3598  0.4501
  823MOL0     N 8554  -0.589   1.857   5.884 -0.2707  0.6731 -0.2299
  823MOL0     N 8555  -0.537   1.970   5.921  0.3917  0.6495  0.3007
  823MOL0     C 8556   0.734   2.542   6.160  0.1482 -0.0018  0.1347
  823MOL0     C 8557   0.861   2.566   6.207  0.3216 -0.2028 -0.6544
  823MOL0     C 8558   1.217   2.485   6.481 -0.0156 -0.3786  0.0575
  823MOL0     C 8559   1.248   2.595   6.554 -0.0117  0.1396  0.1779
  823MOL0     C 8560   1.369   2.609   6.618 -0.5032  0.2266 -0.8586
  823MOL0     C 8561   1.468   2.507   6.611 -0.1714 -0.6580 -0.4627
  823MOL0     O 8562   1.579   2.523   6.683  0.2267  0.8389 -0.3401
  823MOL0     C 8563   1.611   2.453   6.807  0.5154  0.2031  0.5547
  823MOL0     C 8564   1.709   2.529   6.894 -0.2247 -0.2101 -0.0897
  823MOL0     C 8565   1.838   2.560   6.810 -0.3226  0.3688  0.1940
  823MOL0     C 8566   1.946   2.631   6.899  0.5402  0.1786  0.8055
  823MOL0     C 8567   1.969   2.561   7.025  1.2351  0.0343  0.8438
  823MOL0     C 8568   1.976   2.504   7.129 -0.5064  0.3058 -0.0373
  823MOL0     C 8569   1.442   2.396   6.530 -0.3195 -0.5888 -0.5679
  823MOL0     C 8570   1.309   2.382   6.476  0.2558 -0.5033  0.3638
  823MOL0     H 8571   0.788   2.492   6.533  0.3912 -0.0598  0.2965
  823MOL0     H 8572   0.572   2.425   6.434 -1.7894  1.2963  0.3073
  823MOL0     H 8573   0.408   2.386   6.316 -2.5976  2.5096 -0.4968
  823MOL0     H 8574   0.457   2.287   6.171 -1.6052 -0.1240 -2.2354
  823MOL0     H 8575   0.295   2.392   6.027  0.3253 -1.0634  0.6142
  823MOL0     H 8576   0.272   2.518   6.151 -0.1649 -0.0182  1.2343
  823MOL0     H 8577   0.170   2.320   6.282 -3.2882 -2.9334  0.6749
  823MOL0     H 8578   0.212   2.219   6.136 -3.0408 -1.4487 -0.9363
  823MOL0     H 8579   0.008   2.454   6.151  3.1394  1.1739  1.1288
  823MOL0     H 8580   0.054   2.368   6.006 -0.2326 -0.4679 -0.4693
  823MOL0     H 8581  -0.150   2.297   6.200 -1.0697 -0.0234 -0.3143
  823MOL0     H 8582  -0.038   2.164   6.179 -1.3444  0.9450  3.0268
  823MOL0     H 8583  -0.082   2.176   5.931  0.5792  0.8449 -0.5039
  823MOL0     H 8584  -0.202   2.310   5.950 -2.6133 -0.2502 -0.4859
  823MOL0     H 8585  -0.248   2.030   6.069  1.9670 -0.7999 -2.5437
  823MOL0     H 8586  -0.352   2.175   6.062  0.8625  2.2261 -2.0925
  823MOL0     H 8587  -0.248   2.079   5.796 -1.5136 -0.0562 -1.8728
  823MOL0     H 8588  -0.381   2.176   5.846 -1.2489 -1.1588  0.3937
  823MOL0     H 8589  -0.319   1.856   5.705 -0.6201 -1.2343 -1.7800
  823MOL0     H 8590  -0.458   1.591   5.773  0.1823  0.1760  0.3169
  823MOL0     H 8591  -0.495   1.678   5.620 -2.7857 -2.9633 -1.3161
  823MOL0     H 8592  -0.726   1.703   5.682  0.0275  0.4227 -0.4433
  823MOL0     H 8593  -0.691   1.591   5.814  1.9698 -0.6859  0.0542
  823MOL0     H 8594  -0.618   1.509   5.516 -2.0161 -4.7648 -1.2524
  823MOL0     H 8595  -0.627   1.409   5.663  0.3424 -0.7756  0.1571
  823MOL0     H 8596  -0.838   1.416   5.685  0.2436  1.0634 -0.1004
  823MOL0     H 8597  -0.785   1.353   5.523  0.6188  1.2442 -2.6300
  823MOL0     H 8598  -1.054   1.733   5.496  0.4521  1.0357  2.8988
  823MOL0     H 8599  -1.304   1.726   5.469 -1.1459 -1.4933 -1.1994
  823MOL0     H 8600  -1.759   1.491   5.450  0.3199  1.1749  0.9915
  823MOL0     H 8601  -1.965   1.565   5.555 -0.2681 -0.7113 -0.7124
  823MOL0     H 8602  -2.126   1.520   5.977 -3.1608  1.9869 -1.6125
  823MOL0     H 8603  -2.040   1.378   5.912 -0.4271 -0.3095 -1.4092
  823MOL0     H 8604  -2.223   1.351   5.748 -1.8613 -2.3217  2.2668
  823MOL0     H 8605  -2.266   1.522   5.750 -1.8949 -0.0998 -0.4180
  823MOL0     H 8606  -2.326   1.425   6.011 -1.6495 -1.2571  0.2990
  823MOL0     H 8607  -2.345   1.274   5.915 -1.4546 -0.3200  2.3152
  823MOL0     H 8608  -2.491   1.537   5.849 -0.0072  0.1923  2.9250
  823MOL0     H 8609  -2.505   1.366   5.786 -1.8431 -0.6299  0.7444
  823MOL0     H 8610  -2.558   1.420   6.079 -1.3944 -1.5294  0.8527
  823MOL0     H 8611  -2.585   1.282   5.988  0.5413  0.5308  7.0811
  823MOL0     H 8612  -2.721   1.438   5.825  0.3114  0.8750  0.0592
  823MOL0     H 8613  -2.699   1.568   5.931  1.0540 -0.2262 -1.8185
  823MOL0     H 8614  -2.813   1.285   5.996 -1.0231  0.7361 -3.7480
  823MOL0     H 8615  -2.818   1.419   6.110  1.3169 -0.1152 -0.9416
  823MOL0     H 8616  -2.976   1.386   5.849  0.5747 -0.1109 -0.7528
  823MOL0     H 8617  -2.955   1.543   5.917  1.4770 -0.1101 -1.2616
  823MOL0     H 8618  -1.811   1.439   5.945  0.9689 -0.0162 -0.2779
  823MOL0     H 8619  -1.601   1.371   5.835  0.2208  1.3200  1.2642
  823MOL0     H 8620  -1.280   1.316   5.599 -1.5035  0.7441 -0.6423
  823MOL0     H 8621  -1.045   1.307   5.587 -1.8762 -0.1557  1.2170
  823MOL0     H 8622   0.715   2.555   6.054 -1.8281 -2.0257  0.1676
  823MOL0     H 8623   0.943   2.603   6.146  0.4407 -0.6355 -0.7608
  823MOL0     H 8624   1.184   2.682   6.564  0.4519  0.2306  2.9348
  823MOL0     H 8625   1.377   2.696   6.682 -0.9187  0.2629 -0.8511
  823MOL0     H 8626   1.657   2.357   6.781  0.9553  0.5595  0.0078
  823MOL0     H 8627   1.520   2.434   6.864  0.5491 -3.1195 -0.2766
  823MOL0     H 8628   1.652   2.617   6.926 -0.1044  0.0322 -0.5284
  823MOL0     H 8629   1.725   2.471   6.985  0.7031 -0.0134 -0.1143
  823MOL0     H 8630   1.810   2.624   6.725  0.4269 -0.0592 -0.3954
  823MOL0     H 8631   1.894   2.471   6.779  0.5649  0.5749  1.1453
  823MOL0     H 8632   2.042   2.643   6.847  2.9117  1.2500  4.9741
  823MOL0     H 8633   1.925   2.737   6.913  2.7297  0.7971 -0.1261
  823MOL0     H 8634   1.985   2.448   7.220  0.8535  0.1443 -0.2440
  823MOL0     H 8635   1.524   2.332   6.500  0.5860 -0.1421  0.8145
  823MOL0     H 8636   1.272   2.292   6.427 -1.4851  0.3177  0.1110
  824MOL0     O 8637   9.703   3.321   6.707 -0.5683  0.7179  0.8274
  824MOL0     C 8638   9.727   3.444   6.711  1.4541  0.1797  1.0846
  824MOL0     O 8639   9.673   3.544   6.633 -0.4772  0.3310  0.5348
  824MOL0     C 8640   9.577   3.493   6.556 -0.2120 -0.1886  1.4915
  824MOL0     C 8641   9.608   3.401   6.447  0.1215 -0.3722  1.2570
  824MOL0     C 8642   9.503   3.384   6.349 -1.2884  0.4221  0.1967
  824MOL0     C 8643   9.374   3.439   6.360 -0.1478 -0.0279 -1.1421
  824MOL0     O 8644   9.280   3.388   6.282  0.4066  0.1048  0.4475
  824MOL0     C 8645   9.146   3.408   6.331 -0.5791  1.0702 -0.3222
  824MOL0     C 8646   9.044   3.339   6.249  0.4557  0.1414  1.1829
  824MOL0     C 8647   9.089   3.195   6.217  0.0813 -0.7344  0.4697
  824MOL0     C 8648   8.980   3.104   6.158  0.6543 -0.2535 -0.4113
  824MOL0     C 8649   9.018   2.954   6.159 -0.3634 -0.2093 -0.0161
  824MOL0     C 8650   8.996   2.888   6.298  0.2193 -0.2153  1.3688
  824MOL0     C 8651   8.994   2.736   6.292 -0.2958  0.7507 -0.0701
  824MOL0     C 8652   8.913   2.669   6.415  1.2352  0.4349 -0.8358
  824MOL0     N 8653   8.763   2.691   6.402 -0.7007 -0.4039 -0.4604
  824MOL0     C 8654   8.676   2.592   6.374 -0.0010  0.2524 -0.0184
  824MOL0     C 8655   8.554   2.658   6.366 -0.3524  0.8458 -0.2323
  824MOL0     C 8656   8.433   2.583   6.313 -0.3455  0.0432  0.3381
  824MOL0     C 8657   8.313   2.680   6.288 -0.2215  1.0502 -0.5852
  824MOL0     C 8658   8.186   2.600   6.268  0.2725  0.2980  0.1978
  824MOL0     C 8659   8.069   2.694   6.228 -0.1034 -0.1158  0.6818
  824MOL0     O 8660   7.938   2.643   6.266 -0.1400  0.1898  0.7813
  824MOL0     C 8661   7.828   2.675   6.186 -0.4598  0.7578  0.2812
  824MOL0     C 8662   7.745   2.569   6.150 -0.2911 -0.4183 -0.5091
  824MOL0     C 8663   7.623   2.605   6.099  0.3377 -0.6340 -0.5560
  824MOL0     C 8664   7.589   2.730   6.058  0.0906  0.1114 -0.8664
  824MOL0     C 8665   7.455   2.754   5.995 -0.5958 -0.4825  1.0205
  824MOL0     O 8666   7.352   2.668   6.015 -0.4960 -0.6482 -0.2525
  824MOL0     C 8667   7.225   2.682   5.995 -0.1920  0.2086  0.9862
  824MOL0     C 8668   7.148   2.574   6.049 -0.0704  0.2968 -0.2377
  824MOL0     C 8669   7.010   2.574   6.040  0.4046 -0.5398  0.5211
  824MOL0     C 8670   6.946   2.688   5.977 -0.2279 -0.5729 -0.9906
  824MOL0     O 8671   6.810   2.708   5.979 -0.4314  0.3012  0.3707
  824MOL0     C 8672   6.749   2.683   6.107  0.1348 -0.2782  0.1395
  824MOL0     C 8673   6.624   2.772   6.128 -0.3091 -1.4529  0.0753
  824MOL0     C 8674   6.642   2.917   6.107 -0.1748 -0.7522  0.3149
  824MOL0     C 8675   6.511   2.990   6.080 -0.6056  1.0579  0.7866
  824MOL0     C 8676   6.528   3.129   6.013 -0.0935  0.0412 -0.0709
  824MOL0     C 8677   6.378   3.184   5.992 -0.5272 -0.2975  0.2496
  824MOL0     C 8678   6.365   3.323   5.933  0.0971 -0.8087  1.2940
  824MOL0     C 8679   6.263   3.334   5.824  0.1638 -0.0026 -0.0058
  824MOL0    Cl 8680   6.287   3.200   5.697  0.0491  0.4962 -0.0578
  824MOL0     C 8681   7.012   2.795   5.924 -0.2259 -0.8596  0.0243
  824MOL0     C 8682   7.155   2.796   5.939  0.7281 -0.1494  0.1359
  824MOL0     O 8683   7.446   2.846   5.915 -0.6319 -0.8140 -0.8070
  824MOL0     C 8684   7.681   2.836   6.089  0.0742  0.4913 -0.6247
  824MOL0     C 8685   7.802   2.804   6.146 -0.1923  0.3906 -0.3905
  824MOL0     N 8686   8.578   2.789   6.396  0.3348  0.5045  0.5218
  824MOL0     N 8687   8.694   2.811   6.422  0.4274  0.0188  0.2859
  824MOL0     C 8688   9.358   3.528   6.471  0.3895  0.7423 -1.1364
  824MOL0     C 8689   9.455   3.559   6.563  0.2996 -0.4072  0.6370
  824MOL0     C 8690   9.848   3.481   6.790 -0.1092  0.0170 -1.0277
  824MOL0     C 8691   9.866   3.610   6.845  0.4633 -0.3830  0.2018
  824MOL0     C 8692   9.987   3.639   6.907 -0.3836 -0.3025 -0.3321
  824MOL0     C 8693  10.087   3.552   6.927 -0.4830 -0.6368 -0.4665
  824MOL0     O 8694  10.200   3.593   7.000  0.2713  1.1599 -0.1802
  824MOL0     C 8695  10.316   3.507   6.989 -0.8055  0.2928  0.7275
  824MOL0     C 8696  10.428   3.589   7.050 -0.4811 -0.0236 -0.1757
  824MOL0     C 8697  10.565   3.522   7.030  0.9072  0.0012  0.7060
  824MOL0     C 8698  10.669   3.618   7.091  0.4483 -0.0251  0.6396
  824MOL0     C 8699  10.797   3.542   7.077 -0.3260  0.2097 -0.4479
  824MOL0     C 8700  10.897   3.479   7.076 -0.0571  0.1937 -0.4508
  824MOL0     C 8701  10.073   3.428   6.857 -0.1528 -0.3082 -0.1901
  824MOL0     C 8702   9.960   3.394   6.786  0.2792 -0.0404 -0.0056
  824MOL0     H 8703   9.707   3.357   6.445  0.9234  1.3579  0.8171
  824MOL0     H 8704   9.513   3.304   6.276  0.9819 -0.6962  1.6075
  824MOL0     H 8705   9.107   3.508   6.354 -0.5876  1.2507 -1.1000
  824MOL0     H 8706   9.143   3.352   6.425  2.3593 -1.0493 -1.3627
  824MOL0     H 8707   9.027   3.405   6.164  1.1806  0.5989  1.3728
  824MOL0     H 8708   8.954   3.331   6.311 -0.9763  0.0146 -0.8292
  824MOL0     H 8709   9.122   3.146   6.309 -0.6555 -1.1815  0.5130
  824MOL0     H 8710   9.170   3.203   6.144  0.1172  3.0851  0.7383
  824MOL0     H 8711   8.889   3.113   6.218  0.3233  3.0048 -1.2067
  824MOL0     H 8712   8.958   3.146   6.059  1.6627 -0.5974 -0.7874
  824MOL0     H 8713   9.125   2.945   6.140 -0.3818  0.5009 -0.5050
  824MOL0     H 8714   8.955   2.907   6.084 -0.2552 -1.0504  0.4103
  824MOL0     H 8715   8.904   2.932   6.339  0.2469  4.1273 -2.4381
  824MOL0     H 8716   9.069   2.912   6.375 -2.8628  2.7915  3.6428
  824MOL0     H 8717   8.945   2.699   6.202  2.6142  0.6132 -1.7206
  824MOL0     H 8718   9.097   2.701   6.290 -0.6618 -0.3435 -0.3719
  824MOL0     H 8719   8.942   2.730   6.500 -2.0532  0.8495  0.1459
  824MOL0     H 8720   8.945   2.566   6.430  1.0324  0.2050 -1.8773
  824MOL0     H 8721   8.700   2.486   6.375  2.4980  0.7449  1.5301
  824MOL0     H 8722   8.406   2.512   6.391 -2.8260  0.3088 -0.1919
  824MOL0     H 8723   8.462   2.534   6.219  0.8622  3.5416 -1.2970
  824MOL0     H 8724   8.326   2.743   6.199  1.3528  2.3900  0.5261
  824MOL0     H 8725   8.309   2.755   6.367 -0.5358  2.0959 -1.5743
  824MOL0     H 8726   8.200   2.535   6.181  1.6891 -0.5275  1.0093
  824MOL0     H 8727   8.160   2.540   6.356  2.0400  0.1441  0.6449
  824MOL0     H 8728   8.064   2.698   6.119 -0.9950 -0.4577  0.6996
  824MOL0     H 8729   8.087   2.797   6.260  0.1827  0.7990 -2.1002
  824MOL0     H 8730   7.754   2.463   6.173 -0.7633  0.0660  2.3818
  824MOL0     H 8731   7.552   2.524   6.083 -0.1695 -0.2844 -0.1108
  824MOL0     H 8732   7.201   2.500   6.108  0.2245  1.8131  1.4797
  824MOL0     H 8733   6.968   2.484   6.084  2.6154 -1.8236  0.1812
  824MOL0     H 8734   6.824   2.721   6.177  2.8515  0.1261 -2.7542
  824MOL0     H 8735   6.739   2.579   6.140 -2.4351 -0.3097 -0.5681
  824MOL0     H 8736   6.574   2.764   6.225 -0.7205  0.4472  0.0593
  824MOL0     H 8737   6.541   2.730   6.070  1.4331 -1.2928 -2.7415
  824MOL0     H 8738   6.699   2.940   6.017 -2.2117  0.8815 -0.6538
  824MOL0     H 8739   6.703   2.959   6.188  0.6679  1.8396 -1.5326
  824MOL0     H 8740   6.442   2.926   6.024  2.5919 -1.0864 -1.0448
  824MOL0     H 8741   6.474   3.005   6.182  0.2491  1.6508  1.0209
  824MOL0     H 8742   6.589   3.105   5.925  0.8539 -2.7828  1.2289
  824MOL0     H 8743   6.587   3.205   6.066 -0.1002  0.0867 -0.1288
  824MOL0     H 8744   6.336   3.170   6.092 -1.6035  1.1155  0.0327
  824MOL0     H 8745   6.340   3.114   5.917 -1.9709 -0.4156  1.0555
  824MOL0     H 8746   6.347   3.395   6.014 -0.4247  1.4132 -0.6730
  824MOL0     H 8747   6.462   3.339   5.885 -0.7771 -1.9194 -0.9941
  824MOL0     H 8748   6.282   3.430   5.775  3.3845  1.1938  3.1073
  824MOL0     H 8749   6.162   3.326   5.863 -0.4412  2.0961 -0.9542
  824MOL0     H 8750   6.948   2.873   5.884  0.2286 -0.7335 -0.4794
  824MOL0     H 8751   7.210   2.880   5.898  0.0498  0.9209  1.3388
  824MOL0     H 8752   7.642   2.935   6.065 -1.5106  0.0192 -0.1654
  824MOL0     H 8753   7.874   2.880   6.175  0.8356 -0.9892  0.8384
  824MOL0     H 8754   9.266   3.586   6.464  0.4683  0.6493 -3.6417
  824MOL0     H 8755   9.426   3.631   6.639 -0.5439  0.0128 -0.0537
  824MOL0     H 8756   9.786   3.683   6.842  1.4371  0.6850 -0.3075
  824MOL0     H 8757  10.016   3.732   6.955  0.1221 -1.4831  1.7625
  824MOL0     H 8758  10.343   3.481   6.886 -2.0997 -2.7636  1.0379
  824MOL0     H 8759  10.315   3.405   7.029  3.6420 -0.6821 -1.0585
  824MOL0     H 8760  10.445   3.687   7.004 -1.0604 -0.8367 -2.2862
  824MOL0     H 8761  10.411   3.617   7.154 -1.0832 -0.0856 -0.2524
  824MOL0     H 8762  10.582   3.532   6.922  0.9409  0.0681  0.7176
  824MOL0     H 8763  10.575   3.421   7.070 -0.1414  1.4694  5.2265
  824MOL0     H 8764  10.673   3.707   7.027  0.0175  1.0468  2.0386
  824MOL0     H 8765  10.652   3.642   7.196 -1.1672  2.1084 -0.0484
  824MOL0     H 8766  10.992   3.428   7.076  0.6530  1.4687 -1.2597
  824MOL0     H 8767  10.138   3.343   6.876 -2.0569 -1.9851 -0.8366
  824MOL0     H 8768   9.955   3.294   6.745  0.7372 -0.6395  1.3358
  825MOL0     O 8769   9.045   0.533   1.136 -0.4953  0.3414 -0.0566
  825MOL0     C 8770   9.133   0.547   1.220 -0.8061  0.3910  0.8898
  825MOL0     O 8771   9.236   0.633   1.206 -0.0593 -0.2550 -0.4653
  825MOL0     C 8772   9.219   0.758   1.152  0.2746  0.3950 -0.2183
  825MOL0     C 8773   9.289   0.778   1.034 -0.0927 -0.7502 -0.8948
  825MOL0     C 8774   9.273   0.890   0.963 -0.5642  0.3762 -0.4388
  825MOL0     C 8775   9.169   0.979   0.991  0.2408 -0.1753  0.0984
  825MOL0     O 8776   9.150   1.088   0.909 -0.1620 -0.1326 -0.0314
  825MOL0     C 8777   9.025   1.159   0.903 -0.7024 -0.5634  1.7634
  825MOL0     C 8778   9.013   1.285   0.816 -0.3790 -0.2488 -1.1188
  825MOL0     C 8779   9.035   1.272   0.664  0.0509 -0.9120 -0.0499
  825MOL0     C 8780   9.023   1.408   0.584 -0.3982 -0.1290  0.3351
  825MOL0     C 8781   9.040   1.377   0.434 -0.2192  0.5519 -1.0420
  825MOL0     C 8782   9.067   1.486   0.328  0.3583  0.1658 -0.7757
  825MOL0     C 8783   9.179   1.581   0.361 -0.3789 -1.1058  0.0319
  825MOL0     C 8784   9.186   1.685   0.247 -0.4443 -0.2053  1.5053
  825MOL0     N 8785   9.244   1.636   0.116  0.2633  0.0968  0.1071
  825MOL0     C 8786   9.179   1.561   0.026  0.1503  0.2555  0.7071
  825MOL0     C 8787   9.255   1.569  -0.087 -0.3834 -0.4169 -0.8164
  825MOL0     C 8788   9.213   1.505  -0.217 -0.2234 -1.0426  0.0477
  825MOL0     C 8789   9.248   1.357  -0.196  0.3900  0.2252  0.0554
  825MOL0     C 8790   9.246   1.288  -0.337 -0.0678  0.5028  0.8012
  825MOL0     C 8791   9.254   1.138  -0.325  0.5580  0.2567 -0.6327
  825MOL0     O 8792   9.160   1.067  -0.411 -0.0876 -0.7136  0.4770
  825MOL0     C 8793   9.129   0.936  -0.384 -0.5229  1.1374  0.6505
  825MOL0     C 8794   9.186   0.856  -0.283  0.3942  0.8850  0.2106
  825MOL0     C 8795   9.144   0.727  -0.269 -0.6756 -0.0294  0.2881
  825MOL0     C 8796   9.062   0.669  -0.363  0.6712  0.6397  0.2903
  825MOL0     C 8797   9.004   0.524  -0.350 -0.3660 -0.3439 -0.2174
  825MOL0     O 8798   9.001   0.467  -0.227  0.3732  0.0596 -0.3137
  825MOL0     C 8799   8.972   0.330  -0.226  0.9827 -1.4016  0.6715
  825MOL0     C 8800   9.063   0.234  -0.274  0.4097 -0.5137  0.1682
  825MOL0     C 8801   9.024   0.093  -0.281  0.8326  0.5748  0.7662
  825MOL0     C 8802   8.894   0.051  -0.238  0.0907  0.4899  0.7717
  825MOL0     O 8803   8.847  -0.076  -0.243  0.5518  1.0816 -0.0137
  825MOL0     C 8804   8.929  -0.194  -0.262 -0.2533 -0.3706  0.2737
  825MOL0     C 8805   8.939  -0.240  -0.414  0.9560  0.6173 -0.8298
  825MOL0     C 8806   8.860  -0.370  -0.427  0.8099  0.4145 -0.0243
  825MOL0     C 8807   8.855  -0.448  -0.560  0.0779  0.5919 -0.1354
  825MOL0     C 8808   8.798  -0.580  -0.535  0.4596  0.4514  0.3259
  825MOL0     C 8809   8.736  -0.636  -0.667  0.0620  0.0926  0.0469
  825MOL0     C 8810   8.699  -0.781  -0.639  0.0977  1.1013 -0.3189
  825MOL0     C 8811   8.624  -0.824  -0.763  1.0344  0.4150 -0.5312
  825MOL0    Cl 8812   8.466  -0.731  -0.767  0.3919 -0.2062  0.1548
  825MOL0     C 8813   8.801   0.152  -0.205  0.0616 -0.2992 -0.7537
  825MOL0     C 8814   8.840   0.288  -0.203  0.3238 -0.3981  0.3384
  825MOL0     O 8815   8.947   0.477  -0.450 -0.5100 -0.2506 -0.0058
  825MOL0     C 8816   9.013   0.735  -0.479 -0.4873 -1.0183  1.1440
  825MOL0     C 8817   9.047   0.874  -0.481 -0.0778  0.4764  0.0966
  825MOL0     N 8818   9.361   1.648  -0.057  0.2760  0.3448  0.2971
  825MOL0     N 8819   9.360   1.687   0.067 -0.4757 -0.3828  0.2481
  825MOL0     C 8820   9.086   0.953   1.104  0.5824  0.3360 -0.7391
  825MOL0     C 8821   9.106   0.837   1.184  0.4345  0.9092 -0.6839
  825MOL0     C 8822   9.137   0.461   1.336  0.0925  0.4656  0.1693
  825MOL0     C 8823   9.240   0.466   1.425  0.2170  0.3673  1.2327
  825MOL0     C 8824   9.251   0.387   1.542  0.3347  0.8360 -0.5073
  825MOL0     C 8825   9.140   0.308   1.579 -0.7258  1.1538 -0.2994
  825MOL0     O 8826   9.136   0.219   1.687  0.3537 -1.4782 -0.2926
  825MOL0     C 8827   9.225   0.231   1.796  0.2317 -0.5503 -0.1129
  825MOL0     C 8828   9.157   0.159   1.915  0.4745  0.0143 -0.1097
  825MOL0     C 8829   9.057   0.260   1.969 -0.0089 -0.3031  0.2333
  825MOL0     C 8830   8.915   0.252   1.906 -0.5384 -0.3015 -0.0582
  825MOL0     C 8831   8.815   0.321   1.992 -0.2992  0.0308 -0.2459
  825MOL0     C 8832   8.740   0.387   2.066  0.2526 -0.3917 -0.1374
  825MOL0     C 8833   9.025   0.304   1.494 -1.4458 -0.1612 -0.8382
  825MOL0     C 8834   9.022   0.380   1.373 -0.2800  0.4907  0.4232
  825MOL0     H 8835   9.351   0.696   0.999 -3.4879 -3.4456 -1.0924
  825MOL0     H 8836   9.340   0.909   0.880 -0.0757 -0.0192 -0.1436
  825MOL0     H 8837   9.006   1.214   0.996  0.0094  2.3228  0.3074
  825MOL0     H 8838   8.948   1.085   0.879  1.1122 -1.7937 -0.6463
  825MOL0     H 8839   9.085   1.364   0.842 -1.6333  2.5675 -5.0801
  825MOL0     H 8840   8.909   1.310   0.838 -0.0790 -0.5629  0.7998
  825MOL0     H 8841   8.962   1.203   0.621 -2.8920  3.6577 -3.2660
  825MOL0     H 8842   9.137   1.232   0.667 -0.6198 -2.6923  2.5852
  825MOL0     H 8843   8.927   1.459   0.592 -0.3712 -0.0503  0.1480
  825MOL0     H 8844   9.099   1.479   0.618 -3.1996  2.6760  1.2069
  825MOL0     H 8845   8.952   1.316   0.411  1.4283 -2.0110 -0.9783
  825MOL0     H 8846   9.122   1.305   0.435  0.4236  1.2227  1.6191
  825MOL0     H 8847   8.974   1.542   0.315 -2.1818 -3.4306  0.2884
  825MOL0     H 8848   9.100   1.427   0.242  1.5165  3.7092 -2.9411
  825MOL0     H 8849   9.157   1.646   0.446  0.2642 -0.1778 -0.5028
  825MOL0     H 8850   9.278   1.540   0.385  1.6422  3.3163  0.3523
  825MOL0     H 8851   9.241   1.776   0.274  1.2847 -0.2571 -1.3939
  825MOL0     H 8852   9.082   1.707   0.224 -0.5716 -2.1631 -0.1203
  825MOL0     H 8853   9.081   1.515   0.028  0.0701 -0.0858 -3.3203
  825MOL0     H 8854   9.270   1.543  -0.303 -0.1099 -3.2472 -0.9049
  825MOL0     H 8855   9.107   1.514  -0.241 -0.5731 -3.3006  0.5970
  825MOL0     H 8856   9.186   1.298  -0.127  1.0918  0.8179  1.2245
  825MOL0     H 8857   9.350   1.339  -0.160 -0.2113  1.8402  2.8602
  825MOL0     H 8858   9.151   1.316  -0.384  0.2591  0.8362  0.3150
  825MOL0     H 8859   9.333   1.310  -0.400 -0.6353 -0.3013 -0.2871
  825MOL0     H 8860   9.235   1.115  -0.220  0.6234 -1.7033 -1.0294
  825MOL0     H 8861   9.355   1.104  -0.349  2.5260  2.6110  3.2875
  825MOL0     H 8862   9.252   0.899  -0.208 -2.3971 -0.5330  3.7158
  825MOL0     H 8863   9.173   0.697  -0.169 -0.7522  0.4802  0.4693
  825MOL0     H 8864   9.157   0.267  -0.317  1.1887 -3.0592 -0.2557
  825MOL0     H 8865   9.100   0.032  -0.329 -1.5399 -0.0698 -2.5368
  825MOL0     H 8866   8.873  -0.267  -0.204 -2.4227 -1.1952 -2.6089
  825MOL0     H 8867   9.026  -0.176  -0.215 -0.3475  2.1924 -0.3377
  825MOL0     H 8868   9.044  -0.256  -0.442  1.2964  2.2771 -0.6422
  825MOL0     H 8869   8.905  -0.163  -0.484  1.4138  0.3718 -1.3255
  825MOL0     H 8870   8.754  -0.354  -0.409  0.4082 -1.2900 -0.7009
  825MOL0     H 8871   8.905  -0.438  -0.354  1.0896  3.3397  2.7563
  825MOL0     H 8872   8.800  -0.400  -0.640 -2.2760 -0.4815  0.7521
  825MOL0     H 8873   8.956  -0.456  -0.602 -0.2712  2.6179 -1.4847
  825MOL0     H 8874   8.714  -0.583  -0.464  1.9504 -1.8370  2.1527
  825MOL0     H 8875   8.868  -0.646  -0.485 -2.3533 -1.1727  2.4408
  825MOL0     H 8876   8.805  -0.639  -0.752 -0.3896 -3.2906 -0.3379
  825MOL0     H 8877   8.645  -0.590  -0.707 -3.3324 -4.6148  1.4282
  825MOL0     H 8878   8.785  -0.848  -0.626 -1.9185 -1.7468 -0.6513
  825MOL0     H 8879   8.627  -0.788  -0.557 -2.9482 -0.0441 -2.8807
  825MOL0     H 8880   8.603  -0.932  -0.755  1.1527  0.3159 -1.4859
  825MOL0     H 8881   8.684  -0.808  -0.853  0.0320 -0.3909 -1.3784
  825MOL0     H 8882   8.698   0.139  -0.174  0.0368 -0.6127 -0.9677
  825MOL0     H 8883   8.773   0.369  -0.176  0.4511 -0.8722  2.2573
  825MOL0     H 8884   8.957   0.691  -0.561 -1.5169  0.8597  0.7745
  825MOL0     H 8885   9.020   0.942  -0.561 -0.8962  0.9964  0.7994
  825MOL0     H 8886   9.011   1.027   1.132  1.5529  1.8252 -1.9624
  825MOL0     H 8887   9.032   0.801   1.254  0.5341  0.5151 -0.7763
  825MOL0     H 8888   9.327   0.526   1.399  0.9155 -0.8397  0.6411
  825MOL0     H 8889   9.328   0.405   1.616  0.6093  0.0423 -0.5933
  825MOL0     H 8890   9.246   0.334   1.825 -1.5213 -0.7435  2.1780
  825MOL0     H 8891   9.327   0.195   1.780  0.8786  1.2728 -0.3468
  825MOL0     H 8892   9.103   0.068   1.888 -2.6796  0.5847  3.4425
  825MOL0     H 8893   9.232   0.131   1.990  1.0592  0.6868 -0.4276
  825MOL0     H 8894   9.099   0.358   1.943  1.2295 -0.5749  1.0956
  825MOL0     H 8895   9.047   0.256   2.078  1.0408 -1.8032  0.3026
  825MOL0     H 8896   8.909   0.308   1.812 -0.1942 -1.3192 -0.7027
  825MOL0     H 8897   8.889   0.146   1.901 -0.1995 -0.3303 -3.0986
  825MOL0     H 8898   8.681   0.439   2.140  1.2956  0.1355  0.3546
  825MOL0     H 8899   8.935   0.242   1.501 -0.3996 -1.5518  1.4518
  825MOL0     H 8900   8.938   0.366   1.306 -0.6965  2.1990  0.5396
  826MOL0     O 8901   1.784   9.093   7.657 -0.3471 -0.7219  0.1347
  826MOL0     C 8902   1.824   9.119   7.546 -0.2786  0.5923  0.4823
  826MOL0     O 8903   1.740   9.140   7.433 -0.4531 -0.5948 -0.0909
  826MOL0     C 8904   1.605   9.137   7.449  0.1964  0.2432  0.0752
  826MOL0     C 8905   1.534   9.258   7.439 -0.3624 -0.8488  0.2490
  826MOL0     C 8906   1.402   9.256   7.472  0.7226  0.8758  0.9199
  826MOL0     C 8907   1.333   9.144   7.525 -0.2862 -0.2150 -0.2798
  826MOL0     O 8908   1.204   9.158   7.569  0.0911 -0.2896  0.2013
  826MOL0     C 8909   1.144   9.055   7.650  0.0861 -0.1083 -0.0077
  826MOL0     C 8910   1.016   9.098   7.723  0.2382  0.4583 -0.3081
  826MOL0     C 8911   0.897   9.111   7.629  0.3967  0.5016 -0.2517
  826MOL0     C 8912   0.903   9.227   7.529  0.8346  0.2700 -0.2527
  826MOL0     C 8913   0.781   9.238   7.436 -0.6303  0.3314 -0.5024
  826MOL0     C 8914   0.773   9.384   7.379 -0.8200  0.1502 -1.3349
  826MOL0     C 8915   0.647   9.378   7.279 -0.2998 -0.9441  0.0962
  826MOL0     C 8916   0.680   9.371   7.129  0.1429  0.1248  0.0739
  826MOL0     N 8917   0.552   9.386   7.055 -0.3853  0.3898 -0.6931
  826MOL0     C 8918   0.473   9.498   7.058 -0.2837  0.0576 -0.1837
  826MOL0     C 8919   0.367   9.458   6.993  1.0872 -0.4891  0.6575
  826MOL0     C 8920   0.259   9.547   6.952 -0.3085  0.2283  0.0888
  826MOL0     C 8921   0.126   9.469   6.968  0.1388  0.1003  0.1660
  826MOL0     C 8922   0.010   9.576   6.960  0.2338  0.9770 -0.2175
  826MOL0     C 8923  -0.017   9.607   6.813  0.4273  0.8002 -0.5050
  826MOL0     O 8924  -0.132   9.536   6.764  0.2113  0.1610 -0.3183
  826MOL0     C 8925  -0.254   9.563   6.821 -0.0855  0.0658  0.2753
  826MOL0     C 8926  -0.289   9.673   6.894 -0.0503 -0.3676 -0.0553
  826MOL0     C 8927  -0.428   9.686   6.936 -0.1148  0.1779  0.4558
  826MOL0     C 8928  -0.528   9.591   6.899  0.4495  0.9784 -0.3627
  826MOL0     C 8929  -0.669   9.625   6.934 -0.7832  0.1426  0.3563
  826MOL0     O 8930  -0.688   9.706   7.039 -0.2110  0.0072  0.1408
  826MOL0     C 8931  -0.808   9.727   7.096  0.5500 -0.7728  0.2626
  826MOL0     C 8932  -0.798   9.793   7.220  0.2122  0.1805 -0.5854
  826MOL0     C 8933  -0.908   9.825   7.299  0.3156 -0.7428  0.5100
  826MOL0     C 8934  -1.039   9.812   7.247  0.4942  0.4935 -0.3558
  826MOL0     O 8935  -1.132   9.860   7.322  0.4653 -0.4444  0.3094
  826MOL0     C 8936  -1.262   9.880   7.251 -0.6192  0.4337 -0.1108
  826MOL0     C 8937  -1.253  10.008   7.169 -0.4393 -0.1601  0.3585
  826MOL0     C 8938  -1.390  10.022   7.085  0.5246 -0.3601  1.0456
  826MOL0     C 8939  -1.513  10.032   7.177 -0.4279  0.0174  0.5695
  826MOL0     C 8940  -1.637  10.069   7.095 -0.1122  0.3911 -0.2960
  826MOL0     C 8941  -1.757  10.099   7.186 -0.5071  0.2942 -0.1997
  826MOL0     C 8942  -1.878  10.157   7.113 -0.5581  0.8580  0.2138
  826MOL0     C 8943  -1.976  10.221   7.212  0.1787  0.0861 -0.6335
  826MOL0    Cl 8944  -2.111  10.264   7.101 -0.4284 -0.0672  0.3679
  826MOL0     C 8945  -1.053   9.737   7.128 -0.1822 -0.6285  0.7428
  826MOL0     C 8946  -0.942   9.709   7.050 -1.0287 -0.1199  0.8202
  826MOL0     O 8947  -0.754   9.551   6.884  0.2149 -0.1052  0.0844
  826MOL0     C 8948  -0.486   9.468   6.832  0.5822  0.0296  0.0179
  826MOL0     C 8949  -0.350   9.462   6.783 -0.1272 -0.0827 -0.3381
  826MOL0     N 8950   0.385   9.328   6.943 -0.1812  0.7398 -0.4961
  826MOL0     N 8951   0.497   9.282   6.995  0.6152 -0.5171  0.7375
  826MOL0     C 8952   1.404   9.022   7.526 -0.7042 -0.2761 -0.1268
  826MOL0     C 8953   1.540   9.017   7.496  0.3275 -0.0651  0.2555
  826MOL0     C 8954   1.970   9.147   7.545  0.5094 -0.7350 -0.1145
  826MOL0     C 8955   2.033   9.193   7.654  0.3376  0.4354  0.0490
  826MOL0     C 8956   2.168   9.230   7.653  0.2465 -0.7936 -0.5734
  826MOL0     C 8957   2.238   9.214   7.538 -0.3659 -0.0025  1.1107
  826MOL0     O 8958   2.368   9.242   7.516  0.2502  0.4895 -0.8106
  826MOL0     C 8959   2.425   9.346   7.588  0.2837 -0.1207 -0.2708
  826MOL0     C 8960   2.562   9.363   7.540 -0.2189 -0.4565 -0.2580
  826MOL0     C 8961   2.577   9.365   7.382 -0.7119 -0.2381  0.1605
  826MOL0     C 8962   2.727   9.369   7.333  0.2002 -0.5863  0.7956
  826MOL0     C 8963   2.824   9.285   7.400  0.7381 -1.3181  0.3966
  826MOL0     C 8964   2.908   9.215   7.443  0.2470 -0.6874 -0.6073
  826MOL0     C 8965   2.177   9.170   7.420  0.0344  0.2985  0.0153
  826MOL0     C 8966   2.046   9.139   7.435 -0.3527  0.0968  0.7063
  826MOL0     H 8967   1.595   9.346   7.417 -1.7267  0.4741  1.5222
  826MOL0     H 8968   1.340   9.346   7.471 -3.6617 -1.7974 -1.4586
  826MOL0     H 8969   1.219   9.019   7.721 -0.0253 -0.1697  0.0791
  826MOL0     H 8970   1.108   8.976   7.583  1.3764  0.2759 -1.2026
  826MOL0     H 8971   1.035   9.199   7.761  2.0556  0.9279 -2.2612
  826MOL0     H 8972   1.005   9.029   7.807  4.0102  0.6168  0.4781
  826MOL0     H 8973   0.801   9.117   7.680 -0.5381  0.0683 -1.9072
  826MOL0     H 8974   0.899   9.019   7.571 -1.3824 -1.8854  3.1478
  826MOL0     H 8975   0.925   9.322   7.579  0.1270  0.5601 -0.4751
  826MOL0     H 8976   0.989   9.218   7.462  1.4015  3.7109 -0.1753
  826MOL0     H 8977   0.696   9.218   7.501  1.4650 -1.9534  1.7574
  826MOL0     H 8978   0.804   9.157   7.366 -0.3258 -0.5786  0.6180
  826MOL0     H 8979   0.868   9.409   7.330  0.2917 -0.7104  0.2891
  826MOL0     H 8980   0.753   9.450   7.464  4.9930  0.2219  0.4839
  826MOL0     H 8981   0.584   9.295   7.313 -0.9034  0.7991  3.7624
  826MOL0     H 8982   0.577   9.460   7.293 -1.5064 -2.1702  1.6163
  826MOL0     H 8983   0.735   9.277   7.113  0.5662 -0.1092  2.5497
  826MOL0     H 8984   0.746   9.455   7.108 -0.2796 -0.3411 -4.0019
  826MOL0     H 8985   0.507   9.599   7.079  1.6961 -0.6872  0.3949
  826MOL0     H 8986   0.287   9.565   6.848 -0.4052 -4.1111 -0.8662
  826MOL0     H 8987   0.269   9.638   7.011 -1.0621  0.4682 -0.1421
  826MOL0     H 8988   0.118   9.436   7.072  1.4363  2.8451  1.2328
  826MOL0     H 8989   0.117   9.378   6.909  2.7355 -1.8504  2.5421
  826MOL0     H 8990  -0.079   9.540   7.012 -0.1841  0.4915 -1.2582
  826MOL0     H 8991   0.050   9.667   7.007  2.5445  0.5742 -1.2964
  826MOL0     H 8992   0.071   9.579   6.755  1.0460  0.8385  0.3956
  826MOL0     H 8993  -0.027   9.716   6.814 -1.7705  0.6552 -0.8681
  826MOL0     H 8994  -0.218   9.754   6.911 -1.8027  1.8962 -2.6839
  826MOL0     H 8995  -0.455   9.775   6.991 -3.4192 -0.6308  0.3266
  826MOL0     H 8996  -0.704   9.802   7.274 -2.2502  2.8252  3.9295
  826MOL0     H 8997  -0.904   9.867   7.400 -1.1857 -1.0387  0.7202
  826MOL0     H 8998  -1.337   9.905   7.327  0.0969 -0.1116  0.8018
  826MOL0     H 8999  -1.292   9.792   7.192  2.3660 -0.6280 -0.2009
  826MOL0     H 9000  -1.171  10.020   7.098  0.0464  2.5365  1.2464
  826MOL0     H 9001  -1.239  10.089   7.241  2.4577  0.3348 -0.6323
  826MOL0     H 9002  -1.392   9.941   7.013 -1.0586  2.2873 -2.1413
  826MOL0     H 9003  -1.370  10.110   7.023  1.4425 -0.4140  1.2425
  826MOL0     H 9004  -1.531   9.929   7.209 -1.4295 -0.2109 -0.6202
  826MOL0     H 9005  -1.497  10.101   7.260 -0.2505 -0.0566  0.5953
  826MOL0     H 9006  -1.656   9.991   7.020  0.5509 -2.2844  2.1277
  826MOL0     H 9007  -1.622  10.159   7.035 -1.9431 -0.7239 -2.6104
  826MOL0     H 9008  -1.724  10.168   7.264 -0.2235  2.6903 -2.3148
  826MOL0     H 9009  -1.788  10.004   7.231 -0.0043 -0.3249 -1.1044
  826MOL0     H 9010  -1.854  10.223   7.029  0.4778 -2.0712 -1.9598
  826MOL0     H 9011  -1.939  10.078   7.068 -0.3635 -0.9331  2.8604
  826MOL0     H 9012  -1.926  10.303   7.265 -2.2398  1.7388 -0.7453
  826MOL0     H 9013  -1.999  10.142   7.283 -1.4682 -0.0761 -1.3069
  826MOL0     H 9014  -1.153   9.724   7.087 -0.8279  2.4293  1.1263
  826MOL0     H 9015  -0.965   9.664   6.954  1.9508 -0.5958  0.2355
  826MOL0     H 9016  -0.555   9.389   6.806  1.9792 -1.3090  0.2855
  826MOL0     H 9017  -0.312   9.375   6.730 -1.2433 -2.7115  2.8291
  826MOL0     H 9018   1.359   8.928   7.556  0.0766 -0.1670  1.5111
  826MOL0     H 9019   1.590   8.925   7.523 -1.5135 -0.4828  2.6135
  826MOL0     H 9020   1.976   9.215   7.744 -1.5301 -2.7959 -0.2057
  826MOL0     H 9021   2.206   9.270   7.746 -0.0897  0.9043 -1.1196
  826MOL0     H 9022   2.429   9.321   7.694  0.5785  2.5537  0.4164
  826MOL0     H 9023   2.363   9.434   7.571 -2.0638 -2.0906 -3.0017
  826MOL0     H 9024   2.605   9.455   7.581  0.1236 -0.1938 -1.1723
  826MOL0     H 9025   2.626   9.287   7.584 -1.4859 -0.2096  2.1757
  826MOL0     H 9026   2.524   9.452   7.343  0.2791 -0.5812 -2.1471
  826MOL0     H 9027   2.524   9.285   7.329 -0.8220  0.7637 -1.2954
  826MOL0     H 9028   2.739   9.330   7.232  2.1162  1.3941  0.1792
  826MOL0     H 9029   2.765   9.471   7.341 -1.8169  0.3971 -0.8908
  826MOL0     H 9030   2.991   9.154   7.472 -1.1854 -2.2737  0.3725
  826MOL0     H 9031   2.239   9.154   7.332  2.6010 -1.6385  2.0295
  826MOL0     H 9032   2.000   9.084   7.354  1.2021 -1.8956  1.1003
  827MOL0     O 9033   0.181   3.068  10.302  0.0474  0.8164  0.5826
  827MOL0     C 9034   0.165   2.955  10.245  0.1459  0.1154  0.2536
  827MOL0     O 9035   0.248   2.899  10.141 -0.8323 -0.3255 -0.5759
  827MOL0     C 9036   0.347   2.979  10.089  0.2829  0.6019  0.0327
  827MOL0     C 9037   0.458   2.905  10.042 -0.9403  0.2153  0.5035
  827MOL0     C 9038   0.568   2.973   9.985 -1.0676  1.4205 -0.7885
  827MOL0     C 9039   0.570   3.114   9.978 -0.4983 -0.5828  1.0562
  827MOL0     O 9040   0.674   3.200   9.947 -0.1430  0.3575 -0.4967
  827MOL0     C 9041   0.779   3.169   9.859  0.5976 -0.6717  0.7092
  827MOL0     C 9042   0.779   3.274   9.743 -0.5913 -0.0403 -0.2779
  827MOL0     C 9043   0.905   3.267   9.654 -0.0317  0.0437 -0.7805
  827MOL0     C 9044   1.025   3.327   9.718 -0.5380 -0.6432  0.0050
  827MOL0     C 9045   1.143   3.340   9.616  0.2870  0.1741  0.2771
  827MOL0     C 9046   1.235   3.451   9.672 -0.3958 -0.2546  0.1540
  827MOL0     C 9047   1.363   3.480   9.585  0.9997 -0.4266 -0.0371
  827MOL0     C 9048   1.490   3.404   9.629 -0.7514 -0.1606 -0.2446
  827MOL0     N 9049   1.606   3.459   9.554  0.9005 -0.5617  0.7705
  827MOL0     C 9050   1.683   3.570   9.601  0.4281 -0.6020  0.2673
  827MOL0     C 9051   1.797   3.559   9.526  0.6747  0.2242  0.8551
  827MOL0     C 9052   1.923   3.640   9.550  0.5183  0.0917  0.6374
  827MOL0     C 9053   1.905   3.781   9.556 -0.2977 -0.1600  0.3471
  827MOL0     C 9054   1.864   3.853   9.423  0.3823 -0.9389 -0.1743
  827MOL0     C 9055   1.916   3.999   9.435  0.5444  0.3331 -0.4693
  827MOL0     O 9056   1.847   4.076   9.529 -0.0682  0.0505 -0.2618
  827MOL0     C 9057   1.706   4.092   9.531  0.0441  0.0068  1.1862
  827MOL0     C 9058   1.623   4.078   9.418 -0.2586 -0.2422 -0.0821
  827MOL0     C 9059   1.488   4.114   9.428  0.0327  0.4294  0.2344
  827MOL0     C 9060   1.433   4.144   9.554 -0.1938  0.4828  0.5503
  827MOL0     C 9061   1.283   4.164   9.573 -0.1038  0.4995  0.1910
  827MOL0     O 9062   1.233   4.199   9.695 -0.0464  0.3368  0.5182
  827MOL0     C 9063   1.097   4.238   9.694  0.4799 -0.0877  0.4006
  827MOL0     C 9064   1.052   4.363   9.641 -0.8167  0.6842  0.1455
  827MOL0     C 9065   0.917   4.393   9.628  0.3205 -0.5372  0.6611
  827MOL0     C 9066   0.820   4.299   9.649  0.0545  0.5867  0.6124
  827MOL0     O 9067   0.688   4.333   9.625 -0.1036  0.3889 -0.1153
  827MOL0     C 9068   0.581   4.242   9.663  0.2540  0.2973  0.1394
  827MOL0     C 9069   0.446   4.315   9.640 -0.4005  1.3626  0.5455
  827MOL0     C 9070   0.322   4.240   9.676  0.2680  0.3265 -0.2289
  827MOL0     C 9071   0.204   4.339   9.660 -0.8503 -0.2171  0.1402
  827MOL0     C 9072   0.070   4.289   9.687  0.4311 -0.6776 -1.1019
  827MOL0     C 9073  -0.050   4.389   9.672  0.0275 -0.4968  0.4651
  827MOL0     C 9074  -0.177   4.328   9.730 -0.2852  0.5471  0.2893
  827MOL0     C 9075  -0.285   4.423   9.765  1.1086 -0.6917 -0.5002
  827MOL0    Cl 9076  -0.412   4.324   9.852  0.7893 -0.4172  0.3539
  827MOL0     C 9077   0.860   4.176   9.701  0.7944 -0.3743  0.7605
  827MOL0     C 9078   0.997   4.148   9.722 -0.0743 -0.1926 -1.2118
  827MOL0     O 9079   1.220   4.159   9.469 -0.8813 -0.5054  0.1120
  827MOL0     C 9080   1.511   4.155   9.665 -0.0257  0.3514  1.0302
  827MOL0     C 9081   1.645   4.142   9.655 -0.2469  1.1037 -0.7745
  827MOL0     N 9082   1.781   3.463   9.427 -0.1073  0.0545 -0.9859
  827MOL0     N 9083   1.672   3.404   9.452 -0.3303 -0.1144  0.4169
  827MOL0     C 9084   0.455   3.179  10.022  0.4279  0.2941  0.0510
  827MOL0     C 9085   0.342   3.112  10.071 -0.6182 -0.4339  0.4316
  827MOL0     C 9086   0.041   2.885  10.291  0.1166  0.4264 -0.0921
  827MOL0     C 9087   0.022   2.743  10.269 -0.9283  0.0417 -1.3844
  827MOL0     C 9088  -0.092   2.673  10.321  0.6740  0.6855  0.4459
  827MOL0     C 9089  -0.184   2.747  10.391  0.2043  0.4013 -0.0329
  827MOL0     O 9090  -0.287   2.675  10.447  0.1029  0.5519  0.1049
  827MOL0     C 9091  -0.369   2.752  10.543  0.2800  0.0890  0.1383
  827MOL0     C 9092  -0.464   2.653  10.610  0.8483 -0.3245  0.0220
  827MOL0     C 9093  -0.559   2.585  10.512  0.2178  0.1225  0.2114
  827MOL0     C 9094  -0.688   2.561  10.581 -1.0309 -0.0882 -0.3526
  827MOL0     C 9095  -0.778   2.482  10.500  1.0701 -0.7169  0.5547
  827MOL0     C 9096  -0.853   2.416  10.436  0.7496  0.0885  0.0777
  827MOL0     C 9097  -0.167   2.885  10.407 -0.3406 -0.0565 -0.4883
  827MOL0     C 9098  -0.055   2.955  10.362  0.9389  0.0457 -0.4437
  827MOL0     H 9099   0.448   2.797  10.043 -0.6910  0.1881  0.2069
  827MOL0     H 9100   0.652   2.927   9.933 -0.2531 -0.0326  1.6315
  827MOL0     H 9101   0.782   3.064   9.828  0.1189 -0.4676 -0.0803
  827MOL0     H 9102   0.865   3.172   9.926 -1.1062 -0.0667  3.0020
  827MOL0     H 9103   0.767   3.377   9.778  2.1669  1.3443 -2.9857
  827MOL0     H 9104   0.699   3.254   9.671  0.2171 -2.0631 -0.6756
  827MOL0     H 9105   0.876   3.320   9.563  0.4889 -3.1956 -3.0178
  827MOL0     H 9106   0.936   3.168   9.620  0.6616  0.8788 -2.6922
  827MOL0     H 9107   1.001   3.427   9.754  0.3832 -0.7989  1.1010
  827MOL0     H 9108   1.061   3.266   9.802  1.0585 -1.6729 -1.3612
  827MOL0     H 9109   1.103   3.375   9.521  0.7449  0.4487  0.1816
  827MOL0     H 9110   1.193   3.243   9.600 -1.8747 -1.2528  1.5806
  827MOL0     H 9111   1.268   3.430   9.774 -0.3791 -3.2479 -0.3768
  827MOL0     H 9112   1.178   3.544   9.667  0.8494  0.5178 -4.1439
  827MOL0     H 9113   1.339   3.466   9.479 -2.4553  2.5036  0.1519
  827MOL0     H 9114   1.384   3.587   9.585  1.5945 -0.4571  2.8977
  827MOL0     H 9115   1.480   3.296   9.609  1.8710 -0.4472 -0.3326
  827MOL0     H 9116   1.516   3.414   9.734  2.2063 -0.7613 -0.8430
  827MOL0     H 9117   1.659   3.633   9.686 -3.7322 -2.7021  0.9290
  827MOL0     H 9118   1.988   3.612   9.466  0.0580 -3.1495  1.2070
  827MOL0     H 9119   1.973   3.616   9.644 -0.9822  1.6610  1.9082
  827MOL0     H 9120   2.003   3.815   9.589 -0.6401 -0.0825  1.3205
  827MOL0     H 9121   1.836   3.808   9.636  0.5069 -0.1028  1.0300
  827MOL0     H 9122   1.915   3.815   9.334 -0.8175 -3.6275  0.1804
  827MOL0     H 9123   1.756   3.848   9.404  0.7699  1.5202 -4.3176
  827MOL0     H 9124   1.930   4.053   9.341 -0.2644 -2.5754 -2.3971
  827MOL0     H 9125   2.020   3.979   9.461  0.7203  3.4185  1.6747
  827MOL0     H 9126   1.664   4.039   9.326 -0.3266 -0.4839 -0.0125
  827MOL0     H 9127   1.429   4.096   9.339  2.6287 -1.2796 -1.3051
  827MOL0     H 9128   1.132   4.435   9.625 -0.7209  0.9539  1.6949
  827MOL0     H 9129   0.888   4.495   9.604 -1.8948 -1.4976 -1.2062
  827MOL0     H 9130   0.592   4.219   9.770  2.7916  2.8633  0.5312
  827MOL0     H 9131   0.588   4.149   9.607 -2.5243 -0.1916  0.4548
  827MOL0     H 9132   0.455   4.351   9.537 -1.6227  2.5466  0.8191
  827MOL0     H 9133   0.445   4.410   9.695  1.1114  0.9260  1.3628
  827MOL0     H 9134   0.328   4.205   9.779 -0.3060 -1.4228 -0.7512
  827MOL0     H 9135   0.316   4.146   9.620  0.4148 -1.0124  1.9091
  827MOL0     H 9136   0.233   4.415   9.733  4.4095 -0.0209 -1.7255
  827MOL0     H 9137   0.191   4.380   9.559 -2.4950 -0.6741  0.1254
  827MOL0     H 9138   0.073   4.260   9.793 -2.7649 -2.8909 -1.4577
  827MOL0     H 9139   0.050   4.197   9.632 -1.3921 -2.1394  1.7616
  827MOL0     H 9140  -0.061   4.405   9.564  3.0411 -1.3983 -0.0834
  827MOL0     H 9141  -0.021   4.484   9.717  2.2509 -1.2691  0.7793
  827MOL0     H 9142  -0.220   4.264   9.653 -0.6664 -1.3226  1.9858
  827MOL0     H 9143  -0.143   4.274   9.819 -1.2576 -2.8882 -1.2605
  827MOL0     H 9144  -0.331   4.476   9.681  0.2171  0.4469  0.6519
  827MOL0     H 9145  -0.251   4.503   9.831  0.8986  1.6722 -3.0819
  827MOL0     H 9146   0.794   4.092   9.721 -0.4664  0.4581  0.1573
  827MOL0     H 9147   1.019   4.047   9.756 -4.3836 -1.1703 -0.7568
  827MOL0     H 9148   1.459   4.196   9.751 -3.1456  3.0843 -1.8683
  827MOL0     H 9149   1.706   4.161   9.743  0.9804  1.4185 -1.6768
  827MOL0     H 9150   0.470   3.286  10.019  0.2096  0.3031 -0.8001
  827MOL0     H 9151   0.251   3.168  10.090 -1.0505  0.7219 -3.8916
  827MOL0     H 9152   0.093   2.688  10.208 -2.5970 -1.9359 -1.6655
  827MOL0     H 9153  -0.138   2.577  10.298  2.4661 -0.0797 -0.0831
  827MOL0     H 9154  -0.433   2.819  10.487  0.3995 -0.6501 -0.9110
  827MOL0     H 9155  -0.311   2.800  10.623  0.4837 -1.0726  0.7154
  827MOL0     H 9156  -0.414   2.574  10.668  0.2139 -0.3070  0.6030
  827MOL0     H 9157  -0.522   2.711  10.682  0.7258  2.7967 -2.3579
  827MOL0     H 9158  -0.508   2.492  10.485  2.1844 -0.2838  4.3809
  827MOL0     H 9159  -0.574   2.637  10.417  0.0116  1.1594  0.7953
  827MOL0     H 9160  -0.673   2.508  10.675  0.0030  0.4343 -0.2121
  827MOL0     H 9161  -0.732   2.659  10.598  0.3237  0.2059  1.8086
  827MOL0     H 9162  -0.916   2.343  10.388 -0.2725  1.7779 -1.2437
  827MOL0     H 9163  -0.227   2.949  10.471  2.2813  1.6566  0.4149
  827MOL0     H 9164  -0.046   3.062  10.379  6.5037  0.3548 -3.0036
  828MOL0     O 9165   1.739   3.151   8.531  0.6159  0.3401  0.5272
  828MOL0     C 9166   1.776   3.036   8.528 -0.6585 -0.8740  0.2068
  828MOL0     O 9167   1.691   2.935   8.538 -0.0165  0.0238  0.3976
  828MOL0     C 9168   1.558   2.961   8.561  0.1223  0.2182  0.9058
  828MOL0     C 9169   1.497   2.939   8.684  0.9226 -0.8700  0.1864
  828MOL0     C 9170   1.360   2.978   8.716  0.6309  0.9507 -0.0505
  828MOL0     C 9171   1.278   3.026   8.612 -0.3932  0.5141  1.3126
  828MOL0     O 9172   1.158   3.079   8.629  0.2931 -0.0094  0.3516
  828MOL0     C 9173   1.046   2.995   8.612 -0.0160  0.2220  0.3317
  828MOL0     C 9174   0.960   2.984   8.747  0.1012  0.1087  1.3156
  828MOL0     C 9175   0.845   2.893   8.721  0.6404 -0.1529  0.2553
  828MOL0     C 9176   0.752   2.906   8.843  0.0224  0.1164 -0.0527
  828MOL0     C 9177   0.655   2.794   8.837 -0.2587 -0.2048  0.5882
  828MOL0     C 9178   0.559   2.816   8.715 -0.0119  0.1266 -0.1619
  828MOL0     C 9179   0.432   2.733   8.721  0.3719  0.0619  0.5380
  828MOL0     C 9180   0.335   2.773   8.618  0.1021 -0.2887 -0.0773
  828MOL0     N 9181   0.241   2.668   8.575 -0.2142 -0.6806  0.5011
  828MOL0     C 9182   0.240   2.598   8.453  0.7462 -0.2006 -0.3297
  828MOL0     C 9183   0.145   2.503   8.473  0.9725 -0.3347 -0.2612
  828MOL0     C 9184   0.103   2.396   8.376 -1.3105  0.9237  0.6295
  828MOL0     C 9185  -0.046   2.369   8.393 -0.8906  0.2364 -0.1396
  828MOL0     C 9186  -0.113   2.277   8.284 -0.1043 -1.0419  0.1275
  828MOL0     C 9187  -0.256   2.252   8.323  0.0461 -1.0446 -0.2265
  828MOL0     O 9188  -0.336   2.377   8.341  0.2130 -0.0528  0.7639
  828MOL0     C 9189  -0.471   2.367   8.374  0.2592 -0.1191 -1.1801
  828MOL0     C 9190  -0.528   2.247   8.404 -0.1608 -0.3612 -0.1756
  828MOL0     C 9191  -0.664   2.240   8.440  0.3090  0.9963  0.1374
  828MOL0     C 9192  -0.742   2.354   8.454 -0.4985  0.6821  0.6961
  828MOL0     C 9193  -0.883   2.343   8.496 -1.1238  0.1393  0.2215
  828MOL0     O 9194  -0.958   2.449   8.448 -0.3599  0.5375  0.4417
  828MOL0     C 9195  -1.087   2.429   8.449  0.7985  0.6692  0.6515
  828MOL0     C 9196  -1.136   2.401   8.326  0.7872  1.3738 -0.4290
  828MOL0     C 9197  -1.278   2.374   8.309  0.2137 -0.1643  0.2104
  828MOL0     C 9198  -1.366   2.375   8.421  0.5135 -0.1162  0.0663
  828MOL0     O 9199  -1.498   2.361   8.411  0.6821 -0.1319 -0.4701
  828MOL0     C 9200  -1.575   2.270   8.489  0.4124 -0.1065 -0.0250
  828MOL0     C 9201  -1.716   2.293   8.441 -0.0697 -0.7403  0.5565
  828MOL0     C 9202  -1.758   2.438   8.471 -0.4856 -0.0053 -0.4932
  828MOL0     C 9203  -1.901   2.482   8.440 -0.3092  0.1531 -0.2824
  828MOL0     C 9204  -1.911   2.629   8.470 -0.0774  0.0507 -0.6289
  828MOL0     C 9205  -2.056   2.671   8.460  0.0103 -0.8157  0.2010
  828MOL0     C 9206  -2.053   2.825   8.460 -0.4552 -0.3181 -0.4347
  828MOL0     C 9207  -2.179   2.905   8.429 -0.0231  0.1055  0.3484
  828MOL0    Cl 9208  -2.322   2.860   8.524  0.4757  0.3618 -0.2585
  828MOL0     C 9209  -1.311   2.427   8.546  0.9214  0.5160  0.2010
  828MOL0     C 9210  -1.173   2.456   8.556 -0.2566  0.3739  0.5188
  828MOL0     O 9211  -0.928   2.235   8.542  0.6174 -0.4014  0.0200
  828MOL0     C 9212  -0.685   2.472   8.410 -0.3485 -0.6307  0.4029
  828MOL0     C 9213  -0.557   2.477   8.369 -0.2324 -0.2826  0.1761
  828MOL0     N 9214   0.092   2.515   8.604 -0.4914  0.0981 -0.8449
  828MOL0     N 9215   0.157   2.608   8.658  0.9473 -0.5174  0.4602
  828MOL0     C 9216   1.338   3.044   8.487 -0.0264  1.0490  0.0462
  828MOL0     C 9217   1.470   3.013   8.460 -0.8646  0.6202 -0.5328
  828MOL0     C 9218   1.921   3.007   8.518 -0.8724  0.6331  0.6427
  828MOL0     C 9219   2.012   3.100   8.464 -0.1765 -1.2126 -0.7337
  828MOL0     C 9220   2.146   3.070   8.451  1.2547 -0.0342  0.9389
  828MOL0     C 9221   2.193   2.949   8.501 -0.0883  1.0709  0.4740
  828MOL0     O 9222   2.325   2.922   8.483 -0.2483 -0.9052  0.1464
  828MOL0     C 9223   2.409   2.981   8.383 -0.8217 -0.3610  0.0688
  828MOL0     C 9224   2.549   2.935   8.431  0.4108 -0.5215 -0.0288
  828MOL0     C 9225   2.670   3.023   8.401  0.3257 -1.1027 -0.4617
  828MOL0     C 9226   2.731   3.047   8.267  0.6954  0.7069 -0.3643
  828MOL0     C 9227   2.840   3.151   8.273 -0.2844  0.1060  0.5756
  828MOL0     C 9228   2.937   3.234   8.281 -0.5517 -0.4440  0.6445
  828MOL0     C 9229   2.104   2.860   8.574  0.4465  0.3241 -0.4618
  828MOL0     C 9230   1.966   2.887   8.585 -0.2921  1.0236  0.1604
  828MOL0     H 9231   1.549   2.907   8.773 -0.2130  0.9680  1.5764
  828MOL0     H 9232   1.325   2.969   8.818  1.9525 -0.8375  0.3086
  828MOL0     H 9233   1.071   2.893   8.582  0.0887  0.1025  0.8174
  828MOL0     H 9234   0.980   3.030   8.532 -0.4699 -1.4923 -0.0939
  828MOL0     H 9235   0.927   3.082   8.781 -0.2084  1.2521 -1.8844
  828MOL0     H 9236   1.025   2.941   8.824 -0.1922 -3.1860 -0.1263
  828MOL0     H 9237   0.886   2.793   8.706 -0.4309 -1.2443  3.7909
  828MOL0     H 9238   0.797   2.925   8.628  0.7356 -1.5450 -0.2841
  828MOL0     H 9239   0.812   2.902   8.934  0.6056  0.5256 -0.4042
  828MOL0     H 9240   0.700   3.002   8.835 -0.8247 -0.1893  1.5675
  828MOL0     H 9241   0.594   2.802   8.927 -4.6205  4.5057 -2.2163
  828MOL0     H 9242   0.706   2.698   8.826 -0.5567 -0.1705 -1.4762
  828MOL0     H 9243   0.617   2.792   8.625 -0.6197 -2.1652 -0.0220
  828MOL0     H 9244   0.539   2.922   8.701  0.1593 -0.0781 -2.3074
  828MOL0     H 9245   0.454   2.630   8.695  0.2099 -0.4564  2.3417
  828MOL0     H 9246   0.386   2.735   8.820  0.1628  2.5102  0.4712
  828MOL0     H 9247   0.386   2.801   8.525  0.9753  0.0986  0.5040
  828MOL0     H 9248   0.285   2.862   8.658 -0.8775 -1.7696  2.1882
  828MOL0     H 9249   0.304   2.603   8.366  0.6669 -3.4599 -0.6890
  828MOL0     H 9250   0.158   2.302   8.388 -0.3115  1.6980  2.5760
  828MOL0     H 9251   0.118   2.425   8.271 -0.6116 -2.0073 -0.1726
  828MOL0     H 9252  -0.095   2.467   8.396 -0.2729  0.6920 -2.6655
  828MOL0     H 9253  -0.060   2.326   8.492 -2.5521  2.2496  0.5757
  828MOL0     H 9254  -0.116   2.324   8.186 -2.7911 -1.2823  0.0206
  828MOL0     H 9255  -0.058   2.183   8.271 -0.7845 -1.3947 -0.2289
  828MOL0     H 9256  -0.244   2.197   8.418  0.9977 -1.5572 -0.6222
  828MOL0     H 9257  -0.289   2.176   8.252 -0.2262  1.8662 -3.4412
  828MOL0     H 9258  -0.468   2.157   8.407  0.0750 -0.1817  2.9726
  828MOL0     H 9259  -0.699   2.137   8.445  2.4479  0.2141  0.1547
  828MOL0     H 9260  -1.067   2.369   8.248  0.4116 -1.8821  0.4172
  828MOL0     H 9261  -1.325   2.343   8.216 -0.2488 -0.0152  0.3908
  828MOL0     H 9262  -1.566   2.299   8.594 -0.8005 -0.9074  0.3180
  828MOL0     H 9263  -1.531   2.171   8.480  2.4640  0.6545  0.9717
  828MOL0     H 9264  -1.781   2.220   8.490  1.9782 -2.6522  0.6309
  828MOL0     H 9265  -1.720   2.275   8.333 -4.7941  5.0192 -0.6834
  828MOL0     H 9266  -1.695   2.502   8.408  0.5431 -1.1289 -0.6458
  828MOL0     H 9267  -1.753   2.470   8.575 -0.7155 -1.0338 -0.1564
  828MOL0     H 9268  -1.925   2.437   8.343 -2.5714  0.1588  0.2227
  828MOL0     H 9269  -1.968   2.425   8.504  1.3104 -2.6427 -0.9313
  828MOL0     H 9270  -1.840   2.686   8.408 -1.2085  2.0096 -0.2107
  828MOL0     H 9271  -1.880   2.652   8.572 -1.2845  1.8688 -0.6177
  828MOL0     H 9272  -2.122   2.623   8.533  0.5310 -0.1810  1.1071
  828MOL0     H 9273  -2.087   2.644   8.359 -0.3645  0.8647 -0.1586
  828MOL0     H 9274  -2.032   2.860   8.561 -0.7177  1.4115 -0.9565
  828MOL0     H 9275  -1.974   2.856   8.392  0.7488 -1.1914  0.5291
  828MOL0     H 9276  -2.201   2.898   8.322 -2.3610 -0.4226  0.8195
  828MOL0     H 9277  -2.148   3.009   8.442 -2.1508  1.0678 -1.5904
  828MOL0     H 9278  -1.378   2.433   8.631 -1.3484 -2.5051 -1.1762
  828MOL0     H 9279  -1.137   2.500   8.648  0.8436  3.9812 -1.4396
  828MOL0     H 9280  -0.741   2.564   8.416  0.6642 -0.0738  3.4500
  828MOL0     H 9281  -0.519   2.566   8.319  2.7100 -2.1827 -1.2604
  828MOL0     H 9282   1.290   3.097   8.406 -0.5306  0.5789  0.0290
  828MOL0     H 9283   1.516   3.041   8.366  0.2348  0.3487 -0.0899
  828MOL0     H 9284   1.984   3.202   8.438  2.0327 -1.0201 -2.7043
  828MOL0     H 9285   2.217   3.130   8.394 -0.8735  0.8348 -0.9694
  828MOL0     H 9286   2.413   3.090   8.396 -1.8415 -0.2362 -0.5536
  828MOL0     H 9287   2.382   2.960   8.280  0.1480 -2.2179  0.1402
  828MOL0     H 9288   2.546   2.934   8.540  0.0774  2.0532  0.0423
  828MOL0     H 9289   2.574   2.834   8.395 -2.3051 -1.4898  0.5758
  828MOL0     H 9290   2.755   2.987   8.461  0.2428 -0.2048  0.2218
  828MOL0     H 9291   2.647   3.126   8.433 -0.1557 -1.0596 -0.9486
  828MOL0     H 9292   2.773   2.956   8.223 -0.8262 -0.9985  1.5504
  828MOL0     H 9293   2.648   3.084   8.205 -1.7755  0.8195  2.7969
  828MOL0     H 9294   3.015   3.307   8.274 -0.4523 -0.6939 -2.5775
  828MOL0     H 9295   2.145   2.772   8.622  0.6186 -0.6342 -2.2626
  828MOL0     H 9296   1.910   2.814   8.643 -0.6123  0.6323 -0.6199
  829MOL0     O 9297   8.587   8.531   8.395 -0.1913  0.1564  0.5066
  829MOL0     C 9298   8.546   8.547   8.508  0.2494 -0.3639  0.1051
  829MOL0     O 9299   8.616   8.546   8.627  0.6276  0.1685  0.1280
  829MOL0     C 9300   8.754   8.534   8.633  0.5051  0.5078  0.6977
  829MOL0     C 9301   8.819   8.407   8.638  0.9482  0.1915 -0.3435
  829MOL0     C 9302   8.958   8.396   8.673  0.4811 -0.4074 -0.4167
  829MOL0     C 9303   9.014   8.518   8.714  0.0905 -0.3712  0.3030
  829MOL0     O 9304   9.136   8.514   8.746  0.3931 -1.2813 -0.1912
  829MOL0     C 9305   9.147   8.527   8.892  0.2250 -0.7784 -0.6804
  829MOL0     C 9306   9.296   8.508   8.925 -0.1023  0.9680 -0.6850
  829MOL0     C 9307   9.332   8.360   8.963  0.5572  0.2669 -0.5306
  829MOL0     C 9308   9.474   8.370   9.009 -0.7411  0.3071  0.7125
  829MOL0     C 9309   9.547   8.230   8.996  0.2019 -0.3501  0.0839
  829MOL0     C 9310   9.666   8.232   9.087  0.1019  0.5750  0.0861
  829MOL0     C 9311   9.739   8.093   9.084  0.6030 -0.6482 -0.8147
  829MOL0     C 9312   9.883   8.101   9.147  0.3561  0.6108 -0.8504
  829MOL0     N 9313   9.975   8.168   9.065 -0.8118  0.1178 -0.1212
  829MOL0     C 9314   9.998   8.148   8.932  0.2192  0.3298  0.1908
  829MOL0     C 9315  10.095   8.226   8.882 -0.1409  0.2026 -0.1108
  829MOL0     C 9316  10.123   8.256   8.737  0.0579 -0.5154 -0.1214
  829MOL0     C 9317  10.049   8.380   8.683 -0.6452  0.5523  1.2721
  829MOL0     C 9318   9.900   8.353   8.683 -0.3276  0.1775 -0.2498
  829MOL0     C 9319   9.841   8.234   8.609  0.5703 -0.5792  0.0081
  829MOL0     O 9320   9.695   8.242   8.627 -0.6772 -0.4666 -0.1776
  829MOL0     C 9321   9.623   8.304   8.534 -0.4554  0.3395 -0.0951
  829MOL0     C 9322   9.485   8.278   8.561 -0.8601  0.3769 -0.0642
  829MOL0     C 9323   9.389   8.320   8.477  0.3146 -0.0379  0.9212
  829MOL0     C 9324   9.422   8.379   8.351 -1.3775  0.4827  0.4008
  829MOL0     C 9325   9.318   8.405   8.249  0.1569  0.0460  0.0409
  829MOL0     O 9326   9.187   8.377   8.288  1.0060 -0.1131  0.1639
  829MOL0     C 9327   9.076   8.397   8.199 -0.4375 -0.2568 -1.6311
  829MOL0     C 9328   9.087   8.349   8.070  0.4100 -0.1281  0.3656
  829MOL0     C 9329   8.970   8.350   7.985  1.2782 -0.3230  0.7232
  829MOL0     C 9330   8.848   8.399   8.027  0.5563  0.3265  0.3212
  829MOL0     O 9331   8.734   8.399   7.942 -0.2661 -0.0654  0.0391
  829MOL0     C 9332   8.607   8.429   8.000 -0.0337  0.6266 -0.1697
  829MOL0     C 9333   8.491   8.412   7.897  0.4141 -0.0386 -0.9701
  829MOL0     C 9334   8.524   8.496   7.769  0.4055 -0.0380 -0.2412
  829MOL0     C 9335   8.405   8.498   7.683  0.0551 -0.1120 -0.2646
  829MOL0     C 9336   8.414   8.537   7.541 -0.9592  0.2254 -0.3589
  829MOL0     C 9337   8.479   8.673   7.519  0.4669 -0.3235 -0.6326
  829MOL0     C 9338   8.512   8.727   7.381  0.3026 -0.0107 -0.0502
  829MOL0     C 9339   8.391   8.721   7.286 -0.0127 -0.5215 -0.0035
  829MOL0    Cl 9340   8.389   8.551   7.215  0.3995 -0.2224 -0.3283
  829MOL0     C 9341   8.844   8.430   8.158  0.4107 -0.3124 -0.9501
  829MOL0     C 9342   8.951   8.424   8.249 -1.0496  0.0237 -0.3822
  829MOL0     O 9343   9.357   8.428   8.135  0.7148 -0.3709  0.5775
  829MOL0     C 9344   9.557   8.397   8.324 -0.4749  1.3222 -0.8588
  829MOL0     C 9345   9.658   8.363   8.413 -0.2801 -0.0017 -0.3584
  829MOL0     N 9346  10.151   8.275   9.002  0.4806  0.4731  0.2413
  829MOL0     N 9347  10.079   8.241   9.102 -0.6000 -0.3953 -0.1947
  829MOL0     C 9348   8.954   8.640   8.692  0.0641  0.4002 -0.6215
  829MOL0     C 9349   8.815   8.650   8.654  0.5758  0.7582  0.4901
  829MOL0     C 9350   8.395   8.569   8.505 -1.0325 -0.1360 -0.7799
  829MOL0     C 9351   8.317   8.578   8.624 -0.1068 -0.8252  0.1074
  829MOL0     C 9352   8.180   8.615   8.625 -0.2593  0.1503 -0.1398
  829MOL0     C 9353   8.119   8.645   8.503 -0.3791  0.8271 -2.0709
  829MOL0     O 9354   7.993   8.699   8.516 -0.4387 -0.3759 -0.2533
  829MOL0     C 9355   7.918   8.735   8.404 -0.3275  0.6517  0.3875
  829MOL0     C 9356   7.808   8.836   8.435  0.3294  0.9983 -1.5090
  829MOL0     C 9357   7.706   8.764   8.529  0.6757 -0.1540  0.6947
  829MOL0     C 9358   7.598   8.857   8.589  0.1187  0.1667 -0.2460
  829MOL0     C 9359   7.529   8.939   8.483  0.4987 -0.0971 -0.1727
  829MOL0     C 9360   7.473   8.985   8.389  0.1559 -0.1345  0.1650
  829MOL0     C 9361   8.188   8.618   8.384 -0.5748 -0.9178 -0.6284
  829MOL0     C 9362   8.326   8.585   8.385  0.3744  0.3257  0.3022
  829MOL0     H 9363   8.766   8.316   8.615  2.0590 -0.4658 -0.3848
  829MOL0     H 9364   9.002   8.297   8.673 -1.5304 -1.4541  2.6043
  829MOL0     H 9365   9.084   8.452   8.940 -0.0638  1.8864  3.6284
  829MOL0     H 9366   9.114   8.626   8.925  0.2319  0.4434 -3.9952
  829MOL0     H 9367   9.328   8.577   9.004  0.5555  0.5339 -0.5732
  829MOL0     H 9368   9.365   8.528   8.843  1.0311  0.6960  0.1853
  829MOL0     H 9369   9.323   8.305   8.868  2.2507 -2.9923  1.0270
  829MOL0     H 9370   9.261   8.323   9.038  0.9290 -2.0111 -1.2311
  829MOL0     H 9371   9.532   8.444   8.954  0.8953 -2.4023 -1.5099
  829MOL0     H 9372   9.483   8.396   9.115  0.3880 -2.0042  1.2493
  829MOL0     H 9373   9.581   8.212   8.893  1.1116 -0.2830  0.3647
  829MOL0     H 9374   9.485   8.147   9.032 -0.9609 -0.4578 -2.0084
  829MOL0     H 9375   9.642   8.261   9.190 -3.3007  0.0355 -0.4341
  829MOL0     H 9376   9.731   8.318   9.066  0.7687  1.0116  3.3909
  829MOL0     H 9377   9.671   8.021   9.130 -1.3928  1.3697 -0.4485
  829MOL0     H 9378   9.751   8.059   8.981  0.3546  1.2554 -1.5025
  829MOL0     H 9379   9.933   8.006   9.166  3.0089  1.9408 -0.8141
  829MOL0     H 9380   9.872   8.158   9.240 -0.3931 -0.2109 -0.4226
  829MOL0     H 9381   9.932   8.088   8.870  3.1251 -2.1510 -0.7156
  829MOL0     H 9382  10.121   8.163   8.679  1.8504  0.4078 -1.8306
  829MOL0     H 9383  10.231   8.276   8.731  0.2037 -1.3484 -0.4329
  829MOL0     H 9384  10.080   8.409   8.582 -0.8611 -0.6398  0.8480
  829MOL0     H 9385  10.064   8.469   8.745  0.9749  1.6682 -0.6065
  829MOL0     H 9386   9.856   8.365   8.782 -0.8576 -1.4707 -0.2574
  829MOL0     H 9387   9.857   8.434   8.624 -1.9977  0.2843  1.0496
  829MOL0     H 9388   9.878   8.141   8.654 -2.8608 -2.0222  0.1669
  829MOL0     H 9389   9.862   8.233   8.502  2.4820  0.6281  0.3392
  829MOL0     H 9390   9.445   8.215   8.640 -1.6776 -0.3161 -0.9963
  829MOL0     H 9391   9.285   8.292   8.486  0.1362 -0.2277 -1.1718
  829MOL0     H 9392   9.179   8.308   8.031  0.3693 -0.3102  0.4609
  829MOL0     H 9393   8.976   8.315   7.882  0.1764  0.1723  0.4771
  829MOL0     H 9394   8.618   8.531   8.039  1.5217  0.4988 -0.1874
  829MOL0     H 9395   8.576   8.355   8.074 -2.4845  3.8764  2.3767
  829MOL0     H 9396   8.400   8.444   7.950 -0.0402 -2.2346 -0.3153
  829MOL0     H 9397   8.476   8.305   7.876 -3.5361  0.6082 -2.2136
  829MOL0     H 9398   8.606   8.454   7.710  1.3641  1.3983  0.0130
  829MOL0     H 9399   8.548   8.600   7.791  2.9303 -0.7327  0.6398
  829MOL0     H 9400   8.363   8.397   7.694 -0.1585  0.0235  0.2002
  829MOL0     H 9401   8.340   8.579   7.718  1.7681  0.9314  0.6434
  829MOL0     H 9402   8.310   8.532   7.506 -2.2597  1.4983  2.9087
  829MOL0     H 9403   8.478   8.459   7.499  1.6146  2.3216 -0.6215
  829MOL0     H 9404   8.570   8.683   7.578 -0.9610 -1.8132  2.0090
  829MOL0     H 9405   8.399   8.738   7.555 -0.7237 -1.8345 -0.4203
  829MOL0     H 9406   8.527   8.835   7.392 -0.1535  0.0328  0.1943
  829MOL0     H 9407   8.605   8.696   7.334 -1.2986  0.5287 -3.8813
  829MOL0     H 9408   8.383   8.790   7.202  2.9984 -1.4187 -1.1522
  829MOL0     H 9409   8.309   8.745   7.354  2.5371  0.1001  3.1152
  829MOL0     H 9410   8.742   8.440   8.192 -0.6151 -1.3166 -3.5421
  829MOL0     H 9411   8.943   8.450   8.354  4.4201 -1.4915  0.6953
  829MOL0     H 9412   9.586   8.455   8.237 -1.9953  2.0595 -0.9188
  829MOL0     H 9413   9.764   8.381   8.394 -0.2617 -0.4733 -0.7061
  829MOL0     H 9414   9.015   8.716   8.739  0.4860 -1.0738  1.3586
  829MOL0     H 9415   8.760   8.743   8.653 -0.4240  0.2072  1.5397
  829MOL0     H 9416   8.372   8.583   8.717 -0.0175  1.6578 -0.0104
  829MOL0     H 9417   8.145   8.635   8.726  0.8325  2.8120 -0.2113
  829MOL0     H 9418   7.882   8.656   8.338 -1.9331  1.9092 -0.3248
  829MOL0     H 9419   7.973   8.813   8.350 -0.4855  0.8398  0.4946
  829MOL0     H 9420   7.865   8.905   8.498 -1.6630  3.0158 -1.7815
  829MOL0     H 9421   7.768   8.885   8.346 -1.6592  2.4402  0.0658
  829MOL0     H 9422   7.760   8.720   8.613 -0.5396 -0.9141  1.1157
  829MOL0     H 9423   7.661   8.691   8.460 -1.1831  1.8208 -0.3270
  829MOL0     H 9424   7.522   8.800   8.643  0.2284  0.7717  0.5492
  829MOL0     H 9425   7.642   8.917   8.669  2.3185 -0.1267 -1.1515
  829MOL0     H 9426   7.420   9.013   8.301  2.6535  1.4991 -0.8962
  829MOL0     H 9427   8.151   8.651   8.287 -0.3079  1.0853 -0.1031
  829MOL0     H 9428   8.375   8.587   8.288  0.4564  0.5211  0.3456
  830MOL0     O 9429   5.743   3.684  11.212  1.1550  0.4066  0.7646
  830MOL0     C 9430   5.789   3.624  11.308  0.6674  0.2663 -0.4417
  830MOL0     O 9431   5.728   3.614  11.429 -0.1943  0.0137 -0.1395
  830MOL0     C 9432   5.598   3.638  11.441  1.1243 -0.1545 -0.0028
  830MOL0     C 9433   5.500   3.614  11.342 -0.0798  0.2331 -0.3595
  830MOL0     C 9434   5.358   3.626  11.365  0.4283 -0.4416  0.0189
  830MOL0     C 9435   5.319   3.681  11.486 -0.4892 -0.5980  0.1803
  830MOL0     O 9436   5.186   3.693  11.510  0.0339  0.2848 -0.4826
  830MOL0     C 9437   5.136   3.604  11.621  0.3457 -0.8745 -0.2780
  830MOL0     C 9438   4.982   3.612  11.634  0.1225  0.4858  0.0584
  830MOL0     C 9439   4.937   3.747  11.654 -0.5213  0.3457 -0.8520
  830MOL0     C 9440   4.772   3.744  11.666  0.0690  0.3101  0.0757
  830MOL0     C 9441   4.730   3.884  11.713  0.0325 -0.2170 -0.7372
  830MOL0     C 9442   4.572   3.874  11.737  0.3914  0.2128 -0.1786
  830MOL0     C 9443   4.508   3.993  11.816  0.0204  0.1030 -0.4015
  830MOL0     C 9444   4.365   4.007  11.759 -0.7410  0.8742 -0.4448
  830MOL0     N 9445   4.288   3.886  11.794 -0.0906 -0.1923 -1.0445
  830MOL0     C 9446   4.192   3.900  11.888  0.1610  0.0784  0.5960
  830MOL0     C 9447   4.107   3.792  11.860  0.6343  0.3546  0.5760
  830MOL0     C 9448   3.974   3.765  11.920  0.6707 -0.8675 -0.2856
  830MOL0     C 9449   3.846   3.779  11.835  0.2404 -0.5933 -0.7420
  830MOL0     C 9450   3.725   3.740  11.926  0.8861 -0.0689  0.5494
  830MOL0     C 9451   3.600   3.688  11.857  0.7215  0.3872  1.6275
  830MOL0     O 9452   3.561   3.777  11.757 -1.2013  0.3284  0.5133
  830MOL0     C 9453   3.445   3.766  11.677 -0.2541 -1.0595 -0.3614
  830MOL0     C 9454   3.419   3.839  11.558  0.2125 -0.1313 -0.3249
  830MOL0     C 9455   3.324   3.805  11.470  0.3939 -1.4360 -0.2731
  830MOL0     C 9456   3.243   3.688  11.491 -0.8352  0.3558 -0.5784
  830MOL0     C 9457   3.160   3.637  11.379 -0.6692 -1.1034 -0.0707
  830MOL0     O 9458   3.086   3.525  11.409  0.4980 -0.7580  0.5844
  830MOL0     C 9459   2.978   3.500  11.319 -0.4897 -0.7491 -0.0955
  830MOL0     C 9460   2.847   3.481  11.365  0.9611 -0.1113 -0.5831
  830MOL0     C 9461   2.739   3.451  11.281  0.6407 -0.1972 -0.5278
  830MOL0     C 9462   2.760   3.453  11.147 -0.4871  0.3744  0.0731
  830MOL0     O 9463   2.661   3.425  11.061 -0.2361 -0.1282  0.2126
  830MOL0     C 9464   2.571   3.323  11.079  0.6794 -0.0783  0.1210
  830MOL0     C 9465   2.510   3.290  10.931 -0.4233 -1.0603 -0.7662
  830MOL0     C 9466   2.466   3.146  10.936  0.9925  0.4530 -0.0683
  830MOL0     C 9467   2.335   3.125  11.015  0.0417 -1.0221 -0.3715
  830MOL0     C 9468   2.262   2.991  10.987  0.3333 -0.3541 -0.4665
  830MOL0     C 9469   2.116   2.991  11.043 -1.2321  0.7390  0.3374
  830MOL0     C 9470   2.062   2.848  11.014 -0.0403 -1.2007  0.0592
  830MOL0     C 9471   1.931   2.828  11.079 -0.9698  0.2516 -0.0654
  830MOL0    Cl 9472   1.818   2.942  11.005 -0.2031  0.2337  0.1457
  830MOL0     C 9473   2.885   3.478  11.093 -0.4230 -0.5914  0.5907
  830MOL0     C 9474   2.992   3.497  11.179 -0.2990  0.0852  0.5035
  830MOL0     O 9475   3.166   3.699  11.272  0.3908 -0.1530 -0.1174
  830MOL0     C 9476   3.266   3.614  11.613 -0.5520  1.3686  0.3354
  830MOL0     C 9477   3.358   3.660  11.700 -0.9225  0.4709  0.1597
  830MOL0     N 9478   4.155   3.719  11.758 -0.1900 -0.1569  1.3199
  830MOL0     N 9479   4.259   3.773  11.715 -0.8714 -0.1035 -0.0216
  830MOL0     C 9480   5.416   3.710  11.584 -0.5430  0.1349 -0.2338
  830MOL0     C 9481   5.555   3.688  11.561  0.2411 -0.6762  0.9540
  830MOL0     C 9482   5.915   3.556  11.291  0.0826  0.2856  0.4750
  830MOL0     C 9483   6.014   3.597  11.197 -0.3769  1.3416  0.1356
  830MOL0     C 9484   6.135   3.515  11.196  0.3937 -0.3246  0.3066
  830MOL0     C 9485   6.168   3.401  11.269  0.7680  0.0245 -0.5379
  830MOL0     O 9486   6.277   3.321  11.247 -0.4850  0.3534 -0.4031
  830MOL0     C 9487   6.404   3.377  11.184 -0.9799 -0.4198 -0.8384
  830MOL0     C 9488   6.464   3.493  11.264 -0.9584 -0.2503  0.3907
  830MOL0     C 9489   6.594   3.558  11.220  0.0823  0.3920 -0.5962
  830MOL0     C 9490   6.711   3.512  11.302  1.3810  1.4300  0.7403
  830MOL0     C 9491   6.736   3.364  11.304 -0.7241 -0.5783  0.9359
  830MOL0     C 9492   6.754   3.249  11.292 -0.3366  0.4815  0.1006
  830MOL0     C 9493   6.058   3.363  11.348  0.1102 -0.4476  0.6511
  830MOL0     C 9494   5.937   3.433  11.358 -0.2580 -0.4214 -0.6610
  830MOL0     H 9495   5.533   3.580  11.244 -2.2133  0.3798 -1.1975
  830MOL0     H 9496   5.288   3.600  11.287  1.6226  0.7352 -1.5128
  830MOL0     H 9497   5.174   3.632  11.719  1.6539 -1.5010 -0.5837
  830MOL0     H 9498   5.166   3.499  11.607  0.7965 -0.6422 -1.1459
  830MOL0     H 9499   4.950   3.551  11.719 -1.3856  2.8708  1.3174
  830MOL0     H 9500   4.937   3.577  11.541 -0.4954 -0.5312  0.7074
  830MOL0     H 9501   4.984   3.813  11.580 -1.8291  1.8957 -0.3473
  830MOL0     H 9502   4.968   3.778  11.755  1.1320  1.4520 -1.6355
  830MOL0     H 9503   4.726   3.725  11.569 -0.5758 -1.1674  0.6421
  830MOL0     H 9504   4.741   3.662  11.731  1.5535  0.9416  1.6818
  830MOL0     H 9505   4.752   3.961  11.638  1.5611  0.3315  0.2347
  830MOL0     H 9506   4.774   3.918  11.807 -0.0649  0.3867 -0.9004
  830MOL0     H 9507   4.553   3.782  11.793  3.0446  0.6298  1.6040
  830MOL0     H 9508   4.529   3.852  11.639 -0.4199  1.5899 -0.1473
  830MOL0     H 9509   4.519   3.987  11.925  0.3509  1.4080 -0.3493
  830MOL0     H 9510   4.546   4.087  11.777 -1.6409  0.6544 -0.7802
  830MOL0     H 9511   4.379   4.015  11.651  0.0515  0.9438 -0.3428
  830MOL0     H 9512   4.323   4.095  11.810  1.2128  2.1450 -0.8970
  830MOL0     H 9513   4.172   3.979  11.960  0.9236 -0.3926  1.3455
  830MOL0     H 9514   3.970   3.833  12.005  7.0163 -1.9519  1.3463
  830MOL0     H 9515   3.978   3.660  11.952  0.2571 -0.7587  0.1389
  830MOL0     H 9516   3.848   3.722  11.742 -3.1917 -2.3167  0.0702
  830MOL0     H 9517   3.833   3.881  11.798  3.1436  1.2348  2.7180
  830MOL0     H 9518   3.757   3.664  11.998  2.1770 -1.3336 -1.2770
  830MOL0     H 9519   3.694   3.834  11.972  2.4659 -0.4211  2.5154
  830MOL0     H 9520   3.523   3.686  11.935 -1.3388 -0.3973 -0.3186
  830MOL0     H 9521   3.615   3.588  11.815 -2.1049 -0.5147  2.5277
  830MOL0     H 9522   3.477   3.925  11.527 -1.4559  1.0778 -0.2691
  830MOL0     H 9523   3.301   3.862  11.380 -0.7641  0.0705  0.9299
  830MOL0     H 9524   2.828   3.491  11.472 -1.3294 -3.2000 -0.5644
  830MOL0     H 9525   2.639   3.421  11.310 -1.6212  1.8186 -5.1792
  830MOL0     H 9526   2.480   3.349  11.134 -0.6742  0.1480 -2.0889
  830MOL0     H 9527   2.618   3.239  11.129 -2.0051 -2.3485 -0.8646
  830MOL0     H 9528   2.602   3.303  10.873  0.1000 -1.3143 -0.0105
  830MOL0     H 9529   2.434   3.361  10.896 -1.3727 -2.4626 -1.6328
  830MOL0     H 9530   2.545   3.091  10.988  0.2131 -0.6423  0.0005
  830MOL0     H 9531   2.453   3.114  10.832  1.1047  1.7272 -0.4861
  830MOL0     H 9532   2.357   3.126  11.122  3.5324 -1.3168 -0.9847
  830MOL0     H 9533   2.269   3.208  10.987  1.6741  0.1371 -0.9851
  830MOL0     H 9534   2.312   2.913  11.045  0.7114 -0.1813 -0.5578
  830MOL0     H 9535   2.270   2.955  10.885 -2.3196  0.3130 -0.9979
  830MOL0     H 9536   2.054   3.064  10.990 -1.8858 -0.3508 -0.4388
  830MOL0     H 9537   2.109   3.027  11.146 -2.7197 -0.7654  0.8027
  830MOL0     H 9538   2.042   2.841  10.907 -3.5490 -0.3618  0.5241
  830MOL0     H 9539   2.138   2.779  11.051  3.0811  2.3729  0.9647
  830MOL0     H 9540   1.936   2.847  11.187  2.1707 -0.2492 -0.0357
  830MOL0     H 9541   1.910   2.722  11.062  0.1289 -0.0380  0.2499
  830MOL0     H 9542   2.901   3.489  10.986 -1.1867  0.4991  0.5722
  830MOL0     H 9543   3.095   3.493  11.144 -0.2154 -2.7225  0.8339
  830MOL0     H 9544   3.199   3.539  11.654 -1.7082  0.7383 -2.4771
  830MOL0     H 9545   3.359   3.616  11.800  1.7240  0.0674  0.0234
  830MOL0     H 9546   5.390   3.752  11.681 -1.2755  1.2089 -0.8655
  830MOL0     H 9547   5.633   3.715  11.632 -0.1870  0.7697  0.9061
  830MOL0     H 9548   5.997   3.687  11.140  2.1607  0.4081 -2.3520
  830MOL0     H 9549   6.207   3.563  11.130 -1.2595  2.1703  0.1904
  830MOL0     H 9550   6.393   3.413  11.081  0.4284  0.7693 -0.6069
  830MOL0     H 9551   6.484   3.303  11.180  0.9313  1.5537 -0.8913
  830MOL0     H 9552   6.384   3.568  11.268 -0.5123  0.3124 -0.7426
  830MOL0     H 9553   6.463   3.454  11.366  1.8797  0.0498  0.5833
  830MOL0     H 9554   6.578   3.666  11.228  2.0563  0.6616  0.1256
  830MOL0     H 9555   6.610   3.540  11.113  4.2956  0.4355 -0.1169
  830MOL0     H 9556   6.804   3.558  11.267  1.0246  1.0712 -0.7603
  830MOL0     H 9557   6.695   3.549  11.404 -5.8309 -0.1679  0.6589
  830MOL0     H 9558   6.777   3.144  11.289 -0.9396  0.3203  0.9110
  830MOL0     H 9559   6.067   3.270  11.404 -0.5478 -1.7624 -1.3234
  830MOL0     H 9560   5.864   3.404  11.434  0.3542  0.5739  0.3424
  831MOL0     O 9561   6.090   8.951   3.874  0.3509 -0.2612  0.1242
  831MOL0     C 9562   6.114   9.035   3.789 -0.2837  0.2487 -0.2010
  831MOL0     O 9563   6.018   9.088   3.709 -0.3434  0.7917 -0.3172
  831MOL0     C 9564   5.896   9.009   3.713 -0.3343 -0.5814 -0.4254
  831MOL0     C 9565   5.864   8.902   3.624  0.3310 -0.4735 -0.1131
  831MOL0     C 9566   5.740   8.832   3.634  0.8818 -1.5217  0.1441
  831MOL0     C 9567   5.636   8.888   3.716  0.2745 -0.7243  0.7187
  831MOL0     O 9568   5.503   8.848   3.716 -0.5583  0.9502  0.1209
  831MOL0     C 9569   5.480   8.712   3.663 -0.9335  0.6730 -0.0326
  831MOL0     C 9570   5.344   8.662   3.705  0.3503  0.6178  0.1050
  831MOL0     C 9571   5.294   8.546   3.623 -0.1398 -0.8230 -0.2716
  831MOL0     C 9572   5.222   8.574   3.490 -1.2779  0.0552  0.7183
  831MOL0     C 9573   5.094   8.487   3.470  0.8387 -0.1294 -0.1728
  831MOL0     C 9574   5.115   8.327   3.481  0.0728  0.6040 -0.8260
  831MOL0     C 9575   4.976   8.267   3.476  0.1912  0.1985 -0.5604
  831MOL0     C 9576   4.984   8.121   3.503 -0.0738 -0.1337 -0.7470
  831MOL0     N 9577   4.850   8.061   3.502  0.2857 -0.0346  0.4171
  831MOL0     C 9578   4.787   7.991   3.606 -0.4620  0.0321  0.1027
  831MOL0     C 9579   4.679   7.937   3.556  0.6775 -0.0878  0.2815
  831MOL0     C 9580   4.574   7.845   3.624  0.1694 -0.2382 -0.0583
  831MOL0     C 9581   4.424   7.894   3.638  0.0342  0.5565  0.2993
  831MOL0     C 9582   4.343   7.789   3.706 -0.1306 -0.1969  0.3029
  831MOL0     C 9583   4.193   7.825   3.683 -0.0938 -0.3907  0.6137
  831MOL0     O 9584   4.150   7.943   3.749 -0.2421 -1.2087  0.0417
  831MOL0     C 9585   4.023   7.991   3.732 -1.3236  0.5816  0.7912
  831MOL0     C 9586   3.997   8.122   3.774 -0.1761 -0.1319  0.2952
  831MOL0     C 9587   3.862   8.169   3.777 -0.1249 -0.6169 -0.2348
  831MOL0     C 9588   3.759   8.098   3.705 -0.5391 -0.0235  0.0367
  831MOL0     C 9589   3.621   8.158   3.694 -0.1407  0.0911 -0.7333
  831MOL0     O 9590   3.538   8.108   3.597  0.6664 -0.7628 -0.6122
  831MOL0     C 9591   3.409   8.162   3.593 -0.5462  0.2169 -0.3346
  831MOL0     C 9592   3.374   8.293   3.559 -0.9236  0.2443 -0.1614
  831MOL0     C 9593   3.244   8.336   3.573 -0.4822 -0.6220  0.5878
  831MOL0     C 9594   3.146   8.242   3.605 -0.3116 -0.4644  0.1132
  831MOL0     O 9595   3.013   8.273   3.600  0.9246  0.9481 -0.1828
  831MOL0     C 9596   2.962   8.345   3.708  0.6180 -1.2529 -0.2703
  831MOL0     C 9597   2.815   8.407   3.681  0.9613 -0.2771 -1.1626
  831MOL0     C 9598   2.724   8.295   3.642 -1.0209 -0.6822  0.3884
  831MOL0     C 9599   2.580   8.313   3.640 -0.6900  0.2973  0.7381
  831MOL0     C 9600   2.503   8.193   3.601 -0.4387  0.1440  0.7323
  831MOL0     C 9601   2.350   8.193   3.642  0.8374 -0.0140 -0.4329
  831MOL0     C 9602   2.318   8.124   3.776 -0.5037 -1.0739 -0.1034
  831MOL0     C 9603   2.174   8.154   3.813 -0.7492  0.1226  0.5145
  831MOL0    Cl 9604   2.051   8.111   3.690  0.2390  0.4006 -0.2747
  831MOL0     C 9605   3.174   8.109   3.620  0.5755  0.8350 -0.9687
  831MOL0     C 9606   3.304   8.070   3.619 -0.7246  0.3852 -0.6747
  831MOL0     O 9607   3.595   8.256   3.764 -0.2914 -0.0600 -0.6603
  831MOL0     C 9608   3.798   7.977   3.644  0.7611  1.1320 -0.9682
  831MOL0     C 9609   3.924   7.914   3.671 -0.4278 -0.8582  0.4063
  831MOL0     N 9610   4.684   7.971   3.420 -0.3907 -0.3028  0.9312
  831MOL0     N 9611   4.774   8.060   3.395  0.4116 -0.4081 -0.2156
  831MOL0     C 9612   5.675   8.989   3.814 -0.5801  0.1919  0.7051
  831MOL0     C 9613   5.803   9.048   3.805 -0.2193 -0.1133 -0.0043
  831MOL0     C 9614   6.253   9.071   3.746  1.0717 -0.7896 -0.7468
  831MOL0     C 9615   6.360   9.041   3.832  0.6194 -0.3154  0.0109
  831MOL0     C 9616   6.490   9.066   3.788  0.4141  0.6649  0.0359
  831MOL0     C 9617   6.514   9.132   3.670  0.1580  1.0971  0.0647
  831MOL0     O 9618   6.638   9.156   3.625 -0.6694 -0.0945  0.0404
  831MOL0     C 9619   6.703   9.057   3.537  0.4033 -0.1691  0.4087
  831MOL0     C 9620   6.805   8.973   3.625 -0.1223 -0.0236 -0.3365
  831MOL0     C 9621   6.923   9.062   3.670  0.4975 -0.8834 -0.6148
  831MOL0     C 9622   7.010   8.998   3.777  0.2320 -0.0386 -0.6989
  831MOL0     C 9623   7.101   9.104   3.809 -0.2605 -1.2234  0.0038
  831MOL0     C 9624   7.168   9.202   3.823  0.0096 -0.5090 -0.0757
  831MOL0     C 9625   6.409   9.173   3.580  0.0599  0.6987 -0.0943
  831MOL0     C 9626   6.283   9.130   3.616  0.6582  0.6525  0.4406
  831MOL0     H 9627   5.940   8.869   3.554  0.4293 -0.0960 -0.1868
  831MOL0     H 9628   5.730   8.750   3.564 -1.6467 -0.6812 -0.5899
  831MOL0     H 9629   5.549   8.635   3.699 -1.9102 -0.2971 -0.1534
  831MOL0     H 9630   5.486   8.707   3.554 -0.3824  0.5736 -0.0014
  831MOL0     H 9631   5.258   8.728   3.707 -0.5920 -0.5638 -0.0921
  831MOL0     H 9632   5.365   8.645   3.811  0.6967  1.4743  0.1827
  831MOL0     H 9633   5.215   8.505   3.686 -1.1506  0.7934 -0.4317
  831MOL0     H 9634   5.365   8.464   3.608 -0.2715 -0.7876 -1.1868
  831MOL0     H 9635   5.191   8.679   3.494  0.3443  0.5786  0.4374
  831MOL0     H 9636   5.285   8.548   3.404  2.1586 -0.5120  3.2169
  831MOL0     H 9637   5.052   8.508   3.371  1.4244 -1.2715 -0.6856
  831MOL0     H 9638   5.029   8.519   3.551  3.5719  3.1200  0.9678
  831MOL0     H 9639   5.162   8.309   3.579 -0.1151 -1.9908 -1.1437
  831MOL0     H 9640   5.181   8.300   3.398  1.3034  0.3509  0.1978
  831MOL0     H 9641   4.912   8.305   3.556  1.0514 -0.0803  0.2770
  831MOL0     H 9642   4.924   8.293   3.383  1.5593 -0.4128 -1.5271
  831MOL0     H 9643   5.033   8.100   3.598 -2.1485  2.5978  1.0712
  831MOL0     H 9644   5.039   8.081   3.417  1.3945  0.5049 -0.1450
  831MOL0     H 9645   4.826   7.962   3.703  1.4994 -1.2746 -0.9943
  831MOL0     H 9646   4.615   7.818   3.722  0.3773 -0.1489 -0.1187
  831MOL0     H 9647   4.573   7.751   3.569 -0.5182 -0.9254  1.1068
  831MOL0     H 9648   4.399   7.900   3.532 -0.0779 -1.0326  0.2058
  831MOL0     H 9649   4.413   7.988   3.693 -0.1095 -0.7343  2.6237
  831MOL0     H 9650   4.366   7.683   3.691 -0.7531 -0.6619  2.3273
  831MOL0     H 9651   4.367   7.808   3.811  5.1728  0.5812 -0.7499
  831MOL0     H 9652   4.139   7.737   3.718  1.1334 -1.4875 -0.1547
  831MOL0     H 9653   4.178   7.832   3.575 -0.6509 -1.3984  0.6121
  831MOL0     H 9654   4.066   8.187   3.827 -2.3857  1.0537  1.8450
  831MOL0     H 9655   3.834   8.266   3.816 -1.8662  0.0899 -2.9893
  831MOL0     H 9656   3.455   8.365   3.549 -2.9857  2.9311  1.2004
  831MOL0     H 9657   3.206   8.437   3.561  0.1381 -0.2255  1.8546
  831MOL0     H 9658   3.030   8.424   3.742 -0.1023 -1.2203  1.1603
  831MOL0     H 9659   2.968   8.274   3.791  1.2597 -4.0327 -2.5222
  831MOL0     H 9660   2.818   8.491   3.611  1.6156  3.3261  2.7196
  831MOL0     H 9661   2.777   8.453   3.773 -0.0528  0.2341 -1.8161
  831MOL0     H 9662   2.740   8.200   3.693 -2.0543  0.3986  2.8743
  831MOL0     H 9663   2.766   8.268   3.545 -1.2081  1.2019 -0.2634
  831MOL0     H 9664   2.546   8.357   3.734 -2.3552 -1.0461  0.8055
  831MOL0     H 9665   2.544   8.380   3.561 -1.0867 -0.7072  0.0512
  831MOL0     H 9666   2.554   8.109   3.648 -0.7885  1.0217  2.7711
  831MOL0     H 9667   2.511   8.179   3.493  4.0656  0.8891  0.7918
  831MOL0     H 9668   2.292   8.143   3.564 -1.7584  3.0648 -0.7144
  831MOL0     H 9669   2.323   8.299   3.645  1.0713  0.2539 -3.9770
  831MOL0     H 9670   2.328   8.016   3.764 -1.9345 -1.2552  0.1196
  831MOL0     H 9671   2.395   8.152   3.850  1.6823 -3.6594 -1.2343
  831MOL0     H 9672   2.174   8.263   3.821  1.1848  0.2268 -0.4073
  831MOL0     H 9673   2.152   8.105   3.908  1.2627 -0.9395  0.4724
  831MOL0     H 9674   3.096   8.033   3.611  1.0879  0.4535 -2.4212
  831MOL0     H 9675   3.327   7.965   3.637  0.4140  0.8340  0.6178
  831MOL0     H 9676   3.728   7.921   3.582  1.3179 -0.3332 -0.3303
  831MOL0     H 9677   3.940   7.810   3.646  3.6807 -0.3110  0.0465
  831MOL0     H 9678   5.606   9.038   3.882  0.0095 -0.7172  1.9883
  831MOL0     H 9679   5.828   9.122   3.880  0.7118  1.7456 -2.0088
  831MOL0     H 9680   6.347   8.990   3.927 -0.8039 -1.3892 -0.7318
  831MOL0     H 9681   6.569   9.030   3.854  0.0940  0.6915  0.4411
  831MOL0     H 9682   6.761   9.106   3.458 -2.8100  0.8237 -1.5064
  831MOL0     H 9683   6.629   8.996   3.485 -0.9059  0.2255  1.7593
  831MOL0     H 9684   6.756   8.935   3.715  0.1868  0.5377  0.0771
  831MOL0     H 9685   6.846   8.892   3.565 -2.1820 -1.6595  0.3891
  831MOL0     H 9686   6.877   9.154   3.706 -0.3576 -1.0070 -1.3542
  831MOL0     H 9687   6.982   9.080   3.580  1.7621 -0.2457  0.3037
  831MOL0     H 9688   6.960   8.982   3.873  0.9074  1.3273 -0.0865
  831MOL0     H 9689   7.060   8.904   3.754  0.4456  0.6334 -3.2438
  831MOL0     H 9690   7.204   9.302   3.841 -1.6723 -0.3219  2.8671
  831MOL0     H 9691   6.428   9.217   3.482 -1.3026 -1.2478 -1.2906
  831MOL0     H 9692   6.196   9.139   3.551  0.8408 -1.6018 -0.1901
  832MOL0     O 9693   4.066   9.406   2.855  0.4304  0.7508 -0.5004
  832MOL0     C 9694   4.065   9.374   2.975  0.9681  0.8635  0.1035
  832MOL0     O 9695   3.971   9.407   3.066 -0.5818  0.0664 -0.5674
  832MOL0     C 9696   3.852   9.470   3.040  0.3444 -0.9210 -0.3944
  832MOL0     C 9697   3.750   9.431   3.134  0.3415 -0.5485 -0.8589
  832MOL0     C 9698   3.616   9.477   3.123  0.2244 -0.4378  0.6558
  832MOL0     C 9699   3.580   9.556   3.012 -0.4704  0.1530  0.1953
  832MOL0     O 9700   3.450   9.594   2.991 -0.8871 -0.1359  0.6543
  832MOL0     C 9701   3.355   9.616   3.095 -0.9917  0.7572  0.1950
  832MOL0     C 9702   3.231   9.688   3.031 -0.1734 -0.6131  0.5898
  832MOL0     C 9703   3.109   9.685   3.125 -0.1961  0.2047 -0.4567
  832MOL0     C 9704   2.996   9.783   3.086 -0.1959 -0.1936  0.6088
  832MOL0     C 9705   2.858   9.709   3.052 -0.5895 -0.4069 -0.0022
  832MOL0     C 9706   2.847   9.685   2.899  0.2316  0.3877  0.2911
  832MOL0     C 9707   2.723   9.606   2.864  0.4013 -0.1527  0.0689
  832MOL0     C 9708   2.714   9.580   2.717 -0.6995  0.1531  0.3653
  832MOL0     N 9709   2.683   9.699   2.637  0.2518 -0.1260  0.0338
  832MOL0     C 9710   2.557   9.760   2.634 -0.2288 -0.0192  0.2359
  832MOL0     C 9711   2.572   9.869   2.552 -1.0869  1.0101 -0.3817
  832MOL0     C 9712   2.457   9.959   2.527 -1.3081  0.7088  0.2345
  832MOL0     C 9713   2.408   9.933   2.384  0.5386 -0.3991  1.2018
  832MOL0     C 9714   2.308  10.046   2.339  0.6551 -0.2662  0.5634
  832MOL0     C 9715   2.165  10.008   2.388  0.0311  1.0819 -0.0264
  832MOL0     O 9716   2.099   9.915   2.299 -0.9570 -0.0620  0.0093
  832MOL0     C 9717   1.979   9.871   2.340  0.3622 -0.2803 -0.2499
  832MOL0     C 9718   1.919   9.790   2.249 -0.0018  0.0650 -0.2224
  832MOL0     C 9719   1.805   9.721   2.285 -0.0499 -0.0231 -0.5900
  832MOL0     C 9720   1.748   9.736   2.413  0.1129  0.8962 -0.6408
  832MOL0     C 9721   1.634   9.653   2.459 -1.0726  0.7358 -0.7285
  832MOL0     O 9722   1.575   9.577   2.364  0.1043  0.2577 -0.2357
  832MOL0     C 9723   1.476   9.493   2.397  0.3585  0.5325 -0.0115
  832MOL0     C 9724   1.526   9.370   2.451 -0.1523 -0.0636  0.2975
  832MOL0     C 9725   1.441   9.271   2.496  0.9345  0.3939  0.6048
  832MOL0     C 9726   1.302   9.296   2.496 -0.5705 -0.2228 -0.3156
  832MOL0     O 9727   1.203   9.207   2.539 -0.0258 -0.1250 -0.0969
  832MOL0     C 9728   1.241   9.131   2.657  0.3016 -0.9493 -0.0025
  832MOL0     C 9729   1.113   9.088   2.732  0.6819 -0.0401 -0.2457
  832MOL0     C 9730   1.003   9.081   2.631 -0.7328  0.0507  0.5115
  832MOL0     C 9731   0.891   8.982   2.680 -0.4970  0.9094 -0.4175
  832MOL0     C 9732   0.818   8.949   2.554  0.3471  0.1767  0.8868
  832MOL0     C 9733   0.687   8.886   2.584  0.6453 -1.1412  0.0366
  832MOL0     C 9734   0.592   8.896   2.459 -0.2950 -0.4401 -1.1024
  832MOL0     C 9735   0.465   8.818   2.502  0.1256  0.5580  0.0566
  832MOL0    Cl 9736   0.350   8.867   2.380  0.5331 -0.0789  0.0803
  832MOL0     C 9737   1.252   9.418   2.447 -0.0963  0.2549 -0.1534
  832MOL0     C 9738   1.337   9.513   2.385 -0.8030  1.6749  0.5105
  832MOL0     O 9739   1.595   9.665   2.581  0.0882 -0.2820 -0.7592
  832MOL0     C 9740   1.810   9.816   2.497  0.6506 -0.3076 -0.0795
  832MOL0     C 9741   1.920   9.893   2.467 -0.2681 -0.4501  0.1813
  832MOL0     N 9742   2.706   9.885   2.517  0.0009  0.5119 -0.0616
  832MOL0     N 9743   2.768   9.781   2.570  0.3501 -0.4795  1.6048
  832MOL0     C 9744   3.683   9.595   2.921 -0.7004  0.4913  0.0510
  832MOL0     C 9745   3.814   9.556   2.939  0.3949 -0.0855 -0.3787
  832MOL0     C 9746   4.163   9.273   3.018 -0.3664 -0.2131  0.0471
  832MOL0     C 9747   4.265   9.239   2.926 -0.1093 -0.0082 -0.5161
  832MOL0     C 9748   4.360   9.131   2.949  0.4560 -0.0938 -0.4115
  832MOL0     C 9749   4.346   9.056   3.070  0.1472  0.9833  0.1923
  832MOL0     O 9750   4.435   8.954   3.103  0.5399  0.6359  0.3780
  832MOL0     C 9751   4.504   8.968   3.228  0.6541 -0.1272  0.1649
  832MOL0     C 9752   4.649   8.925   3.221  0.5270 -0.4311  0.2198
  832MOL0     C 9753   4.688   8.886   3.364 -0.5656 -0.0157 -0.3321
  832MOL0     C 9754   4.698   9.006   3.466  1.0068 -0.6827  0.1701
  832MOL0     C 9755   4.558   9.036   3.522  0.2073 -0.0104  0.1699
  832MOL0     C 9756   4.447   9.067   3.559  0.9168 -0.5774 -0.7042
  832MOL0     C 9757   4.254   9.098   3.164 -0.5125  0.7921  0.0392
  832MOL0     C 9758   4.166   9.204   3.136  0.1213  0.1618  0.5700
  832MOL0     H 9759   3.778   9.366   3.216  1.3017 -0.1069 -0.8279
  832MOL0     H 9760   3.550   9.450   3.206  1.0000  2.0637  2.2012
  832MOL0     H 9761   3.392   9.680   3.175 -0.4239  1.4496 -0.6128
  832MOL0     H 9762   3.332   9.523   3.148  0.4331  1.1338  1.5587
  832MOL0     H 9763   3.212   9.652   2.929 -0.2265  0.2777  0.2800
  832MOL0     H 9764   3.258   9.793   3.023 -0.2931 -0.3745  2.8078
  832MOL0     H 9765   3.135   9.710   3.228 -1.8660  0.6078 -0.1107
  832MOL0     H 9766   3.068   9.584   3.127 -1.0327  0.5232  2.3096
  832MOL0     H 9767   2.973   9.839   3.176 -2.2199 -2.0030  1.3051
  832MOL0     H 9768   3.024   9.846   3.001  0.3026 -2.6745 -1.2098
  832MOL0     H 9769   2.776   9.772   3.086 -0.6863  0.7650 -2.2023
  832MOL0     H 9770   2.868   9.614   3.105  1.6921  0.9055  2.1387
  832MOL0     H 9771   2.936   9.625   2.877 -2.8793 -5.4814  1.4693
  832MOL0     H 9772   2.844   9.782   2.849 -1.4418  0.0602 -0.3131
  832MOL0     H 9773   2.726   9.506   2.908  2.6497 -0.2849 -0.2569
  832MOL0     H 9774   2.646   9.675   2.901  0.3336  0.0771 -0.4841
  832MOL0     H 9775   2.635   9.513   2.684  1.3524 -1.1429 -2.2488
  832MOL0     H 9776   2.809   9.534   2.690  0.0993  1.2112  1.2611
  832MOL0     H 9777   2.472   9.742   2.698 -0.2022  0.0186  0.2821
  832MOL0     H 9778   2.500  10.060   2.529 -3.4792  1.6715  1.3056
  832MOL0     H 9779   2.386   9.953   2.610  1.0970 -0.7921  2.3477
  832MOL0     H 9780   2.375   9.830   2.366  1.4358 -0.1595 -3.0454
  832MOL0     H 9781   2.484   9.942   2.305 -1.4505  0.0690 -0.7775
  832MOL0     H 9782   2.349  10.134   2.389  0.2050 -1.1825  2.6288
  832MOL0     H 9783   2.302  10.053   2.230  0.4544 -3.1392  0.3031
  832MOL0     H 9784   2.099  10.094   2.400 -0.8689  0.2158  1.6165
  832MOL0     H 9785   2.180   9.956   2.483  1.3142  1.8403  0.2070
  832MOL0     H 9786   1.948   9.795   2.145  0.0739  3.8203 -0.1507
  832MOL0     H 9787   1.770   9.657   2.205 -3.1189  2.1301 -1.1209
  832MOL0     H 9788   1.631   9.344   2.462  0.6581  0.5573 -4.0686
  832MOL0     H 9789   1.485   9.179   2.535  0.8461 -0.2681 -0.8239
  832MOL0     H 9790   1.306   9.185   2.726  1.8630 -1.1115 -1.2862
  832MOL0     H 9791   1.299   9.046   2.621  2.9836  2.1234 -3.8154
  832MOL0     H 9792   1.087   9.154   2.815  1.1189 -1.1647  0.8107
  832MOL0     H 9793   1.121   8.990   2.780 -1.6686  0.6058  1.6812
  832MOL0     H 9794   1.047   9.036   2.541  1.8219  1.7070  0.8287
  832MOL0     H 9795   0.966   9.181   2.607  0.3076  0.9142  2.2745
  832MOL0     H 9796   0.927   8.896   2.737  0.5581  0.1095 -2.2069
  832MOL0     H 9797   0.830   9.043   2.747 -0.1490  3.1260 -2.0080
  832MOL0     H 9798   0.878   8.879   2.495  0.3955 -0.7519  2.0074
  832MOL0     H 9799   0.795   9.042   2.501 -1.4184  0.7480  2.5302
  832MOL0     H 9800   0.643   8.939   2.669 -1.4482  0.1518 -1.7468
  832MOL0     H 9801   0.712   8.784   2.616 -1.7503 -2.0153 -0.6860
  832MOL0     H 9802   0.552   8.998   2.456 -1.5838 -0.8391  0.8284
  832MOL0     H 9803   0.628   8.871   2.358  1.9306 -0.6197 -0.3139
  832MOL0     H 9804   0.430   8.849   2.601 -2.1420 -0.5170 -0.3448
  832MOL0     H 9805   0.481   8.711   2.517  0.2428  0.7188  1.1779
  832MOL0     H 9806   1.148   9.436   2.472 -0.8247 -3.7871  0.2870
  832MOL0     H 9807   1.293   9.594   2.327  2.1489  2.0706 -1.3809
  832MOL0     H 9808   1.769   9.837   2.595  0.7117 -0.3260 -0.0504
  832MOL0     H 9809   1.960   9.957   2.545 -0.8004  4.1322 -2.9204
  832MOL0     H 9810   3.656   9.656   2.836  0.5643  0.1390 -0.6190
  832MOL0     H 9811   3.886   9.596   2.869 -0.9304 -0.7192 -2.1861
  832MOL0     H 9812   4.263   9.306   2.841  0.3600  0.7649  0.0656
  832MOL0     H 9813   4.439   9.113   2.876  1.2497 -0.8840  0.6194
  832MOL0     H 9814   4.445   8.903   3.294  1.1743 -2.3819 -1.4656
  832MOL0     H 9815   4.508   9.069   3.270  0.6010  0.5833 -1.4554
  832MOL0     H 9816   4.664   8.841   3.153  2.0646  0.3764 -0.4746
  832MOL0     H 9817   4.699   9.017   3.190 -0.7106  0.1462 -0.1133
  832MOL0     H 9818   4.789   8.844   3.371  0.3873  1.8252 -1.9630
  832MOL0     H 9819   4.616   8.820   3.412  1.9132 -1.1773  2.1127
  832MOL0     H 9820   4.760   8.977   3.552  0.2023  2.8193  2.1398
  832MOL0     H 9821   4.735   9.100   3.424 -0.4283 -0.6648 -1.1128
  832MOL0     H 9822   4.347   9.090   3.590  0.7410 -4.3678  2.2372
  832MOL0     H 9823   4.256   9.057   3.265  1.6170  1.5542  0.3584
  832MOL0     H 9824   4.107   9.230   3.224  1.1470  1.4176  0.9083
  833MOL0     O 9825   8.390   3.101  10.618 -0.4548 -0.2232  0.0906
  833MOL0     C 9826   8.354   3.214  10.643 -0.1941  1.0035 -1.2111
  833MOL0     O 9827   8.231   3.256  10.643 -0.4193 -0.0245 -0.4552
  833MOL0     C 9828   8.126   3.169  10.622 -0.0753 -0.2339 -0.6985
  833MOL0     C 9829   8.120   3.041  10.672 -0.0981 -0.2841 -0.0758
  833MOL0     C 9830   8.004   2.966  10.671  0.3504 -0.1999  0.1274
  833MOL0     C 9831   7.884   3.013  10.618 -0.0758  1.5841  0.2553
  833MOL0     O 9832   7.776   2.930  10.637  0.7861  0.3531 -0.0690
  833MOL0     C 9833   7.688   2.940  10.524 -0.5231 -0.0636  0.9610
  833MOL0     C 9834   7.589   2.833  10.514  0.3955  0.7837  0.5697
  833MOL0     C 9835   7.465   2.871  10.592 -1.1910  0.1475  0.2238
  833MOL0     C 9836   7.335   2.786  10.577 -0.4801  0.9213  0.0307
  833MOL0     C 9837   7.210   2.856  10.615  0.7720  0.2682 -0.8599
  833MOL0     C 9838   7.199   2.882  10.767  0.8878  0.6758 -0.2424
  833MOL0     C 9839   7.097   2.777  10.826  0.6561  0.1601 -0.8775
  833MOL0     C 9840   6.952   2.836  10.830  0.5287 -0.0117 -0.8709
  833MOL0     N 9841   6.852   2.736  10.888 -1.1034 -0.6598 -1.0892
  833MOL0     C 9842   6.784   2.639  10.822 -0.3506 -0.0723 -0.0496
  833MOL0     C 9843   6.686   2.601  10.907  1.4585  0.6812  0.4719
  833MOL0     C 9844   6.576   2.496  10.877  0.3036  0.5848  0.3748
  833MOL0     C 9845   6.436   2.553  10.869 -0.1685 -0.7803  0.1837
  833MOL0     C 9846   6.323   2.455  10.855  0.6625 -0.2088 -0.0099
  833MOL0     C 9847   6.191   2.519  10.807  0.4117 -0.3492  0.9333
  833MOL0     O 9848   6.126   2.583  10.925 -0.7801 -0.2905 -0.3556
  833MOL0     C 9849   6.021   2.669  10.913  0.5264 -0.5458 -0.4181
  833MOL0     C 9850   5.932   2.658  10.807  0.1809  0.1855  0.7918
  833MOL0     C 9851   5.821   2.746  10.794  0.3318 -0.3589  0.0562
  833MOL0     C 9852   5.802   2.846  10.896  0.0376  0.2153 -0.0186
  833MOL0     C 9853   5.687   2.935  10.878  0.2504 -0.0689  0.7030
  833MOL0     O 9854   5.686   3.044  10.953  0.9059 -0.5561 -0.6606
  833MOL0     C 9855   5.569   3.124  10.958  0.6468  0.9592  0.1632
  833MOL0     C 9856   5.542   3.182  11.087 -0.1695  0.1626 -0.1047
  833MOL0     C 9857   5.427   3.265  11.101  0.1488 -0.0103  0.2850
  833MOL0     C 9858   5.353   3.303  10.997 -0.4590  0.1759 -0.5110
  833MOL0     O 9859   5.255   3.403  11.019 -0.5782 -0.7368 -0.0434
  833MOL0     C 9860   5.144   3.416  10.919 -0.6177  0.4981 -0.0121
  833MOL0     C 9861   5.065   3.514  11.004 -0.6650  0.1341  0.9616
  833MOL0     C 9862   4.945   3.561  10.934 -0.0292 -0.7946 -0.4531
  833MOL0     C 9863   4.849   3.634  11.028  0.2246 -0.8006 -0.1071
  833MOL0     C 9864   4.913   3.760  11.100 -0.0230  0.0446  0.0796
  833MOL0     C 9865   4.951   3.879  11.017 -0.7599  0.2090  0.1456
  833MOL0     C 9866   5.042   3.978  11.094 -0.5507  0.2924  0.1094
  833MOL0     C 9867   4.974   4.062  11.193  0.4338 -0.3799  0.1335
  833MOL0    Cl 9868   4.816   4.151  11.138 -0.1167  0.0594 -0.1603
  833MOL0     C 9869   5.378   3.253  10.869 -0.0212  0.9788  0.6225
  833MOL0     C 9870   5.480   3.159  10.854 -0.4136 -0.5299 -0.0388
  833MOL0     O 9871   5.588   2.882  10.825  0.5838  0.2800  0.5468
  833MOL0     C 9872   5.882   2.836  11.010 -0.6514 -0.3896  1.0143
  833MOL0     C 9873   6.004   2.764  11.008 -0.5193  0.7958 -1.2178
  833MOL0     N 9874   6.706   2.659  11.034 -0.2830 -0.0688  0.2734
  833MOL0     N 9875   6.797   2.743  11.016  0.2761 -1.0471  0.4399
  833MOL0     C 9876   7.888   3.132  10.550  0.2231 -1.0146 -0.2398
  833MOL0     C 9877   8.004   3.211  10.559 -0.4265 -0.1642  0.2657
  833MOL0     C 9878   8.457   3.312  10.691 -0.2260  0.3805 -0.6340
  833MOL0     C 9879   8.597   3.281  10.685 -0.8484 -0.1707  0.4924
  833MOL0     C 9880   8.703   3.363  10.726 -0.0171 -0.3363  0.3681
  833MOL0     C 9881   8.658   3.487  10.775 -0.2984  0.2174  0.8152
  833MOL0     O 9882   8.746   3.590  10.794 -0.2635 -0.4026  0.0429
  833MOL0     C 9883   8.881   3.592  10.761 -0.5131  0.0872  0.6317
  833MOL0     C 9884   8.902   3.634  10.618  0.4966  0.0789 -0.4167
  833MOL0     C 9885   8.893   3.785  10.610  0.3286  0.4318  1.1126
  833MOL0     C 9886   8.739   3.816  10.579 -0.2135  0.5323  0.3881
  833MOL0     C 9887   8.703   3.963  10.566  0.0098 -0.2361  0.0020
  833MOL0     C 9888   8.672   4.081  10.559 -0.2313 -0.2640 -0.4374
  833MOL0     C 9889   8.521   3.524  10.775 -0.6563  0.1909 -0.0276
  833MOL0     C 9890   8.423   3.437  10.737  0.1397 -0.1378 -1.1746
  833MOL0     H 9891   8.210   2.998  10.714  1.6925  0.5550 -2.7664
  833MOL0     H 9892   8.006   2.864  10.708  1.4809  0.1340  1.0409
  833MOL0     H 9893   7.752   2.926  10.436 -0.7497 -1.8770  1.0375
  833MOL0     H 9894   7.635   3.035  10.519 -3.7086 -1.7588 -2.3275
  833MOL0     H 9895   7.626   2.739  10.557 -0.9802  0.7085  1.6437
  833MOL0     H 9896   7.543   2.821  10.416 -5.0625  3.6160  2.3729
  833MOL0     H 9897   7.429   2.967  10.556 -0.4166  0.2484 -0.2917
  833MOL0     H 9898   7.499   2.869  10.696 -0.8368 -3.7818  0.1905
  833MOL0     H 9899   7.315   2.760  10.473 -1.4361 -0.3531  0.5098
  833MOL0     H 9900   7.327   2.684  10.616 -1.1459  0.3548 -1.5178
  833MOL0     H 9901   7.117   2.810  10.582  0.9636  0.2586 -1.3959
  833MOL0     H 9902   7.213   2.955  10.568  1.6577  0.4973 -0.3348
  833MOL0     H 9903   7.167   2.984  10.792  4.9257  2.6510 -2.0798
  833MOL0     H 9904   7.296   2.856  10.811  0.7518 -0.2905 -0.4914
  833MOL0     H 9905   7.084   2.682  10.772 -0.7028 -1.5633  2.1906
  833MOL0     H 9906   7.131   2.763  10.929 -3.2494  0.6302  0.6130
  833MOL0     H 9907   6.926   2.856  10.726  3.5139  3.3592 -1.1655
  833MOL0     H 9908   6.953   2.917  10.903  2.2012 -2.9087  2.6913
  833MOL0     H 9909   6.807   2.615  10.719 -0.2355  2.4843 -0.6875
  833MOL0     H 9910   6.568   2.433  10.966 -1.8720  0.8346  0.4121
  833MOL0     H 9911   6.603   2.433  10.792  3.5483  0.0422  1.6754
  833MOL0     H 9912   6.446   2.624  10.787  0.2802 -0.9594  0.0818
  833MOL0     H 9913   6.413   2.604  10.963 -1.3357 -0.8617 -0.0426
  833MOL0     H 9914   6.360   2.381  10.784  1.4169  1.1513 -1.0885
  833MOL0     H 9915   6.303   2.392  10.942  3.1734  0.6757  1.2828
  833MOL0     H 9916   6.129   2.432  10.782 -1.9938  1.6912 -0.5979
  833MOL0     H 9917   6.196   2.583  10.719 -0.6570 -0.8659  0.4789
  833MOL0     H 9918   5.950   2.575  10.739 -1.6141 -1.5626  2.3328
  833MOL0     H 9919   5.757   2.732  10.708  1.8641 -1.4255 -0.9653
  833MOL0     H 9920   5.609   3.168  11.171  0.0214 -1.9868 -0.5586
  833MOL0     H 9921   5.397   3.307  11.197 -1.2086 -3.4447  1.5290
  833MOL0     H 9922   5.086   3.329  10.886  1.1075 -0.2776 -1.1043
  833MOL0     H 9923   5.174   3.454  10.821 -0.8390  0.1175 -0.2311
  833MOL0     H 9924   5.133   3.595  11.033 -1.6822  2.1921 -1.9933
  833MOL0     H 9925   5.037   3.451  11.089 -1.8673  1.2743  1.4511
  833MOL0     H 9926   4.894   3.468  10.907 -0.0850 -1.0030  0.3400
  833MOL0     H 9927   4.955   3.615  10.839  0.5273  0.1118  0.1000
  833MOL0     H 9928   4.754   3.666  10.985 -0.2293 -0.3562  1.1844
  833MOL0     H 9929   4.813   3.573  11.112 -2.1652  1.8172  0.9473
  833MOL0     H 9930   4.997   3.730  11.163 -0.7580  1.2095  1.6719
  833MOL0     H 9931   4.827   3.792  11.160 -0.2958  2.1919 -1.3513
  833MOL0     H 9932   4.875   3.938  10.966  1.1204  3.1836  0.5200
  833MOL0     H 9933   5.024   3.844  10.943 -0.3019  0.0503  0.6559
  833MOL0     H 9934   5.127   3.931  11.146  2.1525  4.2018 -0.3126
  833MOL0     H 9935   5.083   4.051  11.024  0.3443  1.6784  1.9714
  833MOL0     H 9936   5.046   4.135  11.232  0.4625 -1.0735  1.4445
  833MOL0     H 9937   4.960   4.001  11.283 -1.4720 -0.1986  0.0042
  833MOL0     H 9938   5.324   3.273  10.777  3.1327  1.6647 -1.2179
  833MOL0     H 9939   5.482   3.123  10.752 -2.7269 -2.8934  0.6248
  833MOL0     H 9940   5.857   2.892  11.099  0.9422 -2.4218  2.8544
  833MOL0     H 9941   6.075   2.768  11.091  0.2350 -0.8760 -1.7436
  833MOL0     H 9942   7.801   3.168  10.497 -0.4008 -1.9485  0.1186
  833MOL0     H 9943   8.021   3.302  10.502  3.2042 -1.1261 -0.4431
  833MOL0     H 9944   8.624   3.178  10.664  0.1585  0.0826  0.4969
  833MOL0     H 9945   8.807   3.338  10.712  0.5254 -1.2048  4.7360
  833MOL0     H 9946   8.927   3.493  10.769  0.3084 -0.1299 -4.0762
  833MOL0     H 9947   8.927   3.658  10.835 -0.7050  0.8404  0.0881
  833MOL0     H 9948   8.992   3.589  10.576 -0.3651 -2.3416  0.1581
  833MOL0     H 9949   8.822   3.588  10.559 -0.9674  1.2519  0.5821
  833MOL0     H 9950   8.937   3.812  10.514 -1.3903 -0.8944 -0.1202
  833MOL0     H 9951   8.927   3.836  10.700 -2.9889 -0.0462  2.8207
  833MOL0     H 9952   8.713   3.771  10.483 -0.5939 -2.8788  1.9507
  833MOL0     H 9953   8.679   3.764  10.655  1.5363  0.4189  1.7524
  833MOL0     H 9954   8.639   4.183  10.549  2.6623  1.0387  1.7746
  833MOL0     H 9955   8.501   3.623  10.813 -1.1990  0.0085  0.1830
  833MOL0     H 9956   8.318   3.463  10.728  0.0130 -0.0685  0.2471
  834MOL0     O 9957   7.130   9.545   4.671 -0.5983  0.6093 -0.3168
  834MOL0     C 9958   7.085   9.620   4.752 -0.3926 -0.8039 -0.2236
  834MOL0     O 9959   7.147   9.673   4.861  0.1637 -0.5695  0.4720
  834MOL0     C 9960   7.283   9.684   4.863 -0.8407 -0.0452  0.7113
  834MOL0     C 9961   7.372   9.581   4.816  0.1351  0.3276 -0.1037
  834MOL0     C 9962   7.513   9.612   4.808  0.3929 -0.0657 -0.4328
  834MOL0     C 9963   7.570   9.717   4.879 -0.2144  0.5572  0.1786
  834MOL0     O 9964   7.699   9.754   4.897 -0.4197  0.2121 -0.0921
  834MOL0     C 9965   7.805   9.661   4.867 -0.5412 -0.6599 -0.0594
  834MOL0     C 9966   7.866   9.688   4.734  0.2594 -0.0644 -0.3818
  834MOL0     C 9967   7.938   9.822   4.741  0.4357  0.3359 -0.5762
  834MOL0     C 9968   8.018   9.844   4.606  0.0465 -0.5913  0.8838
  834MOL0     C 9969   8.162   9.777   4.635  0.6084 -0.2782 -0.8840
  834MOL0     C 9970   8.209   9.728   4.505 -0.5715  0.1237 -0.1176
  834MOL0     C 9971   8.354   9.675   4.535 -0.2964 -0.1711  0.1277
  834MOL0     C 9972   8.417   9.619   4.413 -0.0877 -0.5418  0.6531
  834MOL0     N 9973   8.464   9.721   4.313  0.5670  0.3500 -0.4251
  834MOL0     C 9974   8.593   9.759   4.303  0.4197 -0.1591  0.0037
  834MOL0     C 9975   8.596   9.839   4.196  0.4592  0.4115  0.2039
  834MOL0     C 9976   8.707   9.912   4.128  0.2488  0.8233 -0.2499
  834MOL0     C 9977   8.807   9.952   4.233  0.5079 -0.7225  0.1936
  834MOL0     C 9978   8.912  10.042   4.192 -0.0924 -0.7731  0.4840
  834MOL0     C 9979   9.036  10.062   4.290  1.3928  0.8023  0.0941
  834MOL0     O 9980   9.129  10.152   4.245  0.5246  0.0602  0.4456
  834MOL0     C 9981   9.255  10.148   4.286 -0.2759 -0.4873 -0.0136
  834MOL0     C 9982   9.358  10.168   4.192  0.3848  0.4079 -0.7013
  834MOL0     C 9983   9.491  10.187   4.227 -0.6855  0.5226 -0.0047
  834MOL0     C 9984   9.530  10.174   4.365  0.4907 -0.0837  0.5364
  834MOL0     C 9985   9.670  10.204   4.411 -1.0299 -0.1341  0.2760
  834MOL0     O 9986   9.748  10.284   4.336 -0.1772  0.2757 -0.1019
  834MOL0     C 9987   9.871  10.337   4.373 -0.5614  0.8072 -0.1500
  834MOL0     C 9988   9.873  10.426   4.487  0.9038  0.5221 -0.4106
  834MOL0     C 9989   9.998  10.469   4.540  0.5406  0.0221  0.7151
  834MOL0     C 9990  10.113  10.449   4.467 -0.3345 -0.1497  0.8990
  834MOL0     O 9991  10.226  10.498   4.514  0.3370 -0.2256 -0.7092
  834MOL0     C 9992  10.253  10.625   4.455  0.0221  0.5217  0.1456
  834MOL0     C 9993  10.317  10.714   4.558  0.6865 -0.2949 -0.1063
  834MOL0     C 9994  10.463  10.712   4.521 -0.8374 -0.4089 -0.2979
  834MOL0     C 9995  10.551  10.768   4.635 -0.4527 -0.2280  0.4010
  834MOL0     C 9996  10.698  10.801   4.583  0.4806  0.5256 -0.7536
  834MOL0     C 9997  10.784  10.681   4.545 -0.4954 -0.4493 -0.4665
  834MOL0     C 9998  10.923  10.726   4.489 -1.0687 -0.3242  0.4530
  834MOL0     C 9999  10.991  10.602   4.429  0.2276 -0.0340  0.2251
  834MOL0    Cl10000  11.143  10.637   4.330 -0.2977 -0.2855 -0.8556
  834MOL0     C10001  10.110  10.363   4.353  0.1814 -0.3717 -0.7119
  834MOL0     C10002   9.990  10.304   4.307 -0.0650  1.3373  0.1632
  834MOL0     O10003   9.712  10.157   4.516  0.1068 -1.0617  0.3056
  834MOL0     C10004   9.427  10.137   4.458  0.7093  0.4002  0.2637
  834MOL0     C10005   9.300  10.123   4.419  0.3890 -0.2928  0.2057
  834MOL0     N10006   8.467   9.847   4.145 -0.2933  1.3544 -0.7084
  834MOL0     N10007   8.385   9.774   4.219  0.3194 -0.9524 -0.6597
  834MOL0     C10008   7.477   9.808   4.938  0.1230 -0.4747  0.1825
  834MOL0     C10009   7.340   9.792   4.917  0.7787  1.0208 -1.0647
  834MOL0     C10010   6.943   9.656   4.742  0.8916 -0.1583 -0.0936
  834MOL0     C10011   6.866   9.601   4.641  1.0183 -0.3870 -0.1587
  834MOL0     C10012   6.730   9.628   4.623  1.2177 -0.5350  0.0755
  834MOL0     C10013   6.670   9.702   4.724 -0.1163 -0.8145  0.0958
  834MOL0     O10014   6.545   9.732   4.696  0.1451 -0.5063  0.0155
  834MOL0     C10015   6.493   9.852   4.751  0.5138 -0.0820 -0.2665
  834MOL0     C10016   6.345   9.852   4.705 -1.7106  0.6337 -0.5023
  834MOL0     C10017   6.298   9.982   4.716  0.0543  0.1907 -0.0588
  834MOL0     C10018   6.144  10.000   4.686  0.9636  0.0015 -0.2852
  834MOL0     C10019   6.043   9.932   4.764 -0.2106 -0.9605  0.0378
  834MOL0     C10020   5.961   9.878   4.835 -1.0402  0.2096  0.2951
  834MOL0     C10021   6.741   9.757   4.832 -0.0111  0.3902  0.1204
  834MOL0     C10022   6.884   9.746   4.832  0.4652  0.2723  0.1947
  834MOL0     H10023   7.334   9.487   4.776  0.7538 -0.6387  1.4927
  834MOL0     H10024   7.581   9.537   4.768  0.9158 -1.6598  3.0528
  834MOL0     H10025   7.769   9.559   4.884  0.2004 -0.9449 -0.1362
  834MOL0     H10026   7.889   9.663   4.938  0.3402  0.4303 -1.0795
  834MOL0     H10027   7.786   9.690   4.659  2.3189  3.1905 -2.7688
  834MOL0     H10028   7.935   9.608   4.707 -0.5653 -0.3007 -1.9491
  834MOL0     H10029   8.006   9.837   4.826  0.8504  2.0775 -1.1746
  834MOL0     H10030   7.861   9.898   4.761 -1.0551 -1.9209  3.5193
  834MOL0     H10031   7.977   9.796   4.517  2.7089 -0.5034 -0.5052
  834MOL0     H10032   8.022   9.950   4.577  1.7917 -1.2865 -1.8513
  834MOL0     H10033   8.148   9.697   4.708  0.5098 -0.0403 -0.6421
  834MOL0     H10034   8.230   9.853   4.673  0.7150 -0.0882 -1.4336
  834MOL0     H10035   8.218   9.808   4.431  0.1075 -0.4871 -0.7200
  834MOL0     H10036   8.150   9.653   4.452 -0.4220  2.7995 -4.5477
  834MOL0     H10037   8.410   9.761   4.572  0.5816  0.4369 -2.3773
  834MOL0     H10038   8.349   9.591   4.605 -0.7027 -1.0044 -0.8642
  834MOL0     H10039   8.357   9.542   4.365  2.2731 -1.7594 -0.4947
  834MOL0     H10040   8.510   9.572   4.446 -0.9633 -0.8072  2.9540
  834MOL0     H10041   8.671   9.723   4.369  1.4301 -1.7766 -1.9650
  834MOL0     H10042   8.670   9.998   4.071 -2.8309 -1.5398 -2.1311
  834MOL0     H10043   8.762   9.842   4.064  1.1029  1.1658  0.1032
  834MOL0     H10044   8.861   9.864   4.269  0.7034 -0.0869  1.4741
  834MOL0     H10045   8.754   9.990   4.320  0.5456 -1.4139  0.5308
  834MOL0     H10046   8.953   9.994   4.103 -4.2054  1.6847 -3.1688
  834MOL0     H10047   8.867  10.140   4.170  1.8002  0.3557  1.3209
  834MOL0     H10048   9.074   9.962   4.313 -2.8790 -1.7053 -2.4687
  834MOL0     H10049   8.982  10.103   4.375 -0.7706 -2.2537  0.3490
  834MOL0     H10050   9.326  10.193   4.092  0.1288  0.5033 -0.5991
  834MOL0     H10051   9.566  10.206   4.150 -1.1054  0.1017 -0.5281
  834MOL0     H10052   9.779  10.453   4.532  0.6407 -2.2326  0.9338
  834MOL0     H10053   9.999  10.533   4.628 -1.0697  2.2735 -0.7688
  834MOL0     H10054  10.168  10.676   4.409  0.6562  2.1182  0.6820
  834MOL0     H10055  10.315  10.621   4.365  0.4542 -1.9250  0.4974
  834MOL0     H10056  10.295  10.665   4.653  0.5846  0.6774  0.3767
  834MOL0     H10057  10.284  10.818   4.547  3.4141  0.8253  1.2971
  834MOL0     H10058  10.481  10.781   4.438 -1.6550  0.3116  0.1072
  834MOL0     H10059  10.489  10.611   4.488 -1.5581 -0.3437 -1.1062
  834MOL0     H10060  10.505  10.856   4.681  1.6306  0.9512  0.3744
  834MOL0     H10061  10.556  10.692   4.714 -4.1220 -0.7511  0.2937
  834MOL0     H10062  10.750  10.851   4.665 -1.7818  3.6395 -1.0594
  834MOL0     H10063  10.687  10.871   4.500  0.5672  2.2227  0.5980
  834MOL0     H10064  10.730  10.615   4.476 -1.5798  0.3188 -0.3715
  834MOL0     H10065  10.793  10.616   4.633 -2.0675  0.1831  0.2097
  834MOL0     H10066  10.912  10.813   4.423 -0.1522  0.4191  1.2548
  834MOL0     H10067  10.988  10.779   4.559  0.6560  1.4383 -2.3088
  834MOL0     H10068  10.922  10.554   4.359  0.1106 -0.1039  0.3883
  834MOL0     H10069  11.008  10.524   4.503  3.1896 -1.4412 -1.7617
  834MOL0     H10070  10.208  10.334   4.317  0.8396  1.1333 -0.2168
  834MOL0     H10071   9.986  10.237   4.222 -1.2269  2.1150 -0.4385
  834MOL0     H10072   9.454  10.116   4.561 -0.1927  0.8499  0.5973
  834MOL0     H10073   9.229  10.087   4.493 -0.2784 -2.2444 -1.2898
  834MOL0     H10074   7.521   9.899   4.977  0.6667 -0.1911 -1.0341
  834MOL0     H10075   7.271   9.869   4.950 -0.9199 -0.1489 -1.7387
  834MOL0     H10076   6.906   9.530   4.568 -1.3473 -1.3941 -0.5456
  834MOL0     H10077   6.681   9.588   4.535 -0.3973  0.2902  0.5614
  834MOL0     H10078   6.545   9.939   4.709  0.8044 -0.7267 -1.2807
  834MOL0     H10079   6.494   9.850   4.860  1.0760  0.8670 -0.2402
  834MOL0     H10080   6.343   9.823   4.599 -0.8173 -0.8609 -0.1429
  834MOL0     H10081   6.279   9.786   4.762 -0.1093 -0.3609  0.2751
  834MOL0     H10082   6.360  10.041   4.647  1.6652 -1.8417 -0.4702
  834MOL0     H10083   6.319  10.022   4.816 -0.3015  2.2373 -0.7423
  834MOL0     H10084   6.122  10.107   4.677 -0.3291 -0.3800 -2.2505
  834MOL0     H10085   6.129   9.965   4.583 -0.0531 -1.1933  0.2414
  834MOL0     H10086   5.895   9.818   4.895  3.4706 -2.5588  3.0135
  834MOL0     H10087   6.696   9.817   4.910  1.9566  2.4494 -0.2043
  834MOL0     H10088   6.950   9.794   4.904  0.9571  1.7898 -1.2062
  835MOL0     O10089   1.531   6.010   7.276 -0.1341 -0.1065 -0.8726
  835MOL0     C10090   1.513   6.031   7.162 -0.2417  0.2190 -0.1299
  835MOL0     O10091   1.389   6.048   7.102 -0.7438 -0.4282  0.3360
  835MOL0     C10092   1.279   6.071   7.179  0.0322  0.0880  0.0006
  835MOL0     C10093   1.187   5.974   7.179  0.7814  0.3890 -0.7165
  835MOL0     C10094   1.079   5.987   7.265 -0.0570  0.4442  0.8170
  835MOL0     C10095   1.061   6.091   7.350  0.9237  0.0053 -0.2987
  835MOL0     O10096   0.948   6.108   7.427  0.4948 -0.1345 -0.5649
  835MOL0     C10097   0.859   6.004   7.445 -0.3805 -1.0062 -0.3958
  835MOL0     C10098   0.730   6.078   7.486 -0.6048 -0.6257 -0.1627
  835MOL0     C10099   0.607   5.987   7.504  0.0124  0.0226  0.7448
  835MOL0     C10100   0.578   5.898   7.386  0.1313 -0.4999 -0.0567
  835MOL0     C10101   0.639   5.757   7.413 -0.3630  0.4820  0.0279
  835MOL0     C10102   0.663   5.687   7.274  0.5255  0.1947 -0.3930
  835MOL0     C10103   0.544   5.617   7.216 -0.2979 -0.6361  0.7302
  835MOL0     C10104   0.502   5.499   7.310  0.0137  0.0600  0.3941
  835MOL0     N10105   0.385   5.428   7.255 -0.3456 -0.4251 -0.4210
  835MOL0     C10106   0.262   5.487   7.228 -0.9034 -0.7254 -0.0815
  835MOL0     C10107   0.190   5.391   7.164  0.0108  0.0894 -1.2616
  835MOL0     C10108   0.038   5.398   7.116 -0.2919  0.4156  0.1138
  835MOL0     C10109  -0.037   5.262   7.108 -1.2243 -0.8010  0.2052
  835MOL0     C10110  -0.066   5.204   7.246 -0.1155 -0.0801  0.0059
  835MOL0     C10111  -0.162   5.090   7.253  0.3222 -0.0366 -0.0810
  835MOL0     O10112  -0.098   4.965   7.279  0.0858  0.0119  0.4220
  835MOL0     C10113  -0.176   4.857   7.294 -0.3786  0.2608 -0.7624
  835MOL0     C10114  -0.312   4.849   7.284 -0.2123  0.3877  0.3609
  835MOL0     C10115  -0.383   4.727   7.309  0.7538 -0.1686 -0.0469
  835MOL0     C10116  -0.310   4.608   7.339 -0.0348 -0.2536  0.0960
  835MOL0     C10117  -0.378   4.490   7.384  0.5407 -0.2338 -0.4021
  835MOL0     O10118  -0.308   4.383   7.441 -0.7128 -0.2959 -0.2827
  835MOL0     C10119  -0.363   4.267   7.488 -0.1926  0.5135 -0.0976
  835MOL0     C10120  -0.262   4.181   7.522  0.5432  0.3114  0.3952
  835MOL0     C10121  -0.287   4.052   7.561 -0.0476 -0.0394 -0.2940
  835MOL0     C10122  -0.419   4.006   7.563  0.3853 -0.2345 -0.7749
  835MOL0     O10123  -0.450   3.890   7.625 -0.8694  0.1473 -0.8572
  835MOL0     C10124  -0.440   3.900   7.763 -0.6599 -0.2143 -0.1812
  835MOL0     C10125  -0.468   3.770   7.828  0.3409 -0.4397  0.3223
  835MOL0     C10126  -0.622   3.741   7.848 -0.1240  0.6591 -0.1615
  835MOL0     C10127  -0.629   3.603   7.926  1.0635  0.0548  0.7267
  835MOL0     C10128  -0.768   3.542   7.897 -0.5710 -0.0339  1.0809
  835MOL0     C10129  -0.767   3.407   7.958 -0.0693  0.0133  0.4747
  835MOL0     C10130  -0.886   3.315   7.920 -0.7076  0.1229  0.4852
  835MOL0     C10131  -0.839   3.179   7.922  0.4358  0.0829 -0.1362
  835MOL0    Cl10132  -0.722   3.141   7.795 -0.5813 -0.0624  0.1974
  835MOL0     C10133  -0.523   4.087   7.535  0.1665  0.3246 -0.2878
  835MOL0     C10134  -0.500   4.224   7.497 -0.0970  0.5687 -0.2387
  835MOL0     O10135  -0.499   4.492   7.366 -0.2598  0.0528 -0.1239
  835MOL0     C10136  -0.175   4.617   7.363  0.4179  0.5176  0.5573
  835MOL0     C10137  -0.113   4.733   7.318  0.3611 -0.0236 -0.1928
  835MOL0     N10138   0.282   5.274   7.153  0.7959  0.6363  0.0887
  835MOL0     N10139   0.395   5.302   7.203 -1.0699  0.0995 -0.3270
  835MOL0     C10140   1.159   6.199   7.344 -0.8694  0.0624 -0.1516
  835MOL0     C10141   1.268   6.188   7.255  0.2738 -0.7041 -0.8163
  835MOL0     C10142   1.634   6.037   7.076  0.1238 -0.0975  0.0362
  835MOL0     C10143   1.770   6.033   7.120  0.1425 -0.6053  0.2158
  835MOL0     C10144   1.874   6.059   7.036 -0.2340 -0.1848 -0.3047
  835MOL0     C10145   1.853   6.069   6.898 -1.0570  0.6418 -0.4473
  835MOL0     O10146   1.960   6.086   6.814 -0.1432  0.4118  0.0668
  835MOL0     C10147   2.040   6.205   6.837  0.0911  0.0537  0.4775
  835MOL0     C10148   2.095   6.245   6.696  0.0522 -0.8336 -0.4550
  835MOL0     C10149   1.970   6.323   6.635 -0.1487  0.5590 -0.5742
  835MOL0     C10150   1.986   6.362   6.488 -0.5074 -0.1329  0.1422
  835MOL0     C10151   1.984   6.243   6.402  0.6296 -0.0106  0.3551
  835MOL0     C10152   1.991   6.145   6.332 -0.2543 -0.1097  0.2645
  835MOL0     C10153   1.734   6.071   6.849  0.4863 -0.3887 -0.7225
  835MOL0     C10154   1.621   6.057   6.932  0.4884 -0.1734 -0.5337
  835MOL0     H10155   1.194   5.888   7.113 -0.3103 -0.7896  0.6532
  835MOL0     H10156   1.020   5.896   7.276 -0.1860  0.7002  2.4760
  835MOL0     H10157   0.889   5.929   7.519  0.5909  0.4006  0.6863
  835MOL0     H10158   0.845   5.951   7.350  0.7210  0.7830 -1.6126
  835MOL0     H10159   0.702   6.136   7.398 -0.7939 -2.0040 -1.0461
  835MOL0     H10160   0.751   6.143   7.572  1.3105 -2.5306  0.9229
  835MOL0     H10161   0.523   6.058   7.511  0.9627  1.0192  2.7405
  835MOL0     H10162   0.610   5.923   7.592  3.1976  1.2481  1.6630
  835MOL0     H10163   0.470   5.897   7.366  0.2252  1.9749 -0.9363
  835MOL0     H10164   0.619   5.945   7.296  3.5112 -1.2622  0.9428
  835MOL0     H10165   0.565   5.703   7.474  1.2922 -0.1560  1.5674
  835MOL0     H10166   0.731   5.756   7.472  0.0011 -1.8848 -0.4814
  835MOL0     H10167   0.747   5.618   7.288  1.9877  1.2054 -3.3170
  835MOL0     H10168   0.708   5.755   7.201 -1.7173  0.4615 -1.6296
  835MOL0     H10169   0.462   5.684   7.192  1.0300 -0.1463 -3.0093
  835MOL0     H10170   0.581   5.577   7.121  0.5586  1.1416  0.2690
  835MOL0     H10171   0.466   5.536   7.406  0.4007  0.4503  0.3888
  835MOL0     H10172   0.578   5.420   7.313 -1.1419 -1.2682 -2.2009
  835MOL0     H10173   0.227   5.589   7.243  0.1557 -0.6300  2.0771
  835MOL0     H10174   0.024   5.456   7.024  0.3693  2.6799  1.3584
  835MOL0     H10175  -0.008   5.465   7.190 -0.3719  1.1612 -0.5927
  835MOL0     H10176   0.028   5.199   7.046  0.0098  0.2474  0.4026
  835MOL0     H10177  -0.130   5.282   7.053 -2.5704 -1.8180  2.0043
  835MOL0     H10178   0.021   5.188   7.311 -0.7539 -0.8821  0.6848
  835MOL0     H10179  -0.121   5.284   7.297  0.0061 -0.4154  0.6847
  835MOL0     H10180  -0.205   5.092   7.152  2.1382  1.3899 -0.8836
  835MOL0     H10181  -0.233   5.102   7.335  0.8316 -1.0742  0.5259
  835MOL0     H10182  -0.370   4.936   7.256 -3.6274 -1.0769  2.2841
  835MOL0     H10183  -0.491   4.727   7.320  0.5289 -0.6290 -1.8880
  835MOL0     H10184  -0.158   4.211   7.521  0.8593 -0.5750 -2.6478
  835MOL0     H10185  -0.217   3.973   7.588 -0.4642  0.2060  1.7144
  835MOL0     H10186  -0.497   3.979   7.812  0.2668 -0.2885  1.0533
  835MOL0     H10187  -0.332   3.916   7.776 -0.7118  2.0522 -1.8013
  835MOL0     H10188  -0.430   3.794   7.927  0.2273  3.8996 -0.4696
  835MOL0     H10189  -0.424   3.685   7.775 -1.4579 -1.2277  0.0031
  835MOL0     H10190  -0.672   3.746   7.750 -1.4842 -1.8426  0.3121
  835MOL0     H10191  -0.669   3.821   7.905  0.6714  2.5179 -1.9762
  835MOL0     H10192  -0.540   3.544   7.905  0.4033 -0.6882 -0.0843
  835MOL0     H10193  -0.627   3.625   8.033  1.2691 -2.9676  1.4287
  835MOL0     H10194  -0.772   3.523   7.789 -0.8406  1.2066  0.8545
  835MOL0     H10195  -0.851   3.608   7.924  0.4101  2.1997 -0.9685
  835MOL0     H10196  -0.767   3.420   8.066  0.9609  2.5531  0.2155
  835MOL0     H10197  -0.680   3.346   7.933 -0.2874 -1.5211  3.0961
  835MOL0     H10198  -0.969   3.344   7.984 -0.8611  0.3411  0.1947
  835MOL0     H10199  -0.927   3.338   7.821  3.6968 -0.5774 -1.7809
  835MOL0     H10200  -0.918   3.103   7.923 -0.5898  1.1191  1.2396
  835MOL0     H10201  -0.789   3.171   8.019  1.0880 -1.4342 -0.5620
  835MOL0     H10202  -0.627   4.059   7.544 -0.1078  1.9243  2.6932
  835MOL0     H10203  -0.581   4.288   7.463 -1.0176 -1.0361 -1.2070
  835MOL0     H10204  -0.123   4.523   7.383  0.3325  0.6293  1.3100
  835MOL0     H10205  -0.008   4.716   7.295  0.6922  0.1307  1.1371
  835MOL0     H10206   1.134   6.284   7.406  0.8452  0.5543 -0.0954
  835MOL0     H10207   1.344   6.264   7.242  0.2486 -0.6719 -0.7748
  835MOL0     H10208   1.784   6.008   7.225  0.8342  0.2312  0.3339
  835MOL0     H10209   1.969   6.078   7.086  1.2618 -1.1994 -2.5652
  835MOL0     H10210   2.125   6.183   6.902  1.6759 -0.4358 -1.6790
  835MOL0     H10211   1.979   6.279   6.889  0.7617  1.1082 -0.2084
  835MOL0     H10212   2.176   6.317   6.709 -2.1841  1.4420  2.6310
  835MOL0     H10213   2.129   6.155   6.644  3.9438 -1.2414  2.3921
  835MOL0     H10214   1.954   6.409   6.701 -2.7908 -1.0989  1.1255
  835MOL0     H10215   1.877   6.267   6.652 -0.0027  1.0569  2.6097
  835MOL0     H10216   1.903   6.427   6.460  1.0242  1.8179 -0.0987
  835MOL0     H10217   2.068   6.432   6.469 -2.6359  1.8964 -2.3490
  835MOL0     H10218   2.007   6.056   6.275 -4.0973  0.4404 -2.0633
  835MOL0     H10219   1.734   6.084   6.741  1.0835  1.8054 -0.5012
  835MOL0     H10220   1.523   6.074   6.888  1.1809 -0.3135 -2.1843
  836MOL0     O10221   2.967   2.423   5.428 -0.0561  0.1180  0.4693
  836MOL0     C10222   3.036   2.511   5.382 -0.8305  0.3287  0.1159
  836MOL0     O10223   2.985   2.632   5.357  0.1751 -0.2551 -0.6277
  836MOL0     C10224   2.850   2.666   5.384 -0.5031  1.2627 -1.1672
  836MOL0     C10225   2.756   2.621   5.301  0.0795  0.8867 -0.2914
  836MOL0     C10226   2.618   2.646   5.327  0.1094 -0.9217  0.8869
  836MOL0     C10227   2.589   2.721   5.445 -0.6528 -0.3307 -0.1935
  836MOL0     O10228   2.474   2.769   5.481 -0.2164  0.1002  0.2925
  836MOL0     C10229   2.358   2.739   5.406 -0.1128  0.1497 -0.3787
  836MOL0     C10230   2.247   2.848   5.441 -0.3969 -0.7693  0.0437
  836MOL0     C10231   2.272   2.997   5.401 -1.3489 -0.2065  0.8950
  836MOL0     C10232   2.163   3.090   5.454  0.7249  0.1433  0.2491
  836MOL0     C10233   2.147   3.217   5.368 -0.1381 -0.0747  0.2544
  836MOL0     C10234   2.045   3.322   5.421 -0.3340  0.3565 -0.1290
  836MOL0     C10235   1.894   3.275   5.419  0.0989 -0.2972  0.0686
  836MOL0     C10236   1.798   3.363   5.504  0.1599 -0.4166 -0.3700
  836MOL0     N10237   1.669   3.299   5.536 -0.6963 -1.6745  0.0672
  836MOL0     C10238   1.571   3.345   5.620  0.7963 -0.2217 -0.5035
  836MOL0     C10239   1.470   3.256   5.591  0.6282 -0.5932  0.7346
  836MOL0     C10240   1.333   3.265   5.644 -0.1580  0.2215 -0.2246
  836MOL0     C10241   1.242   3.324   5.537 -0.2764 -0.0601  0.4057
  836MOL0     C10242   1.097   3.322   5.582 -0.3028  0.8456 -0.2930
  836MOL0     C10243   1.006   3.391   5.471 -0.2941  1.1639  0.6188
  836MOL0     O10244   0.884   3.425   5.538 -0.2476  0.8486  0.0073
  836MOL0     C10245   0.757   3.400   5.479  0.9682  0.3634 -0.8955
  836MOL0     C10246   0.734   3.315   5.368 -0.2317 -0.4552 -1.3707
  836MOL0     C10247   0.606   3.300   5.314 -0.3313  0.1108 -0.0257
  836MOL0     C10248   0.498   3.363   5.383  0.0123 -0.0713  1.4903
  836MOL0     C10249   0.358   3.345   5.331 -0.0106  0.0208 -0.8360
  836MOL0     O10250   0.272   3.376   5.432 -0.1895 -0.3690  0.7809
  836MOL0     C10251   0.149   3.369   5.403  0.2320  0.7842 -0.4610
  836MOL0     C10252   0.082   3.487   5.413  0.5589 -0.8567  0.6758
  836MOL0     C10253  -0.059   3.487   5.388 -0.4619 -0.8126  0.0375
  836MOL0     C10254  -0.134   3.360   5.379 -1.4019 -0.3380 -0.6856
  836MOL0     O10255  -0.263   3.353   5.346 -0.1507 -0.0267  0.0104
  836MOL0     C10256  -0.328   3.469   5.284  0.6836  0.0545 -0.4898
  836MOL0     C10257  -0.481   3.439   5.256  0.0284  0.2508  0.8566
  836MOL0     C10258  -0.548   3.396   5.384  0.1292 -0.1829  0.0963
  836MOL0     C10259  -0.705   3.404   5.375  0.3342 -1.0650  0.3887
  836MOL0     C10260  -0.780   3.374   5.503 -0.6781  0.2144 -0.8500
  836MOL0     C10261  -0.933   3.380   5.473 -1.4692 -1.0810 -0.1009
  836MOL0     C10262  -1.021   3.392   5.592  0.5912 -0.1596 -0.0086
  836MOL0     C10263  -1.014   3.264   5.680 -0.1574 -0.2185 -0.1870
  836MOL0    Cl10264  -1.131   3.279   5.817  0.3695 -0.4358 -0.0094
  836MOL0     C10265  -0.059   3.239   5.389  0.2674 -0.6655 -0.5513
  836MOL0     C10266   0.081   3.244   5.398  0.3800 -0.5297  0.1566
  836MOL0     O10267   0.325   3.312   5.216  0.2075 -0.0840  0.0916
  836MOL0     C10268   0.519   3.454   5.484 -0.0465  0.5175  0.3038
  836MOL0     C10269   0.648   3.460   5.535  0.6868 -0.1808  0.4743
  836MOL0     N10270   1.517   3.165   5.500  0.2641  0.3675  0.1992
  836MOL0     N10271   1.636   3.191   5.463 -0.5922  0.5827  0.7616
  836MOL0     C10272   2.687   2.763   5.531  0.1168  0.2925 -0.8341
  836MOL0     C10273   2.823   2.738   5.502  0.1096 -0.5920  0.4640
  836MOL0     C10274   3.181   2.487   5.347  0.4639  0.1047  0.1384
  836MOL0     C10275   3.247   2.586   5.283  0.7978  0.0321 -0.4953
  836MOL0     C10276   3.374   2.572   5.233 -0.0074 -0.4773  0.5251
  836MOL0     C10277   3.436   2.449   5.239  1.0058  0.0802 -0.0978
  836MOL0     O10278   3.560   2.437   5.188  0.4895 -0.2860  0.0633
  836MOL0     C10279   3.622   2.309   5.158  0.3037 -1.2824 -0.2874
  836MOL0     C10280   3.720   2.264   5.264 -0.4243 -0.0841 -0.4516
  836MOL0     C10281   3.847   2.347   5.284 -1.3086 -0.2762 -0.6883
  836MOL0     C10282   3.944   2.361   5.161 -0.0998  0.8040  0.1783
  836MOL0     C10283   3.977   2.243   5.090  0.1711  0.3625  0.3005
  836MOL0     C10284   4.019   2.142   5.031 -0.8740 -0.2886  1.2466
  836MOL0     C10285   3.369   2.340   5.303  0.0805 -0.7842 -0.0078
  836MOL0     C10286   3.245   2.363   5.360  0.3501 -0.5171 -0.1966
  836MOL0     H10287   2.793   2.563   5.217  2.0383 -0.9985  1.7175
  836MOL0     H10288   2.548   2.617   5.249 -1.5528 -1.3819  2.4952
  836MOL0     H10289   2.321   2.639   5.432 -0.1912  0.6637  1.6670
  836MOL0     H10290   2.380   2.761   5.301  0.1900  0.1635 -0.3124
  836MOL0     H10291   2.223   2.856   5.548 -3.0373  0.2064 -0.5542
  836MOL0     H10292   2.148   2.819   5.407 -0.6124  1.8732 -1.9039
  836MOL0     H10293   2.262   3.001   5.292 -1.5618  0.5072  0.9321
  836MOL0     H10294   2.369   3.038   5.430 -0.6447  0.3531 -1.8827
  836MOL0     H10295   2.065   3.042   5.456 -0.6307  2.4096 -3.0919
  836MOL0     H10296   2.203   3.124   5.550  2.4303  1.4890 -0.8787
  836MOL0     H10297   2.109   3.177   5.274 -0.3705 -2.7265  1.3655
  836MOL0     H10298   2.243   3.266   5.350 -0.7332  0.7601 -0.7977
  836MOL0     H10299   2.058   3.406   5.352  0.9750  0.5882  0.3843
  836MOL0     H10300   2.090   3.346   5.518 -0.7690  1.7631 -0.2543
  836MOL0     H10301   1.856   3.270   5.317  1.2152 -0.2900 -0.3569
  836MOL0     H10302   1.884   3.170   5.448  0.4191 -0.7765 -1.4706
  836MOL0     H10303   1.781   3.461   5.458  2.6666  0.2520  0.0190
  836MOL0     H10304   1.849   3.377   5.599  0.2123 -0.8957 -0.3248
  836MOL0     H10305   1.576   3.434   5.681  2.6064  0.7417 -1.9549
  836MOL0     H10306   1.327   3.319   5.739  2.9742 -3.8247  2.6064
  836MOL0     H10307   1.293   3.167   5.672 -0.3160 -0.3718 -2.3672
  836MOL0     H10308   1.244   3.277   5.439 -0.5620 -0.3816  0.5529
  836MOL0     H10309   1.263   3.431   5.525 -1.9263  0.3424  0.9050
  836MOL0     H10310   1.056   3.222   5.595 -1.0614  1.0106 -1.2686
  836MOL0     H10311   1.089   3.381   5.674  0.5187 -2.2229  1.8954
  836MOL0     H10312   0.993   3.314   5.394 -0.4726  0.6734  1.1322
  836MOL0     H10313   1.056   3.478   5.427 -1.6111  0.6244 -2.1940
  836MOL0     H10314   0.811   3.269   5.308 -0.2847  0.0789 -1.8632
  836MOL0     H10315   0.574   3.243   5.228 -0.6382  0.3378 -0.0632
  836MOL0     H10316   0.134   3.580   5.431  1.1914 -0.3107 -3.1493
  836MOL0     H10317  -0.098   3.588   5.378  1.8360  0.1343 -0.1243
  836MOL0     H10318  -0.283   3.476   5.185  0.4886 -0.8821 -0.6616
  836MOL0     H10319  -0.317   3.566   5.333 -2.2371  1.0382 -1.5640
  836MOL0     H10320  -0.507   3.364   5.181 -1.2017  2.5495 -1.1613
  836MOL0     H10321  -0.526   3.533   5.224 -0.7797 -0.2239  0.5555
  836MOL0     H10322  -0.507   3.457   5.465  1.1927 -0.8112  0.0487
  836MOL0     H10323  -0.519   3.293   5.408 -0.2637 -0.3552 -0.1596
  836MOL0     H10324  -0.733   3.490   5.314  1.6583 -0.9389 -0.0795
  836MOL0     H10325  -0.735   3.321   5.310 -1.0963  0.8450 -1.5131
  836MOL0     H10326  -0.743   3.453   5.570  3.7354 -2.5559  0.3947
  836MOL0     H10327  -0.756   3.274   5.538 -4.2120 -0.9168 -1.2404
  836MOL0     H10328  -0.943   3.296   5.403  2.0777 -0.7025 -1.2758
  836MOL0     H10329  -0.946   3.468   5.410  0.2363 -0.0805  0.8683
  836MOL0     H10330  -0.995   3.485   5.643 -2.3458  0.6152  0.2660
  836MOL0     H10331  -1.125   3.402   5.559 -0.2222 -2.4245  1.6593
  836MOL0     H10332  -0.913   3.238   5.715 -0.8219 -0.3692  1.7218
  836MOL0     H10333  -1.050   3.179   5.621  0.2909 -0.6795  0.1917
  836MOL0     H10334  -0.113   3.145   5.378 -1.1888  0.3320 -2.4707
  836MOL0     H10335   0.137   3.152   5.412 -1.6572 -1.4866  2.7410
  836MOL0     H10336   0.433   3.502   5.528 -0.3741  1.1630 -0.9821
  836MOL0     H10337   0.653   3.521   5.625 -0.2325  1.2614 -0.4267
  836MOL0     H10338   2.661   2.816   5.622 -1.9059 -1.4967 -0.2856
  836MOL0     H10339   2.904   2.775   5.563 -1.7698  1.4358  1.8981
  836MOL0     H10340   3.195   2.678   5.256 -1.5243 -0.0571  3.0669
  836MOL0     H10341   3.426   2.645   5.171  0.3534 -1.5989 -0.5337
  836MOL0     H10342   3.676   2.298   5.063  2.9046 -3.5059  1.2870
  836MOL0     H10343   3.550   2.226   5.157  0.2559 -1.2621  0.5690
  836MOL0     H10344   3.666   2.265   5.359 -3.9918 -0.7583 -2.2944
  836MOL0     H10345   3.750   2.161   5.243  1.6965  0.6711 -1.4692
  836MOL0     H10346   3.903   2.291   5.360 -3.8764 -0.8483  0.8876
  836MOL0     H10347   3.820   2.448   5.314 -2.2145 -0.6217 -0.3127
  836MOL0     H10348   3.880   2.417   5.092  0.4076 -0.5265 -1.4207
  836MOL0     H10349   4.034   2.415   5.192 -1.5372  1.9550  2.6070
  836MOL0     H10350   4.059   2.056   4.981 -2.1445 -0.3459  0.2963
  836MOL0     H10351   3.411   2.240   5.304 -0.4646 -1.0961 -2.5345
  836MOL0     H10352   3.193   2.282   5.410 -2.2978  1.1022 -0.1492
  837MOL0     O10353   8.830   8.751  10.557  0.4182  0.9973  0.9216
  837MOL0     C10354   8.858   8.711  10.444 -0.0231  0.0303  0.0124
  837MOL0     O10355   8.802   8.607  10.370  0.6079  0.0943 -0.2182
  837MOL0     C10356   8.724   8.516  10.435  0.5134 -0.6164  0.8044
  837MOL0     C10357   8.708   8.504  10.573  0.2367  0.7643 -0.1721
  837MOL0     C10358   8.621   8.404  10.616  0.3207 -0.4561  0.0492
  837MOL0     C10359   8.558   8.307  10.530 -0.3721  0.2633 -0.3366
  837MOL0     O10360   8.482   8.212  10.593 -0.3838 -0.4864  0.0247
  837MOL0     C10361   8.450   8.087  10.526 -0.9872 -0.1967  0.1660
  837MOL0     C10362   8.424   7.982  10.636  0.2054 -0.3337 -0.1657
  837MOL0     C10363   8.557   7.920  10.677 -0.2757  0.6552  0.2842
  837MOL0     C10364   8.616   8.002  10.797 -1.2247 -0.0433  0.0381
  837MOL0     C10365   8.767   8.038  10.781 -0.2863 -0.1972  0.1115
  837MOL0     C10366   8.811   8.088  10.923 -0.4535 -1.1010  0.5428
  837MOL0     C10367   8.948   8.171  10.913  0.1738  0.1248  0.4353
  837MOL0     C10368   9.074   8.078  10.925  0.1112 -0.1701  0.9800
  837MOL0     N10369   9.202   8.161  10.929  0.7756 -1.0420  0.1112
  837MOL0     C10370   9.294   8.157  11.029 -0.9427 -0.2444 -0.1077
  837MOL0     C10371   9.357   8.273  11.012  0.1085  0.6506 -0.2085
  837MOL0     C10372   9.465   8.321  11.101 -0.2424  0.3433 -0.7500
  837MOL0     C10373   9.605   8.323  11.027  0.3464 -0.3524  0.6291
  837MOL0     C10374   9.717   8.386  11.107  0.1200  0.6144  0.2113
  837MOL0     C10375   9.689   8.533  11.091  0.4142 -0.1331 -0.3988
  837MOL0     O10376   9.737   8.585  10.974  0.4649 -0.9725 -0.1647
  837MOL0     C10377   9.853   8.665  10.984 -0.2429  0.1876 -0.8760
  837MOL0     C10378   9.963   8.655  11.074 -0.3930 -0.9054 -0.6592
  837MOL0     C10379  10.079   8.733  11.047  0.0010 -0.9370  0.1644
  837MOL0     C10380  10.089   8.825  10.942 -0.5087  0.2514  0.7556
  837MOL0     C10381  10.202   8.919  10.930  0.1331 -0.0102 -0.1767
  837MOL0     O10382  10.276   8.949  11.040 -0.4920 -0.0753 -0.2695
  837MOL0     C10383  10.380   9.035  11.025  0.4847 -0.1485 -0.6996
  837MOL0     C10384  10.363   9.173  10.984  0.1725 -0.2811 -0.7327
  837MOL0     C10385  10.470   9.256  10.965  0.6697 -0.2599 -0.4182
  837MOL0     C10386  10.598   9.218  10.999  0.1752  0.0695  0.4137
  837MOL0     O10387  10.707   9.291  10.988 -0.3742 -0.1289  0.0039
  837MOL0     C10388  10.699   9.434  10.961 -0.2105  0.5144  0.3412
  837MOL0     C10389  10.840   9.489  10.970  0.2991 -0.3860 -0.1346
  837MOL0     C10390  10.904   9.466  11.098  0.3397  0.6139  0.9050
  837MOL0     C10391  11.053   9.504  11.085  0.7252 -0.2782  0.1785
  837MOL0     C10392  11.128   9.479  11.216  0.6496 -0.1201  0.5910
  837MOL0     C10393  11.108   9.596  11.312 -0.2853 -0.0387  0.5170
  837MOL0     C10394  11.213   9.709  11.289  0.0704  0.0634 -0.6878
  837MOL0     C10395  11.356   9.677  11.286 -0.8168  0.8226 -0.0539
  837MOL0    Cl10396  11.409   9.547  11.412  0.1275  0.0200  0.4432
  837MOL0     C10397  10.629   9.090  11.044 -1.0567  0.3990 -0.4496
  837MOL0     C10398  10.515   8.994  11.056  0.6206  0.2736 -0.1426
  837MOL0     O10399  10.219   8.975  10.824 -0.2849  0.3068 -0.7244
  837MOL0     C10400   9.978   8.828  10.854 -0.3084  0.4556  0.4854
  837MOL0     C10401   9.865   8.745  10.875  0.2735 -0.4025  0.1060
  837MOL0     N10402   9.315   8.342  10.895  0.6015 -0.8443  0.9504
  837MOL0     N10403   9.224   8.266  10.843 -0.1011 -0.3643 -0.6291
  837MOL0     C10404   8.586   8.315  10.394 -0.1097  0.5523 -0.4082
  837MOL0     C10405   8.663   8.420  10.354 -0.0747 -0.2917  0.3577
  837MOL0     C10406   8.955   8.790  10.368 -0.5687  0.1943 -0.6868
  837MOL0     C10407   9.027   8.891  10.439 -0.2348  0.2901 -0.1406
  837MOL0     C10408   9.144   8.946  10.392 -0.3094  0.6149  1.0518
  837MOL0     C10409   9.184   8.907  10.266 -0.1567 -0.6675 -0.3334
  837MOL0     O10410   9.306   8.941  10.211 -0.3091 -0.0475 -0.0647
  837MOL0     C10411   9.368   9.070  10.239  0.5417  0.9059 -0.2947
  837MOL0     C10412   9.475   9.111  10.139 -0.7350  0.9312 -0.2825
  837MOL0     C10413   9.411   9.125  10.005  0.8428 -0.0149 -0.1898
  837MOL0     C10414   9.488   9.211   9.913  0.5062 -0.0418  0.7078
  837MOL0     C10415   9.421   9.187   9.777 -0.5855  0.0610  0.2344
  837MOL0     C10416   9.370   9.146   9.675 -0.4122  0.3219 -0.7911
  837MOL0     C10417   9.118   8.815  10.189  0.2949  0.0473 -0.1810
  837MOL0     C10418   9.005   8.746  10.239 -0.0422 -0.2918  0.6378
  837MOL0     H10419   8.758   8.566  10.647 -1.6615  0.7497  1.2071
  837MOL0     H10420   8.606   8.399  10.723  0.5795  1.7220  0.2310
  837MOL0     H10421   8.537   8.063  10.464  0.4180 -0.0834  2.0120
  837MOL0     H10422   8.370   8.100  10.452  1.2928  1.4545 -2.1711
  837MOL0     H10423   8.357   7.909  10.590 -2.7463  1.3303  1.2659
  837MOL0     H10424   8.369   8.033  10.715  0.2764 -1.0940  0.3830
  837MOL0     H10425   8.625   7.908  10.593 -0.5695  0.9050  0.0089
  837MOL0     H10426   8.531   7.822  10.720  1.4573  1.0822  2.4984
  837MOL0     H10427   8.554   8.088  10.825 -1.0351  0.3566 -0.7168
  837MOL0     H10428   8.611   7.939  10.886 -0.3439 -0.5674 -0.2739
  837MOL0     H10429   8.794   8.120  10.714 -1.8762  2.7589  2.8090
  837MOL0     H10430   8.817   7.945  10.751 -0.9148 -0.4300 -0.2461
  837MOL0     H10431   8.815   8.013  11.003 -1.9401 -0.6895  1.0293
  837MOL0     H10432   8.723   8.144  10.956 -0.4966 -0.4815 -0.5946
  837MOL0     H10433   8.959   8.212  10.812  3.0522 -2.9258 -0.6749
  837MOL0     H10434   8.954   8.246  10.992  1.1232  3.2147 -2.3280
  837MOL0     H10435   9.088   8.028  10.829  2.4721  1.9101  0.1450
  837MOL0     H10436   9.063   8.010  11.010 -0.5106 -1.1878  0.1114
  837MOL0     H10437   9.306   8.090  11.113 -1.9174 -0.5340 -0.1791
  837MOL0     H10438   9.457   8.255  11.187 -1.4635  1.2420 -0.1420
  837MOL0     H10439   9.434   8.420  11.135  1.4458  1.2184 -1.5892
  837MOL0     H10440   9.603   8.368  10.927  1.1901 -1.3606  0.1426
  837MOL0     H10441   9.627   8.217  11.012  2.7506 -0.0988  1.8764
  837MOL0     H10442   9.717   8.352  11.211 -0.4751 -1.8866 -0.5442
  837MOL0     H10443   9.816   8.365  11.064  2.0237  1.3921  3.7576
  837MOL0     H10444   9.726   8.595  11.173 -5.7693  2.1822  1.1217
  837MOL0     H10445   9.582   8.552  11.096  0.1704 -0.7430 -2.3093
  837MOL0     H10446   9.964   8.579  11.151 -0.1379 -0.8590 -0.6178
  837MOL0     H10447  10.161   8.724  11.117  0.7018 -0.1834 -0.5466
  837MOL0     H10448  10.269   9.225  10.972  0.9573  1.3829  0.0051
  837MOL0     H10449  10.445   9.355  10.929 -2.2841  0.2132  2.4387
  837MOL0     H10450  10.640   9.488  11.036  2.4601  1.2220  2.0443
  837MOL0     H10451  10.662   9.451  10.859 -2.1210 -1.6262  0.5990
  837MOL0     H10452  10.843   9.597  10.954  2.2891 -0.5429 -1.1477
  837MOL0     H10453  10.903   9.433  10.901  1.5989 -1.5479  1.8787
  837MOL0     H10454  10.892   9.361  11.128 -0.3282  0.4382  0.0604
  837MOL0     H10455  10.847   9.524  11.172 -2.1008 -0.7645  0.2222
  837MOL0     H10456  11.097   9.435  11.012 -0.8983  0.6476 -1.7887
  837MOL0     H10457  11.068   9.606  11.047 -0.9234  1.4400  3.7025
  837MOL0     H10458  11.234   9.470  11.192  0.8364 -1.3555  1.7838
  837MOL0     H10459  11.091   9.388  11.265 -1.1285 -0.6537 -1.5385
  837MOL0     H10460  11.107   9.555  11.414  0.7679 -1.7584 -0.1207
  837MOL0     H10461  11.010   9.646  11.310  0.5055  1.7827  2.5814
  837MOL0     H10462  11.185   9.751  11.192 -1.7791 -1.5516 -0.9269
  837MOL0     H10463  11.188   9.790  11.358 -3.6727 -0.4095 -1.2496
  837MOL0     H10464  11.431   9.755  11.302 -1.1528  1.1603 -0.1155
  837MOL0     H10465  11.376   9.633  11.188  0.4737  0.1754  0.4776
  837MOL0     H10466  10.727   9.047  11.065 -0.2698  1.5344 -1.6614
  837MOL0     H10467  10.522   8.891  11.088 -0.0389  0.7328  1.5480
  837MOL0     H10468   9.970   8.892  10.767  0.1421 -1.4789 -1.0437
  837MOL0     H10469   9.783   8.759  10.805 -0.5157 -0.6089  0.9780
  837MOL0     H10470   8.535   8.251  10.322  0.9296  1.3513 -1.8944
  837MOL0     H10471   8.663   8.430  10.246 -1.1037 -1.5373  0.2138
  837MOL0     H10472   8.999   8.913  10.542  0.0236  4.5898 -0.8038
  837MOL0     H10473   9.217   9.009  10.442  1.0120 -0.8715  1.0500
  837MOL0     H10474   9.410   9.070  10.340 -0.4857  0.6201  0.1501
  837MOL0     H10475   9.286   9.142  10.242  0.1041  0.3903  0.3178
  837MOL0     H10476   9.519   9.205  10.174 -0.0077 -0.4745  2.9537
  837MOL0     H10477   9.551   9.032  10.137  0.5268  2.1218 -0.3839
  837MOL0     H10478   9.316   9.177  10.015  0.1512 -1.0629 -1.0500
  837MOL0     H10479   9.399   9.024   9.964 -0.4367 -0.1450  0.4851
  837MOL0     H10480   9.492   9.315   9.949 -1.7220  0.4206 -0.2381
  837MOL0     H10481   9.590   9.173   9.900  0.7737 -0.0041  2.4508
  837MOL0     H10482   9.336   9.127   9.575 -3.0627  3.4108 -0.6206
  837MOL0     H10483   9.155   8.782  10.092 -0.5509  0.7311 -0.7566
  837MOL0     H10484   8.955   8.676  10.174  0.2755  1.6738 -1.8770
  838MOL0     O10485   7.161   2.020   3.255 -0.3420 -0.1397 -0.1975
  838MOL0     C10486   7.170   2.139   3.231  0.0433 -0.2414  0.1535
  838MOL0     O10487   7.278   2.200   3.176  0.0809  0.5641  0.2321
  838MOL0     C10488   7.385   2.119   3.155 -0.0998  0.2650 -1.2896
  838MOL0     C10489   7.382   2.039   3.046  0.1856 -0.5783 -0.7401
  838MOL0     C10490   7.484   1.950   3.015 -0.8960 -0.6357  0.5635
  838MOL0     C10491   7.595   1.953   3.107 -0.1660  0.2166 -0.2974
  838MOL0     O10492   7.692   1.870   3.107  0.2147 -0.3708  0.5653
  838MOL0     C10493   7.728   1.823   2.978  0.4575  0.1834  0.6820
  838MOL0     C10494   7.875   1.785   2.964  1.4027 -0.5516 -0.4045
  838MOL0     C10495   7.889   1.694   2.841  0.1132 -0.2479 -0.1509
  838MOL0     C10496   8.017   1.720   2.756  0.7286  0.6284 -0.9473
  838MOL0     C10497   8.008   1.634   2.632 -0.2513 -0.4162  0.7930
  838MOL0     C10498   8.025   1.488   2.648  0.5662  0.2736 -0.6222
  838MOL0     C10499   8.069   1.418   2.521 -0.1503  0.3657  0.0462
  838MOL0     C10500   7.998   1.285   2.500  1.2543  0.9129 -0.6510
  838MOL0     N10501   8.064   1.215   2.398 -0.2458  0.2277  0.3186
  838MOL0     C10502   8.021   1.215   2.266 -0.6706 -0.7045  0.4346
  838MOL0     C10503   8.115   1.157   2.189  0.5347  0.7494  0.2325
  838MOL0     C10504   8.112   1.156   2.037  0.3786  0.5089 -0.2621
  838MOL0     C10505   8.137   1.294   1.978  0.0363  0.3826 -0.0239
  838MOL0     C10506   8.189   1.303   1.825 -0.2861  0.4612 -0.4484
  838MOL0     C10507   8.092   1.237   1.733  0.1994  0.7418  0.0650
  838MOL0     O10508   8.090   1.312   1.608  0.5869 -0.2121 -0.4667
  838MOL0     C10509   8.194   1.282   1.526 -0.4711 -0.1196 -0.0803
  838MOL0     C10510   8.173   1.344   1.399 -0.4516  0.0424  0.2135
  838MOL0     C10511   8.261   1.328   1.293 -0.6035 -0.1951  0.3836
  838MOL0     C10512   8.375   1.242   1.303  0.9357  0.9866 -0.5418
  838MOL0     C10513   8.446   1.186   1.183 -0.0223  0.4625  0.7298
  838MOL0     O10514   8.385   1.222   1.070 -0.8929 -0.5524 -0.1953
  838MOL0     C10515   8.441   1.185   0.955 -1.0418 -0.6244  0.2279
  838MOL0     C10516   8.451   1.050   0.910  0.0842  0.1286  0.1694
  838MOL0     C10517   8.518   1.025   0.787 -0.2025 -0.5245  0.3148
  838MOL0     C10518   8.560   1.126   0.695  0.0698  0.3872  0.5391
  838MOL0     O10519   8.634   1.107   0.577  0.2967  0.3297  0.3572
  838MOL0     C10520   8.628   0.990   0.494  0.5303 -0.4451 -0.1955
  838MOL0     C10521   8.725   0.993   0.378  0.7881  0.0977  0.0548
  838MOL0     C10522   8.708   0.878   0.281 -0.0996 -0.6762  1.4724
  838MOL0     C10523   8.795   0.897   0.159  0.2577  0.4114  0.2067
  838MOL0     C10524   8.737   0.891   0.019  0.9532  0.5678  0.5879
  838MOL0     C10525   8.816   0.951  -0.095  0.4364 -0.6148  0.3084
  838MOL0     C10526   8.772   0.921  -0.241 -0.7875  0.1521 -0.6310
  838MOL0     C10527   8.776   1.036  -0.342  0.3884 -0.6283 -0.5800
  838MOL0    Cl10528   8.673   1.166  -0.294 -0.0139  0.0446 -0.4227
  838MOL0     C10529   8.538   1.260   0.735 -0.7160  0.1849 -0.1880
  838MOL0     C10530   8.490   1.280   0.866  0.4077  0.0413 -0.4908
  838MOL0     O10531   8.536   1.108   1.200  0.1828  0.1844  0.5327
  838MOL0     C10532   8.398   1.191   1.433 -0.3291  0.6215  0.0889
  838MOL0     C10533   8.307   1.201   1.542 -0.9614 -0.3378 -0.3701
  838MOL0     N10534   8.217   1.129   2.270 -0.9107  0.6905  0.0078
  838MOL0     N10535   8.191   1.161   2.386 -0.1605 -0.5430 -0.3970
  838MOL0     C10536   7.595   2.049   3.204 -1.2610 -0.4343  0.4274
  838MOL0     C10537   7.488   2.136   3.229 -0.8587  0.7036 -0.5692
  838MOL0     C10538   7.041   2.215   3.233  0.8472  0.6011 -0.1061
  838MOL0     C10539   6.924   2.145   3.255 -0.1431 -0.4507  0.2358
  838MOL0     C10540   6.799   2.209   3.242 -0.3999  0.5611  0.1384
  838MOL0     C10541   6.788   2.345   3.231 -0.2139  0.0136  0.0174
  838MOL0     O10542   6.664   2.401   3.240 -0.1987 -0.1716  0.1740
  838MOL0     C10543   6.601   2.433   3.110  0.5730 -0.4520 -0.5329
  838MOL0     C10544   6.479   2.329   3.094 -0.4029  0.9218 -0.2618
  838MOL0     C10545   6.382   2.351   2.967 -0.7420 -0.5238 -0.4495
  838MOL0     C10546   6.266   2.437   3.003  1.0148  0.1293 -0.7335
  838MOL0     C10547   6.177   2.439   2.888  1.1709  0.0354  0.3910
  838MOL0     C10548   6.102   2.440   2.797  0.5588  0.4851  0.3974
  838MOL0     C10549   6.901   2.431   3.226 -0.1072  0.4355 -0.2305
  838MOL0     C10550   7.033   2.356   3.224  0.2947 -0.2330 -0.1105
  838MOL0     H10551   7.296   2.049   2.980 -1.0875  0.6185  1.0200
  838MOL0     H10552   7.485   1.883   2.929 -2.5314  0.6834 -0.5273
  838MOL0     H10553   7.727   1.909   2.910  1.2615 -1.3220 -1.3511
  838MOL0     H10554   7.662   1.743   2.943 -2.3183  2.9190 -0.6905
  838MOL0     H10555   7.900   1.729   3.054 -1.0456  0.6829  1.1506
  838MOL0     H10556   7.930   1.879   2.971  0.0102  0.4517 -1.9924
  838MOL0     H10557   7.806   1.710   2.772 -0.0643 -2.5251 -0.5663
  838MOL0     H10558   7.894   1.586   2.861 -0.7151  0.0850  2.1844
  838MOL0     H10559   8.004   1.827   2.736 -1.3402  0.7340  0.6344
  838MOL0     H10560   8.105   1.707   2.819 -0.5167  1.3708  1.0334
  838MOL0     H10561   8.090   1.669   2.569 -1.0568 -1.6642 -1.0540
  838MOL0     H10562   7.911   1.655   2.585  0.4350 -1.7940 -1.3643
  838MOL0     H10563   7.921   1.462   2.673 -0.7593  2.9072 -2.9057
  838MOL0     H10564   8.087   1.475   2.737 -1.9235 -1.5027  0.9781
  838MOL0     H10565   8.040   1.489   2.443 -0.7465  0.9070  0.7500
  838MOL0     H10566   8.179   1.413   2.518 -0.0688 -1.2007  2.6012
  838MOL0     H10567   7.894   1.310   2.479  1.1644 -1.1492 -3.2517
  838MOL0     H10568   8.002   1.219   2.587  3.4321 -1.5263 -2.4105
  838MOL0     H10569   7.929   1.257   2.228  0.6034  2.4429  0.5345
  838MOL0     H10570   8.018   1.108   2.006 -0.0801 -0.5024  2.3824
  838MOL0     H10571   8.195   1.092   2.006 -0.5598 -1.0508  0.3179
  838MOL0     H10572   8.209   1.348   2.040  1.1851 -0.4301 -0.6140
  838MOL0     H10573   8.044   1.352   1.989 -0.1110 -0.3003  3.2259
  838MOL0     H10574   8.208   1.409   1.805  3.5072  0.4575  1.9574
  838MOL0     H10575   8.284   1.248   1.817 -0.8381 -0.5632 -0.1826
  838MOL0     H10576   7.993   1.251   1.776 -0.2558 -3.7147  0.9776
  838MOL0     H10577   8.116   1.131   1.720 -1.7201  0.4919 -2.0792
  838MOL0     H10578   8.077   1.395   1.391 -1.2975 -1.0902  2.5214
  838MOL0     H10579   8.235   1.368   1.196 -1.7097 -2.0712 -0.1377
  838MOL0     H10580   8.412   0.971   0.973  0.5207  1.3245  1.9965
  838MOL0     H10581   8.536   0.925   0.749  2.9493 -1.0705  2.7823
  838MOL0     H10582   8.524   1.001   0.464  0.8419  1.2654 -0.7573
  838MOL0     H10583   8.652   0.905   0.559  0.9445  1.5199  2.4169
  838MOL0     H10584   8.829   0.989   0.410  1.8395 -0.5947 -3.1034
  838MOL0     H10585   8.729   1.091   0.330  1.4130  0.6546  1.1987
  838MOL0     H10586   8.606   0.870   0.244  1.5027 -1.4216 -3.4853
  838MOL0     H10587   8.745   0.783   0.321  0.6150 -0.6375  0.9227
  838MOL0     H10588   8.845   0.993   0.171  0.7382  0.0415  1.3625
  838MOL0     H10589   8.873   0.821   0.152  0.6957  0.9623 -1.0273
  838MOL0     H10590   8.636   0.933   0.010 -0.0722 -2.0985 -2.1483
  838MOL0     H10591   8.729   0.783   0.004 -1.0024  0.4870  1.8964
  838MOL0     H10592   8.923   0.928  -0.087  0.1191 -1.5629  2.8754
  838MOL0     H10593   8.816   1.058  -0.074  2.3346 -1.1133  3.5530
  838MOL0     H10594   8.847   0.854  -0.281 -0.0462 -0.1731  1.2126
  838MOL0     H10595   8.674   0.871  -0.243 -0.1846 -1.1210  0.4949
  838MOL0     H10596   8.752   1.005  -0.444  0.4867 -0.7965 -0.5530
  838MOL0     H10597   8.883   1.059  -0.339  1.1528 -3.8426  0.5658
  838MOL0     H10598   8.579   1.341   0.676  0.0942  0.0982  0.2475
  838MOL0     H10599   8.486   1.382   0.904  2.1078 -0.7423  2.0225
  838MOL0     H10600   8.488   1.139   1.462  0.7053  2.6243  0.6418
  838MOL0     H10601   8.309   1.153   1.639 -2.0153 -0.2681 -0.3046
  838MOL0     H10602   7.676   2.049   3.277 -0.2864 -1.3164 -0.6263
  838MOL0     H10603   7.498   2.203   3.314  1.4971  1.2832 -1.2291
  838MOL0     H10604   6.924   2.037   3.270 -0.8078 -0.1730  2.6344
  838MOL0     H10605   6.708   2.155   3.222 -0.6536  2.4581 -5.6558
  838MOL0     H10606   6.671   2.414   3.028  0.1273 -2.1378 -0.5510
  838MOL0     H10607   6.563   2.534   3.093 -0.0651 -0.8673 -1.6914
  838MOL0     H10608   6.518   2.228   3.084  0.1470  1.3500 -4.2245
  838MOL0     H10609   6.426   2.325   3.189 -0.0579 -1.0831 -0.1158
  838MOL0     H10610   6.346   2.255   2.929 -2.2546  0.0325 -0.4970
  838MOL0     H10611   6.439   2.401   2.888 -0.3538 -0.7848 -0.3415
  838MOL0     H10612   6.210   2.396   3.087  0.2962 -0.1852 -1.3516
  838MOL0     H10613   6.307   2.532   3.038  0.4492 -0.7934  2.7541
  838MOL0     H10614   6.039   2.426   2.712 -2.0162  0.0703  2.2349
  838MOL0     H10615   6.894   2.539   3.221 -0.4264  0.3483 -2.4208
  838MOL0     H10616   7.120   2.420   3.214  0.4834 -0.1966  1.4809
  839MOL0     O10617   6.382  10.351   0.784  0.5037  0.3296 -0.6518
  839MOL0     C10618   6.432  10.411   0.883  0.2942 -0.7736  0.9123
  839MOL0     O10619   6.381  10.525   0.941  0.0843  0.0104 -0.1943
  839MOL0     C10620   6.253  10.571   0.912 -0.7882 -0.4515 -0.6920
  839MOL0     C10621   6.137  10.517   0.977  0.5885 -0.2101 -1.1784
  839MOL0     C10622   6.008  10.551   0.928 -0.0370  0.3255 -0.3214
  839MOL0     C10623   6.000  10.641   0.815 -0.1093  0.6970  0.4311
  839MOL0     O10624   5.876  10.654   0.769  0.3165  0.6938  0.0088
  839MOL0     C10625   5.845  10.752   0.664  0.8829 -0.7119 -0.2369
  839MOL0     C10626   5.690  10.784   0.676 -0.5555 -0.0342  0.5314
  839MOL0     C10627   5.633  10.896   0.583 -0.5938 -0.2800  0.1060
  839MOL0     C10628   5.477  10.927   0.601  0.4241  0.3802 -0.1771
  839MOL0     C10629   5.396  10.813   0.556 -0.6312 -0.3237 -0.1480
  839MOL0     C10630   5.248  10.840   0.553 -0.3740  0.4638 -0.3253
  839MOL0     C10631   5.192  10.850   0.699 -0.0614 -0.0599  0.0601
  839MOL0     C10632   5.060  10.903   0.702  0.2987 -0.1164 -0.4418
  839MOL0     N10633   4.974  10.796   0.760  0.2531 -0.1506 -0.3857
  839MOL0     C10634   4.904  10.705   0.683 -0.2713  0.1367  0.1764
  839MOL0     C10635   4.798  10.670   0.759 -0.4168  1.1906 -0.6909
  839MOL0     C10636   4.690  10.571   0.721  0.2318 -0.4692  1.1975
  839MOL0     C10637   4.556  10.642   0.722  0.0094  0.6538  0.4533
  839MOL0     C10638   4.441  10.530   0.688 -0.9449  0.7894  0.4964
  839MOL0     C10639   4.313  10.616   0.684 -0.5304 -0.5434 -0.2379
  839MOL0     O10640   4.200  10.528   0.652 -0.7001 -0.4637  0.0779
  839MOL0     C10641   4.079  10.580   0.670 -0.1111 -0.2591 -0.0433
  839MOL0     C10642   4.045  10.715   0.701  0.9216 -0.0353 -0.1390
  839MOL0     C10643   3.910  10.765   0.724 -0.3399  1.3770 -0.8528
  839MOL0     C10644   3.802  10.673   0.716  0.3697 -1.3083  0.6304
  839MOL0     C10645   3.655  10.710   0.721 -0.0582  0.1361  0.0305
  839MOL0     O10646   3.637  10.843   0.743  0.4338 -0.1509  0.1084
  839MOL0     C10647   3.509  10.893   0.737  0.0337 -0.5517  0.1889
  839MOL0     C10648   3.474  10.985   0.639 -0.2854  0.0383 -0.3868
  839MOL0     C10649   3.360  11.062   0.643  0.6472 -0.3768 -1.2421
  839MOL0     C10650   3.256  11.032   0.742  0.1283 -0.6903  0.7246
  839MOL0     O10651   3.130  11.090   0.732 -0.1896  0.6322 -0.2263
  839MOL0     C10652   3.091  11.151   0.609  1.0416 -0.2684  1.1247
  839MOL0     C10653   2.955  11.218   0.648  0.3222  0.2389 -0.5335
  839MOL0     C10654   2.842  11.123   0.679  0.3427 -0.2935 -0.1436
  839MOL0     C10655   2.757  11.169   0.797  0.3120 -0.6425 -0.5898
  839MOL0     C10656   2.636  11.087   0.793  1.2641  0.1584  0.3438
  839MOL0     C10657   2.549  11.128   0.908 -0.2699  0.3435  0.2270
  839MOL0     C10658   2.436  11.039   0.946 -0.2861 -0.3329 -0.8669
  839MOL0     C10659   2.336  11.018   0.832  0.6812 -1.0129  0.5583
  839MOL0    Cl10660   2.250  11.189   0.802 -0.0017  0.1675  0.3922
  839MOL0     C10661   3.294  10.946   0.846 -0.4532 -0.0762 -0.3527
  839MOL0     C10662   3.418  10.873   0.852  0.2391 -0.3491  0.1128
  839MOL0     O10663   3.563  10.626   0.730 -0.7507  0.1990  0.8762
  839MOL0     C10664   3.834  10.539   0.680  0.4003 -0.0591 -0.0359
  839MOL0     C10665   3.971  10.494   0.668 -0.6602  0.6574 -0.8755
  839MOL0     N10666   4.800  10.742   0.877  0.1294  0.2079 -0.0961
  839MOL0     N10667   4.906  10.809   0.873  0.3653 -1.0005 -1.0348
  839MOL0     C10668   6.113  10.707   0.762 -0.5255 -0.2518 -0.9424
  839MOL0     C10669   6.244  10.663   0.809  1.4314  0.4060 -0.6651
  839MOL0     C10670   6.569  10.370   0.906  0.3112 -0.0236  0.0088
  839MOL0     C10671   6.616  10.247   0.857  0.5869  0.4566 -0.6107
  839MOL0     C10672   6.745  10.202   0.866 -0.2389  0.4956  0.4221
  839MOL0     C10673   6.835  10.284   0.933 -0.3108 -0.0101 -0.2624
  839MOL0     O10674   6.971  10.264   0.933  0.3066 -0.0739  0.3255
  839MOL0     C10675   7.019  10.123   0.932  0.2739  0.1909  0.4691
  839MOL0     C10676   7.177  10.123   0.944  0.4753  0.0505  0.3993
  839MOL0     C10677   7.239  10.218   0.847  0.0584  0.2571 -0.0833
  839MOL0     C10678   7.393  10.190   0.832  0.9716  0.9197  0.9381
  839MOL0     C10679   7.479  10.188   0.953  0.3087 -0.2290 -0.0647
  839MOL0     C10680   7.543  10.164   1.049 -0.7265  0.0607 -0.0190
  839MOL0     C10681   6.795  10.408   0.992 -0.0817  0.7933 -0.1129
  839MOL0     C10682   6.660  10.443   0.980  0.6221 -0.2790 -0.5868
  839MOL0     H10683   6.146  10.438   1.050 -6.1227 -0.7269 -0.2892
  839MOL0     H10684   5.912  10.511   0.961  0.5103 -1.7125 -1.0574
  839MOL0     H10685   5.878  10.702   0.572  0.2218  0.0542 -0.8992
  839MOL0     H10686   5.901  10.845   0.675  1.3918 -1.2010  1.7281
  839MOL0     H10687   5.677  10.805   0.782  1.9923  0.5408  0.7963
  839MOL0     H10688   5.636  10.692   0.651 -1.7244  0.8596 -0.3599
  839MOL0     H10689   5.656  10.864   0.481  0.0020 -2.5029  0.8820
  839MOL0     H10690   5.693  10.984   0.607 -1.6125 -0.1660  2.5381
  839MOL0     H10691   5.450  10.965   0.701  2.2927  1.9231 -0.2009
  839MOL0     H10692   5.453  10.999   0.522 -0.8833 -2.0291 -2.0976
  839MOL0     H10693   5.433  10.731   0.619 -0.0142 -0.2704 -0.4281
  839MOL0     H10694   5.423  10.780   0.455 -0.3569  1.7735 -0.8146
  839MOL0     H10695   5.206  10.763   0.487  0.6979 -1.2064  0.8623
  839MOL0     H10696   5.238  10.933   0.496  0.5044  0.0230 -1.2449
  839MOL0     H10697   5.210  10.766   0.766 -3.1107  1.5870  3.2835
  839MOL0     H10698   5.249  10.927   0.751  0.8684 -0.5195 -0.2684
  839MOL0     H10699   5.020  10.934   0.605 -1.2414 -1.2203 -0.1975
  839MOL0     H10700   5.055  10.983   0.778 -2.8636 -0.6039  0.0270
  839MOL0     H10701   4.924  10.666   0.584  2.0018  1.0535  0.2073
  839MOL0     H10702   4.679  10.482   0.784  0.8800 -2.2312 -1.0339
  839MOL0     H10703   4.692  10.546   0.615 -1.3466  1.9100  0.5292
  839MOL0     H10704   4.565  10.721   0.646  0.6521 -1.1040 -1.4009
  839MOL0     H10705   4.528  10.677   0.822  1.1777 -3.0832  2.2564
  839MOL0     H10706   4.471  10.473   0.600  1.0368 -0.3602  1.8415
  839MOL0     H10707   4.440  10.461   0.772  1.9016  1.9582  1.6215
  839MOL0     H10708   4.307  10.692   0.606 -3.6724  0.9061  1.2611
  839MOL0     H10709   4.298  10.670   0.778 -0.3065 -0.3107 -0.3355
  839MOL0     H10710   4.120  10.793   0.706 -1.4358  2.2258  2.2519
  839MOL0     H10711   3.905  10.869   0.756  2.9353  0.8428  1.9168
  839MOL0     H10712   3.547  11.018   0.567  1.0564  1.7876  1.6505
  839MOL0     H10713   3.346  11.131   0.560  2.2933  1.0706 -0.3875
  839MOL0     H10714   3.082  11.072   0.533 -0.2920 -0.1622  1.1609
  839MOL0     H10715   3.153  11.232   0.570 -2.2132  0.9731 -2.0445
  839MOL0     H10716   2.929  11.279   0.561 -2.3193 -0.0077 -0.0168
  839MOL0     H10717   2.972  11.283   0.735 -2.5124  0.8194 -0.3111
  839MOL0     H10718   2.883  11.022   0.693 -1.1119 -1.2484 -2.2440
  839MOL0     H10719   2.786  11.108   0.586  0.0759  0.3609 -0.0922
  839MOL0     H10720   2.817  11.135   0.882  2.1929  0.2358 -1.5166
  839MOL0     H10721   2.747  11.278   0.799 -1.5203 -0.7787 -0.3468
  839MOL0     H10722   2.659  10.980   0.791 -1.2142 -0.4227  0.5780
  839MOL0     H10723   2.587  11.103   0.696  1.6317  0.0178  0.1283
  839MOL0     H10724   2.510  11.229   0.896  0.5741  0.6304 -0.1686
  839MOL0     H10725   2.616  11.147   0.993  2.0962  2.8427 -2.0210
  839MOL0     H10726   2.469  10.939   0.976 -2.4513  0.1057  3.8010
  839MOL0     H10727   2.391  11.081   1.036  0.4502 -2.4619  0.5707
  839MOL0     H10728   2.263  10.938   0.843  0.7851 -1.7260 -2.7463
  839MOL0     H10729   2.382  10.978   0.741  1.2858 -1.6317  1.1292
  839MOL0     H10730   3.229  10.931   0.932  0.1064 -0.5366 -0.0043
  839MOL0     H10731   3.434  10.805   0.935 -2.3659 -0.8398  0.2910
  839MOL0     H10732   3.752  10.472   0.657  2.4907 -2.3733 -1.3246
  839MOL0     H10733   4.001  10.391   0.655  1.6380  0.8167  2.0858
  839MOL0     H10734   6.104  10.788   0.690 -0.0637  0.3731 -0.3031
  839MOL0     H10735   6.333  10.693   0.754  2.2607  0.1424  0.4971
  839MOL0     H10736   6.552  10.167   0.821  2.8260 -1.1099 -1.3477
  839MOL0     H10737   6.784  10.111   0.822  1.8510  0.1327  2.8543
  839MOL0     H10738   7.011  10.088   0.829  0.8254 -1.0031  0.8151
  839MOL0     H10739   6.957  10.061   0.997 -3.7632 -0.1537 -3.2479
  839MOL0     H10740   7.208  10.163   1.041  2.8008  1.3242 -0.7914
  839MOL0     H10741   7.222  10.024   0.935  2.8435  1.1444 -0.4673
  839MOL0     H10742   7.224  10.321   0.883 -1.5357  0.6853 -1.7596
  839MOL0     H10743   7.186  10.201   0.753  2.3860 -1.3319 -1.1936
  839MOL0     H10744   7.407  10.091   0.787 -2.8795 -0.5539  2.5525
  839MOL0     H10745   7.417  10.275   0.767  0.4773  1.1296  1.0320
  839MOL0     H10746   7.615  10.139   1.123 -0.0499  1.8469 -0.0224
  839MOL0     H10747   6.855  10.472   1.055 -1.6488  0.3937  1.8782
  839MOL0     H10748   6.631  10.534   1.030  1.3832 -0.6629  0.6064
  840MOL0     O10749   2.958   8.842   5.334  0.0067 -0.8604  0.5150
  840MOL0     C10750   2.935   8.722   5.347 -1.1753  0.9878  0.7595
  840MOL0     O10751   3.015   8.619   5.296  0.8140 -0.1224  0.7456
  840MOL0     C10752   3.112   8.646   5.205 -0.2770 -0.7597  0.4469
  840MOL0     C10753   3.110   8.748   5.104  0.5067 -0.3532 -0.2286
  840MOL0     C10754   3.204   8.753   5.005 -0.1597  0.2256 -0.0837
  840MOL0     C10755   3.324   8.678   5.026  0.7043  0.0810  0.6439
  840MOL0     O10756   3.428   8.697   4.936  0.3241 -1.1435 -0.3253
  840MOL0     C10757   3.565   8.699   4.978 -0.2405 -0.0392  0.3991
  840MOL0     C10758   3.658   8.701   4.855  0.6544  0.5904 -0.2683
  840MOL0     C10759   3.644   8.811   4.755 -0.2272 -0.2960 -0.5869
  840MOL0     C10760   3.739   8.795   4.633  0.2006 -0.5263  0.8134
  840MOL0     C10761   3.891   8.761   4.660  0.1454  0.5437 -0.0841
  840MOL0     C10762   3.965   8.872   4.727 -0.1010  0.3192 -0.4328
  840MOL0     C10763   3.971   8.997   4.626  0.6964  0.5783  0.3092
  840MOL0     C10764   4.046   9.109   4.680 -0.3663 -0.0387  0.1487
  840MOL0     N10765   4.186   9.074   4.709 -0.5274  0.4377 -0.7781
  840MOL0     C10766   4.269   9.011   4.618 -0.0544 -0.3767  0.4277
  840MOL0     C10767   4.391   9.001   4.680  0.0993 -0.2273  0.4324
  840MOL0     C10768   4.502   8.908   4.631  0.4740 -0.4259  0.5347
  840MOL0     C10769   4.484   8.765   4.666 -0.4285  0.3571 -0.4756
  840MOL0     C10770   4.614   8.678   4.627 -0.7816  0.3658 -0.0484
  840MOL0     C10771   4.608   8.530   4.678 -0.9093 -0.4292 -0.8071
  840MOL0     O10772   4.530   8.439   4.603 -0.6847  0.6103  0.0578
  840MOL0     C10773   4.397   8.433   4.615  0.1233  0.7707 -0.4327
  840MOL0     C10774   4.320   8.470   4.723  1.0506  0.6129  0.0321
  840MOL0     C10775   4.175   8.449   4.723  0.4322  0.5630  0.0586
  840MOL0     C10776   4.113   8.391   4.614  0.0230 -0.1725  0.6422
  840MOL0     C10777   3.973   8.350   4.616  0.1493  0.6116  0.9526
  840MOL0     O10778   3.909   8.324   4.501  0.6520  0.1066  0.6285
  840MOL0     C10779   3.774   8.330   4.505  0.0451  0.0276 -0.6553
  840MOL0     C10780   3.720   8.451   4.546 -0.5094  0.2389  0.2057
  840MOL0     C10781   3.590   8.474   4.532  0.3157 -1.0667  1.5209
  840MOL0     C10782   3.498   8.380   4.488 -0.5607  1.2649  1.0754
  840MOL0     O10783   3.367   8.408   4.500  1.1717 -0.0934  0.7066
  840MOL0     C10784   3.274   8.321   4.432  0.2362 -0.7661 -0.1718
  840MOL0     C10785   3.125   8.375   4.452 -0.5389  0.5077  0.3565
  840MOL0     C10786   3.027   8.272   4.386 -0.2605  0.1066 -0.4247
  840MOL0     C10787   2.886   8.286   4.457 -0.2449  0.8249 -0.2423
  840MOL0     C10788   2.784   8.204   4.389  0.1727  0.2289  1.6799
  840MOL0     C10789   2.751   8.270   4.260  0.1346  0.0675  0.2650
  840MOL0     C10790   2.607   8.248   4.215  0.6805 -0.3151  0.3656
  840MOL0     C10791   2.585   8.103   4.188 -0.2058  0.6139  0.7852
  840MOL0    Cl10792   2.602   8.059   4.013  0.1409  0.2585  0.2146
  840MOL0     C10793   3.546   8.262   4.432 -0.7578  0.0165 -0.4685
  840MOL0     C10794   3.693   8.234   4.434  0.0977 -0.3587 -0.2766
  840MOL0     O10795   3.930   8.340   4.726 -0.4780 -0.4099 -0.1286
  840MOL0     C10796   4.195   8.351   4.499 -0.0314  0.1269 -0.3159
  840MOL0     C10797   4.334   8.375   4.505  0.1471  0.6777  0.4843
  840MOL0     N10798   4.369   9.036   4.813 -0.2725 -0.0575  0.6795
  840MOL0     N10799   4.251   9.082   4.827  0.5408  0.1929  0.9050
  840MOL0     C10800   3.330   8.590   5.130  0.7480  0.4779 -0.4012
  840MOL0     C10801   3.222   8.572   5.218 -0.5532 -0.1432 -0.0279
  840MOL0     C10802   2.830   8.679   5.440  0.4707  0.0564 -0.4373
  840MOL0     C10803   2.736   8.772   5.499  0.0845 -0.4822  1.3965
  840MOL0     C10804   2.635   8.739   5.586  0.0488  0.3398 -0.9679
  840MOL0     C10805   2.623   8.605   5.631  0.3388  0.3996  0.0346
  840MOL0     O10806   2.518   8.578   5.719  0.4741  0.3148 -0.5893
  840MOL0     C10807   2.509   8.435   5.769  0.3802 -0.0411  0.7943
  840MOL0     C10808   2.367   8.400   5.828 -0.2338  0.0690 -0.0801
  840MOL0     C10809   2.247   8.452   5.754 -0.3413  0.4950 -0.4318
  840MOL0     C10810   2.121   8.463   5.835  0.5821 -0.1013  0.5296
  840MOL0     C10811   2.003   8.427   5.759  0.3511 -0.5244 -0.2218
  840MOL0     C10812   1.909   8.404   5.691  0.6031  0.0851  0.4539
  840MOL0     C10813   2.713   8.507   5.577  0.0040 -0.0529  0.2684
  840MOL0     C10814   2.818   8.549   5.488  0.7749 -0.2610  0.1568
  840MOL0     H10815   3.027   8.818   5.105  1.2592  0.5630  0.7560
  840MOL0     H10816   3.201   8.837   4.936  0.4311  0.2315 -0.1035
  840MOL0     H10817   3.586   8.604   5.027 -0.6947 -0.1132  0.4523
  840MOL0     H10818   3.586   8.776   5.054  2.2905 -0.8276  0.5838
  840MOL0     H10819   3.644   8.606   4.803 -2.1443 -0.1503  1.6363
  840MOL0     H10820   3.761   8.710   4.893 -0.8187  3.4600  3.7764
  840MOL0     H10821   3.670   8.901   4.811 -5.4449  1.7286 -0.7949
  840MOL0     H10822   3.538   8.828   4.734 -0.1623  0.4099 -0.3738
  840MOL0     H10823   3.706   8.705   4.580  0.1853  0.0315 -0.1452
  840MOL0     H10824   3.721   8.875   4.561 -0.2666  0.2132  1.7256
  840MOL0     H10825   3.945   8.749   4.565 -0.3278 -1.7858 -0.1213
  840MOL0     H10826   3.905   8.667   4.714  1.2192 -1.4227 -3.4725
  840MOL0     H10827   4.069   8.844   4.746  1.0130  1.3272 -4.1791
  840MOL0     H10828   3.922   8.899   4.824 -0.5309  0.1496 -0.5731
  840MOL0     H10829   3.992   8.973   4.521 -0.0579  1.6597 -0.0998
  840MOL0     H10830   3.868   9.033   4.612 -1.2280 -2.9449  3.3954
  840MOL0     H10831   4.000   9.132   4.777 -3.4372 -0.3597 -1.1168
  840MOL0     H10832   4.046   9.198   4.616  3.0861  0.4568  0.6428
  840MOL0     H10833   4.254   8.980   4.515  0.7780  1.9817 -0.4900
  840MOL0     H10834   4.601   8.940   4.667  0.6509  0.0003 -0.3127
  840MOL0     H10835   4.522   8.916   4.524  4.3332 -1.3855  1.0091
  840MOL0     H10836   4.393   8.719   4.628 -0.9331 -2.3540  3.3984
  840MOL0     H10837   4.492   8.761   4.776  2.1844  3.2910 -0.4198
  840MOL0     H10838   4.619   8.683   4.518 -2.9010 -0.7543 -0.2374
  840MOL0     H10839   4.702   8.726   4.672 -0.0260 -1.5991  0.6942
  840MOL0     H10840   4.573   8.537   4.781 -0.2157 -0.4177 -0.5700
  840MOL0     H10841   4.713   8.501   4.682 -0.4791  0.7847 -2.2977
  840MOL0     H10842   4.350   8.527   4.811 -2.0972  2.7631 -0.1194
  840MOL0     H10843   4.113   8.478   4.808 -0.4898 -0.0355 -0.3978
  840MOL0     H10844   3.786   8.520   4.596 -1.8706  0.2553  2.1347
  840MOL0     H10845   3.543   8.564   4.570 -4.3787 -2.0053 -1.2520
  840MOL0     H10846   3.276   8.222   4.478 -0.9697 -0.1522  1.3094
  840MOL0     H10847   3.292   8.318   4.324  1.0344 -1.9701 -0.0224
  840MOL0     H10848   3.115   8.473   4.404  1.9092  0.7953  0.3370
  840MOL0     H10849   3.099   8.389   4.558  0.2016 -1.8174  0.8987
  840MOL0     H10850   3.066   8.170   4.381  1.1391  0.6355 -0.7963
  840MOL0     H10851   3.013   8.305   4.282  0.8331  3.0638  0.2496
  840MOL0     H10852   2.883   8.245   4.558  1.4281 -1.2905 -0.9928
  840MOL0     H10853   2.866   8.391   4.478  0.4787  0.6931  1.2387
  840MOL0     H10854   2.700   8.201   4.458 -0.1852  0.6414  1.2727
  840MOL0     H10855   2.820   8.102   4.374 -0.2120  0.3702 -0.5125
  840MOL0     H10856   2.816   8.233   4.180  0.7403  1.4634  0.0909
  840MOL0     H10857   2.771   8.377   4.267  0.3381  0.1067 -0.8501
  840MOL0     H10858   2.539   8.275   4.296 -1.0903  0.1165 -1.1652
  840MOL0     H10859   2.569   8.305   4.129  0.8087 -1.3402 -0.3872
  840MOL0     H10860   2.477   8.098   4.203 -0.5745 -4.1435 -1.4020
  840MOL0     H10861   2.649   8.036   4.247  0.3940  0.3547 -0.1450
  840MOL0     H10862   3.480   8.192   4.382 -0.5579  0.1018 -0.8596
  840MOL0     H10863   3.736   8.144   4.391 -4.0552 -1.4579 -2.6323
  840MOL0     H10864   4.159   8.303   4.409  2.6100  0.4303 -1.6460
  840MOL0     H10865   4.404   8.363   4.423 -1.7769 -0.2166 -1.0946
  840MOL0     H10866   3.416   8.526   5.147  0.2001 -0.2083 -0.1476
  840MOL0     H10867   3.216   8.502   5.301 -1.9889  2.0582  1.8860
  840MOL0     H10868   2.727   8.873   5.460 -3.2213 -1.3672 -0.5370
  840MOL0     H10869   2.562   8.813   5.616  1.2131  0.9528  0.5134
  840MOL0     H10870   2.581   8.410   5.848 -1.3406  0.0276  2.4802
  840MOL0     H10871   2.523   8.359   5.692 -0.9276 -2.0915  2.4789
  840MOL0     H10872   2.357   8.291   5.838  1.6734  0.0373  2.5339
  840MOL0     H10873   2.367   8.445   5.927 -2.1432 -0.1965  0.0829
  840MOL0     H10874   2.228   8.391   5.665  1.0284 -3.1693  1.5845
  840MOL0     H10875   2.268   8.555   5.724 -0.4272  0.5217 -0.4021
  840MOL0     H10876   2.126   8.405   5.928  0.9957 -1.9327 -0.5881
  840MOL0     H10877   2.115   8.565   5.873  2.7214  0.2211  0.1096
  840MOL0     H10878   1.829   8.392   5.621  2.1909  0.4253 -1.4925
  840MOL0     H10879   2.718   8.398   5.581  2.0751 -0.1319 -1.9574
  840MOL0     H10880   2.887   8.479   5.442  1.9024 -0.5380  2.1650
  841MOL0     O10881   2.506   2.589   9.980  0.0114 -0.0917  0.0492
  841MOL0     C10882   2.493   2.560  10.100  0.7712 -0.4442  0.0496
  841MOL0     O10883   2.541   2.637  10.201 -0.1171 -0.1089  0.2083
  841MOL0     C10884   2.619   2.741  10.182  0.6370 -0.0170 -0.0693
  841MOL0     C10885   2.746   2.724  10.122 -0.6512 -1.1735 -0.1902
  841MOL0     C10886   2.840   2.835  10.122  0.1468  1.0799 -0.2422
  841MOL0     C10887   2.804   2.960  10.172  1.0753  0.2502 -0.4452
  841MOL0     O10888   2.901   3.056  10.180 -0.7230 -0.2347  0.0942
  841MOL0     C10889   2.963   3.094  10.049  0.2020 -0.3345  0.1997
  841MOL0     C10890   2.880   3.148   9.934 -0.0189  0.3330 -0.2467
  841MOL0     C10891   2.831   3.299   9.971  0.6372  1.2559  0.3239
  841MOL0     C10892   2.736   3.357   9.874  1.3006 -0.3604 -0.5887
  841MOL0     C10893   2.805   3.392   9.745  0.3320  0.7723 -0.8571
  841MOL0     C10894   2.714   3.459   9.647  0.3289  0.2693 -0.6568
  841MOL0     C10895   2.801   3.480   9.523 -0.2631  0.3606  0.9472
  841MOL0     C10896   2.731   3.547   9.404 -0.4296  0.1184  0.1494
  841MOL0     N10897   2.651   3.452   9.325  1.0124  0.8464  0.2972
  841MOL0     C10898   2.616   3.324   9.362 -0.7140  0.8528 -0.1012
  841MOL0     C10899   2.532   3.285   9.267  0.2911  0.1872  0.2172
  841MOL0     C10900   2.482   3.143   9.284  0.4769  0.6186  0.1592
  841MOL0     C10901   2.354   3.140   9.367  0.4731 -0.0621  1.1762
  841MOL0     C10902   2.247   3.219   9.282  1.0386  0.7964 -0.7408
  841MOL0     C10903   2.105   3.204   9.353  0.9067  0.6733 -0.1807
  841MOL0     O10904   2.081   3.063   9.383 -0.0341 -0.2083 -0.7699
  841MOL0     C10905   1.954   3.032   9.401 -0.1214  0.7911 -1.3221
  841MOL0     C10906   1.924   2.898   9.406 -0.3335  0.3298  0.8877
  841MOL0     C10907   1.798   2.838   9.414 -0.1749  0.1297  0.6573
  841MOL0     C10908   1.680   2.917   9.417 -0.4592  0.1302 -0.8708
  841MOL0     C10909   1.548   2.848   9.434  1.0359 -1.7711  0.6756
  841MOL0     O10910   1.540   2.720   9.422 -0.0657  0.7929 -0.2494
  841MOL0     C10911   1.433   2.638   9.468  0.9175 -0.0295 -0.6030
  841MOL0     C10912   1.329   2.681   9.551  0.6383 -0.1651 -0.0739
  841MOL0     C10913   1.222   2.591   9.581 -0.2632  0.4139  0.0038
  841MOL0     C10914   1.218   2.461   9.533  0.0888  0.5576  0.4723
  841MOL0     O10915   1.105   2.382   9.565  0.0130  0.1332 -0.2288
  841MOL0     C10916   1.059   2.290   9.462  0.0735  0.1860 -0.4305
  841MOL0     C10917   0.945   2.203   9.515 -0.1368  0.3062  0.1193
  841MOL0     C10918   0.829   2.278   9.571 -0.6779 -0.5631  0.1822
  841MOL0     C10919   0.709   2.190   9.606  0.2401  0.0217 -0.3508
  841MOL0     C10920   0.745   2.071   9.698  0.2393 -0.4986 -0.4257
  841MOL0     C10921   0.772   2.111   9.847  0.0645 -0.1722  0.2198
  841MOL0     C10922   0.648   2.167   9.913  0.8640  0.5458  0.3654
  841MOL0     C10923   0.668   2.186  10.070 -0.7315  0.4183 -0.0670
  841MOL0    Cl10924   0.694   2.036  10.158  0.2810  0.1454  0.7087
  841MOL0     C10925   1.332   2.414   9.465  0.4147  0.4662 -0.2357
  841MOL0     C10926   1.435   2.507   9.426 -0.4934  1.4407 -0.2868
  841MOL0     O10927   1.450   2.922   9.455  0.3818  0.1540 -0.2557
  841MOL0     C10928   1.704   3.058   9.434  0.5148  0.5736  0.4926
  841MOL0     C10929   1.833   3.105   9.420  0.2691 -0.5643 -0.4255
  841MOL0     N10930   2.501   3.384   9.178  0.1162  0.2689  0.2654
  841MOL0     N10931   2.572   3.488   9.215 -0.3038  0.0876  0.0591
  841MOL0     C10932   2.675   2.976  10.215  0.4566 -0.0464  0.6176
  841MOL0     C10933   2.582   2.870  10.226 -0.2717  0.4696 -0.5809
  841MOL0     C10934   2.433   2.427  10.124  0.0873  0.1036  1.0692
  841MOL0     C10935   2.417   2.328  10.029  0.9675 -1.4041 -0.0529
  841MOL0     C10936   2.328   2.219  10.052 -0.6576  0.8325 -0.5483
  841MOL0     C10937   2.270   2.194  10.172 -0.3782 -0.9299  0.0042
  841MOL0     O10938   2.178   2.098  10.202  0.3316 -0.7541 -0.4762
  841MOL0     C10939   2.077   2.050  10.110 -0.2159 -0.5324 -0.6310
  841MOL0     C10940   1.961   2.001  10.185  0.4297 -0.7914 -0.8350
  841MOL0     C10941   1.900   2.099  10.279 -0.3638 -0.8193 -1.0713
  841MOL0     C10942   1.864   2.238  10.218 -0.4295  0.0508 -0.5630
  841MOL0     C10943   1.769   2.300  10.310  0.1942 -0.2201  0.1235
  841MOL0     C10944   1.687   2.335  10.394  0.3077 -0.0362  0.4090
  841MOL0     C10945   2.294   2.294  10.271 -0.4567 -0.4693 -0.1785
  841MOL0     C10946   2.374   2.408  10.251 -0.1674 -0.3898  0.6754
  841MOL0     H10947   2.764   2.628  10.075  0.4663 -1.6200  1.0656
  841MOL0     H10948   2.946   2.827  10.100  0.1619 -2.2221  0.5661
  841MOL0     H10949   3.009   3.011   9.995 -0.2024 -1.4258  1.4719
  841MOL0     H10950   3.041   3.167  10.072 -0.6292 -0.1148  2.6380
  841MOL0     H10951   2.795   3.081   9.918 -0.3231  1.2573 -2.9686
  841MOL0     H10952   2.935   3.154   9.840 -3.6845 -1.5336 -2.7929
  841MOL0     H10953   2.923   3.355   9.986  0.8885  0.4697  1.9383
  841MOL0     H10954   2.773   3.298  10.064 -0.0152  1.2093 -0.0725
  841MOL0     H10955   2.655   3.284   9.860  1.7677 -1.6840  2.7458
  841MOL0     H10956   2.685   3.431   9.937  0.3330 -3.0537  2.0901
  841MOL0     H10957   2.858   3.302   9.711  2.5199  1.8988 -0.6272
  841MOL0     H10958   2.873   3.473   9.771  2.1587 -1.3257  1.3994
  841MOL0     H10959   2.665   3.547   9.691  2.1229  0.5309  0.9424
  841MOL0     H10960   2.637   3.388   9.615  0.8952 -0.2908 -0.7951
  841MOL0     H10961   2.883   3.550   9.542  2.8206 -1.5553 -3.5443
  841MOL0     H10962   2.849   3.387   9.493  2.1486  1.2282  1.8097
  841MOL0     H10963   2.801   3.588   9.331 -1.3796 -0.8678 -1.3577
  841MOL0     H10964   2.671   3.629   9.443  0.0798 -0.3570  2.0433
  841MOL0     H10965   2.659   3.262   9.440 -1.4077 -2.8638 -2.4202
  841MOL0     H10966   2.546   3.074   9.341 -1.5555 -1.2132  0.3422
  841MOL0     H10967   2.483   3.097   9.185  4.9996  0.5642 -0.0025
  841MOL0     H10968   2.361   3.183   9.468  0.9050 -2.4234  2.2053
  841MOL0     H10969   2.319   3.037   9.374 -2.6708  0.5571 -2.0862
  841MOL0     H10970   2.271   3.325   9.296  0.1276  1.1820 -1.9264
  841MOL0     H10971   2.248   3.181   9.179  3.0842 -4.3625  0.8841
  841MOL0     H10972   2.027   3.238   9.284  0.7576  0.1701 -0.2662
  841MOL0     H10973   2.098   3.262   9.446  0.4612  1.9618 -0.9800
  841MOL0     H10974   2.011   2.833   9.402 -0.4586  0.1725  0.7028
  841MOL0     H10975   1.796   2.730   9.408  2.8359  0.0738 -1.4782
  841MOL0     H10976   1.327   2.774   9.606  0.1997 -0.0260 -0.3232
  841MOL0     H10977   1.145   2.623   9.651  0.0468  2.0858 -0.3770
  841MOL0     H10978   1.141   2.223   9.433  0.8654  2.2043 -3.2257
  841MOL0     H10979   1.027   2.354   9.380  0.9149  1.8073  0.4428
  841MOL0     H10980   0.987   2.133   9.588  0.3554  0.6221  0.1419
  841MOL0     H10981   0.902   2.135   9.441  1.0586 -1.1641  0.7323
  841MOL0     H10982   0.792   2.347   9.494  1.4878 -0.7908 -1.1364
  841MOL0     H10983   0.866   2.346   9.649 -1.1771  2.4836 -2.0555
  841MOL0     H10984   0.632   2.258   9.644 -1.5213 -1.1024 -1.7715
  841MOL0     H10985   0.669   2.153   9.511 -3.9963 -2.3717  2.1088
  841MOL0     H10986   0.830   2.013   9.661 -0.1346 -0.6911 -0.9998
  841MOL0     H10987   0.662   2.000   9.696  1.8702 -2.4963 -2.5464
  841MOL0     H10988   0.852   2.185   9.837  0.0208 -0.2154 -0.4415
  841MOL0     H10989   0.823   2.021   9.883  4.4232  1.1321 -2.0285
  841MOL0     H10990   0.620   2.264   9.871  0.5357 -0.1287 -1.0030
  841MOL0     H10991   0.568   2.095   9.895  1.8666 -0.8491  1.2619
  841MOL0     H10992   0.581   2.235  10.113 -1.6845 -0.6243 -0.7457
  841MOL0     H10993   0.753   2.255  10.076  0.5386 -1.2040  1.4413
  841MOL0     H10994   1.339   2.308   9.439  0.1481  0.4087 -0.0785
  841MOL0     H10995   1.520   2.477   9.365 -1.4774 -0.9482 -0.5950
  841MOL0     H10996   1.622   3.129   9.441 -0.6567 -0.5027 -1.4054
  841MOL0     H10997   1.854   3.211   9.426  4.1181 -1.2674  2.7717
  841MOL0     H10998   2.639   3.072  10.249 -0.7578 -0.1999 -0.1834
  841MOL0     H10999   2.484   2.893  10.267  0.5221  4.1571 -0.3929
  841MOL0     H11000   2.461   2.339   9.931  0.9133 -1.0408 -0.0390
  841MOL0     H11001   2.308   2.150   9.971 -2.6858  0.6064  0.0892
  841MOL0     H11002   2.113   1.977  10.037  2.9718  0.7807 -0.5611
  841MOL0     H11003   2.055   2.138  10.049  1.2155  0.6316  0.4370
  841MOL0     H11004   1.885   1.969  10.112 -0.6751  0.1832 -0.1617
  841MOL0     H11005   1.980   1.913  10.246 -0.2915 -0.4316 -0.0677
  841MOL0     H11006   1.954   2.102  10.374 -0.0333 -1.1123 -1.2455
  841MOL0     H11007   1.802   2.058  10.306 -2.4238  3.1627 -1.7534
  841MOL0     H11008   1.953   2.301  10.223 -0.0349 -0.5887  1.1240
  841MOL0     H11009   1.824   2.222  10.118 -1.8575 -0.4411  0.0624
  841MOL0     H11010   1.621   2.377  10.468 -2.1464 -0.6789 -1.2858
  841MOL0     H11011   2.256   2.292  10.373 -1.1389 -2.4288 -0.4347
  841MOL0     H11012   2.388   2.483  10.329 -3.7467 -0.4845  1.5910
  842MOL0     O11013  10.613   4.925   1.280  0.4349 -0.3981  0.6761
  842MOL0     C11014  10.563   5.009   1.354  0.7506  1.3473  0.3040
  842MOL0     O11015  10.433   5.045   1.359 -0.1537  0.0741  0.1338
  842MOL0     C11016  10.344   4.948   1.298 -0.2748 -0.0373 -0.6079
  842MOL0     C11017  10.262   4.983   1.191  1.0306  0.2440  0.1800
  842MOL0     C11018  10.159   4.897   1.139 -0.6384  0.4510  0.7442
  842MOL0     C11019  10.144   4.773   1.204 -0.2018  0.5727 -0.1057
  842MOL0     O11020  10.047   4.687   1.153 -0.0010 -0.6985  0.2007
  842MOL0     C11021  10.000   4.574   1.227 -0.2688  0.1369 -1.1643
  842MOL0     C11022   9.909   4.489   1.134 -0.4946 -0.3679  0.1945
  842MOL0     C11023   9.844   4.372   1.206 -0.1645  0.7564 -0.3296
  842MOL0     C11024   9.725   4.398   1.296 -0.7283  0.3223 -0.9854
  842MOL0     C11025   9.633   4.268   1.321 -0.2096 -0.2443  0.1003
  842MOL0     C11026   9.498   4.324   1.363  0.5332 -0.6049 -0.8022
  842MOL0     C11027   9.386   4.214   1.372  0.4026 -0.2737  0.8914
  842MOL0     C11028   9.413   4.121   1.485 -0.7477 -0.1928  0.1024
  842MOL0     N11029   9.412   4.184   1.615  0.1351  0.0270  0.0047
  842MOL0     C11030   9.307   4.199   1.701 -0.1999 -0.1317  0.4103
  842MOL0     C11031   9.362   4.206   1.827  0.3773  0.3441  0.1251
  842MOL0     C11032   9.275   4.224   1.951 -0.4753  0.2225  0.9880
  842MOL0     C11033   9.330   4.342   2.025  0.3590 -0.6556  1.2488
  842MOL0     C11034   9.241   4.365   2.142  0.3615 -0.1075 -0.6577
  842MOL0     C11035   9.247   4.507   2.210  0.0390  0.0825 -0.4057
  842MOL0     O11036   9.382   4.542   2.215  0.0636  0.2905 -0.1044
  842MOL0     C11037   9.422   4.642   2.303  0.1109 -0.1298  0.1416
  842MOL0     C11038   9.566   4.664   2.316  0.5380 -0.2277 -0.0522
  842MOL0     C11039   9.613   4.756   2.398 -0.2906  0.0806 -0.4675
  842MOL0     C11040   9.522   4.841   2.467  0.0701  0.3261  0.8398
  842MOL0     C11041   9.582   4.940   2.560  0.5330  0.8138  0.7110
  842MOL0     O11042   9.714   4.965   2.549  0.0964  0.1665 -0.0537
  842MOL0     C11043   9.771   5.074   2.614 -0.1771  0.0138  0.6331
  842MOL0     C11044   9.857   5.154   2.537  0.5808 -0.4515 -0.1899
  842MOL0     C11045   9.937   5.249   2.607  0.1712  0.3715  0.1662
  842MOL0     C11046   9.947   5.255   2.746  0.4956 -0.2223  0.1562
  842MOL0     O11047  10.015   5.337   2.826  0.0058 -0.2803 -0.4790
  842MOL0     C11048  10.131   5.403   2.759 -0.3100  0.0376 -1.0974
  842MOL0     C11049  10.099   5.537   2.706 -0.9581  0.8270 -0.2491
  842MOL0     C11050  10.057   5.629   2.830 -0.1359 -0.1830  0.5683
  842MOL0     C11051  10.041   5.776   2.774 -0.2030 -0.1477 -0.4579
  842MOL0     C11052   9.942   5.856   2.866  0.1188  0.4977 -0.8629
  842MOL0     C11053   9.945   6.015   2.853  0.5886  0.5522 -0.4422
  842MOL0     C11054   9.814   6.082   2.901  0.1607 -0.3269 -0.2868
  842MOL0     C11055   9.785   6.077   3.052  0.2398  0.0206  0.0921
  842MOL0    Cl11056   9.885   6.205   3.139  0.4329  0.2849  0.3226
  842MOL0     C11057   9.862   5.175   2.818  0.0056  0.5674 -0.5633
  842MOL0     C11058   9.783   5.083   2.754  0.3652 -0.2145  0.1266
  842MOL0     O11059   9.511   4.987   2.643  0.1898 -0.8569  0.7930
  842MOL0     C11060   9.380   4.833   2.440 -1.2688 -0.2075 -0.5695
  842MOL0     C11061   9.335   4.734   2.356  0.5870  0.1490  0.8380
  842MOL0     N11062   9.502   4.193   1.822  0.9790 -0.5037 -0.5863
  842MOL0     N11063   9.528   4.185   1.694  0.0091 -0.1546  0.2996
  842MOL0     C11064  10.215   4.752   1.325 -0.5090 -0.3756 -0.2498
  842MOL0     C11065  10.309   4.836   1.373 -0.9649 -0.3296 -0.0040
  842MOL0     C11066  10.656   5.096   1.416  0.0310  0.4645  0.0005
  842MOL0     C11067  10.633   5.235   1.394 -0.1451  0.6217  0.7071
  842MOL0     C11068  10.712   5.335   1.441 -0.0221 -0.4966 -0.1331
  842MOL0     C11069  10.818   5.299   1.511  0.1441 -0.3034 -0.2164
  842MOL0     O11070  10.893   5.402   1.568  0.3112  0.0391  0.2843
  842MOL0     C11071  11.024   5.379   1.617 -0.3862 -0.2317 -0.0552
  842MOL0     C11072  11.042   5.340   1.765 -0.4960 -0.6247  0.2234
  842MOL0     C11073  11.090   5.461   1.847  0.3338 -0.2805  0.6122
  842MOL0     C11074  11.115   5.423   1.990  0.1072 -0.4883 -0.1235
  842MOL0     C11075  10.991   5.409   2.070 -0.3140  0.1458  0.4378
  842MOL0     C11076  10.886   5.382   2.116  1.1011  1.0013  0.6930
  842MOL0     C11077  10.845   5.163   1.545 -1.0645  1.3080  0.9981
  842MOL0     C11078  10.767   5.064   1.501 -0.2565 -0.3003  0.1141
  842MOL0     H11079  10.289   5.070   1.131  2.0985  1.1716  1.9120
  842MOL0     H11080  10.103   4.925   1.050  2.1071  0.2050 -1.2247
  842MOL0     H11081   9.952   4.595   1.323 -1.6924 -0.3349 -1.7433
  842MOL0     H11082  10.082   4.510   1.259 -0.9283  1.1956  3.1778
  842MOL0     H11083   9.975   4.440   1.062  2.8423  1.2546  1.9021
  842MOL0     H11084   9.833   4.551   1.084  1.9120  0.9241 -2.0915
  842MOL0     H11085   9.904   4.297   1.258 -3.7893 -0.7382  2.1250
  842MOL0     H11086   9.806   4.307   1.127 -1.7028  1.3635 -0.1157
  842MOL0     H11087   9.749   4.445   1.392  1.6597  0.0497 -1.3837
  842MOL0     H11088   9.656   4.465   1.244 -1.7687  0.8151  0.9159
  842MOL0     H11089   9.678   4.207   1.399  0.3610 -0.1398 -0.1400
  842MOL0     H11090   9.624   4.214   1.226  0.3583 -1.1075  0.5288
  842MOL0     H11091   9.452   4.395   1.294 -1.3016 -0.6516  0.3044
  842MOL0     H11092   9.506   4.372   1.461 -1.7190  0.6828 -1.1899
  842MOL0     H11093   9.289   4.263   1.385 -1.5592 -3.4167 -0.6511
  842MOL0     H11094   9.377   4.156   1.280  2.7455 -0.8260  0.9595
  842MOL0     H11095   9.498   4.057   1.462 -0.0785  1.5272 -2.7095
  842MOL0     H11096   9.328   4.053   1.489 -2.8135  2.3099  1.3530
  842MOL0     H11097   9.209   4.240   1.679 -0.6124 -1.9343 -1.4127
  842MOL0     H11098   9.294   4.140   2.018 -2.2262  0.7280  2.1802
  842MOL0     H11099   9.168   4.235   1.932 -0.5063  1.9464  1.9277
  842MOL0     H11100   9.317   4.437   1.972  1.4311  0.8753  3.5635
  842MOL0     H11101   9.437   4.340   2.049  1.5119  1.0632 -2.8221
  842MOL0     H11102   9.138   4.352   2.107 -0.8326  2.3472  1.5758
  842MOL0     H11103   9.247   4.298   2.228 -2.3552 -1.9706 -1.7990
  842MOL0     H11104   9.203   4.504   2.310 -0.1829 -2.7633 -0.4989
  842MOL0     H11105   9.189   4.577   2.150 -0.2194 -0.4676 -0.8090
  842MOL0     H11106   9.620   4.591   2.256  2.0318  1.2821 -0.6337
  842MOL0     H11107   9.720   4.759   2.412 -0.2819 -2.0292  0.1516
  842MOL0     H11108   9.877   5.146   2.431 -2.1003 -2.6600 -0.6353
  842MOL0     H11109   9.991   5.307   2.533 -0.6382  1.2498  0.2479
  842MOL0     H11110  10.157   5.332   2.680 -1.9888 -1.1054 -0.6869
  842MOL0     H11111  10.220   5.404   2.823  2.8490 -2.0634 -4.9816
  842MOL0     H11112  10.014   5.524   2.638 -1.0265  0.4494 -0.0916
  842MOL0     H11113  10.193   5.575   2.666 -0.0050 -0.6471  0.4923
  842MOL0     H11114  10.123   5.626   2.917 -0.7504  0.5556  1.0749
  842MOL0     H11115   9.968   5.580   2.871 -0.6575 -0.3687 -0.7315
  842MOL0     H11116  10.136   5.829   2.768  0.7550 -1.9305 -2.9035
  842MOL0     H11117   9.996   5.779   2.674 -1.1135 -0.1089 -0.0511
  842MOL0     H11118   9.970   5.818   2.965 -2.1182 -1.6961 -0.9741
  842MOL0     H11119   9.843   5.823   2.833  0.6102 -1.8519 -0.2224
  842MOL0     H11120   9.969   6.046   2.751  1.1151 -1.4365 -0.9501
  842MOL0     H11121  10.026   6.061   2.910  0.7417 -0.1861 -0.0564
  842MOL0     H11122   9.816   6.189   2.881 -1.7841 -0.6102 -2.3651
  842MOL0     H11123   9.731   6.042   2.842 -0.6469  1.9190 -0.7716
  842MOL0     H11124   9.809   5.978   3.092  4.2849  0.7486 -0.0602
  842MOL0     H11125   9.681   6.098   3.079  0.5270  1.5512  0.0940
  842MOL0     H11126   9.843   5.174   2.925 -2.8784 -0.0034 -0.9896
  842MOL0     H11127   9.721   5.023   2.820 -2.1038  3.4938  1.5373
  842MOL0     H11128   9.315   4.901   2.495  0.5830  0.3190  1.0964
  842MOL0     H11129   9.230   4.731   2.326  1.2745 -2.9059 -1.7572
  842MOL0     H11130  10.182   4.664   1.380 -3.3856  1.5098  1.3245
  842MOL0     H11131  10.345   4.820   1.474 -1.8290 -1.1368  0.1886
  842MOL0     H11132  10.555   5.265   1.325  0.0382  0.0869  0.2616
  842MOL0     H11133  10.713   5.443   1.428  2.2607 -0.5533 -0.9381
  842MOL0     H11134  11.070   5.476   1.597 -0.5994 -0.1108  0.0342
  842MOL0     H11135  11.072   5.302   1.556  0.7865  0.3078  0.1574
  842MOL0     H11136  10.946   5.302   1.800  1.5805 -2.0410  5.1735
  842MOL0     H11137  11.112   5.258   1.783 -0.8755 -0.2790  4.0395
  842MOL0     H11138  11.031   5.552   1.846 -0.5986 -0.8553 -1.0700
  842MOL0     H11139  11.178   5.497   1.793 -1.2259 -0.3053 -2.1246
  842MOL0     H11140  11.158   5.324   2.007  0.6740 -0.0377  1.1350
  842MOL0     H11141  11.183   5.493   2.040  2.4594 -2.7478  0.0667
  842MOL0     H11142  10.788   5.359   2.153  1.2240 -1.4128 -0.2673
  842MOL0     H11143  10.934   5.118   1.590 -0.0274 -0.2606 -2.3212
  842MOL0     H11144  10.797   4.962   1.522  1.2139  0.4068  1.6318
  843MOL0     O11145   1.661   4.464  10.081 -0.0535 -0.0340  0.5802
  843MOL0     C11146   1.706   4.420   9.972  0.5177  0.0067  0.0185
  843MOL0     O11147   1.631   4.390   9.864  0.3603  0.3974  0.5145
  843MOL0     C11148   1.497   4.411   9.887  0.5922  0.4582 -0.6727
  843MOL0     C11149   1.439   4.520   9.822 -0.0759  0.3834 -0.1296
  843MOL0     C11150   1.302   4.548   9.837  0.4342 -1.2524  0.1363
  843MOL0     C11151   1.226   4.485   9.933 -0.1563  0.0594 -0.4639
  843MOL0     O11152   1.091   4.526   9.944 -0.0998 -0.2918  0.1495
  843MOL0     C11153   1.003   4.427   9.996 -1.1200 -0.2915  0.1444
  843MOL0     C11154   0.869   4.495   9.980  0.2906  0.2270 -0.7573
  843MOL0     C11155   0.774   4.401  10.033  0.3156  0.6096 -0.4890
  843MOL0     C11156   0.635   4.464  10.031 -0.0941  0.7126  0.7887
  843MOL0     C11157   0.530   4.366  10.083  1.0529 -0.1163  0.1903
  843MOL0     C11158   0.380   4.401  10.039  0.0029  0.2083 -0.2229
  843MOL0     C11159   0.285   4.326  10.125  0.0141 -0.1075 -0.4483
  843MOL0     C11160   0.139   4.381  10.121 -0.0336 -0.0958 -0.0940
  843MOL0     N11161   0.027   4.316  10.179 -0.2963  0.0327 -0.0485
  843MOL0     C11162  -0.103   4.321  10.138  0.1154  0.0825  0.5011
  843MOL0     C11163  -0.172   4.230  10.205  0.9092  0.4026 -1.0365
  843MOL0     C11164  -0.319   4.201  10.188 -0.2093 -0.8168 -0.2401
  843MOL0     C11165  -0.405   4.309  10.265 -0.1690 -0.8286  0.0518
  843MOL0     C11166  -0.409   4.271  10.419 -0.0527 -0.3568  0.2060
  843MOL0     C11167  -0.517   4.170  10.442  0.0665  0.5146 -0.2767
  843MOL0     O11168  -0.650   4.203  10.404  1.5242 -0.3104  0.0929
  843MOL0     C11169  -0.733   4.269  10.488  0.2043 -0.3492 -0.5233
  843MOL0     C11170  -0.698   4.323  10.615 -0.0419  0.2353  0.3392
  843MOL0     C11171  -0.801   4.390  10.691 -0.4679  0.3639 -0.2551
  843MOL0     C11172  -0.930   4.409  10.635  0.3492  0.1201 -0.2901
  843MOL0     C11173  -1.027   4.494  10.715  1.8921  0.2832  0.5990
  843MOL0     O11174  -1.156   4.499  10.666 -0.2730 -0.1113 -0.1784
  843MOL0     C11175  -1.265   4.543  10.739  0.2498 -0.3092  0.2810
  843MOL0     C11176  -1.270   4.626  10.857  0.4249  0.6831  0.0233
  843MOL0     C11177  -1.388   4.671  10.913  0.2091 -0.2317  0.0708
  843MOL0     C11178  -1.508   4.625  10.856  0.2345 -0.2806  0.5725
  843MOL0     O11179  -1.625   4.631  10.921 -0.3783 -0.4190 -0.0076
  843MOL0     C11180  -1.656   4.524  11.007  0.7041 -0.2576 -0.4035
  843MOL0     C11181  -1.773   4.567  11.099 -0.4459  0.3101  0.8096
  843MOL0     C11182  -1.895   4.594  11.021  0.4140  0.5014 -0.2655
  843MOL0     C11183  -2.012   4.647  11.115  0.7923 -0.1277  0.9509
  843MOL0     C11184  -2.131   4.690  11.021 -0.3503  0.4534  0.1333
  843MOL0     C11185  -2.192   4.578  10.938  0.2958  0.0197  0.0128
  843MOL0     C11186  -2.336   4.604  10.906  0.2849  0.5717  0.2345
  843MOL0     C11187  -2.413   4.482  10.840  0.0021 -0.7419  0.8402
  843MOL0    Cl11188  -2.580   4.523  10.841 -0.2321 -0.4371  0.8367
  843MOL0     C11189  -1.509   4.548  10.743 -0.7115  0.3667 -0.7652
  843MOL0     C11190  -1.389   4.508  10.680 -0.9966  0.8172  0.7133
  843MOL0     O11191  -0.990   4.535  10.823  0.1564 -0.1915  0.2417
  843MOL0     C11192  -0.968   4.348  10.520  0.6119 -0.0161 -0.1308
  843MOL0     C11193  -0.868   4.286  10.445  0.1900  0.3776  0.2283
  843MOL0     N11194  -0.079   4.175  10.300  0.1969 -0.3547 -0.2815
  843MOL0     N11195   0.031   4.228  10.282  0.5283  0.3449 -0.0975
  843MOL0     C11196   1.284   4.384  10.004 -0.0142  0.6973  0.6494
  843MOL0     C11197   1.418   4.335   9.981 -0.1828 -0.6298 -0.5766
  843MOL0     C11198   1.842   4.381   9.974  0.6978  0.0905 -0.1913
  843MOL0     C11199   1.919   4.383   9.858 -1.9281 -0.0631 -0.1822
  843MOL0     C11200   2.056   4.341   9.854 -0.1937  0.0350  0.0348
  843MOL0     C11201   2.114   4.289   9.971 -0.0570 -0.2062  0.0216
  843MOL0     O11202   2.246   4.242   9.972 -0.6932 -0.2362 -0.3432
  843MOL0     C11203   2.329   4.346  10.022 -0.5093 -0.3829 -0.4456
  843MOL0     C11204   2.473   4.313  10.029 -0.0578  0.6874  0.5992
  843MOL0     C11205   2.536   4.253   9.898 -0.2092  0.3632  0.5617
  843MOL0     C11206   2.528   4.341   9.773  0.2120  0.4611  0.0000
  843MOL0     C11207   2.575   4.481   9.787  0.8113  0.6083 -0.6546
  843MOL0     C11208   2.609   4.593   9.818  0.1036  0.1713 -0.5219
  843MOL0     C11209   2.033   4.289  10.089  0.0519  0.7146  0.1531
  843MOL0     C11210   1.903   4.334  10.091  0.2675  0.8289  0.8497
  843MOL0     H11211   1.499   4.581   9.754 -2.3246  3.0094  0.0598
  843MOL0     H11212   1.272   4.640   9.787  0.9505 -0.0416  1.9342
  843MOL0     H11213   1.027   4.414  10.102  2.3568 -0.9690 -0.6017
  843MOL0     H11214   1.015   4.334   9.941  0.3932 -0.3171  0.4642
  843MOL0     H11215   0.852   4.507   9.873 -0.0319  0.0452 -0.7280
  843MOL0     H11216   0.859   4.587  10.038 -2.4113 -0.8731  0.6802
  843MOL0     H11217   0.810   4.377  10.133 -0.4973  1.1085 -0.0733
  843MOL0     H11218   0.773   4.305   9.979 -0.1069 -0.8800  2.0374
  843MOL0     H11219   0.620   4.563  10.076  0.8156  0.2305  2.2304
  843MOL0     H11220   0.619   4.476   9.924  0.5312  3.3584  0.9257
  843MOL0     H11221   0.515   4.374  10.191 -4.1601  1.5056 -0.3484
  843MOL0     H11222   0.545   4.258  10.074  0.7977 -0.5692  3.8386
  843MOL0     H11223   0.360   4.371   9.936  1.2749 -1.4171 -0.0354
  843MOL0     H11224   0.369   4.509  10.048 -0.5105  0.4440 -2.8948
  843MOL0     H11225   0.280   4.226  10.081  1.7562 -0.5663  0.2947
  843MOL0     H11226   0.326   4.312  10.226  0.2160 -0.8478 -0.6337
  843MOL0     H11227   0.120   4.386  10.014 -2.7156  2.2202  0.3613
  843MOL0     H11228   0.140   4.487  10.149  1.0722 -0.0020 -0.4365
  843MOL0     H11229  -0.142   4.379  10.055 -2.3305 -4.2947 -1.7582
  843MOL0     H11230  -0.336   4.097  10.219  0.2690 -0.6079  0.7867
  843MOL0     H11231  -0.340   4.215  10.082  1.9286  1.9969 -0.4219
  843MOL0     H11232  -0.502   4.319  10.216  0.1563  0.5193 -0.3736
  843MOL0     H11233  -0.358   4.406  10.243 -2.1761  0.3281  0.5533
  843MOL0     H11234  -0.319   4.226  10.461 -1.2613 -1.2003  1.9848
  843MOL0     H11235  -0.438   4.353  10.485 -1.6813 -2.5850  2.4243
  843MOL0     H11236  -0.523   4.150  10.550 -2.3502 -0.5663 -0.5359
  843MOL0     H11237  -0.494   4.071  10.402  1.1285  0.5805  0.1510
  843MOL0     H11238  -0.600   4.306  10.658 -1.1358 -3.2380  1.8408
  843MOL0     H11239  -0.767   4.430  10.787 -0.0670 -0.5499 -0.0006
  843MOL0     H11240  -1.175   4.656  10.899  2.2985 -1.2654 -2.4746
  843MOL0     H11241  -1.374   4.724  11.007 -2.6028  1.0219 -0.0945
  843MOL0     H11242  -1.577   4.492  11.076  1.8305  0.2574 -1.4396
  843MOL0     H11243  -1.693   4.439  10.948 -0.5364  1.5040 -2.2947
  843MOL0     H11244  -1.751   4.661  11.151 -1.6287  2.8908 -2.9695
  843MOL0     H11245  -1.803   4.487  11.167  0.8474 -0.1053  0.9104
  843MOL0     H11246  -1.922   4.506  10.962  1.3264  0.4071 -0.5498
  843MOL0     H11247  -1.872   4.677  10.953 -0.0961  1.2035  0.3986
  843MOL0     H11248  -2.033   4.566  11.186 -0.6947  0.6713  1.4619
  843MOL0     H11249  -1.983   4.736  11.172  0.2552  0.4399  0.3504
  843MOL0     H11250  -2.103   4.769  10.949  0.1489  1.2429  1.1726
  843MOL0     H11251  -2.210   4.736  11.082 -1.0629  0.7160 -0.9454
  843MOL0     H11252  -2.197   4.486  10.998 -2.9009 -0.2717 -0.5317
  843MOL0     H11253  -2.129   4.563  10.850 -1.5893  2.0011 -1.7703
  843MOL0     H11254  -2.370   4.635  11.005  2.3150  0.7737  0.9281
  843MOL0     H11255  -2.346   4.689  10.838  0.9905 -1.5001 -2.6337
  843MOL0     H11256  -2.389   4.394  10.901  2.1212 -0.4471  0.4957
  843MOL0     H11257  -2.372   4.461  10.741 -0.6208 -0.7375  0.5740
  843MOL0     H11258  -1.602   4.507  10.704 -0.1785 -1.3996 -0.2777
  843MOL0     H11259  -1.391   4.451  10.587 -0.3243 -1.2779  1.9026
  843MOL0     H11260  -1.071   4.348  10.487  0.3472  0.3611  0.6955
  843MOL0     H11261  -0.900   4.235  10.355 -0.2460  0.0986  0.5375
  843MOL0     H11262   1.224   4.339  10.082 -0.0937  3.4408  2.3096
  843MOL0     H11263   1.472   4.260  10.039  4.5729  3.9007  1.7338
  843MOL0     H11264   1.879   4.417   9.763 -1.7238  0.8848  0.0662
  843MOL0     H11265   2.114   4.336   9.762  1.3347  0.6234  0.9280
  843MOL0     H11266   2.305   4.367  10.127  0.8393 -0.3304 -0.1302
  843MOL0     H11267   2.307   4.431   9.957 -3.4907 -1.6551 -1.2776
  843MOL0     H11268   2.524   4.405  10.061  0.3048  0.3610  0.9808
  843MOL0     H11269   2.482   4.243  10.112 -1.5314  0.4712  0.5941
  843MOL0     H11270   2.499   4.153   9.872  0.7374  0.0074  0.5397
  843MOL0     H11271   2.644   4.245   9.913 -0.1626 -0.5877 -0.1398
  843MOL0     H11272   2.589   4.303   9.691 -1.4166  2.8391 -2.5220
  843MOL0     H11273   2.426   4.335   9.733  0.4369 -1.0147 -0.4021
  843MOL0     H11274   2.634   4.688   9.860 -0.1265  0.3066 -0.6867
  843MOL0     H11275   2.089   4.249  10.173 -2.1508  0.9452  1.7938
  843MOL0     H11276   1.855   4.345  10.187 -0.2118  3.1784  0.4201
  844MOL0     O11277   2.302   0.983   4.743  0.2509  0.0055  0.9152
  844MOL0     C11278   2.340   0.861   4.749  0.4649  0.0020  0.9946
  844MOL0     O11279   2.255   0.754   4.715 -0.3197  0.2926 -0.7829
  844MOL0     C11280   2.144   0.760   4.629 -0.5246  0.5840 -0.3072
  844MOL0     C11281   2.109   0.642   4.557 -0.2386 -0.3137 -0.2644
  844MOL0     C11282   1.993   0.636   4.484 -0.0240  0.2841  0.0204
  844MOL0     C11283   1.899   0.741   4.478  0.7572  0.0518  1.0958
  844MOL0     O11284   1.787   0.741   4.391  0.1876 -0.3785  0.2729
  844MOL0     C11285   1.763   0.651   4.282 -0.3477  0.1330 -0.0768
  844MOL0     C11286   1.638   0.691   4.201  0.5497 -0.7967 -0.4136
  844MOL0     C11287   1.500   0.678   4.267  0.1099 -0.1166  0.2410
  844MOL0     C11288   1.410   0.763   4.176  0.6464  0.2992  0.2599
  844MOL0     C11289   1.273   0.728   4.209 -0.4060  0.2100  0.4993
  844MOL0     C11290   1.218   0.585   4.161  0.4274 -0.6652  0.6225
  844MOL0     C11291   1.066   0.580   4.189 -1.8251 -0.8502 -0.4246
  844MOL0     C11292   0.992   0.448   4.179 -0.0279  0.5320 -0.7742
  844MOL0     N11293   0.861   0.458   4.243 -0.3923  0.2295 -0.6118
  844MOL0     C11294   0.767   0.546   4.194 -0.0985 -0.5421 -0.0927
  844MOL0     C11295   0.660   0.513   4.275 -0.2657 -0.0679 -0.4631
  844MOL0     C11296   0.537   0.592   4.282  0.0724 -0.3866 -1.2039
  844MOL0     C11297   0.435   0.571   4.177  0.2645  0.0067 -0.0201
  844MOL0     C11298   0.361   0.451   4.222  0.0093 -0.4509  0.5466
  844MOL0     C11299   0.223   0.461   4.166 -0.6850  0.9514 -0.1229
  844MOL0     O11300   0.224   0.510   4.031 -0.0184 -0.7941 -0.1663
  844MOL0     C11301   0.097   0.525   3.969 -0.2248  0.3345 -0.3639
  844MOL0     C11302  -0.021   0.510   4.037  0.0540  0.9053 -0.4041
  844MOL0     C11303  -0.143   0.537   3.984  0.4590  0.1938 -0.6604
  844MOL0     C11304  -0.148   0.584   3.861  0.2278 -0.0972  0.7465
  844MOL0     C11305  -0.285   0.628   3.800  0.3683 -0.3156 -0.2201
  844MOL0     O11306  -0.392   0.596   3.878 -0.5687  0.6873  0.7315
  844MOL0     C11307  -0.515   0.618   3.817  0.1809  0.2056 -0.7517
  844MOL0     C11308  -0.550   0.521   3.723  0.3521  0.4671 -0.1422
  844MOL0     C11309  -0.667   0.540   3.649  0.7731 -0.3780 -0.8740
  844MOL0     C11310  -0.749   0.660   3.662 -0.4624 -0.6088 -0.5552
  844MOL0     O11311  -0.847   0.701   3.583  0.2095 -0.3568 -0.3120
  844MOL0     C11312  -0.819   0.695   3.441 -0.4390 -0.8699 -0.0661
  844MOL0     C11313  -0.937   0.751   3.361  0.2394  0.0382  0.2613
  844MOL0     C11314  -0.936   0.908   3.375 -0.4275  0.7745  0.6458
  844MOL0     C11315  -1.042   0.967   3.286  0.7807 -0.5580  0.2669
  844MOL0     C11316  -1.181   0.937   3.339  0.5643 -0.4301 -1.2668
  844MOL0     C11317  -1.294   1.009   3.267 -0.0978  0.1694 -0.1592
  844MOL0     C11318  -1.295   1.158   3.263  0.1727 -0.5170 -1.3295
  844MOL0     C11319  -1.221   1.204   3.133 -0.1895 -0.2668  0.8169
  844MOL0    Cl11320  -1.318   1.341   3.064  0.4260 -0.0870 -0.2531
  844MOL0     C11321  -0.699   0.749   3.766  0.8779  1.0194  0.6503
  844MOL0     C11322  -0.587   0.737   3.836 -0.9961  1.0326 -0.0106
  844MOL0     O11323  -0.291   0.688   3.692  0.3404  0.2316  0.6882
  844MOL0     C11324  -0.027   0.617   3.791 -0.0624  0.8393 -0.9287
  844MOL0     C11325   0.096   0.591   3.841  0.4239 -0.0694 -0.4570
  844MOL0     N11326   0.687   0.414   4.375  0.7814 -0.3417  0.1317
  844MOL0     N11327   0.807   0.391   4.355  0.1100  0.0530  0.8245
  844MOL0     C11328   1.932   0.856   4.561  0.3107  0.4042  0.3868
  844MOL0     C11329   2.049   0.863   4.635 -0.4521 -0.5157 -0.1366
  844MOL0     C11330   2.484   0.824   4.784 -0.1892 -0.5325 -0.1985
  844MOL0     C11331   2.580   0.923   4.822 -0.7047 -0.2330 -0.4143
  844MOL0     C11332   2.705   0.888   4.856  0.4826  0.7098  0.0685
  844MOL0     C11333   2.739   0.749   4.855  0.3933 -0.3777  0.2486
  844MOL0     O11334   2.870   0.721   4.883 -0.6466  0.0667  0.0014
  844MOL0     C11335   2.911   0.598   4.943  0.4381 -0.1645 -0.6302
  844MOL0     C11336   2.861   0.598   5.082  0.4724  0.0310 -0.1510
  844MOL0     C11337   2.897   0.723   5.174  0.6063 -0.1751 -0.7492
  844MOL0     C11338   2.926   0.707   5.327 -0.3451  0.2309 -0.9300
  844MOL0     C11339   3.009   0.821   5.366 -0.1433  0.1600 -1.2411
  844MOL0     C11340   3.075   0.919   5.394 -0.8865 -0.1837  0.1384
  844MOL0     C11341   2.642   0.654   4.822 -0.2508  0.1805 -0.6662
  844MOL0     C11342   2.521   0.691   4.783  0.9499  0.3393 -0.3547
  844MOL0     H11343   2.171   0.555   4.576 -1.7906 -1.5280 -0.5490
  844MOL0     H11344   1.974   0.547   4.425 -1.9440 -0.0193  1.0333
  844MOL0     H11345   1.759   0.546   4.312  2.3739 -0.7034 -2.2260
  844MOL0     H11346   1.853   0.668   4.222 -0.3269  2.0274  0.4261
  844MOL0     H11347   1.638   0.630   4.111 -1.5667 -2.0800  0.3666
  844MOL0     H11348   1.646   0.794   4.165 -2.4065  0.6263  2.3887
  844MOL0     H11349   1.502   0.715   4.370 -0.5032 -1.7698  0.8935
  844MOL0     H11350   1.464   0.575   4.278  0.9662 -0.2040  3.1536
  844MOL0     H11351   1.420   0.871   4.190  0.3230  0.6875 -2.0777
  844MOL0     H11352   1.411   0.742   4.068 -0.7971  1.0259  0.0787
  844MOL0     H11353   1.207   0.800   4.159 -0.2931  0.4767  0.7321
  844MOL0     H11354   1.248   0.731   4.315 -1.6628 -1.7139  0.2947
  844MOL0     H11355   1.280   0.503   4.198  0.1535 -0.4493  1.5676
  844MOL0     H11356   1.234   0.565   4.054  3.4033 -2.2073  1.2366
  844MOL0     H11357   1.055   0.615   4.292 -2.2724 -1.2040 -0.3480
  844MOL0     H11358   1.021   0.655   4.123 -0.8481  1.8908  1.8410
  844MOL0     H11359   1.038   0.357   4.219 -1.1209 -0.8002 -2.3816
  844MOL0     H11360   0.974   0.422   4.074 -1.7245  0.7265 -0.5563
  844MOL0     H11361   0.778   0.618   4.113 -1.9562 -1.4627 -1.2265
  844MOL0     H11362   0.576   0.694   4.268  1.3401 -0.8748 -1.4080
  844MOL0     H11363   0.487   0.599   4.379  1.7288 -2.3217 -0.1179
  844MOL0     H11364   0.478   0.559   4.077  3.7187  3.2324  0.8627
  844MOL0     H11365   0.367   0.656   4.161  1.0278  0.2998 -2.0963
  844MOL0     H11366   0.404   0.362   4.173  0.1317 -1.6498  2.7284
  844MOL0     H11367   0.356   0.436   4.330 -2.3583  0.9865  0.7025
  844MOL0     H11368   0.176   0.539   4.227 -0.4567  0.9762  0.0261
  844MOL0     H11369   0.177   0.363   4.184 -0.2754  0.9984  1.3738
  844MOL0     H11370  -0.027   0.460   4.133  1.2327 -3.8882 -2.5179
  844MOL0     H11371  -0.221   0.504   4.052  3.4994 -3.0677  1.6704
  844MOL0     H11372  -0.507   0.421   3.730  0.4331  0.4299 -1.0755
  844MOL0     H11373  -0.687   0.455   3.584  2.0187 -1.3538 -0.0282
  844MOL0     H11374  -0.785   0.595   3.413 -0.9264 -1.0048 -0.1866
  844MOL0     H11375  -0.737   0.765   3.426 -2.2740  1.0808 -1.7943
  844MOL0     H11376  -1.025   0.704   3.405  0.9991 -1.0458  0.6715
  844MOL0     H11377  -0.929   0.721   3.256 -3.2360 -1.4388  0.2956
  844MOL0     H11378  -0.840   0.953   3.350 -1.0596  1.2609 -1.0391
  844MOL0     H11379  -0.958   0.932   3.480 -0.6493  1.6873  0.3958
  844MOL0     H11380  -1.023   1.072   3.306  2.4854 -1.3826  3.9132
  844MOL0     H11381  -1.033   0.940   3.180 -2.0527  0.3847 -0.2869
  844MOL0     H11382  -1.199   0.975   3.440  1.6810  2.1740 -1.9879
  844MOL0     H11383  -1.206   0.831   3.330 -0.1248 -0.3702 -0.2745
  844MOL0     H11384  -1.384   0.978   3.320  0.7970  0.1761  1.4103
  844MOL0     H11385  -1.309   0.968   3.166 -1.9538 -4.0184  1.5735
  844MOL0     H11386  -1.399   1.193   3.260 -1.1955 -4.0217  0.1453
  844MOL0     H11387  -1.259   1.208   3.353  0.6610 -1.4573 -0.9832
  844MOL0     H11388  -1.211   1.127   3.056 -2.4028 -2.5132  2.5912
  844MOL0     H11389  -1.120   1.236   3.159  0.8416 -3.0773  0.6780
  844MOL0     H11390  -0.767   0.834   3.759  0.1314  0.4197  0.4426
  844MOL0     H11391  -0.539   0.819   3.889 -0.5033  2.0232 -1.8756
  844MOL0     H11392  -0.044   0.668   3.697 -0.9106  0.2891 -1.0848
  844MOL0     H11393   0.186   0.629   3.793  2.6871 -0.1131  3.3609
  844MOL0     H11394   1.865   0.941   4.571  0.8116  1.0276 -1.2582
  844MOL0     H11395   2.069   0.952   4.694 -1.0034  0.2537 -1.0647
  844MOL0     H11396   2.554   1.029   4.818 -3.1956 -0.7955 -0.8338
  844MOL0     H11397   2.772   0.963   4.897  0.9301  0.2985  0.0965
  844MOL0     H11398   3.016   0.613   4.970 -0.3393 -1.0175  3.4920
  844MOL0     H11399   2.885   0.514   4.878  0.0356 -1.7576  1.5105
  844MOL0     H11400   2.752   0.595   5.080  0.3650  1.2820  1.5053
  844MOL0     H11401   2.893   0.503   5.124  1.1662 -0.4212 -1.6107
  844MOL0     H11402   2.809   0.787   5.176 -0.3775 -1.4982 -0.3438
  844MOL0     H11403   2.985   0.761   5.121 -0.0150 -0.9547 -2.4207
  844MOL0     H11404   2.838   0.698   5.391  1.5329  3.9495  2.6636
  844MOL0     H11405   2.985   0.616   5.343 -0.7779 -0.2529 -2.0505
  844MOL0     H11406   3.126   1.008   5.425  0.2616  0.2348 -2.6046
  844MOL0     H11407   2.664   0.550   4.843 -1.9013 -0.6376 -2.6646
  844MOL0     H11408   2.460   0.603   4.769 -0.9133  1.2052  1.7190
  845MOL0     O11409   1.279  10.244   5.430  0.2237  0.1484 -0.0496
  845MOL0     C11410   1.270  10.129   5.463  0.6313  1.1685 -0.0013
  845MOL0     O11411   1.184  10.032   5.411  0.2415  0.6350 -0.9334
  845MOL0     C11412   1.074  10.087   5.345 -0.0950  0.1145  0.6962
  845MOL0     C11413   1.030  10.034   5.224  0.1566 -1.0604  0.0759
  845MOL0     C11414   0.910  10.074   5.163  0.5988  1.0510 -0.0022
  845MOL0     C11415   0.828  10.164   5.219 -0.4969 -0.0718  0.0371
  845MOL0     O11416   0.706  10.201   5.154  0.1138  0.5820  0.6955
  845MOL0     C11417   0.622  10.305   5.210 -0.1111  0.2906 -0.6369
  845MOL0     C11418   0.487  10.316   5.133 -0.8597  0.0519  0.0755
  845MOL0     C11419   0.494  10.376   4.992  0.1047  0.1082  0.6019
  845MOL0     C11420   0.359  10.415   4.942  0.8413  0.4768 -0.2091
  845MOL0     C11421   0.348  10.524   4.825 -0.1556 -0.3090  0.1570
  845MOL0     C11422   0.403  10.481   4.689 -0.6694 -0.2719 -0.2364
  845MOL0     C11423   0.342  10.553   4.568 -0.0246  0.8529  0.9947
  845MOL0     C11424   0.356  10.465   4.441  0.1662  0.2316  0.2670
  845MOL0     N11425   0.254  10.495   4.340 -0.6272 -0.0665 -0.1945
  845MOL0     C11426   0.211  10.628   4.308  0.3098  0.2001 -0.2561
  845MOL0     C11427   0.122  10.609   4.205 -0.0162 -0.6120 -0.0805
  845MOL0     C11428   0.046  10.712   4.140  1.1293  0.9014  0.2336
  845MOL0     C11429   0.141  10.803   4.046  0.4440 -0.4251  0.0071
  845MOL0     C11430   0.061  10.927   3.980  1.4769  0.2351  0.0643
  845MOL0     C11431  -0.027  11.020   4.078 -0.2919 -0.1327  0.3623
  845MOL0     O11432  -0.046  11.150   4.017 -0.2228 -0.5066  0.4835
  845MOL0     C11433  -0.165  11.190   3.960 -0.8163 -1.2646  0.2096
  845MOL0     C11434  -0.266  11.103   3.910 -0.2938  0.4305  0.1169
  845MOL0     C11435  -0.381  11.154   3.857  0.1194  0.5457 -0.2441
  845MOL0     C11436  -0.410  11.290   3.846 -1.0512  0.8409  0.6411
  845MOL0     C11437  -0.536  11.342   3.778  0.4702 -0.1830  0.9049
  845MOL0     O11438  -0.544  11.467   3.732 -0.1445 -0.5599  0.1400
  845MOL0     C11439  -0.663  11.529   3.709  0.1140 -0.4699 -0.9330
  845MOL0     C11440  -0.737  11.527   3.594 -0.7602 -0.4272  0.4211
  845MOL0     C11441  -0.856  11.596   3.586  0.8533 -0.4000  0.5041
  845MOL0     C11442  -0.912  11.670   3.688 -0.5117  0.0999 -0.4425
  845MOL0     O11443  -1.033  11.735   3.673 -0.2574  0.7948 -0.2872
  845MOL0     C11444  -1.065  11.854   3.739  0.7923 -0.0915 -0.1399
  845MOL0     C11445  -1.215  11.909   3.719 -0.8306  0.4137 -0.8707
  845MOL0     C11446  -1.235  11.994   3.594  0.2248  0.2525  0.2338
  845MOL0     C11447  -1.384  12.004   3.547  0.8071 -0.6727  0.5162
  845MOL0     C11448  -1.472  12.089   3.640  0.7720  0.2191 -0.1791
  845MOL0     C11449  -1.489  12.231   3.602 -0.5002 -0.0370  0.2802
  845MOL0     C11450  -1.561  12.325   3.697 -0.7437 -0.2063 -0.5956
  845MOL0     C11451  -1.483  12.457   3.688  0.4364  1.2305  0.1989
  845MOL0    Cl11452  -1.556  12.564   3.806  0.1198  0.4279  0.1367
  845MOL0     C11453  -0.830  11.672   3.809 -0.1379  0.3786  0.0481
  845MOL0     C11454  -0.710  11.602   3.819  0.7877  0.6076  0.0145
  845MOL0     O11455  -0.630  11.270   3.794  0.1752  0.0403 -0.5128
  845MOL0     C11456  -0.311  11.375   3.892 -0.1929 -0.1842 -0.4755
  845MOL0     C11457  -0.193  11.329   3.957  0.1766  0.4379  0.4641
  845MOL0     N11458   0.124  10.481   4.163  0.2758 -0.4294  0.3639
  845MOL0     N11459   0.196  10.413   4.242  0.2061 -0.1505 -0.8073
  845MOL0     C11460   0.866  10.221   5.345 -0.3419  0.1239 -0.2444
  845MOL0     C11461   0.990  10.188   5.395  0.2086  0.5227 -0.4904
  845MOL0     C11462   1.370  10.095   5.571  1.0278  0.1994  0.2458
  845MOL0     C11463   1.337  10.016   5.682 -0.3120  0.1156 -0.0298
  845MOL0     C11464   1.424  10.006   5.794  0.6444 -1.0762 -0.4081
  845MOL0     C11465   1.554  10.045   5.783 -0.6000 -0.8954  0.1605
  845MOL0     O11466   1.635  10.018   5.895  0.1044  0.5614 -0.1868
  845MOL0     C11467   1.711  10.126   5.959  0.4462  0.5192 -1.0033
  845MOL0     C11468   1.848  10.092   5.931 -0.6615 -0.0986  0.3052
  845MOL0     C11469   1.949  10.145   6.032 -0.6762  0.0061 -0.7469
  845MOL0     C11470   2.094  10.111   5.979 -0.3521 -0.0977 -0.0937
  845MOL0     C11471   2.139  10.203   5.866  0.7256  0.5738  0.2638
  845MOL0     C11472   2.189  10.259   5.772  0.0280  0.0262  0.5960
  845MOL0     C11473   1.597  10.097   5.666 -0.6588  0.3434  0.3534
  845MOL0     C11474   1.506  10.142   5.565 -0.0796 -0.6007 -1.0346
  845MOL0     H11475   1.087   9.954   5.178 -1.7878 -2.8583  0.6489
  845MOL0     H11476   0.863  10.012   5.087  0.2824 -0.2480  1.2048
  845MOL0     H11477   0.679  10.396   5.192  2.4149 -1.4467 -2.1701
  845MOL0     H11478   0.617  10.297   5.319 -0.4075  4.5634 -0.1820
  845MOL0     H11479   0.419  10.375   5.195 -4.1785 -3.1539 -0.1991
  845MOL0     H11480   0.446  10.215   5.126 -2.6750  0.7798 -0.2551
  845MOL0     H11481   0.537  10.309   4.917  2.4278  2.9665 -0.8375
  845MOL0     H11482   0.559  10.464   4.989  3.2910 -2.1153 -0.4784
  845MOL0     H11483   0.308  10.331   4.893  0.0270  1.1317 -0.5083
  845MOL0     H11484   0.294  10.456   5.020 -0.7026 -0.8561 -0.7390
  845MOL0     H11485   0.400  10.616   4.853  1.3502 -1.8106  2.7431
  845MOL0     H11486   0.242  10.547   4.816  0.0650  0.1496 -1.8294
  845MOL0     H11487   0.379  10.374   4.688 -0.5952 -0.3016  0.6804
  845MOL0     H11488   0.512  10.487   4.693 -0.6404 -1.5671  2.1236
  845MOL0     H11489   0.234  10.542   4.583 -0.8087  2.3558 -2.4978
  845MOL0     H11490   0.370  10.654   4.537  1.1139 -0.7316 -4.1747
  845MOL0     H11491   0.344  10.358   4.460  0.7496  0.1020 -0.0848
  845MOL0     H11492   0.459  10.458   4.405  0.3542 -1.7710  1.0932
  845MOL0     H11493   0.235  10.727   4.345  2.4077  0.2655 -1.6267
  845MOL0     H11494   0.006  10.785   4.211  1.1855  0.9325  0.2336
  845MOL0     H11495  -0.039  10.666   4.089  2.5735 -3.5191  1.3588
  845MOL0     H11496   0.189  10.745   3.967 -0.9046  2.7566 -3.4418
  845MOL0     H11497   0.224  10.839   4.108  4.5857 -3.4268 -3.2382
  845MOL0     H11498   0.131  10.988   3.923  0.3729 -0.5548 -2.3040
  845MOL0     H11499  -0.012  10.894   3.905 -0.6586  3.3117  0.5892
  845MOL0     H11500   0.042  11.032   4.162  3.2308  0.9543 -2.4697
  845MOL0     H11501  -0.116  10.966   4.111  0.0230 -1.7221 -1.2151
  845MOL0     H11502  -0.256  10.996   3.895 -2.7826  0.0774  0.5565
  845MOL0     H11503  -0.448  11.076   3.823  1.1302 -0.8610  0.8549
  845MOL0     H11504  -0.692  11.483   3.506  0.6854  1.6202  0.0681
  845MOL0     H11505  -0.894  11.594   3.485  1.0113  1.6219  0.3646
  845MOL0     H11506  -1.003  11.938   3.707  0.7256  0.0307  0.0470
  845MOL0     H11507  -1.056  11.844   3.848 -2.0391  5.0117  0.9137
  845MOL0     H11508  -1.228  11.976   3.804  2.6010  2.1575 -1.5143
  845MOL0     H11509  -1.282  11.822   3.721  1.0446 -1.1011  0.6957
  845MOL0     H11510  -1.185  11.942   3.512  2.8089  2.5522  0.1849
  845MOL0     H11511  -1.193  12.095   3.597  4.1238 -1.2022  0.9050
  845MOL0     H11512  -1.395  12.035   3.443 -0.5471 -2.7303 -0.0217
  845MOL0     H11513  -1.426  11.903   3.552 -1.1430  0.1539  2.5258
  845MOL0     H11514  -1.438  12.087   3.744  2.6159 -1.8943 -0.7277
  845MOL0     H11515  -1.574  12.049   3.643 -0.7805  3.8607  1.2503
  845MOL0     H11516  -1.539  12.243   3.505  1.8142 -5.9617 -2.1414
  845MOL0     H11517  -1.384  12.259   3.590 -0.0443 -0.1354  3.2166
  845MOL0     H11518  -1.662  12.345   3.661 -0.8382  1.2078  0.3451
  845MOL0     H11519  -1.575  12.294   3.801  1.4182  1.5151  0.3105
  845MOL0     H11520  -1.495  12.505   3.590  2.4662 -0.0796 -0.7655
  845MOL0     H11521  -1.379  12.433   3.710 -0.2171 -1.2969  0.9359
  845MOL0     H11522  -0.863  11.738   3.888 -4.5804 -0.1895 -1.0392
  845MOL0     H11523  -0.651  11.607   3.910  1.6085 -0.7774 -0.4056
  845MOL0     H11524  -0.342  11.478   3.876  0.4783  0.0274 -0.4454
  845MOL0     H11525  -0.118  11.395   3.999  1.8373 -1.7623  1.1293
  845MOL0     H11526   0.812  10.298   5.399 -0.4668 -0.9997  1.3035
  845MOL0     H11527   1.027  10.233   5.486  0.5773  1.3016 -1.0231
  845MOL0     H11528   1.234   9.981   5.690 -0.5104 -0.4946 -3.5853
  845MOL0     H11529   1.379   9.966   5.884  3.9984  0.7882  2.2851
  845MOL0     H11530   1.684  10.136   6.065 -0.6283 -1.6465 -1.0219
  845MOL0     H11531   1.685  10.223   5.916 -1.3872 -1.6960 -5.5602
  845MOL0     H11532   1.856   9.984   5.919 -2.7176 -0.1134 -1.7180
  845MOL0     H11533   1.869  10.113   5.825  0.8582 -0.8305  0.4343
  845MOL0     H11534   1.933  10.111   6.135 -1.3563  1.7444 -0.2426
  845MOL0     H11535   1.924  10.252   6.033  1.9300  0.6962 -0.5928
  845MOL0     H11536   2.157  10.113   6.068 -2.6951  1.4040  1.6435
  845MOL0     H11537   2.094  10.007   5.945 -2.9634 -0.3265  0.3882
  845MOL0     H11538   2.232  10.307   5.686  1.8618 -1.9534  0.3493
  845MOL0     H11539   1.700  10.120   5.637 -0.6562  2.5747  1.8446
  845MOL0     H11540   1.547  10.198   5.482 -0.0906  1.2920  0.1778
  846MOL0     O11541   1.787   0.980   0.413 -0.2075 -0.0088  0.0529
  846MOL0     C11542   1.785   0.925   0.527  0.1349 -0.8588  0.1155
  846MOL0     O11543   1.888   0.888   0.608 -0.1223 -0.6510 -0.2324
  846MOL0     C11544   2.020   0.911   0.566 -0.5293 -0.8080 -0.6530
  846MOL0     C11545   2.063   0.836   0.456 -1.1538 -0.4532 -0.4606
  846MOL0     C11546   2.193   0.865   0.406  0.3532 -0.6359 -0.3505
  846MOL0     C11547   2.285   0.942   0.471 -0.0453  0.4016 -0.2674
  846MOL0     O11548   2.405   0.943   0.410  0.1191 -0.0621 -0.2841
  846MOL0     C11549   2.484   1.061   0.406 -0.1668 -0.3539  0.0108
  846MOL0     C11550   2.618   1.025   0.334  0.8855  0.3757  0.0432
  846MOL0     C11551   2.700   1.147   0.292 -0.6934 -0.2261  0.3185
  846MOL0     C11552   2.831   1.101   0.222 -0.6087 -0.4719 -0.2863
  846MOL0     C11553   2.817   1.025   0.087  0.3041  0.5238 -0.4854
  846MOL0     C11554   2.739   1.113  -0.015 -0.5755  0.5887 -0.0965
  846MOL0     C11555   2.711   1.029  -0.150 -0.5718  0.1967 -0.2836
  846MOL0     C11556   2.826   1.041  -0.241 -1.2307 -0.0736  0.0090
  846MOL0     N11557   2.804   0.967  -0.373  1.1636 -0.7837  0.0364
  846MOL0     C11558   2.700   1.017  -0.459  0.5178  0.9280  0.5836
  846MOL0     C11559   2.671   0.903  -0.522 -0.4235  0.1409 -0.0337
  846MOL0     C11560   2.553   0.886  -0.620 -1.1064 -0.6871 -1.1190
  846MOL0     C11561   2.583   0.801  -0.746  0.0593 -0.6475 -0.6361
  846MOL0     C11562   2.580   0.655  -0.706  0.6856  0.4736  0.3061
  846MOL0     C11563   2.692   0.578  -0.781 -0.6068 -0.3319  0.2590
  846MOL0     O11564   2.692   0.432  -0.759 -0.0907  0.3226  0.1776
  846MOL0     C11565   2.801   0.366  -0.820  0.0817 -0.0429  0.3192
  846MOL0     C11566   2.919   0.416  -0.883 -0.7633  0.0060  0.5699
  846MOL0     C11567   3.032   0.328  -0.917  0.1383  0.5006 -0.6217
  846MOL0     C11568   3.024   0.188  -0.896  0.9034  0.5705 -0.0210
  846MOL0     C11569   3.122   0.093  -0.947 -0.2521  0.0341 -0.1908
  846MOL0     O11570   3.114  -0.041  -0.912  0.1628 -0.5612 -0.4447
  846MOL0     C11571   3.195  -0.121  -1.003 -0.0125 -0.1551 -0.7030
  846MOL0     C11572   3.120  -0.172  -1.106 -0.3634 -0.4478  0.1091
  846MOL0     C11573   3.177  -0.245  -1.207 -0.4234  0.9767  0.0254
  846MOL0     C11574   3.319  -0.269  -1.205  0.0281  0.0227  1.0693
  846MOL0     O11575   3.391  -0.333  -1.309 -0.1607  0.3542 -0.1233
  846MOL0     C11576   3.330  -0.347  -1.443 -0.8379 -1.1110  0.2197
  846MOL0     C11577   3.328  -0.497  -1.467 -0.6449 -0.2270 -0.3496
  846MOL0     C11578   3.470  -0.568  -1.443  0.2712  1.2825  0.5875
  846MOL0     C11579   3.601  -0.493  -1.457  0.1056 -0.4453  0.6091
  846MOL0     C11580   3.729  -0.568  -1.444 -0.8787  0.2941  0.2711
  846MOL0     C11581   3.851  -0.491  -1.491 -0.2630  0.0004  0.0800
  846MOL0     C11582   3.860  -0.348  -1.425  0.5818 -0.4439 -0.0357
  846MOL0     C11583   3.990  -0.278  -1.432 -0.1096 -0.1190 -0.6558
  846MOL0    Cl11584   4.121  -0.367  -1.356  0.4516 -0.3139  0.3527
  846MOL0     C11585   3.392  -0.226  -1.094 -0.1626  0.1414  0.3370
  846MOL0     C11586   3.325  -0.146  -0.994 -0.0973  0.3336 -0.3043
  846MOL0     O11587   3.217   0.143  -1.015 -0.4535  0.8643  0.3391
  846MOL0     C11588   2.912   0.149  -0.822  0.7445  0.0215 -0.7293
  846MOL0     C11589   2.799   0.233  -0.797 -0.5799 -0.0846  0.0028
  846MOL0     N11590   2.761   0.797  -0.472 -0.2070  0.7437  0.2667
  846MOL0     N11591   2.836   0.835  -0.376  0.2758 -0.3521  0.0488
  846MOL0     C11592   2.249   1.008   0.588  0.3504  0.1722  0.8688
  846MOL0     C11593   2.114   0.993   0.635 -0.1904 -0.1742 -0.0856
  846MOL0     C11594   1.644   0.887   0.575  0.7865  0.5463  0.3566
  846MOL0     C11595   1.541   0.880   0.483  1.3314  0.5442 -1.3778
  846MOL0     C11596   1.419   0.832   0.535 -0.3530  0.0674 -0.4224
  846MOL0     C11597   1.403   0.799   0.668 -0.4281  0.1812 -0.4953
  846MOL0     O11598   1.281   0.747   0.725  0.5089 -0.4900  0.7829
  846MOL0     C11599   1.180   0.688   0.641 -0.5799 -0.7954  0.6177
  846MOL0     C11600   1.092   0.599   0.722  0.3699  0.5618  0.2033
  846MOL0     C11601   1.059   0.645   0.873  0.3640  0.1378  0.6168
  846MOL0     C11602   0.937   0.579   0.929  0.0947  0.3655 -0.7984
  846MOL0     C11603   0.948   0.431   0.955 -0.9488  0.1482 -0.4348
  846MOL0     C11604   0.943   0.315   0.977  0.1363  1.1866 -0.1794
  846MOL0     C11605   1.509   0.814   0.760 -0.2852 -0.1149  0.9004
  846MOL0     C11606   1.629   0.851   0.711 -0.2659 -0.7264 -0.0072
  846MOL0     H11607   1.997   0.763   0.410  0.0460 -3.0841  1.7063
  846MOL0     H11608   2.223   0.820   0.312 -0.5609  0.5739 -1.2525
  846MOL0     H11609   2.524   1.098   0.501 -3.3298  1.4782  0.7904
  846MOL0     H11610   2.428   1.149   0.371 -0.2497  0.3331  1.7605
  846MOL0     H11611   2.598   0.956   0.252  0.1246 -1.4626  1.6673
  846MOL0     H11612   2.680   0.973   0.409  0.3017 -1.4572 -0.6877
  846MOL0     H11613   2.723   1.213   0.377 -1.6365  2.6126 -1.4938
  846MOL0     H11614   2.636   1.207   0.228  1.3180  1.6323 -0.0770
  846MOL0     H11615   2.891   1.189   0.198  1.1717 -1.8323 -1.0343
  846MOL0     H11616   2.895   1.037   0.283  2.2073  3.4446  1.3005
  846MOL0     H11617   2.760   0.934   0.105  0.4185  0.4676 -0.4056
  846MOL0     H11618   2.910   0.981   0.049 -0.7192 -1.3848 -0.9275
  846MOL0     H11619   2.798   1.203  -0.033  0.9342 -0.4912 -0.7560
  846MOL0     H11620   2.646   1.137   0.037  1.7266  0.9137  4.3311
  846MOL0     H11621   2.675   0.929  -0.124  0.0117  0.6387  2.5894
  846MOL0     H11622   2.620   1.064  -0.200 -1.6775 -2.0452  0.0297
  846MOL0     H11623   2.907   0.996  -0.182 -0.3648 -0.4350 -1.4212
  846MOL0     H11624   2.856   1.144  -0.257 -2.9853  0.9239  2.4558
  846MOL0     H11625   2.663   1.115  -0.485  1.2853  1.6347  2.0224
  846MOL0     H11626   2.505   0.981  -0.646 -1.3691 -0.7236 -0.7735
  846MOL0     H11627   2.477   0.832  -0.562  0.1641 -0.0770  1.2257
  846MOL0     H11628   2.682   0.836  -0.777  0.6405 -0.6419  1.1067
  846MOL0     H11629   2.514   0.820  -0.829  0.8882  0.1272 -1.1644
  846MOL0     H11630   2.591   0.628  -0.601  1.1215  0.7683  0.3367
  846MOL0     H11631   2.491   0.610  -0.752  0.9748  0.4501 -0.2409
  846MOL0     H11632   2.785   0.613  -0.736 -0.2947  0.2337 -0.8072
  846MOL0     H11633   2.682   0.601  -0.887 -2.2082  0.0050  0.4564
  846MOL0     H11634   2.931   0.523  -0.902 -5.3491  0.3369 -1.7573
  846MOL0     H11635   3.117   0.379  -0.960  1.9901 -1.1035  0.9546
  846MOL0     H11636   3.011  -0.176  -1.111 -0.3308 -0.6123 -0.6405
  846MOL0     H11637   3.099  -0.282  -1.273 -1.6620 -0.8013  2.2862
  846MOL0     H11638   3.385  -0.289  -1.517  1.5620  1.3775  3.6607
  846MOL0     H11639   3.229  -0.304  -1.442  0.0272  1.1262  2.4784
  846MOL0     H11640   3.295  -0.501  -1.571  0.3507  2.2148 -0.8368
  846MOL0     H11641   3.247  -0.541  -1.408 -0.4712  2.1465  1.8339
  846MOL0     H11642   3.486  -0.642  -1.522 -0.9832  2.6143 -0.9831
  846MOL0     H11643   3.483  -0.621  -1.348  1.6706  1.4501  0.5214
  846MOL0     H11644   3.590  -0.441  -1.553  0.2212  2.7562  2.2238
  846MOL0     H11645   3.601  -0.402  -1.397 -0.3038  1.3292 -1.9063
  846MOL0     H11646   3.709  -0.662  -1.496  0.1693 -1.0540  2.2078
  846MOL0     H11647   3.751  -0.590  -1.339  3.8795 -1.4479 -0.7948
  846MOL0     H11648   3.855  -0.472  -1.599 -0.1810 -1.9238 -0.2902
  846MOL0     H11649   3.938  -0.552  -1.465 -0.3609 -0.1313  0.0999
  846MOL0     H11650   3.787  -0.277  -1.463 -1.9875 -0.8832  3.5616
  846MOL0     H11651   3.834  -0.363  -1.319 -2.2551  0.2351 -0.5607
  846MOL0     H11652   3.975  -0.177  -1.391 -2.4606 -0.7383  0.1920
  846MOL0     H11653   4.011  -0.270  -1.539 -1.5923 -2.2862 -1.1793
  846MOL0     H11654   3.494  -0.253  -1.070 -0.2218 -0.2311  0.1605
  846MOL0     H11655   3.384  -0.094  -0.920  2.9319 -3.0867 -0.0499
  846MOL0     H11656   2.915   0.041  -0.807  1.5468  0.3212  1.7116
  846MOL0     H11657   2.717   0.189  -0.742 -1.0070  2.4615  1.5936
  846MOL0     H11658   2.323   1.050   0.656 -0.0192 -1.1485  2.1366
  846MOL0     H11659   2.093   1.060   0.717  2.8392  0.2744  0.4610
  846MOL0     H11660   1.546   0.915   0.380  1.9531 -0.5049 -1.7291
  846MOL0     H11661   1.332   0.835   0.470 -0.6228 -1.8550 -0.2109
  846MOL0     H11662   1.211   0.640   0.547  1.2467  1.3840  0.0253
  846MOL0     H11663   1.111   0.767   0.611  3.1757  2.7563  0.4621
  846MOL0     H11664   0.997   0.593   0.670  0.2407 -1.0342  0.5436
  846MOL0     H11665   1.144   0.502   0.724 -0.0623  0.3064 -0.7542
  846MOL0     H11666   1.035   0.752   0.872  1.2560  0.4147  3.0412
  846MOL0     H11667   1.145   0.627   0.938  1.0819  0.4891 -0.2179
  846MOL0     H11668   0.925   0.631   1.024 -1.9335  1.5895 -1.6476
  846MOL0     H11669   0.849   0.604   0.868 -1.3280 -0.2991  0.9062
  846MOL0     H11670   0.945   0.209   0.995 -0.7315  1.2345  0.1893
  846MOL0     H11671   1.496   0.781   0.862  1.5330 -0.1649  1.1509
  846MOL0     H11672   1.717   0.859   0.774  0.5575  2.9010 -1.3836
  847MOL0     O11673   1.647  10.443   0.863 -0.1859 -0.0093  0.0005
  847MOL0     C11674   1.635  10.505   0.968 -0.7240 -0.7729  0.1388
  847MOL0     O11675   1.713  10.613   1.008  0.3566  0.4049  0.8993
  847MOL0     C11676   1.835  10.638   0.937  0.1860 -0.7296 -0.0444
  847MOL0     C11677   1.954  10.656   1.004  0.0144 -0.3424 -0.8902
  847MOL0     C11678   2.080  10.683   0.935 -0.3063 -0.1638 -0.3569
  847MOL0     C11679   2.087  10.667   0.798 -0.3640  0.3201  0.8020
  847MOL0     O11680   2.211  10.683   0.736  0.4233 -0.1848 -0.2408
  847MOL0     C11681   2.237  10.632   0.603 -0.6301 -0.3403 -0.2955
  847MOL0     C11682   2.377  10.573   0.592  0.2199  0.1786 -0.1717
  847MOL0     C11683   2.500  10.666   0.593 -0.0741  1.0525  0.8512
  847MOL0     C11684   2.638  10.608   0.551 -0.2558  0.1957  0.2828
  847MOL0     C11685   2.746  10.712   0.563 -0.3448 -0.4802 -0.2475
  847MOL0     C11686   2.876  10.646   0.511  0.3362 -0.7764  0.1034
  847MOL0     C11687   2.984  10.752   0.524  0.2782 -0.4501 -0.1722
  847MOL0     C11688   3.119  10.719   0.462  0.3540  0.3314  0.3366
  847MOL0     N11689   3.168  10.580   0.476 -0.5827  0.8352 -0.0023
  847MOL0     C11690   3.259  10.550   0.567 -0.2956  0.0465  0.0461
  847MOL0     C11691   3.300  10.424   0.525 -0.0438 -1.4057  0.9416
  847MOL0     C11692   3.415  10.326   0.557  1.1190 -1.2901  0.3245
  847MOL0     C11693   3.424  10.314   0.714 -0.1430  0.0350 -0.3872
  847MOL0     C11694   3.316  10.222   0.787 -0.5596  0.4977  0.6728
  847MOL0     C11695   3.181  10.272   0.788  0.2322 -0.5769  0.6108
  847MOL0     O11696   3.177  10.394   0.859 -0.3320 -0.1587  0.7555
  847MOL0     C11697   3.053  10.454   0.866 -0.6601 -0.9761 -0.9413
  847MOL0     C11698   2.924  10.403   0.856 -0.0462  0.3987  0.0833
  847MOL0     C11699   2.811  10.473   0.892 -0.3415 -0.5257  0.7091
  847MOL0     C11700   2.825  10.604   0.934 -0.5342 -0.2095 -0.1593
  847MOL0     C11701   2.726  10.683   1.007  0.6404  0.9325  0.1034
  847MOL0     O11702   2.600  10.614   1.012 -0.1855  0.5721 -0.7217
  847MOL0     C11703   2.509  10.629   1.096 -0.0773  0.8163  0.0571
  847MOL0     C11704   2.507  10.720   1.203 -0.4512  0.0666  0.3025
  847MOL0     C11705   2.395  10.739   1.292  0.2480  0.5081  0.0174
  847MOL0     C11706   2.284  10.651   1.271 -0.4035  0.7564  0.8304
  847MOL0     O11707   2.173  10.660   1.348 -0.2083  0.0385  0.4858
  847MOL0     C11708   2.182  10.596   1.484 -0.7981 -0.8673 -0.1828
  847MOL0     C11709   2.170  10.446   1.493 -1.0573  0.1836 -0.4238
  847MOL0     C11710   2.025  10.410   1.486  0.0199  0.7654  0.0619
  847MOL0     C11711   2.014  10.270   1.547 -0.2807 -0.3501 -0.5033
  847MOL0     C11712   1.892  10.215   1.477  0.8358  0.1579  0.4044
  847MOL0     C11713   1.870  10.067   1.523  0.3441  1.0450 -0.8899
  847MOL0     C11714   1.749   9.995   1.467 -0.5583 -0.3607  0.1312
  847MOL0     C11715   1.669   9.922   1.579  0.1299  0.1572 -0.4516
  847MOL0    Cl11716   1.566  10.037   1.669  0.3132  0.0913  0.2615
  847MOL0     C11717   2.288  10.562   1.171  0.6315  0.5176  0.6162
  847MOL0     C11718   2.390  10.547   1.088 -0.5006  0.2760 -0.4801
  847MOL0     O11719   2.762  10.786   1.064 -0.6312 -0.0309 -0.5485
  847MOL0     C11720   2.951  10.662   0.924 -0.1040 -1.4342 -0.0627
  847MOL0     C11721   3.065  10.591   0.888  0.3316  0.3075 -0.9417
  847MOL0     N11722   3.216  10.376   0.425  0.6076  0.9037  0.3529
  847MOL0     N11723   3.132  10.473   0.393 -0.5219  0.0694  0.2810
  847MOL0     C11724   1.962  10.655   0.733 -0.6868 -0.4454  1.2581
  847MOL0     C11725   1.843  10.638   0.794  0.0851 -0.6719  0.8968
  847MOL0     C11726   1.548  10.436   1.063  0.9264 -0.9855 -0.4605
  847MOL0     C11727   1.437  10.350   1.027 -0.2795 -0.2306 -0.4848
  847MOL0     C11728   1.343  10.312   1.124  0.1131 -0.3871 -0.7767
  847MOL0     C11729   1.356  10.344   1.261 -0.3645  0.3594 -0.7749
  847MOL0     O11730   1.249  10.344   1.349 -0.4959 -0.6976 -0.1949
  847MOL0     C11731   1.151  10.240   1.331  0.3679  0.2483 -0.7387
  847MOL0     C11732   1.199  10.096   1.326 -0.9049  0.5339  0.1447
  847MOL0     C11733   1.304  10.070   1.424  0.0748  0.0858  0.5341
  847MOL0     C11734   1.330   9.910   1.430 -0.6240 -0.5143 -0.0816
  847MOL0     C11735   1.401   9.860   1.315 -0.4131  0.4306  0.2990
  847MOL0     C11736   1.460   9.804   1.222  0.0570 -1.2907  0.5956
  847MOL0     C11737   1.473  10.418   1.296  0.3475 -0.0469 -0.6823
  847MOL0     C11738   1.568  10.460   1.206 -0.6486  0.9780 -0.4407
  847MOL0     H11739   1.948  10.671   1.111 -2.0902  2.7643 -1.3105
  847MOL0     H11740   2.165  10.721   0.991 -0.9941  1.8880 -0.6296
  847MOL0     H11741   2.230  10.712   0.529  1.1514  1.0586  0.9636
  847MOL0     H11742   2.172  10.547   0.579 -0.7699 -0.0524 -0.9398
  847MOL0     H11743   2.391  10.513   0.501  4.1716  0.5225  0.0600
  847MOL0     H11744   2.395  10.506   0.677  5.4603  0.1088 -1.0294
  847MOL0     H11745   2.509  10.707   0.694  3.5686 -0.2769  1.2260
  847MOL0     H11746   2.484  10.745   0.519  0.2955 -1.3601 -2.0319
  847MOL0     H11747   2.659  10.518   0.610 -2.3080  1.1931  2.7505
  847MOL0     H11748   2.625  10.583   0.446  0.1779  4.8937 -1.0970
  847MOL0     H11749   2.767  10.726   0.669  2.8073 -1.8021 -0.6037
  847MOL0     H11750   2.718  10.803   0.509  1.9329  0.7080  0.4364
  847MOL0     H11751   2.875  10.605   0.409  3.0582 -0.9466  0.0734
  847MOL0     H11752   2.910  10.569   0.581 -1.9592 -0.6047  1.4956
  847MOL0     H11753   2.957  10.850   0.484 -1.0464 -1.6096 -2.3454
  847MOL0     H11754   2.998  10.761   0.632 -2.3644  0.4747  0.1638
  847MOL0     H11755   3.192  10.796   0.488 -0.2933  0.6752  1.1784
  847MOL0     H11756   3.115  10.733   0.353 -1.1462  0.6993  0.4060
  847MOL0     H11757   3.317  10.609   0.637 -2.2364  0.1106  1.6806
  847MOL0     H11758   3.515  10.349   0.521  1.7221 -1.3384  1.8596
  847MOL0     H11759   3.403  10.225   0.516 -1.1132 -0.5795 -0.9132
  847MOL0     H11760   3.418  10.412   0.761 -3.1297 -0.1209 -0.2381
  847MOL0     H11761   3.520  10.268   0.741 -1.4606 -1.6983  1.6631
  847MOL0     H11762   3.329  10.122   0.744 -2.5631 -0.3370  1.8568
  847MOL0     H11763   3.353  10.222   0.890  0.1796 -3.3204  0.5541
  847MOL0     H11764   3.115  10.200   0.837 -0.6772  0.3914  0.8537
  847MOL0     H11765   3.147  10.288   0.686  0.9647  2.2449  0.7403
  847MOL0     H11766   2.914  10.296   0.840 -1.8464  0.6793 -1.0140
  847MOL0     H11767   2.713  10.427   0.883 -0.0048 -0.8263 -3.0967
  847MOL0     H11768   2.598  10.772   1.232  1.9357 -2.4145 -2.1842
  847MOL0     H11769   2.398  10.807   1.376  0.8368  1.8313 -1.0267
  847MOL0     H11770   2.103  10.632   1.550 -1.7636  0.7557 -2.1010
  847MOL0     H11771   2.276  10.624   1.532 -1.5518  0.0629  0.8090
  847MOL0     H11772   2.211  10.420   1.591 -1.0955  0.3366 -0.3650
  847MOL0     H11773   2.243  10.402   1.425  0.2771 -1.4645  1.9185
  847MOL0     H11774   1.990  10.411   1.383  1.3167  0.7362 -0.3975
  847MOL0     H11775   1.964  10.473   1.551  0.9910 -0.9339  2.7757
  847MOL0     H11776   2.094  10.215   1.497  0.0170 -0.9014  0.5537
  847MOL0     H11777   2.023  10.264   1.656  3.6986 -1.1588 -0.7058
  847MOL0     H11778   1.896  10.220   1.368 -3.3983  0.7078  0.1130
  847MOL0     H11779   1.801  10.261   1.516  3.3124  2.3531  4.3793
  847MOL0     H11780   1.862  10.067   1.632  1.6954  2.4667 -0.7650
  847MOL0     H11781   1.950   9.998   1.492  0.3321  1.1661 -1.1898
  847MOL0     H11782   1.674  10.060   1.421 -0.6953 -1.5845 -1.4583
  847MOL0     H11783   1.782   9.934   1.383 -0.6953 -0.3921  0.0993
  847MOL0     H11784   1.738   9.881   1.653 -0.1007  1.0680  0.2975
  847MOL0     H11785   1.613   9.838   1.539 -2.4067  2.0785 -1.2271
  847MOL0     H11786   2.210  10.487   1.157  0.1907  1.2319 -0.9047
  847MOL0     H11787   2.379  10.471   1.012 -0.9518 -0.5049  0.3554
  847MOL0     H11788   2.966  10.764   0.957  1.8174 -1.8886  0.6316
  847MOL0     H11789   3.162  10.635   0.906  0.9061 -1.6443  1.1104
  847MOL0     H11790   1.955  10.650   0.625 -0.4682  0.0355  1.2190
  847MOL0     H11791   1.763  10.613   0.726  0.3237  2.1205 -0.5837
  847MOL0     H11792   1.434  10.303   0.929  1.6169 -1.6662  0.1057
  847MOL0     H11793   1.265  10.246   1.090  0.0985  0.0247 -1.5673
  847MOL0     H11794   1.089  10.274   1.248 -1.2820  0.0900  0.3585
  847MOL0     H11795   1.098  10.245   1.427  3.2057 -2.2539  1.1560
  847MOL0     H11796   1.111  10.033   1.341  0.2556 -1.3526 -0.6558
  847MOL0     H11797   1.246  10.079   1.229 -0.1934  4.6065 -0.4200
  847MOL0     H11798   1.286  10.112   1.524  1.2958  1.8160  0.0789
  847MOL0     H11799   1.402  10.105   1.392  0.4161  0.4037  1.8716
  847MOL0     H11800   1.391   9.872   1.513  2.4417 -2.7668 -3.1097
  847MOL0     H11801   1.233   9.862   1.444 -1.1106  0.5855  0.4341
  847MOL0     H11802   1.529   9.744   1.166  1.3811 -0.3295  1.1214
  847MOL0     H11803   1.498  10.430   1.401  1.8536 -1.0714 -0.8950
  847MOL0     H11804   1.658  10.515   1.231  1.2522 -1.9833 -0.2828
  848MOL0     O11805   9.733  11.040   1.261 -0.3230  0.6578 -0.2465
  848MOL0     C11806   9.802  11.050   1.154  0.0616  0.7545  0.2546
  848MOL0     O11807   9.745  11.096   1.037 -0.4028  0.0138  0.3060
  848MOL0     C11808   9.611  11.102   1.027  0.0776 -0.2220 -0.3256
  848MOL0     C11809   9.534  11.179   1.105 -0.1893 -0.3421 -0.2653
  848MOL0     C11810   9.396  11.188   1.079 -0.6505  0.5100  0.0611
  848MOL0     C11811   9.331  11.109   0.976  0.4658 -0.5447  0.1378
  848MOL0     O11812   9.197  11.093   0.951  0.5306 -0.3824  0.2054
  848MOL0     C11813   9.099  11.167   1.029  0.2338 -0.0803  0.5091
  848MOL0     C11814   8.974  11.166   0.937  0.0877  0.2301 -0.7533
  848MOL0     C11815   8.890  11.290   0.942  0.4403 -0.2285 -0.2668
  848MOL0     C11816   8.867  11.341   1.085 -0.5863  0.3020 -0.5837
  848MOL0     C11817   8.769  11.456   1.099 -0.7559  0.2324  0.2086
  848MOL0     C11818   8.637  11.442   1.027 -0.0169 -0.3533  0.4155
  848MOL0     C11819   8.554  11.564   1.036 -0.5208 -0.0516 -0.0571
  848MOL0     C11820   8.451  11.584   0.920 -0.0418  0.7032  0.0820
  848MOL0     N11821   8.376  11.710   0.922  0.4642  0.8817  0.6317
  848MOL0     C11822   8.408  11.818   0.840 -0.2829 -0.0187 -0.0737
  848MOL0     C11823   8.309  11.913   0.866  0.0525  1.4693  0.2416
  848MOL0     C11824   8.276  12.040   0.792  0.0059 -0.2365 -0.6323
  848MOL0     C11825   8.267  12.020   0.641 -0.6940 -1.0067 -0.2684
  848MOL0     C11826   8.156  11.920   0.598  0.1933 -0.0680  0.0204
  848MOL0     C11827   8.018  11.977   0.631  0.7572  0.6428 -0.1029
  848MOL0     O11828   7.918  11.879   0.619 -0.1958 -0.0784  0.2654
  848MOL0     C11829   7.789  11.922   0.637 -0.5465  0.4403 -0.1927
  848MOL0     C11830   7.696  11.825   0.621 -0.3077  0.1095  0.5772
  848MOL0     C11831   7.559  11.836   0.654 -0.8305 -0.8625  0.1034
  848MOL0     C11832   7.514  11.955   0.706  0.1835  0.0340 -0.6101
  848MOL0     C11833   7.368  11.980   0.740  0.6872  0.0053  0.5060
  848MOL0     O11834   7.281  11.875   0.729 -0.8996 -0.0291  0.4522
  848MOL0     C11835   7.158  11.907   0.773 -0.4498  0.4118  0.1069
  848MOL0     C11836   7.062  11.932   0.682  1.0434  0.2334 -0.3224
  848MOL0     C11837   6.935  11.962   0.733 -0.5305  0.4723  0.0739
  848MOL0     C11838   6.912  11.972   0.877 -0.1002  0.0392  0.2467
  848MOL0     O11839   6.796  12.029   0.921 -0.1263  1.2863 -0.3064
  848MOL0     C11840   6.719  11.938   1.013 -0.0516  0.8056 -0.1470
  848MOL0     C11841   6.590  11.918   0.952  0.5627  0.1521 -0.0194
  848MOL0     C11842   6.577  11.829   0.825 -0.5755 -0.4328  0.3577
  848MOL0     C11843   6.424  11.821   0.786  0.9043 -0.2453 -0.2879
  848MOL0     C11844   6.389  11.716   0.678 -0.3450  0.1262  0.2266
  848MOL0     C11845   6.381  11.573   0.736 -0.2632  0.7133 -0.4465
  848MOL0     C11846   6.310  11.466   0.650  0.4745 -0.2307 -0.2902
  848MOL0     C11847   6.394  11.409   0.535  0.2609 -0.3968 -0.8612
  848MOL0    Cl11848   6.402  11.517   0.395  0.0855  0.3903 -0.3389
  848MOL0     C11849   7.015  11.934   0.960  0.8752 -0.3202  0.8797
  848MOL0     C11850   7.136  11.902   0.909 -0.1178  1.5396 -1.3806
  848MOL0     O11851   7.341  12.095   0.760  0.3523  0.3018 -0.4044
  848MOL0     C11852   7.605  12.058   0.736 -0.4479  0.2069 -0.3051
  848MOL0     C11853   7.745  12.037   0.704  0.1508 -0.1970  0.0174
  848MOL0     N11854   8.210  11.845   0.942  0.4709  0.0914  0.1606
  848MOL0     N11855   8.261  11.732   0.980  0.4611 -0.1808 -0.1180
  848MOL0     C11856   9.409  11.022   0.906 -0.4017 -0.1446  0.1509
  848MOL0     C11857   9.554  11.018   0.928  1.1964 -0.2153 -0.0016
  848MOL0     C11858   9.945  11.017   1.150 -0.0473  0.2895 -1.0973
  848MOL0     C11859  10.021  11.010   1.266 -0.5679 -0.3981 -0.4713
  848MOL0     C11860  10.162  10.998   1.256  0.0144  0.6270 -0.2961
  848MOL0     C11861  10.232  10.992   1.132 -0.1089 -0.2386  0.2365
  848MOL0     O11862  10.360  10.982   1.113 -0.3168  0.0012  0.4673
  848MOL0     C11863  10.439  10.963   1.225  0.5095  0.3765  0.0194
  848MOL0     C11864  10.431  10.815   1.273 -0.4834 -0.3178  0.2235
  848MOL0     C11865  10.567  10.747   1.230 -0.3210  0.7541  0.7913
  848MOL0     C11866  10.552  10.595   1.241 -0.8960  0.1910 -0.2071
  848MOL0     C11867  10.685  10.529   1.244  0.5591 -0.5337 -0.1164
  848MOL0     C11868  10.786  10.467   1.248  0.1359  0.1751 -0.2653
  848MOL0     C11869  10.155  10.993   1.018 -0.8347  0.3941 -0.4071
  848MOL0     C11870  10.017  11.006   1.027  0.6152 -0.4234 -0.2948
  848MOL0     H11871   9.582  11.233   1.186  0.3421 -3.4517  1.6897
  848MOL0     H11872   9.336  11.248   1.148 -2.5400 -0.1090 -0.9595
  848MOL0     H11873   9.124  11.273   1.042  1.0237 -0.2263  0.2666
  848MOL0     H11874   9.076  11.127   1.128  1.2819  0.5491  1.0211
  848MOL0     H11875   8.921  11.082   0.983  1.0549 -0.5204 -0.9791
  848MOL0     H11876   8.998  11.135   0.835 -0.0710 -1.3675 -0.3185
  848MOL0     H11877   8.798  11.253   0.896  1.8292 -3.9343 -0.4103
  848MOL0     H11878   8.936  11.366   0.878 -1.8662  0.8754 -0.7264
  848MOL0     H11879   8.831  11.258   1.147  0.3820  0.5004  0.2738
  848MOL0     H11880   8.958  11.380   1.130  0.2244  1.9994 -3.4760
  848MOL0     H11881   8.818  11.545   1.059 -1.1362  0.0622 -0.6373
  848MOL0     H11882   8.746  11.469   1.206  0.7686  1.4409  0.4409
  848MOL0     H11883   8.578  11.366   1.078 -2.9760  3.2146  2.8251
  848MOL0     H11884   8.657  11.426   0.921  1.3945 -2.3735  0.9345
  848MOL0     H11885   8.496  11.571   1.128 -1.4049 -0.1942 -0.5998
  848MOL0     H11886   8.626  11.647   1.032  2.0596 -2.1183  0.6826
  848MOL0     H11887   8.383  11.499   0.932  0.6047  0.0833 -0.5424
  848MOL0     H11888   8.497  11.568   0.822 -1.8132  1.0292 -0.8358
  848MOL0     H11889   8.500  11.818   0.782  1.1739 -1.7348  2.0767
  848MOL0     H11890   8.345  12.120   0.821 -1.2593  1.3514 -1.8360
  848MOL0     H11891   8.176  12.067   0.827 -0.8576  0.2681 -3.2660
  848MOL0     H11892   8.361  11.976   0.607 -1.9784 -4.0350 -0.1655
  848MOL0     H11893   8.250  12.117   0.592  4.5320  0.8072  0.8957
  848MOL0     H11894   8.166  11.905   0.490 -0.1165 -0.9799  0.1082
  848MOL0     H11895   8.164  11.824   0.650  1.7200  0.2531  0.4130
  848MOL0     H11896   8.009  12.066   0.569  1.2548  2.3267  2.0971
  848MOL0     H11897   8.007  12.011   0.735  1.0731 -1.7176  0.7837
  848MOL0     H11898   7.723  11.731   0.573 -1.9159  1.1261 -2.5675
  848MOL0     H11899   7.495  11.753   0.627  2.8181 -3.9178 -0.0502
  848MOL0     H11900   7.068  11.921   0.575 -0.7572 -1.4970 -0.3043
  848MOL0     H11901   6.850  11.988   0.671 -0.3977  3.5202  1.0149
  848MOL0     H11902   6.703  12.003   1.099  1.6631  1.5759 -0.3493
  848MOL0     H11903   6.763  11.841   1.038 -0.7828 -0.0482 -2.0073
  848MOL0     H11904   6.548  12.017   0.934 -1.3765 -0.6307 -0.0797
  848MOL0     H11905   6.533  11.857   1.024  0.7842 -2.8116 -2.1495
  848MOL0     H11906   6.625  11.732   0.844 -2.0066 -1.2992 -0.2460
  848MOL0     H11907   6.639  11.864   0.742 -0.3157 -1.4494  0.0986
  848MOL0     H11908   6.369  11.811   0.880  3.3222 -0.5051  1.1943
  848MOL0     H11909   6.404  11.922   0.748  0.5188  0.5398  1.8515
  848MOL0     H11910   6.461  11.717   0.596 -0.3264  1.2685  0.2414
  848MOL0     H11911   6.294  11.745   0.632 -0.2827  0.6164  0.3967
  848MOL0     H11912   6.323  11.580   0.829  0.3605 -3.3584  0.4655
  848MOL0     H11913   6.478  11.536   0.770 -2.8764 -4.5427  2.6394
  848MOL0     H11914   6.271  11.391   0.719  2.3988 -1.1161 -0.0928
  848MOL0     H11915   6.214  11.514   0.627  0.2622  0.4093  1.7964
  848MOL0     H11916   6.345  11.324   0.486  0.2240 -0.0430 -1.4466
  848MOL0     H11917   6.489  11.382   0.582 -0.9040 -1.3148  1.0904
  848MOL0     H11918   7.003  11.954   1.066 -3.4471 -0.5006  0.5924
  848MOL0     H11919   7.211  11.888   0.986 -1.4478  1.2722 -0.0896
  848MOL0     H11920   7.581  12.150   0.790  0.1971  0.3417 -0.2404
  848MOL0     H11921   7.806  12.113   0.752  1.1676  0.0261 -1.5802
  848MOL0     H11922   9.354  10.954   0.842 -0.1035 -1.0454  0.8477
  848MOL0     H11923   9.618  10.949   0.873 -0.2759 -1.1040 -0.6342
  848MOL0     H11924   9.989  11.018   1.369  0.1883 -1.1585 -0.1650
  848MOL0     H11925  10.214  10.972   1.348  0.3406  0.7524 -0.4437
  848MOL0     H11926  10.420  11.038   1.303  2.1563  1.3499 -0.4544
  848MOL0     H11927  10.540  10.981   1.187 -0.2284  0.9388 -1.7718
  848MOL0     H11928  10.448  10.818   1.381  1.7091 -1.0862 -0.0677
  848MOL0     H11929  10.356  10.753   1.223  1.8757 -1.0441 -2.6561
  848MOL0     H11930  10.652  10.769   1.295  0.7307 -3.2177  1.0039
  848MOL0     H11931  10.601  10.775   1.130  1.5809 -1.8723  0.6010
  848MOL0     H11932  10.497  10.571   1.332  0.4470 -1.0257  0.3322
  848MOL0     H11933  10.492  10.555   1.158 -3.0778  0.7528  1.0312
  848MOL0     H11934  10.882  10.420   1.237  0.6447  0.2876  2.7741
  848MOL0     H11935  10.197  10.983   0.918  3.5090  0.9399  1.1694
  848MOL0     H11936   9.954  10.999   0.939 -1.9186 -0.0585  1.3999
  849MOL0     O11937   9.690   0.602   5.098  0.2562 -0.2383 -0.1660
  849MOL0     C11938   9.775   0.684   5.067 -0.3762  0.2222 -0.1143
  849MOL0     O11939   9.766   0.818   5.037 -0.8539  0.2439 -0.2687
  849MOL0     C11940   9.653   0.887   5.000 -0.3672  0.0739  1.1133
  849MOL0     C11941   9.652   1.028   5.010  0.4327  1.0097  0.0101
  849MOL0     C11942   9.556   1.106   4.952  0.5564  1.0480 -0.6437
  849MOL0     C11943   9.446   1.043   4.884 -0.7657  0.1362 -0.3582
  849MOL0     O11944   9.329   1.112   4.839 -0.0123  0.3799  0.1743
  849MOL0     C11945   9.334   1.250   4.835 -0.2032 -0.2707  1.1890
  849MOL0     C11946   9.232   1.304   4.733  0.6158 -0.2940  0.6266
  849MOL0     C11947   9.091   1.249   4.776 -1.1036 -0.6821 -0.2833
  849MOL0     C11948   8.987   1.319   4.709 -0.0702 -0.5537 -0.4799
  849MOL0     C11949   8.839   1.258   4.719  0.0024  0.2135 -0.1062
  849MOL0     C11950   8.770   1.270   4.857 -0.4530  1.2835 -0.0940
  849MOL0     C11951   8.632   1.198   4.850 -0.8031 -0.3538  0.6769
  849MOL0     C11952   8.549   1.229   4.729 -0.1260  0.9101  0.6174
  849MOL0     N11953   8.416   1.175   4.730 -0.2084 -0.1734 -0.2659
  849MOL0     C11954   8.386   1.042   4.727  0.4286  0.0237 -0.4510
  849MOL0     C11955   8.249   1.043   4.723 -0.0289  0.3983  0.6945
  849MOL0     C11956   8.156   0.930   4.743  0.1772  0.0234 -0.1630
  849MOL0     C11957   8.164   0.818   4.638  0.9404  0.3003  0.7488
  849MOL0     C11958   8.160   0.873   4.498  0.4589  0.0378 -1.1545
  849MOL0     C11959   8.053   0.973   4.467  0.6534  0.5312 -0.4100
  849MOL0     O11960   8.067   1.027   4.340 -0.4363  0.5363 -0.2224
  849MOL0     C11961   7.983   1.130   4.313  0.8872  0.0853 -0.5747
  849MOL0     C11962   7.951   1.228   4.412 -0.2394  0.0471 -0.3273
  849MOL0     C11963   7.866   1.332   4.379  0.3589 -0.6198  0.5698
  849MOL0     C11964   7.807   1.347   4.253 -0.5594  0.0349  0.2208
  849MOL0     C11965   7.723   1.464   4.229  0.4238 -0.4699  0.3178
  849MOL0     O11966   7.646   1.453   4.111  0.5253 -0.0411 -0.6810
  849MOL0     C11967   7.556   1.552   4.087  0.6715 -0.4289  0.1678
  849MOL0     C11968   7.413   1.522   4.084 -0.1184 -0.3400 -0.1489
  849MOL0     C11969   7.323   1.624   4.043  0.5056 -0.2614  0.3850
  849MOL0     C11970   7.371   1.759   4.021  0.5446 -0.4651 -0.1793
  849MOL0     O11971   7.273   1.854   3.998 -0.4893  0.5763 -0.2000
  849MOL0     C11972   7.323   1.986   4.004  0.6702 -0.7847  0.7836
  849MOL0     C11973   7.199   2.074   4.006 -0.0845  0.1369  0.1155
  849MOL0     C11974   7.235   2.221   3.998  0.1798 -0.3595 -0.8408
  849MOL0     C11975   7.125   2.320   4.034  0.0400 -0.5030  0.4059
  849MOL0     C11976   7.194   2.459   4.024 -0.5258 -0.6640 -0.6098
  849MOL0     C11977   7.100   2.577   4.062 -0.8585  0.1047 -0.3723
  849MOL0     C11978   7.070   2.572   4.215 -0.7528 -0.0438 -0.9605
  849MOL0     C11979   7.004   2.692   4.270  0.0283 -0.6772  0.3908
  849MOL0    Cl11980   6.823   2.674   4.239  0.1106  0.0707  0.3677
  849MOL0     C11981   7.505   1.775   4.017 -0.6042  0.0812  0.7967
  849MOL0     C11982   7.590   1.679   4.052  0.1851 -0.9386 -0.4401
  849MOL0     O11983   7.727   1.567   4.302 -0.3598  0.4559  0.3383
  849MOL0     C11984   7.847   1.256   4.155 -0.0729  0.0001  0.1901
  849MOL0     C11985   7.940   1.154   4.185 -0.9803 -0.1695 -0.5556
  849MOL0     N11986   8.201   1.170   4.704  1.4747  0.3262  0.0508
  849MOL0     N11987   8.303   1.254   4.717  0.2287  0.2314  0.2958
  849MOL0     C11988   9.442   0.905   4.875  0.1479  0.4856  0.0431
  849MOL0     C11989   9.537   0.830   4.937  0.3334  0.8741  0.1083
  849MOL0     C11990   9.905   0.625   5.029 -0.2933  0.3066 -0.3462
  849MOL0     C11991   9.911   0.492   4.980 -0.4995  0.9147  0.8092
  849MOL0     C11992  10.035   0.429   4.946  0.6699  0.0065  1.0389
  849MOL0     C11993  10.160   0.495   4.968 -0.7541 -0.2318  0.4917
  849MOL0     O11994  10.295   0.449   4.965 -0.0025 -0.1199 -0.1658
  849MOL0     C11995  10.299   0.302   4.975 -0.5535 -0.3088  0.2704
  849MOL0     C11996  10.437   0.269   5.027 -0.0895 -0.1813 -0.3349
  849MOL0     C11997  10.430   0.123   5.082  0.0375  0.0069 -0.2562
  849MOL0     C11998  10.568   0.076   5.142  0.4345 -0.2153 -0.4046
  849MOL0     C11999  10.560  -0.061   5.173 -0.6186  0.4312  0.2079
  849MOL0     C12000  10.536  -0.178   5.204  0.3702  0.0459 -0.3393
  849MOL0     C12001  10.157   0.635   4.993 -0.0558 -0.3282 -0.0180
  849MOL0     C12002  10.028   0.696   5.029 -0.2620 -0.2280 -0.2441
  849MOL0     H12003   9.735   1.065   5.068  0.0872  0.2804  1.0001
  849MOL0     H12004   9.552   1.213   4.970  1.3671  0.7638  1.5232
  849MOL0     H12005   9.433   1.286   4.803  0.0545 -2.6832 -1.0923
  849MOL0     H12006   9.308   1.297   4.930 -1.9203 -0.3936  0.8114
  849MOL0     H12007   9.273   1.273   4.637  2.1502  1.4809  0.6544
  849MOL0     H12008   9.239   1.412   4.723 -0.5970 -0.4223 -2.8184
  849MOL0     H12009   9.072   1.256   4.884 -0.8176  1.0697 -0.3121
  849MOL0     H12010   9.088   1.143   4.747 -1.0746 -1.5638  2.6051
  849MOL0     H12011   8.983   1.422   4.746  2.6014 -0.4950 -0.2016
  849MOL0     H12012   9.000   1.329   4.601  0.9120 -2.8873 -0.6328
  849MOL0     H12013   8.817   1.156   4.688 -1.1370  0.0038  1.2996
  849MOL0     H12014   8.783   1.327   4.655 -0.9995 -1.0378 -0.6157
  849MOL0     H12015   8.758   1.376   4.878 -0.3478  1.2986 -0.1095
  849MOL0     H12016   8.822   1.212   4.934  0.5695  0.9390 -1.0129
  849MOL0     H12017   8.642   1.093   4.880 -0.2370  0.1817  2.5312
  849MOL0     H12018   8.568   1.241   4.928  0.8048 -0.9623  2.4204
  849MOL0     H12019   8.593   1.188   4.638 -2.0809 -1.5488  0.6776
  849MOL0     H12020   8.542   1.337   4.717 -1.1725  0.9098  1.1073
  849MOL0     H12021   8.456   0.960   4.743 -2.2592 -2.0898  1.4579
  849MOL0     H12022   8.054   0.967   4.739  0.4386  0.8162  0.3449
  849MOL0     H12023   8.165   0.884   4.842 -2.9539 -1.6361 -0.5348
  849MOL0     H12024   8.083   0.748   4.663 -0.2224  2.2481  2.9351
  849MOL0     H12025   8.258   0.765   4.654  1.7374  1.0688 -1.1162
  849MOL0     H12026   8.249   0.932   4.472  1.7827  2.1560  5.8941
  849MOL0     H12027   8.149   0.788   4.429  0.3190  0.5019 -1.7064
  849MOL0     H12028   8.037   1.055   4.536  1.6169  3.5171 -3.4543
  849MOL0     H12029   7.962   0.912   4.474  1.1770 -0.5208 -2.0140
  849MOL0     H12030   7.972   1.226   4.518  0.3148 -0.7845 -0.4435
  849MOL0     H12031   7.853   1.413   4.449  4.9051  2.2076 -1.4488
  849MOL0     H12032   7.377   1.425   4.118 -0.6943 -0.5559 -1.3288
  849MOL0     H12033   7.216   1.604   4.043  0.7676 -1.8242 -0.1560
  849MOL0     H12034   7.374   2.010   3.910 -2.6274 -0.9334 -1.2170
  849MOL0     H12035   7.388   2.005   4.089  1.3273  0.6947 -0.0080
  849MOL0     H12036   7.153   2.057   4.104  2.0603  0.4102  1.2268
  849MOL0     H12037   7.128   2.043   3.928  0.1539 -1.3054  0.4482
  849MOL0     H12038   7.290   2.262   3.913  0.6804  3.3670  1.0728
  849MOL0     H12039   7.310   2.232   4.078 -2.8867 -1.2887  2.4429
  849MOL0     H12040   7.048   2.310   3.957  1.9538 -2.3182 -1.4182
  849MOL0     H12041   7.085   2.313   4.136 -0.0038 -4.8970  0.3051
  849MOL0     H12042   7.232   2.479   3.924 -0.5842  1.2229 -0.2828
  849MOL0     H12043   7.280   2.456   4.092 -1.2435 -1.5185  0.2884
  849MOL0     H12044   7.004   2.556   4.013 -1.4194  0.0736  0.6979
  849MOL0     H12045   7.134   2.676   4.030 -0.1214 -0.0905 -0.2128
  849MOL0     H12046   7.021   2.479   4.246 -0.4383  0.4296  1.0803
  849MOL0     H12047   7.168   2.572   4.262 -2.0669  0.8838  2.0137
  849MOL0     H12048   7.040   2.785   4.225 -2.5251  0.0824 -0.2237
  849MOL0     H12049   7.029   2.705   4.376 -1.3948 -1.4583  0.8428
  849MOL0     H12050   7.547   1.867   3.978 -2.1118  1.3931  2.1507
  849MOL0     H12051   7.697   1.695   4.045 -0.0703  0.5876 -1.2215
  849MOL0     H12052   7.801   1.260   4.057  0.0930  0.1228  0.1174
  849MOL0     H12053   7.971   1.088   4.104  2.6072 -0.6813  1.0348
  849MOL0     H12054   9.372   0.852   4.810 -0.3340 -1.0631  1.7410
  849MOL0     H12055   9.529   0.723   4.952 -0.6719  1.1389  1.7168
  849MOL0     H12056   9.822   0.433   4.961  2.3272 -3.4236 -0.4445
  849MOL0     H12057  10.028   0.326   4.913 -0.3643  0.0781  1.0154
  849MOL0     H12058  10.288   0.255   4.876  0.2195 -0.5844  0.3080
  849MOL0     H12059  10.224   0.263   5.045 -0.8398  1.8805  1.2377
  849MOL0     H12060  10.516   0.277   4.952  0.5891  0.6288  0.4329
  849MOL0     H12061  10.464   0.339   5.106  2.2468 -3.7523  2.3878
  849MOL0     H12062  10.414   0.064   4.991  1.3103 -0.8672  0.0620
  849MOL0     H12063  10.352   0.103   5.155  1.6416  0.0465  1.5344
  849MOL0     H12064  10.648   0.093   5.070 -1.0291 -1.2665 -2.3868
  849MOL0     H12065  10.587   0.134   5.233 -0.0686 -1.2597  0.3913
  849MOL0     H12066  10.502  -0.278   5.224 -0.7633 -0.0711 -2.5166
  849MOL0     H12067  10.250   0.689   4.978 -1.0334  1.2404 -0.6546
  849MOL0     H12068  10.036   0.802   5.050  2.1107  0.4792 -3.9285
  850MOL0     O12069   8.288   9.309   8.128 -0.0242 -0.2819  0.3841
  850MOL0     C12070   8.367   9.378   8.064  0.4712  0.1099 -0.0782
  850MOL0     O12071   8.332   9.465   7.964  0.9383  0.8418  0.0272
  850MOL0     C12072   8.193   9.487   7.931  1.0394  0.2112  0.1740
  850MOL0     C12073   8.163   9.596   7.851  0.4350 -0.2178  0.4725
  850MOL0     C12074   8.037   9.623   7.792  0.7586  0.4631 -0.0351
  850MOL0     C12075   7.930   9.530   7.817 -0.5815 -0.2929  0.8814
  850MOL0     O12076   7.808   9.537   7.754 -0.2556  0.0897 -0.6255
  850MOL0     C12077   7.768   9.655   7.676 -0.2855 -0.2217 -0.1496
  850MOL0     C12078   7.718   9.758   7.779 -0.6779  0.2041  0.7472
  850MOL0     C12079   7.653   9.866   7.706  0.2427  0.3762  0.4432
  850MOL0     C12080   7.617   9.981   7.801  1.3671 -0.6845 -0.9103
  850MOL0     C12081   7.543  10.106   7.734 -0.4202  0.4080 -0.2551
  850MOL0     C12082   7.398  10.082   7.712 -0.9292 -0.1695  0.6633
  850MOL0     C12083   7.325  10.221   7.682  0.4842 -0.5597 -0.1535
  850MOL0     C12084   7.179  10.204   7.635  0.1772 -0.5226 -1.0984
  850MOL0     N12085   7.106  10.329   7.623 -0.1316 -0.2553  0.1203
  850MOL0     C12086   7.082  10.386   7.497 -0.9543 -0.3503  0.3514
  850MOL0     C12087   6.980  10.473   7.512  0.4162 -1.1399 -0.2117
  850MOL0     C12088   6.909  10.549   7.402 -0.3802  0.1359  0.2241
  850MOL0     C12089   6.754  10.512   7.391 -0.0974  0.6348  0.2022
  850MOL0     C12090   6.682  10.557   7.518 -0.5234 -0.5114 -0.3816
  850MOL0     C12091   6.547  10.614   7.491 -0.4839  0.3026  1.0948
  850MOL0     O12092   6.585  10.747   7.440 -0.7071  0.5246  0.8441
  850MOL0     C12093   6.489  10.826   7.390 -0.3444  0.9259 -0.3613
  850MOL0     C12094   6.514  10.967   7.394  0.9090 -0.9621 -0.0771
  850MOL0     C12095   6.406  11.052   7.363 -0.0719  0.6050 -0.6293
  850MOL0     C12096   6.289  11.005   7.319 -0.0699 -0.4149 -0.8982
  850MOL0     C12097   6.184  11.097   7.277  0.1196  0.9393 -0.4676
  850MOL0     O12098   6.111  11.053   7.180  0.0529  0.3350 -0.1591
  850MOL0     C12099   5.995  11.125   7.150 -0.8114 -0.3249 -0.5355
  850MOL0     C12100   5.988  11.257   7.128 -0.4440  0.0653  0.5105
  850MOL0     C12101   5.863  11.319   7.096  1.0919 -0.4503  0.1188
  850MOL0     C12102   5.745  11.247   7.104  0.3830  0.1332  0.2390
  850MOL0     O12103   5.619  11.316   7.102  0.6327 -0.1305 -0.1065
  850MOL0     C12104   5.572  11.375   7.223 -0.4952  0.0330  0.1080
  850MOL0     C12105   5.428  11.437   7.214  0.1895  0.4235  0.1360
  850MOL0     C12106   5.330  11.327   7.197  0.0588 -0.3840 -0.6734
  850MOL0     C12107   5.199  11.403   7.161  0.8695 -0.4025 -0.8094
  850MOL0     C12108   5.072  11.319   7.149  0.5640  0.2059  0.1084
  850MOL0     C12109   4.959  11.407   7.115  0.0311 -0.4252  0.0333
  850MOL0     C12110   4.849  11.319   7.052  0.0413  0.2736  0.8629
  850MOL0     C12111   4.703  11.381   7.050  0.1814 -0.4941 -0.4604
  850MOL0    Cl12112   4.725  11.547   7.005  0.1008  0.0941 -0.6192
  850MOL0     C12113   5.753  11.107   7.121 -0.3697  0.4355  0.4114
  850MOL0     C12114   5.883  11.048   7.136  0.4480 -0.7298 -0.7040
  850MOL0     O12115   6.162  11.199   7.347  0.4601 -0.8707  0.2912
  850MOL0     C12116   6.261  10.866   7.318  0.2869  0.2838 -0.9073
  850MOL0     C12117   6.362  10.780   7.356  0.7035  0.0571  0.5998
  850MOL0     N12118   6.941  10.468   7.647 -1.2395  0.0767  0.1960
  850MOL0     N12119   7.015  10.380   7.710 -0.2301  0.3896 -0.1795
  850MOL0     C12120   7.961   9.416   7.889  1.1828  0.5426  0.0556
  850MOL0     C12121   8.088   9.396   7.946  0.2649  0.3388  0.8018
  850MOL0     C12122   8.508   9.357   8.085  0.0546  0.3405 -0.4710
  850MOL0     C12123   8.602   9.427   8.007  0.4389 -0.4573  0.5007
  850MOL0     C12124   8.740   9.416   8.033 -0.1986 -0.6900 -1.3483
  850MOL0     C12125   8.793   9.328   8.134  0.2394 -0.2588  0.6601
  850MOL0     O12126   8.932   9.307   8.125  0.7333 -0.4208  0.4402
  850MOL0     C12127   8.992   9.205   8.203 -0.8353  0.1324  0.2002
  850MOL0     C12128   9.141   9.196   8.160  0.4735 -0.5745  0.2927
  850MOL0     C12129   9.212   9.326   8.115  0.2286  0.3271 -0.3316
  850MOL0     C12130   9.230   9.418   8.235  0.1111 -0.8085 -0.5937
  850MOL0     C12131   9.298   9.355   8.345 -0.2715 -0.1091  0.0528
  850MOL0     C12132   9.328   9.307   8.448  0.0494  0.1068  0.2377
  850MOL0     C12133   8.700   9.252   8.206 -0.2337 -0.2554 -0.5094
  850MOL0     C12134   8.565   9.265   8.180  0.9172  0.3008  0.7717
  850MOL0     H12135   8.236   9.673   7.826  1.3785 -0.5403  2.1117
  850MOL0     H12136   8.029   9.707   7.724 -0.7905  0.9723  0.7065
  850MOL0     H12137   7.687   9.620   7.611  3.0311 -2.4301 -3.4998
  850MOL0     H12138   7.842   9.689   7.603 -0.2273  1.0969  0.4945
  850MOL0     H12139   7.810   9.797   7.822  0.0779  3.0638 -2.9472
  850MOL0     H12140   7.654   9.700   7.846 -1.2663 -1.4057 -1.0776
  850MOL0     H12141   7.569   9.833   7.646  0.0227  0.5681  0.6416
  850MOL0     H12142   7.718   9.916   7.634  1.0780  1.6968  2.0315
  850MOL0     H12143   7.541   9.942   7.869  1.6111 -0.2906 -0.4094
  850MOL0     H12144   7.702  10.014   7.860 -1.6978  3.9564  1.4843
  850MOL0     H12145   7.597  10.129   7.642  0.1516  0.1069 -0.0046
  850MOL0     H12146   7.556  10.185   7.809 -2.2734 -0.6418  1.2574
  850MOL0     H12147   7.339  10.030   7.789 -1.4893 -0.3025  0.1555
  850MOL0     H12148   7.383  10.026   7.619  0.1499  2.5548 -1.2688
  850MOL0     H12149   7.333  10.281   7.774 -0.4938  1.0284 -1.0481
  850MOL0     H12150   7.394  10.274   7.615  3.5939 -1.3050  2.2430
  850MOL0     H12151   7.134  10.136   7.708  1.9349 -0.4587  0.1104
  850MOL0     H12152   7.166  10.153   7.540 -3.4791 -1.1330 -0.4281
  850MOL0     H12153   7.134  10.364   7.405 -1.7660 -0.8951  0.0131
  850MOL0     H12154   6.966  10.524   7.312  0.6355 -3.6351  1.7276
  850MOL0     H12155   6.934  10.656   7.405  4.0289 -0.5122 -2.9443
  850MOL0     H12156   6.755  10.402   7.393 -1.4413  0.5939  2.2341
  850MOL0     H12157   6.705  10.546   7.299 -1.4696  0.1004  0.7017
  850MOL0     H12158   6.663  10.472   7.585  0.5821 -0.6895 -0.2687
  850MOL0     H12159   6.751  10.629   7.562  0.3102  1.6932 -4.8068
  850MOL0     H12160   6.493  10.639   7.583 -0.0360  1.1221  1.1399
  850MOL0     H12161   6.485  10.552   7.426  0.8579  2.6106 -2.6906
  850MOL0     H12162   6.613  11.000   7.425  1.8467 -2.8293 -0.8877
  850MOL0     H12163   6.415  11.159   7.378  2.6007  0.5480 -1.2171
  850MOL0     H12164   6.078  11.316   7.145  0.6265 -1.5488  0.6937
  850MOL0     H12165   5.850  11.427   7.095 -2.2493 -0.7161 -1.8071
  850MOL0     H12166   5.640  11.458   7.244 -0.1635 -0.5682  1.5352
  850MOL0     H12167   5.587  11.296   7.298  0.3454 -2.7492 -2.7846
  850MOL0     H12168   5.422  11.496   7.123  0.8736 -0.5488 -0.5646
  850MOL0     H12169   5.406  11.490   7.307  0.8456 -0.1590  0.6391
  850MOL0     H12170   5.327  11.271   7.291  0.9496  1.8570  0.8089
  850MOL0     H12171   5.361  11.254   7.122 -1.3174 -1.4915 -0.2095
  850MOL0     H12172   5.186  11.467   7.249 -0.2134 -3.0973  1.0920
  850MOL0     H12173   5.221  11.464   7.072 -2.5956  0.9064 -0.9015
  850MOL0     H12174   5.042  11.275   7.244  0.2284 -1.1042 -0.5908
  850MOL0     H12175   5.087  11.242   7.072  2.0957 -0.6474  1.2113
  850MOL0     H12176   4.988  11.481   7.039  1.4456  2.5825  3.2164
  850MOL0     H12177   4.921  11.469   7.197 -1.0949 -0.5018 -0.4105
  850MOL0     H12178   4.873  11.291   6.949  0.4000 -1.5277  1.4168
  850MOL0     H12179   4.850  11.223   7.104  3.4106 -0.8789 -1.0208
  850MOL0     H12180   4.661  11.376   7.151 -0.2853 -4.4549 -0.6876
  850MOL0     H12181   4.632  11.326   6.988  0.7211 -3.8030  1.5626
  850MOL0     H12182   5.668  11.040   7.133  2.3243 -3.9164 -2.4913
  850MOL0     H12183   5.889  10.942   7.156  3.3680 -0.4766  0.3063
  850MOL0     H12184   6.163  10.843   7.276 -0.2765  1.5194 -0.3395
  850MOL0     H12185   6.344  10.673   7.360  1.4728 -0.2134 -1.6922
  850MOL0     H12186   7.876   9.352   7.912  1.2669 -0.6516 -2.5472
  850MOL0     H12187   8.095   9.306   8.005 -3.1200 -1.7347 -1.6188
  850MOL0     H12188   8.571   9.492   7.926 -2.1947 -0.7160  1.2204
  850MOL0     H12189   8.806   9.479   7.975 -1.1815  3.8309  1.8936
  850MOL0     H12190   8.953   9.103   8.198  0.7924 -0.6469  1.9214
  850MOL0     H12191   8.991   9.230   8.310  3.3302 -1.2520  0.7484
  850MOL0     H12192   9.180   9.137   8.244  0.3106 -1.9136 -0.5341
  850MOL0     H12193   9.141   9.129   8.073 -1.9646 -1.7377  1.1122
  850MOL0     H12194   9.152   9.381   8.042 -1.4235  0.7519  1.2837
  850MOL0     H12195   9.309   9.305   8.070  1.2640  0.9121  1.5500
  850MOL0     H12196   9.277   9.512   8.202 -2.5003  1.2517  1.1672
  850MOL0     H12197   9.134   9.458   8.268 -0.0456 -0.3912 -1.5004
  850MOL0     H12198   9.361   9.274   8.544 -0.7196  0.5167  0.6570
  850MOL0     H12199   8.725   9.181   8.285  0.8069  0.0945 -0.4982
  850MOL0     H12200   8.494   9.201   8.231  1.3311 -1.6200 -0.9555
  851MOL0     O12201   1.484   4.832   4.160  0.0890  0.1272 -0.5417
  851MOL0     C12202   1.516   4.716   4.205  0.9500  0.1954 -0.0314
  851MOL0     O12203   1.427   4.608   4.220 -0.2152 -0.5675  0.2565
  851MOL0     C12204   1.307   4.635   4.158 -0.6767 -1.2465 -1.0842
  851MOL0     C12205   1.194   4.621   4.232  0.4519  0.3934  0.0990
  851MOL0     C12206   1.071   4.622   4.170 -0.6407  0.4418 -0.9169
  851MOL0     C12207   1.067   4.636   4.030 -0.8023  0.3114 -0.0229
  851MOL0     O12208   0.953   4.639   3.955  0.6567 -0.3687 -0.8823
  851MOL0     C12209   0.848   4.545   4.002  0.1834 -0.3907 -0.6596
  851MOL0     C12210   0.847   4.423   3.904 -0.6180  0.0156  0.7907
  851MOL0     C12211   0.782   4.446   3.758  0.1672 -0.5038 -0.4092
  851MOL0     C12212   0.641   4.504   3.776  0.0517 -0.3745 -0.0943
  851MOL0     C12213   0.559   4.475   3.657  1.2918  0.6750 -0.2461
  851MOL0     C12214   0.422   4.565   3.654  0.7602  0.2912 -0.7227
  851MOL0     C12215   0.341   4.551   3.780  0.7659  1.0350 -0.7457
  851MOL0     C12216   0.202   4.611   3.740 -0.3018  0.4635  0.2780
  851MOL0     N12217   0.201   4.740   3.658 -0.5118  0.2014  0.7506
  851MOL0     C12218   0.214   4.869   3.691 -0.3538 -0.6066  0.6538
  851MOL0     C12219   0.165   4.939   3.586 -0.0102 -0.4068  0.1330
  851MOL0     C12220   0.132   5.077   3.562 -0.5934  0.2382  0.0807
  851MOL0     C12221   0.255   5.162   3.567  0.0663 -0.2094 -0.3875
  851MOL0     C12222   0.375   5.110   3.486 -0.6025  0.1849  0.7518
  851MOL0     C12223   0.491   5.197   3.486 -0.4106 -0.2444 -0.4028
  851MOL0     O12224   0.528   5.240   3.617 -0.1719  0.6203 -0.7024
  851MOL0     C12225   0.623   5.339   3.619  1.3503  0.1098  0.1593
  851MOL0     C12226   0.706   5.390   3.517 -0.0721 -0.6062 -0.8047
  851MOL0     C12227   0.806   5.484   3.546 -0.3036  0.5733  0.6771
  851MOL0     C12228   0.825   5.527   3.679  0.2141 -0.0337 -0.0919
  851MOL0     C12229   0.933   5.622   3.708 -0.0410  0.9271 -0.7148
  851MOL0     O12230   1.026   5.635   3.610 -0.4735  0.1403 -1.4568
  851MOL0     C12231   1.129   5.726   3.643  0.9050  0.6098  0.0423
  851MOL0     C12232   1.240   5.677   3.707 -0.7579 -0.0605 -0.3646
  851MOL0     C12233   1.354   5.752   3.718  0.3422 -0.3626 -0.4027
  851MOL0     C12234   1.352   5.881   3.667 -0.3456 -0.3828 -0.0985
  851MOL0     O12235   1.457   5.963   3.684  1.0355 -0.4431 -0.1470
  851MOL0     C12236   1.583   5.902   3.693 -0.9862 -0.3736  0.3933
  851MOL0     C12237   1.696   5.989   3.634 -0.5284 -0.4114  0.8032
  851MOL0     C12238   1.637   6.080   3.516  0.1757  0.4573 -0.8672
  851MOL0     C12239   1.751   6.135   3.424  1.4153  0.6803 -0.2354
  851MOL0     C12240   1.695   6.237   3.323  0.0632 -0.6586 -0.0502
  851MOL0     C12241   1.587   6.181   3.235 -0.2047 -1.1581  0.7683
  851MOL0     C12242   1.557   6.275   3.115 -0.6070  0.5792 -0.0867
  851MOL0     C12243   1.488   6.202   3.011  0.5745  0.2068  0.8794
  851MOL0    Cl12244   1.327   6.189   3.073  0.2471 -0.4931  0.2187
  851MOL0     C12245   1.240   5.931   3.612 -0.3502 -0.8370 -0.4585
  851MOL0     C12246   1.121   5.858   3.601 -0.1559  0.0103  0.5937
  851MOL0     O12247   0.927   5.689   3.814 -0.7828  0.3537  0.4375
  851MOL0     C12248   0.737   5.480   3.780 -1.0679 -0.2259  1.4339
  851MOL0     C12249   0.634   5.389   3.746 -0.0758  0.2072 -0.4018
  851MOL0     N12250   0.138   4.854   3.480 -0.2981  0.1649  0.0489
  851MOL0     N12251   0.161   4.737   3.527  0.1911 -0.1704  0.6512
  851MOL0     C12252   1.182   4.660   3.953 -0.1714  0.6445 -0.7807
  851MOL0     C12253   1.303   4.657   4.018  0.6213 -0.4346  0.4080
  851MOL0     C12254   1.636   4.696   4.261  0.1996 -0.4000 -0.5475
  851MOL0     C12255   1.678   4.573   4.298 -0.3977  0.1165  0.0002
  851MOL0     C12256   1.800   4.562   4.368  0.0115  0.1300 -0.2637
  851MOL0     C12257   1.882   4.669   4.400  0.0953  1.9059 -0.3257
  851MOL0     O12258   2.002   4.634   4.471 -0.0198 -0.3777 -0.0590
  851MOL0     C12259   2.104   4.735   4.480 -0.0117  0.7436 -0.1768
  851MOL0     C12260   2.217   4.681   4.564 -0.5634  1.4061 -0.0868
  851MOL0     C12261   2.252   4.534   4.523  0.1982 -0.7535  0.8051
  851MOL0     C12262   2.406   4.494   4.550  0.5587 -0.4840  0.3555
  851MOL0     C12263   2.503   4.573   4.471  0.3292 -0.4370  0.5582
  851MOL0     C12264   2.592   4.609   4.408 -0.6600  0.7518 -0.5615
  851MOL0     C12265   1.843   4.798   4.362 -0.0147 -0.2611  1.3094
  851MOL0     C12266   1.724   4.805   4.283  0.4299 -1.0300 -0.0697
  851MOL0     H12267   1.199   4.604   4.339 -6.3091  1.2365  0.9886
  851MOL0     H12268   0.982   4.605   4.230  0.0125 -2.2638 -0.5894
  851MOL0     H12269   0.755   4.601   4.006  0.6600  0.3512  2.3111
  851MOL0     H12270   0.873   4.497   4.097  0.9974 -0.1224 -0.7245
  851MOL0     H12271   0.810   4.330   3.947  0.3081 -2.1977 -2.7735
  851MOL0     H12272   0.950   4.395   3.883 -0.4775 -0.3854  1.9836
  851MOL0     H12273   0.782   4.354   3.698 -2.1659  0.5000 -2.1251
  851MOL0     H12274   0.837   4.523   3.702  0.7993  2.0497  3.3722
  851MOL0     H12275   0.596   4.464   3.868 -2.4058 -0.8323 -1.3927
  851MOL0     H12276   0.661   4.611   3.790  4.2448 -1.0607  0.2876
  851MOL0     H12277   0.540   4.368   3.643  2.6582  0.6555 -2.5328
  851MOL0     H12278   0.612   4.501   3.565  2.4234 -0.9430 -0.1045
  851MOL0     H12279   0.366   4.539   3.563  0.0002 -2.1821  0.3754
  851MOL0     H12280   0.445   4.672   3.653 -0.1903  0.5354 -2.9112
  851MOL0     H12281   0.322   4.449   3.816 -2.3512  1.6251 -0.4976
  851MOL0     H12282   0.394   4.601   3.862  1.6292 -1.3790  0.2746
  851MOL0     H12283   0.139   4.631   3.827  0.0371 -1.3719  0.9995
  851MOL0     H12284   0.149   4.530   3.689 -0.8531  2.2102 -2.1443
  851MOL0     H12285   0.230   4.902   3.793  3.6261 -2.5769  0.8503
  851MOL0     H12286   0.058   5.106   3.637 -0.4916 -0.7540  0.5702
  851MOL0     H12287   0.088   5.077   3.462  0.4024 -2.6688 -0.4398
  851MOL0     H12288   0.284   5.178   3.671 -2.8562  0.3341  0.4596
  851MOL0     H12289   0.233   5.265   3.537  0.0487 -0.2521 -0.5209
  851MOL0     H12290   0.411   5.013   3.522 -0.8725  0.0310  0.6074
  851MOL0     H12291   0.350   5.109   3.380  2.4054 -1.7432 -0.0647
  851MOL0     H12292   0.474   5.281   3.419  1.5285 -1.3746 -2.4214
  851MOL0     H12293   0.574   5.141   3.442 -0.8221 -1.0152 -0.2261
  851MOL0     H12294   0.674   5.364   3.417 -2.5520 -0.8394 -0.0208
  851MOL0     H12295   0.875   5.510   3.466 -0.0004  0.5541  0.9292
  851MOL0     H12296   1.251   5.574   3.741  0.1898 -0.6703 -2.4226
  851MOL0     H12297   1.428   5.728   3.794  0.8914 -1.9231 -1.3941
  851MOL0     H12298   1.583   5.814   3.628 -0.2040 -1.2331  1.5212
  851MOL0     H12299   1.611   5.862   3.791 -0.4129 -3.2833 -0.8550
  851MOL0     H12300   1.775   5.921   3.601  0.6539  1.6500 -0.9432
  851MOL0     H12301   1.739   6.057   3.708 -1.8779  2.3002 -0.7456
  851MOL0     H12302   1.586   6.169   3.553 -0.7343  0.4687 -2.0950
  851MOL0     H12303   1.564   6.022   3.459 -0.3960 -1.8510  1.9952
  851MOL0     H12304   1.826   6.178   3.490 -0.3768 -0.9932  3.1468
  851MOL0     H12305   1.814   6.059   3.376  1.1559  0.2585  0.0827
  851MOL0     H12306   1.778   6.286   3.271 -1.4762  2.6417  0.3221
  851MOL0     H12307   1.663   6.330   3.371  3.7572  1.2069 -0.8833
  851MOL0     H12308   1.490   6.181   3.286 -0.5190  2.4012  0.3885
  851MOL0     H12309   1.616   6.083   3.197 -0.9595 -0.9377 -0.4184
  851MOL0     H12310   1.513   6.372   3.142  1.1062  1.0394  1.2365
  851MOL0     H12311   1.658   6.303   3.083  0.6404 -2.8884  0.3770
  851MOL0     H12312   1.527   6.103   2.987  1.8382  0.7905  0.4231
  851MOL0     H12313   1.493   6.265   2.921  0.9106 -2.1438 -0.8504
  851MOL0     H12314   1.235   6.033   3.576 -3.5422 -0.1851  1.4540
  851MOL0     H12315   1.046   5.911   3.544  0.8350  0.4120 -0.3746
  851MOL0     H12316   0.754   5.506   3.884  1.8504  2.3015  0.4781
  851MOL0     H12317   0.553   5.348   3.806  0.6172 -1.5856 -0.6328
  851MOL0     H12318   1.182   4.674   3.846 -0.4528  2.7459 -0.5453
  851MOL0     H12319   1.397   4.667   3.965  0.9316  0.0010  1.0343
  851MOL0     H12320   1.618   4.483   4.288 -1.3756  0.8170 -0.6444
  851MOL0     H12321   1.828   4.461   4.394  0.3222  0.2301 -0.2064
  851MOL0     H12322   2.059   4.821   4.532 -2.0146  0.9406 -2.1081
  851MOL0     H12323   2.133   4.774   4.382 -2.1271  1.6932 -0.4974
  851MOL0     H12324   2.299   4.752   4.551 -1.6240  3.0453  1.7658
  851MOL0     H12325   2.194   4.690   4.670 -0.6928 -3.1758  0.4935
  851MOL0     H12326   2.237   4.518   4.416 -2.0512 -2.0912  1.2682
  851MOL0     H12327   2.186   4.465   4.576 -2.1354  0.5267 -0.2870
  851MOL0     H12328   2.425   4.488   4.658 -1.1767 -2.1784  0.6309
  851MOL0     H12329   2.424   4.391   4.516  0.6086 -1.0814  2.0740
  851MOL0     H12330   2.676   4.612   4.341  1.4376 -0.1162  1.8481
  851MOL0     H12331   1.907   4.885   4.373  1.8117 -1.1607 -1.2575
  851MOL0     H12332   1.697   4.900   4.237 -1.6469 -1.3230  0.4269
  852MOL0     O12333   5.706   1.135   8.140  0.1527  0.0734 -0.7140
  852MOL0     C12334   5.802   1.208   8.133  0.7042  0.1010  0.4078
  852MOL0     O12335   5.833   1.289   8.038  0.1508  0.3951 -1.0735
  852MOL0     C12336   5.739   1.314   7.940 -0.3138 -0.0343 -0.7427
  852MOL0     C12337   5.700   1.217   7.846  0.5913 -0.8902  0.1494
  852MOL0     C12338   5.603   1.257   7.752 -0.4930  0.2337 -0.1653
  852MOL0     C12339   5.547   1.387   7.752  0.0923 -0.1439 -0.1719
  852MOL0     O12340   5.455   1.409   7.660 -0.6764 -0.0474  0.3781
  852MOL0     C12341   5.317   1.383   7.685  0.0004  1.0479 -0.5147
  852MOL0     C12342   5.241   1.494   7.600  0.1280  0.7357 -0.3462
  852MOL0     C12343   5.265   1.647   7.621  0.1410 -0.2939  0.3811
  852MOL0     C12344   5.179   1.743   7.533  0.5900 -0.7842 -1.6064
  852MOL0     C12345   5.032   1.746   7.571  0.6494 -0.1669  0.0394
  852MOL0     C12346   4.943   1.785   7.453 -0.4258  0.1634 -0.1868
  852MOL0     C12347   4.796   1.790   7.492 -0.4188  0.4141  0.1947
  852MOL0     C12348   4.709   1.857   7.381 -0.4233 -0.2887 -0.1428
  852MOL0     N12349   4.569   1.852   7.425 -0.4625 -0.6182  0.0548
  852MOL0     C12350   4.473   1.790   7.359  0.0797  0.4801  0.2195
  852MOL0     C12351   4.358   1.817   7.422  0.0427  0.2044  0.0387
  852MOL0     C12352   4.217   1.775   7.392  0.3327 -0.4618  0.4327
  852MOL0     C12353   4.155   1.891   7.326  0.9710  0.3674 -1.0482
  852MOL0     C12354   4.009   1.870   7.296  0.1102  0.9152  0.4276
  852MOL0     C12355   3.911   1.883   7.416 -0.0918 -0.0650  0.1458
  852MOL0     O12356   3.777   1.880   7.367  0.3014 -0.3480  0.1568
  852MOL0     C12357   3.673   1.863   7.454  0.8496 -0.3751  0.6057
  852MOL0     C12358   3.546   1.849   7.386 -0.6916 -0.9785  0.4669
  852MOL0     C12359   3.425   1.855   7.458  0.3459  0.3521  0.3013
  852MOL0     C12360   3.421   1.884   7.592  0.3559 -0.7388 -0.7055
  852MOL0     C12361   3.304   1.913   7.673  0.4187 -0.1224 -0.0433
  852MOL0     O12362   3.185   1.903   7.602 -0.3389 -0.9790 -0.1553
  852MOL0     C12363   3.063   1.931   7.667 -0.9205  0.0877 -0.5346
  852MOL0     C12364   3.047   2.053   7.733  1.2145  0.3386  0.5986
  852MOL0     C12365   2.918   2.094   7.777 -0.3646  0.3336 -0.0483
  852MOL0     C12366   2.804   2.016   7.755  0.7911 -0.1032 -0.3173
  852MOL0     O12367   2.688   2.062   7.801 -0.2412 -0.5561  0.6956
  852MOL0     C12368   2.578   2.073   7.713 -0.6122 -0.0972 -0.9628
  852MOL0     C12369   2.475   2.149   7.794  0.4232  0.4123 -0.2407
  852MOL0     C12370   2.347   2.145   7.713  0.0976  0.1763  0.0518
  852MOL0     C12371   2.229   2.186   7.807  0.0521 -0.5644 -0.7490
  852MOL0     C12372   2.086   2.157   7.764  0.9388 -0.4278  0.0813
  852MOL0     C12373   2.065   2.172   7.608  0.4571  0.3924 -0.1569
  852MOL0     C12374   1.918   2.154   7.572 -0.0241  0.4536 -0.0359
  852MOL0     C12375   1.919   2.118   7.425 -0.1595  0.0876  0.3842
  852MOL0    Cl12376   1.976   1.950   7.403  0.0048 -0.4038  0.1610
  852MOL0     C12377   2.820   1.885   7.709 -1.0798  0.9832 -0.1586
  852MOL0     C12378   2.946   1.846   7.658 -1.0686 -0.0210 -0.7230
  852MOL0     O12379   3.318   1.929   7.796  0.6872 -0.0952  0.1926
  852MOL0     C12380   3.551   1.875   7.661  0.8883  1.7684  0.1322
  852MOL0     C12381   3.675   1.871   7.591  0.5619  0.1073 -0.2678
  852MOL0     N12382   4.388   1.898   7.526 -0.6555  0.4071 -0.7787
  852MOL0     N12383   4.518   1.908   7.534 -0.3097 -0.5483 -0.2537
  852MOL0     C12384   5.588   1.480   7.852  0.0562  0.3963  0.3754
  852MOL0     C12385   5.680   1.440   7.939 -0.5273  0.5331 -0.0077
  852MOL0     C12386   5.907   1.186   8.235 -0.3337  0.1503  0.7806
  852MOL0     C12387   5.889   1.111   8.343 -0.5410 -0.3185 -0.0959
  852MOL0     C12388   5.994   1.094   8.433 -0.4417 -0.5884 -0.1799
  852MOL0     C12389   6.122   1.143   8.403  0.1039  0.2520  0.1163
  852MOL0     O12390   6.234   1.137   8.482 -0.0315  0.7955 -1.0049
  852MOL0     C12391   6.254   1.007   8.546 -0.4232 -0.4135  0.7457
  852MOL0     C12392   6.408   0.988   8.565 -0.2256 -0.0306 -0.7484
  852MOL0     C12393   6.444   0.854   8.632 -0.3488  0.8125 -0.5559
  852MOL0     C12394   6.588   0.835   8.671 -0.3211 -0.3725  0.3109
  852MOL0     C12395   6.667   0.788   8.557 -0.3570  0.2277 -0.3244
  852MOL0     C12396   6.738   0.753   8.463  0.3682  0.0185 -0.6365
  852MOL0     C12397   6.138   1.212   8.290  0.2014 -0.0491  0.6880
  852MOL0     C12398   6.036   1.226   8.204  0.3221 -0.7654 -0.5591
  852MOL0     H12399   5.754   1.124   7.834  2.8561  0.3115  0.2564
  852MOL0     H12400   5.583   1.184   7.674 -0.1054 -1.1719  1.0227
  852MOL0     H12401   5.287   1.385   7.790  1.4399  0.9567 -0.0760
  852MOL0     H12402   5.291   1.282   7.654 -0.5953  1.0004  0.1225
  852MOL0     H12403   5.135   1.470   7.611  0.2067 -0.1039 -1.3261
  852MOL0     H12404   5.259   1.480   7.493 -0.0271  1.0373 -0.4154
  852MOL0     H12405   5.370   1.666   7.596  0.8272 -0.7849  2.6626
  852MOL0     H12406   5.229   1.671   7.722  1.1142  1.2435  0.3885
  852MOL0     H12407   5.221   1.843   7.547 -1.9171  0.2829 -1.1691
  852MOL0     H12408   5.201   1.722   7.428 -0.2383  1.8344 -2.3811
  852MOL0     H12409   5.035   1.819   7.652  1.0309  1.4844 -1.3974
  852MOL0     H12410   5.006   1.649   7.614  1.3610 -0.2205  0.3538
  852MOL0     H12411   4.935   1.706   7.378  1.9594  0.3271 -0.6792
  852MOL0     H12412   4.977   1.877   7.403 -0.3090  0.9958  1.3631
  852MOL0     H12413   4.759   1.688   7.506  6.4662 -3.0528 -2.2111
  852MOL0     H12414   4.779   1.858   7.576 -3.0242  2.0551 -1.5365
  852MOL0     H12415   4.717   1.787   7.297 -0.1834 -0.8783  0.3629
  852MOL0     H12416   4.736   1.957   7.346 -0.9616 -0.6911 -1.7967
  852MOL0     H12417   4.475   1.727   7.271 -2.0733  2.4884 -1.3869
  852MOL0     H12418   4.159   1.755   7.483  0.5095 -2.5208  0.1370
  852MOL0     H12419   4.223   1.687   7.328 -0.9187 -0.3057  0.0841
  852MOL0     H12420   4.210   1.943   7.246  1.4547  2.4868  0.5800
  852MOL0     H12421   4.153   1.970   7.401  2.7884 -1.6964  1.3589
  852MOL0     H12422   3.984   1.946   7.221  1.6071  1.6610  0.6408
  852MOL0     H12423   3.988   1.776   7.245 -2.3255  0.0250  2.7981
  852MOL0     H12424   3.919   1.976   7.473 -1.3948  0.4168 -0.4210
  852MOL0     H12425   3.923   1.798   7.484  1.4461 -1.3409 -1.6223
  852MOL0     H12426   3.553   1.824   7.281 -1.0002  0.3444  0.1104
  852MOL0     H12427   3.331   1.845   7.404  0.7413 -1.5705 -0.1286
  852MOL0     H12428   3.128   2.122   7.758  1.3070 -0.1142  1.5876
  852MOL0     H12429   2.903   2.185   7.833  0.7515  2.0046 -2.2592
  852MOL0     H12430   2.543   1.983   7.662  1.2588 -1.2827 -0.2475
  852MOL0     H12431   2.604   2.147   7.636 -1.6934 -0.8296 -2.0539
  852MOL0     H12432   2.509   2.251   7.810 -0.3590  0.6102  0.2077
  852MOL0     H12433   2.469   2.107   7.896  1.7129 -1.9775 -1.0671
  852MOL0     H12434   2.325   2.043   7.679  0.3584  0.3604 -0.6996
  852MOL0     H12435   2.347   2.219   7.632  0.7947  2.1440  1.7777
  852MOL0     H12436   2.246   2.154   7.910 -3.3925  0.4469  0.2580
  852MOL0     H12437   2.237   2.295   7.811  0.6946 -0.6363  0.2968
  852MOL0     H12438   2.006   2.211   7.816 -1.1567 -2.6987 -0.5799
  852MOL0     H12439   2.079   2.052   7.794 -0.6421  0.1456  1.8935
  852MOL0     H12440   2.132   2.097   7.564 -1.1266 -1.0647 -0.1534
  852MOL0     H12441   2.093   2.275   7.583 -3.2069  1.2256 -1.3959
  852MOL0     H12442   1.862   2.082   7.633 -3.9006  2.9434 -0.3083
  852MOL0     H12443   1.864   2.249   7.577 -1.3849 -0.2321 -0.9278
  852MOL0     H12444   1.976   2.190   7.366 -3.7585  3.1227  0.2087
  852MOL0     H12445   1.811   2.117   7.404  0.0801 -0.5183 -0.9418
  852MOL0     H12446   2.737   1.818   7.693  0.3113 -0.7163 -0.4837
  852MOL0     H12447   2.957   1.754   7.601  0.6595 -0.4468  0.2234
  852MOL0     H12448   3.562   1.870   7.769  1.1617 -0.2973  0.0557
  852MOL0     H12449   3.760   1.875   7.659 -1.8656  0.6866  2.9706
  852MOL0     H12450   5.547   1.580   7.855  2.2512  1.4720 -2.0655
  852MOL0     H12451   5.709   1.507   8.019  2.9692  1.4194 -1.8268
  852MOL0     H12452   5.790   1.067   8.351  0.8883 -3.9391 -0.3536
  852MOL0     H12453   5.974   1.030   8.519  2.0123 -0.8823  0.2519
  852MOL0     H12454   6.221   0.930   8.476  1.6651  0.4405 -1.3062
  852MOL0     H12455   6.201   0.995   8.641 -3.3768 -1.3069 -0.8789
  852MOL0     H12456   6.444   0.995   8.462 -2.1147  0.4834 -1.4171
  852MOL0     H12457   6.447   1.078   8.615  0.6812 -0.7544 -0.1117
  852MOL0     H12458   6.423   0.766   8.569  3.8766 -1.4915  0.8215
  852MOL0     H12459   6.385   0.857   8.723  0.1451  1.5521 -0.2496
  852MOL0     H12460   6.635   0.930   8.699 -1.9922  0.2332  1.1870
  852MOL0     H12461   6.588   0.760   8.751 -0.3299  4.3494  5.3066
  852MOL0     H12462   6.786   0.712   8.376  0.5362 -4.3826  1.3085
  852MOL0     H12463   6.233   1.249   8.252  0.3112  1.7426  2.5148
  852MOL0     H12464   6.055   1.264   8.104  0.3672 -0.7698 -0.5520
  853MOL0     O12465   4.390   0.353  11.219  0.3504  0.6664  0.1101
  853MOL0     C12466   4.459   0.427  11.147 -0.4408 -0.0744  0.8325
  853MOL0     O12467   4.414   0.521  11.065 -0.1503 -0.4731  1.5922
  853MOL0     C12468   4.277   0.551  11.055  0.2683 -0.3044 -0.3104
  853MOL0     C12469   4.239   0.690  11.058  0.5639  0.6742  0.2925
  853MOL0     C12470   4.104   0.731  11.053 -0.3850 -0.2017 -1.1186
  853MOL0     C12471   4.000   0.634  11.046  0.1058 -0.3265  0.3194
  853MOL0     O12472   3.867   0.661  11.054 -0.3212 -0.2581 -0.1551
  853MOL0     C12473   3.815   0.792  11.027 -0.3510  0.6540  0.2585
  853MOL0     C12474   3.665   0.789  11.003 -0.3744  0.7023 -0.3422
  853MOL0     C12475   3.601   0.929  11.014  0.8852  0.3449 -0.4364
  853MOL0     C12476   3.447   0.910  10.999  0.5188 -1.3558  0.5849
  853MOL0     C12477   3.353   1.027  11.021  0.6594  0.2835 -0.1466
  853MOL0     C12478   3.322   1.055  11.165 -0.5096 -0.9166 -0.0790
  853MOL0     C12479   3.264   1.196  11.192 -0.3591 -0.1897 -0.7475
  853MOL0     C12480   3.136   1.195  11.269 -0.5061 -1.0816  0.8691
  853MOL0     N12481   3.158   1.260  11.399 -0.5013 -0.0663 -0.3272
  853MOL0     C12482   3.174   1.203  11.518 -0.6883 -0.3993  0.2514
  853MOL0     C12483   3.168   1.296  11.613  0.7155 -0.4714  0.1274
  853MOL0     C12484   3.192   1.294  11.761  0.1427  0.8482 -0.0829
  853MOL0     C12485   3.055   1.329  11.833 -0.1555  0.1665  0.1348
  853MOL0     C12486   3.066   1.293  11.981 -0.1707 -0.5392 -0.0822
  853MOL0     C12487   3.159   1.176  12.027 -0.3569 -0.0580 -0.0249
  853MOL0     O12488   3.306   1.208  12.006 -0.9420  0.2944  0.3633
  853MOL0     C12489   3.391   1.143  12.095 -0.1378  0.3602  0.0823
  853MOL0     C12490   3.523   1.206  12.094  0.6748  0.6505  0.4392
  853MOL0     C12491   3.625   1.154  12.177 -1.2369  0.6014  0.2460
  853MOL0     C12492   3.599   1.035  12.245 -0.0568  1.0056  0.2011
  853MOL0     C12493   3.701   0.965  12.321 -0.4425 -0.6518 -0.5516
  853MOL0     O12494   3.666   0.838  12.355 -0.7341 -0.2060  0.0175
  853MOL0     C12495   3.763   0.769  12.420  0.0474 -0.1350 -0.0888
  853MOL0     C12496   3.872   0.710  12.359 -1.2775 -0.5387 -0.4304
  853MOL0     C12497   3.955   0.633  12.428 -0.3895 -0.0212 -0.2769
  853MOL0     C12498   3.952   0.620  12.567 -0.4525  0.5871 -0.1781
  853MOL0     O12499   4.041   0.532  12.621  0.1177 -0.6434 -0.1887
  853MOL0     C12500   4.054   0.533  12.766  0.1502 -0.1152  0.4241
  853MOL0     C12501   4.181   0.460  12.811 -0.8750 -0.5223  0.0959
  853MOL0     C12502   4.320   0.529  12.752  1.1863  0.8160  0.1914
  853MOL0     C12503   4.429   0.423  12.767  0.0778 -0.3085  0.5231
  853MOL0     C12504   4.574   0.479  12.741 -0.2299 -0.3026 -0.0616
  853MOL0     C12505   4.672   0.398  12.819 -0.2774 -0.3391  1.1840
  853MOL0     C12506   4.815   0.457  12.810 -0.4333  0.5240 -0.4495
  853MOL0     C12507   4.910   0.333  12.822  1.4048 -0.4354 -0.3111
  853MOL0    Cl12508   5.084   0.389  12.845 -0.0799 -0.1099  0.1654
  853MOL0     C12509   3.859   0.701  12.638  0.2510  0.1050 -0.7894
  853MOL0     C12510   3.764   0.774  12.561  0.5172  0.8064 -0.7886
  853MOL0     O12511   3.807   1.020  12.353 -0.0209 -0.0560 -0.5840
  853MOL0     C12512   3.470   0.978  12.242  0.3690 -0.4817 -0.5132
  853MOL0     C12513   3.359   1.041  12.185 -0.1213  0.6718  0.6052
  853MOL0     N12514   3.156   1.415  11.546 -0.3017  0.2030  0.0814
  853MOL0     N12515   3.140   1.394  11.418 -0.3819 -0.3752 -0.3295
  853MOL0     C12516   4.037   0.501  11.054 -0.2388  0.0637 -0.0847
  853MOL0     C12517   4.168   0.453  11.058 -0.4777 -0.3351  0.3928
  853MOL0     C12518   4.602   0.409  11.153  0.6713 -0.0765  0.4343
  853MOL0     C12519   4.665   0.347  11.265  0.1211  0.2336 -0.2472
  853MOL0     C12520   4.803   0.310  11.254 -0.1397  0.4663 -0.1615
  853MOL0     C12521   4.878   0.352  11.146  0.4764  0.1075  0.7079
  853MOL0     O12522   5.008   0.322  11.137  0.6799 -0.5296 -0.5765
  853MOL0     C12523   5.086   0.385  11.238 -0.0004 -1.1340  0.6089
  853MOL0     C12524   5.185   0.293  11.322 -0.3995 -0.7608  0.3864
  853MOL0     C12525   5.288   0.217  11.239  0.1733 -0.4739 -0.5143
  853MOL0     C12526   5.374   0.137  11.330 -0.7752  0.8845  0.3556
  853MOL0     C12527   5.434   0.032  11.246  0.4546  0.0934 -0.6483
  853MOL0     C12528   5.499  -0.054  11.189 -0.1893 -1.4717  0.4929
  853MOL0     C12529   4.813   0.420  11.039  0.0544 -0.4849  0.4979
  853MOL0     C12530   4.679   0.454  11.042  0.4995 -0.3426 -0.2984
  853MOL0     H12531   4.324   0.755  11.073 -0.4615  1.7163  1.9255
  853MOL0     H12532   4.077   0.835  11.067  0.4608 -0.2783  1.5502
  853MOL0     H12533   3.874   0.832  10.944  3.8801 -0.2074  2.5687
  853MOL0     H12534   3.849   0.863  11.104  4.3682 -0.1128 -0.8176
  853MOL0     H12535   3.612   0.730  11.078 -0.2262 -1.0159 -1.5354
  853MOL0     H12536   3.649   0.738  10.907 -1.7159 -1.2387  0.8443
  853MOL0     H12537   3.648   0.981  10.929  1.1927 -2.2740 -1.9520
  853MOL0     H12538   3.637   0.974  11.107  2.0946  1.6060 -1.4493
  853MOL0     H12539   3.437   0.871  10.898 -1.8879  0.0303  0.1950
  853MOL0     H12540   3.411   0.824  11.055 -2.3622 -1.2403 -0.9015
  853MOL0     H12541   3.255   1.002  10.981 -1.8691  0.8790  4.8826
  853MOL0     H12542   3.386   1.120  10.973  1.1262  1.5771  2.5112
  853MOL0     H12543   3.418   1.045  11.217 -1.1179 -1.5721  0.9465
  853MOL0     H12544   3.256   0.975  11.200 -2.4494  0.1481 -1.1279
  853MOL0     H12545   3.333   1.242  11.263 -1.1511  0.8674 -0.6503
  853MOL0     H12546   3.271   1.256  11.101  1.1191  3.0774  1.3513
  853MOL0     H12547   3.102   1.094  11.294 -3.2150 -0.8752 -1.4539
  853MOL0     H12548   3.055   1.232  11.206 -0.0362 -3.7969 -1.5447
  853MOL0     H12549   3.192   1.098  11.540 -1.2671  0.0650  3.5183
  853MOL0     H12550   3.283   1.347  11.790  1.6125 -2.1707  1.2427
  853MOL0     H12551   3.207   1.187  11.771  0.0594  1.0291  3.3642
  853MOL0     H12552   2.970   1.269  11.799 -0.9141  2.3677 -2.1443
  853MOL0     H12553   3.034   1.436  11.833  2.3865  0.7696  2.1732
  853MOL0     H12554   3.093   1.382  12.038 -0.6534  0.5731 -1.5202
  853MOL0     H12555   2.961   1.270  12.002 -0.5649  0.6376 -0.6600
  853MOL0     H12556   3.129   1.080  11.984  0.9173 -1.3457  1.8407
  853MOL0     H12557   3.145   1.161  12.134  1.5054 -2.7207 -0.0366
  853MOL0     H12558   3.540   1.292  12.031  1.7984  0.6837  0.7589
  853MOL0     H12559   3.719   1.209  12.177 -0.3146 -0.8801 -1.4967
  853MOL0     H12560   3.888   0.725  12.252  1.9114  1.4360  0.1788
  853MOL0     H12561   4.028   0.584  12.365  0.3548  0.5528  0.1190
  853MOL0     H12562   3.961   0.487  12.802 -0.3878 -2.1867 -3.1103
  853MOL0     H12563   4.051   0.636  12.803 -2.0455 -0.4859  1.4830
  853MOL0     H12564   4.162   0.357  12.779 -3.0767 -0.1936  0.1866
  853MOL0     H12565   4.171   0.481  12.918  0.8126  1.1585 -0.0184
  853MOL0     H12566   4.338   0.625  12.800 -0.1656  1.1417  0.0779
  853MOL0     H12567   4.298   0.549  12.647  1.8477 -0.5460 -0.2333
  853MOL0     H12568   4.424   0.382  12.868 -0.0518 -2.9914 -0.5045
  853MOL0     H12569   4.413   0.346  12.691  0.1567 -0.7099  0.9069
  853MOL0     H12570   4.576   0.581  12.782  0.9923 -0.5113  0.4327
  853MOL0     H12571   4.603   0.487  12.636 -0.4255  0.8121 -0.0425
  853MOL0     H12572   4.669   0.299  12.772  0.3635  0.4353 -0.5800
  853MOL0     H12573   4.648   0.380  12.924 -2.1569  0.7799  0.9902
  853MOL0     H12574   4.837   0.508  12.716 -1.4298  2.0525  0.1180
  853MOL0     H12575   4.830   0.530  12.891  2.6991  2.7321 -2.7585
  853MOL0     H12576   4.908   0.285  12.724  2.2776  1.2459 -1.2013
  853MOL0     H12577   4.888   0.269  12.908 -1.5952  2.7158  1.5229
  853MOL0     H12578   3.842   0.682  12.744 -0.8375 -1.6100 -1.2381
  853MOL0     H12579   3.689   0.828  12.617  0.2780 -0.7086  0.4153
  853MOL0     H12580   3.438   0.885  12.287 -0.7416  0.4072  0.5929
  853MOL0     H12581   3.260   0.998  12.196 -0.0257  0.5131  0.8406
  853MOL0     H12582   3.963   0.422  11.052  1.3061 -1.4513 -1.0075
  853MOL0     H12583   4.189   0.347  11.063 -0.5526 -0.2915  2.0766
  853MOL0     H12584   4.613   0.312  11.354  0.4441  1.7161  0.5521
  853MOL0     H12585   4.852   0.250  11.331 -0.8038  1.4237  1.0378
  853MOL0     H12586   5.024   0.437  11.313 -0.8709  1.4414 -1.7271
  853MOL0     H12587   5.138   0.472  11.196 -1.1239 -0.1858  1.0988
  853MOL0     H12588   5.223   0.345  11.410 -2.0392 -0.3979  0.9028
  853MOL0     H12589   5.126   0.208  11.359 -1.7002 -0.0336  0.0273
  853MOL0     H12590   5.358   0.277  11.179 -0.5354 -0.1190 -0.9929
  853MOL0     H12591   5.228   0.153  11.175 -1.4381 -1.1561  1.5899
  853MOL0     H12592   5.454   0.199  11.373  0.7704  0.4259 -1.7260
  853MOL0     H12593   5.323   0.087  11.413  0.8033 -3.1664 -0.9090
  853MOL0     H12594   5.547  -0.133  11.134  0.0150 -0.2656 -1.1462
  853MOL0     H12595   4.870   0.455  10.953 -1.9585  2.3759  0.1780
  853MOL0     H12596   4.626   0.510  10.966 -1.1595  0.5892  1.4782
  854MOL0     O12597   0.278   1.499   9.125  0.3761 -0.2500  0.0758
  854MOL0     C12598   0.328   1.539   9.016  0.2096 -0.0789 -0.4309
  854MOL0     O12599   0.263   1.564   8.899  0.2333 -0.6608 -0.7009
  854MOL0     C12600   0.129   1.589   8.918 -0.1370  0.3726 -0.6010
  854MOL0     C12601   0.030   1.496   8.965 -0.8676 -0.1025 -0.5835
  854MOL0     C12602  -0.096   1.539   8.994 -0.5740 -0.5311 -1.6598
  854MOL0     C12603  -0.132   1.675   8.983  0.4468 -0.1182  0.4271
  854MOL0     O12604  -0.263   1.718   9.026  0.3184 -0.0776 -0.0177
  854MOL0     C12605  -0.297   1.857   8.997  1.4252  0.0337 -0.0070
  854MOL0     C12606  -0.437   1.884   9.069  0.2126 -0.3030  0.0204
  854MOL0     C12607  -0.550   1.820   8.992 -0.7366 -0.9129  0.4688
  854MOL0     C12608  -0.690   1.868   9.052 -0.3134 -0.4700 -0.4901
  854MOL0     C12609  -0.821   1.805   9.001  0.2359  1.3635  0.0805
  854MOL0     C12610  -0.941   1.870   9.063 -0.0563 -0.0654 -0.6314
  854MOL0     C12611  -1.081   1.804   9.038  0.4434 -0.6320  0.7515
  854MOL0     C12612  -1.107   1.758   8.891 -0.0744  0.8229 -1.0634
  854MOL0     N12613  -1.218   1.662   8.888 -0.1077  0.7214  0.1808
  854MOL0     C12614  -1.331   1.671   8.967 -0.2080 -1.2112  0.0249
  854MOL0     C12615  -1.387   1.547   8.966  0.9839  0.6981  0.7143
  854MOL0     C12616  -1.517   1.494   9.035  0.3876 -0.1581  0.2898
  854MOL0     C12617  -1.639   1.569   8.984  0.0361 -0.2159  0.0725
  854MOL0     C12618  -1.773   1.514   9.034 -0.6267 -0.3719 -0.2417
  854MOL0     C12619  -1.882   1.566   8.944  1.0528  0.2920  1.3482
  854MOL0     O12620  -1.934   1.688   8.990 -0.4354  0.0805 -0.5897
  854MOL0     C12621  -2.060   1.707   8.938  0.3838 -0.3828  0.1314
  854MOL0     C12622  -2.145   1.774   9.022  0.1126 -1.3630  1.2543
  854MOL0     C12623  -2.267   1.817   8.968  0.5861 -0.1776 -0.3105
  854MOL0     C12624  -2.322   1.769   8.848 -0.0034 -0.8225 -0.4483
  854MOL0     C12625  -2.461   1.800   8.815  1.6137  0.1490  0.0027
  854MOL0     O12626  -2.538   1.865   8.910  0.3023 -0.0471 -0.1275
  854MOL0     C12627  -2.664   1.894   8.860 -1.1126 -1.0448  0.4727
  854MOL0     C12628  -2.694   2.030   8.839  0.2123  1.0102 -0.4418
  854MOL0     C12629  -2.820   2.070   8.797  0.3933  0.2030  0.6897
  854MOL0     C12630  -2.911   1.973   8.753  0.2253  0.4504 -0.7723
  854MOL0     O12631  -3.037   2.006   8.699 -0.4487  0.2978 -0.2968
  854MOL0     C12632  -3.063   2.152   8.679 -0.5872 -0.7536  0.1888
  854MOL0     C12633  -3.192   2.141   8.608  0.0218 -0.2414  0.0646
  854MOL0     C12634  -3.281   2.256   8.612 -0.3185 -0.0120  0.7861
  854MOL0     C12635  -3.418   2.210   8.560  0.0452  0.3836 -0.8506
  854MOL0     C12636  -3.519   2.317   8.606 -0.1170  0.0571 -1.0920
  854MOL0     C12637  -3.655   2.291   8.540  1.0020 -1.1680  0.5174
  854MOL0     C12638  -3.731   2.428   8.541  0.0787 -0.4473  0.1239
  854MOL0     C12639  -3.880   2.393   8.513 -0.2600  0.6183  0.8895
  854MOL0    Cl12640  -3.884   2.358   8.340 -0.0125  0.2236  0.4443
  854MOL0     C12641  -2.884   1.839   8.786  0.3406 -0.1588  0.5709
  854MOL0     C12642  -2.760   1.790   8.831 -0.6624 -0.6299  0.5217
  854MOL0     O12643  -2.491   1.768   8.699  0.1392  0.6310  0.0115
  854MOL0     C12644  -2.226   1.723   8.757  0.1609  0.5238  0.6611
  854MOL0     C12645  -2.100   1.696   8.804 -0.6319  0.2641 -0.1354
  854MOL0     N12646  -1.310   1.462   8.885  0.2943 -0.3777 -0.2781
  854MOL0     N12647  -1.209   1.529   8.843 -0.0960  0.1836 -0.8846
  854MOL0     C12648  -0.038   1.761   8.921 -0.5462 -0.2730  0.6281
  854MOL0     C12649   0.092   1.723   8.898  0.5010  0.4495  0.0371
  854MOL0     C12650   0.476   1.541   9.001 -0.1525 -0.2023  0.5769
  854MOL0     C12651   0.525   1.559   8.873 -0.5182 -0.0192 -0.2432
  854MOL0     C12652   0.665   1.561   8.855 -0.3122 -0.6354 -0.3295
  854MOL0     C12653   0.757   1.552   8.962  0.3786  0.3762  0.3292
  854MOL0     O12654   0.899   1.533   8.947 -0.1905  0.1442  0.5689
  854MOL0     C12655   0.947   1.540   8.811 -0.3709 -0.9748 -0.4745
  854MOL0     C12656   1.099   1.558   8.800 -0.3487 -0.0883  0.7270
  854MOL0     C12657   1.167   1.436   8.855 -0.6932 -1.0681 -0.5847
  854MOL0     C12658   1.325   1.428   8.862  1.1303  0.1881 -0.2594
  854MOL0     C12659   1.380   1.403   8.731 -0.4240 -0.3478 -0.3668
  854MOL0     C12660   1.431   1.376   8.630 -0.0169  0.5764  1.3234
  854MOL0     C12661   0.697   1.548   9.088  0.7044  0.4209  1.2454
  854MOL0     C12662   0.559   1.546   9.108 -0.1974  0.4672  0.6183
  854MOL0     H12663   0.043   1.389   8.983  0.4441 -0.1388 -1.5562
  854MOL0     H12664  -0.156   1.461   9.040 -0.4224 -0.1575 -0.8003
  854MOL0     H12665  -0.310   1.867   8.889 -1.7990  2.4922  0.4631
  854MOL0     H12666  -0.225   1.929   9.037  1.4495  1.3109 -2.2120
  854MOL0     H12667  -0.455   1.992   9.066  1.3965  0.1116  3.2861
  854MOL0     H12668  -0.431   1.869   9.177 -0.6654  2.3373  0.5186
  854MOL0     H12669  -0.542   1.711   8.997 -3.0163 -1.1231  0.7733
  854MOL0     H12670  -0.545   1.844   8.886  3.6335  1.6982  1.0295
  854MOL0     H12671  -0.687   1.857   9.160  0.3186  0.8736 -0.3435
  854MOL0     H12672  -0.684   1.977   9.036  4.6541 -0.4913 -0.2877
  854MOL0     H12673  -0.833   1.699   9.024 -0.7507  0.9526 -2.0042
  854MOL0     H12674  -0.828   1.802   8.891  2.3656  0.4568 -0.0798
  854MOL0     H12675  -0.949   1.976   9.041  3.5007  0.0869 -1.8549
  854MOL0     H12676  -0.938   1.866   9.172 -1.7746 -0.0738 -0.5668
  854MOL0     H12677  -1.083   1.720   9.108 -0.2450 -0.2936  1.1525
  854MOL0     H12678  -1.166   1.866   9.069 -1.0991 -2.4270  0.3088
  854MOL0     H12679  -1.014   1.727   8.842 -1.9935 -2.2232 -3.1584
  854MOL0     H12680  -1.136   1.839   8.822  0.3492  2.1463  0.2586
  854MOL0     H12681  -1.367   1.764   9.007  2.3716 -0.0776 -0.0713
  854MOL0     H12682  -1.509   1.501   9.144 -0.9967 -0.1452  0.4101
  854MOL0     H12683  -1.531   1.386   9.020  2.1452 -0.5200  1.0335
  854MOL0     H12684  -1.639   1.560   8.875 -0.0365 -1.1447  0.1401
  854MOL0     H12685  -1.610   1.671   9.011  1.9933 -0.6096 -0.3654
  854MOL0     H12686  -1.768   1.405   9.043 -0.3451 -0.3186  0.3082
  854MOL0     H12687  -1.795   1.549   9.136  0.4644 -0.3129 -0.0169
  854MOL0     H12688  -1.957   1.486   8.951 -0.9875  1.9126 -0.5943
  854MOL0     H12689  -1.860   1.569   8.837 -1.0584 -0.5591  0.8267
  854MOL0     H12690  -2.106   1.812   9.116  2.0363 -1.9409  0.7423
  854MOL0     H12691  -2.331   1.874   9.035 -0.6810  0.1188 -1.7281
  854MOL0     H12692  -2.632   2.113   8.871  1.4189  0.0642 -0.2577
  854MOL0     H12693  -2.834   2.176   8.778 -1.7801 -0.6049 -3.1392
  854MOL0     H12694  -2.980   2.189   8.618  1.7458 -0.6911  3.1439
  854MOL0     H12695  -3.066   2.206   8.774  1.4214 -2.2713  1.2122
  854MOL0     H12696  -3.241   2.050   8.645  2.3675 -1.9069 -0.7317
  854MOL0     H12697  -3.158   2.134   8.505  0.6384  1.9016  0.0701
  854MOL0     H12698  -3.250   2.330   8.538 -0.8199 -1.9539 -1.5288
  854MOL0     H12699  -3.299   2.308   8.706  0.6850  0.9432  0.4657
  854MOL0     H12700  -3.418   2.196   8.451  0.8799 -2.9696 -0.5157
  854MOL0     H12701  -3.452   2.114   8.602  0.1033  1.4080  1.7132
  854MOL0     H12702  -3.474   2.409   8.568  4.5264 -2.0254 -1.2755
  854MOL0     H12703  -3.536   2.321   8.714 -0.6277 -0.3922 -1.1510
  854MOL0     H12704  -3.707   2.206   8.585  2.2779 -2.1647  0.1856
  854MOL0     H12705  -3.625   2.271   8.436  4.3032 -1.7321  1.4660
  854MOL0     H12706  -3.708   2.462   8.643 -0.9075  0.2764  0.1222
  854MOL0     H12707  -3.697   2.501   8.467 -1.3645  0.5937  0.4447
  854MOL0     H12708  -3.941   2.481   8.533  0.5762  1.1478  1.1880
  854MOL0     H12709  -3.917   2.317   8.583 -0.8354 -0.9987 -1.0877
  854MOL0     H12710  -2.960   1.774   8.743  1.7038 -0.3376 -1.7931
  854MOL0     H12711  -2.743   1.683   8.837 -3.1383 -1.0963  0.0688
  854MOL0     H12712  -2.240   1.700   8.652  3.9261  1.4233 -0.1900
  854MOL0     H12713  -2.025   1.653   8.738 -3.0077 -0.8213 -2.3165
  854MOL0     H12714  -0.066   1.860   8.886  0.2337 -0.7242 -1.4648
  854MOL0     H12715   0.177   1.788   8.879 -1.8529  3.4702 -0.8770
  854MOL0     H12716   0.458   1.586   8.792 -1.6236 -0.8282  0.3742
  854MOL0     H12717   0.697   1.559   8.751 -2.4780  1.9875 -1.1619
  854MOL0     H12718   0.912   1.632   8.764  1.8726  0.4888  0.5530
  854MOL0     H12719   0.927   1.445   8.760 -1.6422 -1.1614  0.3334
  854MOL0     H12720   1.129   1.571   8.695  2.6987  1.2068  1.6410
  854MOL0     H12721   1.137   1.639   8.862  1.9693  0.3025 -1.0390
  854MOL0     H12722   1.141   1.352   8.789  1.7175  0.1067 -3.2496
  854MOL0     H12723   1.121   1.427   8.954 -1.9086  0.6166 -0.9521
  854MOL0     H12724   1.370   1.513   8.914  1.5816 -2.0134  3.2591
  854MOL0     H12725   1.350   1.344   8.927  2.7777  1.4052  0.7507
  854MOL0     H12726   1.476   1.325   8.547 -0.1524 -0.4912  1.8861
  854MOL0     H12727   0.755   1.538   9.180 -1.4436  0.2610  2.6793
  854MOL0     H12728   0.530   1.558   9.212 -0.2541  0.9847  0.5458
  855MOL0     O12729   8.662   9.688   3.556 -0.2830 -1.0336  0.3475
  855MOL0     C12730   8.607   9.646   3.455  0.3176 -0.0790 -0.6566
  855MOL0     O12731   8.589   9.509   3.431 -0.5066 -0.2482 -0.0841
  855MOL0     C12732   8.672   9.411   3.492  0.3607  0.1124  0.3653
  855MOL0     C12733   8.809   9.416   3.534  0.0251  0.1901 -0.0488
  855MOL0     C12734   8.886   9.303   3.558 -0.3774  0.3610 -0.0694
  855MOL0     C12735   8.819   9.177   3.558  0.2257 -1.2388  0.2683
  855MOL0     O12736   8.876   9.064   3.602 -0.1983 -0.5420  0.8083
  855MOL0     C12737   9.003   9.061   3.680  0.2469 -0.2243 -1.5202
  855MOL0     C12738   8.998   9.136   3.817 -0.2941  0.3804 -0.0366
  855MOL0     C12739   9.136   9.169   3.861  0.1508  0.1926 -1.2735
  855MOL0     C12740   9.227   9.055   3.912  0.4943  0.4657 -0.8293
  855MOL0     C12741   9.360   9.106   3.965 -1.2439 -0.2148  0.7499
  855MOL0     C12742   9.356   9.196   4.089  0.4711  0.5443 -0.2108
  855MOL0     C12743   9.474   9.175   4.181 -0.1185 -0.4800 -0.4116
  855MOL0     C12744   9.466   9.252   4.311  0.3029 -0.2207  0.8447
  855MOL0     N12745   9.345   9.220   4.392 -0.6670 -0.0891  0.1791
  855MOL0     C12746   9.231   9.292   4.394 -0.0398  0.0602  0.0639
  855MOL0     C12747   9.157   9.242   4.499 -0.3559 -0.1354  0.5656
  855MOL0     C12748   9.015   9.293   4.539 -0.5039 -0.3496  1.2193
  855MOL0     C12749   8.984   9.271   4.691  0.0532  0.8216  1.0231
  855MOL0     C12750   8.919   9.401   4.744 -0.3394 -1.1392  0.5245
  855MOL0     C12751   8.770   9.436   4.702 -0.1506 -0.6781  0.2379
  855MOL0     O12752   8.677   9.338   4.750 -0.1315  0.4818  0.3078
  855MOL0     C12753   8.544   9.357   4.750  0.8506 -1.0885  0.0085
  855MOL0     C12754   8.483   9.384   4.867 -0.1758 -0.3577 -0.2148
  855MOL0     C12755   8.346   9.392   4.875  0.4579  0.4387 -0.3252
  855MOL0     C12756   8.262   9.349   4.769  1.2505  0.0897 -0.0664
  855MOL0     C12757   8.113   9.354   4.779 -0.1021  0.5909 -0.2998
  855MOL0     O12758   8.035   9.281   4.692 -0.9371  0.5242 -0.3610
  855MOL0     C12759   7.900   9.273   4.712 -0.0879 -0.5801 -0.4006
  855MOL0     C12760   7.804   9.295   4.608 -0.3535  0.4561 -0.1695
  855MOL0     C12761   7.664   9.281   4.628 -0.4501 -0.8965  1.0887
  855MOL0     C12762   7.616   9.253   4.754  0.6115 -0.5224 -0.5135
  855MOL0     O12763   7.478   9.250   4.758 -0.2301 -0.1645 -0.4893
  855MOL0     C12764   7.423   9.222   4.887  0.4207 -0.3647  0.0086
  855MOL0     C12765   7.271   9.201   4.880  0.2296  0.0814 -1.2718
  855MOL0     C12766   7.213   9.278   5.003  0.6055  1.0017  0.1000
  855MOL0     C12767   7.065   9.238   4.996 -0.0174 -0.5768 -0.6168
  855MOL0     C12768   6.973   9.293   4.886  0.1317 -0.0847  0.3397
  855MOL0     C12769   6.821   9.250   4.923 -1.2596 -0.6770  1.0649
  855MOL0     C12770   6.721   9.304   4.811 -0.3486  1.1914 -0.1407
  855MOL0     C12771   6.576   9.265   4.852  1.0310 -0.2006 -0.1036
  855MOL0    Cl12772   6.550   9.100   4.888  0.1458 -0.0781 -0.4473
  855MOL0     C12773   7.705   9.220   4.858  0.1902 -0.6368 -0.6061
  855MOL0     C12774   7.850   9.233   4.838  0.0295  0.3328  1.1826
  855MOL0     O12775   8.069   9.418   4.869 -0.4015  0.0269 -0.4447
  855MOL0     C12776   8.327   9.328   4.641  0.4470 -0.5851  0.7074
  855MOL0     C12777   8.467   9.344   4.631  0.2316  0.2453 -0.4034
  855MOL0     N12778   9.225   9.135   4.558  1.2907 -0.5422 -0.3427
  855MOL0     N12779   9.337   9.125   4.494  0.8024 -0.4749 -0.0574
  855MOL0     C12780   8.684   9.176   3.503 -0.2441  0.3406  0.2378
  855MOL0     C12781   8.610   9.288   3.481  0.5055 -0.3312 -0.5958
  855MOL0     C12782   8.535   9.738   3.359  0.1386  0.2539 -0.0799
  855MOL0     C12783   8.454   9.683   3.260  0.5005  0.1213  0.4724
  855MOL0     C12784   8.389   9.760   3.169 -0.8239  0.1167  0.2698
  855MOL0     C12785   8.397   9.898   3.179 -0.1580 -0.2506  0.1365
  855MOL0     O12786   8.295   9.963   3.111 -0.1198  0.5549  0.7981
  855MOL0     C12787   8.217  10.064   3.169 -0.5255  0.7086  0.2073
  855MOL0     C12788   8.143  10.020   3.291  0.2257 -0.5903  0.0459
  855MOL0     C12789   8.037   9.914   3.262 -0.1415  0.6982  0.3728
  855MOL0     C12790   7.969   9.876   3.398 -0.6070 -0.6773 -0.5650
  855MOL0     C12791   7.875   9.762   3.402 -0.4087  0.2515  1.0597
  855MOL0     C12792   7.794   9.673   3.424 -0.1469  0.1642  0.1187
  855MOL0     C12793   8.489   9.954   3.267 -0.7871 -0.0773 -0.2357
  855MOL0     C12794   8.551   9.879   3.364  0.0974  0.1047 -0.2158
  855MOL0     H12795   8.866   9.507   3.520 -0.9551  0.6364 -1.4254
  855MOL0     H12796   8.994   9.314   3.552 -0.3477 -0.3722 -1.1791
  855MOL0     H12797   9.084   9.108   3.625  0.4366 -0.4955 -1.4728
  855MOL0     H12798   9.026   8.957   3.705  1.2543  0.8077  2.4434
  855MOL0     H12799   8.948   9.081   3.896  1.0059 -1.0069 -0.1360
  855MOL0     H12800   8.939   9.228   3.810 -1.5424 -0.3769  0.2660
  855MOL0     H12801   9.126   9.244   3.941  2.1817 -1.2799  0.4882
  855MOL0     H12802   9.190   9.225   3.785 -0.4207  2.0271 -0.3838
  855MOL0     H12803   9.175   8.992   3.985  1.9983  2.5909  2.3373
  855MOL0     H12804   9.230   8.993   3.822 -0.6223  0.1321 -0.6511
  855MOL0     H12805   9.402   9.161   3.881 -0.2824 -0.1240  1.2818
  855MOL0     H12806   9.421   9.018   3.987  0.2563  1.2762  2.9447
  855MOL0     H12807   9.268   9.161   4.144  0.3830 -2.6272 -2.1094
  855MOL0     H12808   9.340   9.297   4.050 -0.6224 -0.4138 -2.4992
  855MOL0     H12809   9.469   9.068   4.206 -1.3939  0.0390  1.9091
  855MOL0     H12810   9.573   9.199   4.142  0.3345 -1.8330 -0.1502
  855MOL0     H12811   9.479   9.359   4.289  0.6165 -0.8278 -2.3806
  855MOL0     H12812   9.549   9.239   4.380  0.1999  2.1112  1.5110
  855MOL0     H12813   9.189   9.363   4.324  0.5003  0.2391 -0.0807
  855MOL0     H12814   8.938   9.251   4.473  0.9477 -0.9082 -0.1759
  855MOL0     H12815   9.013   9.400   4.521 -1.2978 -0.2141  2.0282
  855MOL0     H12816   9.066   9.256   4.763  0.0895 -0.9722  0.6524
  855MOL0     H12817   8.934   9.174   4.697 -0.8831  1.0578 -1.5868
  855MOL0     H12818   8.922   9.384   4.852  0.5406 -2.2562  0.3349
  855MOL0     H12819   8.980   9.492   4.735 -1.3920 -0.4081  0.5483
  855MOL0     H12820   8.767   9.442   4.593  0.7868  1.1550  0.2806
  855MOL0     H12821   8.742   9.531   4.747 -1.3756 -0.0371 -1.7841
  855MOL0     H12822   8.539   9.408   4.957  0.7223  0.4159 -0.9571
  855MOL0     H12823   8.290   9.417   4.965  1.4851  2.1313 -0.1064
  855MOL0     H12824   7.857   9.324   4.518  2.6022  0.4475  1.4537
  855MOL0     H12825   7.602   9.313   4.545  1.6668 -0.6635 -0.4967
  855MOL0     H12826   7.449   9.315   4.939  3.9680 -1.6317  0.7945
  855MOL0     H12827   7.464   9.131   4.932 -1.5927 -0.9474  0.7801
  855MOL0     H12828   7.258   9.094   4.863  0.1811 -0.0650 -0.3922
  855MOL0     H12829   7.236   9.252   4.790  0.4696  3.0739  0.1819
  855MOL0     H12830   7.225   9.385   4.988  1.8994  0.9114  0.3567
  855MOL0     H12831   7.261   9.249   5.097  0.9392 -1.9075 -0.8678
  855MOL0     H12832   7.061   9.130   4.980 -0.2923 -0.6910  0.1593
  855MOL0     H12833   7.033   9.274   5.094  0.3082 -0.5699 -0.5121
  855MOL0     H12834   6.999   9.245   4.791 -0.5246  1.3971 -0.6125
  855MOL0     H12835   6.991   9.400   4.877  0.2221  0.1523  2.7159
  855MOL0     H12836   6.800   9.304   5.015 -1.1065  1.8021 -0.2487
  855MOL0     H12837   6.810   9.143   4.937 -1.8064 -0.4752  2.2627
  855MOL0     H12838   6.745   9.410   4.807  0.4885  0.9734 -2.3135
  855MOL0     H12839   6.745   9.252   4.718  1.7231 -0.4245  1.2064
  855MOL0     H12840   6.505   9.303   4.779 -0.4063  0.8099  1.7230
  855MOL0     H12841   6.547   9.320   4.942 -0.6695 -0.0456 -0.7121
  855MOL0     H12842   7.680   9.195   4.960  0.8635 -1.5374 -0.6427
  855MOL0     H12843   7.917   9.211   4.920 -1.9001  0.2345  2.8204
  855MOL0     H12844   8.271   9.296   4.553  1.3064  2.6493 -1.1967
  855MOL0     H12845   8.523   9.337   4.539  0.7647 -0.4415 -0.0416
  855MOL0     H12846   8.648   9.073   3.510 -0.7770  0.6305  3.1770
  855MOL0     H12847   8.507   9.286   3.447  0.5056  3.2393 -1.2252
  855MOL0     H12848   8.446   9.575   3.248  1.7817 -0.0069  0.5641
  855MOL0     H12849   8.328   9.714   3.092 -0.2840 -1.1031  0.5465
  855MOL0     H12850   8.150  10.104   3.092 -1.2736 -3.3217 -1.4772
  855MOL0     H12851   8.276  10.146   3.211 -0.5038  1.0881 -0.5427
  855MOL0     H12852   8.213   9.978   3.364  0.2399 -3.0606 -1.2894
  855MOL0     H12853   8.101  10.113   3.330 -0.6285 -0.0370 -2.0950
  855MOL0     H12854   8.093   9.826   3.228 -0.5715  0.6065 -0.1089
  855MOL0     H12855   7.966   9.943   3.184 -0.8304 -0.8465  0.3775
  855MOL0     H12856   8.050   9.842   3.463 -1.5248 -1.0407  0.4286
  855MOL0     H12857   7.930   9.967   3.445  3.8797  2.4028 -2.1612
  855MOL0     H12858   7.725   9.597   3.455  0.2690  0.7601  2.7137
  855MOL0     H12859   8.492  10.062   3.259  0.5399 -0.2186 -2.3395
  855MOL0     H12860   8.624   9.928   3.427  2.2208 -0.6163 -2.0117
  856MOL0     O12861   0.322   6.516   7.299  0.4924  0.0956 -1.0294
  856MOL0     C12862   0.327   6.640   7.283  0.3430 -0.6846  0.9802
  856MOL0     O12863   0.223   6.731   7.302 -0.9940 -0.4453 -1.1330
  856MOL0     C12864   0.103   6.701   7.359  0.0376  1.1666 -0.2797
  856MOL0     C12865   0.042   6.791   7.454 -0.0888  0.3792 -0.5594
  856MOL0     C12866  -0.077   6.766   7.524 -1.2793  0.5474 -0.6119
  856MOL0     C12867  -0.150   6.646   7.494 -0.8676  0.1144  0.2795
  856MOL0     O12868  -0.277   6.620   7.542  0.5904  0.0091  0.2469
  856MOL0     C12869  -0.305   6.619   7.687 -0.5038 -0.1613  0.4712
  856MOL0     C12870  -0.446   6.552   7.708  0.1031 -0.8016 -0.0288
  856MOL0     C12871  -0.433   6.431   7.793 -0.1898  0.7147 -0.1762
  856MOL0     C12872  -0.387   6.454   7.937  0.2606 -0.6016  0.3045
  856MOL0     C12873  -0.422   6.339   8.032 -0.1835 -0.4955 -0.2005
  856MOL0     C12874  -0.344   6.373   8.162  0.4091  0.2299 -0.5640
  856MOL0     C12875  -0.398   6.493   8.248 -0.0278 -0.2107 -0.1915
  856MOL0     C12876  -0.530   6.455   8.308 -0.2111 -0.2988  0.1110
  856MOL0     N12877  -0.597   6.576   8.359 -0.8257  0.3250  0.0278
  856MOL0     C12878  -0.533   6.695   8.386  0.0476  0.7451  0.0726
  856MOL0     C12879  -0.643   6.765   8.436 -0.6532  0.3421  0.1555
  856MOL0     C12880  -0.633   6.911   8.475  0.3264 -0.3383  0.2540
  856MOL0     C12881  -0.565   7.001   8.374 -0.3796  0.6504  0.0851
  856MOL0     C12882  -0.641   6.993   8.239  1.3115 -0.0510 -0.7479
  856MOL0     C12883  -0.537   7.031   8.128  0.0874 -1.1575  0.4439
  856MOL0     O12884  -0.447   6.925   8.109 -0.1594  0.3264  0.3619
  856MOL0     C12885  -0.341   6.958   8.025  0.2024 -0.1924 -0.5461
  856MOL0     C12886  -0.247   6.852   8.019  0.4014 -0.1468 -0.4812
  856MOL0     C12887  -0.123   6.876   7.953  0.6693 -0.7812  0.0329
  856MOL0     C12888  -0.092   6.998   7.901 -0.1818  0.8648 -0.3123
  856MOL0     C12889   0.037   7.010   7.834 -0.4933  0.2452 -0.1273
  856MOL0     O12890   0.112   6.898   7.816 -0.4825 -0.4394 -0.1519
  856MOL0     C12891   0.250   6.890   7.790  0.8005  0.4398  0.4080
  856MOL0     C12892   0.350   6.992   7.811  0.3662  0.1335 -0.1344
  856MOL0     C12893   0.481   6.975   7.776  1.5727 -0.0436  0.5749
  856MOL0     C12894   0.520   6.856   7.727  0.3060 -0.1712 -0.0618
  856MOL0     O12895   0.655   6.840   7.715  0.6571 -0.1469  0.5700
  856MOL0     C12896   0.701   6.762   7.607  0.0732  0.5031 -0.5811
  856MOL0     C12897   0.838   6.709   7.636 -0.6250 -0.3959  0.5375
  856MOL0     C12898   0.942   6.826   7.623  0.5077  0.0321  1.1248
  856MOL0     C12899   1.083   6.769   7.655  0.0480 -0.3893 -0.2902
  856MOL0     C12900   1.188   6.882   7.641 -0.6140 -0.1943  0.6805
  856MOL0     C12901   1.329   6.817   7.665 -0.4054  0.5007 -0.0429
  856MOL0     C12902   1.438   6.925   7.621  0.7297  0.5404 -0.6481
  856MOL0     C12903   1.520   6.873   7.503 -0.2904  0.4655 -0.4871
  856MOL0    Cl12904   1.648   6.742   7.546 -0.2370 -0.1110  0.4075
  856MOL0     C12905   0.421   6.752   7.700  0.4135  0.0409 -0.3637
  856MOL0     C12906   0.291   6.775   7.726  0.5411  0.2827 -0.8009
  856MOL0     O12907   0.073   7.123   7.802  0.1565 -0.5100 -0.1218
  856MOL0     C12908  -0.183   7.103   7.909  0.0397 -0.6134 -0.7651
  856MOL0     C12909  -0.305   7.075   7.977 -0.0027 -0.0887 -0.2425
  856MOL0     N12910  -0.751   6.689   8.439  0.6543 -0.2892  0.4105
  856MOL0     N12911  -0.724   6.565   8.403 -0.0215 -0.4289 -0.2702
  856MOL0     C12912  -0.087   6.555   7.405  0.9581 -0.5513 -0.2225
  856MOL0     C12913   0.040   6.577   7.347 -0.3163  0.1194 -0.2210
  856MOL0     C12914   0.458   6.706   7.263  0.3944 -0.0541  0.0693
  856MOL0     C12915   0.468   6.847   7.227 -0.2118  0.1250 -0.2114
  856MOL0     C12916   0.592   6.909   7.215  0.0160 -0.4643  0.5361
  856MOL0     C12917   0.714   6.833   7.230 -0.4556  0.2598  1.0184
  856MOL0     O12918   0.834   6.895   7.232 -0.1939  0.2956  0.1970
  856MOL0     C12919   0.845   7.035   7.196  0.2836  0.0061  0.7038
  856MOL0     C12920   0.992   7.089   7.233  0.0576  0.2740 -0.8296
  856MOL0     C12921   1.100   7.026   7.147 -0.2748 -0.6851 -0.3811
  856MOL0     C12922   1.241   7.049   7.214  0.3787  0.9549 -0.5006
  856MOL0     C12923   1.348   7.028   7.114  0.7231 -0.3210 -0.1925
  856MOL0     C12924   1.435   6.998   7.038  0.3226 -0.4074 -0.3402
  856MOL0     C12925   0.707   6.700   7.273  0.1990 -0.0547 -0.0849
  856MOL0     C12926   0.584   6.637   7.289  0.2905  0.4502 -0.0648
  856MOL0     H12927   0.106   6.878   7.463  2.6849 -1.4084 -1.6876
  856MOL0     H12928  -0.106   6.832   7.605  2.2553 -0.4347  1.6955
  856MOL0     H12929  -0.294   6.713   7.740  1.9714  0.3823 -0.8702
  856MOL0     H12930  -0.237   6.549   7.736  0.2294  0.7538  0.7804
  856MOL0     H12931  -0.493   6.525   7.613 -1.3345 -2.1150  1.0079
  856MOL0     H12932  -0.508   6.630   7.752  3.6181  2.2000  0.1084
  856MOL0     H12933  -0.378   6.349   7.747 -1.6883 -0.4186 -0.0294
  856MOL0     H12934  -0.538   6.399   7.803 -0.5888  2.4055  1.5015
  856MOL0     H12935  -0.278   6.458   7.940  0.2385 -0.6013  1.3695
  856MOL0     H12936  -0.428   6.550   7.969  0.3381 -0.4312 -0.0972
  856MOL0     H12937  -0.398   6.242   7.988  2.1671 -0.8867  1.7292
  856MOL0     H12938  -0.530   6.339   8.050 -0.0790 -2.9128  0.8022
  856MOL0     H12939  -0.240   6.384   8.132  0.2774  0.3533 -0.9830
  856MOL0     H12940  -0.345   6.287   8.230 -0.1263  0.8408  0.2154
  856MOL0     H12941  -0.330   6.520   8.330  0.0670  0.4485 -0.4849
  856MOL0     H12942  -0.402   6.577   8.179  2.3615  1.4652  1.5362
  856MOL0     H12943  -0.523   6.388   8.394 -1.9656  1.6138  1.8513
  856MOL0     H12944  -0.584   6.413   8.222  0.5070 -0.7595 -0.1242
  856MOL0     H12945  -0.430   6.724   8.371  1.0947 -0.2095  4.1349
  856MOL0     H12946  -0.581   6.921   8.570  1.2477 -2.7202  0.0582
  856MOL0     H12947  -0.733   6.953   8.488  0.7600  0.6372  0.5916
  856MOL0     H12948  -0.461   6.969   8.357 -0.3863  1.3514 -1.4442
  856MOL0     H12949  -0.564   7.101   8.416  0.4768 -0.3620  2.6840
  856MOL0     H12950  -0.671   6.888   8.225  0.9553 -0.2517  1.2481
  856MOL0     H12951  -0.732   7.053   8.243  0.6158 -1.1212  1.1988
  856MOL0     H12952  -0.486   7.126   8.148 -0.3549 -0.8069 -0.0850
  856MOL0     H12953  -0.592   7.025   8.033  0.5278  1.6444 -0.0595
  856MOL0     H12954  -0.277   6.768   8.081 -0.4227  0.4328 -0.0728
  856MOL0     H12955  -0.055   6.792   7.951  1.6658  0.0237 -0.8751
  856MOL0     H12956   0.321   7.084   7.861 -0.4035 -1.0942  1.7650
  856MOL0     H12957   0.553   7.053   7.798  1.2531 -0.1254  2.0212
  856MOL0     H12958   0.696   6.837   7.527  1.1145  3.6192  2.0942
  856MOL0     H12959   0.641   6.672   7.588 -1.0054  0.5992  1.9499
  856MOL0     H12960   0.856   6.624   7.569  1.5912 -1.1518  1.9475
  856MOL0     H12961   0.832   6.666   7.737 -3.6079 -2.4337 -0.3643
  856MOL0     H12962   0.923   6.909   7.691  2.4375  1.6556 -0.2012
  856MOL0     H12963   0.943   6.859   7.519 -1.9077 -1.5781  0.5171
  856MOL0     H12964   1.081   6.732   7.758 -2.0981  2.2780  0.7379
  856MOL0     H12965   1.122   6.688   7.592  1.6816 -0.9672  1.3547
  856MOL0     H12966   1.164   6.960   7.714 -0.0525  0.4148  0.2250
  856MOL0     H12967   1.186   6.940   7.548 -0.7840 -0.0218  0.7885
  856MOL0     H12968   1.345   6.731   7.599 -1.3835  1.0923 -1.1019
  856MOL0     H12969   1.336   6.776   7.766 -1.3507 -3.1035 -1.3010
  856MOL0     H12970   1.383   7.011   7.583 -1.7813 -0.0605  1.3183
  856MOL0     H12971   1.491   6.964   7.708 -1.9176 -0.6318  1.6689
  856MOL0     H12972   1.572   6.954   7.451  0.3007  0.2254 -0.2839
  856MOL0     H12973   1.450   6.843   7.425  1.8998  2.6092 -3.4989
  856MOL0     H12974   0.448   6.655   7.660 -0.6592 -0.1429 -0.6686
  856MOL0     H12975   0.214   6.702   7.706 -0.6004  1.3006 -0.2597
  856MOL0     H12976  -0.170   7.195   7.854 -0.5967  1.8983  2.9143
  856MOL0     H12977  -0.369   7.163   7.977 -1.3975 -1.0469 -1.4660
  856MOL0     H12978  -0.127   6.454   7.393  2.6842 -1.4048  0.8189
  856MOL0     H12979   0.087   6.501   7.285 -0.2168  0.6037 -0.7543
  856MOL0     H12980   0.383   6.910   7.202 -3.0409 -1.8946  3.3362
  856MOL0     H12981   0.593   7.011   7.176 -1.0109  0.5297  2.8986
  856MOL0     H12982   0.774   7.103   7.244  1.5297  0.5714  1.8068
  856MOL0     H12983   0.841   7.045   7.088  0.3519 -0.2040  0.6806
  856MOL0     H12984   1.006   7.197   7.236  1.1643  0.1553 -1.2017
  856MOL0     H12985   1.006   7.054   7.336 -2.0515 -0.1924 -0.6676
  856MOL0     H12986   1.109   7.065   7.045  2.0062 -0.8549 -0.2915
  856MOL0     H12987   1.083   6.918   7.142 -0.7076 -0.5922 -1.0858
  856MOL0     H12988   1.247   7.153   7.247 -1.1717  2.1353 -3.5581
  856MOL0     H12989   1.242   6.979   7.298 -1.2518 -0.5661 -1.6637
  856MOL0     H12990   1.518   6.975   6.974 -1.6199  1.3830 -3.8200
  856MOL0     H12991   0.807   6.659   7.289  0.2067  0.3654  1.0382
  856MOL0     H12992   0.588   6.536   7.329 -0.4388  0.9349  1.2946
  857MOL0     O12993  10.847   4.361   1.768 -0.6859  0.3003  0.3891
  857MOL0     C12994  10.793   4.299   1.855 -0.4643 -0.8239 -0.5551
  857MOL0     O12995  10.862   4.216   1.942  0.3092 -0.6315  0.3278
  857MOL0     C12996  10.993   4.192   1.908 -0.0937  0.8170 -0.3010
  857MOL0     C12997  11.097   4.274   1.960  0.3370  0.2340 -1.4840
  857MOL0     C12998  11.232   4.237   1.942  0.6435 -0.4251  0.0455
  857MOL0     C12999  11.272   4.126   1.872  0.6721 -0.6203  0.7142
  857MOL0     O13000  11.407   4.106   1.869  0.4314  0.0990 -0.3759
  857MOL0     C13001  11.446   3.975   1.871  0.3566  0.1653 -0.9584
  857MOL0     C13002  11.592   3.963   1.818 -0.5042  0.7078  0.6688
  857MOL0     C13003  11.648   3.818   1.829  0.0473  1.0003 -0.1550
  857MOL0     C13004  11.566   3.710   1.766 -0.0150 -0.1893 -0.5500
  857MOL0     C13005  11.630   3.570   1.777 -0.1152  0.7370  0.2849
  857MOL0     C13006  11.724   3.550   1.659  1.0175 -0.7485 -0.4505
  857MOL0     C13007  11.785   3.405   1.667 -0.8024  0.4169 -0.2481
  857MOL0     C13008  11.704   3.298   1.585 -0.7399  0.4125 -1.0453
  857MOL0     N13009  11.559   3.269   1.636 -0.7326 -0.4830  0.2904
  857MOL0     C13010  11.521   3.237   1.763  0.2602 -0.6383  0.7507
  857MOL0     C13011  11.383   3.225   1.757 -0.4684  0.6512 -0.7730
  857MOL0     C13012  11.297   3.227   1.878  0.6388 -0.8375  0.4829
  857MOL0     C13013  11.172   3.305   1.861  0.5345 -0.2892 -0.0772
  857MOL0     C13014  11.096   3.292   1.996 -0.0280  0.9299 -0.4407
  857MOL0     C13015  10.964   3.355   2.005 -0.2242  0.1804 -0.8562
  857MOL0     O13016  10.988   3.477   2.077  0.3908  0.2203 -0.7587
  857MOL0     C13017  10.874   3.562   2.103  0.3756  0.2738  0.1223
  857MOL0     C13018  10.799   3.550   2.218  0.6083 -0.0240 -0.1270
  857MOL0     C13019  10.692   3.631   2.254 -0.0101  0.3246  0.2086
  857MOL0     C13020  10.650   3.734   2.166  0.3728  0.4757  0.6456
  857MOL0     C13021  10.540   3.827   2.188  0.8828  0.8021 -0.6660
  857MOL0     O13022  10.486   3.818   2.319 -0.4995  0.5819  0.6676
  857MOL0     C13023  10.375   3.893   2.348  0.5214 -0.0676  0.7708
  857MOL0     C13024  10.247   3.858   2.303 -0.7303  0.8645 -0.0557
  857MOL0     C13025  10.135   3.933   2.333  0.0916  0.6682  0.1939
  857MOL0     C13026  10.149   4.057   2.399  0.4759  1.0971 -0.2114
  857MOL0     O13027  10.054   4.152   2.409  0.3364 -0.1956  0.1987
  857MOL0     C13028   9.958   4.164   2.302  0.7651  0.4349  0.8646
  857MOL0     C13029   9.856   4.260   2.350 -0.2381  0.1740  0.3899
  857MOL0     C13030   9.725   4.261   2.267 -0.2069  0.0928 -0.0628
  857MOL0     C13031   9.618   4.150   2.276 -0.3385 -0.3835  0.4267
  857MOL0     C13032   9.558   4.150   2.421  0.2429  0.0546  0.6170
  857MOL0     C13033   9.442   4.045   2.419  0.4997 -0.7174 -0.2253
  857MOL0     C13034   9.388   4.029   2.561 -0.4122  0.7486 -0.5497
  857MOL0     C13035   9.275   3.925   2.571  0.2777  0.0523  0.3123
  857MOL0    Cl13036   9.344   3.765   2.543  0.3706  0.2544 -0.4927
  857MOL0     C13037  10.264   4.090   2.461  0.3613  0.7497 -1.0858
  857MOL0     C13038  10.379   4.007   2.436  0.4290 -0.5948 -0.0301
  857MOL0     O13039  10.487   3.889   2.099  0.6029 -0.5250  0.7308
  857MOL0     C13040  10.718   3.743   2.044 -0.3958  0.4653 -0.0656
  857MOL0     C13041  10.825   3.658   2.017  0.8405  0.3173 -0.6004
  857MOL0     N13042  11.347   3.248   1.631 -0.0328  0.0978  0.0283
  857MOL0     N13043  11.450   3.277   1.567  0.0384 -0.1901 -0.0315
  857MOL0     C13044  11.170   4.036   1.823  0.5081 -0.1761  0.4756
  857MOL0     C13045  11.035   4.071   1.837  0.0234 -0.1558  0.3197
  857MOL0     C13046  10.650   4.324   1.872  0.4399  0.0785 -0.4829
  857MOL0     C13047  10.574   4.426   1.816 -0.1008  0.2407  0.3380
  857MOL0     C13048  10.444   4.444   1.854 -0.6915 -0.1876  0.6696
  857MOL0     C13049  10.378   4.352   1.948  0.4773  0.8785  0.0175
  857MOL0     O13050  10.244   4.366   1.980  0.3422 -0.2896  0.3765
  857MOL0     C13051  10.155   4.254   1.995  0.3687 -1.3063 -0.1033
  857MOL0     C13052  10.011   4.294   1.961 -0.5297 -0.0986 -1.0587
  857MOL0     C13053   9.996   4.334   1.814  0.2181  0.8007 -0.7064
  857MOL0     C13054   9.859   4.357   1.767  0.4712 -0.8638  0.0892
  857MOL0     C13055   9.783   4.439   1.862 -0.7056 -0.3595 -0.1775
  857MOL0     C13056   9.712   4.503   1.938  0.1383  0.6045  0.6704
  857MOL0     C13057  10.451   4.240   1.983  0.6978  0.7046  0.3105
  857MOL0     C13058  10.585   4.222   1.937  0.5582  0.1932 -0.9125
  857MOL0     H13059  11.061   4.365   2.007 -1.5320 -1.1471 -0.0730
  857MOL0     H13060  11.308   4.304   1.982  1.2273  0.2006 -1.9888
  857MOL0     H13061  11.384   3.919   1.801 -2.3133  1.4853  0.2202
  857MOL0     H13062  11.444   3.948   1.977  0.4364  2.4688 -0.2981
  857MOL0     H13063  11.643   4.025   1.892 -0.6907  0.2818  1.1550
  857MOL0     H13064  11.627   3.998   1.720 -0.4422 -1.9192 -0.3198
  857MOL0     H13065  11.643   3.802   1.937 -1.5782 -2.6366 -0.6298
  857MOL0     H13066  11.753   3.807   1.801  0.6018 -2.9845  2.5752
  857MOL0     H13067  11.462   3.716   1.798  0.7065  0.2882  1.9084
  857MOL0     H13068  11.562   3.743   1.662  2.7510 -0.7317 -0.9264
  857MOL0     H13069  11.550   3.496   1.780  0.9137 -0.4414 -0.6251
  857MOL0     H13070  11.694   3.559   1.865  1.1383 -0.2528 -0.7089
  857MOL0     H13071  11.809   3.620   1.650 -1.1698  1.8700 -2.4636
  857MOL0     H13072  11.682   3.581   1.563  1.3029  3.8364  0.6448
  857MOL0     H13073  11.886   3.407   1.623 -0.6296 -0.4006  0.0949
  857MOL0     H13074  11.792   3.367   1.769 -2.1666 -1.4479 -0.8000
  857MOL0     H13075  11.755   3.202   1.600 -2.2111 -0.0791  1.4070
  857MOL0     H13076  11.687   3.312   1.478 -1.0811 -2.0626 -1.3750
  857MOL0     H13077  11.586   3.219   1.847 -1.2941  0.3067  2.2254
  857MOL0     H13078  11.347   3.281   1.959  0.4033  1.3026 -0.7223
  857MOL0     H13079  11.267   3.125   1.906 -0.7694 -0.5132  0.2049
  857MOL0     H13080  11.109   3.261   1.784  0.6952  4.1879 -3.1405
  857MOL0     H13081  11.194   3.409   1.836  1.8163 -0.9981 -2.1111
  857MOL0     H13082  11.100   3.186   2.022 -0.2306  1.1045  0.3500
  857MOL0     H13083  11.142   3.332   2.087 -3.7178 -0.9400  2.5860
  857MOL0     H13084  10.885   3.301   2.057 -0.0380  0.2139 -0.5399
  857MOL0     H13085  10.925   3.375   1.904 -0.6689  1.0165 -0.5315
  857MOL0     H13086  10.813   3.458   2.274 -0.2933 -0.7398 -1.0382
  857MOL0     H13087  10.647   3.619   2.352  0.5893 -0.1691  0.4351
  857MOL0     H13088  10.245   3.763   2.251  0.3351  1.2352 -0.7915
  857MOL0     H13089  10.033   3.910   2.303  0.8423 -0.9668 -1.3143
  857MOL0     H13090   9.910   4.068   2.282  3.7994 -1.5144  2.2029
  857MOL0     H13091  10.008   4.196   2.211 -3.0154 -1.2430 -2.0753
  857MOL0     H13092   9.903   4.359   2.353 -1.9687  1.1424 -1.4245
  857MOL0     H13093   9.824   4.220   2.447 -3.6788 -2.5742 -1.6241
  857MOL0     H13094   9.745   4.258   2.159  2.2747 -1.1469  0.3661
  857MOL0     H13095   9.669   4.353   2.288 -1.5117 -1.0060  1.4888
  857MOL0     H13096   9.527   4.159   2.216 -1.4250 -2.8192  1.5463
  857MOL0     H13097   9.663   4.053   2.252  0.7775 -0.4526  2.5145
  857MOL0     H13098   9.513   4.248   2.441  1.9491  0.7752  1.1010
  857MOL0     H13099   9.633   4.119   2.494  1.3141  1.6497  0.2606
  857MOL0     H13100   9.480   3.952   2.375 -1.8165 -0.3011 -3.5537
  857MOL0     H13101   9.369   4.094   2.353  0.3722  1.4162  1.4244
  857MOL0     H13102   9.461   3.986   2.630 -0.9359 -0.9411 -0.9945
  857MOL0     H13103   9.356   4.128   2.596 -0.5259  1.5999 -2.8631
  857MOL0     H13104   9.195   3.956   2.503  1.8965  0.0823 -1.6727
  857MOL0     H13105   9.238   3.923   2.674  0.3765 -0.3054  0.3394
  857MOL0     H13106  10.256   4.169   2.535  0.2627 -0.8947  0.7532
  857MOL0     H13107  10.465   4.040   2.494 -0.0269 -2.0670  1.5651
  857MOL0     H13108  10.681   3.808   1.964  0.8528 -1.7608 -2.6006
  857MOL0     H13109  10.872   3.671   1.920  0.9187 -0.3829 -0.6673
  857MOL0     H13110  11.187   3.950   1.759 -4.2160 -0.1317 -1.2295
  857MOL0     H13111  10.950   4.010   1.805 -1.9358  1.9127  1.2732
  857MOL0     H13112  10.608   4.500   1.744  0.7485  2.2714  2.6817
  857MOL0     H13113  10.380   4.518   1.809 -0.1350 -0.2701 -0.2853
  857MOL0     H13114  10.171   4.222   2.098  0.7287 -2.8037 -0.5979
  857MOL0     H13115  10.181   4.172   1.927 -3.4623 -0.8473 -2.3709
  857MOL0     H13116   9.942   4.213   1.983  0.3733 -0.6592 -0.1925
  857MOL0     H13117   9.979   4.368   2.035  2.0713 -0.1320  0.2030
  857MOL0     H13118  10.032   4.246   1.760 -2.9803 -0.6977 -0.6291
  857MOL0     H13119  10.056   4.425   1.803  1.5824  0.5518  3.1493
  857MOL0     H13120   9.866   4.401   1.668 -0.6339  0.2703  0.4911
  857MOL0     H13121   9.800   4.265   1.767  0.6252 -0.9782  1.0824
  857MOL0     H13122   9.642   4.564   1.991 -1.3755  2.4016 -3.0806
  857MOL0     H13123  10.412   4.156   2.040  1.1431 -2.0661 -3.0803
  857MOL0     H13124  10.642   4.137   1.972 -2.2930 -1.1012  0.9999
  858MOL0     O13125   9.724   6.301   5.264  0.4667 -0.2925 -0.0588
  858MOL0     C13126   9.759   6.200   5.325 -1.5056 -0.2077  0.1679
  858MOL0     O13127   9.677   6.116   5.409 -0.3793 -0.1282  0.4044
  858MOL0     C13128   9.548   6.111   5.388  0.0086  0.8439 -0.1618
  858MOL0     C13129   9.467   6.181   5.469  0.5111 -0.5836  0.9410
  858MOL0     C13130   9.328   6.196   5.449 -0.7086  0.4173  0.1490
  858MOL0     C13131   9.267   6.123   5.343  0.2652  0.1315 -0.3559
  858MOL0     O13132   9.132   6.124   5.314  0.2460  0.2898 -0.1793
  858MOL0     C13133   9.107   6.204   5.190  0.2853 -0.3280  0.0703
  858MOL0     C13134   8.955   6.202   5.136 -0.6461 -0.5965 -0.5662
  858MOL0     C13135   8.933   6.291   5.013 -0.0199 -0.3291 -1.0910
  858MOL0     C13136   8.782   6.273   4.971 -0.3386 -1.0566 -0.7005
  858MOL0     C13137   8.685   6.368   5.054 -0.0344  0.4653  0.1181
  858MOL0     C13138   8.543   6.331   5.046 -0.5184  0.4422  0.4536
  858MOL0     C13139   8.456   6.416   5.143  0.0410 -0.7364 -0.8069
  858MOL0     C13140   8.306   6.378   5.122  0.9866 -0.6197  0.3829
  858MOL0     N13141   8.232   6.396   5.245  1.3738 -0.7291 -0.2377
  858MOL0     C13142   8.257   6.498   5.330  0.4786  0.2949 -0.5162
  858MOL0     C13143   8.150   6.505   5.407  0.0472  0.6743 -0.4960
  858MOL0     C13144   8.130   6.625   5.491 -1.2910  0.0815 -0.5963
  858MOL0     C13145   8.196   6.622   5.626 -0.4870 -0.3375 -0.1687
  858MOL0     C13146   8.141   6.517   5.722 -0.4063 -0.1803 -0.4576
  858MOL0     C13147   7.993   6.534   5.751 -0.8060  0.2007  0.2248
  858MOL0     O13148   7.982   6.662   5.821  0.4772  1.0284  0.3126
  858MOL0     C13149   7.861   6.712   5.860 -0.6313 -0.7109  0.0158
  858MOL0     C13150   7.844   6.847   5.896 -0.2449 -0.2505  0.3476
  858MOL0     C13151   7.725   6.896   5.957  0.2861  0.6882  0.2605
  858MOL0     C13152   7.602   6.819   5.960  0.8278  0.0892  0.4495
  858MOL0     C13153   7.470   6.889   6.002 -0.2632 -0.7897  0.6399
  858MOL0     O13154   7.357   6.819   5.999 -0.1828 -0.4051  1.2155
  858MOL0     C13155   7.243   6.869   6.053 -0.5580 -0.1273 -0.8195
  858MOL0     C13156   7.229   6.883   6.190  0.0385  0.3747 -0.3610
  858MOL0     C13157   7.107   6.940   6.235 -0.0191 -0.2766 -0.1478
  858MOL0     C13158   7.013   6.986   6.151 -0.2376  0.4164 -0.0899
  858MOL0     O13159   6.909   7.050   6.216  0.3379  0.4711 -0.0599
  858MOL0     C13160   6.790   7.070   6.137 -0.0337  0.3849 -0.3511
  858MOL0     C13161   6.679   7.110   6.232 -0.0858 -0.7663 -0.9774
  858MOL0     C13162   6.548   7.158   6.166 -0.1696  0.7791  0.4095
  858MOL0     C13163   6.449   7.237   6.257  0.1614 -0.4801 -0.4347
  858MOL0     C13164   6.317   7.265   6.182  0.0100  0.0202  0.4680
  858MOL0     C13165   6.329   7.374   6.076  0.9702  0.0775  0.2548
  858MOL0     C13166   6.188   7.422   6.049  0.6155  0.5180 -0.5926
  858MOL0     C13167   6.181   7.532   5.940 -0.0819 -0.2295 -0.6908
  858MOL0    Cl13168   6.305   7.659   5.970  0.0276 -0.2085 -0.4324
  858MOL0     C13169   7.024   6.964   6.018 -0.3550  0.0193  0.0919
  858MOL0     C13170   7.143   6.911   5.973  0.2884  0.4075 -0.0333
  858MOL0     O13171   7.477   7.007   6.036 -0.1369 -0.3197  0.5472
  858MOL0     C13172   7.620   6.682   5.924 -0.1766 -0.2747  0.6726
  858MOL0     C13173   7.741   6.630   5.871  0.4558 -1.2334 -0.4168
  858MOL0     N13174   8.049   6.412   5.365 -0.4459 -0.3384 -0.2869
  858MOL0     N13175   8.103   6.355   5.262  0.5194 -0.2967 -0.3530
  858MOL0     C13176   9.357   6.042   5.265  0.2040  0.3660 -0.5899
  858MOL0     C13177   9.493   6.031   5.290 -0.0817  1.7167  0.4151
  858MOL0     C13178   9.892   6.152   5.289 -1.3931  0.2958  0.5208
  858MOL0     C13179   9.995   6.231   5.232 -0.5105  0.2619 -0.2845
  858MOL0     C13180  10.120   6.181   5.201 -0.5607 -0.2187 -0.2960
  858MOL0     C13181  10.143   6.043   5.218  0.2479  0.2662 -0.6485
  858MOL0     O13182  10.267   5.986   5.200  0.8866  0.3561 -0.4295
  858MOL0     C13183  10.386   6.062   5.221 -0.0920  0.4527 -0.5483
  858MOL0     C13184  10.436   6.054   5.363 -0.7504  0.1469 -0.2645
  858MOL0     C13185  10.328   6.092   5.471  0.6353  0.0105 -0.6369
  858MOL0     C13186  10.379   6.105   5.612 -0.4515  0.3241  0.5816
  858MOL0     C13187  10.475   6.219   5.630 -0.9364 -0.3473  0.9306
  858MOL0     C13188  10.553   6.318   5.646  0.3430 -0.4787 -0.4905
  858MOL0     C13189  10.051   5.968   5.279  0.7427  1.2936 -0.2872
  858MOL0     C13190   9.930   6.021   5.318 -0.0800 -0.1742  0.2843
  858MOL0     H13191   9.508   6.232   5.556 -0.2235  0.2237  0.8318
  858MOL0     H13192   9.266   6.251   5.520 -0.1443  1.1542  0.0808
  858MOL0     H13193   9.188   6.180   5.121  0.7192  0.7599  0.1816
  858MOL0     H13194   9.111   6.306   5.228  0.1051  0.1093 -1.0519
  858MOL0     H13195   8.885   6.230   5.216  1.5477 -0.7982  1.5438
  858MOL0     H13196   8.935   6.103   5.093 -1.1180 -1.1921  0.9528
  858MOL0     H13197   9.007   6.256   4.940  1.7498  2.7971 -0.9898
  858MOL0     H13198   8.961   6.394   5.036 -2.0073  0.9545 -3.8306
  858MOL0     H13199   8.784   6.295   4.864  1.0334 -2.4445 -0.9937
  858MOL0     H13200   8.747   6.172   4.995 -1.6977  0.1448  3.1510
  858MOL0     H13201   8.704   6.468   5.013 -0.3267  0.5194  0.1155
  858MOL0     H13202   8.714   6.371   5.160  2.1518  0.6059 -0.4460
  858MOL0     H13203   8.535   6.222   5.051  2.7213  0.1043  0.4344
  858MOL0     H13204   8.509   6.362   4.947 -2.5949  0.0911  1.0118
  858MOL0     H13205   8.480   6.377   5.243 -0.0538 -1.9561 -1.2511
  858MOL0     H13206   8.470   6.524   5.127 -1.1342 -0.4636 -0.1042
  858MOL0     H13207   8.304   6.272   5.096  0.3709 -0.0448 -2.2496
  858MOL0     H13208   8.250   6.437   5.048  2.5495  0.8305  0.2986
  858MOL0     H13209   8.345   6.560   5.338  0.5135  0.0314  4.3802
  858MOL0     H13210   8.024   6.650   5.498 -1.1246  0.4441  1.6291
  858MOL0     H13211   8.187   6.705   5.444  1.6761 -1.9863 -0.8025
  858MOL0     H13212   8.199   6.719   5.677  2.0184 -0.9880  1.1316
  858MOL0     H13213   8.303   6.604   5.608 -0.2224  1.5691 -0.7161
  858MOL0     H13214   8.167   6.419   5.683 -2.1349 -1.8467  2.1895
  858MOL0     H13215   8.189   6.533   5.819 -0.0728 -2.5798 -0.1764
  858MOL0     H13216   7.951   6.458   5.817  2.1103 -1.1303  0.6924
  858MOL0     H13217   7.937   6.539   5.656 -0.4768 -0.8204 -0.0310
  858MOL0     H13218   7.936   6.903   5.882  2.2910 -4.0309  0.4370
  858MOL0     H13219   7.714   7.002   5.976 -1.7111  0.6129 -0.2247
  858MOL0     H13220   7.294   6.850   6.270  0.3878  0.0338 -0.7804
  858MOL0     H13221   7.102   6.949   6.343 -2.8533 -0.4257 -0.2067
  858MOL0     H13222   6.756   6.981   6.083 -0.4106 -0.1384  0.7154
  858MOL0     H13223   6.807   7.146   6.061  4.0436 -0.8673 -0.9350
  858MOL0     H13224   6.712   7.195   6.292 -0.6319 -0.3406 -1.2665
  858MOL0     H13225   6.651   7.027   6.298 -1.0039  0.0938 -0.2531
  858MOL0     H13226   6.491   7.080   6.114  3.8441  0.9946 -5.1867
  858MOL0     H13227   6.582   7.225   6.086  0.1863 -1.8272 -1.7625
  858MOL0     H13228   6.423   7.170   6.339 -1.9857  1.4643  0.6082
  858MOL0     H13229   6.505   7.325   6.291 -1.4437 -0.0591  1.2901
  858MOL0     H13230   6.244   7.295   6.258 -1.5228 -1.8052 -0.1750
  858MOL0     H13231   6.283   7.168   6.143 -0.4057  0.5489 -0.5174
  858MOL0     H13232   6.372   7.329   5.986 -3.3211 -0.4529 -1.7793
  858MOL0     H13233   6.402   7.450   6.106  0.8710  0.6902 -0.9907
  858MOL0     H13234   6.118   7.342   6.021 -2.1068  1.6975  2.2590
  858MOL0     H13235   6.141   7.453   6.143 -0.3442 -0.1559 -0.8369
  858MOL0     H13236   6.076   7.562   5.936 -0.6091 -1.5720  1.6390
  858MOL0     H13237   6.204   7.481   5.846  0.8632  1.7171 -1.5941
  858MOL0     H13238   6.941   6.978   5.949 -0.1827 -1.9633 -0.5787
  858MOL0     H13239   7.143   6.887   5.867 -4.0756 -3.2290  0.4745
  858MOL0     H13240   7.539   6.610   5.915 -0.6304  0.4440 -2.1196
  858MOL0     H13241   7.739   6.530   5.829  2.2058 -0.7942 -1.6339
  858MOL0     H13242   9.306   5.976   5.196 -0.8516  1.2104 -0.6316
  858MOL0     H13243   9.545   5.953   5.235 -4.0058  0.6683 -2.2229
  858MOL0     H13244   9.967   6.336   5.223 -2.0536  0.1723  2.4691
  858MOL0     H13245  10.192   6.252   5.162  0.1554 -0.1648  1.0409
  858MOL0     H13246  10.379   6.169   5.202 -1.5846  0.4021 -0.3994
  858MOL0     H13247  10.449   6.010   5.149 -1.5679 -0.7906 -1.0192
  858MOL0     H13248  10.480   5.957   5.388  1.6429  2.1148  4.3614
  858MOL0     H13249  10.519   6.125   5.366  1.3424 -2.1634  1.6226
  858MOL0     H13250  10.239   6.028   5.467 -0.4319  1.5031 -2.3302
  858MOL0     H13251  10.290   6.192   5.448  1.0840  1.6148  4.3588
  858MOL0     H13252  10.287   6.125   5.668 -1.2444 -0.7727 -0.2815
  858MOL0     H13253  10.418   6.013   5.656  0.1443  0.1523 -0.2738
  858MOL0     H13254  10.624   6.396   5.660 -0.5134  1.3478 -4.8461
  858MOL0     H13255  10.076   5.866   5.306 -2.8344  0.4833  0.4582
  858MOL0     H13256   9.871   5.949   5.374  0.1034 -2.0825 -1.8166
  859MOL0     O13257   1.225  10.779   1.969  0.9263 -1.1326  0.5324
  859MOL0     C13258   1.268  10.776   1.848  0.1295  0.1220 -0.1035
  859MOL0     O13259   1.191  10.810   1.743 -0.7833 -0.1752 -0.1924
  859MOL0     C13260   1.082  10.890   1.744  0.1314 -0.0771 -0.1603
  859MOL0     C13261   1.071  11.011   1.814  0.5087  0.1061  0.9801
  859MOL0     C13262   0.956  11.092   1.809 -0.6175 -0.2407 -0.7410
  859MOL0     C13263   0.846  11.061   1.726 -0.1075 -0.6576 -0.0726
  859MOL0     O13264   0.738  11.149   1.743  0.0466 -0.2143 -0.0728
  859MOL0     C13265   0.633  11.141   1.648  0.6835  0.6234 -0.1890
  859MOL0     C13266   0.521  11.046   1.705 -0.6514  0.5882 -0.8837
  859MOL0     C13267   0.403  11.035   1.611 -0.3444  0.0875  0.4484
  859MOL0     C13268   0.278  10.972   1.694  0.3170 -0.6873  0.3236
  859MOL0     C13269   0.150  11.003   1.618  0.6450 -0.3706 -0.5799
  859MOL0     C13270   0.044  10.908   1.678  0.6204 -0.1344 -0.6354
  859MOL0     C13271  -0.083  10.911   1.590  0.4764 -0.0860 -0.6472
  859MOL0     C13272  -0.136  11.053   1.560  0.0454  0.3188 -0.8205
  859MOL0     N13273  -0.190  11.121   1.678 -0.5852 -0.6844  0.2695
  859MOL0     C13274  -0.114  11.212   1.755 -0.0541 -0.9036 -0.6267
  859MOL0     C13275  -0.213  11.263   1.838 -0.3559  1.5034  0.2519
  859MOL0     C13276  -0.177  11.371   1.932 -0.9842  0.3554 -0.6150
  859MOL0     C13277  -0.248  11.350   2.074 -0.0659 -0.5722  1.2665
  859MOL0     C13278  -0.203  11.439   2.186 -0.5622 -0.0174 -0.5207
  859MOL0     C13279  -0.230  11.384   2.337 -0.1827 -0.6417  0.8252
  859MOL0     O13280  -0.150  11.279   2.383 -0.2820 -0.0486  0.0470
  859MOL0     C13281  -0.030  11.279   2.437 -0.2709 -0.7834 -1.0072
  859MOL0     C13282   0.016  11.164   2.497 -0.4205  0.7344  0.1760
  859MOL0     C13283   0.128  11.168   2.588  0.0299 -1.5141 -0.0379
  859MOL0     C13284   0.198  11.289   2.605 -0.0974 -0.2987 -0.0620
  859MOL0     C13285   0.306  11.290   2.697 -0.8259  0.1185 -0.2207
  859MOL0     O13286   0.328  11.172   2.778  0.8583 -0.3303  0.2795
  859MOL0     C13287   0.439  11.156   2.862  0.2789 -1.0429 -1.1103
  859MOL0     C13288   0.560  11.223   2.856  0.0068 -1.1986 -0.9449
  859MOL0     C13289   0.668  11.185   2.937  0.3727 -0.1326 -0.4144
  859MOL0     C13290   0.660  11.088   3.036 -0.7928  0.0315 -0.3728
  859MOL0     O13291   0.756  11.051   3.130 -0.2384  0.2622  0.2786
  859MOL0     C13292   0.886  11.120   3.128 -0.1729  0.1775  0.7719
  859MOL0     C13293   0.989  11.049   3.218 -0.5114  0.0977  0.5107
  859MOL0     C13294   1.019  10.901   3.179  0.6491 -0.1450  0.5578
  859MOL0     C13295   1.169  10.859   3.197  0.4159  0.3500 -0.0090
  859MOL0     C13296   1.153  10.707   3.208  0.0122 -0.2970 -0.5701
  859MOL0     C13297   1.288  10.649   3.221  0.1064  0.4560 -0.2737
  859MOL0     C13298   1.287  10.498   3.264  0.8634 -0.0176  0.1187
  859MOL0     C13299   1.418  10.455   3.318 -0.3460 -1.0894  0.0853
  859MOL0    Cl13300   1.426  10.557   3.469  0.0962  0.2609 -0.0167
  859MOL0     C13301   0.541  11.014   3.040 -1.1670 -0.8416 -0.1609
  859MOL0     C13302   0.434  11.047   2.953  0.8189 -0.4812  0.5523
  859MOL0     O13303   0.370  11.388   2.694 -0.3840  0.2456 -0.6577
  859MOL0     C13304   0.159  11.398   2.524 -0.3322  0.2856  0.8384
  859MOL0     C13305   0.047  11.397   2.448  0.1944  0.2619  0.4862
  859MOL0     N13306  -0.342  11.211   1.815 -0.0523 -0.0606  0.2476
  859MOL0     N13307  -0.316  11.134   1.718 -0.8451 -0.0915  0.6131
  859MOL0     C13308   0.856  10.941   1.654 -0.4237  0.0601 -0.0914
  859MOL0     C13309   0.978  10.858   1.656 -1.3900 -0.2928 -0.6771
  859MOL0     C13310   1.409  10.720   1.822  0.3356  0.3389 -0.1356
  859MOL0     C13311   1.490  10.691   1.919 -0.2868  0.0388 -0.1804
  859MOL0     C13312   1.612  10.629   1.890 -0.0174  0.6292 -0.4169
  859MOL0     C13313   1.646  10.602   1.759 -0.2655  0.5692 -0.2993
  859MOL0     O13314   1.771  10.560   1.717 -0.5895  0.4469 -0.1736
  859MOL0     C13315   1.884  10.570   1.806 -0.7257  0.0208 -0.6640
  859MOL0     C13316   1.935  10.713   1.819  0.1988  0.2202  0.2064
  859MOL0     C13317   2.086  10.734   1.860 -0.3447  0.7967  0.3502
  859MOL0     C13318   2.137  10.878   1.847 -0.4792  0.0682  0.0451
  859MOL0     C13319   2.272  10.892   1.887  0.0602 -0.3556 -0.7118
  859MOL0     C13320   2.386  10.900   1.927 -0.4829 -0.5985 -0.1549
  859MOL0     C13321   1.560  10.628   1.657  0.3179  0.1121  0.0567
  859MOL0     C13322   1.440  10.696   1.687  0.2315  0.3149 -0.4336
  859MOL0     H13323   1.165  11.019   1.868  0.5541  1.5134  0.7253
  859MOL0     H13324   0.948  11.182   1.869 -0.4770 -0.8457  0.2195
  859MOL0     H13325   0.658  11.110   1.547  0.2653  1.3223 -0.5157
  859MOL0     H13326   0.596  11.244   1.652  1.7220  1.2145 -3.4473
  859MOL0     H13327   0.492  11.082   1.804  0.4203  0.8487 -0.6515
  859MOL0     H13328   0.567  10.948   1.718 -1.4951  0.2692 -0.1872
  859MOL0     H13329   0.430  10.995   1.513 -5.3606 -0.1442 -1.1683
  859MOL0     H13330   0.383  11.138   1.579  2.3009  0.6045  0.2979
  859MOL0     H13331   0.287  10.866   1.717  4.9946 -0.1054  2.2216
  859MOL0     H13332   0.258  11.032   1.783 -6.4231  0.8060 -1.6074
  859MOL0     H13333   0.153  10.977   1.512  1.7264 -1.9132 -0.1933
  859MOL0     H13334   0.118  11.107   1.630 -0.0047 -0.4489 -1.5184
  859MOL0     H13335   0.020  10.949   1.776  2.5062  4.0303 -1.7011
  859MOL0     H13336   0.070  10.802   1.688 -2.1222 -0.9590 -1.1578
  859MOL0     H13337  -0.066  10.850   1.501 -0.3805  0.9119 -1.5247
  859MOL0     H13338  -0.163  10.857   1.641  0.2404  1.1084  0.2832
  859MOL0     H13339  -0.221  11.034   1.493  0.3856  3.3196 -2.3073
  859MOL0     H13340  -0.059  11.107   1.504  0.2361 -0.5865 -1.4399
  859MOL0     H13341  -0.009  11.240   1.755  0.7900 -3.4900 -3.1459
  859MOL0     H13342  -0.200  11.465   1.881 -2.4748  0.2131 -0.2619
  859MOL0     H13343  -0.069  11.372   1.950 -1.0764  2.4375  0.0425
  859MOL0     H13344  -0.237  11.242   2.089 -4.0008 -1.8002 -2.7161
  859MOL0     H13345  -0.356  11.354   2.056  0.5001  0.5103 -2.9691
  859MOL0     H13346  -0.095  11.459   2.175 -0.8992  2.5170  0.0967
  859MOL0     H13347  -0.259  11.533   2.181 -0.6482  0.1929  2.5596
  859MOL0     H13348  -0.334  11.352   2.332 -0.7873  1.2885 -2.6146
  859MOL0     H13349  -0.227  11.463   2.412 -2.6069  1.2772 -0.9115
  859MOL0     H13350  -0.044  11.073   2.502 -0.8380  1.0253  0.5077
  859MOL0     H13351   0.161  11.077   2.638 -0.4076 -0.7654  1.6859
  859MOL0     H13352   0.580  11.301   2.783  0.3241  0.8312  1.1998
  859MOL0     H13353   0.759  11.244   2.940 -1.8054  3.5136  2.5285
  859MOL0     H13354   0.868  11.222   3.163 -1.6567 -0.4319  1.9105
  859MOL0     H13355   0.925  11.134   3.027  1.1522  0.4997  1.3088
  859MOL0     H13356   0.944  11.049   3.318  0.7408  1.9996  1.1272
  859MOL0     H13357   1.075  11.116   3.218 -0.2251 -0.1244 -2.3624
  859MOL0     H13358   1.009  10.884   3.071 -1.5212 -0.3769  0.7534
  859MOL0     H13359   0.934  10.840   3.212 -1.7044  1.4383 -2.1485
  859MOL0     H13360   1.238  10.892   3.118 -1.1619  1.8580 -0.8219
  859MOL0     H13361   1.210  10.902   3.289 -1.0368 -4.0309  3.0038
  859MOL0     H13362   1.106  10.684   3.112  0.6408  0.8157 -1.1569
  859MOL0     H13363   1.080  10.678   3.284  0.7615  3.3922  1.8091
  859MOL0     H13364   1.349  10.717   3.280  2.0647 -0.6270 -0.9602
  859MOL0     H13365   1.339  10.649   3.124  0.1932 -0.7750 -0.2421
  859MOL0     H13366   1.205  10.488   3.335  1.1807  2.8647  1.0374
  859MOL0     H13367   1.284  10.434   3.176  0.3924 -0.4492  0.4481
  859MOL0     H13368   1.501  10.483   3.252  0.9137 -1.7647  1.3179
  859MOL0     H13369   1.430  10.351   3.351 -0.4716 -0.6470  1.5795
  859MOL0     H13370   0.532  10.930   3.109  0.4982 -0.0937  1.0305
  859MOL0     H13371   0.345  10.985   2.961  0.7095 -0.1180  2.8136
  859MOL0     H13372   0.209  11.494   2.527  0.9592 -0.2406 -1.3787
  859MOL0     H13373   0.021  11.482   2.386  0.9362 -0.0811 -0.3168
  859MOL0     H13374   0.770  10.924   1.590 -1.8155 -1.3317  2.0212
  859MOL0     H13375   0.982  10.762   1.604 -2.5495 -2.3367  2.6814
  859MOL0     H13376   1.460  10.714   2.021  2.7783 -1.1582  1.1141
  859MOL0     H13377   1.677  10.611   1.976  0.8957  0.4083 -1.1349
  859MOL0     H13378   1.967  10.507   1.771  0.4787  0.7589  0.7153
  859MOL0     H13379   1.861  10.526   1.904 -0.2881  2.5444  0.6470
  859MOL0     H13380   1.916  10.772   1.729 -2.0526 -0.7043  0.0248
  859MOL0     H13381   1.869  10.768   1.887  0.3584 -1.0125  1.3973
  859MOL0     H13382   2.143  10.667   1.795 -0.5747  1.3856 -0.4713
  859MOL0     H13383   2.098  10.693   1.961 -1.1727 -2.5010 -0.7384
  859MOL0     H13384   2.132  10.918   1.745 -2.3794 -1.8152 -0.6556
  859MOL0     H13385   2.072  10.942   1.907 -0.0792 -0.8054  1.4667
  859MOL0     H13386   2.486  10.907   1.965 -1.4727 -0.9699  2.8446
  859MOL0     H13387   1.589  10.596   1.557 -2.2062 -2.2055 -0.0516
  859MOL0     H13388   1.383  10.724   1.599  3.5682  1.4861 -2.4253
  860MOL0     O13389   7.611   2.528   5.343  0.4131 -0.2631 -0.6064
  860MOL0     C13390   7.529   2.478   5.425 -0.6983  0.1325 -0.4344
  860MOL0     O13391   7.491   2.532   5.548  0.5475  0.0487  0.7681
  860MOL0     C13392   7.565   2.638   5.592 -0.6461 -0.0457 -0.5599
  860MOL0     C13393   7.669   2.609   5.689 -0.1595  0.2823  1.3050
  860MOL0     C13394   7.748   2.718   5.734 -0.9350  0.4827 -0.0632
  860MOL0     C13395   7.729   2.845   5.685 -0.1790 -0.9953  1.1872
  860MOL0     O13396   7.808   2.949   5.743 -0.2196  0.7046 -0.0668
  860MOL0     C13397   7.882   3.028   5.653 -0.9805 -0.6301  0.8004
  860MOL0     C13398   8.022   3.046   5.710  0.2091 -0.5435  0.6055
  860MOL0     C13399   8.047   3.054   5.863  0.3677  0.5253  0.7341
  860MOL0     C13400   8.188   3.104   5.902 -1.5406 -0.1750 -0.3155
  860MOL0     C13401   8.213   3.062   6.050 -0.3773 -0.3315 -0.4073
  860MOL0     C13402   8.357   3.058   6.104 -0.4343 -1.2948 -0.4728
  860MOL0     C13403   8.413   3.198   6.083  0.2705  0.8292 -0.0909
  860MOL0     C13404   8.560   3.206   6.088  0.3841 -0.4240 -1.0375
  860MOL0     N13405   8.620   3.232   6.225  0.6590 -1.0845 -0.0145
  860MOL0     C13406   8.654   3.151   6.321  0.0715  0.5791  0.6273
  860MOL0     C13407   8.688   3.232   6.425  0.4724  0.2776  0.3032
  860MOL0     C13408   8.726   3.173   6.552  0.9165 -0.0226  0.4767
  860MOL0     C13409   8.872   3.182   6.576 -0.9459 -0.1654  0.0610
  860MOL0     C13410   8.918   3.096   6.695 -0.0817 -0.1986  0.3212
  860MOL0     C13411   9.050   3.142   6.756 -0.4115  0.0209 -0.3582
  860MOL0     O13412   9.035   3.220   6.878 -0.2559 -0.5436  0.7250
  860MOL0     C13413   9.138   3.270   6.943 -0.8494  0.2410  0.1851
  860MOL0     C13414   9.273   3.270   6.902 -0.8331 -0.7758  0.7457
  860MOL0     C13415   9.370   3.298   6.995  0.4389  0.2659  0.2772
  860MOL0     C13416   9.339   3.348   7.126  1.3946 -0.5918  0.1752
  860MOL0     C13417   9.449   3.383   7.221 -0.2400 -0.3944  0.1947
  860MOL0     O13418   9.574   3.354   7.179 -0.2485 -0.0817  0.8566
  860MOL0     C13419   9.689   3.376   7.243  0.5892 -0.9491  0.5210
  860MOL0     C13420   9.801   3.399   7.169 -0.8281 -0.7994 -0.1012
  860MOL0     C13421   9.918   3.430   7.228  0.4747 -0.6738 -0.0979
  860MOL0     C13422   9.929   3.436   7.372  1.1472 -0.6444  0.1820
  860MOL0     O13423  10.038   3.490   7.430 -1.0778 -1.2162 -1.1566
  860MOL0     C13424  10.172   3.439   7.392  0.8342 -0.0951  0.4777
  860MOL0     C13425  10.291   3.480   7.489  0.0848 -0.1435  0.4983
  860MOL0     C13426  10.416   3.484   7.418  0.2905 -0.3577  0.3855
  860MOL0     C13427  10.531   3.472   7.517 -0.1684 -0.8466 -0.1511
  860MOL0     C13428  10.661   3.491   7.446  0.1365  0.3440 -0.2259
  860MOL0     C13429  10.782   3.480   7.549  0.1414  0.7100  0.0170
  860MOL0     C13430  10.916   3.494   7.468 -0.3200  0.2219  0.0794
  860MOL0     C13431  11.040   3.490   7.554  0.9264 -0.5197 -0.1246
  860MOL0    Cl13432  11.185   3.508   7.444 -0.4913 -0.1584  0.4917
  860MOL0     C13433   9.814   3.399   7.441 -0.0132 -0.7331 -0.5459
  860MOL0     C13434   9.691   3.365   7.379  0.5520 -0.0528  0.3489
  860MOL0     O13435   9.423   3.453   7.318  0.0511  0.0245  0.0670
  860MOL0     C13436   9.198   3.364   7.166 -1.6415 -0.1655  0.3450
  860MOL0     C13437   9.104   3.324   7.071 -0.0215  0.3324  0.5465
  860MOL0     N13438   8.679   3.367   6.389  0.7946 -0.1379 -1.0410
  860MOL0     N13439   8.650   3.367   6.265 -0.2648 -0.0467 -0.9197
  860MOL0     C13440   7.632   2.868   5.586 -0.0155  0.6367  0.6475
  860MOL0     C13441   7.547   2.764   5.537 -0.0151  0.5729 -0.5973
  860MOL0     C13442   7.482   2.340   5.388  0.1795  1.3571 -0.8011
  860MOL0     C13443   7.572   2.250   5.327 -0.5789  0.4994 -0.4242
  860MOL0     C13444   7.526   2.123   5.307  0.3007 -0.9434  0.1047
  860MOL0     C13445   7.392   2.076   5.331  0.0193 -0.5193  0.0280
  860MOL0     O13446   7.357   1.949   5.300  0.2841  0.8818 -0.7118
  860MOL0     C13447   7.419   1.884   5.194 -0.0819  0.2163  0.0779
  860MOL0     C13448   7.415   1.734   5.206 -0.2895 -0.0597 -0.5015
  860MOL0     C13449   7.420   1.664   5.067 -0.0729 -0.4947  0.7245
  860MOL0     C13450   7.379   1.519   5.064  0.7499  0.5620  0.4572
  860MOL0     C13451   7.455   1.444   5.166 -0.1316 -0.4655 -0.6004
  860MOL0     C13452   7.492   1.369   5.249  0.3771  0.2377 -0.2545
  860MOL0     C13453   7.301   2.162   5.387  0.3945  0.1687  0.1150
  860MOL0     C13454   7.347   2.296   5.413 -0.4501  0.7455 -0.3165
  860MOL0     H13455   7.685   2.505   5.713  1.3781  0.4645  1.1666
  860MOL0     H13456   7.826   2.697   5.807  0.1426  0.0912 -1.2849
  860MOL0     H13457   7.832   3.126   5.654  1.9287  0.9541  1.1284
  860MOL0     H13458   7.889   2.994   5.549  1.3783 -1.4443  1.1751
  860MOL0     H13459   8.047   3.148   5.680 -1.9192  0.1153  0.9478
  860MOL0     H13460   8.088   2.979   5.654 -1.3388 -0.4462 -1.4623
  860MOL0     H13461   8.031   2.954   5.903  2.4268 -0.4427 -0.7041
  860MOL0     H13462   7.976   3.128   5.903  0.1714  1.1060 -0.6375
  860MOL0     H13463   8.264   3.056   5.840 -2.6361 -2.5340  0.0394
  860MOL0     H13464   8.192   3.213   5.894 -2.1255 -0.1599 -0.4491
  860MOL0     H13465   8.178   2.962   6.077  1.7742 -0.4255  2.6014
  860MOL0     H13466   8.163   3.137   6.113  2.3831  0.3494  1.1582
  860MOL0     H13467   8.413   2.986   6.043  3.0478  0.1939  0.7547
  860MOL0     H13468   8.350   3.046   6.213 -0.2247 -1.3588 -0.4674
  860MOL0     H13469   8.375   3.226   5.985 -2.8479 -1.4344  0.3069
  860MOL0     H13470   8.377   3.274   6.153 -1.3504  0.6510 -0.6836
  860MOL0     H13471   8.584   3.296   6.032 -2.1459  0.6337 -0.5467
  860MOL0     H13472   8.608   3.114   6.051 -1.4565 -2.6532  1.6892
  860MOL0     H13473   8.635   3.044   6.313 -1.1425  0.7784  0.5946
  860MOL0     H13474   8.686   3.072   6.562 -0.5120  0.2969 -1.5342
  860MOL0     H13475   8.680   3.227   6.635 -0.2009 -1.8202  1.0922
  860MOL0     H13476   8.896   3.287   6.597 -1.7748  0.4745 -1.8906
  860MOL0     H13477   8.922   3.151   6.484  0.7230  2.2167  0.0862
  860MOL0     H13478   8.847   3.091   6.778 -0.9274  1.3084 -0.2641
  860MOL0     H13479   8.936   2.995   6.659  0.3624 -0.3303  0.9068
  860MOL0     H13480   9.110   3.195   6.681  0.8364 -2.7701 -1.4924
  860MOL0     H13481   9.113   3.058   6.786 -0.6011  1.3581  4.5260
  860MOL0     H13482   9.299   3.228   6.806 -0.3216 -1.5160  1.2002
  860MOL0     H13483   9.475   3.283   6.974 -0.2235 -0.3241 -3.1785
  860MOL0     H13484   9.772   3.410   7.065 -2.8385 -4.6027 -0.0845
  860MOL0     H13485  10.002   3.442   7.161  0.0332  0.2638 -0.5073
  860MOL0     H13486  10.192   3.477   7.291  0.7667 -1.9768 -0.2769
  860MOL0     H13487  10.177   3.331   7.379 -1.4133  0.0489 -3.2466
  860MOL0     H13488  10.297   3.416   7.578  0.7110 -2.6679 -1.2410
  860MOL0     H13489  10.274   3.578   7.533  0.1618 -0.3584  1.0160
  860MOL0     H13490  10.417   3.579   7.364 -3.0447  0.0685  0.8573
  860MOL0     H13491  10.422   3.403   7.344  2.0097  0.7866 -0.8285
  860MOL0     H13492  10.524   3.560   7.581  0.3941 -1.9234  1.4673
  860MOL0     H13493  10.540   3.376   7.569 -1.3449 -2.1127 -2.1489
  860MOL0     H13494  10.668   3.584   7.390  2.7000 -1.7956 -3.9624
  860MOL0     H13495  10.685   3.416   7.370 -2.1604  1.5125 -2.2427
  860MOL0     H13496  10.766   3.385   7.600  0.0041  1.2936  1.0746
  860MOL0     H13497  10.780   3.567   7.615  0.2132  0.3468  0.5053
  860MOL0     H13498  10.904   3.412   7.396 -0.0763 -0.1020  0.4054
  860MOL0     H13499  10.907   3.594   7.425  1.3140  0.8160  1.0582
  860MOL0     H13500  11.037   3.401   7.617 -0.2976  0.0713  0.6883
  860MOL0     H13501  11.041   3.585   7.610  1.9375 -0.3045 -0.4812
  860MOL0     H13502   9.805   3.392   7.549  0.8297 -3.7465 -0.5839
  860MOL0     H13503   9.610   3.322   7.437 -0.1464 -3.7972 -2.9856
  860MOL0     H13504   9.172   3.400   7.265  3.0966 -2.2635  2.6808
  860MOL0     H13505   9.001   3.335   7.104 -0.5660 -1.7924 -0.2985
  860MOL0     H13506   7.625   2.969   5.547 -0.5308 -0.1237 -1.3956
  860MOL0     H13507   7.456   2.789   5.482 -0.7066  0.8184  0.6239
  860MOL0     H13508   7.677   2.268   5.307 -0.0629  0.2128  1.7269
  860MOL0     H13509   7.607   2.063   5.265  0.3972 -0.4541 -0.4298
  860MOL0     H13510   7.527   1.902   5.191 -0.4173  2.3987 -2.0907
  860MOL0     H13511   7.380   1.922   5.100 -1.0983  0.0913  0.4384
  860MOL0     H13512   7.492   1.690   5.271  0.2475  0.4345 -0.7936
  860MOL0     H13513   7.316   1.712   5.247 -0.2053 -0.0496 -0.2925
  860MOL0     H13514   7.525   1.667   5.038  0.1897  3.1009  1.6015
  860MOL0     H13515   7.372   1.721   4.986  2.3174 -0.2942 -0.6200
  860MOL0     H13516   7.270   1.518   5.069  0.5914 -1.3328 -1.6487
  860MOL0     H13517   7.410   1.477   4.968 -0.3393  0.9917 -0.1029
  860MOL0     H13518   7.527   1.292   5.315  0.9635  0.2828 -0.5078
  860MOL0     H13519   7.201   2.125   5.406  0.7068 -2.0194 -1.9115
  860MOL0     H13520   7.286   2.362   5.475  3.6772  1.4784  3.4651
  861MOL0     O13521   2.818   1.749   9.554 -0.2257  0.0207  0.6192
  861MOL0     C13522   2.892   1.850   9.533 -0.7027 -0.0650  0.6647
  861MOL0     O13523   2.868   1.985   9.548 -0.1691  0.6408 -0.7075
  861MOL0     C13524   2.739   2.044   9.570 -0.1625 -0.6388  0.5862
  861MOL0     C13525   2.615   1.990   9.547 -0.2044 -0.2330 -0.5836
  861MOL0     C13526   2.492   2.052   9.587  0.6124  0.0509  0.8631
  861MOL0     C13527   2.502   2.168   9.665 -0.8581 -0.1252 -0.1797
  861MOL0     O13528   2.392   2.234   9.713  0.1793  0.2506  0.1168
  861MOL0     C13529   2.373   2.359   9.648  0.1268 -0.7535 -0.3476
  861MOL0     C13530   2.226   2.386   9.619  0.3399  0.1530 -0.5431
  861MOL0     C13531   2.149   2.291   9.522 -0.9492  0.3635  0.0222
  861MOL0     C13532   2.053   2.367   9.437  0.5042 -0.0830  0.7779
  861MOL0     C13533   1.934   2.448   9.500 -0.6218  0.3358 -0.0760
  861MOL0     C13534   1.847   2.357   9.587  0.6649 -1.1218 -0.0261
  861MOL0     C13535   1.735   2.439   9.652 -0.1991  0.8257  0.4860
  861MOL0     C13536   1.730   2.408   9.794  0.5550 -0.7603 -0.1198
  861MOL0     N13537   1.862   2.446   9.872  0.0739  0.3178  1.2947
  861MOL0     C13538   1.918   2.572   9.888  0.2466 -0.1255 -0.3428
  861MOL0     C13539   2.033   2.540   9.956  0.5555 -0.2547  0.0418
  861MOL0     C13540   2.130   2.655   9.998 -0.5723  0.2672  1.0553
  861MOL0     C13541   2.136   2.693  10.149 -0.3144 -0.2272  0.0271
  861MOL0     C13542   2.221   2.818  10.173  0.1693  0.1074  0.1603
  861MOL0     C13543   2.126   2.941  10.161  0.2515  0.0065 -0.1796
  861MOL0     O13544   2.207   3.055  10.180  0.5421  0.1883  0.6421
  861MOL0     C13545   2.147   3.178  10.197 -0.2068  0.1573 -0.5075
  861MOL0     C13546   2.010   3.206  10.201 -0.4443 -0.4949  0.8487
  861MOL0     C13547   1.961   3.331  10.222 -0.0099  0.0946  0.1963
  861MOL0     C13548   2.053   3.442  10.257 -0.1333 -0.8024 -0.5202
  861MOL0     C13549   1.997   3.564  10.302 -0.1238  0.8174 -0.7205
  861MOL0     O13550   1.872   3.596  10.256  0.6768  0.0866  0.3533
  861MOL0     C13551   1.821   3.702  10.321 -0.1352 -0.0876  0.6409
  861MOL0     C13552   1.843   3.825  10.258 -1.1015  0.0533  0.2375
  861MOL0     C13553   1.753   3.937  10.284 -0.2898  0.2159 -0.3114
  861MOL0     C13554   1.643   3.921  10.377 -0.5161  0.1003  0.2110
  861MOL0     O13555   1.549   4.021  10.393 -0.5214 -0.5001  0.3152
  861MOL0     C13556   1.527   4.113  10.287  0.1722  0.4994  1.2557
  861MOL0     C13557   1.379   4.166  10.302 -0.4362 -0.0736 -0.2036
  861MOL0     C13558   1.269   4.058  10.299  0.8847 -0.4473 -0.1552
  861MOL0     C13559   1.137   4.111  10.345 -0.0822 -0.2347 -0.5159
  861MOL0     C13560   1.037   3.998  10.346  0.6564  0.7644 -0.2468
  861MOL0     C13561   1.011   3.949  10.199 -0.5649 -0.2721 -0.3278
  861MOL0     C13562   0.863   3.918  10.174  0.9194  0.0616  0.0249
  861MOL0     C13563   0.771   4.035  10.154 -0.1839 -0.6126  0.1969
  861MOL0    Cl13564   0.605   3.978  10.152  0.4826  0.0469 -0.0591
  861MOL0     C13565   1.633   3.795  10.441  1.0729  0.4584  0.8538
  861MOL0     C13566   1.720   3.689  10.407 -0.2908  0.5996  0.3375
  861MOL0     O13567   2.057   3.622  10.392  0.3284 -0.1356  0.0997
  861MOL0     C13568   2.187   3.412  10.246 -0.1494 -0.2160  0.2012
  861MOL0     C13569   2.239   3.283  10.212 -0.9794 -0.8900 -0.7930
  861MOL0     N13570   2.040   2.399   9.977 -0.6916 -0.3188 -0.2414
  861MOL0     N13571   1.936   2.348   9.931  0.1165  0.0400  0.0755
  861MOL0     C13572   2.634   2.222   9.679  0.8969 -0.6433 -0.4172
  861MOL0     C13573   2.749   2.169   9.638 -0.5331 -0.0983 -0.3064
  861MOL0     C13574   3.031   1.810   9.493 -0.0777  0.5550  0.0038
  861MOL0     C13575   3.094   1.679   9.528  0.0129  0.4752  0.4308
  861MOL0     C13576   3.219   1.659   9.473  0.7633  0.6762 -0.1130
  861MOL0     C13577   3.288   1.749   9.395 -0.4339 -0.2732  0.3636
  861MOL0     O13578   3.413   1.722   9.340 -0.3517  0.4814 -0.3464
  861MOL0     C13579   3.434   1.584   9.321  0.6246  0.4063 -0.0931
  861MOL0     C13580   3.542   1.560   9.215 -0.2023 -0.4124 -0.6029
  861MOL0     C13581   3.489   1.615   9.081 -0.0005  0.8949  0.5002
  861MOL0     C13582   3.581   1.565   8.970  0.3687  0.6149 -0.5530
  861MOL0     C13583   3.520   1.576   8.838 -0.9003 -0.3746  0.9182
  861MOL0     C13584   3.477   1.578   8.724 -0.2706  0.0661 -0.3129
  861MOL0     C13585   3.238   1.872   9.375 -0.6445 -0.2072  0.2236
  861MOL0     C13586   3.100   1.908   9.412 -0.4939  1.2516  0.2482
  861MOL0     H13587   2.609   1.896   9.493  0.9123 -0.7986  0.2294
  861MOL0     H13588   2.395   2.011   9.560  0.8312 -0.2978  0.5953
  861MOL0     H13589   2.429   2.374   9.555 -3.1047  3.9742 -1.9380
  861MOL0     H13590   2.402   2.441   9.714  3.0795 -1.6366 -0.4096
  861MOL0     H13591   2.237   2.484   9.572  0.7556 -0.3828 -1.5999
  861MOL0     H13592   2.162   2.408   9.705  1.0458 -3.7141  1.1557
  861MOL0     H13593   2.091   2.217   9.577 -1.6929  0.7536 -0.2215
  861MOL0     H13594   2.212   2.244   9.446 -2.7621  1.8850 -2.5515
  861MOL0     H13595   2.092   2.426   9.353 -1.5001 -0.4668 -0.4746
  861MOL0     H13596   2.006   2.285   9.384 -0.6178 -0.8560  2.8529
  861MOL0     H13597   1.864   2.481   9.422 -1.8321 -2.5668 -0.3448
  861MOL0     H13598   1.971   2.537   9.551  1.2019 -0.6966  0.4977
  861MOL0     H13599   1.905   2.301   9.662  1.9048 -1.9610 -1.5366
  861MOL0     H13600   1.805   2.285   9.516 -0.9572  0.8864 -1.2157
  861MOL0     H13601   1.758   2.542   9.621  4.1251 -0.5200 -1.6064
  861MOL0     H13602   1.639   2.408   9.610 -0.5422 -2.4152  3.2990
  861MOL0     H13603   1.694   2.307   9.818  0.8177 -0.6454  0.7967
  861MOL0     H13604   1.652   2.476   9.830  2.1085  2.1551 -1.8753
  861MOL0     H13605   1.889   2.669   9.851 -1.0568 -1.1516 -2.1120
  861MOL0     H13606   2.101   2.749   9.950 -1.9069 -0.1925  0.9131
  861MOL0     H13607   2.229   2.628   9.962 -1.4131  0.4660 -1.6135
  861MOL0     H13608   2.175   2.605  10.200  0.4167 -0.6244 -1.1668
  861MOL0     H13609   2.039   2.722  10.190  0.1832  0.5135  0.7235
  861MOL0     H13610   2.262   2.806  10.274  1.2492  1.7517 -0.0423
  861MOL0     H13611   2.312   2.835  10.115 -0.9057  0.8160 -1.3955
  861MOL0     H13612   2.044   2.945  10.233 -0.2878 -2.4644 -0.5791
  861MOL0     H13613   2.081   2.939  10.061 -2.8381  0.5070  1.0766
  861MOL0     H13614   1.948   3.121  10.173 -0.9267  0.5456 -1.6070
  861MOL0     H13615   1.854   3.341  10.237  0.1577 -1.6883  3.3053
  861MOL0     H13616   1.916   3.828  10.178 -2.6905 -2.6087 -1.4580
  861MOL0     H13617   1.763   4.036  10.240 -3.1712  0.0656 -1.5298
  861MOL0     H13618   1.536   4.062  10.191 -0.3676 -1.3613  2.1481
  861MOL0     H13619   1.602   4.192  10.295  0.9296  0.2826 -2.1884
  861MOL0     H13620   1.366   4.248  10.230  0.1848  0.9033  0.7615
  861MOL0     H13621   1.375   4.211  10.402  1.3939  0.2308 -0.2366
  861MOL0     H13622   1.305   3.974  10.359 -0.2043 -1.4144 -0.8078
  861MOL0     H13623   1.267   4.025  10.195  2.0516  1.7393 -0.9097
  861MOL0     H13624   1.147   4.151  10.446  1.1810 -1.7475  0.0065
  861MOL0     H13625   1.109   4.193  10.279 -4.6291  2.1756  3.7919
  861MOL0     H13626   0.947   4.032  10.397  0.2471  0.4630 -0.7628
  861MOL0     H13627   1.075   3.918  10.410 -2.2315  0.5254  1.3272
  861MOL0     H13628   1.072   3.867  10.162 -0.2859  0.0300 -0.5462
  861MOL0     H13629   1.030   4.034  10.133  2.2557  0.3459  1.1064
  861MOL0     H13630   0.864   3.857  10.083  0.9947 -0.3067  0.2702
  861MOL0     H13631   0.824   3.852  10.252 -1.1560 -1.2074 -1.9366
  861MOL0     H13632   0.800   4.075  10.056 -0.1099  0.4866  0.6452
  861MOL0     H13633   0.789   4.111  10.231 -0.9124  0.5883 -0.7779
  861MOL0     H13634   1.553   3.775  10.512 -1.4540  1.4162 -1.5377
  861MOL0     H13635   1.691   3.589  10.438 -1.3708  0.7937  0.0108
  861MOL0     H13636   2.264   3.485  10.268  1.6087 -1.9727  0.1704
  861MOL0     H13637   2.344   3.272  10.185 -0.8674  0.7555 -1.1278
  861MOL0     H13638   2.638   2.325   9.712 -2.2982  0.4972 -3.1113
  861MOL0     H13639   2.839   2.223   9.664  1.4343 -2.7069 -1.3254
  861MOL0     H13640   3.055   1.606   9.597 -0.1009  0.3528  0.2387
  861MOL0     H13641   3.266   1.567   9.506 -3.5685 -1.9717 -0.5805
  861MOL0     H13642   3.346   1.529   9.286  2.6896 -6.6458  3.8191
  861MOL0     H13643   3.462   1.541   9.418 -4.3477 -2.0584  0.5760
  861MOL0     H13644   3.639   1.609   9.229 -1.6307  2.0338  1.7702
  861MOL0     H13645   3.564   1.453   9.214  1.7032 -0.0743 -1.8581
  861MOL0     H13646   3.482   1.724   9.084  0.1402  0.8957  2.9911
  861MOL0     H13647   3.392   1.564   9.075 -0.2356  0.7147  3.8290
  861MOL0     H13648   3.681   1.607   8.982  0.8304 -0.1372 -1.5511
  861MOL0     H13649   3.580   1.456   8.967 -0.0390  0.6220 -2.7055
  861MOL0     H13650   3.444   1.582   8.622  2.9033 -0.3962 -1.4957
  861MOL0     H13651   3.289   1.953   9.322  0.1924 -0.9518 -0.1313
  861MOL0     H13652   3.065   2.008   9.388 -0.9725  0.9926 -0.1422
  862MOL0     O13653   8.731   0.739  10.023  0.3036 -0.0516  0.3730
  862MOL0     C13654   8.765   0.852  10.000  0.1395 -0.2457  0.1824
  862MOL0     O13655   8.674   0.957   9.983 -0.8486  0.5236  0.6364
  862MOL0     C13656   8.540   0.945   9.993 -1.2163 -0.0579  0.2960
  862MOL0     C13657   8.472   0.826   9.953 -0.1577 -0.0785  0.1334
  862MOL0     C13658   8.338   0.822   9.931 -0.0569  0.2999  0.6416
  862MOL0     C13659   8.254   0.931   9.969  0.0184  0.5905 -0.2120
  862MOL0     O13660   8.118   0.920   9.969  0.1331 -0.8284  0.4025
  862MOL0     C13661   8.038   1.029   9.899 -0.2009  0.2039  0.3018
  862MOL0     C13662   7.904   1.055   9.977  0.4914  0.7953  0.5632
  862MOL0     C13663   7.919   1.116  10.118 -1.3115  0.3510 -0.1411
  862MOL0     C13664   7.789   1.184  10.165  0.8579  0.3746  0.1475
  862MOL0     C13665   7.832   1.265  10.293  0.1763 -0.2818 -0.6363
  862MOL0     C13666   7.706   1.344  10.331  0.1643 -0.0901 -0.4904
  862MOL0     C13667   7.688   1.413  10.472 -0.1083 -0.6033 -0.5988
  862MOL0     C13668   7.622   1.323  10.575  0.2959  0.8539 -0.1471
  862MOL0     N13669   7.478   1.326  10.557 -0.0868  0.2512  0.3832
  862MOL0     C13670   7.407   1.233  10.478 -1.1458  0.5772 -0.9095
  862MOL0     C13671   7.284   1.284  10.482 -0.8214  0.4127 -0.6872
  862MOL0     C13672   7.162   1.220  10.418 -0.1628  0.0964  0.2057
  862MOL0     C13673   7.133   1.307  10.297 -0.6607  0.3543  0.2968
  862MOL0     C13674   6.990   1.332  10.259  0.3032  0.1211 -0.6488
  862MOL0     C13675   6.923   1.380  10.389 -0.6019  0.1143 -0.6530
  862MOL0     O13676   6.850   1.491  10.345  0.2274 -0.5399 -0.1183
  862MOL0     C13677   6.722   1.469  10.297 -0.7234  0.5153  0.2156
  862MOL0     C13678   6.679   1.347  10.234 -0.6191 -0.3941  0.5826
  862MOL0     C13679   6.549   1.332  10.178 -0.2091 -1.1758  0.8089
  862MOL0     C13680   6.458   1.438  10.185  0.3074  0.5663  0.4478
  862MOL0     C13681   6.323   1.426  10.129  0.6119 -0.3021 -0.3768
  862MOL0     O13682   6.226   1.500  10.186  0.4648 -0.4483  0.6131
  862MOL0     C13683   6.097   1.468  10.169 -0.6058  0.2947  0.2522
  862MOL0     C13684   6.021   1.575  10.161 -0.0397  0.1779 -0.6737
  862MOL0     C13685   5.886   1.564  10.129  0.2137  0.4031  1.0106
  862MOL0     C13686   5.824   1.437  10.115 -0.0306  0.3540 -0.1544
  862MOL0     O13687   5.692   1.454  10.084  0.1647  0.9892 -0.1988
  862MOL0     C13688   5.627   1.339  10.028 -0.2614  0.1308 -0.6531
  862MOL0     C13689   5.579   1.265  10.156 -0.1775  0.1114 -0.2125
  862MOL0     C13690   5.448   1.173  10.119  0.2274  0.2149 -0.9485
  862MOL0     C13691   5.334   1.265  10.085  0.3331  0.1895 -0.0162
  862MOL0     C13692   5.198   1.185  10.096 -0.9449  0.1587 -0.4368
  862MOL0     C13693   5.084   1.270  10.164 -0.4020  0.0591 -0.0383
  862MOL0     C13694   4.931   1.244  10.143  0.7739  0.6309 -0.2459
  862MOL0     C13695   4.856   1.292  10.016  0.6747  0.7095  0.6799
  862MOL0    Cl13696   4.908   1.457   9.977  0.4093  0.0410  0.5245
  862MOL0     C13697   5.910   1.320  10.132  0.6287 -0.5071 -0.3042
  862MOL0     C13698   6.041   1.344  10.152 -0.9075  0.1854 -1.5716
  862MOL0     O13699   6.314   1.354  10.032 -0.3232 -0.7002  0.0098
  862MOL0     C13700   6.502   1.557  10.246 -0.4906 -1.0509 -0.2302
  862MOL0     C13701   6.636   1.577  10.304  0.1665  0.1959  1.3181
  862MOL0     N13702   7.277   1.391  10.568  0.2701  1.0477 -0.7112
  862MOL0     N13703   7.389   1.407  10.620 -0.0293  0.4399 -0.7490
  862MOL0     C13704   8.315   1.043  10.016 -0.3927 -0.5869  0.6557
  862MOL0     C13705   8.454   1.058  10.025  0.7142 -0.0960 -0.2248
  862MOL0     C13706   8.913   0.877  10.004 -0.6350  0.1852  0.2831
  862MOL0     C13707   9.006   0.768  10.009 -0.2255 -0.0965  0.2255
  862MOL0     C13708   9.144   0.797  10.003 -0.1337 -0.4220 -0.0000
  862MOL0     C13709   9.205   0.925  10.013 -0.6091 -0.4066  0.2215
  862MOL0     O13710   9.336   0.951  10.002  0.0422 -0.2919 -0.4108
  862MOL0     C13711   9.435   0.843  10.030  0.2115 -0.6791  0.1505
  862MOL0     C13712   9.576   0.900  10.048  0.1008 -0.5050  0.0016
  862MOL0     C13713   9.596   0.936  10.194 -0.5767 -0.3735 -0.2874
  862MOL0     C13714   9.737   0.973  10.223 -0.8193  0.1370  0.1711
  862MOL0     C13715   9.750   1.045  10.352 -0.5927  0.3182  0.2174
  862MOL0     C13716   9.738   1.101  10.461 -0.1104  0.4666 -0.3654
  862MOL0     C13717   9.107   1.031  10.006 -0.4549  1.0773  0.6465
  862MOL0     C13718   8.968   1.006  10.001  0.4744 -0.2159  0.2599
  862MOL0     H13719   8.518   0.737   9.913 -2.7839 -1.3400 -0.2303
  862MOL0     H13720   8.287   0.732   9.897  2.0404 -1.0439  0.8911
  862MOL0     H13721   8.033   1.008   9.792 -1.9909 -1.4816  0.6463
  862MOL0     H13722   8.092   1.124   9.906  1.2943 -0.6019  0.1825
  862MOL0     H13723   7.869   0.951   9.981  0.8964  0.3824 -3.2456
  862MOL0     H13724   7.836   1.115   9.917 -1.0860  0.4079  1.8874
  862MOL0     H13725   8.005   1.183  10.112 -0.6506 -0.3989  0.7421
  862MOL0     H13726   7.960   1.041  10.185  1.7801  2.0513  0.0527
  862MOL0     H13727   7.750   1.249  10.086  0.6003 -0.0685 -0.0948
  862MOL0     H13728   7.709   1.111  10.181  1.3318 -0.6301 -1.6700
  862MOL0     H13729   7.919   1.330  10.276 -1.3549  2.2854  0.7319
  862MOL0     H13730   7.855   1.194  10.372 -0.2695  1.7753  1.4372
  862MOL0     H13731   7.615   1.285  10.316 -1.5622  1.1622  3.5864
  862MOL0     H13732   7.699   1.427  10.260  2.5068  1.0138  0.4615
  862MOL0     H13733   7.782   1.442  10.519 -2.2830 -0.7478  4.4206
  862MOL0     H13734   7.632   1.504  10.449 -2.8027 -1.3950  2.1252
  862MOL0     H13735   7.625   1.376  10.671 -0.8277  2.0217 -0.7218
  862MOL0     H13736   7.656   1.220  10.586 -3.2333 -0.4389  0.1747
  862MOL0     H13737   7.441   1.147  10.421 -2.9634 -0.7924 -0.0277
  862MOL0     H13738   7.081   1.211  10.491 -0.1599 -0.3902  0.1466
  862MOL0     H13739   7.186   1.116  10.394 -0.0178  0.3821 -0.9404
  862MOL0     H13740   7.182   1.254  10.215  1.3332 -0.0552  1.6649
  862MOL0     H13741   7.187   1.402  10.299  1.3174 -0.5861 -2.4936
  862MOL0     H13742   6.978   1.400  10.174 -0.8974 -2.2084 -2.4476
  862MOL0     H13743   6.943   1.244  10.215 -0.6491 -0.5520  1.5624
  862MOL0     H13744   6.997   1.414  10.462 -0.6998 -0.9066 -0.0564
  862MOL0     H13745   6.865   1.312  10.452 -1.9106 -0.7227 -2.6627
  862MOL0     H13746   6.744   1.260  10.238  0.6153  0.5545  2.3540
  862MOL0     H13747   6.512   1.244  10.126 -1.9420 -0.4569  0.7832
  862MOL0     H13748   6.049   1.677  10.184 -4.1982  1.3145  0.2580
  862MOL0     H13749   5.829   1.656  10.118 -0.8953 -0.5123 -2.4095
  862MOL0     H13750   5.685   1.267   9.969 -1.4079 -3.4436  2.1652
  862MOL0     H13751   5.542   1.387   9.977 -2.4367 -0.8336  1.8347
  862MOL0     H13752   5.547   1.325  10.241  1.4199 -1.5537  1.6542
  862MOL0     H13753   5.647   1.189  10.195 -1.6778 -0.9830  0.3363
  862MOL0     H13754   5.414   1.115  10.205  1.1829 -0.9370 -1.3162
  862MOL0     H13755   5.469   1.100  10.041  1.2964  1.5818 -2.0028
  862MOL0     H13756   5.340   1.352  10.152  3.0359  1.6962 -1.9683
  862MOL0     H13757   5.347   1.311   9.987  2.3204  0.0396  0.1274
  862MOL0     H13758   5.217   1.086  10.138  1.8135  0.8075  0.0377
  862MOL0     H13759   5.166   1.167   9.993  4.6190 -1.2277 -2.2694
  862MOL0     H13760   5.110   1.374  10.144  2.0050 -0.2257  1.2060
  862MOL0     H13761   5.095   1.251  10.271  2.7195  1.4842 -0.0020
  862MOL0     H13762   4.910   1.139  10.163  0.4912  1.3567  4.2907
  862MOL0     H13763   4.874   1.288  10.225  0.2886  0.7125 -0.6195
  862MOL0     H13764   4.747   1.293  10.028  0.7051  0.3496  1.0173
  862MOL0     H13765   4.874   1.233   9.926 -1.1735  0.0181  0.7215
  862MOL0     H13766   5.873   1.218  10.135 -0.5888 -0.0648  0.6563
  862MOL0     H13767   6.106   1.258  10.162 -0.5101  0.6663  0.3744
  862MOL0     H13768   6.445   1.647  10.227  2.0793  0.6722 -0.3061
  862MOL0     H13769   6.677   1.671  10.340 -0.0092  1.6014 -1.8015
  862MOL0     H13770   8.242   1.118  10.044 -1.3154 -1.6840  1.2668
  862MOL0     H13771   8.495   1.153  10.059 -0.5780  1.9349 -3.7799
  862MOL0     H13772   8.970   0.666  10.017  0.7166 -0.3954  0.8138
  862MOL0     H13773   9.190   0.699  10.006 -5.8520 -3.5506  2.4363
  862MOL0     H13774   9.442   0.777   9.943 -2.0165 -1.0983  0.2319
  862MOL0     H13775   9.397   0.781  10.112 -2.3205  0.3692 -0.1440
  862MOL0     H13776   9.654   0.835  10.009  0.5812 -0.0125  0.1243
  862MOL0     H13777   9.589   0.997   9.999 -2.8434 -1.6191 -3.4511
  862MOL0     H13778   9.570   0.847  10.253  0.8008 -1.4160 -1.1915
  862MOL0     H13779   9.540   1.024  10.227  0.7349  0.4966 -0.2931
  862MOL0     H13780   9.800   0.883  10.223 -2.6435 -1.1967 -0.6013
  862MOL0     H13781   9.784   1.039  10.149 -3.1760  1.5319 -0.1819
  862MOL0     H13782   9.726   1.163  10.548 -0.8992 -0.4247  0.1841
  862MOL0     H13783   9.135   1.136  10.006 -2.1351  1.5512  0.2012
  862MOL0     H13784   8.899   1.089  10.003  1.6662  0.7992  0.7651
  863MOL0     O13785   8.306   6.458   7.927 -0.0633 -0.1440 -0.0381
  863MOL0     C13786   8.352   6.435   7.814  0.0473  0.7860  0.1194
  863MOL0     O13787   8.268   6.400   7.711  0.1944  0.5548 -0.2121
  863MOL0     C13788   8.133   6.380   7.742 -0.5140  0.1107 -0.2722
  863MOL0     C13789   8.077   6.244   7.729  0.0967 -0.2986  0.3025
  863MOL0     C13790   7.933   6.230   7.742 -0.2362  0.4301 -0.2654
  863MOL0     C13791   7.850   6.341   7.772  0.5221  0.4235  0.3087
  863MOL0     O13792   7.708   6.329   7.795 -0.5227 -0.2324  0.9232
  863MOL0     C13793   7.631   6.210   7.779 -0.1049 -0.0493  0.1217
  863MOL0     C13794   7.494   6.251   7.758  0.8578  0.7163  0.5154
  863MOL0     C13795   7.411   6.108   7.767 -0.3259 -0.2332  0.2296
  863MOL0     C13796   7.449   6.017   7.651  0.3158 -0.4328 -0.4634
  863MOL0     C13797   7.333   5.910   7.633 -0.2155 -0.3131 -0.7418
  863MOL0     C13798   7.369   5.803   7.521 -0.5182 -0.4365  0.3040
  863MOL0     C13799   7.248   5.707   7.505 -1.0030 -0.7529 -0.1231
  863MOL0     C13800   7.226   5.604   7.624 -0.1811  0.6428  0.5661
  863MOL0     N13801   7.132   5.509   7.558 -0.9859  0.3209 -0.5593
  863MOL0     C13802   7.157   5.378   7.520  0.4433  0.0039 -0.3307
  863MOL0     C13803   7.041   5.320   7.477 -0.5033  0.3731 -0.6632
  863MOL0     C13804   7.031   5.178   7.423  0.3231 -1.2422 -0.0237
  863MOL0     C13805   6.894   5.122   7.480 -0.7067 -0.0227  0.5964
  863MOL0     C13806   6.908   5.087   7.634  0.3707  0.8878  1.1658
  863MOL0     C13807   6.769   5.048   7.681 -0.8658 -0.1633 -0.2286
  863MOL0     O13808   6.713   4.942   7.601 -0.0220  0.2899 -0.3153
  863MOL0     C13809   6.590   4.882   7.627  0.8046  0.0639 -0.5374
  863MOL0     C13810   6.524   4.919   7.743  0.1399 -0.2965  0.4339
  863MOL0     C13811   6.390   4.874   7.767 -0.0036  1.4225 -0.5119
  863MOL0     C13812   6.321   4.795   7.664 -0.1183 -0.1005 -0.6492
  863MOL0     C13813   6.181   4.785   7.679  0.1047 -0.4876  0.9755
  863MOL0     O13814   6.140   4.818   7.804  0.3247 -0.2376 -0.3160
  863MOL0     C13815   6.004   4.839   7.842 -0.1240  0.3153 -0.6145
  863MOL0     C13816   5.987   4.843   7.981  0.6845  0.4648  0.3184
  863MOL0     C13817   5.863   4.846   8.041  0.7391 -0.3547  0.2868
  863MOL0     C13818   5.748   4.860   7.959  0.5254  0.3766  0.6783
  863MOL0     O13819   5.625   4.885   8.015 -0.3424 -0.0497 -0.6696
  863MOL0     C13820   5.521   4.969   7.959  1.0623 -0.2065 -0.1941
  863MOL0     C13821   5.564   5.115   7.963  0.0293 -0.2519  0.0185
  863MOL0     C13822   5.485   5.185   8.060 -0.2334  0.0093  0.1015
  863MOL0     C13823   5.340   5.187   8.018  0.9542 -0.6384 -0.4690
  863MOL0     C13824   5.248   5.207   8.143 -0.2882 -0.7728 -0.3704
  863MOL0     C13825   5.102   5.166   8.112 -0.2594 -1.1753 -0.0617
  863MOL0     C13826   5.017   5.204   8.233  0.7069  0.0001 -0.1838
  863MOL0     C13827   4.888   5.140   8.216  0.3365 -0.2279  0.0730
  863MOL0    Cl13828   4.769   5.194   8.341 -0.1399  0.2481  0.1995
  863MOL0     C13829   5.763   4.843   7.825  0.3452  0.8594  0.2142
  863MOL0     C13830   5.890   4.829   7.766  0.1616 -0.0709 -0.4989
  863MOL0     O13831   6.112   4.743   7.594 -0.6973 -0.2101  0.0968
  863MOL0     C13832   6.398   4.744   7.556 -0.1479 -0.5069 -0.4720
  863MOL0     C13833   6.534   4.777   7.547 -0.1056  0.6031 -0.4781
  863MOL0     N13834   6.952   5.421   7.496  0.9721 -0.6441 -0.6148
  863MOL0     N13835   7.001   5.520   7.557  0.1254 -0.3395  0.4324
  863MOL0     C13836   7.914   6.471   7.795 -0.1753 -0.0336 -0.2575
  863MOL0     C13837   8.051   6.487   7.781  0.0399  0.2959  0.9200
  863MOL0     C13838   8.502   6.434   7.784 -0.0132 -0.1181 -0.4891
  863MOL0     C13839   8.597   6.435   7.885 -0.2198 -0.0866 -0.3416
  863MOL0     C13840   8.735   6.411   7.858 -0.3797 -0.8548 -0.2377
  863MOL0     C13841   8.780   6.406   7.724  0.0806  1.0677  0.3691
  863MOL0     O13842   8.912   6.386   7.684  0.0009  0.4739  0.3766
  863MOL0     C13843   9.019   6.352   7.774  0.5344 -0.5562  0.0199
  863MOL0     C13844   9.152   6.370   7.710  0.3138  0.6271  0.5592
  863MOL0     C13845   9.188   6.518   7.693 -0.9870 -0.2764  0.6710
  863MOL0     C13846   9.327   6.541   7.631 -0.6198  0.3826  0.3973
  863MOL0     C13847   9.447   6.501   7.708  0.2069  0.2607 -0.2966
  863MOL0     C13848   9.553   6.499   7.770  0.0204 -0.2292 -0.6070
  863MOL0     C13849   8.681   6.402   7.630  0.3393  1.4658  0.7140
  863MOL0     C13850   8.545   6.413   7.654  0.4007  0.3111  0.5065
  863MOL0     H13851   8.152   6.174   7.695  1.3339  1.7566 -1.3990
  863MOL0     H13852   7.881   6.135   7.733 -1.3588  0.8896  1.0882
  863MOL0     H13853   7.630   6.141   7.864  1.1264 -1.9125 -1.3069
  863MOL0     H13854   7.673   6.147   7.700  3.8910  3.0438 -0.5771
  863MOL0     H13855   7.482   6.286   7.656  1.6430 -3.2070 -1.1224
  863MOL0     H13856   7.448   6.319   7.830  0.0116  1.2185 -0.4744
  863MOL0     H13857   7.306   6.138   7.774  0.0867  1.0124  1.6214
  863MOL0     H13858   7.433   6.054   7.859  2.7391 -0.1195 -0.3406
  863MOL0     H13859   7.449   6.078   7.561 -0.4388 -0.7611 -0.6924
  863MOL0     H13860   7.548   5.971   7.659  0.1439 -1.4103 -3.1580
  863MOL0     H13861   7.244   5.964   7.602 -0.8275  0.6158  2.3103
  863MOL0     H13862   7.297   5.860   7.724 -0.8425 -0.6665 -1.1811
  863MOL0     H13863   7.458   5.741   7.536 -0.5043 -0.9778 -1.6540
  863MOL0     H13864   7.391   5.846   7.423 -1.4295 -3.0237 -1.1496
  863MOL0     H13865   7.167   5.780   7.496  0.5775  1.1663  0.4240
  863MOL0     H13866   7.263   5.657   7.409  1.0155  0.0398 -0.2939
  863MOL0     H13867   7.192   5.651   7.716  1.1704 -1.1818  2.0752
  863MOL0     H13868   7.317   5.553   7.657 -0.3700  0.2412  0.4812
  863MOL0     H13869   7.256   5.336   7.535  0.1252 -1.4449 -1.9339
  863MOL0     H13870   7.122   5.127   7.457  0.0579 -0.3253  2.2380
  863MOL0     H13871   7.027   5.179   7.313 -1.6232 -1.0467  0.0076
  863MOL0     H13872   6.868   5.031   7.425 -0.4060  0.0833  0.2723
  863MOL0     H13873   6.824   5.203   7.456 -0.7746 -0.6137 -1.3216
  863MOL0     H13874   6.974   5.000   7.641 -0.1669  0.1372 -1.8109
  863MOL0     H13875   6.936   5.171   7.699 -2.5050  2.1739  0.8967
  863MOL0     H13876   6.704   5.135   7.668  2.7080  2.5798 -1.0485
  863MOL0     H13877   6.783   5.019   7.785 -0.2593 -1.6280 -0.6949
  863MOL0     H13878   6.586   4.968   7.816  1.6413 -0.0533 -0.9496
  863MOL0     H13879   6.346   4.891   7.865  0.0115  2.9891 -0.7546
  863MOL0     H13880   6.078   4.838   8.041  1.2146  0.8067 -0.4426
  863MOL0     H13881   5.847   4.851   8.148  1.0591  0.2560  0.3090
  863MOL0     H13882   5.436   4.954   8.026  0.1064  2.1598 -0.7690
  863MOL0     H13883   5.495   4.933   7.859 -2.3945  0.8240  0.1961
  863MOL0     H13884   5.544   5.173   7.872  1.0911  1.8093  1.0287
  863MOL0     H13885   5.672   5.128   7.977 -0.3142  0.9355  1.8201
  863MOL0     H13886   5.513   5.290   8.072 -1.3189  0.3134  0.0728
  863MOL0     H13887   5.499   5.137   8.157  2.1834 -2.0168 -1.1122
  863MOL0     H13888   5.318   5.259   7.939  0.7340 -1.7626 -1.4605
  863MOL0     H13889   5.297   5.095   7.978  0.8618 -2.2433  3.0080
  863MOL0     H13890   5.249   5.314   8.165  1.8452 -0.9200  0.4979
  863MOL0     H13891   5.296   5.165   8.231  1.8495 -0.7551 -1.4676
  863MOL0     H13892   5.105   5.060   8.089  1.5016 -0.8400 -1.6808
  863MOL0     H13893   5.058   5.217   8.025  1.4698  0.4894 -0.0382
  863MOL0     H13894   5.057   5.179   8.332 -3.3072  1.4491  2.0226
  863MOL0     H13895   4.996   5.311   8.222  0.0088 -0.1023  0.0916
  863MOL0     H13896   4.902   5.033   8.233  1.7739  0.2216  2.1208
  863MOL0     H13897   4.841   5.157   8.119 -0.1510 -1.1945  0.1292
  863MOL0     H13898   5.674   4.821   7.766 -0.3313  0.7191  1.2615
  863MOL0     H13899   5.891   4.805   7.660 -4.9615  1.0750 -1.0762
  863MOL0     H13900   6.348   4.689   7.477  1.9914 -0.5541 -1.8871
  863MOL0     H13901   6.606   4.738   7.475  0.5168  2.8523 -1.1416
  863MOL0     H13902   7.847   6.549   7.831 -0.9013 -0.6682 -0.1815
  863MOL0     H13903   8.096   6.583   7.802  1.9708  0.2387 -2.4218
  863MOL0     H13904   8.575   6.454   7.989 -0.8991 -1.8593 -0.1116
  863MOL0     H13905   8.804   6.397   7.940  0.1317 -2.3886 -0.8855
  863MOL0     H13906   9.002   6.247   7.800  0.7141 -0.1769  1.8310
  863MOL0     H13907   9.011   6.419   7.860 -1.1452 -1.2309  0.4174
  863MOL0     H13908   9.236   6.324   7.762  0.2918 -0.3931 -0.2852
  863MOL0     H13909   9.149   6.324   7.611 -1.5829  2.1191 -0.1478
  863MOL0     H13910   9.182   6.576   7.785 -1.2452 -0.0126  0.4892
  863MOL0     H13911   9.118   6.561   7.620 -1.7194 -2.4133  0.0271
  863MOL0     H13912   9.334   6.507   7.527 -0.9188  0.7702  0.2480
  863MOL0     H13913   9.319   6.649   7.619 -1.4020  0.3900  0.9646
  863MOL0     H13914   9.633   6.511   7.839 -0.6582  3.0727 -0.2092
  863MOL0     H13915   8.712   6.369   7.531 -0.4628 -1.8046  1.4317
  863MOL0     H13916   8.482   6.411   7.565  0.5067 -0.3496  0.4459
  864MOL0     O13917   8.306   7.312   0.768 -0.4681  0.5660 -0.6708
  864MOL0     C13918   8.265   7.244   0.673  0.1590 -0.8271  0.1504
  864MOL0     O13919   8.137   7.233   0.630  0.2801  0.1824  0.2029
  864MOL0     C13920   8.029   7.298   0.689 -0.2167 -0.0542  0.5424
  864MOL0     C13921   7.901   7.264   0.653  0.6583  0.0963 -0.3836
  864MOL0     C13922   7.790   7.322   0.708 -0.9782  0.2091 -0.0097
  864MOL0     C13923   7.801   7.425   0.805 -0.0806 -0.7879  0.4154
  864MOL0     O13924   7.693   7.499   0.863 -0.5573  1.0141  0.0898
  864MOL0     C13925   7.580   7.419   0.885 -0.5401 -0.1462 -0.7938
  864MOL0     C13926   7.510   7.490   1.007  0.2373  0.7763 -0.9416
  864MOL0     C13927   7.367   7.430   1.040 -0.4442 -0.7965 -0.2103
  864MOL0     C13928   7.262   7.463   0.925  0.0078 -0.3065  0.7269
  864MOL0     C13929   7.122   7.418   0.955 -0.8577 -0.8591 -0.2254
  864MOL0     C13930   7.110   7.273   0.999  0.0413  0.0644 -0.2066
  864MOL0     C13931   6.969   7.217   1.013  0.4883 -0.3567 -0.8494
  864MOL0     C13932   6.915   7.187   1.156 -0.0814 -0.6301  0.7418
  864MOL0     N13933   6.915   7.325   1.213 -0.0341  0.5757  0.0931
  864MOL0     C13934   7.012   7.370   1.294 -0.1559 -0.7747 -0.3553
  864MOL0     C13935   6.982   7.502   1.329  0.2725 -0.1014 -0.4080
  864MOL0     C13936   7.060   7.592   1.416 -0.0177 -0.3649  0.0641
  864MOL0     C13937   7.191   7.629   1.351  0.9735 -0.5379  0.1784
  864MOL0     C13938   7.291   7.693   1.448  1.1694  0.4877  0.7113
  864MOL0     C13939   7.317   7.604   1.568  0.6823  0.1813  0.5475
  864MOL0     O13940   7.345   7.468   1.527 -0.6498  0.1585 -0.2457
  864MOL0     C13941   7.471   7.435   1.475 -0.5544 -1.0416  0.4641
  864MOL0     C13942   7.489   7.298   1.427  0.2978 -0.3162 -0.7162
  864MOL0     C13943   7.606   7.259   1.369  0.5928 -0.5450 -0.4748
  864MOL0     C13944   7.709   7.353   1.346 -0.1929  0.1359 -0.5430
  864MOL0     C13945   7.832   7.305   1.280 -0.6393  0.3537  0.2903
  864MOL0     O13946   7.826   7.180   1.222 -0.1879 -0.4587  0.3662
  864MOL0     C13947   7.940   7.135   1.162 -0.1439  0.0811 -1.2074
  864MOL0     C13948   8.036   7.071   1.242  0.8221 -0.3528 -0.7454
  864MOL0     C13949   8.138   7.005   1.185 -0.3384  0.3726 -0.7870
  864MOL0     C13950   8.165   7.010   1.046 -0.8429  1.0322  0.0691
  864MOL0     O13951   8.273   6.946   0.986  0.4693 -0.7100 -0.4715
  864MOL0     C13952   8.372   6.884   1.063 -0.6593 -0.2902  0.0816
  864MOL0     C13953   8.505   6.905   0.982  0.1168  0.4732 -0.2734
  864MOL0     C13954   8.622   6.846   1.045  0.0842  1.0135  0.5856
  864MOL0     C13955   8.747   6.908   0.982 -0.4042  0.2458  0.4234
  864MOL0     C13956   8.852   6.879   1.093  0.0512  0.2339  0.4252
  864MOL0     C13957   8.983   6.967   1.069  0.4265  0.0735  0.6882
  864MOL0     C13958   9.078   6.951   0.953 -1.1541 -0.1517  0.1295
  864MOL0     C13959   9.108   6.801   0.949  0.0039  0.7924 -0.2872
  864MOL0    Cl13960   9.205   6.751   0.807  0.4540 -0.3111  0.4479
  864MOL0     C13961   8.089   7.095   0.967 -0.2160 -0.0588 -1.8354
  864MOL0     C13962   7.976   7.166   1.024 -0.4859  0.4129 -0.1799
  864MOL0     O13963   7.938   7.368   1.290  0.1209 -0.1306 -0.4677
  864MOL0     C13964   7.693   7.482   1.377  0.4578 -0.0320  0.3122
  864MOL0     C13965   7.582   7.518   1.450 -0.3040 -0.3868  0.5147
  864MOL0     N13966   6.859   7.532   1.267 -0.1064  0.1970 -0.3695
  864MOL0     N13967   6.825   7.429   1.204 -0.3800 -0.3735 -0.0685
  864MOL0     C13968   7.931   7.467   0.843  0.4010  0.1642  1.0218
  864MOL0     C13969   8.040   7.401   0.788 -0.6792  0.2497  0.2327
  864MOL0     C13970   8.363   7.181   0.592  0.1161  0.6095 -0.5131
  864MOL0     C13971   8.495   7.172   0.643  0.5522  0.6964 -0.7301
  864MOL0     C13972   8.594   7.119   0.556 -0.3761  0.4315  0.7103
  864MOL0     C13973   8.557   7.052   0.439 -0.1934 -0.2518  0.0984
  864MOL0     O13974   8.652   6.993   0.362  0.6432 -0.6342  0.4046
  864MOL0     C13975   8.620   6.950   0.233  0.1269 -0.1032  0.3079
  864MOL0     C13976   8.740   6.918   0.149  0.0230  0.3631  0.1572
  864MOL0     C13977   8.809   6.784   0.198  0.5970  0.4530  0.3580
  864MOL0     C13978   8.769   6.661   0.110  0.0917 -0.0760 -0.7222
  864MOL0     C13979   8.629   6.644   0.102  0.1668 -0.7636 -1.1569
  864MOL0     C13980   8.508   6.613   0.087 -0.1179  0.5755  1.6831
  864MOL0     C13981   8.428   7.065   0.401  0.1776 -0.2029  0.4129
  864MOL0     C13982   8.327   7.138   0.464 -0.3184 -0.1018  0.3674
  864MOL0     H13983   7.899   7.200   0.566  0.2156  1.7109 -1.6281
  864MOL0     H13984   7.696   7.286   0.668 -0.8342  0.1166 -0.2639
  864MOL0     H13985   7.602   7.315   0.912 -2.4318 -0.7908 -1.5784
  864MOL0     H13986   7.517   7.417   0.796 -0.5713 -2.1146 -0.7639
  864MOL0     H13987   7.495   7.594   0.976 -1.3226  0.8052 -0.1989
  864MOL0     H13988   7.575   7.494   1.095  0.8695  0.3361 -1.3828
  864MOL0     H13989   7.330   7.465   1.137  1.4894  0.4958  0.1107
  864MOL0     H13990   7.372   7.320   1.042 -2.7405 -0.9489  1.4856
  864MOL0     H13991   7.252   7.570   0.906 -1.1920 -0.4111  0.6933
  864MOL0     H13992   7.294   7.422   0.829 -1.7812  1.1291 -0.5615
  864MOL0     H13993   7.053   7.440   0.873 -1.0564  0.5116  0.2833
  864MOL0     H13994   7.096   7.475   1.045  0.5503 -2.3668  1.1968
  864MOL0     H13995   7.158   7.269   1.097  0.5338  1.5215 -0.3616
  864MOL0     H13996   7.160   7.213   0.921 -0.2313 -1.7844  0.9882
  864MOL0     H13997   6.903   7.284   0.956 -0.4256  1.2095  1.8129
  864MOL0     H13998   6.955   7.120   0.965  3.1054  0.4826 -3.6002
  864MOL0     H13999   6.982   7.124   1.214  0.5174 -1.3391 -0.6728
  864MOL0     H14000   6.812   7.151   1.160 -1.2343  2.3063  0.6264
  864MOL0     H14001   7.101   7.319   1.329  0.2021  2.0195  3.4450
  864MOL0     H14002   7.074   7.538   1.510  0.8766  0.3729  0.3732
  864MOL0     H14003   6.991   7.677   1.424  0.4311 -0.0049  0.1977
  864MOL0     H14004   7.175   7.693   1.264  1.6445 -0.0941  0.3766
  864MOL0     H14005   7.231   7.534   1.314  0.5594 -1.4753  2.0230
  864MOL0     H14006   7.386   7.710   1.397  1.6062  2.3676  2.0632
  864MOL0     H14007   7.256   7.794   1.472 -1.5196 -0.1732 -0.0733
  864MOL0     H14008   7.228   7.603   1.631 -0.0520  0.4314 -0.4731
  864MOL0     H14009   7.397   7.655   1.623  2.3821  0.6328 -2.1457
  864MOL0     H14010   7.403   7.233   1.436 -3.0327  3.7616  0.0955
  864MOL0     H14011   7.623   7.162   1.324  0.7175 -1.5124  1.5355
  864MOL0     H14012   8.015   7.067   1.349  1.6391 -0.9007 -0.5877
  864MOL0     H14013   8.196   6.934   1.242 -0.3408  1.7105  0.9784
  864MOL0     H14014   8.343   6.780   1.076 -2.4336  0.3524  1.5679
  864MOL0     H14015   8.379   6.931   1.161 -1.9022  0.0201  0.0288
  864MOL0     H14016   8.520   7.013   0.978  0.2271  0.4311 -3.6119
  864MOL0     H14017   8.494   6.874   0.877 -3.0300  1.7536 -0.4130
  864MOL0     H14018   8.620   6.739   1.024  2.2400  1.3327 -1.7277
  864MOL0     H14019   8.615   6.849   1.154 -2.9528 -1.9850  0.6501
  864MOL0     H14020   8.773   6.852   0.891  1.1735  1.8501 -0.1676
  864MOL0     H14021   8.739   7.014   0.957 -0.1816 -0.0721 -1.1077
  864MOL0     H14022   8.874   6.772   1.097 -1.2187 -0.0241  0.9202
  864MOL0     H14023   8.817   6.903   1.194  1.0173  0.6280  0.6727
  864MOL0     H14024   9.049   6.950   1.154  1.0358 -0.9389  0.0492
  864MOL0     H14025   8.952   7.071   1.056  1.8742  0.1456 -4.5162
  864MOL0     H14026   9.058   6.985   0.851  0.6712 -1.2518 -0.6465
  864MOL0     H14027   9.169   7.007   0.974 -0.9334 -0.6717  0.5817
  864MOL0     H14028   9.016   6.745   0.932  1.3372 -1.0832 -1.8132
  864MOL0     H14029   9.152   6.757   1.038 -1.4913 -0.0126  0.0780
  864MOL0     H14030   8.114   7.100   0.862  1.8672  1.2271 -1.3378
  864MOL0     H14031   7.911   7.222   0.958 -0.9657 -3.8733 -3.8344
  864MOL0     H14032   7.764   7.560   1.353 -0.7800  1.8871  2.5012
  864MOL0     H14033   7.557   7.618   1.483 -2.6137 -1.1205  1.2053
  864MOL0     H14034   7.937   7.539   0.925  1.8903  0.1922  0.9219
  864MOL0     H14035   8.130   7.435   0.838  0.3013 -2.5136  0.4987
  864MOL0     H14036   8.532   7.213   0.736  4.6159  0.5533 -2.1007
  864MOL0     H14037   8.699   7.115   0.583 -0.4817  0.9253  1.2132
  864MOL0     H14038   8.556   7.018   0.176  0.6644 -1.0413 -1.5076
  864MOL0     H14039   8.555   6.863   0.241 -0.3641  0.3676  1.8199
  864MOL0     H14040   8.718   6.897   0.043  1.6069  0.8797 -0.3093
  864MOL0     H14041   8.802   7.008   0.146 -0.9232  1.2719  3.5091
  864MOL0     H14042   8.788   6.764   0.304 -1.2411 -0.2046 -0.0870
  864MOL0     H14043   8.913   6.797   0.168 -0.2957 -0.1651 -3.5683
  864MOL0     H14044   8.806   6.686   0.010 -0.5423  1.2536 -0.6437
  864MOL0     H14045   8.811   6.569   0.152 -1.6978 -0.9086 -0.6550
  864MOL0     H14046   8.409   6.574   0.074  0.6152 -1.6622  2.3431
  864MOL0     H14047   8.392   7.011   0.314  3.3496 -0.8915 -0.6156
  864MOL0     H14048   8.221   7.137   0.441 -0.2888  1.1066  0.1410
  865MOL0     O14049   1.262   6.561   0.860  1.1055  0.6710  0.5984
  865MOL0     C14050   1.219   6.454   0.805 -0.3127 -0.4662 -0.1825
  865MOL0     O14051   1.290   6.379   0.719 -0.1171  0.5786 -0.6526
  865MOL0     C14052   1.418   6.420   0.682  0.2549  0.2163  0.4460
  865MOL0     C14053   1.450   6.411   0.546 -0.0458  0.7227 -0.5243
  865MOL0     C14054   1.579   6.434   0.503 -0.5625  0.4157  0.1230
  865MOL0     C14055   1.678   6.484   0.594  0.3259 -0.2355  0.6670
  865MOL0     O14056   1.804   6.514   0.544 -0.8107  0.1717  0.3171
  865MOL0     C14057   1.828   6.501   0.404  0.0842  0.6426  0.1560
  865MOL0     C14058   1.965   6.548   0.378 -1.0254 -0.5964  0.1474
  865MOL0     C14059   1.995   6.692   0.351 -0.0297 -0.4999 -0.3976
  865MOL0     C14060   1.964   6.775   0.471 -0.7144 -0.5952  0.4443
  865MOL0     C14061   2.022   6.916   0.461  0.1170 -0.5274 -0.0864
  865MOL0     C14062   1.946   6.999   0.358  0.5285  0.1522 -0.0213
  865MOL0     C14063   1.999   7.141   0.355  0.0701  1.1825  0.2164
  865MOL0     C14064   1.919   7.242   0.272 -0.6450  0.1149  0.3078
  865MOL0     N14065   1.790   7.293   0.328 -0.9253  0.9187  0.4636
  865MOL0     C14066   1.777   7.373   0.442 -0.4869  0.1893 -0.1628
  865MOL0     C14067   1.657   7.417   0.446  0.0848 -0.2610 -0.3869
  865MOL0     C14068   1.593   7.512   0.550  0.0430  0.1624  0.0442
  865MOL0     C14069   1.476   7.443   0.619 -0.3014  0.0179  0.4863
  865MOL0     C14070   1.504   7.336   0.710  0.6787  0.1817 -0.6858
  865MOL0     C14071   1.371   7.280   0.779 -1.3218 -0.7266 -0.6817
  865MOL0     O14072   1.289   7.385   0.842  0.7844  0.2668  1.1681
  865MOL0     C14073   1.157   7.360   0.843 -0.0337  0.9117 -0.5307
  865MOL0     C14074   1.070   7.453   0.792 -0.5398 -0.3132  0.8064
  865MOL0     C14075   0.941   7.431   0.795  0.0229 -0.3155  0.5721
  865MOL0     C14076   0.881   7.319   0.850 -0.8032 -1.0244 -0.4834
  865MOL0     C14077   0.737   7.309   0.860  0.4811  0.1723  0.2056
  865MOL0     O14078   0.661   7.423   0.838 -0.3851  0.4482  0.1937
  865MOL0     C14079   0.535   7.410   0.805 -0.0179  0.4283 -0.0143
  865MOL0     C14080   0.432   7.354   0.885  0.0301 -0.4323 -0.4902
  865MOL0     C14081   0.301   7.345   0.841  0.5444 -0.1481  0.6629
  865MOL0     C14082   0.263   7.395   0.721  0.4591  0.1675  0.0923
  865MOL0     O14083   0.133   7.380   0.689  0.6290  0.3310  0.0951
  865MOL0     C14084   0.066   7.455   0.582  0.2822  0.5373  1.1342
  865MOL0     C14085  -0.054   7.365   0.534 -0.0961 -0.6489 -1.2088
  865MOL0     C14086  -0.171   7.396   0.623 -0.9387  0.2995  0.0752
  865MOL0     C14087  -0.303   7.334   0.570 -0.1154  1.4094 -0.6456
  865MOL0     C14088  -0.390   7.299   0.690  1.0225 -0.8382 -0.1883
  865MOL0     C14089  -0.521   7.226   0.641 -0.2727  1.2854  0.0060
  865MOL0     C14090  -0.603   7.298   0.521  0.0844  0.3921 -1.1376
  865MOL0     C14091  -0.714   7.220   0.470  0.2421 -0.4677  0.3769
  865MOL0    Cl14092  -0.807   7.318   0.359  0.0036  0.3661 -0.1373
  865MOL0     C14093   0.361   7.466   0.643 -0.8556  0.5817 -0.5526
  865MOL0     C14094   0.494   7.469   0.680 -1.0151 -0.1881 -0.9374
  865MOL0     O14095   0.683   7.203   0.889 -0.4750  0.1586 -0.3918
  865MOL0     C14096   0.972   7.231   0.918  0.7561  0.6200  0.0872
  865MOL0     C14097   1.108   7.249   0.905 -0.5369  0.5166 -0.5365
  865MOL0     N14098   1.581   7.357   0.346  0.4190 -0.0387  0.3249
  865MOL0     N14099   1.669   7.287   0.267  0.0396  0.0816  0.3662
  865MOL0     C14100   1.649   6.499   0.722 -0.0051  0.8362  0.1410
  865MOL0     C14101   1.522   6.455   0.769 -0.3691 -0.4525 -0.2177
  865MOL0     C14102   1.080   6.411   0.836 -0.8606 -1.3852 -0.8665
  865MOL0     C14103   1.028   6.296   0.790  0.4862  0.2736  0.5002
  865MOL0     C14104   0.903   6.253   0.823  0.9877 -0.8890 -0.3322
  865MOL0     C14105   0.806   6.337   0.876 -0.4312  0.4811  0.4547
  865MOL0     O14106   0.676   6.290   0.878  0.4371  0.1621  0.0146
  865MOL0     C14107   0.582   6.393   0.854 -0.4851 -0.2655  0.0284
  865MOL0     C14108   0.443   6.333   0.819 -0.3791 -0.4107  0.6425
  865MOL0     C14109   0.336   6.445   0.828 -0.7379 -0.0856  0.2850
  865MOL0     C14110   0.197   6.397   0.789 -0.0386  1.7256  0.5597
  865MOL0     C14111   0.177   6.375   0.640  0.7731 -0.5919 -1.1052
  865MOL0     C14112   0.149   6.368   0.519  1.0526 -0.1306 -0.4596
  865MOL0     C14113   0.848   6.461   0.926 -0.3803  0.5431 -1.0057
  865MOL0     C14114   0.985   6.493   0.908  0.0545 -0.2423 -0.6068
  865MOL0     H14115   1.382   6.387   0.464 -2.9325 -2.5244  2.4575
  865MOL0     H14116   1.584   6.429   0.394  0.7358  0.1206  0.1838
  865MOL0     H14117   1.753   6.564   0.356 -3.3219 -1.8225  1.7934
  865MOL0     H14118   1.822   6.394   0.381  3.6241 -0.2799  2.6565
  865MOL0     H14119   2.004   6.488   0.295  0.7445  1.4354 -0.5911
  865MOL0     H14120   2.026   6.516   0.464 -0.2794 -2.1428 -0.9168
  865MOL0     H14121   1.935   6.734   0.270 -2.0429  0.4169  1.4600
  865MOL0     H14122   2.104   6.693   0.338  0.4223 -0.8681  2.5740
  865MOL0     H14123   1.855   6.778   0.484 -1.3790  0.3646 -3.9197
  865MOL0     H14124   2.011   6.735   0.561  2.3891  1.2250 -0.2242
  865MOL0     H14125   2.125   6.898   0.427  0.4745  0.0582  0.6548
  865MOL0     H14126   2.028   6.965   0.559 -3.4022 -0.8827  0.4428
  865MOL0     H14127   1.843   6.992   0.394  0.6283  1.7215  0.6236
  865MOL0     H14128   1.951   6.953   0.259 -3.2090 -0.1741 -0.2122
  865MOL0     H14129   2.023   7.176   0.456  1.8150 -0.0996  0.3017
  865MOL0     H14130   2.099   7.134   0.310  0.9342 -3.0696  2.2700
  865MOL0     H14131   1.897   7.221   0.167  0.1446  2.8098 -0.4624
  865MOL0     H14132   1.992   7.324   0.272 -0.8418  0.3019  1.2772
  865MOL0     H14133   1.849   7.404   0.518 -0.3224 -1.3265  0.3462
  865MOL0     H14134   1.563   7.606   0.501 -0.2042  0.1577  0.1832
  865MOL0     H14135   1.661   7.549   0.627 -0.2317  1.8853 -0.4837
  865MOL0     H14136   1.405   7.414   0.541 -0.7127  0.3763  0.7234
  865MOL0     H14137   1.431   7.520   0.683  2.3164  0.9719  1.2728
  865MOL0     H14138   1.548   7.256   0.650 -1.3226 -0.1580 -1.7575
  865MOL0     H14139   1.586   7.366   0.777  2.3990 -2.1635 -1.5825
  865MOL0     H14140   1.403   7.209   0.855  0.2348  0.1148 -0.5016
  865MOL0     H14141   1.319   7.224   0.701 -1.8679  1.0013 -1.6254
  865MOL0     H14142   1.113   7.535   0.735 -0.2628 -3.2864 -3.8138
  865MOL0     H14143   0.885   7.499   0.732 -0.0269 -1.5288 -0.7518
  865MOL0     H14144   0.461   7.308   0.978 -3.3711 -0.7370  0.5855
  865MOL0     H14145   0.233   7.290   0.906 -1.7967 -0.4042 -1.8139
  865MOL0     H14146   0.133   7.445   0.496  2.2433  1.4888  2.4680
  865MOL0     H14147   0.017   7.551   0.598 -1.5373  0.2791 -1.9875
  865MOL0     H14148  -0.019   7.262   0.544 -3.2772 -1.6935  0.4567
  865MOL0     H14149  -0.077   7.397   0.432  4.5581  4.4626 -1.1247
  865MOL0     H14150  -0.179   7.505   0.634 -0.0788  0.1468  2.8432
  865MOL0     H14151  -0.141   7.353   0.718  2.9806  1.6082 -0.4016
  865MOL0     H14152  -0.363   7.401   0.508 -0.2766  4.1660  2.2371
  865MOL0     H14153  -0.275   7.245   0.513  1.6000  3.3314 -2.9606
  865MOL0     H14154  -0.420   7.393   0.736  0.9388 -1.1059  0.3111
  865MOL0     H14155  -0.334   7.238   0.762  2.3538 -1.3270 -1.5897
  865MOL0     H14156  -0.588   7.205   0.726 -1.6561 -0.0560 -1.3395
  865MOL0     H14157  -0.490   7.128   0.604 -1.6859  0.7729  0.0963
  865MOL0     H14158  -0.620   7.399   0.560  0.0868  1.1054 -2.8769
  865MOL0     H14159  -0.550   7.323   0.428  0.3709 -1.3638 -1.4750
  865MOL0     H14160  -0.777   7.185   0.552 -2.7236  0.9545 -1.1339
  865MOL0     H14161  -0.674   7.127   0.428  0.7435 -0.1023  0.0352
  865MOL0     H14162   0.325   7.504   0.548  1.0707 -0.1715 -1.6685
  865MOL0     H14163   0.565   7.515   0.612 -1.2651 -1.2791 -1.9869
  865MOL0     H14164   0.931   7.147   0.973 -0.9769  1.6155  0.3832
  865MOL0     H14165   1.169   7.177   0.959 -0.8809 -1.7566 -3.0272
  865MOL0     H14166   1.726   6.534   0.790  3.5779  0.4228 -3.3425
  865MOL0     H14167   1.512   6.455   0.877  0.8968 -0.8743 -0.0801
  865MOL0     H14168   1.090   6.225   0.735 -1.2696  0.9277 -2.5645
  865MOL0     H14169   0.877   6.151   0.794  0.2910 -1.3223  1.6089
  865MOL0     H14170   0.619   6.461   0.776  0.2304 -0.4217  0.2252
  865MOL0     H14171   0.571   6.458   0.941 -3.1108 -0.9312  0.2719
  865MOL0     H14172   0.452   6.279   0.724  1.3009 -1.2814  1.2485
  865MOL0     H14173   0.413   6.257   0.893 -0.3759 -1.9292 -0.8624
  865MOL0     H14174   0.364   6.536   0.774  0.4460 -1.5673 -1.7542
  865MOL0     H14175   0.322   6.475   0.932 -0.4372 -2.1211  0.9663
  865MOL0     H14176   0.167   6.310   0.848 -0.3872  2.5945  1.7050
  865MOL0     H14177   0.126   6.478   0.807 -0.0497  1.8456 -0.0108
  865MOL0     H14178   0.156   6.372   0.413  3.0403 -1.5794 -0.4397
  865MOL0     H14179   0.774   6.529   0.967 -1.8634 -1.0699 -0.8773
  865MOL0     H14180   1.017   6.590   0.946 -0.8450 -0.3987  0.6041
  866MOL0     O14181   5.793   1.770   3.495  0.2982 -0.2140 -0.0717
  866MOL0     C14182   5.800   1.892   3.469 -0.4083  1.1895  0.2450
  866MOL0     O14183   5.753   1.947   3.350 -0.7149  0.0327  0.0680
  866MOL0     C14184   5.656   1.878   3.285 -0.7343  0.4406 -0.6098
  866MOL0     C14185   5.539   1.832   3.355  0.5305 -0.0139 -0.1232
  866MOL0     C14186   5.433   1.765   3.285 -0.3211  0.2701 -0.1194
  866MOL0     C14187   5.435   1.749   3.144 -0.7296 -0.5037 -0.3804
  866MOL0     O14188   5.329   1.687   3.081 -0.4169  0.3368  0.4581
  866MOL0     C14189   5.315   1.732   2.942  0.7065  0.2576  0.3505
  866MOL0     C14190   5.248   1.872   2.937  0.7990  0.5194  0.8278
  866MOL0     C14191   5.154   1.899   2.821 -1.1249 -0.8281 -0.3583
  866MOL0     C14192   5.227   1.954   2.696 -0.2864 -0.5623  0.5900
  866MOL0     C14193   5.149   1.945   2.571  0.6429 -0.1541  0.4524
  866MOL0     C14194   5.226   1.863   2.474 -0.0941  0.2028  0.2544
  866MOL0     C14195   5.137   1.843   2.341  0.1229  0.4557 -0.5950
  866MOL0     C14196   5.025   1.736   2.363  0.7515  0.0339  0.8689
  866MOL0     N14197   5.006   1.684   2.232 -0.3521 -0.2421  0.4115
  866MOL0     C14198   5.101   1.591   2.175  0.1387 -0.6744  0.3112
  866MOL0     C14199   5.074   1.604   2.043  0.0390 -0.4539  0.0700
  866MOL0     C14200   5.138   1.523   1.935  0.5147  1.2119  0.0921
  866MOL0     C14201   5.266   1.582   1.866  0.0031 -0.4307  0.2198
  866MOL0     C14202   5.383   1.581   1.963  0.2866  0.9521  1.8198
  866MOL0     C14203   5.517   1.611   1.898 -0.9662  0.2021  0.6046
  866MOL0     O14204   5.604   1.561   2.004 -0.1301  0.8413 -0.0596
  866MOL0     C14205   5.741   1.566   1.985  0.0758 -0.4795 -0.5259
  866MOL0     C14206   5.789   1.601   1.854  0.1506 -0.2217 -0.2751
  866MOL0     C14207   5.926   1.591   1.833  0.3925 -0.7721  0.4646
  866MOL0     C14208   6.016   1.570   1.940  0.3290  0.4013 -0.4185
  866MOL0     C14209   6.160   1.565   1.919 -0.4167 -0.3557 -0.5010
  866MOL0     O14210   6.244   1.609   2.021  0.6418  0.7490 -0.5715
  866MOL0     C14211   6.378   1.609   1.995  0.4215  0.7112 -0.8616
  866MOL0     C14212   6.467   1.557   2.090  0.4876 -0.1591  0.2887
  866MOL0     C14213   6.607   1.568   2.070 -0.8793  0.3788 -0.7327
  866MOL0     C14214   6.655   1.613   1.943  0.8254 -0.2795  0.0600
  866MOL0     O14215   6.791   1.605   1.898  0.0297 -0.3974  0.2383
  866MOL0     C14216   6.880   1.541   1.997 -0.1436 -0.5187 -0.4450
  866MOL0     C14217   7.023   1.547   1.944  0.0904  0.5441 -0.1327
  866MOL0     C14218   7.061   1.688   1.901 -0.0449  0.4301  0.1885
  866MOL0     C14219   7.214   1.722   1.889  0.4603 -0.2815 -0.1845
  866MOL0     C14220   7.248   1.846   1.808 -0.4123 -0.0456  0.6041
  866MOL0     C14221   7.398   1.867   1.808 -0.6275 -1.0108 -0.4202
  866MOL0     C14222   7.439   2.016   1.744  0.3276  0.9297 -0.3327
  866MOL0     C14223   7.592   2.031   1.763  1.0321  0.1860  0.6638
  866MOL0    Cl14224   7.688   1.976   1.619  0.0690  0.1659 -0.2399
  866MOL0     C14225   6.568   1.670   1.853  0.2848  0.3099  0.0385
  866MOL0     C14226   6.434   1.668   1.880  0.4865 -0.3138  0.1897
  866MOL0     O14227   6.190   1.502   1.817 -0.4148  0.6170  0.4099
  866MOL0     C14228   5.972   1.552   2.071  0.5568 -0.1362  0.0142
  866MOL0     C14229   5.834   1.549   2.088  0.4173  0.8312 -1.0250
  866MOL0     N14230   4.989   1.709   2.021 -0.2810  0.6627  0.0850
  866MOL0     N14231   4.945   1.750   2.129  0.1060  0.2310 -0.4794
  866MOL0     C14232   5.558   1.785   3.077 -0.2119 -0.1241  0.2411
  866MOL0     C14233   5.651   1.865   3.142 -0.1953 -0.0687 -0.0781
  866MOL0     C14234   5.873   1.963   3.564 -0.0442 -0.0402 -0.3278
  866MOL0     C14235   5.973   1.894   3.641  0.0337 -0.4881 -0.8018
  866MOL0     C14236   6.051   1.964   3.729  0.6140  0.7039 -0.4533
  866MOL0     C14237   6.038   2.100   3.753 -0.5295 -0.1887  0.7697
  866MOL0     O14238   6.132   2.143   3.840  0.2568  0.3184 -0.5825
  866MOL0     C14239   6.094   2.260   3.913 -0.1654 -0.9593 -0.0970
  866MOL0     C14240   6.186   2.287   4.033  0.3976  0.4400 -0.1282
  866MOL0     C14241   6.314   2.365   3.989 -0.1912  0.8994 -0.3236
  866MOL0     C14242   6.419   2.380   4.097  0.2703  0.1707 -0.1943
  866MOL0     C14243   6.539   2.449   4.049  0.3046 -0.4198  0.7255
  866MOL0     C14244   6.636   2.508   4.015  0.3832 -0.3280  0.1267
  866MOL0     C14245   5.936   2.174   3.676  0.9094 -0.3551  0.0354
  866MOL0     C14246   5.861   2.105   3.579  0.3617 -0.3511 -0.2706
  866MOL0     H14247   5.526   1.839   3.462 -0.2279 -0.1747 -0.1998
  866MOL0     H14248   5.358   1.719   3.349  0.7741  0.6822  1.5500
  866MOL0     H14249   5.254   1.661   2.885  0.4280  2.6561 -2.5404
  866MOL0     H14250   5.407   1.750   2.886  1.2038  0.8569  1.3398
  866MOL0     H14251   5.315   1.958   2.939 -0.2676  1.3895  0.5504
  866MOL0     H14252   5.194   1.874   3.033 -0.2193  0.0004  0.2821
  866MOL0     H14253   5.078   1.976   2.838  2.3268  3.4329 -1.9787
  866MOL0     H14254   5.113   1.801   2.794 -2.2783 -0.5215  0.2374
  866MOL0     H14255   5.233   2.062   2.707  0.4628 -0.3829 -1.3493
  866MOL0     H14256   5.324   1.905   2.686 -0.7199 -0.9606 -3.2941
  866MOL0     H14257   5.139   2.044   2.525 -2.5933 -0.8599 -0.6598
  866MOL0     H14258   5.052   1.899   2.591  0.4848 -0.0759 -0.1061
  866MOL0     H14259   5.245   1.771   2.530  0.4691 -0.5991 -1.2011
  866MOL0     H14260   5.317   1.917   2.446 -0.4821  0.9548  0.4184
  866MOL0     H14261   5.094   1.936   2.302 -0.4476 -0.3459 -1.9439
  866MOL0     H14262   5.211   1.809   2.268  0.3721  0.2972 -0.2695
  866MOL0     H14263   4.927   1.767   2.400 -1.5477 -0.0563 -4.2826
  866MOL0     H14264   5.067   1.655   2.423  2.8798 -0.1658 -0.7604
  866MOL0     H14265   5.169   1.515   2.211 -0.2977 -3.9341 -4.7360
  866MOL0     H14266   5.072   1.519   1.847 -1.3547  0.5358  1.4477
  866MOL0     H14267   5.168   1.421   1.962  3.4451  0.6502 -4.2157
  866MOL0     H14268   5.253   1.671   1.803 -3.2674 -1.6360 -1.0522
  866MOL0     H14269   5.290   1.504   1.793  0.7852  0.1659 -0.1788
  866MOL0     H14270   5.373   1.653   2.044  0.4277  1.1312  1.6825
  866MOL0     H14271   5.396   1.483   2.009  1.6936  0.3281  0.2238
  866MOL0     H14272   5.523   1.720   1.886 -1.3668  0.2505  0.8008
  866MOL0     H14273   5.536   1.558   1.805 -2.8198 -0.4815  0.5636
  866MOL0     H14274   5.722   1.646   1.782 -3.0882 -2.5754  1.0387
  866MOL0     H14275   5.964   1.622   1.737 -1.2936 -0.3764 -0.1022
  866MOL0     H14276   6.416   1.509   2.173 -2.2166  1.6597 -0.2035
  866MOL0     H14277   6.673   1.524   2.144 -0.5146 -2.0376 -2.3940
  866MOL0     H14278   6.850   1.439   2.023 -0.4197 -0.7270 -1.5284
  866MOL0     H14279   6.879   1.602   2.088 -4.3123  0.2272 -0.7955
  866MOL0     H14280   7.047   1.483   1.858 -2.2783  0.8635 -1.0927
  866MOL0     H14281   7.092   1.516   2.023  0.3687  2.0477  0.2335
  866MOL0     H14282   7.024   1.764   1.970  1.8323  1.3190  0.2925
  866MOL0     H14283   7.016   1.705   1.803 -0.1870  2.0354  0.5007
  866MOL0     H14284   7.261   1.718   1.987  2.0775 -1.3644 -0.9608
  866MOL0     H14285   7.248   1.633   1.835 -1.5076 -1.3233  0.1746
  866MOL0     H14286   7.192   1.933   1.840 -1.3675  0.1007 -1.2929
  866MOL0     H14287   7.217   1.830   1.704  0.4246  0.3785  0.2801
  866MOL0     H14288   7.447   1.788   1.751 -2.5510 -0.7899 -2.5124
  866MOL0     H14289   7.431   1.874   1.912 -0.7154 -0.1800 -0.4399
  866MOL0     H14290   7.421   2.018   1.636  4.0424  2.4401 -1.0610
  866MOL0     H14291   7.388   2.102   1.789  0.9251  1.3678 -0.4785
  866MOL0     H14292   7.620   1.984   1.858 -3.9666 -2.9900  0.9549
  866MOL0     H14293   7.616   2.135   1.785 -1.4640  0.0835  4.9621
  866MOL0     H14294   6.605   1.713   1.761 -0.8849  0.5011 -0.3596
  866MOL0     H14295   6.368   1.726   1.817  0.6497 -0.1542  0.1646
  866MOL0     H14296   6.049   1.550   2.147  3.1510 -4.1728 -2.3593
  866MOL0     H14297   5.794   1.544   2.189  0.9443  1.7007 -0.7604
  866MOL0     H14298   5.591   1.753   2.978  2.6891 -0.2257  1.1372
  866MOL0     H14299   5.741   1.895   3.088  2.5770 -2.6210  2.7338
  866MOL0     H14300   5.988   1.786   3.638 -0.4952 -0.5879 -0.2597
  866MOL0     H14301   6.128   1.916   3.788 -0.7535  0.6202  1.3505
  866MOL0     H14302   5.990   2.257   3.949 -0.0266 -1.0573  0.3029
  866MOL0     H14303   6.091   2.350   3.851 -0.6994  2.8803  4.8194
  866MOL0     H14304   6.134   2.350   4.106 -1.1734 -0.1154 -0.7264
  866MOL0     H14305   6.212   2.195   4.087  0.5325  1.0313  0.8389
  866MOL0     H14306   6.284   2.463   3.953 -0.9378  0.4493 -0.9513
  866MOL0     H14307   6.360   2.319   3.901  1.2324 -1.5525  1.5496
  866MOL0     H14308   6.366   2.439   4.172 -1.9864 -0.9818 -0.7876
  866MOL0     H14309   6.443   2.280   4.134  0.3073  0.3126  0.1728
  866MOL0     H14310   6.726   2.551   3.975  0.1835  1.3675  1.3817
  866MOL0     H14311   5.931   2.282   3.666 -1.2850 -0.3774  0.4816
  866MOL0     H14312   5.798   2.158   3.508  2.2084  0.2471 -1.5445
  867MOL0     O14313   6.727   7.901  10.398  0.8104  0.0483  0.2971
  867MOL0     C14314   6.768   8.006  10.450  1.2373  0.0227 -0.4141
  867MOL0     O14315   6.691   8.120  10.486 -0.1212  0.2911  0.0983
  867MOL0     C14316   6.553   8.125  10.479  0.4977  0.2667 -0.2539
  867MOL0     C14317   6.488   8.240  10.520 -0.0817 -0.7335 -0.6499
  867MOL0     C14318   6.350   8.262  10.506 -0.3810  0.2109 -0.5665
  867MOL0     C14319   6.266   8.153  10.471 -0.1191 -1.6091 -0.6040
  867MOL0     O14320   6.132   8.179  10.473  0.8422 -0.5411  0.4364
  867MOL0     C14321   6.053   8.059  10.454 -0.2822  0.7364 -0.6922
  867MOL0     C14322   5.910   8.086  10.422  0.0247  0.0897  1.1275
  867MOL0     C14323   5.811   7.966  10.408 -0.4751 -0.1911 -0.9364
  867MOL0     C14324   5.780   7.908  10.541 -0.4343 -0.6891 -0.0525
  867MOL0     C14325   5.637   7.860  10.537 -1.0885 -0.4875  0.1859
  867MOL0     C14326   5.605   7.790  10.675 -0.2236  0.2948  0.6308
  867MOL0     C14327   5.455   7.772  10.706  0.5416  0.0181 -0.0668
  867MOL0     C14328   5.365   7.899  10.720 -0.7586 -1.0780  0.0910
  867MOL0     N14329   5.230   7.862  10.737  0.0359 -0.3034  0.3976
  867MOL0     C14330   5.186   7.860  10.868  0.0970 -0.4391  0.4595
  867MOL0     C14331   5.053   7.856  10.849 -0.5070 -0.2333 -0.4776
  867MOL0     C14332   4.951   7.865  10.961 -0.4954 -0.3568  1.0435
  867MOL0     C14333   4.865   7.740  10.982  0.2818 -0.0682 -0.6969
  867MOL0     C14334   4.935   7.627  11.058 -0.4022 -0.4187 -0.6105
  867MOL0     C14335   4.850   7.504  11.075 -0.5650  0.9435 -0.0199
  867MOL0     O14336   4.856   7.435  10.944  1.0023  0.9653 -0.4643
  867MOL0     C14337   4.749   7.340  10.927 -0.5564 -0.0237 -0.6009
  867MOL0     C14338   4.733   7.220  11.001 -0.4671  0.1804 -0.0171
  867MOL0     C14339   4.617   7.145  10.993  0.3454  0.1403  0.5456
  867MOL0     C14340   4.514   7.198  10.909 -1.0822 -0.0868  0.5712
  867MOL0     C14341   4.378   7.136  10.904  0.8112  0.3991 -0.2749
  867MOL0     O14342   4.283   7.204  10.832  0.2471  0.9202  0.9379
  867MOL0     C14343   4.148   7.180  10.814 -0.8157  0.6442  0.1055
  867MOL0     C14344   4.079   7.275  10.733  0.8821 -0.4230  0.3645
  867MOL0     C14345   3.939   7.267  10.712 -0.1217 -0.4260 -0.0765
  867MOL0     C14346   3.871   7.160  10.776 -1.3771 -0.5917  0.6996
  867MOL0     O14347   3.740   7.159  10.767 -0.5014  0.1956 -0.8137
  867MOL0     C14348   3.666   7.257  10.848  0.4331 -0.0219 -0.4599
  867MOL0     C14349   3.672   7.219  10.997  0.2608  0.3029 -0.2238
  867MOL0     C14350   3.551   7.286  11.068  0.0824 -0.1369 -0.2227
  867MOL0     C14351   3.573   7.296  11.215  0.3551  0.2171 -0.5275
  867MOL0     C14352   3.460   7.389  11.276 -0.1145  0.2311 -0.8778
  867MOL0     C14353   3.486   7.404  11.423  0.3980 -0.0180 -0.3435
  867MOL0     C14354   3.376   7.491  11.499 -0.5990 -0.2606  0.5324
  867MOL0     C14355   3.356   7.635  11.460  0.1852  0.8741 -0.2648
  867MOL0    Cl14356   3.502   7.722  11.428  0.2487  0.0718 -0.3013
  867MOL0     C14357   3.937   7.061  10.846 -0.6635  0.1482 -0.3842
  867MOL0     C14358   4.079   7.070  10.869  0.6688  0.0845  0.6024
  867MOL0     O14359   4.350   7.037  10.971 -0.7887  0.0150 -0.1009
  867MOL0     C14360   4.533   7.308  10.824  0.0251 -0.1995 -0.2460
  867MOL0     C14361   4.653   7.384  10.841  0.4539  0.0001 -0.2439
  867MOL0     N14362   5.025   7.854  10.716 -0.1910 -0.7502  0.3532
  867MOL0     N14363   5.130   7.874  10.645 -1.0420 -0.5045  0.1801
  867MOL0     C14364   6.324   8.033  10.440 -0.2920  1.3536  0.3266
  867MOL0     C14365   6.467   8.024  10.440 -0.0854 -0.2020  0.3572
  867MOL0     C14366   6.908   8.021  10.501  0.0579 -0.8672  0.9109
  867MOL0     C14367   6.942   8.133  10.574  0.7183  0.0095  0.4602
  867MOL0     C14368   7.074   8.162  10.612 -0.2675 -1.1552  0.6328
  867MOL0     C14369   7.173   8.071  10.580 -0.6909  0.8915  0.9522
  867MOL0     O14370   7.300   8.104  10.629  0.7441 -0.2033  0.2521
  867MOL0     C14371   7.404   8.003  10.631 -0.0144  0.4055  0.6473
  867MOL0     C14372   7.488   8.011  10.750  0.4899  1.3150  0.7857
  867MOL0     C14373   7.619   7.926  10.750 -0.2766  0.3039  0.3411
  867MOL0     C14374   7.598   7.772  10.762  0.8451 -0.1103  0.7686
  867MOL0     C14375   7.514   7.728  10.872  0.3820 -0.4536 -0.3667
  867MOL0     C14376   7.472   7.675  10.978  0.1788  0.3760  0.6879
  867MOL0     C14377   7.138   7.957  10.501 -0.5991 -1.0176  0.0816
  867MOL0     C14378   7.012   7.936  10.459 -0.9029 -0.5427 -0.0187
  867MOL0     H14379   6.546   8.327  10.549  1.5633 -1.7534 -0.7203
  867MOL0     H14380   6.310   8.363  10.507 -0.2969  0.3044  2.4761
  867MOL0     H14381   6.075   7.996  10.541  4.8033  1.4266 -1.1521
  867MOL0     H14382   6.094   8.012  10.364  1.7197 -0.0344  0.5474
  867MOL0     H14383   5.915   8.133  10.323 -1.8312  0.5154  1.1828
  867MOL0     H14384   5.858   8.163  10.480  0.6763  3.4524 -2.3554
  867MOL0     H14385   5.857   7.889  10.345  0.1231 -0.7115  0.0908
  867MOL0     H14386   5.726   8.008  10.355  0.3427  1.5871 -0.8894
  867MOL0     H14387   5.857   7.830  10.541  0.1510 -0.2084 -2.5807
  867MOL0     H14388   5.800   7.979  10.622 -1.8216  0.2058 -0.4498
  867MOL0     H14389   5.635   7.788  10.455 -1.5855 -0.1143 -0.1357
  867MOL0     H14390   5.565   7.942  10.526 -1.0840 -0.5700 -0.5151
  867MOL0     H14391   5.637   7.860  10.752  1.2757  0.6639 -0.2846
  867MOL0     H14392   5.651   7.691  10.668  2.1006  1.2456  1.4287
  867MOL0     H14393   5.405   7.712  10.629 -1.8824  0.4262  1.1256
  867MOL0     H14394   5.456   7.715  10.799 -0.0483 -0.2581 -0.2283
  867MOL0     H14395   5.374   7.971  10.638 -1.3913  0.0089  0.9449
  867MOL0     H14396   5.410   7.959  10.800  0.6284 -1.3074 -0.4890
  867MOL0     H14397   5.248   7.878  10.955  1.6592  2.2977 -1.0334
  867MOL0     H14398   4.886   7.951  10.944  0.4284  0.7545  2.8208
  867MOL0     H14399   4.998   7.885  11.058 -1.7270 -2.1966  2.0824
  867MOL0     H14400   4.820   7.709  10.887  0.4453  1.3603 -1.2743
  867MOL0     H14401   4.783   7.776  11.044  1.8802  3.1061 -0.2122
  867MOL0     H14402   5.031   7.617  11.006 -0.4965 -3.2479 -0.4117
  867MOL0     H14403   4.967   7.659  11.158 -0.6479  1.5565 -1.1245
  867MOL0     H14404   4.749   7.531  11.107 -1.1676  1.3783 -2.1411
  867MOL0     H14405   4.896   7.438  11.150  0.4747 -1.8371 -2.8894
  867MOL0     H14406   4.802   7.191  11.080 -1.9214  0.8548  1.5661
  867MOL0     H14407   4.593   7.062  11.058 -0.5681  0.0135  0.0490
  867MOL0     H14408   4.123   7.371  10.706  1.5484 -1.2514 -1.6856
  867MOL0     H14409   3.879   7.338  10.657 -1.2129 -1.4140 -0.2017
  867MOL0     H14410   3.563   7.247  10.813 -0.5798  1.8935  1.6324
  867MOL0     H14411   3.695   7.360  10.826 -2.0023  0.7445 -0.4276
  867MOL0     H14412   3.763   7.262  11.040  0.0524  1.0654 -0.5231
  867MOL0     H14413   3.669   7.110  11.006 -4.3317  0.2609  0.6023
  867MOL0     H14414   3.459   7.227  11.056  1.2867 -2.6715  1.9614
  867MOL0     H14415   3.519   7.384  11.031 -1.7430  0.6144  2.9554
  867MOL0     H14416   3.569   7.194  11.255 -2.4448  0.3452 -0.2619
  867MOL0     H14417   3.669   7.346  11.233 -0.6014  1.8476  0.2596
  867MOL0     H14418   3.361   7.344  11.273  0.4379 -1.0236 -0.9919
  867MOL0     H14419   3.464   7.488  11.229 -0.9916  0.0310 -1.3851
  867MOL0     H14420   3.584   7.453  11.435 -0.1119  0.3932  3.5218
  867MOL0     H14421   3.494   7.307  11.472 -1.4014  0.2770  0.6216
  867MOL0     H14422   3.277   7.445  11.493 -0.3465 -0.9355  1.3647
  867MOL0     H14423   3.402   7.481  11.605 -1.0107 -2.9320  0.4393
  867MOL0     H14424   3.312   7.682  11.548  1.8379 -1.0546  1.6906
  867MOL0     H14425   3.297   7.643  11.368  0.1691  2.4076 -0.1400
  867MOL0     H14426   3.888   6.980  10.900  1.1386  0.9142  2.6865
  867MOL0     H14427   4.117   6.992  10.933 -2.7514 -1.0108  1.5100
  867MOL0     H14428   4.449   7.344  10.765 -3.6675  1.1241  5.1693
  867MOL0     H14429   4.664   7.485  10.803 -2.9740  0.8292  0.5859
  867MOL0     H14430   6.264   7.950  10.406  0.7115  0.2826  1.0795
  867MOL0     H14431   6.491   7.923  10.407 -3.7788 -0.6896 -1.3225
  867MOL0     H14432   6.861   8.199  10.604 -0.1257 -1.6117  1.9014
  867MOL0     H14433   7.091   8.254  10.667 -1.8449 -1.7955  2.2662
  867MOL0     H14434   7.472   8.014  10.546 -0.5037  0.6656  0.2856
  867MOL0     H14435   7.355   7.905  10.626 -2.4361  1.4324  2.2749
  867MOL0     H14436   7.524   8.114  10.765 -1.4227  1.9677  1.1394
  867MOL0     H14437   7.421   8.009  10.836  0.3023  1.5340  0.6467
  867MOL0     H14438   7.683   7.966  10.829 -0.1257 -0.6861  0.7342
  867MOL0     H14439   7.674   7.950  10.659  2.0159 -1.7056  1.0958
  867MOL0     H14440   7.540   7.736  10.676 -3.5041 -0.1412  3.4085
  867MOL0     H14441   7.699   7.729  10.762  0.9639  0.1490  0.0559
  867MOL0     H14442   7.432   7.627  11.065  1.5753  2.1777  2.4193
  867MOL0     H14443   7.207   7.884  10.459 -1.7066 -0.6522 -2.6197
  867MOL0     H14444   6.995   7.849  10.395  2.0395 -1.2609  0.0384
  868MOL0     O14445  10.850   3.513   3.645 -0.3306 -0.4348 -0.2102
  868MOL0     C14446  10.860   3.447   3.541  0.1309 -0.6410  0.4498
  868MOL0     O14447  10.761   3.378   3.485 -0.3703  0.6359  0.3620
  868MOL0     C14448  10.630   3.382   3.526 -0.7081 -1.1585 -0.1372
  868MOL0     C14449  10.568   3.462   3.627  0.4774  0.2185 -0.5731
  868MOL0     C14450  10.438   3.445   3.667 -0.5058 -0.5881 -0.2531
  868MOL0     C14451  10.355   3.345   3.613  0.4557  0.0342 -0.2758
  868MOL0     O14452  10.226   3.318   3.650  0.5333  1.1481 -0.0150
  868MOL0     C14453  10.151   3.406   3.737 -0.1529 -0.0819 -0.0789
  868MOL0     C14454  10.010   3.340   3.737  0.2923  0.2147  0.4249
  868MOL0     C14455  10.014   3.209   3.816 -0.4133  0.8734  0.0410
  868MOL0     C14456   9.873   3.146   3.806 -0.0359 -0.4221 -1.0747
  868MOL0     C14457   9.832   3.085   3.669  0.4121 -0.2143 -0.4975
  868MOL0     C14458   9.747   2.962   3.699  0.3288 -0.2271  0.0143
  868MOL0     C14459   9.690   2.926   3.558  0.0246 -0.6819 -0.7540
  868MOL0     C14460   9.603   2.803   3.558 -0.4610 -0.2796  0.7857
  868MOL0     N14461   9.552   2.763   3.425  0.2626 -0.4433 -0.0602
  868MOL0     C14462   9.625   2.735   3.314 -0.6466 -0.1371 -0.6207
  868MOL0     C14463   9.534   2.694   3.225 -0.6234 -0.5924 -0.1252
  868MOL0     C14464   9.567   2.624   3.100 -0.3989  0.0368 -0.2503
  868MOL0     C14465   9.545   2.471   3.109 -0.6392 -0.5037  0.0578
  868MOL0     C14466   9.619   2.400   2.998 -0.0422  0.6106 -0.1443
  868MOL0     C14467   9.556   2.256   3.012 -0.5602 -0.1386  1.0190
  868MOL0     O14468   9.625   2.171   2.902 -0.6091  0.4791 -0.5913
  868MOL0     C14469   9.572   2.166   2.779  1.1966 -0.1801  0.9628
  868MOL0     C14470   9.665   2.142   2.678  1.1830  0.4853 -0.9429
  868MOL0     C14471   9.628   2.139   2.541 -0.5463 -0.1011  0.3267
  868MOL0     C14472   9.491   2.156   2.514 -0.0626 -0.4041  0.3620
  868MOL0     C14473   9.435   2.143   2.376 -0.2526 -0.2634 -0.1937
  868MOL0     O14474   9.519   2.099   2.283  0.1815  0.0484  0.2090
  868MOL0     C14475   9.481   2.071   2.155  0.4926  0.1539  0.4487
  868MOL0     C14476   9.572   2.087   2.051  0.5426 -1.4605  0.8811
  868MOL0     C14477   9.542   2.048   1.924 -0.1915  0.0070 -0.1679
  868MOL0     C14478   9.420   1.990   1.888 -0.0929  0.6180  0.3498
  868MOL0     O14479   9.393   1.965   1.752  0.3172 -0.2716  0.2381
  868MOL0     C14480   9.317   1.851   1.723 -1.4516 -0.1982 -0.6424
  868MOL0     C14481   9.280   1.844   1.569 -0.1117  0.6348 -0.8627
  868MOL0     C14482   9.168   1.739   1.553 -0.0461 -0.2061 -0.3813
  868MOL0     C14483   9.117   1.717   1.409 -0.2490  0.0742 -1.0033
  868MOL0     C14484   9.003   1.610   1.390  0.1640 -0.7915 -0.6500
  868MOL0     C14485   8.927   1.603   1.256 -0.1523  0.8862  0.0446
  868MOL0     C14486   8.810   1.505   1.288 -0.0651 -0.2925 -0.1382
  868MOL0     C14487   8.724   1.464   1.174  0.1802 -0.5903 -0.9144
  868MOL0    Cl14488   8.642   1.609   1.109  0.4344  0.1072  0.0731
  868MOL0     C14489   9.327   1.953   1.995  0.9146  0.5429  0.0756
  868MOL0     C14490   9.369   1.994   2.121  0.0554  0.5876 -0.2377
  868MOL0     O14491   9.315   2.162   2.364  1.1125 -1.1434 -0.4894
  868MOL0     C14492   9.397   2.180   2.614 -0.0345  0.9300 -0.5913
  868MOL0     C14493   9.437   2.192   2.746 -0.6600 -0.1549  0.1746
  868MOL0     N14494   9.412   2.680   3.290  0.7627  0.4870 -0.0130
  868MOL0     N14495   9.427   2.722   3.413 -0.6222  0.2340 -0.0398
  868MOL0     C14496  10.412   3.277   3.510  0.0835  0.0359 -0.2404
  868MOL0     C14497  10.546   3.290   3.465 -0.2517  0.4426 -0.6627
  868MOL0     C14498  10.988   3.433   3.486  0.8242  0.5715  0.7577
  868MOL0     C14499  11.024   3.301   3.432 -0.1102 -1.0550 -0.2458
  868MOL0     C14500  11.159   3.282   3.402  0.1113  0.1195  0.1740
  868MOL0     C14501  11.254   3.373   3.407 -0.4945 -0.5007  0.1082
  868MOL0     O14502  11.382   3.318   3.395  0.6969  0.4837 -0.2604
  868MOL0     C14503  11.483   3.419   3.420 -0.3043  0.7308 -0.3075
  868MOL0     C14504  11.617   3.370   3.361  0.6110  0.4772  0.5251
  868MOL0     C14505  11.731   3.454   3.391  0.1004  0.7324  0.0481
  868MOL0     C14506  11.732   3.596   3.327 -0.0570  0.7033 -0.5352
  868MOL0     C14507  11.709   3.606   3.179  0.1684  0.0755 -0.2828
  868MOL0     C14508  11.701   3.587   3.062 -0.2445 -0.2012  0.2256
  868MOL0     C14509  11.225   3.503   3.462  0.6450 -0.3352 -0.4239
  868MOL0     C14510  11.088   3.532   3.492  0.3028  0.3363 -0.9100
  868MOL0     H14511  10.625   3.540   3.677 -1.8844  2.4005 -1.0713
  868MOL0     H14512  10.402   3.515   3.742  2.0130  1.5613 -0.9341
  868MOL0     H14513  10.136   3.508   3.699  1.9577 -1.2854 -4.8805
  868MOL0     H14514  10.196   3.405   3.837  0.0849  1.2364 -0.1524
  868MOL0     H14515   9.980   3.337   3.632 -0.6277  0.6305  0.6654
  868MOL0     H14516   9.953   3.423   3.780  0.9809  1.9049 -1.7098
  868MOL0     H14517  10.053   3.226   3.916  0.7970 -1.3659  0.0204
  868MOL0     H14518  10.086   3.143   3.767 -3.8125 -1.9571 -1.5995
  868MOL0     H14519   9.871   3.067   3.882  3.0773  1.0149  0.7405
  868MOL0     H14520   9.801   3.223   3.834  4.1253  3.2439  0.7691
  868MOL0     H14521   9.918   3.046   3.614 -1.2309 -0.3498 -3.1481
  868MOL0     H14522   9.778   3.161   3.611  0.6711  0.8328  0.5864
  868MOL0     H14523   9.670   2.966   3.776  0.9445 -1.5455  0.7401
  868MOL0     H14524   9.817   2.888   3.739 -3.1625 -1.8258  3.8427
  868MOL0     H14525   9.632   3.011   3.523  1.9538  0.7854 -0.5506
  868MOL0     H14526   9.777   2.917   3.491  1.6363 -1.1479  1.2766
  868MOL0     H14527   9.523   2.802   3.633 -0.1924 -3.5319  1.1911
  868MOL0     H14528   9.662   2.718   3.593  0.5414 -1.3087 -2.9370
  868MOL0     H14529   9.732   2.748   3.305 -0.8851  4.4725  0.5774
  868MOL0     H14530   9.665   2.662   3.069  0.6135 -1.0476  1.4244
  868MOL0     H14531   9.490   2.650   3.028 -2.0204 -0.3925  1.2470
  868MOL0     H14532   9.437   2.451   3.106 -1.0010  0.6708  2.4710
  868MOL0     H14533   9.572   2.446   3.212 -1.1512  0.3346  0.4082
  868MOL0     H14534   9.598   2.446   2.901 -3.9737  0.4177  0.4355
  868MOL0     H14535   9.726   2.385   3.013 -0.0633 -3.7978 -2.6698
  868MOL0     H14536   9.449   2.267   2.996 -0.3414  0.4323 -0.2043
  868MOL0     H14537   9.571   2.208   3.109  1.3998  0.5732  1.1128
  868MOL0     H14538   9.772   2.134   2.694  0.8023 -0.6389  1.3800
  868MOL0     H14539   9.711   2.127   2.472 -0.3847 -0.8787  0.6513
  868MOL0     H14540   9.656   2.154   2.061 -0.1192 -0.0328 -2.1517
  868MOL0     H14541   9.614   2.077   1.848  0.0288  0.4089  0.1894
  868MOL0     H14542   9.220   1.864   1.772 -1.8280  1.1511 -1.6801
  868MOL0     H14543   9.355   1.753   1.751  2.2164  1.2737  0.1928
  868MOL0     H14544   9.365   1.810   1.509 -0.1281  3.0729 -2.4262
  868MOL0     H14545   9.260   1.947   1.537  0.6673  0.3953 -2.1820
  868MOL0     H14546   9.077   1.763   1.610 -1.6924 -3.9458 -1.1787
  868MOL0     H14547   9.208   1.643   1.588  1.5359  0.4985 -0.1481
  868MOL0     H14548   9.079   1.814   1.378 -0.5625  0.2310 -0.1514
  868MOL0     H14549   9.203   1.697   1.343  2.6149  2.7537  1.5700
  868MOL0     H14550   8.927   1.626   1.467  0.2689 -3.3018  0.0521
  868MOL0     H14551   9.048   1.512   1.404 -0.3222 -1.2696 -2.2225
  868MOL0     H14552   8.993   1.553   1.184 -0.4898 -1.1934  1.1025
  868MOL0     H14553   8.888   1.698   1.218 -1.8622 -0.6099 -2.1362
  868MOL0     H14554   8.859   1.413   1.318  1.0769  1.0729  2.5484
  868MOL0     H14555   8.743   1.547   1.363  0.5896  1.3190 -0.4093
  868MOL0     H14556   8.647   1.396   1.213  0.7428 -1.5379 -1.4221
  868MOL0     H14557   8.771   1.411   1.091 -0.1905 -0.8730 -0.9458
  868MOL0     H14558   9.243   1.889   1.975  3.0380 -2.0244 -1.2996
  868MOL0     H14559   9.312   1.954   2.204  1.1650 -1.6020 -0.4671
  868MOL0     H14560   9.295   2.212   2.593 -0.5771 -0.5904 -0.3571
  868MOL0     H14561   9.359   2.232   2.809 -1.1710 -0.7329 -0.0774
  868MOL0     H14562  10.347   3.209   3.455  0.0798 -0.5616  0.4764
  868MOL0     H14563  10.583   3.236   3.379  1.6785  0.3942  0.1506
  868MOL0     H14564  10.944   3.228   3.428  0.5181 -1.7683  0.1302
  868MOL0     H14565  11.197   3.188   3.363 -1.7979  0.2494 -2.2875
  868MOL0     H14566  11.490   3.456   3.522 -0.6741  1.4703 -0.5392
  868MOL0     H14567  11.450   3.505   3.360  0.9899  0.9196 -0.7941
  868MOL0     H14568  11.648   3.275   3.406  0.4210 -0.6220 -1.5262
  868MOL0     H14569  11.604   3.348   3.255 -2.0538  1.7226  0.5253
  868MOL0     H14570  11.820   3.399   3.360 -1.3131 -1.1188 -1.0010
  868MOL0     H14571  11.732   3.466   3.500  0.4540 -1.1955  0.3007
  868MOL0     H14572  11.661   3.668   3.368  0.5681  1.3074 -0.4928
  868MOL0     H14573  11.828   3.636   3.360  0.9228 -0.6770 -1.6077
  868MOL0     H14574  11.665   3.578   2.962  0.7879 -2.8840  0.0025
  868MOL0     H14575  11.302   3.579   3.462  0.9649 -0.6022 -2.8641
  868MOL0     H14576  11.052   3.631   3.515 -0.2332 -0.2064  0.7223
  869MOL0     O14577   8.482   8.979   8.812  0.7189 -0.6356 -0.0615
  869MOL0     C14578   8.581   8.988   8.741 -0.1612  0.3894 -0.4953
  869MOL0     O14579   8.577   9.032   8.611  0.7034 -0.1105 -0.0452
  869MOL0     C14580   8.448   9.062   8.559 -0.4660  0.4072  0.4228
  869MOL0     C14581   8.419   9.188   8.506 -0.4427 -0.3707  0.5709
  869MOL0     C14582   8.289   9.222   8.465  0.1165  0.4575 -0.3576
  869MOL0     C14583   8.182   9.125   8.475 -0.4416 -0.7698 -0.3056
  869MOL0     O14584   8.052   9.150   8.445 -0.2588 -0.4075  0.9700
  869MOL0     C14585   8.016   9.279   8.395  0.1671  0.0910 -0.1760
  869MOL0     C14586   7.867   9.280   8.358  0.1712  0.1151 -0.4583
  869MOL0     C14587   7.809   9.419   8.320  0.1150 -0.0338  0.7532
  869MOL0     C14588   7.668   9.396   8.246 -0.4300 -0.0220  0.7460
  869MOL0     C14589   7.611   9.530   8.182 -0.5760 -0.4479 -0.2256
  869MOL0     C14590   7.500   9.490   8.090 -0.7496 -0.2911  0.1850
  869MOL0     C14591   7.423   9.617   8.034 -0.1375  0.3268  0.0255
  869MOL0     C14592   7.328   9.575   7.921 -0.5867  0.1585  0.0948
  869MOL0     N14593   7.239   9.675   7.865 -0.1147  0.1108 -0.2759
  869MOL0     C14594   7.117   9.713   7.916  0.0045  0.3998  0.0127
  869MOL0     C14595   7.069   9.808   7.835 -0.0115  0.0494 -0.5431
  869MOL0     C14596   6.938   9.876   7.850  0.5222 -0.1173 -0.2594
  869MOL0     C14597   6.872   9.933   7.724 -0.1676  0.0852  0.2310
  869MOL0     C14598   6.841  10.090   7.738 -0.8941 -0.2448  0.3099
  869MOL0     C14599   6.801  10.153   7.602 -0.2890  0.0627 -0.1900
  869MOL0     O14600   6.682  10.104   7.555 -1.1377 -0.1298  0.3222
  869MOL0     C14601   6.563  10.178   7.558  0.2070 -0.1934 -0.0555
  869MOL0     C14602   6.532  10.234   7.679 -0.5317  0.0377 -1.0398
  869MOL0     C14603   6.416  10.311   7.695  0.0309  0.7945  0.4141
  869MOL0     C14604   6.340  10.343   7.580  0.6225 -0.1663 -0.5701
  869MOL0     C14605   6.225  10.432   7.571  0.0046 -0.0371 -0.2700
  869MOL0     O14606   6.164  10.472   7.455 -0.8798  0.0723  0.8360
  869MOL0     C14607   6.057  10.562   7.437 -0.7397  0.7288 -0.2182
  869MOL0     C14608   5.965  10.535   7.339 -0.9733  0.6737  0.4503
  869MOL0     C14609   5.844  10.610   7.314 -0.4386  0.0269 -0.1631
  869MOL0     C14610   5.818  10.715   7.399  0.6386  0.0071  0.2851
  869MOL0     O14611   5.710  10.803   7.377 -0.0811 -0.1697 -0.6595
  869MOL0     C14612   5.635  10.865   7.488 -0.4249  0.6336 -0.2761
  869MOL0     C14613   5.591  11.007   7.444  1.2286  1.2568 -0.0273
  869MOL0     C14614   5.478  10.992   7.345 -0.1581 -0.4476  0.6810
  869MOL0     C14615   5.339  10.948   7.402  0.3280  0.3348 -0.0560
  869MOL0     C14616   5.248  10.942   7.273  0.0020  0.2888  0.5720
  869MOL0     C14617   5.105  10.953   7.324  2.1564  0.4228  0.0735
  869MOL0     C14618   5.012  10.936   7.195 -0.1003  0.0559  0.4907
  869MOL0     C14619   4.869  10.925   7.245 -0.4166 -0.8014 -0.2076
  869MOL0    Cl14620   4.811  11.066   7.356 -0.1999 -0.2438  0.7299
  869MOL0     C14621   5.904  10.740   7.505  0.3987 -0.5987  0.3166
  869MOL0     C14622   6.018  10.668   7.518 -0.2348  0.4047  0.1261
  869MOL0     O14623   6.182  10.478   7.677 -0.2028 -0.2258 -0.1107
  869MOL0     C14624   6.381  10.287   7.453 -0.9159  0.9169 -1.1010
  869MOL0     C14625   6.491  10.201   7.445  0.0839 -0.6917 -0.7820
  869MOL0     N14626   7.165   9.827   7.736  0.3007 -0.6952  0.2955
  869MOL0     N14627   7.256   9.748   7.747 -0.7826  0.7106 -0.2348
  869MOL0     C14628   8.202   9.004   8.525 -0.0104 -0.1384 -0.2531
  869MOL0     C14629   8.341   8.967   8.563  0.0130  0.3077  0.0485
  869MOL0     C14630   8.709   8.981   8.814  0.7270  0.6096  0.0947
  869MOL0     C14631   8.725   8.948   8.953  0.2094  0.4895 -0.1083
  869MOL0     C14632   8.854   8.942   9.001 -0.0072 -0.1863 -0.2800
  869MOL0     C14633   8.970   8.954   8.922  0.4315 -0.1231  0.2865
  869MOL0     O14634   9.097   8.946   8.989  0.4719  0.6520 -0.4393
  869MOL0     C14635   9.211   8.995   8.916 -0.4757 -0.1821  0.1146
  869MOL0     C14636   9.344   9.012   8.982 -0.1422  0.2289 -0.4773
  869MOL0     C14637   9.352   9.100   9.113 -0.2408  0.3229 -0.3332
  869MOL0     C14638   9.490   9.091   9.177 -0.3109  0.8803  0.0547
  869MOL0     C14639   9.506   9.177   9.294 -0.5591 -0.5532  0.0177
  869MOL0     C14640   9.499   9.226   9.404 -1.5153 -0.1350 -1.0242
  869MOL0     C14641   8.949   8.985   8.786 -1.0891 -0.2580  0.5845
  869MOL0     C14642   8.823   8.999   8.731 -0.7293  0.3754  0.2287
  869MOL0     H14643   8.497   9.262   8.514 -2.0635  1.6592 -1.0553
  869MOL0     H14644   8.273   9.316   8.413 -0.3869  1.2547  1.1860
  869MOL0     H14645   8.079   9.301   8.308 -0.1124  0.3462 -0.3164
  869MOL0     H14646   8.034   9.348   8.479  0.0901 -0.2820  0.1492
  869MOL0     H14647   7.812   9.235   8.441 -0.9485  3.3272  0.7059
  869MOL0     H14648   7.849   9.224   8.265 -0.3274  3.0802 -2.2904
  869MOL0     H14649   7.870   9.478   8.251 -1.1593  2.0080  1.2697
  869MOL0     H14650   7.813   9.475   8.413  4.2189 -0.5459  1.0511
  869MOL0     H14651   7.693   9.330   8.162  0.2291  0.4729  0.5476
  869MOL0     H14652   7.595   9.350   8.313  0.5995 -0.7472  1.4028
  869MOL0     H14653   7.694   9.568   8.122  0.2264 -1.8852 -0.0873
  869MOL0     H14654   7.575   9.598   8.259 -1.9145 -1.0548 -0.2779
  869MOL0     H14655   7.436   9.417   8.140  0.7250 -1.2392  0.7349
  869MOL0     H14656   7.544   9.442   8.001 -2.1258  0.0388 -0.7110
  869MOL0     H14657   7.365   9.669   8.110 -2.8715  0.1037 -1.7691
  869MOL0     H14658   7.489   9.696   7.997 -1.0629  2.0632  1.8677
  869MOL0     H14659   7.267   9.493   7.958 -1.0814  0.9711  1.1433
  869MOL0     H14660   7.393   9.557   7.834 -1.5916  2.0954 -1.1290
  869MOL0     H14661   7.065   9.670   8.001 -1.8087  3.3542  0.5400
  869MOL0     H14662   6.951   9.952   7.928 -0.0404 -0.4352  0.1515
  869MOL0     H14663   6.857   9.809   7.880 -3.5611  4.1833 -0.5059
  869MOL0     H14664   6.781   9.875   7.709  0.8306 -1.1042 -1.5804
  869MOL0     H14665   6.932   9.925   7.633  0.5662  0.6816  0.6519
  869MOL0     H14666   6.755  10.105   7.805 -1.7427 -0.8519 -0.6243
  869MOL0     H14667   6.917  10.159   7.778  0.0385 -1.9325  1.5696
  869MOL0     H14668   6.873  10.125   7.525  1.1687  1.7019  0.4931
  869MOL0     H14669   6.798  10.262   7.594  0.2151 -0.0474 -2.5779
  869MOL0     H14670   6.596  10.224   7.766  3.2162 -3.4661 -3.8142
  869MOL0     H14671   6.393  10.350   7.793  1.6000 -1.0840  1.6170
  869MOL0     H14672   5.983  10.442   7.287  1.5914 -0.1354  2.5587
  869MOL0     H14673   5.782  10.595   7.227 -1.0439  1.8733 -0.0966
  869MOL0     H14674   5.694  10.880   7.579  0.3547  0.3119 -0.7250
  869MOL0     H14675   5.547  10.808   7.519  0.7981 -0.3459  1.6167
  869MOL0     H14676   5.679  11.063   7.411  2.3441  1.0139  2.2980
  869MOL0     H14677   5.553  11.053   7.536 -0.6870 -2.1523  1.0605
  869MOL0     H14678   5.513  10.924   7.267  1.4579  0.5634  0.4588
  869MOL0     H14679   5.460  11.092   7.305  0.3826  0.7087  3.1310
  869MOL0     H14680   5.339  10.856   7.461 -1.8629  0.2511 -0.1136
  869MOL0     H14681   5.301  11.025   7.470 -0.3059  0.9707 -1.1111
  869MOL0     H14682   5.271  10.847   7.223  0.5982 -0.4954  2.2701
  869MOL0     H14683   5.273  11.025   7.206 -1.0497  2.0591  2.2499
  869MOL0     H14684   5.081  11.052   7.363 -0.9265 -0.5091  0.8037
  869MOL0     H14685   5.073  10.871   7.389  0.0020  2.1833  1.3730
  869MOL0     H14686   5.016  11.026   7.134  1.1967  1.0469  1.9481
  869MOL0     H14687   5.042  10.855   7.128 -0.4815  1.9640 -2.1304
  869MOL0     H14688   4.859  10.829   7.295 -1.3217 -1.5977 -1.8345
  869MOL0     H14689   4.802  10.936   7.159 -1.3862  2.4285  0.8125
  869MOL0     H14690   5.883  10.818   7.577 -3.4989 -1.2876  0.1513
  869MOL0     H14691   6.070  10.680   7.612 -2.0464  0.0255  1.2289
  869MOL0     H14692   6.322  10.304   7.363 -1.0088 -0.3237 -1.2967
  869MOL0     H14693   6.502  10.166   7.343 -0.7086  0.9727 -1.4862
  869MOL0     H14694   8.120   8.934   8.540 -2.6037  3.0095  1.7328
  869MOL0     H14695   8.347   8.863   8.591 -0.7150  0.8380  2.4475
  869MOL0     H14696   8.642   8.917   9.015 -0.1676  0.7928 -0.4612
  869MOL0     H14697   8.871   8.907   9.102 -1.3576 -1.4149 -0.4412
  869MOL0     H14698   9.195   9.095   8.874 -1.2410 -1.1799 -2.1481
  869MOL0     H14699   9.217   8.940   8.821 -1.1911  2.3918 -1.5282
  869MOL0     H14700   9.371   8.908   9.006 -0.9567  0.7452  3.3913
  869MOL0     H14701   9.413   9.055   8.909 -1.8260  0.7928 -1.7903
  869MOL0     H14702   9.272   9.057   9.174 -0.0598  1.0394  0.4217
  869MOL0     H14703   9.319   9.203   9.096  1.9899  1.2666  0.6876
  869MOL0     H14704   9.502   8.989   9.215  3.1560  1.0980 -0.1139
  869MOL0     H14705   9.569   9.102   9.102 -0.2695 -4.4969 -1.0678
  869MOL0     H14706   9.517   9.254   9.506 -0.6515  0.8238 -1.4232
  869MOL0     H14707   9.020   9.001   8.706 -1.9386 -1.4126 -0.4406
  869MOL0     H14708   8.811   9.026   8.627 -1.7666 -0.7356  0.0328
  870MOL0     O14709   3.912   5.245   6.538  0.0555 -0.5390  0.3877
  870MOL0     C14710   3.975   5.148   6.500  0.3456  0.6023  0.8336
  870MOL0     O14711   3.931   5.024   6.448  0.1224 -0.1111 -0.1486
  870MOL0     C14712   3.794   5.004   6.436 -0.6251 -0.4709 -0.6921
  870MOL0     C14713   3.759   4.952   6.312  0.2584  0.1784  0.3438
  870MOL0     C14714   3.623   4.939   6.285 -0.2165 -0.9385  0.3094
  870MOL0     C14715   3.525   4.970   6.382 -0.1692  0.9639 -0.1657
  870MOL0     O14716   3.389   4.960   6.350  0.2199  0.6291 -0.2047
  870MOL0     C14717   3.293   4.955   6.459 -0.4683 -0.0622  1.0356
  870MOL0     C14718   3.150   4.978   6.404  0.9551 -0.6726  0.5912
  870MOL0     C14719   3.044   4.977   6.520 -0.4701 -0.7035 -0.0690
  870MOL0     C14720   2.909   4.988   6.454 -0.1938 -0.5138 -0.0989
  870MOL0     C14721   2.798   4.964   6.554 -0.0656 -0.8656  0.0871
  870MOL0     C14722   2.750   4.830   6.596 -0.5889  0.3832 -0.0502
  870MOL0     C14723   2.652   4.769   6.495 -0.5780 -0.4969  0.6077
  870MOL0     C14724   2.503   4.820   6.509  0.9093 -0.8928  0.3440
  870MOL0     N14725   2.408   4.729   6.571 -0.4718 -0.0548  0.2234
  870MOL0     C14726   2.420   4.596   6.549  0.2153 -0.6690 -0.1102
  870MOL0     C14727   2.326   4.541   6.629 -0.7628 -0.2747  0.0042
  870MOL0     C14728   2.324   4.392   6.641 -0.8334  1.5395 -0.8427
  870MOL0     C14729   2.205   4.322   6.575 -0.2598 -0.6860 -0.4056
  870MOL0     C14730   2.132   4.215   6.666  0.0506 -0.3926  0.9380
  870MOL0     C14731   2.001   4.168   6.605  0.6501 -0.3441  0.5616
  870MOL0     O14732   1.929   4.087   6.702 -1.2901  0.4549  0.1601
  870MOL0     C14733   1.804   4.047   6.659  0.7945  0.0283  0.0802
  870MOL0     C14734   1.746   3.960   6.738  0.5950  0.6005  0.1416
  870MOL0     C14735   1.622   3.903   6.706 -0.2026 -0.2563 -0.3194
  870MOL0     C14736   1.564   3.924   6.580 -0.0207  0.3047 -0.4548
  870MOL0     C14737   1.434   3.864   6.553  1.3738 -1.0417  1.0928
  870MOL0     O14738   1.415   3.796   6.435  0.2178 -0.8411  0.1821
  870MOL0     C14739   1.297   3.731   6.411 -0.1964 -0.5450 -0.5182
  870MOL0     C14740   1.190   3.797   6.359 -0.1908 -0.2139  0.1321
  870MOL0     C14741   1.065   3.734   6.317 -0.6669  0.1776  0.0218
  870MOL0     C14742   1.046   3.595   6.352  0.5968  0.5220  0.0283
  870MOL0     O14743   0.937   3.532   6.313 -0.4613 -0.1914  0.4409
  870MOL0     C14744   0.880   3.424   6.394  0.1687  0.0691 -0.0830
  870MOL0     C14745   0.793   3.491   6.504  0.1343 -0.3007 -0.4481
  870MOL0     C14746   0.750   3.386   6.605  0.5649  0.3674  0.2188
  870MOL0     C14747   0.863   3.333   6.691 -0.7589 -0.2505 -0.6041
  870MOL0     C14748   0.823   3.310   6.835  0.4464  0.6250  0.7134
  870MOL0     C14749   0.920   3.217   6.912  0.4890  0.7619  0.5341
  870MOL0     C14750   0.979   3.091   6.839  0.4942  0.1637  0.3995
  870MOL0     C14751   0.856   3.001   6.797  0.4623 -0.5216 -0.6576
  870MOL0    Cl14752   0.913   2.851   6.728 -0.1423  0.0508 -0.2366
  870MOL0     C14753   1.161   3.531   6.409  0.4764  0.2385  0.0244
  870MOL0     C14754   1.283   3.596   6.439  0.2812 -0.5604 -0.2878
  870MOL0     O14755   1.348   3.878   6.639 -0.0942 -0.7449  0.5294
  870MOL0     C14756   1.614   4.020   6.496  0.0324 -0.2797  0.6649
  870MOL0     C14757   1.740   4.076   6.531 -0.0333  0.4426  0.4945
  870MOL0     N14758   2.270   4.639   6.716  0.0791 -0.2229  0.5763
  870MOL0     N14759   2.322   4.747   6.676  0.3907 -0.4296 -0.7009
  870MOL0     C14760   3.569   5.027   6.505 -0.0941  0.3170 -0.0553
  870MOL0     C14761   3.705   5.044   6.532 -0.4644  0.0352  0.3687
  870MOL0     C14762   4.123   5.144   6.516  0.7778 -0.0152 -0.2761
  870MOL0     C14763   4.190   5.249   6.588 -0.0901  0.1845  0.5071
  870MOL0     C14764   4.330   5.244   6.620 -0.2346  0.1709  0.9578
  870MOL0     C14765   4.408   5.135   6.569 -0.3990 -0.1479 -0.3187
  870MOL0     O14766   4.547   5.136   6.564  0.0490  0.2720 -0.6086
  870MOL0     C14767   4.613   5.230   6.649  0.4466  0.6755  1.1423
  870MOL0     C14768   4.760   5.214   6.661  0.3022  0.0164 -0.8269
  870MOL0     C14769   4.833   5.291   6.768 -0.0064 -0.1363 -0.8979
  870MOL0     C14770   4.880   5.424   6.714  0.0712 -0.8089 -0.1397
  870MOL0     C14771   4.914   5.501   6.830  0.0526 -0.1141 -0.3972
  870MOL0     C14772   4.946   5.573   6.931  0.0228  1.7290  0.1321
  870MOL0     C14773   4.344   5.036   6.493 -0.8398 -1.1340 -0.9263
  870MOL0     C14774   4.206   5.043   6.460 -1.0345 -0.3480  0.6753
  870MOL0     H14775   3.841   4.948   6.242  2.5434 -1.8309  2.8959
  870MOL0     H14776   3.593   4.902   6.187 -0.0651 -1.2658  0.3851
  870MOL0     H14777   3.305   5.037   6.531  0.5230 -1.3591  2.3966
  870MOL0     H14778   3.310   4.860   6.510  2.0926 -0.6592 -0.7458
  870MOL0     H14779   3.129   4.897   6.333  2.8028  1.8563 -3.1752
  870MOL0     H14780   3.138   5.076   6.356 -1.4135  0.0354  2.4513
  870MOL0     H14781   3.052   5.073   6.571 -0.9814 -1.8114  2.1908
  870MOL0     H14782   3.066   4.897   6.591  0.1808 -1.3297 -0.9430
  870MOL0     H14783   2.896   5.080   6.396  0.6740  0.2777  0.9069
  870MOL0     H14784   2.895   4.912   6.377  0.6989  2.3993 -3.4493
  870MOL0     H14785   2.708   5.015   6.518 -0.5105 -1.1655  0.7838
  870MOL0     H14786   2.827   5.023   6.642 -0.1546  2.2354 -1.7829
  870MOL0     H14787   2.711   4.845   6.697  0.0112 -1.0626  0.4377
  870MOL0     H14788   2.835   4.761   6.612 -0.9839 -1.2971 -4.1454
  870MOL0     H14789   2.690   4.794   6.395 -2.0854  1.5751  0.4944
  870MOL0     H14790   2.652   4.660   6.511 -2.5458 -0.6935 -0.4834
  870MOL0     H14791   2.467   4.825   6.406  0.3158 -4.0465  0.2908
  870MOL0     H14792   2.497   4.921   6.550  1.8498 -0.2666 -0.9787
  870MOL0     H14793   2.497   4.548   6.490 -0.6425 -2.2509  0.0036
  870MOL0     H14794   2.322   4.362   6.746 -1.7004  0.4807 -1.1433
  870MOL0     H14795   2.417   4.358   6.595  0.1694  2.7751  0.2103
  870MOL0     H14796   2.239   4.292   6.475 -1.0154  0.6153 -1.0811
  870MOL0     H14797   2.140   4.404   6.545 -2.0275 -1.4062  1.2740
  870MOL0     H14798   2.197   4.130   6.690 -0.1775 -0.4171  1.4842
  870MOL0     H14799   2.102   4.266   6.758  0.8451 -1.3827  1.7753
  870MOL0     H14800   2.030   4.123   6.509  3.2322  0.4218  0.9101
  870MOL0     H14801   1.947   4.255   6.566  1.7834 -0.8340 -2.4039
  870MOL0     H14802   1.807   3.923   6.820 -0.8216  1.9012  1.8597
  870MOL0     H14803   1.578   3.831   6.774  3.2242  1.0388  3.7101
  870MOL0     H14804   1.188   3.900   6.325  5.3811 -0.2933 -1.3434
  870MOL0     H14805   0.992   3.792   6.261 -2.4729  0.7143  2.7418
  870MOL0     H14806   0.965   3.370   6.438  2.0936  2.4233 -0.6495
  870MOL0     H14807   0.815   3.353   6.344  0.1510  0.9851 -1.3975
  870MOL0     H14808   0.704   3.537   6.461  0.5508 -0.5020 -1.5356
  870MOL0     H14809   0.858   3.559   6.561  0.2139 -1.3770  0.8068
  870MOL0     H14810   0.689   3.311   6.552 -2.0310  2.4532  0.0414
  870MOL0     H14811   0.670   3.421   6.670 -1.0849 -2.6828  0.0656
  870MOL0     H14812   0.886   3.236   6.644 -0.9714 -1.4558  1.6390
  870MOL0     H14813   0.947   3.403   6.690 -2.8676  2.5688  2.2005
  870MOL0     H14814   0.725   3.262   6.837  0.8547 -0.2262  1.5869
  870MOL0     H14815   0.808   3.396   6.900 -2.2992 -0.0272  1.0706
  870MOL0     H14816   0.869   3.177   7.000 -1.0348 -2.1406 -1.5021
  870MOL0     H14817   1.001   3.279   6.950 -1.1294  2.0242  2.0855
  870MOL0     H14818   1.039   3.105   6.749  0.1464  1.5619  0.3624
  870MOL0     H14819   1.032   3.033   6.916  1.3700  0.4608  0.0379
  870MOL0     H14820   0.797   3.052   6.720 -0.4084 -1.9138 -0.9413
  870MOL0     H14821   0.796   2.987   6.887  1.1230  1.4294  0.1477
  870MOL0     H14822   1.159   3.424   6.430 -1.2431 -0.7998 -4.3334
  870MOL0     H14823   1.366   3.542   6.483  1.4534  0.4025 -1.2253
  870MOL0     H14824   1.560   4.047   6.405  0.1943  1.7413  1.1153
  870MOL0     H14825   1.789   4.141   6.459  0.8499 -0.8660 -0.1071
  870MOL0     H14826   3.505   5.053   6.588 -0.0840  1.2446 -0.3343
  870MOL0     H14827   3.741   5.077   6.629  2.7753 -0.3515 -0.5764
  870MOL0     H14828   4.140   5.340   6.619 -0.4363 -0.9421  3.6309
  870MOL0     H14829   4.365   5.337   6.663  2.9716  0.4135 -1.7176
  870MOL0     H14830   4.564   5.235   6.747  1.3713  1.2393  1.5874
  870MOL0     H14831   4.604   5.330   6.605  1.7400 -0.3848 -1.7410
  870MOL0     H14832   4.779   5.116   6.705 -0.3447  1.6131  3.5799
  870MOL0     H14833   4.792   5.234   6.559  0.8868  0.1113 -0.6282
  870MOL0     H14834   4.929   5.246   6.794 -0.0848 -1.3935 -2.6091
  870MOL0     H14835   4.760   5.295   6.849  0.1644 -1.2033 -0.6725
  870MOL0     H14836   4.964   5.402   6.647  0.5172 -0.7207  0.3790
  870MOL0     H14837   4.809   5.485   6.658 -0.5000 -0.2730  1.1136
  870MOL0     H14838   4.972   5.630   7.018 -0.1848  0.6033  0.9585
  870MOL0     H14839   4.408   4.962   6.446  2.9269  1.3160 -0.1254
  870MOL0     H14840   4.169   4.968   6.390 -1.6803 -0.5596  1.2285
  871MOL0     O14841   5.242   0.405   4.246  0.8610 -0.3254 -0.1897
  871MOL0     C14842   5.247   0.454   4.363 -0.1780  0.2974  0.5596
  871MOL0     O14843   5.140   0.515   4.417 -0.1390  0.4255 -0.0257
  871MOL0     C14844   5.023   0.516   4.346  0.8100 -0.0337 -0.5566
  871MOL0     C14845   5.011   0.586   4.222 -0.0067 -0.2915  0.2710
  871MOL0     C14846   4.887   0.591   4.159 -0.5870 -0.0558 -0.5188
  871MOL0     C14847   4.773   0.523   4.209 -0.5242 -0.4904 -0.4069
  871MOL0     O14848   4.650   0.509   4.138  0.0761 -0.4769 -0.1911
  871MOL0     C14849   4.623   0.604   4.029 -0.0630 -0.1171  0.0709
  871MOL0     C14850   4.477   0.599   4.001  0.3262 -0.1600  1.0527
  871MOL0     C14851   4.473   0.702   3.880  0.6480  0.0481 -0.7520
  871MOL0     C14852   4.357   0.670   3.792 -0.3470  1.3622  0.5763
  871MOL0     C14853   4.208   0.684   3.850 -0.7032 -0.2405  0.3004
  871MOL0     C14854   4.112   0.633   3.744 -0.8096 -0.4384 -0.0178
  871MOL0     C14855   3.967   0.643   3.807 -0.3323 -0.0857  0.3334
  871MOL0     C14856   3.867   0.549   3.728  0.0319  0.6086  0.7942
  871MOL0     N14857   3.814   0.610   3.607 -0.5528  0.2196 -0.3228
  871MOL0     C14858   3.721   0.707   3.613 -0.6599  0.0593 -0.2081
  871MOL0     C14859   3.705   0.736   3.486 -0.0053  0.4146  0.0130
  871MOL0     C14860   3.629   0.847   3.430  0.3446 -0.2526 -0.4583
  871MOL0     C14861   3.485   0.805   3.435  0.3216 -0.2161  0.0123
  871MOL0     C14862   3.436   0.762   3.294  0.9324 -0.0334 -0.2212
  871MOL0     C14863   3.283   0.721   3.300 -0.2985  0.2407 -0.6569
  871MOL0     O14864   3.203   0.840   3.309  0.7450 -0.3880  0.3908
  871MOL0     C14865   3.065   0.821   3.292  0.3484  0.3596  0.0290
  871MOL0     C14866   2.997   0.702   3.337  0.0984 -0.5614 -0.2324
  871MOL0     C14867   2.859   0.705   3.327  0.0028 -0.2193  0.4275
  871MOL0     C14868   2.783   0.807   3.277 -0.3170  0.0903  0.4037
  871MOL0     C14869   2.635   0.797   3.295  0.3479  0.2942 -0.1922
  871MOL0     O14870   2.556   0.908   3.307 -0.0155  1.2705  0.4407
  871MOL0     C14871   2.417   0.892   3.331  0.5061  0.1254  0.3944
  871MOL0     C14872   2.360   0.793   3.416 -0.9308 -0.0114  0.0892
  871MOL0     C14873   2.224   0.808   3.445 -0.3262 -1.1377 -0.1741
  871MOL0     C14874   2.138   0.890   3.375  0.8948 -0.0862  0.3991
  871MOL0     O14875   2.000   0.874   3.391  0.0878 -0.2410 -0.8406
  871MOL0     C14876   1.909   0.978   3.350 -0.1646  0.0564  0.4479
  871MOL0     C14877   1.773   0.964   3.420 -0.7549  1.0188 -0.2420
  871MOL0     C14878   1.664   1.039   3.354 -0.2029  0.3387 -1.4317
  871MOL0     C14879   1.540   1.011   3.445  0.4770 -0.1984  0.0925
  871MOL0     C14880   1.419   1.076   3.386 -0.0485  0.2089 -0.7204
  871MOL0     C14881   1.343   1.185   3.473 -0.0986  0.7525  0.7097
  871MOL0     C14882   1.422   1.322   3.479 -0.1633  1.0927 -0.1723
  871MOL0     C14883   1.337   1.437   3.505 -0.3033 -0.1024  1.5339
  871MOL0    Cl14884   1.424   1.594   3.478 -0.0560  0.2311  0.0848
  871MOL0     C14885   2.197   0.986   3.286 -0.6373  0.1595 -0.6125
  871MOL0     C14886   2.333   0.983   3.280 -0.7724 -0.4571  0.3837
  871MOL0     O14887   2.592   0.686   3.268 -0.1436 -0.6072  0.0723
  871MOL0     C14888   2.853   0.924   3.225 -0.8018  0.0980 -0.8544
  871MOL0     C14889   2.997   0.925   3.238 -0.3306 -0.6187  0.4418
  871MOL0     N14890   3.777   0.640   3.409 -1.1313 -0.0041 -0.2317
  871MOL0     N14891   3.842   0.554   3.487  0.0253 -0.7336 -1.8033
  871MOL0     C14892   4.780   0.465   4.334  0.2849 -0.9335 -0.0331
  871MOL0     C14893   4.905   0.458   4.393 -0.6542 -0.3013  0.0450
  871MOL0     C14894   5.367   0.469   4.424 -0.6828 -0.2450 -0.0210
  871MOL0     C14895   5.380   0.488   4.565 -0.5701 -0.2062 -0.5766
  871MOL0     C14896   5.500   0.479   4.636 -0.5105 -0.2113 -1.0680
  871MOL0     C14897   5.618   0.463   4.563  1.0516  0.5158  0.3117
  871MOL0     O14898   5.723   0.455   4.650 -0.7411  0.1784 -0.0292
  871MOL0     C14899   5.850   0.470   4.588  0.0034  0.2515 -0.5561
  871MOL0     C14900   5.925   0.339   4.616  0.6148  0.2602  0.5467
  871MOL0     C14901   6.058   0.325   4.554 -0.5385 -0.1539  0.0030
  871MOL0     C14902   6.143   0.455   4.562  0.0504 -0.7067  0.0150
  871MOL0     C14903   6.278   0.434   4.520  0.5800  0.6043  0.5736
  871MOL0     C14904   6.391   0.407   4.473  0.4240  0.2568  0.3152
  871MOL0     C14905   5.611   0.458   4.420 -0.5042  0.5694 -0.5921
  871MOL0     C14906   5.486   0.461   4.352 -0.1908  1.2124 -0.7034
  871MOL0     H14907   5.083   0.642   4.163  0.7035  1.1665  2.4472
  871MOL0     H14908   4.867   0.629   4.060 -1.6119 -0.4577 -0.4743
  871MOL0     H14909   4.673   0.573   3.937 -2.5702  1.0070 -1.7689
  871MOL0     H14910   4.651   0.705   4.059  1.2516 -0.2954 -0.4833
  871MOL0     H14911   4.418   0.632   4.087  0.4209 -1.8367  1.7976
  871MOL0     H14912   4.443   0.503   3.960 -0.7803  0.9655 -0.8517
  871MOL0     H14913   4.564   0.710   3.820  0.9725 -0.7705 -0.3771
  871MOL0     H14914   4.446   0.803   3.914 -1.4784 -0.4979 -0.7070
  871MOL0     H14915   4.352   0.744   3.712 -0.9635  3.5251  2.5210
  871MOL0     H14916   4.363   0.575   3.737  2.4120  2.1528 -0.6624
  871MOL0     H14917   4.191   0.789   3.874 -0.5955  0.9042 -3.8682
  871MOL0     H14918   4.186   0.616   3.933 -1.6879  0.7434  0.8697
  871MOL0     H14919   4.139   0.531   3.713  1.3575 -0.4696  1.7382
  871MOL0     H14920   4.114   0.698   3.657 -1.9498  0.1171  0.3510
  871MOL0     H14921   3.979   0.590   3.902  1.1819  2.0336  1.3969
  871MOL0     H14922   3.935   0.744   3.835 -1.8344 -0.5645  0.4667
  871MOL0     H14923   3.781   0.519   3.789  0.2583 -2.0092 -0.0813
  871MOL0     H14924   3.914   0.453   3.705 -0.0972  0.6818  0.2219
  871MOL0     H14925   3.688   0.760   3.701  1.0701 -0.5320  0.8545
  871MOL0     H14926   3.653   0.870   3.326 -0.0986  1.5428 -0.2070
  871MOL0     H14927   3.642   0.940   3.487  1.0873 -1.3962  1.2938
  871MOL0     H14928   3.424   0.894   3.455 -0.5444 -0.2513 -2.1666
  871MOL0     H14929   3.473   0.730   3.513  2.5259  0.4424  1.0559
  871MOL0     H14930   3.429   0.850   3.231  1.2598  2.4128  2.9189
  871MOL0     H14931   3.496   0.683   3.246 -0.6240 -1.2599 -0.2219
  871MOL0     H14932   3.261   0.651   3.381 -1.3049 -1.4862 -2.3548
  871MOL0     H14933   3.258   0.673   3.205 -1.0843 -0.9080  0.0935
  871MOL0     H14934   3.042   0.618   3.388 -0.8987  0.0484  1.7550
  871MOL0     H14935   2.796   0.628   3.371  0.6390 -0.4696  0.9048
  871MOL0     H14936   2.425   0.720   3.464  1.1316  1.0144 -0.9969
  871MOL0     H14937   2.175   0.750   3.523  0.8594 -0.3775  1.1781
  871MOL0     H14938   1.880   0.968   3.244 -0.4973 -0.9801  0.6254
  871MOL0     H14939   1.941   1.075   3.388  1.9388 -2.0448  4.6422
  871MOL0     H14940   1.765   1.003   3.522 -0.1246 -2.0794  1.1097
  871MOL0     H14941   1.743   0.859   3.427 -2.7280  1.5263 -0.3919
  871MOL0     H14942   1.654   0.995   3.255 -1.3308 -0.3593 -1.0311
  871MOL0     H14943   1.687   1.146   3.348  0.2819  0.3129 -0.3341
  871MOL0     H14944   1.531   0.902   3.440  3.9421 -0.6162  0.2401
  871MOL0     H14945   1.545   1.039   3.550  0.7084 -1.3360  0.3900
  871MOL0     H14946   1.338   1.003   3.379  0.0445  0.2643 -3.5045
  871MOL0     H14947   1.425   1.117   3.285  0.0386  2.7689  0.2648
  871MOL0     H14948   1.336   1.147   3.575  3.5045 -0.0002  0.8318
  871MOL0     H14949   1.244   1.196   3.428  1.0441 -0.1773 -2.2422
  871MOL0     H14950   1.489   1.337   3.564  2.7896 -0.8296 -1.9484
  871MOL0     H14951   1.473   1.344   3.385  0.9739  1.1438  0.4303
  871MOL0     H14952   1.296   1.435   3.607 -0.7801 -1.2544  1.3319
  871MOL0     H14953   1.250   1.439   3.439 -0.1139 -2.0006  1.1973
  871MOL0     H14954   2.128   1.055   3.241 -2.4506 -1.8872 -1.1405
  871MOL0     H14955   2.381   1.053   3.212 -0.5893 -0.7498  0.2097
  871MOL0     H14956   2.792   1.008   3.193 -1.4169 -0.2614 -0.6295
  871MOL0     H14957   3.047   1.015   3.202 -1.9517  0.0484 -0.2648
  871MOL0     H14958   4.691   0.424   4.380  0.6055 -1.2661  0.2995
  871MOL0     H14959   4.913   0.392   4.479  1.3414  0.6469  0.6381
  871MOL0     H14960   5.290   0.512   4.621  0.5175  0.5084  0.9251
  871MOL0     H14961   5.507   0.489   4.744  0.2028 -0.5306 -1.0805
  871MOL0     H14962   5.898   0.554   4.640  0.9546 -0.4757 -0.2348
  871MOL0     H14963   5.860   0.487   4.481  1.7457 -2.3434 -0.8810
  871MOL0     H14964   5.930   0.316   4.723  1.9548 -2.1174  0.0415
  871MOL0     H14965   5.870   0.258   4.567 -2.1804  2.4169 -0.1260
  871MOL0     H14966   6.050   0.296   4.449 -2.8455 -0.9450  0.3317
  871MOL0     H14967   6.115   0.245   4.604 -0.9862 -2.6218 -3.0851
  871MOL0     H14968   6.106   0.537   4.499  2.7374  2.1851  1.8758
  871MOL0     H14969   6.164   0.489   4.664  2.4874  1.0098 -0.9843
  871MOL0     H14970   6.486   0.397   4.424  0.5251  1.1296  0.3115
  871MOL0     H14971   5.700   0.440   4.361 -1.1625  0.4874 -1.5765
  871MOL0     H14972   5.487   0.440   4.245  0.3280  1.6006 -0.7785
  872MOL0     O14973   5.254   2.804   3.833 -0.7425 -0.0317 -1.1297
  872MOL0     C14974   5.153   2.738   3.818 -0.0878 -0.3710  0.6310
  872MOL0     O14975   5.111   2.637   3.904 -0.7146 -0.1498  0.7208
  872MOL0     C14976   5.192   2.588   4.006  0.2305 -0.0924 -0.1145
  872MOL0     C14977   5.158   2.466   4.049 -0.9010  0.5551  0.9841
  872MOL0     C14978   5.236   2.399   4.138  0.0043 -0.3612 -0.2010
  872MOL0     C14979   5.344   2.463   4.206 -0.2942 -0.5913 -0.3664
  872MOL0     O14980   5.400   2.392   4.314 -0.9033  0.1789 -0.5617
  872MOL0     C14981   5.530   2.440   4.374 -0.4437  0.4663 -0.6249
  872MOL0     C14982   5.588   2.361   4.491  0.2987 -0.7867 -0.4537
  872MOL0     C14983   5.571   2.434   4.635 -1.1194  0.1748  0.3919
  872MOL0     C14984   5.632   2.576   4.644  0.8373  0.4495  0.3684
  872MOL0     C14985   5.669   2.638   4.782  0.8386 -0.2733  1.2177
  872MOL0     C14986   5.540   2.637   4.859 -0.4500  0.1563  0.4341
  872MOL0     C14987   5.569   2.691   5.008  0.2875 -0.8795  1.0266
  872MOL0     C14988   5.470   2.623   5.108 -0.9934  0.0229 -0.3650
  872MOL0     N14989   5.330   2.668   5.078 -0.2180 -0.7432  0.6607
  872MOL0     C14990   5.214   2.624   5.132 -0.4739 -0.1646  0.1528
  872MOL0     C14991   5.118   2.726   5.114 -0.0836 -0.8325 -0.5345
  872MOL0     C14992   4.985   2.734   5.172 -0.7003  0.3213  0.4888
  872MOL0     C14993   4.895   2.664   5.066 -0.0803 -0.5586  1.3989
  872MOL0     C14994   4.750   2.655   5.110  0.4318 -0.5360  0.8459
  872MOL0     C14995   4.672   2.545   5.034 -0.6926 -0.5742  0.1145
  872MOL0     O14996   4.542   2.551   5.092 -0.0579 -0.0287  0.0664
  872MOL0     C14997   4.439   2.510   5.007  0.0443 -0.8166  0.1735
  872MOL0     C14998   4.448   2.439   4.885  0.0205 -0.4996 -0.2513
  872MOL0     C14999   4.335   2.403   4.818  0.2468 -0.5263 -0.0826
  872MOL0     C15000   4.205   2.437   4.855 -0.2748 -0.1515  0.6221
  872MOL0     C15001   4.085   2.385   4.784 -0.1080 -0.3799  0.2013
  872MOL0     O15002   3.970   2.451   4.809 -0.6780  0.2671  0.3619
  872MOL0     C15003   3.845   2.430   4.739 -0.4683 -0.5674 -0.3598
  872MOL0     C15004   3.817   2.353   4.625  0.1116 -0.1090 -0.7466
  872MOL0     C15005   3.689   2.359   4.567  0.1177  0.5792 -0.0124
  872MOL0     C15006   3.582   2.433   4.615 -0.2576 -0.4189  0.2222
  872MOL0     O15007   3.470   2.422   4.535 -0.2593  0.9219 -0.1766
  872MOL0     C15008   3.353   2.469   4.597  0.6494 -0.4101  0.6255
  872MOL0     C15009   3.305   2.381   4.705  0.2713 -0.1721  0.1961
  872MOL0     C15010   3.179   2.439   4.747 -0.1257 -0.9726 -0.2886
  872MOL0     C15011   3.105   2.341   4.840 -0.1672 -0.5947 -0.2038
  872MOL0     C15012   2.978   2.398   4.897 -0.2130 -0.0796  0.4402
  872MOL0     C15013   2.849   2.334   4.835  0.5555 -0.0049 -0.8180
  872MOL0     C15014   2.711   2.376   4.898 -0.2797 -0.1362 -0.3497
  872MOL0     C15015   2.580   2.367   4.813  0.4330  0.5272  0.0374
  872MOL0    Cl15016   2.429   2.365   4.904 -0.1595 -0.1085 -0.5011
  872MOL0     C15017   3.607   2.501   4.735 -0.3061 -0.7558  0.2981
  872MOL0     C15018   3.732   2.497   4.798 -0.8090 -0.0681  0.2893
  872MOL0     O15019   4.094   2.275   4.720  0.0645 -0.0636 -0.4239
  872MOL0     C15020   4.200   2.517   4.972  0.3574 -0.0498 -0.2721
  872MOL0     C15021   4.317   2.562   5.043 -0.0966 -0.1214  0.6370
  872MOL0     N15022   5.180   2.820   5.038 -0.3823  0.2406 -0.6668
  872MOL0     N15023   5.306   2.789   5.020 -0.1138  0.0254 -0.5941
  872MOL0     C15024   5.371   2.595   4.181  0.0173 -0.1890 -0.2577
  872MOL0     C15025   5.293   2.654   4.087 -0.4375 -0.4848  0.8414
  872MOL0     C15026   5.066   2.754   3.704 -1.1226 -0.3822  1.2721
  872MOL0     C15027   5.074   2.867   3.616  0.0276  0.2463 -0.2870
  872MOL0     C15028   4.981   2.883   3.515  1.0258 -0.3238  0.9174
  872MOL0     C15029   4.880   2.790   3.490  0.2358 -0.1050 -0.7258
  872MOL0     O15030   4.792   2.811   3.388  0.3292 -0.2771 -0.1429
  872MOL0     C15031   4.710   2.934   3.393  0.3061  0.1835  1.0963
  872MOL0     C15032   4.691   2.994   3.258  0.1213 -0.2798  0.3355
  872MOL0     C15033   4.810   3.072   3.199  0.3937  0.5940 -0.0373
  872MOL0     C15034   4.778   3.090   3.051  0.5508 -1.0969 -0.2067
  872MOL0     C15035   4.862   3.189   2.984 -0.6551  0.0898  0.2233
  872MOL0     C15036   4.939   3.263   2.925 -0.6437 -0.9477  0.4749
  872MOL0     C15037   4.862   2.685   3.584 -0.8424 -0.0329  1.1367
  872MOL0     C15038   4.958   2.663   3.686  0.2980  0.5497 -0.6401
  872MOL0     H15039   5.080   2.411   3.998 -1.1318  1.2920  0.5264
  872MOL0     H15040   5.190   2.304   4.164 -2.1876  0.4087 -1.0305
  872MOL0     H15041   5.517   2.545   4.402 -3.4065  0.9641 -3.2882
  872MOL0     H15042   5.604   2.428   4.294  0.6815  0.0198  0.4365
  872MOL0     H15043   5.697   2.372   4.480  0.6814 -1.6701  1.9526
  872MOL0     H15044   5.557   2.257   4.481 -2.1756 -0.1475 -0.1315
  872MOL0     H15045   5.628   2.367   4.699 -0.6609 -0.4494 -0.6354
  872MOL0     H15046   5.466   2.444   4.665 -0.0614  3.0173  3.6223
  872MOL0     H15047   5.718   2.566   4.577 -0.0409 -1.8463 -0.5052
  872MOL0     H15048   5.553   2.643   4.606 -0.0508  0.8390  2.7517
  872MOL0     H15049   5.704   2.740   4.761  3.1582 -1.1787  0.3777
  872MOL0     H15050   5.749   2.585   4.833  2.6341  0.4742 -0.6779
  872MOL0     H15051   5.504   2.535   4.878  0.5085 -0.8470 -2.5848
  872MOL0     H15052   5.463   2.690   4.802 -0.8958  1.8873  2.4837
  872MOL0     H15053   5.670   2.667   5.041 -0.4965 -2.3029  2.5771
  872MOL0     H15054   5.549   2.798   5.003 -1.0548 -1.1586 -0.3502
  872MOL0     H15055   5.497   2.663   5.205  2.8141 -0.4028 -1.1187
  872MOL0     H15056   5.481   2.514   5.103  0.7276  0.2178 -1.8181
  872MOL0     H15057   5.193   2.537   5.192 -3.8270  0.4052 -0.0265
  872MOL0     H15058   4.955   2.839   5.183 -2.8124  0.1062 -2.1368
  872MOL0     H15059   4.990   2.668   5.259 -0.6205 -1.1607 -0.6111
  872MOL0     H15060   4.940   2.567   5.043  0.8448  0.1056  0.2778
  872MOL0     H15061   4.895   2.736   4.984 -3.1393 -1.1562  0.7633
  872MOL0     H15062   4.734   2.623   5.214 -1.2583 -0.2279  0.7038
  872MOL0     H15063   4.715   2.758   5.098  0.5990 -0.5616  0.1035
  872MOL0     H15064   4.729   2.452   5.040  3.4722  1.4156 -3.1974
  872MOL0     H15065   4.672   2.575   4.929 -1.1574  1.0247  0.5375
  872MOL0     H15066   4.550   2.415   4.856  0.9992  0.3309  2.2576
  872MOL0     H15067   4.337   2.349   4.724  3.1670 -0.1272 -0.3523
  872MOL0     H15068   3.880   2.278   4.578 -0.5541 -0.8525 -0.4716
  872MOL0     H15069   3.666   2.300   4.479 -1.7506  2.7350 -1.0594
  872MOL0     H15070   3.278   2.460   4.519 -0.7877 -3.6263  2.2266
  872MOL0     H15071   3.372   2.575   4.617  2.6310 -0.0013 -2.6753
  872MOL0     H15072   3.379   2.376   4.785  0.7498 -1.1849 -0.2931
  872MOL0     H15073   3.301   2.277   4.670  1.7881  0.7636 -3.1234
  872MOL0     H15074   3.118   2.461   4.659 -0.2315  0.4500  0.1132
  872MOL0     H15075   3.192   2.531   4.804  0.2942 -0.9722 -0.3788
  872MOL0     H15076   3.085   2.246   4.789 -0.7656 -0.7956  0.3794
  872MOL0     H15077   3.169   2.322   4.927 -0.2091 -3.5767 -0.7106
  872MOL0     H15078   2.986   2.505   4.879  1.7694 -0.2182  0.2979
  872MOL0     H15079   2.982   2.377   5.004  1.1276 -0.3460  0.3590
  872MOL0     H15080   2.865   2.226   4.840  0.6886  0.0443 -0.0739
  872MOL0     H15081   2.840   2.389   4.741 -1.8046  0.1970 -0.5348
  872MOL0     H15082   2.692   2.304   4.977 -0.8232 -0.1765 -0.5111
  872MOL0     H15083   2.721   2.474   4.946 -1.3066 -1.8763  3.7914
  872MOL0     H15084   2.569   2.280   4.747 -0.9508  0.7385 -0.0458
  872MOL0     H15085   2.586   2.461   4.757  0.0627  1.7562  1.9881
  872MOL0     H15086   3.520   2.554   4.774 -0.0624  0.3430 -0.6078
  872MOL0     H15087   3.746   2.545   4.894 -0.1395  0.1979  0.0615
  872MOL0     H15088   4.106   2.558   5.007  0.2874  0.9265 -1.5236
  872MOL0     H15089   4.304   2.622   5.132 -1.0213  1.1098 -0.2906
  872MOL0     H15090   5.435   2.646   4.251 -1.0153  0.9522 -0.1049
  872MOL0     H15091   5.313   2.760   4.072 -0.1874 -0.7806 -1.3624
  872MOL0     H15092   5.153   2.938   3.637  0.0474 -0.3622  2.0724
  872MOL0     H15093   4.988   2.965   3.444 -0.2664  2.7193  3.9875
  872MOL0     H15094   4.753   3.012   3.456  0.0844  2.6400 -1.5828
  872MOL0     H15095   4.610   2.912   3.430 -0.0095  2.2430  1.5495
  872MOL0     H15096   4.684   2.906   3.193  0.9350  0.5636 -0.9459
  872MOL0     H15097   4.602   3.058   3.260 -0.4126 -0.9752  2.8849
  872MOL0     H15098   4.900   3.011   3.215  0.5208  0.8038  0.0645
  872MOL0     H15099   4.824   3.171   3.244 -0.0716 -1.0409  4.1572
  872MOL0     H15100   4.791   2.997   2.995  2.0967 -0.5890 -0.7364
  872MOL0     H15101   4.677   3.133   3.047  1.3495  0.8780 -0.5097
  872MOL0     H15102   5.014   3.327   2.883 -1.5225 -0.7428 -0.8596
  872MOL0     H15103   4.778   2.619   3.565 -0.0725 -0.6543 -0.2909
  872MOL0     H15104   4.952   2.575   3.750 -0.2763  1.1584  0.1608
  873MOL0     O15105   4.743   0.744   0.618  0.5081 -0.1494 -0.2185
  873MOL0     C15106   4.667   0.655   0.579 -0.0601  0.1976 -0.8216
  873MOL0     O15107   4.704   0.521   0.556  0.8759 -0.6631  0.0062
  873MOL0     C15108   4.827   0.478   0.597 -0.5741 -0.0955  0.4311
  873MOL0     C15109   4.835   0.356   0.661  0.6845 -0.4182  0.6144
  873MOL0     C15110   4.954   0.297   0.700 -0.6608  0.0327 -0.1001
  873MOL0     C15111   5.075   0.355   0.660  0.6985 -0.5327 -0.4127
  873MOL0     O15112   5.191   0.286   0.704 -0.1546  0.0283 -0.1521
  873MOL0     C15113   5.313   0.358   0.703  0.1929  0.7858 -0.2288
  873MOL0     C15114   5.412   0.296   0.802 -0.4481 -0.7827  0.0765
  873MOL0     C15115   5.553   0.360   0.819 -0.2744 -0.8940 -1.0816
  873MOL0     C15116   5.636   0.316   0.705 -0.2898 -0.5125  0.2609
  873MOL0     C15117   5.781   0.337   0.729 -0.2930  0.9700 -0.6414
  873MOL0     C15118   5.859   0.299   0.603 -0.1741  1.2499 -0.2673
  873MOL0     C15119   5.969   0.394   0.580 -0.2197 -0.1324  0.0319
  873MOL0     C15120   6.043   0.370   0.452  0.2565 -0.4588 -0.2480
  873MOL0     N15121   5.969   0.398   0.332 -0.1743  0.8085  0.4699
  873MOL0     C15122   5.920   0.524   0.310  0.5617 -0.6281 -0.6278
  873MOL0     C15123   5.821   0.508   0.223 -0.2900  0.9110 -0.8524
  873MOL0     C15124   5.708   0.609   0.203 -0.5393 -0.0272  0.0694
  873MOL0     C15125   5.565   0.551   0.188  0.6501  0.7481 -0.3104
  873MOL0     C15126   5.507   0.525   0.323  0.0797  0.4816 -0.7888
  873MOL0     C15127   5.361   0.495   0.309 -0.3412 -0.9348 -0.4932
  873MOL0     O15128   5.289   0.604   0.255  0.4094 -0.4249  0.0691
  873MOL0     C15129   5.155   0.581   0.236 -0.1087  0.4158  0.1215
  873MOL0     C15130   5.079   0.462   0.234  0.5003  0.6569  0.3481
  873MOL0     C15131   4.936   0.460   0.229 -0.7048  0.2284 -1.1379
  873MOL0     C15132   4.862   0.579   0.219  0.2929  0.4211  0.4823
  873MOL0     C15133   4.717   0.574   0.229 -0.3018  0.2738 -0.1953
  873MOL0     O15134   4.651   0.688   0.195 -0.2982  0.0587  0.1835
  873MOL0     C15135   4.516   0.694   0.185 -0.3017  0.3617 -0.3772
  873MOL0     C15136   4.448   0.814   0.222 -0.8912 -0.7795  0.1397
  873MOL0     C15137   4.320   0.837   0.201  0.4511  0.5386  0.0125
  873MOL0     C15138   4.243   0.736   0.147  0.2050  0.4170 -0.2950
  873MOL0     O15139   4.101   0.745   0.135 -0.7350  0.1422  0.4784
  873MOL0     C15140   4.013   0.677   0.051  0.5868  0.1982  0.5170
  873MOL0     C15141   3.863   0.706   0.098 -0.9924  1.2218  0.4204
  873MOL0     C15142   3.816   0.849   0.064  0.4473 -0.1108  0.1783
  873MOL0     C15143   3.662   0.871   0.072  0.5976 -0.1465 -0.5985
  873MOL0     C15144   3.599   0.872   0.211 -0.9060 -0.5277 -0.3159
  873MOL0     C15145   3.460   0.922   0.217 -1.1248  0.8142 -0.3977
  873MOL0     C15146   3.400   0.926   0.360  0.0999 -0.4454 -0.0247
  873MOL0     C15147   3.272   0.857   0.385 -0.5932  0.4219 -0.5688
  873MOL0    Cl15148   3.146   0.868   0.260  0.0767 -0.2549  0.0653
  873MOL0     C15149   4.302   0.612   0.104 -0.1141  0.4706 -0.6244
  873MOL0     C15150   4.437   0.595   0.126  0.8445  0.5318  0.4909
  873MOL0     O15151   4.665   0.464   0.244 -0.7874 -0.3898 -0.3865
  873MOL0     C15152   4.936   0.691   0.199 -0.4256 -0.3707 -0.0413
  873MOL0     C15153   5.075   0.692   0.209 -1.1003  0.6165 -0.2939
  873MOL0     N15154   5.818   0.380   0.181 -0.0013 -0.8735 -0.5073
  873MOL0     N15155   5.908   0.314   0.244 -0.0795  0.9566 -0.0994
  873MOL0     C15156   5.067   0.483   0.594 -0.0639  0.1229  0.2487
  873MOL0     C15157   4.949   0.546   0.556  0.7934 -0.0951 -0.3462
  873MOL0     C15158   4.521   0.690   0.573  0.2711 -0.4517  0.3947
  873MOL0     C15159   4.465   0.807   0.617  0.5301 -0.9619 -0.6507
  873MOL0     C15160   4.323   0.831   0.598  0.2408  0.4462  0.2413
  873MOL0     C15161   4.240   0.730   0.542  0.1642  0.1241 -0.5676
  873MOL0     O15162   4.108   0.753   0.547  0.7261 -0.0671 -0.1557
  873MOL0     C15163   4.024   0.649   0.498 -0.3642  0.4582 -0.2506
  873MOL0     C15164   3.887   0.699   0.486  0.7971 -0.2102  0.6285
  873MOL0     C15165   3.815   0.702   0.617  0.4373 -0.0078  0.1409
  873MOL0     C15166   3.673   0.776   0.624 -0.1430 -0.3488  1.2742
  873MOL0     C15167   3.579   0.682   0.580  0.4454 -0.0846 -1.3943
  873MOL0     C15168   3.518   0.601   0.520  0.8079  0.0817 -0.0903
  873MOL0     C15169   4.309   0.616   0.486  0.1853 -0.3280  0.9181
  873MOL0     C15170   4.442   0.589   0.513  0.1752  0.0258  0.1558
  873MOL0     H15171   4.742   0.306   0.683  0.5119 -0.8470 -0.9810
  873MOL0     H15172   4.956   0.201   0.752  0.9867 -1.2440 -2.3370
  873MOL0     H15173   5.307   0.464   0.729  4.0456  1.6549 -2.2399
  873MOL0     H15174   5.357   0.352   0.603 -0.2704  1.6584 -0.4922
  873MOL0     H15175   5.435   0.193   0.773  1.9147 -0.9806  2.2423
  873MOL0     H15176   5.362   0.288   0.899 -0.5929  0.3886  0.1105
  873MOL0     H15177   5.600   0.331   0.913 -1.6302  1.3218  0.3611
  873MOL0     H15178   5.540   0.468   0.831 -0.7508 -1.2560  3.0648
  873MOL0     H15179   5.619   0.210   0.687  0.0226 -0.0795 -3.6615
  873MOL0     H15180   5.598   0.371   0.617 -0.5337 -0.8539  0.1499
  873MOL0     H15181   5.814   0.274   0.812 -1.4601 -3.4555 -3.2481
  873MOL0     H15182   5.807   0.441   0.752  2.6415 -0.2165  2.3113
  873MOL0     H15183   5.795   0.299   0.514 -1.1575  0.6362  0.4166
  873MOL0     H15184   5.896   0.196   0.606  2.0434  1.9339 -1.7125
  873MOL0     H15185   5.934   0.498   0.588 -0.5738 -0.1735 -0.9302
  873MOL0     H15186   6.039   0.377   0.662 -0.9046 -3.3219  0.0709
  873MOL0     H15187   6.087   0.270   0.446  1.4080 -0.0233  0.4992
  873MOL0     H15188   6.132   0.434   0.456  0.1002 -0.0683 -1.9686
  873MOL0     H15189   5.954   0.618   0.354 -0.6904 -1.7657  3.0695
  873MOL0     H15190   5.728   0.658   0.107 -1.3341  0.6716  0.2432
  873MOL0     H15191   5.712   0.689   0.276 -0.0418 -1.2739  1.4540
  873MOL0     H15192   5.578   0.457   0.134  0.2831 -0.5808  1.8052
  873MOL0     H15193   5.506   0.617   0.124 -1.5181 -0.0401  0.7769
  873MOL0     H15194   5.554   0.434   0.362 -0.9566 -0.4050 -1.5429
  873MOL0     H15195   5.516   0.615   0.384 -2.2083  0.9807 -1.1037
  873MOL0     H15196   5.322   0.473   0.408 -1.7779  3.5382  0.1636
  873MOL0     H15197   5.355   0.406   0.245  1.7263 -1.1910 -0.3977
  873MOL0     H15198   5.135   0.373   0.262 -4.2337 -2.7487  0.1032
  873MOL0     H15199   4.895   0.362   0.247 -1.3549  0.8404  0.9863
  873MOL0     H15200   4.511   0.892   0.262  0.7728 -1.0655 -1.7632
  873MOL0     H15201   4.275   0.936   0.208 -0.4607  0.0297  2.0042
  873MOL0     H15202   4.033   0.570   0.059 -0.3860 -0.0503 -0.1937
  873MOL0     H15203   4.038   0.703  -0.052  1.7182 -4.4963 -0.6323
  873MOL0     H15204   3.864   0.695   0.207  3.9907  1.6063  0.6560
  873MOL0     H15205   3.796   0.631   0.054  0.1644  0.5515 -0.2736
  873MOL0     H15206   3.851   0.872  -0.037  3.1610  0.4321  1.1575
  873MOL0     H15207   3.861   0.919   0.134  0.0689 -1.2349  1.6049
  873MOL0     H15208   3.646   0.972   0.034  3.8396  0.4703 -0.6468
  873MOL0     H15209   3.614   0.787   0.021  0.3134 -2.6159  3.3544
  873MOL0     H15210   3.664   0.939   0.269 -4.1719  2.4192  0.3344
  873MOL0     H15211   3.610   0.774   0.257  1.0632  0.8399  2.4449
  873MOL0     H15212   3.402   0.855   0.152 -0.2650  0.8121 -1.1821
  873MOL0     H15213   3.453   1.017   0.163  1.0389  0.8633 -0.6508
  873MOL0     H15214   3.478   0.883   0.424  0.3032 -0.3912 -0.2353
  873MOL0     H15215   3.391   1.030   0.393  1.7268 -0.3472  0.2210
  873MOL0     H15216   3.229   0.902   0.475 -0.1867  2.1193 -1.2013
  873MOL0     H15217   3.303   0.752   0.398 -3.3352 -0.3031  0.9093
  873MOL0     H15218   4.242   0.534   0.059  2.2876 -0.1414 -2.9946
  873MOL0     H15219   4.471   0.503   0.080  2.7897  2.4696 -2.3721
  873MOL0     H15220   4.889   0.783   0.167  1.4730  0.3012 -1.0251
  873MOL0     H15221   5.135   0.782   0.207  2.8383 -1.7647 -0.1399
  873MOL0     H15222   5.161   0.534   0.576  1.9349 -3.2194  0.2713
  873MOL0     H15223   4.954   0.644   0.510  3.3780  0.9566  1.8796
  873MOL0     H15224   4.527   0.886   0.657  0.7336 -0.5353 -1.7521
  873MOL0     H15225   4.275   0.921   0.636 -0.8446  0.5899 -1.3559
  873MOL0     H15226   4.032   0.569   0.571  1.9587  2.7955  2.3050
  873MOL0     H15227   4.054   0.609   0.401 -0.8265  0.1557 -0.2741
  873MOL0     H15228   3.886   0.789   0.425  1.6741 -0.2024  0.6115
  873MOL0     H15229   3.833   0.625   0.426 -1.5747  0.2432  2.0720
  873MOL0     H15230   3.887   0.755   0.682 -0.2437  0.5383  0.4686
  873MOL0     H15231   3.810   0.603   0.662 -1.1865 -0.4082 -0.8542
  873MOL0     H15232   3.652   0.806   0.727  0.0340 -0.5944  1.3841
  873MOL0     H15233   3.682   0.861   0.556  0.9456 -2.7499 -1.8316
  873MOL0     H15234   3.461   0.530   0.464 -0.2941  1.6069 -0.9528
  873MOL0     H15235   4.251   0.534   0.445 -0.5107  0.9919 -0.8666
  873MOL0     H15236   4.484   0.495   0.481 -0.9304  0.2219 -2.0438
  874MOL0     O15237   6.869   0.057   2.788 -0.0771 -0.1127  0.6167
  874MOL0     C15238   6.959   0.085   2.709 -0.3753 -0.7473  0.0210
  874MOL0     O15239   7.016   0.000   2.620  0.4771 -0.3594 -1.0565
  874MOL0     C15240   6.961  -0.121   2.604 -0.0430  1.1410  0.0972
  874MOL0     C15241   7.043  -0.234   2.607  0.1697 -0.2704 -1.1443
  874MOL0     C15242   6.982  -0.361   2.602 -0.5259  0.9741  0.1372
  874MOL0     C15243   6.837  -0.382   2.572 -0.5085 -0.8549 -0.0510
  874MOL0     O15244   6.782  -0.501   2.561  0.4762  0.5989 -0.1094
  874MOL0     C15245   6.832  -0.585   2.458 -0.2434 -0.4417 -0.2255
  874MOL0     C15246   6.728  -0.691   2.423  0.3854 -0.0526 -0.1998
  874MOL0     C15247   6.584  -0.648   2.389  1.2382 -0.0159  0.5417
  874MOL0     C15248   6.499  -0.625   2.516  0.3290  0.6817  0.6517
  874MOL0     C15249   6.364  -0.561   2.499  0.5597  0.0434  0.7816
  874MOL0     C15250   6.275  -0.662   2.431  0.6866  0.1592 -1.1217
  874MOL0     C15251   6.185  -0.735   2.523  0.6106  0.2112 -0.4048
  874MOL0     C15252   6.098  -0.837   2.448  0.2984 -0.6213  0.6962
  874MOL0     N15253   6.005  -0.892   2.549 -0.0507 -0.0257 -0.1432
  874MOL0     C15254   5.868  -0.861   2.556  0.4979 -0.9251  0.3211
  874MOL0     C15255   5.814  -0.958   2.628  0.3088  1.2044 -0.0242
  874MOL0     C15256   5.673  -0.992   2.651  0.0669 -0.5438 -0.3964
  874MOL0     C15257   5.600  -0.902   2.752  0.6397 -0.0341 -0.5466
  874MOL0     C15258   5.442  -0.924   2.760 -0.4695  0.6398 -0.2273
  874MOL0     C15259   5.389  -1.072   2.750 -0.3537 -0.1498  0.2153
  874MOL0     O15260   5.261  -1.111   2.816 -0.1459 -0.1276  0.3031
  874MOL0     C15261   5.141  -1.078   2.744  0.3279 -0.2088 -0.7569
  874MOL0     C15262   5.025  -1.120   2.810  0.7293 -0.0779  0.1979
  874MOL0     C15263   4.899  -1.100   2.752  0.8082 -0.6362  0.1207
  874MOL0     C15264   4.885  -1.041   2.619 -0.3316  0.3459 -0.4105
  874MOL0     C15265   4.752  -1.038   2.557 -0.1056  0.2800  0.4499
  874MOL0     O15266   4.648  -1.051   2.634 -0.4673 -0.1054 -0.3097
  874MOL0     C15267   4.526  -1.082   2.594  0.8621  0.5560  0.7408
  874MOL0     C15268   4.490  -1.214   2.595  0.1093  0.0293  0.5379
  874MOL0     C15269   4.363  -1.258   2.558  0.4639 -0.4770 -0.1021
  874MOL0     C15270   4.267  -1.164   2.536  0.9093  0.1145  0.0513
  874MOL0     O15271   4.134  -1.186   2.533  0.6066 -0.2208 -0.2743
  874MOL0     C15272   4.081  -1.282   2.628  0.3875  0.3345 -0.0147
  874MOL0     C15273   3.942  -1.229   2.674 -0.4327 -0.7792 -0.6795
  874MOL0     C15274   3.840  -1.218   2.563  0.5428 -0.2588 -0.5799
  874MOL0     C15275   3.792  -1.347   2.495  0.3816  0.0991 -0.2194
  874MOL0     C15276   3.716  -1.447   2.598 -0.6051 -0.0851  0.1177
  874MOL0     C15277   3.701  -1.581   2.533 -0.6760  0.8681 -1.2092
  874MOL0     C15278   3.609  -1.588   2.412  0.8136 -0.2064  0.2822
  874MOL0     C15279   3.457  -1.563   2.434  0.5589 -0.0586 -0.2430
  874MOL0    Cl15280   3.392  -1.714   2.490  0.0794 -0.0556  0.0149
  874MOL0     C15281   4.290  -1.026   2.534 -0.1946 -0.1252 -0.4445
  874MOL0     C15282   4.423  -0.989   2.559  0.6849 -0.3492  0.5342
  874MOL0     O15283   4.747  -1.028   2.433 -0.3444 -0.2110 -0.0851
  874MOL0     C15284   5.005  -1.001   2.551  1.5097  0.2945  0.0787
  874MOL0     C15285   5.127  -1.015   2.618 -0.0853  0.1837  0.3650
  874MOL0     N15286   5.921  -1.036   2.669  0.3010  0.7650 -0.5663
  874MOL0     N15287   6.043  -0.989   2.643  0.1859  0.3756  1.4635
  874MOL0     C15288   6.761  -0.265   2.572  0.9729 -0.5057  0.2336
  874MOL0     C15289   6.826  -0.134   2.577 -0.4571 -0.0047  0.6764
  874MOL0     C15290   7.021   0.217   2.695  0.6005  0.2140  0.4144
  874MOL0     C15291   6.969   0.333   2.756  0.4442  0.2379  0.4975
  874MOL0     C15292   7.031   0.456   2.769  0.2770 -0.3232  0.7349
  874MOL0     C15293   7.160   0.475   2.704 -0.8343  0.4249  0.5690
  874MOL0     O15294   7.251   0.578   2.694  0.4432 -0.0297  0.7356
  874MOL0     C15295   7.206   0.711   2.716  0.0976 -0.1065  0.2954
  874MOL0     C15296   7.206   0.790   2.583 -0.0592 -0.0427 -0.0495
  874MOL0     C15297   7.110   0.723   2.479  0.4192  0.4693  0.0312
  874MOL0     C15298   6.956   0.728   2.507  1.1218 -0.3185 -0.0399
  874MOL0     C15299   6.908   0.851   2.577  0.4108  0.1556  0.3267
  874MOL0     C15300   6.870   0.952   2.643 -0.7893  0.4716  0.4459
  874MOL0     C15301   7.206   0.362   2.633  0.3032 -0.7097 -0.3664
  874MOL0     C15302   7.141   0.236   2.628 -0.6299  0.1133  0.2570
  874MOL0     H15303   7.151  -0.234   2.624 -0.1604  0.9277  1.4800
  874MOL0     H15304   7.052  -0.443   2.612 -2.5675 -1.2574 -2.4850
  874MOL0     H15305   6.912  -0.649   2.497 -1.6611 -1.7821  0.6044
  874MOL0     H15306   6.859  -0.543   2.361 -0.3792 -0.3687 -0.2320
  874MOL0     H15307   6.729  -0.773   2.496 -0.6574  2.6280  3.0806
  874MOL0     H15308   6.763  -0.745   2.334  0.8376 -0.8386  0.4353
  874MOL0     H15309   6.531  -0.721   2.327  1.1351  0.2616  0.2997
  874MOL0     H15310   6.575  -0.555   2.331 -2.0346  0.6654  1.8886
  874MOL0     H15311   6.486  -0.720   2.568 -1.3270  1.5032  1.8254
  874MOL0     H15312   6.560  -0.560   2.580  6.5247 -2.6718 -1.0624
  874MOL0     H15313   6.379  -0.473   2.435  3.1768  0.3237  1.6337
  874MOL0     H15314   6.314  -0.537   2.593 -0.2461  0.0570  0.3546
  874MOL0     H15315   6.328  -0.740   2.375  0.3229 -1.4648  0.6734
  874MOL0     H15316   6.206  -0.614   2.361 -1.3657 -2.8305 -1.3466
  874MOL0     H15317   6.247  -0.786   2.598  1.0241 -1.8808 -2.0557
  874MOL0     H15318   6.125  -0.658   2.571  0.5546 -0.6954  1.0338
  874MOL0     H15319   6.163  -0.909   2.397 -1.0624 -0.2500 -1.6987
  874MOL0     H15320   6.046  -0.792   2.363  0.9444 -0.9180  0.1358
  874MOL0     H15321   5.813  -0.785   2.503 -0.4535 -2.6488 -1.2476
  874MOL0     H15322   5.677  -1.096   2.684  4.7336 -0.3882  0.1296
  874MOL0     H15323   5.618  -0.991   2.556 -1.2023  2.3927  0.2615
  874MOL0     H15324   5.621  -0.797   2.731  1.2179 -0.6140 -3.2036
  874MOL0     H15325   5.644  -0.924   2.850  0.4448  1.7352 -0.0259
  874MOL0     H15326   5.394  -0.879   2.846  2.0488 -0.6234  1.9919
  874MOL0     H15327   5.397  -0.876   2.673  3.5047 -1.0861 -3.6473
  874MOL0     H15328   5.459  -1.134   2.806 -1.6309 -2.5558 -0.6966
  874MOL0     H15329   5.382  -1.101   2.645 -2.0420  3.2771 -0.7632
  874MOL0     H15330   5.037  -1.183   2.897 -1.7523 -2.3633 -0.9478
  874MOL0     H15331   4.808  -1.133   2.802  2.0095 -0.7239  2.3369
  874MOL0     H15332   4.561  -1.289   2.628 -0.2945 -0.0162  1.3348
  874MOL0     H15333   4.341  -1.364   2.569 -0.4570 -0.4117 -1.1947
  874MOL0     H15334   4.148  -1.283   2.715  0.3401 -0.1832  0.0162
  874MOL0     H15335   4.076  -1.382   2.585 -0.8209 -0.5837  2.0733
  874MOL0     H15336   3.976  -1.132   2.712  0.5659 -1.3918  0.0188
  874MOL0     H15337   3.904  -1.286   2.759 -0.4321 -1.9764 -1.4623
  874MOL0     H15338   3.874  -1.140   2.495 -1.2278  0.4208 -0.7445
  874MOL0     H15339   3.748  -1.174   2.604  0.1256 -1.0146 -0.6753
  874MOL0     H15340   3.731  -1.320   2.408 -1.7223 -1.5861  0.6436
  874MOL0     H15341   3.873  -1.414   2.465  0.5557 -1.6205  3.6355
  874MOL0     H15342   3.622  -1.395   2.617  0.5669  2.7987 -1.3058
  874MOL0     H15343   3.785  -1.465   2.681  1.8196 -0.6542 -1.9045
  874MOL0     H15344   3.665  -1.649   2.611  1.9600  1.8302  1.0025
  874MOL0     H15345   3.798  -1.604   2.488 -0.7704 -0.1588 -0.9230
  874MOL0     H15346   3.653  -1.525   2.334 -0.7329 -0.8252 -1.1599
  874MOL0     H15347   3.610  -1.682   2.355  1.0000  1.7097 -3.1944
  874MOL0     H15348   3.417  -1.544   2.334 -1.2337 -0.9685  0.2644
  874MOL0     H15349   3.435  -1.487   2.510  0.5709 -1.9835  1.7916
  874MOL0     H15350   4.210  -0.956   2.515  0.1116  0.6871  1.0342
  874MOL0     H15351   4.445  -0.885   2.576  1.4622 -0.5991  1.1038
  874MOL0     H15352   5.003  -0.958   2.451 -1.4900 -3.4690 -1.7713
  874MOL0     H15353   5.218  -0.976   2.573 -1.7628  2.7448 -1.0009
  874MOL0     H15354   6.657  -0.288   2.549  1.0777 -1.6732  0.8090
  874MOL0     H15355   6.762  -0.047   2.565 -1.9405 -1.1128  0.2961
  874MOL0     H15356   6.885   0.331   2.825  1.6823  1.2152  2.1090
  874MOL0     H15357   6.972   0.525   2.828  1.8840  1.6506  0.1400
  874MOL0     H15358   7.258   0.773   2.790 -1.2848  0.1307  1.0960
  874MOL0     H15359   7.102   0.719   2.749  0.3846 -0.8299  1.4569
  874MOL0     H15360   7.172   0.890   2.613  0.4308 -0.4913  2.1144
  874MOL0     H15361   7.306   0.786   2.539 -0.2236 -3.1180 -0.3274
  874MOL0     H15362   7.136   0.616   2.473 -0.9824  0.1395 -0.4000
  874MOL0     H15363   7.132   0.790   2.396  2.7205  1.5606  1.4126
  874MOL0     H15364   6.898   0.723   2.414  1.7200  0.0200 -0.4392
  874MOL0     H15365   6.932   0.648   2.578  0.5506 -0.8762 -0.8560
  874MOL0     H15366   6.831   1.030   2.704 -1.2043  0.7371 -0.1530
  874MOL0     H15367   7.304   0.373   2.587 -0.1031 -0.4791 -1.2019
  874MOL0     H15368   7.196   0.158   2.576 -1.7765 -1.2294  0.9778
  875MOL0     O15369   4.815   3.278   3.540 -0.7752 -0.5777  0.1418
  875MOL0     C15370   4.918   3.348   3.510 -0.6096 -0.1603  0.1176
  875MOL0     O15371   4.917   3.446   3.415 -0.7356  0.0259 -0.1962
  875MOL0     C15372   4.790   3.469   3.359 -0.6381  0.0157  1.7467
  875MOL0     C15373   4.683   3.496   3.438 -0.6564  0.3146 -0.6592
  875MOL0     C15374   4.552   3.504   3.387 -0.3993 -0.2976  0.8243
  875MOL0     C15375   4.536   3.499   3.249 -0.4797  0.0749 -0.6197
  875MOL0     O15376   4.424   3.496   3.165  0.4941  0.7747  0.7417
  875MOL0     C15377   4.301   3.481   3.232  0.9543 -0.3638 -0.4001
  875MOL0     C15378   4.268   3.328   3.271  0.0191 -0.2636 -0.2501
  875MOL0     C15379   4.264   3.245   3.145 -0.3765  0.4721  0.0811
  875MOL0     C15380   4.221   3.100   3.175 -0.7056 -0.8117  0.0544
  875MOL0     C15381   4.195   3.018   3.050 -0.6252  0.1868  0.0651
  875MOL0     C15382   4.314   3.002   2.959  0.8014  0.2491  0.6883
  875MOL0     C15383   4.317   2.889   2.852  0.2833  0.0257 -0.1420
  875MOL0     C15384   4.196   2.901   2.750  0.1633  0.1035 -0.5614
  875MOL0     N15385   4.058   2.873   2.782 -0.9386  0.6743 -0.2640
  875MOL0     C15386   4.012   2.777   2.868  0.5583 -0.3932  0.4822
  875MOL0     C15387   3.877   2.801   2.882  0.0113  0.7458  0.5155
  875MOL0     C15388   3.764   2.721   2.957 -0.0861  0.8812 -0.1792
  875MOL0     C15389   3.631   2.799   2.986  0.0633 -0.2157  0.1702
  875MOL0     C15390   3.539   2.778   2.866 -0.1301  0.9475  0.2280
  875MOL0     C15391   3.438   2.882   2.855 -0.2906 -0.0693 -0.4147
  875MOL0     O15392   3.361   2.855   2.741 -0.4574 -0.1030  0.9420
  875MOL0     C15393   3.227   2.858   2.768  0.1000  0.0676 -0.5983
  875MOL0     C15394   3.162   2.956   2.697  1.1456  0.0583 -0.4768
  875MOL0     C15395   3.022   2.968   2.702  0.8203  0.2720 -0.0321
  875MOL0     C15396   2.951   2.874   2.780  0.3388 -0.3150 -0.4458
  875MOL0     C15397   2.804   2.878   2.772  0.8642 -0.1423  0.0653
  875MOL0     O15398   2.748   2.957   2.687 -0.1200  0.7332 -0.4034
  875MOL0     C15399   2.606   2.952   2.669 -0.4075 -0.2550 -1.3423
  875MOL0     C15400   2.518   3.021   2.755 -0.0013  0.3614 -0.3275
  875MOL0     C15401   2.380   3.002   2.740  0.1501  0.6747 -0.2256
  875MOL0     C15402   2.331   2.928   2.626  0.1773  0.1552 -0.1084
  875MOL0     O15403   2.203   2.916   2.598  0.3302  0.9011 -0.5607
  875MOL0     C15404   2.131   3.038   2.604  0.0269 -0.9372  0.6794
  875MOL0     C15405   2.170   3.135   2.483  0.3014  0.2102  1.3655
  875MOL0     C15406   2.164   3.038   2.348 -0.6961 -0.3428 -0.5749
  875MOL0     C15407   2.190   3.131   2.226  1.3168  0.1607  0.1521
  875MOL0     C15408   2.178   3.054   2.095  0.6839  0.5953  0.9920
  875MOL0     C15409   2.042   3.030   2.032 -0.1725 -0.7111 -0.1250
  875MOL0     C15410   1.966   3.157   2.008 -0.3387 -1.1220 -0.0204
  875MOL0     C15411   1.881   3.172   1.876 -0.2032 -0.4778 -1.0280
  875MOL0    Cl15412   1.756   3.044   1.873 -0.0129 -0.6397  0.1558
  875MOL0     C15413   2.426   2.866   2.543 -0.3644  0.4792 -0.3564
  875MOL0     C15414   2.561   2.874   2.572 -0.0801 -0.1498  0.1249
  875MOL0     O15415   2.750   2.819   2.863 -0.3225  0.4100  0.0663
  875MOL0     C15416   3.019   2.785   2.868  0.2086 -0.4035  0.3945
  875MOL0     C15417   3.158   2.778   2.866 -0.0399  0.2015 -0.4270
  875MOL0     N15418   3.849   2.902   2.793 -0.1777 -0.1112  0.4626
  875MOL0     N15419   3.957   2.946   2.735 -0.9450  0.4993 -0.4856
  875MOL0     C15420   4.649   3.483   3.166 -0.1893 -0.9120 -0.0435
  875MOL0     C15421   4.769   3.464   3.221  0.3873 -0.2332 -0.2571
  875MOL0     C15422   5.052   3.320   3.569  1.1204 -0.0431  0.8069
  875MOL0     C15423   5.173   3.368   3.511  0.7623 -0.4014 -0.1519
  875MOL0     C15424   5.297   3.338   3.574 -0.5494  0.7447 -0.0999
  875MOL0     C15425   5.301   3.260   3.687 -1.2263 -1.1917  0.3523
  875MOL0     O15426   5.421   3.237   3.748 -0.3180  0.0781  0.5398
  875MOL0     C15427   5.422   3.137   3.848 -0.0382  0.1093 -0.3424
  875MOL0     C15428   5.568   3.086   3.849 -0.4817  1.4384 -0.8836
  875MOL0     C15429   5.660   3.171   3.942  0.7481  0.8421 -1.0328
  875MOL0     C15430   5.814   3.134   3.934 -0.3762 -0.3564  0.0297
  875MOL0     C15431   5.899   3.240   3.980  0.1419  1.2510  0.5672
  875MOL0     C15432   5.976   3.323   4.019  0.3399 -0.1571  0.1421
  875MOL0     C15433   5.181   3.206   3.735  0.0543 -0.2009 -0.6610
  875MOL0     C15434   5.055   3.235   3.679  0.3252  0.1510 -0.5496
  875MOL0     H15435   4.695   3.506   3.545 -1.5118 -0.5423 -0.4672
  875MOL0     H15436   4.463   3.509   3.450 -0.9367  1.3474 -0.0381
  875MOL0     H15437   4.214   3.514   3.175 -2.1858 -0.9753  3.5510
  875MOL0     H15438   4.296   3.546   3.320  0.1818  2.1549 -2.1861
  875MOL0     H15439   4.173   3.326   3.325  0.4527  3.3759  0.9261
  875MOL0     H15440   4.338   3.294   3.348 -1.8365  2.3109  2.8608
  875MOL0     H15441   4.364   3.249   3.100 -0.9315 -0.9054 -1.3487
  875MOL0     H15442   4.201   3.282   3.064  1.0746 -1.8869 -2.2982
  875MOL0     H15443   4.295   3.057   3.243 -2.0128 -2.4186  0.5384
  875MOL0     H15444   4.128   3.105   3.233 -0.1380 -2.5622  1.2005
  875MOL0     H15445   4.107   3.048   2.991  0.1368  0.8443 -0.7698
  875MOL0     H15446   4.163   2.917   3.075  2.7628 -0.4567  2.3548
  875MOL0     H15447   4.386   2.961   3.030  0.3112 -1.4916  0.2205
  875MOL0     H15448   4.337   3.100   2.914  2.5799  0.0048  0.9698
  875MOL0     H15449   4.408   2.893   2.792 -0.2633  1.0864 -0.9452
  875MOL0     H15450   4.316   2.793   2.904  0.9892  0.4489  0.6675
  875MOL0     H15451   4.225   2.827   2.675 -0.5048  0.6362 -1.3517
  875MOL0     H15452   4.205   2.995   2.696  2.0921 -0.0698 -0.5876
  875MOL0     H15453   4.079   2.706   2.915  1.3424 -1.2827 -1.8714
  875MOL0     H15454   3.796   2.686   3.055 -1.1896 -1.7726 -0.6886
  875MOL0     H15455   3.752   2.625   2.906  0.2038  0.7265  0.0392
  875MOL0     H15456   3.658   2.903   3.007 -0.9733  0.7907 -2.9341
  875MOL0     H15457   3.583   2.753   3.073  2.1112 -0.8024  1.0618
  875MOL0     H15458   3.604   2.774   2.778  1.5764 -3.9667  1.4285
  875MOL0     H15459   3.495   2.678   2.862  0.8552  0.1015  4.9591
  875MOL0     H15460   3.471   2.984   2.833 -0.5738  0.2980  0.7724
  875MOL0     H15461   3.384   2.878   2.950  0.7332  0.9605  0.2372
  875MOL0     H15462   3.214   3.029   2.635  1.8550 -0.5070 -0.5533
  875MOL0     H15463   2.970   3.043   2.644  2.7095  1.8840  0.2569
  875MOL0     H15464   2.557   3.082   2.836  2.6320 -1.5798  0.0008
  875MOL0     H15465   2.307   3.041   2.810 -1.0812 -0.2373 -0.9587
  875MOL0     H15466   2.144   3.077   2.706  0.8954 -0.8674  0.5493
  875MOL0     H15467   2.025   3.011   2.598 -1.5966  4.4020 -0.2442
  875MOL0     H15468   2.267   3.185   2.474 -0.5905  1.5592 -4.0227
  875MOL0     H15469   2.091   3.211   2.482  0.1659  0.1072 -1.2837
  875MOL0     H15470   2.064   2.995   2.343 -1.9430  2.3172 -0.1044
  875MOL0     H15471   2.249   2.970   2.346  1.1635  1.8609 -0.9823
  875MOL0     H15472   2.113   3.209   2.222  0.6265 -0.4836  0.5295
  875MOL0     H15473   2.282   3.181   2.255  0.2473  1.6575  1.1025
  875MOL0     H15474   2.210   2.952   2.119  0.5913 -0.1794 -1.7870
  875MOL0     H15475   2.238   3.093   2.012 -2.9885  2.3296 -1.0590
  875MOL0     H15476   1.981   2.953   2.080 -1.2547 -1.2755 -2.2640
  875MOL0     H15477   2.045   2.981   1.934 -2.2172  1.2927 -1.2963
  875MOL0     H15478   1.892   3.162   2.089  2.2311  2.9041  2.4613
  875MOL0     H15479   2.031   3.244   2.025 -0.9797 -0.3721 -1.2292
  875MOL0     H15480   1.951   3.168   1.792  1.8985 -2.9665  0.6870
  875MOL0     H15481   1.829   3.268   1.884  2.5713  1.0249  0.9701
  875MOL0     H15482   2.397   2.820   2.449 -1.9128  0.2719  0.1954
  875MOL0     H15483   2.633   2.824   2.509 -0.7337 -0.5108 -0.3499
  875MOL0     H15484   2.968   2.715   2.934  0.8414 -1.0465  0.2070
  875MOL0     H15485   3.214   2.706   2.923 -0.4563  0.7687  0.7279
  875MOL0     H15486   4.632   3.492   3.059  1.2342  0.2206 -0.2079
  875MOL0     H15487   4.856   3.438   3.161  0.2777 -1.2656  0.0201
  875MOL0     H15488   5.183   3.435   3.427  1.8463  1.4486  1.3591
  875MOL0     H15489   5.387   3.387   3.536 -0.3088  0.0663 -0.4256
  875MOL0     H15490   5.361   3.050   3.822 -2.1311  0.4243  2.9686
  875MOL0     H15491   5.393   3.180   3.944 -0.8564  0.2360 -0.6360
  875MOL0     H15492   5.558   2.987   3.895 -0.1319  0.3239 -3.0413
  875MOL0     H15493   5.609   3.065   3.750 -0.6266 -2.5200 -0.2595
  875MOL0     H15494   5.625   3.167   4.045  3.3317  0.9388 -0.0758
  875MOL0     H15495   5.658   3.275   3.911 -0.5016  2.0172  2.5136
  875MOL0     H15496   5.823   3.039   3.988  1.6002 -2.0496 -3.0213
  875MOL0     H15497   5.837   3.125   3.828  0.5165  1.3725  0.0305
  875MOL0     H15498   6.041   3.387   4.076 -0.7251  1.6199 -0.5595
  875MOL0     H15499   5.177   3.127   3.810  1.7246 -0.8929 -1.2580
  875MOL0     H15500   4.971   3.182   3.724  1.1692  0.2054  1.1486
  876MOL0     O15501   8.528   8.335  11.230  0.0020 -0.1610  0.0873
  876MOL0     C15502   8.515   8.421  11.147  0.3846  0.2421  0.0089
  876MOL0     O15503   8.395   8.470  11.100 -0.1341 -0.5440  0.4437
  876MOL0     C15504   8.278   8.407  11.118  0.8772 -0.1527 -0.0760
  876MOL0     C15505   8.217   8.387  11.241 -0.5132  0.4246 -0.2329
  876MOL0     C15506   8.088   8.330  11.243 -0.3828 -0.1652 -0.7217
  876MOL0     C15507   8.031   8.284  11.120  0.2007 -0.1424 -0.6332
  876MOL0     O15508   7.914   8.218  11.116  0.0903  0.5321 -0.5581
  876MOL0     C15509   7.871   8.131  11.221  1.0341  0.2769 -0.0419
  876MOL0     C15510   7.761   8.224  11.282  0.1002 -0.0873 -0.4655
  876MOL0     C15511   7.723   8.182  11.426  0.4795 -0.2580  0.0307
  876MOL0     C15512   7.589   8.226  11.474  0.5935 -0.9043 -0.7634
  876MOL0     C15513   7.581   8.215  11.626  0.0949 -0.2335  0.5555
  876MOL0     C15514   7.452   8.275  11.696  0.7639 -0.0891 -0.4590
  876MOL0     C15515   7.322   8.186  11.686 -0.4339 -0.2603  0.9112
  876MOL0     C15516   7.228   8.199  11.815 -0.6654  0.3373  0.6487
  876MOL0     N15517   7.096   8.146  11.795  0.7675  0.2648  0.3651
  876MOL0     C15518   6.972   8.184  11.857  0.0643  0.5284  0.0218
  876MOL0     C15519   6.879   8.108  11.803 -0.5964  0.4234 -0.0061
  876MOL0     C15520   6.734   8.115  11.838 -0.6687 -0.4505 -0.3082
  876MOL0     C15521   6.651   8.112  11.707  0.3416  0.2962  0.4464
  876MOL0     C15522   6.509   8.142  11.732  0.0320  0.4074 -0.0353
  876MOL0     C15523   6.440   8.061  11.846 -0.2449 -0.3127 -0.2958
  876MOL0     O15524   6.309   8.110  11.851 -0.0787  0.5085 -0.1009
  876MOL0     C15525   6.211   8.045  11.933  0.3886 -0.3566 -1.3945
  876MOL0     C15526   6.236   7.945  12.034  0.3291  0.3153 -0.2920
  876MOL0     C15527   6.132   7.904  12.114  0.1299 -0.6234 -0.1058
  876MOL0     C15528   6.003   7.955  12.099  0.0607 -0.7117  1.0009
  876MOL0     C15529   5.891   7.916  12.189 -1.2028  0.3300  0.4100
  876MOL0     O15530   5.873   7.782  12.211 -1.2500  0.5888 -1.2258
  876MOL0     C15531   5.760   7.750  12.285 -0.1557  0.4100  1.3252
  876MOL0     C15532   5.636   7.746  12.229 -0.0903 -0.4887 -0.5565
  876MOL0     C15533   5.516   7.717  12.302  0.6901  0.1212  0.4561
  876MOL0     C15534   5.530   7.673  12.432 -0.8625 -0.1385 -0.8514
  876MOL0     O15535   5.410   7.636  12.483  0.0789 -0.6564 -0.1991
  876MOL0     C15536   5.393   7.647  12.630  1.7167 -0.2247 -0.5581
  876MOL0     C15537   5.251   7.599  12.652  0.2858  0.4260  0.1105
  876MOL0     C15538   5.241   7.445  12.624  0.5929  0.3307 -0.0959
  876MOL0     C15539   5.096   7.389  12.630  1.3394  0.5944  0.3884
  876MOL0     C15540   5.089   7.229  12.614  0.8235  0.1533  0.2239
  876MOL0     C15541   4.948   7.164  12.618 -0.2000  0.2625  0.0242
  876MOL0     C15542   4.967   7.010  12.643 -0.3401  0.3146  0.2022
  876MOL0     C15543   5.028   6.953  12.774 -0.3655 -0.4579 -0.0115
  876MOL0    Cl15544   5.057   6.782  12.769  0.0400  0.3964  0.2345
  876MOL0     C15545   5.659   7.665  12.491 -0.2784  0.5733 -0.4692
  876MOL0     C15546   5.772   7.696  12.415 -0.2663  0.4156  0.2066
  876MOL0     O15547   5.819   8.003  12.226 -0.5601  1.1436 -0.3380
  876MOL0     C15548   5.974   8.054  12.003 -0.7233  0.1777  0.4786
  876MOL0     C15549   6.081   8.096  11.920 -0.2455  0.3804 -0.2114
  876MOL0     N15550   6.936   8.024  11.713 -0.6399 -0.5187 -0.1553
  876MOL0     N15551   7.061   8.041  11.710  0.1595  0.1406 -0.3038
  876MOL0     C15552   8.109   8.287  11.000  0.8431 -0.5478 -0.6438
  876MOL0     C15553   8.229   8.360  11.004 -0.0762 -0.1201  0.1264
  876MOL0     C15554   8.629   8.494  11.095  0.3103 -0.1973 -0.1207
  876MOL0     C15555   8.624   8.570  10.977 -0.6641 -0.1526 -0.8505
  876MOL0     C15556   8.742   8.627  10.932 -0.3371 -0.6702 -0.0194
  876MOL0     C15557   8.867   8.614  11.000 -0.6278  0.0071  0.2648
  876MOL0     O15558   8.981   8.678  10.951  0.1828 -0.1886  0.0271
  876MOL0     C15559   9.037   8.620  10.833  0.6277  0.1527  0.4062
  876MOL0     C15560   9.172   8.672  10.783  0.3485 -1.2373 -0.5726
  876MOL0     C15561   9.263   8.689  10.902 -0.2861  1.1772  0.0891
  876MOL0     C15562   9.412   8.717  10.869  0.2760  0.2683 -1.2834
  876MOL0     C15563   9.466   8.809  10.973 -0.2272 -0.1510 -0.0854
  876MOL0     C15564   9.511   8.888  11.058  0.1336  0.0207 -0.3703
  876MOL0     C15565   8.864   8.558  11.121  0.4234  0.0614  0.0120
  876MOL0     C15566   8.750   8.481  11.166 -0.6261 -0.2475 -0.6324
  876MOL0     H15567   8.264   8.424  11.332  0.0625  3.2108 -1.5784
  876MOL0     H15568   8.037   8.318  11.338 -2.0147 -0.0082 -1.5378
  876MOL0     H15569   7.951   8.114  11.293  0.4628  2.0306  1.0818
  876MOL0     H15570   7.820   8.039  11.192  1.1608 -0.2700  1.4155
  876MOL0     H15571   7.671   8.200  11.225  0.5927 -3.5880  0.0034
  876MOL0     H15572   7.787   8.330  11.283 -0.4731  0.1125  1.9987
  876MOL0     H15573   7.801   8.218  11.494 -0.3316  0.9991  0.3405
  876MOL0     H15574   7.724   8.073  11.423  1.8802 -0.2771  0.3628
  876MOL0     H15575   7.572   8.332  11.452 -2.3852 -0.9530  0.7934
  876MOL0     H15576   7.514   8.163  11.425 -0.0719 -1.1543  0.5177
  876MOL0     H15577   7.668   8.277  11.653  0.3714 -0.4098  0.0742
  876MOL0     H15578   7.585   8.113  11.665 -0.9203 -0.8921 -0.9816
  876MOL0     H15579   7.444   8.382  11.674  0.6729  0.4233  1.8395
  876MOL0     H15580   7.486   8.290  11.798 -1.7465 -1.2790  0.6466
  876MOL0     H15581   7.269   8.206  11.593  0.3729 -0.4022  0.4159
  876MOL0     H15582   7.345   8.079  11.688  0.8390 -0.0008  2.4753
  876MOL0     H15583   7.210   8.303  11.840 -0.1238  0.3329  1.0696
  876MOL0     H15584   7.271   8.149  11.902 -0.1169 -0.5796 -0.1187
  876MOL0     H15585   6.955   8.263  11.928  2.6493  1.0358  0.1721
  876MOL0     H15586   6.713   8.202  11.901  0.6291 -0.3361  0.0013
  876MOL0     H15587   6.686   8.035  11.894 -1.9356 -1.5988 -2.8843
  876MOL0     H15588   6.661   8.014  11.659 -1.1124  0.6079 -0.5519
  876MOL0     H15589   6.687   8.189  11.639 -0.8479 -1.2105 -2.0344
  876MOL0     H15590   6.507   8.246  11.767  1.3171 -0.2531  2.1827
  876MOL0     H15591   6.456   8.122  11.639 -0.1634 -0.0416  0.1682
  876MOL0     H15592   6.490   8.078  11.942 -1.2210 -3.2308  0.8409
  876MOL0     H15593   6.445   7.955  11.819 -2.2290 -0.6283  0.3791
  876MOL0     H15594   6.338   7.913  12.049 -0.5694 -2.9498 -0.3485
  876MOL0     H15595   6.147   7.840  12.200  0.5800 -2.4782 -1.4887
  876MOL0     H15596   5.637   7.775  12.124 -0.0472 -1.3702 -0.8061
  876MOL0     H15597   5.417   7.706  12.259  1.7806 -4.3307 -1.4703
  876MOL0     H15598   5.401   7.750  12.665 -0.6592 -0.4764  0.9436
  876MOL0     H15599   5.467   7.579  12.672 -0.7008 -0.9578  2.9786
  876MOL0     H15600   5.185   7.645  12.577 -1.1237 -2.5860 -0.6652
  876MOL0     H15601   5.206   7.634  12.745 -1.6655 -0.3371 -0.4828
  876MOL0     H15602   5.290   7.403  12.712  0.0992  0.1647  0.1055
  876MOL0     H15603   5.289   7.405  12.534 -0.5368 -1.2371 -0.0392
  876MOL0     H15604   5.046   7.424  12.720  2.5107  2.3690  0.3853
  876MOL0     H15605   5.043   7.439  12.549  1.0116  2.0208  1.4566
  876MOL0     H15606   5.135   7.186  12.703 -0.3817  0.6342  1.0996
  876MOL0     H15607   5.143   7.201  12.522  1.0775  0.1617  0.3681
  876MOL0     H15608   4.898   7.184  12.523 -0.8049 -0.6595  0.1445
  876MOL0     H15609   4.899   7.215  12.701 -0.7280  1.0016 -0.7215
  876MOL0     H15610   4.872   6.956  12.638  0.4433 -1.4654  2.7156
  876MOL0     H15611   5.039   6.984  12.565 -0.0730 -0.9929  0.8665
  876MOL0     H15612   4.964   6.968  12.861  1.9715  1.5648  1.4852
  876MOL0     H15613   5.129   6.992  12.784 -0.5502  1.1471 -3.1273
  876MOL0     H15614   5.668   7.619  12.589  0.6403 -1.3476 -1.3926
  876MOL0     H15615   5.873   7.680  12.453 -0.9397 -1.6437  1.2710
  876MOL0     H15616   5.871   8.084  11.988 -0.5232  0.5806 -0.1157
  876MOL0     H15617   6.076   8.166  11.838  1.5781 -0.4272 -1.0910
  876MOL0     H15618   8.070   8.254  10.904  2.6539 -2.1692 -0.8826
  876MOL0     H15619   8.287   8.386  10.915  1.5595 -0.7426  0.9724
  876MOL0     H15620   8.537   8.566  10.912 -0.5728 -2.0090 -0.9206
  876MOL0     H15621   8.756   8.681  10.839  1.9169 -0.5071  0.3453
  876MOL0     H15622   8.958   8.611  10.758 -0.7748 -2.8569  2.0538
  876MOL0     H15623   9.052   8.514  10.855  0.3972 -0.6200 -2.7294
  876MOL0     H15624   9.204   8.591  10.716 -0.9557 -2.4803  0.2476
  876MOL0     H15625   9.160   8.766  10.728  0.1078 -0.0230  1.4904
  876MOL0     H15626   9.265   8.600  10.965  5.2190  2.1885  1.8673
  876MOL0     H15627   9.232   8.771  10.967 -1.8817  0.2689  0.5080
  876MOL0     H15628   9.465   8.624  10.892 -3.1197 -1.5365 -0.0938
  876MOL0     H15629   9.421   8.743  10.763  0.0393 -0.8706 -1.6006
  876MOL0     H15630   9.524   8.968  11.127  0.0991  0.4042 -0.8080
  876MOL0     H15631   8.958   8.550  11.176 -0.1342  0.3280  1.0397
  876MOL0     H15632   8.751   8.424  11.258 -1.8596  1.0536  0.2262
  877MOL0     O15633   6.533  10.725   0.015 -0.0634  0.0051  0.1059
  877MOL0     C15634   6.626  10.687   0.085  0.0806 -0.3603  0.3498
  877MOL0     O15635   6.621  10.632   0.209 -0.4721 -0.5374 -0.2764
  877MOL0     C15636   6.500  10.569   0.251 -0.2061 -0.0360 -0.4063
  877MOL0     C15637   6.423  10.495   0.164 -0.1344  0.7420 -0.0810
  877MOL0     C15638   6.305  10.426   0.205  0.2070  0.1912  0.3887
  877MOL0     C15639   6.276  10.429   0.348 -0.5731  0.6628  0.2170
  877MOL0     O15640   6.188  10.336   0.397 -0.1071 -0.6894  0.1436
  877MOL0     C15641   6.121  10.360   0.523 -0.5092  0.7394 -0.2089
  877MOL0     C15642   5.983  10.314   0.540  1.1216  0.3328 -1.1022
  877MOL0     C15643   5.888  10.376   0.434  0.6675  0.6152 -0.4164
  877MOL0     C15644   5.759  10.298   0.422  0.1199 -0.1743  0.0918
  877MOL0     C15645   5.646  10.364   0.339 -0.5675 -0.1831 -0.5070
  877MOL0     C15646   5.566  10.469   0.420  0.4528  0.2917  0.2269
  877MOL0     C15647   5.431  10.499   0.355  0.7190  0.1143 -0.0724
  877MOL0     C15648   5.336  10.377   0.342  0.3039 -0.1153 -0.2918
  877MOL0     N15649   5.189  10.422   0.339  0.6428  1.5759 -0.1662
  877MOL0     C15650   5.083  10.358   0.269  0.3660 -0.2540 -0.2642
  877MOL0     C15651   4.972  10.428   0.307  0.2232  0.0945  0.5736
  877MOL0     C15652   4.836  10.382   0.255 -0.2881 -0.8634 -0.0749
  877MOL0     C15653   4.762  10.305   0.369  0.3265 -0.1933  0.8695
  877MOL0     C15654   4.642  10.227   0.330  0.8035 -0.2512  0.1971
  877MOL0     C15655   4.540  10.283   0.224 -1.2655  0.9215  0.2307
  877MOL0     O15656   4.454  10.175   0.195 -1.2857  0.1023  0.2054
  877MOL0     C15657   4.325  10.217   0.195  0.9674  0.0436  0.0308
  877MOL0     C15658   4.264  10.283   0.093  0.1115 -0.5602 -1.0918
  877MOL0     C15659   4.131  10.319   0.102 -0.0074  0.4412 -0.3062
  877MOL0     C15660   4.059  10.298   0.217  0.0451  0.4490  0.5382
  877MOL0     C15661   3.917  10.331   0.237 -0.3741 -0.4142  0.8657
  877MOL0     O15662   3.862  10.351   0.118  0.8858 -0.2854 -0.0230
  877MOL0     C15663   3.735  10.409   0.092 -0.2279 -1.5072  0.6165
  877MOL0     C15664   3.621  10.419   0.177  0.0089  0.9143  0.5360
  877MOL0     C15665   3.494  10.445   0.138 -0.2745 -0.3576 -0.0670
  877MOL0     C15666   3.474  10.478  -0.001  0.2079 -0.0545 -0.5813
  877MOL0     O15667   3.351  10.511  -0.055  0.6020  0.4645 -0.8095
  877MOL0     C15668   3.246  10.554   0.043  0.7261 -0.0604 -0.6140
  877MOL0     C15669   3.123  10.612  -0.037  0.6432 -0.1907 -0.3207
  877MOL0     C15670   3.002  10.639   0.055 -1.4172  0.4432  0.4754
  877MOL0     C15671   2.869  10.691  -0.006  0.1320  0.5483  0.0464
  877MOL0     C15672   2.762  10.704   0.111 -0.6483 -0.4376  0.0576
  877MOL0     C15673   2.634  10.759   0.055  0.2044  0.1144 -0.4651
  877MOL0     C15674   2.526  10.745   0.169  0.8076 -0.2456 -0.9491
  877MOL0     C15675   2.408  10.838   0.145  0.1048  0.0845 -0.1057
  877MOL0    Cl15676   2.269  10.793   0.256 -0.1371 -0.0097  0.2249
  877MOL0     C15677   3.588  10.471  -0.081  0.0900  0.1367  0.5832
  877MOL0     C15678   3.709  10.439  -0.042  0.4693 -0.4064 -0.6746
  877MOL0     O15679   3.874  10.362   0.352  0.1089  0.1685  0.5064
  877MOL0     C15680   4.118  10.216   0.315  0.1545  0.6057  0.3245
  877MOL0     C15681   4.256  10.176   0.306 -0.3368 -0.3165  0.1957
  877MOL0     N15682   5.007  10.540   0.382 -0.8188 -0.1678 -0.5996
  877MOL0     N15683   5.137  10.525   0.408 -0.6212  0.4428 -0.4858
  877MOL0     C15684   6.352  10.502   0.435 -0.3033 -0.6724  0.9783
  877MOL0     C15685   6.458  10.571   0.386  0.0981 -1.3680  0.4549
  877MOL0     C15686   6.750  10.759   0.049 -0.3289 -0.3035 -1.0084
  877MOL0     C15687   6.877  10.707   0.093 -0.0732 -0.0110 -1.2818
  877MOL0     C15688   7.004  10.764   0.063 -0.2125 -0.1574  0.6946
  877MOL0     C15689   7.005  10.890  -0.005 -0.0921 -0.5673  0.3582
  877MOL0     O15690   7.117  10.946  -0.049  0.6814 -0.4401  0.1181
  877MOL0     C15691   7.219  10.971   0.047  0.8716 -0.2043 -0.7277
  877MOL0     C15692   7.180  11.081   0.146  0.1056 -0.1169  0.8816
  877MOL0     C15693   7.252  11.087   0.276  0.0341  0.4689 -0.1459
  877MOL0     C15694   7.396  11.113   0.266 -0.4607  0.6749 -0.0910
  877MOL0     C15695   7.448  11.242   0.213 -0.2061 -0.0555 -0.2940
  877MOL0     C15696   7.489  11.348   0.172  0.9782 -0.0357  0.4823
  877MOL0     C15697   6.881  10.947  -0.038  0.5229 -0.2796  0.2501
  877MOL0     C15698   6.755  10.880  -0.019  0.8366 -0.3443 -0.0214
  877MOL0     H15699   6.443  10.472   0.060 -0.0213  2.1198 -0.3875
  877MOL0     H15700   6.250  10.363   0.135  1.9464  0.9424 -1.7591
  877MOL0     H15701   6.110  10.467   0.543 -2.2636  0.2350  1.9607
  877MOL0     H15702   6.169  10.307   0.605  3.1576  1.3718 -1.7664
  877MOL0     H15703   5.946  10.325   0.642 -1.8833 -0.8761 -1.9436
  877MOL0     H15704   5.976  10.207   0.518  0.8493  0.1521 -0.1670
  877MOL0     H15705   5.935  10.373   0.335 -0.1484  1.8457 -0.8680
  877MOL0     H15706   5.872  10.479   0.467 -1.7910 -0.4784  2.2512
  877MOL0     H15707   5.779  10.208   0.364 -3.1307 -0.4073 -0.8631
  877MOL0     H15708   5.727  10.280   0.525  1.4943  3.4268  1.3123
  877MOL0     H15709   5.572  10.289   0.308 -2.8091  0.6447  2.2957
  877MOL0     H15710   5.694  10.416   0.256  1.8472  1.1329  1.5797
  877MOL0     H15711   5.623  10.559   0.445  0.0695  0.8474 -0.8751
  877MOL0     H15712   5.539  10.427   0.518 -2.6696 -0.7559 -0.9467
  877MOL0     H15713   5.380  10.562   0.429 -0.6154 -1.3343  0.3130
  877MOL0     H15714   5.441  10.547   0.257  1.6089 -1.7872 -0.9674
  877MOL0     H15715   5.357  10.310   0.425 -2.8396  0.1014  0.8339
  877MOL0     H15716   5.350  10.329   0.245 -0.7717 -0.6430 -0.2056
  877MOL0     H15717   5.095  10.267   0.212 -0.5320 -1.4959  1.4660
  877MOL0     H15718   4.836  10.314   0.169 -0.7974 -2.8971  1.4508
  877MOL0     H15719   4.785  10.474   0.225  1.5380  1.1235  2.4308
  877MOL0     H15720   4.733  10.386   0.436 -0.8637  0.3901 -0.3091
  877MOL0     H15721   4.827  10.236   0.425  1.6862  0.8143  0.5914
  877MOL0     H15722   4.659  10.122   0.303  0.8340  0.2307 -1.8439
  877MOL0     H15723   4.582  10.218   0.421 -1.6203  1.8033 -1.0400
  877MOL0     H15724   4.585  10.323   0.133  0.9830 -1.4500  0.1824
  877MOL0     H15725   4.484  10.360   0.277 -0.4288  1.4786  0.3111
  877MOL0     H15726   4.335  10.317   0.018 -0.3049  0.1724 -1.1660
  877MOL0     H15727   4.088  10.371   0.017 -0.4535  0.9742  0.2340
  877MOL0     H15728   3.636  10.400   0.283  0.3342 -1.0422  0.1710
  877MOL0     H15729   3.416  10.438   0.213  0.8138 -2.6935  0.9332
  877MOL0     H15730   3.282  10.631   0.111 -0.1580  0.0437 -0.2429
  877MOL0     H15731   3.208  10.472   0.106  1.4751  0.8034  1.0152
  877MOL0     H15732   3.106  10.543  -0.120  3.5087  0.6497 -1.7354
  877MOL0     H15733   3.157  10.707  -0.079  0.4358 -0.8605 -2.1146
  877MOL0     H15734   3.049  10.724   0.106  3.2956  0.7109 -3.5526
  877MOL0     H15735   2.983  10.556   0.123  0.0012  0.6204  1.1252
  877MOL0     H15736   2.904  10.779  -0.060  3.3993 -3.3052 -5.1852
  877MOL0     H15737   2.829  10.614  -0.072 -3.0639 -0.0731  2.4392
  877MOL0     H15738   2.810  10.774   0.180  0.1081 -0.5834 -0.3114
  877MOL0     H15739   2.739  10.608   0.157  0.0695 -0.9795 -0.6697
  877MOL0     H15740   2.603  10.694  -0.028  0.3467  0.2770 -0.6482
  877MOL0     H15741   2.650  10.859   0.013  2.6796 -0.3827 -0.9077
  877MOL0     H15742   2.488  10.643   0.177  0.1153  0.1239  0.9614
  877MOL0     H15743   2.575  10.778   0.261 -3.0649  2.8976  0.2784
  877MOL0     H15744   2.373  10.826   0.041  1.3720 -1.3132 -0.4056
  877MOL0     H15745   2.437  10.943   0.159 -3.2806  1.1899 -0.4272
  877MOL0     H15746   3.585  10.482  -0.189 -1.7544 -2.2207  0.3032
  877MOL0     H15747   3.790  10.439  -0.115  1.8367 -1.3157  0.7731
  877MOL0     H15748   4.063  10.191   0.405  0.0125  0.3858  0.1799
  877MOL0     H15749   4.307  10.116   0.381  0.3889 -0.8697 -0.7208
  877MOL0     H15750   6.332  10.497   0.542  0.0748  1.0157  1.1598
  877MOL0     H15751   6.522  10.630   0.451  1.6885  1.7537 -3.5050
  877MOL0     H15752   6.875  10.618   0.154  3.6515 -0.9746 -2.3513
  877MOL0     H15753   7.098  10.715   0.088  2.0378  3.2942 -0.2500
  877MOL0     H15754   7.304  11.001  -0.015  1.2257 -1.4492 -0.8654
  877MOL0     H15755   7.244  10.881   0.103 -2.7758 -1.1506 -0.3591
  877MOL0     H15756   7.192  11.177   0.096  2.3386 -1.4442 -1.3920
  877MOL0     H15757   7.073  11.076   0.168  0.3786  2.4394  3.2922
  877MOL0     H15758   7.240  10.990   0.325  1.2375  2.0507  3.6473
  877MOL0     H15759   7.207  11.164   0.340 -2.2621 -0.1082 -0.9750
  877MOL0     H15760   7.432  11.109   0.370  1.2101  1.5132 -0.5974
  877MOL0     H15761   7.443  11.043   0.197  0.7163  0.8185  0.5389
  877MOL0     H15762   7.531  11.437   0.130 -1.9846  0.5121 -1.5798
  877MOL0     H15763   6.879  11.040  -0.094  0.7199 -1.1153 -1.1943
  877MOL0     H15764   6.666  10.918  -0.066  2.6244  2.8739 -1.0848
  878MOL0     O15765   3.403   1.914  10.571 -0.5140 -0.4279 -0.2971
  878MOL0     C15766   3.331   2.009  10.549 -0.6994 -0.5964  0.4527
  878MOL0     O15767   3.209   1.996  10.503 -0.8999 -0.6724  0.6667
  878MOL0     C15768   3.156   1.878  10.452 -0.4159  0.3646 -0.1783
  878MOL0     C15769   3.154   1.763  10.527  0.5848  0.2302 -0.8036
  878MOL0     C15770   3.081   1.653  10.479 -0.4773 -0.3999  0.0771
  878MOL0     C15771   3.013   1.656  10.354  0.2316 -0.8495 -0.4891
  878MOL0     O15772   2.933   1.555  10.311  0.2996 -0.2733 -0.0588
  878MOL0     C15773   2.807   1.554  10.378 -0.3924 -0.4384 -0.4791
  878MOL0     C15774   2.727   1.435  10.332 -1.2795 -1.0554  0.5023
  878MOL0     C15775   2.647   1.354  10.434  0.5028 -0.2785 -0.2612
  878MOL0     C15776   2.525   1.288  10.380 -0.1614  0.5128  0.1732
  878MOL0     C15777   2.455   1.178  10.459 -0.3882  0.1288 -0.2173
  878MOL0     C15778   2.313   1.164  10.402 -0.5610  0.3193 -0.0758
  878MOL0     C15779   2.251   1.031  10.424 -0.1461 -0.5560  0.1286
  878MOL0     C15780   2.208   1.010  10.570  0.7782 -0.1279  1.2216
  878MOL0     N15781   2.166   0.878  10.603 -0.7791 -0.2284  0.6593
  878MOL0     C15782   2.034   0.835  10.594  0.5349 -0.1410  0.2193
  878MOL0     C15783   2.040   0.718  10.652  0.4977 -0.3136  0.0134
  878MOL0     C15784   1.928   0.613  10.648  0.1470 -0.4795 -0.8284
  878MOL0     C15785   1.903   0.586  10.503 -0.7372 -0.1487 -0.0616
  878MOL0     C15786   1.836   0.453  10.479 -0.0996 -0.1328  0.4549
  878MOL0     C15787   1.699   0.451  10.532  0.6368  0.1094  0.4924
  878MOL0     O15788   1.648   0.325  10.509 -1.0633  0.9121 -0.3912
  878MOL0     C15789   1.524   0.318  10.450 -0.9938  0.7066 -0.4360
  878MOL0     C15790   1.477   0.362  10.326 -0.9747  0.4692 -0.3147
  878MOL0     C15791   1.340   0.351  10.286 -0.6908  1.6215 -0.4227
  878MOL0     C15792   1.256   0.286  10.367 -0.3668  0.2768 -0.0883
  878MOL0     C15793   1.113   0.278  10.326  0.3153 -0.7807  0.4602
  878MOL0     O15794   1.026   0.277  10.426  0.3112  0.3344  0.1793
  878MOL0     C15795   0.893   0.252  10.411  0.5420 -0.9758  0.0437
  878MOL0     C15796   0.820   0.248  10.528 -0.6287 -0.0483  0.1370
  878MOL0     C15797   0.678   0.226  10.532 -1.2434  0.8781 -0.1809
  878MOL0     C15798   0.614   0.200  10.414  0.5078  0.0549  0.0954
  878MOL0     O15799   0.488   0.164  10.386 -0.1027  0.2725 -0.5045
  878MOL0     C15800   0.387   0.192  10.485 -0.2034  0.3884  0.7227
  878MOL0     C15801   0.237   0.193  10.439  1.0361 -0.0480  0.5385
  878MOL0     C15802   0.210   0.316  10.349  0.0095  1.1876  1.1210
  878MOL0     C15803   0.280   0.330  10.210  0.2364 -0.3001  0.4990
  878MOL0     C15804   0.384   0.442  10.196 -0.2368 -0.2124  1.1459
  878MOL0     C15805   0.472   0.457  10.064  0.0024 -0.1483  0.1810
  878MOL0     C15806   0.613   0.517  10.110 -0.8595  0.1195  0.1689
  878MOL0     C15807   0.718   0.504   9.994 -0.0859 -0.6972 -0.3679
  878MOL0    Cl15808   0.856   0.585  10.075 -0.4643  0.4864  0.0893
  878MOL0     C15809   0.685   0.194  10.300 -0.6044 -0.6355  0.6768
  878MOL0     C15810   0.825   0.216  10.295 -1.2875 -0.0637 -0.1675
  878MOL0     O15811   1.089   0.272  10.206  0.0877  0.5907  0.1796
  878MOL0     C15812   1.295   0.236  10.492 -1.3395 -0.1198 -0.0267
  878MOL0     C15813   1.432   0.257  10.536  0.0504  0.3179 -0.8014
  878MOL0     N15814   2.163   0.688  10.692 -0.6068 -0.1147  0.1394
  878MOL0     N15815   2.246   0.786  10.664 -0.0335  0.0801 -0.2300
  878MOL0     C15816   3.034   1.766  10.280 -0.4498  0.1793  0.2119
  878MOL0     C15817   3.098   1.882  10.327 -0.0918  1.2374  0.5163
  878MOL0     C15818   3.381   2.148  10.584 -0.1990 -0.4014 -0.0756
  878MOL0     C15819   3.517   2.173  10.630 -0.0580  0.7216 -1.2110
  878MOL0     C15820   3.560   2.300  10.645 -0.7250 -0.1665  0.2196
  878MOL0     C15821   3.480   2.414  10.620  0.4232 -0.6983 -0.5786
  878MOL0     O15822   3.525   2.544  10.653  0.0607 -0.3939 -0.6235
  878MOL0     C15823   3.649   2.581  10.580  0.4774 -0.0414 -0.3393
  878MOL0     C15824   3.707   2.697  10.651 -0.0839 -0.8709  0.0776
  878MOL0     C15825   3.639   2.832  10.640  0.1391  0.3916  0.6350
  878MOL0     C15826   3.738   2.952  10.665 -0.1426  0.1078  0.5598
  878MOL0     C15827   3.814   2.932  10.786 -0.5911 -0.3597 -0.0610
  878MOL0     C15828   3.878   2.911  10.888  0.4380 -0.1841  0.8214
  878MOL0     C15829   3.353   2.392  10.576  0.6408 -0.8339 -0.1084
  878MOL0     C15830   3.296   2.263  10.565 -1.2508 -0.8238  0.9004
  878MOL0     H15831   3.207   1.762  10.622 -4.7760 -1.5586  2.6553
  878MOL0     H15832   3.074   1.563  10.539 -0.8930 -0.0792  0.5192
  878MOL0     H15833   2.758   1.649  10.357 -1.2094 -0.7647 -0.1095
  878MOL0     H15834   2.811   1.547  10.487 -3.3413 -3.3840 -0.3754
  878MOL0     H15835   2.800   1.368  10.285  0.3042  1.4137 -0.7564
  878MOL0     H15836   2.658   1.487  10.264 -2.4950 -0.4400  2.1363
  878MOL0     H15837   2.621   1.420  10.517  1.0238 -0.6882  0.2405
  878MOL0     H15838   2.717   1.283  10.479  1.1549 -0.1292 -1.0148
  878MOL0     H15839   2.450   1.367  10.377 -0.4507  0.2969  1.3280
  878MOL0     H15840   2.546   1.251  10.279  3.5216  3.7745 -0.5158
  878MOL0     H15841   2.445   1.207  10.564  2.0064 -0.2294  0.1691
  878MOL0     H15842   2.508   1.085  10.439  1.1040  0.7267  0.7979
  878MOL0     H15843   2.328   1.169  10.294  3.4040 -0.5978  0.2574
  878MOL0     H15844   2.251   1.246  10.439  0.1227  0.8427 -0.0727
  878MOL0     H15845   2.157   1.039  10.369  0.6634  2.7708 -1.0614
  878MOL0     H15846   2.306   0.943  10.390 -1.1411 -1.2013  0.1648
  878MOL0     H15847   2.128   1.081  10.592  1.5476  1.4264 -0.6702
  878MOL0     H15848   2.299   1.035  10.625  1.1145 -1.3561  1.2712
  878MOL0     H15849   1.945   0.869  10.544 -2.3882 -2.5727  3.2814
  878MOL0     H15850   1.849   0.657  10.708  2.6485  3.9290 -0.3194
  878MOL0     H15851   1.965   0.522  10.696 -2.7361 -0.3811  1.8836
  878MOL0     H15852   2.001   0.582  10.455  0.6431  0.1150  2.5713
  878MOL0     H15853   1.847   0.665  10.451  0.8660 -0.4741 -2.4626
  878MOL0     H15854   1.839   0.448  10.370  2.3277  1.8015  0.3466
  878MOL0     H15855   1.889   0.365  10.517 -0.9675 -0.4791  0.9023
  878MOL0     H15856   1.648   0.527  10.473 -1.1128 -1.3788 -0.0085
  878MOL0     H15857   1.684   0.472  10.639  2.0217  4.1219  0.0639
  878MOL0     H15858   1.558   0.401  10.265  0.2719  1.4291  1.8343
  878MOL0     H15859   1.306   0.388  10.189 -0.8804  0.5580 -0.7763
  878MOL0     H15860   0.865   0.259  10.627  1.6796  1.3658 -0.9797
  878MOL0     H15861   0.622   0.210  10.624  1.5227 -0.4377  1.3831
  878MOL0     H15862   0.414   0.291  10.522  1.3697 -0.1043  0.9934
  878MOL0     H15863   0.400   0.123  10.569  3.3116 -0.1398 -0.0671
  878MOL0     H15864   0.176   0.189  10.530  2.1882 -0.9442  1.3030
  878MOL0     H15865   0.225   0.106  10.373 -0.5807  0.3310  0.3052
  878MOL0     H15866   0.225   0.408  10.405 -1.5986  2.1996 -0.0184
  878MOL0     H15867   0.106   0.329  10.317  0.3563  0.8847 -0.1917
  878MOL0     H15868   0.324   0.234  10.180 -0.7393 -0.3636 -0.8030
  878MOL0     H15869   0.206   0.350  10.132 -1.1221 -2.3532  1.1976
  878MOL0     H15870   0.447   0.427  10.285  1.6964  2.5941  0.3781
  878MOL0     H15871   0.339   0.541  10.211 -1.5428 -0.8729  1.7761
  878MOL0     H15872   0.428   0.514   9.982  0.3066  0.5481  0.4947
  878MOL0     H15873   0.494   0.357  10.026  1.3860 -0.0456  0.6594
  878MOL0     H15874   0.598   0.620  10.142 -0.1713 -0.1913  1.5992
  878MOL0     H15875   0.641   0.462  10.200 -0.7293 -0.4312 -0.1995
  878MOL0     H15876   0.689   0.562   9.906 -1.3625  0.8484  1.0086
  878MOL0     H15877   0.728   0.398   9.969  1.9220 -0.7076  0.3092
  878MOL0     H15878   0.639   0.165  10.206  1.0991 -3.6829  0.6444
  878MOL0     H15879   0.869   0.194  10.198  0.0690  0.0872  0.3829
  878MOL0     H15880   1.231   0.195  10.571 -1.1662 -3.6158 -1.5058
  878MOL0     H15881   1.468   0.217  10.630  1.6216  1.0415 -1.0807
  878MOL0     H15882   2.976   1.769  10.188  2.8571  2.0469 -2.0100
  878MOL0     H15883   3.109   1.975  10.272 -0.8605  1.0129 -0.0332
  878MOL0     H15884   3.585   2.093  10.658 -0.4992  0.8923  0.4303
  878MOL0     H15885   3.665   2.312  10.669 -0.0132  1.1855 -2.9369
  878MOL0     H15886   3.633   2.604  10.474 -0.9108 -0.4196 -0.2331
  878MOL0     H15887   3.718   2.496  10.588 -2.5593 -2.8328 -1.3823
  878MOL0     H15888   3.733   2.674  10.755  0.1973  1.7597  0.6728
  878MOL0     H15889   3.798   2.718  10.593  0.8378  0.2950  1.8147
  878MOL0     H15890   3.566   2.845  10.721 -0.3074 -1.2146  0.5316
  878MOL0     H15891   3.582   2.859  10.551  0.1262  1.4429  0.9508
  878MOL0     H15892   3.805   2.972  10.580 -1.1450  2.0693  0.1616
  878MOL0     H15893   3.674   3.040  10.675 -0.1426  0.0999  0.6263
  878MOL0     H15894   3.944   2.890  10.970  0.8255 -1.6329  0.1632
  878MOL0     H15895   3.312   2.490  10.552 -0.1307 -1.4149 -1.2934
  878MOL0     H15896   3.197   2.259  10.520 -0.1030  1.5925 -2.2144
  879MOL0     O15897   2.607   7.630  10.318 -0.2337  0.2770 -1.2003
  879MOL0     C15898   2.633   7.526  10.381  0.3674 -1.0830 -0.4390
  879MOL0     O15899   2.544   7.429  10.414  0.2988  1.2972  0.4330
  879MOL0     C15900   2.417   7.438  10.363  0.6278 -0.5140 -0.7875
  879MOL0     C15901   2.336   7.552  10.361 -0.1720  0.0275 -0.4805
  879MOL0     C15902   2.207   7.539  10.308  0.1907 -0.3832 -0.5249
  879MOL0     C15903   2.162   7.423  10.249 -0.6361 -0.3637  0.2144
  879MOL0     O15904   2.039   7.422  10.185  0.1840 -0.2781 -0.2712
  879MOL0     C15905   2.004   7.297  10.129 -0.0632 -0.0694 -1.0340
  879MOL0     C15906   1.894   7.314  10.023 -0.3537 -0.1784 -0.2066
  879MOL0     C15907   1.757   7.295  10.084  0.3181 -0.4702  0.2964
  879MOL0     C15908   1.657   7.323   9.964  0.3267  0.6380 -0.2947
  879MOL0     C15909   1.508   7.287   9.998  0.3374  0.0948 -0.1416
  879MOL0     C15910   1.409   7.285   9.880 -0.1073 -0.4825  0.5495
  879MOL0     C15911   1.265   7.260   9.931  0.1940 -0.1835 -0.7070
  879MOL0     C15912   1.214   7.377  10.022 -0.5655  0.1896  0.3294
  879MOL0     N15913   1.073   7.360  10.055 -0.3232  0.6668  0.0289
  879MOL0     C15914   0.974   7.382   9.964 -0.1851 -0.1849 -0.1462
  879MOL0     C15915   0.864   7.310   9.997 -0.2930 -0.1801 -1.2020
  879MOL0     C15916   0.730   7.287   9.919 -0.2574 -0.3164  0.1743
  879MOL0     C15917   0.615   7.302  10.013 -0.0779 -0.2123 -0.0243
  879MOL0     C15918   0.492   7.276   9.936 -0.1947 -0.3902  0.3019
  879MOL0     C15919   0.394   7.187  10.028 -0.9062 -0.0058  0.2219
  879MOL0     O15920   0.267   7.175   9.965 -0.6598 -1.1399 -0.1924
  879MOL0     C15921   0.166   7.089   9.992 -0.5133  0.5038 -0.5291
  879MOL0     C15922   0.178   6.996  10.099 -0.1040 -0.8422 -0.8041
  879MOL0     C15923   0.073   6.908  10.134 -0.2133 -0.6743  0.1409
  879MOL0     C15924  -0.038   6.899  10.045  0.6522  0.2827 -0.7909
  879MOL0     C15925  -0.152   6.797  10.070  0.1657  0.3182  0.4282
  879MOL0     O15926  -0.242   6.780   9.968 -0.3646  0.1607 -0.4073
  879MOL0     C15927  -0.352   6.700  10.002  0.1276 -0.4702 -0.2178
  879MOL0     C15928  -0.394   6.614   9.909 -1.1419  0.4294 -0.2355
  879MOL0     C15929  -0.499   6.526   9.931 -0.5128 -0.4853  0.3737
  879MOL0     C15930  -0.583   6.542  10.044  0.1554  0.5784 -0.2909
  879MOL0     O15931  -0.707   6.489  10.072  0.2269 -0.6622 -0.1088
  879MOL0     C15932  -0.717   6.350  10.042  0.7792 -0.0410  0.9385
  879MOL0     C15933  -0.870   6.315  10.039 -0.2598 -0.1155 -0.8196
  879MOL0     C15934  -0.882   6.157  10.032 -0.2476 -0.5690  0.8926
  879MOL0     C15935  -1.015   6.106   9.970  0.2304 -0.4563  0.7486
  879MOL0     C15936  -1.139   6.128  10.056  0.1166  0.8686  0.1365
  879MOL0     C15937  -1.255   6.044   9.984 -0.0376  0.2512  0.1185
  879MOL0     C15938  -1.376   6.029  10.075 -0.7105  0.5115  0.6188
  879MOL0     C15939  -1.492   5.936  10.024 -0.1275 -0.1130 -0.1092
  879MOL0    Cl15940  -1.635   5.969  10.114  0.4118  0.0472  0.1249
  879MOL0     C15941  -0.536   6.637  10.142  0.2054  0.4356  0.5589
  879MOL0     C15942  -0.424   6.717  10.119 -0.2454 -0.4097 -0.4020
  879MOL0     O15943  -0.146   6.732  10.176  0.4055 -0.0373 -0.2984
  879MOL0     C15944  -0.043   6.984   9.930  0.0865  0.2066  0.4014
  879MOL0     C15945   0.057   7.077   9.905 -0.3915  0.2886 -0.2850
  879MOL0     N15946   0.903   7.230  10.104  0.2706 -0.6189 -0.2805
  879MOL0     N15947   1.028   7.259  10.131  0.5414  0.4068 -0.2051
  879MOL0     C15948   2.252   7.321  10.247  0.1314  0.0866 -0.1572
  879MOL0     C15949   2.372   7.324  10.311  0.1261 -0.1430 -0.7062
  879MOL0     C15950   2.772   7.519  10.439 -0.1650 -0.0152  0.2128
  879MOL0     C15951   2.836   7.637  10.452 -0.5603 -0.3405 -0.3637
  879MOL0     C15952   2.959   7.647  10.527 -0.5120 -0.2204  0.1495
  879MOL0     C15953   3.024   7.533  10.582  0.2434  0.2463 -0.2686
  879MOL0     O15954   3.146   7.521  10.636 -0.7444 -0.1970 -0.4734
  879MOL0     C15955   3.187   7.633  10.709 -0.7008 -0.2202 -0.2245
  879MOL0     C15956   3.311   7.613  10.797  0.1434  0.4715 -0.1356
  879MOL0     C15957   3.422   7.536  10.728  0.1035  0.4243 -0.6150
  879MOL0     C15958   3.482   7.611  10.610  0.5142  0.4517  0.6947
  879MOL0     C15959   3.582   7.537  10.545 -0.3878  0.6195  0.7691
  879MOL0     C15960   3.671   7.467  10.494 -0.0294  0.3562 -0.1021
  879MOL0     C15961   2.952   7.416  10.570  0.0608 -0.4677  0.1500
  879MOL0     C15962   2.829   7.406  10.508 -0.5985 -0.4312  0.4677
  879MOL0     H15963   2.364   7.647  10.405 -3.0212  1.4301 -1.4143
  879MOL0     H15964   2.155   7.635  10.305  0.6232 -0.0483  1.3735
  879MOL0     H15965   1.962   7.229  10.205 -2.2276  1.3456 -0.8820
  879MOL0     H15966   2.089   7.249  10.080  0.3975 -0.3868  0.0335
  879MOL0     H15967   1.901   7.242   9.942  2.6447  0.9723 -1.1229
  879MOL0     H15968   1.903   7.417   9.985 -2.5884  1.1426  2.4087
  879MOL0     H15969   1.739   7.372  10.159  2.6474  0.7412 -0.3211
  879MOL0     H15970   1.735   7.197  10.128 -1.5333 -0.3342 -0.2096
  879MOL0     H15971   1.658   7.425   9.924 -0.1319  0.3043 -1.1986
  879MOL0     H15972   1.684   7.250   9.887  1.5844  0.1605  0.5777
  879MOL0     H15973   1.471   7.355  10.075  3.9722  0.3567  1.5876
  879MOL0     H15974   1.512   7.191  10.050  0.1182 -1.2954 -2.5467
  879MOL0     H15975   1.428   7.191   9.828 -0.7264  0.1058 -0.7703
  879MOL0     H15976   1.426   7.375   9.821  0.0004 -1.2512 -0.6240
  879MOL0     H15977   1.196   7.252   9.846  0.7742  4.8139 -1.9307
  879MOL0     H15978   1.250   7.172   9.994 -2.0749  1.4331  1.1922
  879MOL0     H15979   1.226   7.472   9.969  0.0439  0.9200  1.7449
  879MOL0     H15980   1.264   7.383  10.119 -1.2033 -1.8653  0.8474
  879MOL0     H15981   0.976   7.442   9.873 -3.0549 -0.2182 -0.3170
  879MOL0     H15982   0.724   7.189   9.871 -2.3454  0.3780 -1.1459
  879MOL0     H15983   0.721   7.365   9.843  3.4048  1.9052  1.7279
  879MOL0     H15984   0.608   7.405  10.050  1.1028  0.1711 -0.7980
  879MOL0     H15985   0.629   7.235  10.098  1.2168 -1.7573 -1.3958
  879MOL0     H15986   0.459   7.377   9.912  0.8861 -0.1526 -0.2604
  879MOL0     H15987   0.516   7.225   9.842 -2.1951  1.6525 -1.4356
  879MOL0     H15988   0.383   7.238  10.124  0.9097 -0.5203  0.7409
  879MOL0     H15989   0.439   7.088  10.033 -1.6738 -0.4085 -0.6267
  879MOL0     H15990   0.257   7.012  10.172 -1.7512  1.3315  0.6196
  879MOL0     H15991   0.072   6.851  10.226  0.0605  1.7177  1.7087
  879MOL0     H15992  -0.335   6.614   9.818  0.3518  0.6527  0.7000
  879MOL0     H15993  -0.514   6.460   9.846  0.5592 -0.0352 -0.1915
  879MOL0     H15994  -0.664   6.300  10.124  3.0455  2.2555  0.9745
  879MOL0     H15995  -0.663   6.329   9.949  1.2298  4.5987 -0.0914
  879MOL0     H15996  -0.913   6.356   9.947  2.0515 -1.0109 -2.3910
  879MOL0     H15997  -0.918   6.351  10.131 -0.6573 -3.1507  0.3086
  879MOL0     H15998  -0.879   6.117  10.134  0.2343 -2.5614  0.1510
  879MOL0     H15999  -0.799   6.132   9.965 -0.6243 -1.4742  0.7399
  879MOL0     H16000  -1.032   6.148   9.871  1.6147 -1.8255 -0.1287
  879MOL0     H16001  -1.009   5.997   9.955 -1.5501 -0.5812  0.7276
  879MOL0     H16002  -1.156   6.236  10.057  0.9884  1.0453 -1.3521
  879MOL0     H16003  -1.119   6.097  10.159  0.2850  0.1491 -0.1094
  879MOL0     H16004  -1.225   5.943   9.954 -4.6894 -1.5983  0.8739
  879MOL0     H16005  -1.293   6.091   9.892 -1.9484 -2.2038 -0.4714
  879MOL0     H16006  -1.352   5.992  10.175 -2.9157  0.3539  1.1479
  879MOL0     H16007  -1.413   6.131  10.091  0.9166  1.3931 -0.9455
  879MOL0     H16008  -1.460   5.832  10.016 -3.7341 -1.2326 -2.6235
  879MOL0     H16009  -1.516   5.961   9.920  2.5790 -0.6998 -0.9393
  879MOL0     H16010  -0.605   6.633  10.226 -0.8891 -2.3582 -0.3342
  879MOL0     H16011  -0.389   6.795  10.185  1.2967 -0.3757 -1.2064
  879MOL0     H16012  -0.130   6.971   9.866 -0.2535 -2.0631  1.2513
  879MOL0     H16013   0.057   7.141   9.818  0.2290  1.7675  0.7621
  879MOL0     H16014   2.237   7.224  10.199  0.4873  1.9247 -4.4627
  879MOL0     H16015   2.445   7.243  10.307 -0.3485 -0.6323  0.2132
  879MOL0     H16016   2.800   7.721  10.393 -1.4873 -1.8764 -2.1136
  879MOL0     H16017   3.007   7.745  10.533 -0.8821 -0.0388  0.1975
  879MOL0     H16018   3.114   7.676  10.778 -3.2574 -0.6181 -2.5493
  879MOL0     H16019   3.212   7.712  10.638  3.4589  0.0880  1.2808
  879MOL0     H16020   3.337   7.715  10.829 -0.3686  0.9905 -1.3309
  879MOL0     H16021   3.286   7.559  10.889  0.0740  2.4082  1.0524
  879MOL0     H16022   3.380   7.442  10.692  0.6180 -0.5008  1.0705
  879MOL0     H16023   3.502   7.521  10.802 -1.1215  2.7195  1.2948
  879MOL0     H16024   3.401   7.613  10.537 -1.3973 -2.3028  2.5423
  879MOL0     H16025   3.529   7.707  10.635  3.4137 -1.2695  2.3166
  879MOL0     H16026   3.742   7.403  10.444  1.0558  0.0836  1.6802
  879MOL0     H16027   2.981   7.323  10.616 -1.4278 -2.7270 -3.0674
  879MOL0     H16028   2.771   7.315  10.496  0.1424 -0.7470 -0.9873
  880MOL0     O16029   9.506  10.486   6.943 -0.3429  0.6976  0.1566
  880MOL0     C16030   9.454  10.529   7.047 -0.1759 -0.4110 -0.3508
  880MOL0     O16031   9.516  10.532   7.166  0.4501 -0.8549 -0.1516
  880MOL0     C16032   9.642  10.489   7.199 -1.3042 -0.0435  1.0917
  880MOL0     C16033   9.664  10.478   7.331 -0.3462  0.5418 -0.5135
  880MOL0     C16034   9.788  10.427   7.384  0.1920  0.7080 -0.2159
  880MOL0     C16035   9.883  10.383   7.292 -0.7055  0.4587  0.0940
  880MOL0     O16036  10.003  10.335   7.328  0.1914  0.4948 -0.0681
  880MOL0     C16037  10.041  10.340   7.466 -0.0553  0.2747 -1.0522
  880MOL0     C16038  10.177  10.272   7.472  0.5425  0.3979 -0.4936
  880MOL0     C16039  10.233  10.269   7.620 -1.0728 -0.6420 -0.3201
  880MOL0     C16040  10.386  10.249   7.606  0.9568 -0.5349  1.1989
  880MOL0     C16041  10.432  10.191   7.747 -0.2195  0.0049  0.3161
  880MOL0     C16042  10.579  10.209   7.785 -0.1621 -0.3592  0.0731
  880MOL0     C16043  10.684  10.151   7.691  0.1718  0.6865 -1.3420
  880MOL0     C16044  10.706  10.000   7.696 -0.3686  0.1070 -0.4537
  880MOL0     N16045  10.787   9.954   7.581 -0.0781  0.4506 -0.3119
  880MOL0     C16046  10.921   9.922   7.585  0.7318 -0.0509 -0.3187
  880MOL0     C16047  10.961   9.926   7.457 -0.9135 -0.3857 -0.4179
  880MOL0     C16048  11.104   9.923   7.425  0.1515  0.8274 -0.7397
  880MOL0     C16049  11.183  10.041   7.488  0.0314 -0.2866  0.8048
  880MOL0     C16050  11.124  10.181   7.455 -0.2801  0.4744  0.0228
  880MOL0     C16051  11.219  10.301   7.459  0.0106  0.2909 -0.1538
  880MOL0     O16052  11.178  10.401   7.363 -0.3313  0.4960 -0.6341
  880MOL0     C16053  11.055  10.451   7.380  0.5193  0.3934  0.0666
  880MOL0     C16054  10.986  10.450   7.503  0.4857  0.3279 -0.3743
  880MOL0     C16055  10.851  10.485   7.526 -0.4446 -0.6412  0.0156
  880MOL0     C16056  10.807  10.560   7.419  0.0680  0.0013  0.6478
  880MOL0     C16057  10.675  10.630   7.426 -0.4340 -0.5304 -0.4541
  880MOL0     O16058  10.635  10.711   7.326 -0.1789  0.5419 -0.1381
  880MOL0     C16059  10.503  10.743   7.329 -0.1074  0.3501  0.5263
  880MOL0     C16060  10.399  10.657   7.319  0.4432 -0.3920  0.2882
  880MOL0     C16061  10.267  10.682   7.361 -0.5676 -0.3197 -0.4962
  880MOL0     C16062  10.235  10.816   7.405 -0.2883  0.9784 -0.3915
  880MOL0     O16063  10.112  10.861   7.437  0.3081 -0.7939  0.1242
  880MOL0     C16064  10.003  10.778   7.471  0.6106  0.2619 -0.2829
  880MOL0     C16065   9.901  10.885   7.510 -0.4135 -0.8616  0.9328
  880MOL0     C16066   9.776  10.818   7.563 -0.2980  0.7027 -1.0115
  880MOL0     C16067   9.674  10.922   7.617  0.0256 -0.1016 -0.1241
  880MOL0     C16068   9.532  10.861   7.628 -0.2228 -0.3437  0.2572
  880MOL0     C16069   9.451  10.859   7.496  0.7176 -0.1489 -0.4811
  880MOL0     C16070   9.303  10.817   7.525  0.7260  0.2052  0.3752
  880MOL0     C16071   9.202  10.933   7.529 -0.3983 -0.7167  0.1945
  880MOL0    Cl16072   9.028  10.891   7.516  0.0016  0.3643 -0.0313
  880MOL0     C16073  10.340  10.906   7.397 -0.9877  0.0052 -0.2751
  880MOL0     C16074  10.475  10.872   7.365  0.3473 -0.5265  0.1366
  880MOL0     O16075  10.602  10.597   7.518  0.0261  0.7508  0.6640
  880MOL0     C16076  10.869  10.575   7.293 -0.5645  0.2162 -0.5288
  880MOL0     C16077  10.989  10.503   7.270  0.7737 -0.4145  0.2868
  880MOL0     N16078  10.857   9.947   7.374 -0.1306 -0.6253 -0.2355
  880MOL0     N16079  10.755   9.974   7.448 -0.7072 -0.5635 -1.3363
  880MOL0     C16080   9.866  10.407   7.154 -0.3030 -0.1318  0.3976
  880MOL0     C16081   9.745  10.468   7.110  0.0512  0.6048 -0.0547
  880MOL0     C16082   9.313  10.570   7.046  1.2848 -0.0229  0.8896
  880MOL0     C16083   9.232  10.553   6.932  0.8490 -0.9425  0.5959
  880MOL0     C16084   9.094  10.591   6.929  0.6319  0.4698  0.1907
  880MOL0     C16085   9.040  10.655   7.039  0.5024  0.4184 -0.4925
  880MOL0     O16086   8.908  10.699   7.055 -0.1745 -0.2614 -0.0276
  880MOL0     C16087   8.814  10.661   6.951  0.2024 -0.4018  0.4282
  880MOL0     C16088   8.671  10.699   6.986  0.9552  0.5074 -0.5181
  880MOL0     C16089   8.655  10.845   7.049  0.1946  1.2768  1.2238
  880MOL0     C16090   8.662  10.953   6.945 -0.1503 -0.2205 -0.2747
  880MOL0     C16091   8.632  10.917   6.809  0.7877  0.4663 -0.8948
  880MOL0     C16092   8.627  10.875   6.698 -0.1585 -0.3585  0.0909
  880MOL0     C16093   9.118  10.666   7.152  0.2896 -0.3084 -0.1286
  880MOL0     C16094   9.247  10.623   7.156 -0.0234 -0.3550 -0.0924
  880MOL0     H16095   9.588  10.494   7.406 -0.7933 -0.1923 -0.7918
  880MOL0     H16096   9.798  10.422   7.492  1.1737 -0.2850 -0.3266
  880MOL0     H16097   9.976  10.269   7.520  0.8262 -0.9400 -1.5442
  880MOL0     H16098  10.055  10.438   7.514 -1.1273  0.3910 -0.9477
  880MOL0     H16099  10.255  10.326   7.417  1.7371  1.2378  1.8768
  880MOL0     H16100  10.150  10.173   7.434  0.9418  0.1417 -0.1273
  880MOL0     H16101  10.189  10.179   7.663 -3.5581  0.8691  0.5385
  880MOL0     H16102  10.214  10.357   7.682  0.3977 -1.9823  2.1919
  880MOL0     H16103  10.413  10.178   7.527  0.0545  1.4136 -0.9963
  880MOL0     H16104  10.423  10.350   7.588 -1.4869 -0.1012 -2.6961
  880MOL0     H16105  10.394  10.088   7.743  0.9264 -0.4608  0.9775
  880MOL0     H16106  10.372  10.240   7.824  1.7152 -2.3974  3.5624
  880MOL0     H16107  10.592  10.168   7.886 -0.1801 -0.1963  0.1417
  880MOL0     H16108  10.594  10.316   7.796  1.0304 -0.2503 -2.1195
  880MOL0     H16109  10.653  10.179   7.590  1.8413 -1.3090 -2.4913
  880MOL0     H16110  10.779  10.198   7.715  1.9405 -4.3624  3.7034
  880MOL0     H16111  10.612   9.944   7.697 -1.7423  2.0805  4.2776
  880MOL0     H16112  10.767   9.973   7.782  1.2517  0.5171 -1.4306
  880MOL0     H16113  10.974   9.878   7.669  4.3490 -2.6371 -3.5581
  880MOL0     H16114  11.103   9.923   7.316 -0.7217  1.3788 -0.7354
  880MOL0     H16115  11.159   9.833   7.454  1.0115  2.2057  2.3885
  880MOL0     H16116  11.288  10.034   7.457  0.2687  0.8938  1.2772
  880MOL0     H16117  11.189  10.035   7.597  0.7247  1.7858  0.9393
  880MOL0     H16118  11.085  10.185   7.353 -1.1615  2.0474  0.3823
  880MOL0     H16119  11.039  10.195   7.523  0.6977  0.1048  1.3604
  880MOL0     H16120  11.324  10.272   7.445 -0.5807 -1.3134 -1.8978
  880MOL0     H16121  11.209  10.336   7.562 -0.2721  1.2216 -0.4878
  880MOL0     H16122  11.023  10.408   7.596  3.2269  2.0851 -0.5560
  880MOL0     H16123  10.804  10.457   7.620 -1.8071  1.6725  0.0766
  880MOL0     H16124  10.415  10.554   7.290 -0.5875 -0.6648  0.6235
  880MOL0     H16125  10.194  10.603   7.365 -0.6937 -0.2694 -1.5685
  880MOL0     H16126  10.010  10.717   7.562 -1.5021 -1.7531 -1.3698
  880MOL0     H16127   9.972  10.716   7.386 -0.5290  1.0852 -0.4960
  880MOL0     H16128   9.874  10.940   7.420  1.0171  1.9641  2.0966
  880MOL0     H16129   9.946  10.947   7.588  3.8649  0.1429 -2.0044
  880MOL0     H16130   9.793  10.757   7.651 -3.1409  0.0554 -0.8106
  880MOL0     H16131   9.741  10.755   7.480  1.1713  2.2835 -2.9372
  880MOL0     H16132   9.720  10.958   7.709  0.8523 -1.1254 -0.1120
  880MOL0     H16133   9.668  11.012   7.555  0.6653 -0.1633 -0.2831
  880MOL0     H16134   9.483  10.921   7.705 -1.2403 -2.0132  0.9430
  880MOL0     H16135   9.543  10.759   7.666  1.9762 -1.0751 -2.0412
  880MOL0     H16136   9.505  10.789   7.431 -0.6003 -0.3849 -1.3577
  880MOL0     H16137   9.455  10.962   7.460  2.4529 -0.2050 -0.5391
  880MOL0     H16138   9.267  10.747   7.450  1.1318 -2.3360  2.4099
  880MOL0     H16139   9.302  10.760   7.618  0.9943  2.0121  1.5391
  880MOL0     H16140   9.221  10.995   7.441  1.5808 -2.6758 -0.8835
  880MOL0     H16141   9.221  11.001   7.613 -1.2259  0.9154 -0.9127
  880MOL0     H16142  10.315  11.010   7.414  1.8505  0.8543 -0.7204
  880MOL0     H16143  10.558  10.942   7.371  2.8464 -3.2821 -0.2345
  880MOL0     H16144  10.821  10.638   7.219 -0.0205  1.6494  0.2920
  880MOL0     H16145  11.041  10.499   7.175 -0.3901 -0.3081 -0.3658
  880MOL0     H16146   9.945  10.379   7.084 -1.2365 -1.2688 -0.2261
  880MOL0     H16147   9.737  10.504   7.008 -0.7726  1.7022  0.3869
  880MOL0     H16148   9.269  10.503   6.843 -0.1907  0.9514 -0.9981
  880MOL0     H16149   9.036  10.554   6.845  0.8674  1.0289 -0.2236
  880MOL0     H16150   8.817  10.554   6.926  0.5481  0.0285 -1.5961
  880MOL0     H16151   8.834  10.710   6.855 -3.0406  1.9088  0.7804
  880MOL0     H16152   8.602  10.688   6.902  0.3245 -1.2483  0.1853
  880MOL0     H16153   8.633  10.624   7.056 -1.6933  0.1611 -2.2053
  880MOL0     H16154   8.720  10.861   7.136  0.0689 -0.7084  1.7401
  880MOL0     H16155   8.555  10.858   7.092  0.2798  0.2914  1.7473
  880MOL0     H16156   8.597  11.032   6.982 -2.2868 -1.4341 -1.2430
  880MOL0     H16157   8.764  10.992   6.942 -1.4149  3.3818 -0.4380
  880MOL0     H16158   8.616  10.836   6.599  0.8064 -2.9769  0.9182
  880MOL0     H16159   9.081  10.713   7.243  4.2160 -0.2190  1.5872
  880MOL0     H16160   9.307  10.639   7.245 -2.1308 -0.4740  1.4259
  881MOL0     O16161   0.956   0.328   1.949 -0.0162 -0.3836  0.7517
  881MOL0     C16162   0.945   0.405   2.046 -0.9065  0.3390 -0.0110
  881MOL0     O16163   0.856   0.499   2.065 -0.6077  0.5267 -0.8356
  881MOL0     C16164   0.762   0.532   1.968  0.0087  0.1841 -0.3431
  881MOL0     C16165   0.803   0.563   1.841  0.1503 -0.1779 -0.1852
  881MOL0     C16166   0.711   0.597   1.749 -0.0076  0.0852  0.3060
  881MOL0     C16167   0.574   0.616   1.774 -0.8351  0.9407  0.2133
  881MOL0     O16168   0.497   0.663   1.674  0.4880 -0.3178 -0.0541
  881MOL0     C16169   0.397   0.575   1.628 -0.2409  0.4464 -0.3050
  881MOL0     C16170   0.331   0.625   1.501  0.2309 -0.6390 -0.0296
  881MOL0     C16171   0.201   0.537   1.475 -1.0503 -0.0905 -0.2647
  881MOL0     C16172   0.117   0.602   1.364 -0.3087  0.3557 -0.8273
  881MOL0     C16173   0.018   0.515   1.294  0.8560  0.3579  0.0966
  881MOL0     C16174  -0.057   0.597   1.190 -1.2760 -0.3603 -0.2358
  881MOL0     C16175  -0.133   0.508   1.094 -0.1522 -0.3710  0.1698
  881MOL0     C16176  -0.237   0.580   0.992  0.2295  0.1306 -0.1770
  881MOL0     N16177  -0.322   0.481   0.928  0.1511 -0.5350  0.0884
  881MOL0     C16178  -0.422   0.421   1.002  0.6115 -0.6426  0.0052
  881MOL0     C16179  -0.502   0.343   0.917 -0.1121 -0.3709  0.0107
  881MOL0     C16180  -0.639   0.282   0.934  0.0834 -0.1574  0.6176
  881MOL0     C16181  -0.641   0.136   0.893 -0.1382 -0.3504  0.3067
  881MOL0     C16182  -0.680   0.040   1.004  0.5615 -0.0184 -0.3538
  881MOL0     C16183  -0.572   0.042   1.117  0.2046 -0.0383 -0.1727
  881MOL0     O16184  -0.445   0.010   1.063 -0.0668 -0.1676  0.1791
  881MOL0     C16185  -0.331   0.025   1.137 -0.1898 -0.6290  0.7900
  881MOL0     C16186  -0.314  -0.012   1.270 -0.4544  0.1328  0.3747
  881MOL0     C16187  -0.195   0.002   1.335  0.6802  0.1593  0.1101
  881MOL0     C16188  -0.073   0.048   1.274  0.1914  0.2781 -0.1928
  881MOL0     C16189   0.059   0.041   1.346  0.2333 -0.4671 -0.0920
  881MOL0     O16190   0.163   0.104   1.283  0.1799 -0.7572 -0.4809
  881MOL0     C16191   0.289   0.056   1.314 -0.1832 -0.1615 -0.3044
  881MOL0     C16192   0.387   0.142   1.364  0.9045 -0.1854 -0.1240
  881MOL0     C16193   0.528   0.097   1.369 -0.4987 -0.4766  0.4554
  881MOL0     C16194   0.561  -0.035   1.335  0.5448  0.0183  0.0104
  881MOL0     O16195   0.682  -0.100   1.332  0.0741  0.5258  0.8090
  881MOL0     C16196   0.804  -0.030   1.350  0.0996 -0.0822 -1.3240
  881MOL0     C16197   0.893  -0.143   1.402  0.5803  0.2713 -0.4818
  881MOL0     C16198   1.026  -0.069   1.429 -0.4979  0.4179 -0.0299
  881MOL0     C16199   1.136  -0.154   1.479 -0.1400  0.0671  0.5367
  881MOL0     C16200   1.263  -0.070   1.505 -0.1440  0.0648  0.1841
  881MOL0     C16201   1.277   0.042   1.614 -0.0876  0.2677 -0.3469
  881MOL0     C16202   1.204  -0.004   1.747 -1.2008  0.5911  0.5989
  881MOL0     C16203   1.244   0.100   1.847  0.8769 -0.3843 -0.3445
  881MOL0    Cl16204   1.211   0.028   2.014 -0.4382 -0.1567  0.3144
  881MOL0     C16205   0.463  -0.111   1.283  0.4443  0.1110 -1.0404
  881MOL0     C16206   0.328  -0.073   1.279  0.3269 -0.3917  0.2333
  881MOL0     O16207   0.061  -0.004   1.459 -0.3334  0.0205  0.0580
  881MOL0     C16208  -0.088   0.081   1.134  0.2251 -1.3841  0.3452
  881MOL0     C16209  -0.223   0.090   1.078  0.1449  0.2775  0.1106
  881MOL0     N16210  -0.451   0.365   0.790  0.6956  0.1148 -0.3314
  881MOL0     N16211  -0.350   0.444   0.799 -0.9659 -0.7649  0.8368
  881MOL0     C16212   0.538   0.585   1.904  0.6333  0.2944  0.0729
  881MOL0     C16213   0.631   0.533   1.997 -0.6691 -1.3150  0.2341
  881MOL0     C16214   1.015   0.352   2.164 -0.2809  0.2271  0.0486
  881MOL0     C16215   0.975   0.354   2.297  0.1751  0.9335 -0.5482
  881MOL0     C16216   1.046   0.300   2.404 -0.6613 -0.0513 -0.6242
  881MOL0     C16217   1.171   0.236   2.378 -0.6149 -0.1978 -0.1651
  881MOL0     O16218   1.251   0.178   2.469  0.4177  0.6832 -0.2595
  881MOL0     C16219   1.185   0.136   2.586 -0.4006 -0.3231  0.5165
  881MOL0     C16220   1.254   0.016   2.658 -0.0471 -0.5201  0.1132
  881MOL0     C16221   1.407   0.029   2.669 -0.2508 -0.2020 -0.7700
  881MOL0     C16222   1.464  -0.080   2.758  0.7852 -0.7078 -0.5825
  881MOL0     C16223   1.602  -0.063   2.775  0.1211  0.4895  0.3398
  881MOL0     C16224   1.728  -0.051   2.776  0.2662 -0.3836 -0.7574
  881MOL0     C16225   1.215   0.241   2.251 -0.1171 -0.2881 -0.2749
  881MOL0     C16226   1.144   0.299   2.143 -0.4123 -0.6946 -0.8849
  881MOL0     H16227   0.906   0.560   1.806  0.0146 -1.0129 -0.5267
  881MOL0     H16228   0.758   0.609   1.651  1.6561 -1.9199  0.7827
  881MOL0     H16229   0.324   0.558   1.708  0.5308 -3.6601 -0.2664
  881MOL0     H16230   0.443   0.481   1.597 -0.1428  0.0696  0.9109
  881MOL0     H16231   0.406   0.622   1.422  2.7719 -2.6909  2.3050
  881MOL0     H16232   0.299   0.727   1.524 -0.2093 -0.7884  0.0262
  881MOL0     H16233   0.144   0.518   1.566 -1.4265 -0.1828 -0.5173
  881MOL0     H16234   0.240   0.437   1.453  0.3135  0.2640  0.4654
  881MOL0     H16235   0.061   0.681   1.414 -0.3729  1.5590 -2.7198
  881MOL0     H16236   0.184   0.660   1.300  1.8389  0.9305  1.7383
  881MOL0     H16237  -0.055   0.490   1.372  1.3317 -1.8158 -0.0852
  881MOL0     H16238   0.066   0.428   1.248  1.7833 -0.9192  3.1633
  881MOL0     H16239   0.012   0.662   1.136  1.1000 -1.0241  1.8451
  881MOL0     H16240  -0.128   0.664   1.238 -3.4956 -0.3872 -3.1676
  881MOL0     H16241  -0.066   0.445   1.036  1.7470  0.9599  0.8190
  881MOL0     H16242  -0.195   0.441   1.154  0.2807 -1.5327 -0.6468
  881MOL0     H16243  -0.184   0.637   0.914  1.8164 -1.9875 -0.7346
  881MOL0     H16244  -0.292   0.654   1.051  1.5615  1.9623 -1.1089
  881MOL0     H16245  -0.460   0.444   1.101 -1.8645  0.7565 -1.1849
  881MOL0     H16246  -0.718   0.332   0.878  1.9410  0.4765 -1.5997
  881MOL0     H16247  -0.661   0.294   1.040 -0.9616  1.9344  0.2144
  881MOL0     H16248  -0.544   0.116   0.847  1.3813  4.5239  0.7901
  881MOL0     H16249  -0.718   0.127   0.816  0.1563  2.0695 -0.3595
  881MOL0     H16250  -0.772   0.072   1.053  1.3061 -1.0184  1.8228
  881MOL0     H16251  -0.689  -0.062   0.964 -2.4868 -0.8745  2.0693
  881MOL0     H16252  -0.595  -0.033   1.193  2.5158 -2.0625 -1.3126
  881MOL0     H16253  -0.558   0.140   1.163 -2.8550  0.7450 -0.6967
  881MOL0     H16254  -0.399  -0.046   1.329  0.3956  1.7327  2.6539
  881MOL0     H16255  -0.203  -0.018   1.442 -0.9780  4.0746  0.8862
  881MOL0     H16256   0.372   0.248   1.379  6.7052  1.0529 -0.7550
  881MOL0     H16257   0.602   0.174   1.388 -0.5971 -0.4852  0.8769
  881MOL0     H16258   0.791   0.036   1.436  3.4414 -2.9521  1.7461
  881MOL0     H16259   0.843   0.012   1.256 -0.3917  0.2181 -1.3926
  881MOL0     H16260   0.902  -0.220   1.324  3.0671  1.1966 -1.2042
  881MOL0     H16261   0.858  -0.180   1.499  3.4113 -1.0662  0.1094
  881MOL0     H16262   1.019   0.025   1.486 -2.0225 -1.0673  2.4265
  881MOL0     H16263   1.065  -0.037   1.333  1.7263  1.3299  1.1060
  881MOL0     H16264   1.109  -0.211   1.568 -2.3227 -1.6422 -1.0822
  881MOL0     H16265   1.156  -0.238   1.411  2.0616  0.5292  0.5364
  881MOL0     H16266   1.289  -0.028   1.408  1.9980  0.3829  0.8427
  881MOL0     H16267   1.338  -0.146   1.531 -0.0461 -0.4815 -1.6020
  881MOL0     H16268   1.247   0.137   1.569  3.0181  2.2886  1.4820
  881MOL0     H16269   1.382   0.064   1.634 -0.2163  1.0637 -0.5039
  881MOL0     H16270   1.098   0.004   1.721 -0.8276 -0.6516 -1.5084
  881MOL0     H16271   1.228  -0.106   1.776 -0.2303 -0.0077 -2.0494
  881MOL0     H16272   1.176   0.184   1.829 -1.3213 -1.7176  1.2212
  881MOL0     H16273   1.348   0.132   1.837  0.1692  1.5039 -2.4116
  881MOL0     H16274   0.486  -0.213   1.255 -0.1432 -1.1546  2.5742
  881MOL0     H16275   0.257  -0.143   1.236 -1.8540  0.3186  2.4178
  881MOL0     H16276  -0.005   0.102   1.067  2.0115 -0.2011  2.7794
  881MOL0     H16277  -0.244   0.107   0.973 -0.5536  0.2923  0.2445
  881MOL0     H16278   0.437   0.612   1.935 -0.3538 -1.8951 -1.0461
  881MOL0     H16279   0.585   0.513   2.093 -4.2272  0.8567 -0.7872
  881MOL0     H16280   0.873   0.390   2.305 -0.1513 -0.0956  0.0699
  881MOL0     H16281   1.012   0.307   2.507  1.3309  2.0492 -0.0314
  881MOL0     H16282   1.077   0.120   2.575 -0.6115  0.6817  0.9994
  881MOL0     H16283   1.192   0.221   2.655  1.9814 -0.6309  0.7311
  881MOL0     H16284   1.210   0.026   2.757  1.3895  2.2771  0.5633
  881MOL0     H16285   1.219  -0.079   2.615 -1.3195 -1.0603  2.2250
  881MOL0     H16286   1.439   0.126   2.707 -0.8482 -0.6369  0.9279
  881MOL0     H16287   1.454   0.024   2.570  1.6119 -1.3967  0.1257
  881MOL0     H16288   1.420  -0.076   2.858  2.8000  1.8569  0.3035
  881MOL0     H16289   1.436  -0.170   2.702 -0.6290  0.9417 -2.6732
  881MOL0     H16290   1.834  -0.066   2.767  0.3520 -1.5660  1.3722
  881MOL0     H16291   1.317   0.207   2.232 -0.4811  0.3099 -4.0909
  881MOL0     H16292   1.203   0.299   2.051  2.5944 -0.3796  0.8928
  882MOL0     O16293   2.848  10.068   4.755  0.4132 -0.0643  0.3532
  882MOL0     C16294   2.844   9.984   4.665  0.2446 -0.4652  0.4020
  882MOL0     O16295   2.954   9.947   4.591  0.3078  0.2341 -0.3858
  882MOL0     C16296   3.076  10.015   4.596 -0.2295  0.0727 -0.6869
  882MOL0     C16297   3.091  10.120   4.509 -1.2688  0.1672 -0.4475
  882MOL0     C16298   3.214  10.183   4.504 -0.3498  0.4955 -0.3279
  882MOL0     C16299   3.320  10.156   4.586 -0.5591  0.2209  0.4708
  882MOL0     O16300   3.427  10.230   4.579 -0.2158 -0.7327  0.3782
  882MOL0     C16301   3.518  10.245   4.687  0.0083 -0.2708  0.0259
  882MOL0     C16302   3.639  10.330   4.653 -0.8810  0.0880  0.0633
  882MOL0     C16303   3.612  10.471   4.604 -0.2780  0.7746 -0.0352
  882MOL0     C16304   3.737  10.543   4.565  0.0116  0.4455 -0.2643
  882MOL0     C16305   3.704  10.686   4.510 -0.8687  0.9884 -0.0533
  882MOL0     C16306   3.658  10.791   4.623 -0.3875 -0.2891 -0.3142
  882MOL0     C16307   3.599  10.927   4.571  0.3234 -0.6331 -0.7757
  882MOL0     C16308   3.471  10.922   4.493 -0.0246 -0.7811 -0.1011
  882MOL0     N16309   3.362  10.859   4.564  0.5623  0.4533  0.0635
  882MOL0     C16310   3.333  10.731   4.557 -0.5794  0.1629  0.2705
  882MOL0     C16311   3.224  10.720   4.638 -1.2438  0.3275  0.0044
  882MOL0     C16312   3.166  10.577   4.642 -0.0608 -0.6017  0.5556
  882MOL0     C16313   3.054  10.544   4.741  0.1110 -0.4174 -0.1884
  882MOL0     C16314   3.083  10.584   4.886  0.5458  0.6450  0.4029
  882MOL0     C16315   2.984  10.524   4.985 -0.4576  0.4947  0.0517
  882MOL0     O16316   2.844  10.579   4.977 -0.3853 -0.2200 -0.2305
  882MOL0     C16317   2.778  10.537   4.858 -0.6340 -0.6589 -1.0222
  882MOL0     C16318   2.712  10.624   4.768  1.8934 -0.7246  0.3860
  882MOL0     C16319   2.625  10.574   4.676  1.0395  0.5133  0.4598
  882MOL0     C16320   2.606  10.437   4.646 -1.1951 -0.4306  0.4099
  882MOL0     C16321   2.514  10.390   4.545 -0.8021  0.3660  0.6860
  882MOL0     O16322   2.479  10.255   4.565 -0.0433 -0.4834  0.1407
  882MOL0     C16323   2.367  10.211   4.502  0.3592  0.1061  0.7582
  882MOL0     C16324   2.239  10.265   4.529 -0.4583  0.1325 -0.9747
  882MOL0     C16325   2.130  10.201   4.480  0.3141 -0.0259  0.4795
  882MOL0     C16326   2.140  10.098   4.386  0.3873 -0.3646  0.3789
  882MOL0     O16327   2.025  10.060   4.318 -0.5593  0.0314 -0.3427
  882MOL0     C16328   1.955  10.166   4.252 -0.0699  0.8512 -0.3910
  882MOL0     C16329   1.823  10.092   4.205  0.3205 -0.1483 -0.5276
  882MOL0     C16330   1.731  10.163   4.101 -0.2077 -0.3073 -0.1699
  882MOL0     C16331   1.660  10.288   4.156  0.5214 -0.5965  0.9906
  882MOL0     C16332   1.567  10.362   4.053 -0.5053  0.3883  0.4845
  882MOL0     C16333   1.505  10.481   4.131  0.1708 -0.7337 -0.0129
  882MOL0     C16334   1.377  10.531   4.067 -0.5049 -0.1415 -0.3405
  882MOL0     C16335   1.291  10.610   4.175 -0.8895  0.7507 -0.1519
  882MOL0    Cl16336   1.142  10.638   4.084  0.3762  0.4741  0.5173
  882MOL0     C16337   2.271  10.054   4.352  0.9281 -0.3013 -1.0427
  882MOL0     C16338   2.383  10.109   4.405  0.4219 -0.2205 -0.5988
  882MOL0     O16339   2.459  10.469   4.474 -0.1453 -0.6414 -0.2577
  882MOL0     C16340   2.679  10.351   4.729 -0.2420 -0.3770  0.0633
  882MOL0     C16341   2.757  10.403   4.839 -0.0453  0.5259 -0.7282
  882MOL0     N16342   3.181  10.844   4.687 -0.2864  0.5092 -0.2553
  882MOL0     N16343   3.273  10.929   4.649  0.1840 -0.1395  0.2612
  882MOL0     C16344   3.292  10.061   4.687  0.1051  1.6095 -0.4076
  882MOL0     C16345   3.168   9.992   4.695 -0.6386 -0.6633  0.7827
  882MOL0     C16346   2.718   9.914   4.636  0.2573 -0.0303  0.1967
  882MOL0     C16347   2.701   9.825   4.535 -0.1209 -0.6374  0.0151
  882MOL0     C16348   2.573   9.759   4.509  0.1448 -0.7096  0.1502
  882MOL0     C16349   2.456   9.796   4.583 -0.6457 -0.2791 -0.2484
  882MOL0     O16350   2.343   9.742   4.536  0.0009  0.3347 -0.7240
  882MOL0     C16351   2.219   9.788   4.593  0.0241  0.5530  0.5467
  882MOL0     C16352   2.117   9.698   4.530 -0.3138 -0.5686  0.0823
  882MOL0     C16353   1.976   9.690   4.577  0.1665  0.3849  0.0345
  882MOL0     C16354   1.908   9.829   4.570  0.4857  0.3314 -0.4401
  882MOL0     C16355   1.781   9.816   4.644  0.5780 -0.7897 -0.4124
  882MOL0     C16356   1.662   9.819   4.688 -0.3896 -0.6396  0.7828
  882MOL0     C16357   2.472   9.880   4.688  0.3228 -0.4791 -0.0460
  882MOL0     C16358   2.597   9.941   4.710  0.2278 -0.0199  0.0591
  882MOL0     H16359   3.021  10.142   4.430  1.0262  2.8684 -1.9209
  882MOL0     H16360   3.230  10.266   4.436 -1.1954  2.9273  2.2229
  882MOL0     H16361   3.548  10.143   4.713 -1.5484 -0.7072  0.1964
  882MOL0     H16362   3.464  10.295   4.768 -2.0540 -1.6003 -0.4423
  882MOL0     H16363   3.699  10.269   4.585 -0.3831 -0.3904  0.9135
  882MOL0     H16364   3.689  10.347   4.748  2.1775  3.4091 -1.8982
  882MOL0     H16365   3.563  10.532   4.680  0.7892  1.1754  0.3415
  882MOL0     H16366   3.544  10.450   4.521 -1.5463 -1.1175  1.3986
  882MOL0     H16367   3.813  10.538   4.644  0.4913  1.7453 -0.6218
  882MOL0     H16368   3.777  10.482   4.483  0.1558 -0.5547  0.5158
  882MOL0     H16369   3.630  10.674   4.431 -1.5742 -0.7979  0.8096
  882MOL0     H16370   3.788  10.729   4.455  0.4819 -0.2218  0.9739
  882MOL0     H16371   3.742  10.829   4.682 -1.0203 -0.1487  0.5237
  882MOL0     H16372   3.584  10.751   4.694 -1.3489 -0.2433 -1.2652
  882MOL0     H16373   3.570  10.993   4.654 -1.9009 -0.9419 -1.2381
  882MOL0     H16374   3.673  10.990   4.522  2.1081 -0.8875  1.4113
  882MOL0     H16375   3.489  10.886   4.391  0.8200  3.4441 -1.6282
  882MOL0     H16376   3.444  11.025   4.468  0.6284 -1.1225 -2.4597
  882MOL0     H16377   3.383  10.647   4.510 -2.5428 -0.6138 -0.5476
  882MOL0     H16378   3.241  10.501   4.667  0.8314  0.4553  1.1577
  882MOL0     H16379   3.126  10.547   4.545  1.0993 -2.4778  0.6060
  882MOL0     H16380   3.050  10.439   4.712 -3.1909 -0.1048 -1.2764
  882MOL0     H16381   2.958  10.588   4.711 -0.6686 -0.1182  2.4403
  882MOL0     H16382   3.184  10.557   4.918  2.0792  2.6088 -2.4255
  882MOL0     H16383   3.074  10.692   4.890 -1.1524  0.6170 -1.4365
  882MOL0     H16384   3.021  10.562   5.081  0.7474 -0.8846  0.1674
  882MOL0     H16385   2.987  10.415   4.977  2.4166  0.2715  2.3081
  882MOL0     H16386   2.731  10.730   4.781  2.2491 -0.5924 -0.9847
  882MOL0     H16387   2.574  10.644   4.611 -2.7417 -0.7759  1.7556
  882MOL0     H16388   2.238  10.351   4.596 -0.5401  0.9907 -2.0416
  882MOL0     H16389   2.030  10.226   4.514  0.2779  0.3470  0.0935
  882MOL0     H16390   2.007  10.198   4.160  1.7654 -0.5720  0.0865
  882MOL0     H16391   1.929  10.250   4.316 -2.7923 -0.0454 -0.2247
  882MOL0     H16392   1.756  10.042   4.275 -1.5374  1.0661 -1.3541
  882MOL0     H16393   1.860  10.008   4.145 -0.2723 -0.8393  0.0499
  882MOL0     H16394   1.655  10.099   4.054 -1.7708 -0.3444  2.2005
  882MOL0     H16395   1.791  10.212   4.023 -1.4980  0.5164 -0.6898
  882MOL0     H16396   1.589  10.255   4.232  0.0071  2.6119  2.0540
  882MOL0     H16397   1.731  10.355   4.205 -0.2264 -0.5047  1.9662
  882MOL0     H16398   1.493  10.292   4.016 -1.0314  2.3633 -2.5254
  882MOL0     H16399   1.622  10.400   3.966 -2.9546 -0.9345 -1.7528
  882MOL0     H16400   1.570  10.565   4.157 -2.2000  0.7885  1.3714
  882MOL0     H16401   1.465  10.450   4.228 -2.0216 -0.0294 -0.6189
  882MOL0     H16402   1.397  10.608   3.992 -0.3582  1.2376  1.0614
  882MOL0     H16403   1.314  10.449   4.031 -0.5690 -1.5859  2.7389
  882MOL0     H16404   1.344  10.699   4.211  0.5359 -0.9976  2.3963
  882MOL0     H16405   1.269  10.552   4.265 -1.9675  3.7091  1.6620
  882MOL0     H16406   2.279   9.977   4.275 -0.3345 -1.8830  0.3401
  882MOL0     H16407   2.481  10.065   4.393  0.5481 -0.9412  2.3344
  882MOL0     H16408   2.687  10.247   4.699 -0.4464  0.2019 -2.1842
  882MOL0     H16409   2.802  10.331   4.905  1.4719  1.0325 -1.1687
  882MOL0     H16410   3.370  10.034   4.758 -1.1425  0.4831  0.5771
  882MOL0     H16411   3.149   9.905   4.757 -1.2510 -0.1586  1.3284
  882MOL0     H16412   2.780   9.799   4.466  1.2852 -2.8869  2.2784
  882MOL0     H16413   2.567   9.685   4.430  1.2450 -2.3477  1.5078
  882MOL0     H16414   2.195   9.892   4.565  1.5885  1.4598  2.3365
  882MOL0     H16415   2.220   9.768   4.701 -2.3998  1.1322  0.7500
  882MOL0     H16416   2.106   9.730   4.426  3.0628 -1.2512 -0.6078
  882MOL0     H16417   2.172   9.603   4.525 -1.0576 -0.9622 -0.9333
  882MOL0     H16418   1.981   9.666   4.684 -2.0061 -1.3744 -0.1948
  882MOL0     H16419   1.914   9.621   4.520 -0.0035  0.2764  0.3482
  882MOL0     H16420   1.968   9.907   4.617 -0.6636  1.0281 -0.0969
  882MOL0     H16421   1.882   9.864   4.470  1.5159  0.3486 -0.7077
  882MOL0     H16422   1.558   9.819   4.716 -0.0631 -0.1523  2.0570
  882MOL0     H16423   2.385   9.926   4.734  1.4086  3.1454 -1.2805
  882MOL0     H16424   2.611   9.999   4.801  4.2513 -1.4223  0.5764
  883MOL0     O16425   2.387  11.343   8.648  0.1496  0.5778 -0.3640
  883MOL0     C16426   2.412  11.227   8.634 -0.9844  0.6059  0.5564
  883MOL0     O16427   2.322  11.131   8.668 -0.0724  0.1295  0.4593
  883MOL0     C16428   2.198  11.163   8.718 -0.0749  0.0041  0.7557
  883MOL0     C16429   2.180  11.245   8.827 -0.7206  0.0294  0.8375
  883MOL0     C16430   2.055  11.297   8.851 -1.0159  1.3144  0.5917
  883MOL0     C16431   1.947  11.242   8.790 -0.2767  0.2605 -0.2726
  883MOL0     O16432   1.831  11.287   8.835 -0.2717 -0.8956  0.3296
  883MOL0     C16433   1.738  11.331   8.728  0.6433 -0.1375  0.5458
  883MOL0     C16434   1.605  11.365   8.797  0.1003 -0.3577 -1.1836
  883MOL0     C16435   1.505  11.404   8.680 -1.2409  0.3059  0.2643
  883MOL0     C16436   1.368  11.352   8.715  0.5759 -0.4375 -0.0854
  883MOL0     C16437   1.256  11.354   8.603 -1.4007  0.0699 -0.6469
  883MOL0     C16438   1.215  11.495   8.569 -0.2777 -0.2061  0.1967
  883MOL0     C16439   1.093  11.487   8.474 -0.7487 -0.2098 -0.6716
  883MOL0     C16440   1.037  11.628   8.452 -0.2490  0.6597  0.2420
  883MOL0     N16441   0.917  11.617   8.369 -0.8009 -0.3883  0.1727
  883MOL0     C16442   0.902  11.627   8.234 -0.3132  0.2161 -0.0167
  883MOL0     C16443   0.774  11.593   8.218  0.1958  0.1616 -0.0285
  883MOL0     C16444   0.699  11.562   8.098 -0.4820 -0.9457 -0.2139
  883MOL0     C16445   0.554  11.501   8.125 -0.3042 -0.1883  0.3682
  883MOL0     C16446   0.466  11.507   7.997  0.2713  0.1310 -0.4359
  883MOL0     C16447   0.319  11.509   8.047  0.4836  0.5401  0.3112
  883MOL0     O16448   0.249  11.482   7.928  0.2865 -0.9387 -0.2050
  883MOL0     C16449   0.114  11.437   7.922 -2.0964  0.4688 -0.6539
  883MOL0     C16450   0.056  11.468   7.806  0.3389  0.5592 -0.0575
  883MOL0     C16451  -0.072  11.425   7.782  0.9372 -0.5959  0.6584
  883MOL0     C16452  -0.149  11.358   7.878  0.2825 -0.5311 -0.3054
  883MOL0     C16453  -0.282  11.319   7.851 -0.6600  0.6822  0.5048
  883MOL0     O16454  -0.359  11.400   7.775  0.7486 -0.8584  0.8707
  883MOL0     C16455  -0.478  11.346   7.724  0.5793  0.0485 -0.1552
  883MOL0     C16456  -0.486  11.243   7.629 -0.0678 -0.6916 -0.4218
  883MOL0     C16457  -0.611  11.183   7.593 -0.3116  0.6676 -0.0303
  883MOL0     C16458  -0.730  11.238   7.640  0.2057 -0.6587  0.2092
  883MOL0     O16459  -0.846  11.175   7.598 -0.0640 -0.0987 -0.3345
  883MOL0     C16460  -0.977  11.218   7.632  0.1078  0.2656 -0.3892
  883MOL0     C16461  -1.029  11.325   7.532  0.2398  0.1242  0.2979
  883MOL0     C16462  -1.152  11.397   7.579  0.0696 -0.3029 -0.3450
  883MOL0     C16463  -1.269  11.303   7.611  0.4126 -0.0909  0.2960
  883MOL0     C16464  -1.400  11.385   7.611 -0.0166 -0.3539 -0.1078
  883MOL0     C16465  -1.523  11.296   7.634 -0.6875  0.5705 -0.4513
  883MOL0     C16466  -1.633  11.371   7.699 -0.7907  0.2870 -0.1473
  883MOL0     C16467  -1.767  11.307   7.701  1.1447  0.7596  0.4403
  883MOL0    Cl16468  -1.883  11.427   7.776  0.4464 -0.4470  0.0164
  883MOL0     C16469  -0.722  11.346   7.727 -0.4247  0.4630  0.2574
  883MOL0     C16470  -0.599  11.393   7.781 -1.1554 -0.2220  1.4349
  883MOL0     O16471  -0.307  11.206   7.897 -0.2630 -0.5836  0.0688
  883MOL0     C16472  -0.095  11.342   8.009 -0.3042  0.2192  0.0030
  883MOL0     C16473   0.043  11.376   8.027  0.0490  0.1319 -0.0683
  883MOL0     N16474   0.721  11.573   8.343 -0.0269  0.3633  0.5907
  883MOL0     N16475   0.804  11.582   8.429  0.3076 -0.4816 -0.5445
  883MOL0     C16476   1.960  11.142   8.692  0.7397  0.2076 -1.4838
  883MOL0     C16477   2.087  11.110   8.649  0.3897 -0.1460  0.6602
  883MOL0     C16478   2.543  11.173   8.597 -0.0943  0.3062 -0.5406
  883MOL0     C16479   2.655  11.251   8.580 -0.5788  0.6909 -0.6197
  883MOL0     C16480   2.785  11.202   8.571  0.3093 -0.1917 -0.4860
  883MOL0     C16481   2.806  11.065   8.577  0.1423  0.2057 -0.4682
  883MOL0     O16482   2.923  10.997   8.590 -0.8972 -0.5650 -0.7191
  883MOL0     C16483   2.975  10.933   8.468  0.1541 -0.0665 -0.5950
  883MOL0     C16484   3.115  10.972   8.429  0.5232 -0.0961  0.1901
  883MOL0     C16485   3.221  10.919   8.526  0.1574 -0.1319 -0.2784
  883MOL0     C16486   3.361  10.974   8.501 -0.1006 -0.3279  0.8010
  883MOL0     C16487   3.426  10.968   8.629  0.2558 -0.7274 -0.3243
  883MOL0     C16488   3.501  10.978   8.724  0.4103 -0.0549  0.4099
  883MOL0     C16489   2.694  10.981   8.590  0.4891  0.7196 -0.3695
  883MOL0     C16490   2.564  11.032   8.602  0.8442  0.2876 -0.6031
  883MOL0     H16491   2.266  11.294   8.871 -0.1076  2.3599 -2.5532
  883MOL0     H16492   2.041  11.377   8.923 -1.9203  2.8648 -1.1986
  883MOL0     H16493   1.719  11.257   8.650  0.0180 -0.3261  0.8713
  883MOL0     H16494   1.791  11.411   8.676  2.2825 -1.1584  0.5728
  883MOL0     H16495   1.611  11.445   8.871 -2.8280 -2.6475  1.8189
  883MOL0     H16496   1.570  11.275   8.848 -1.9929  0.1294 -1.6660
  883MOL0     H16497   1.538  11.354   8.589 -3.0266 -0.5543  0.0349
  883MOL0     H16498   1.509  11.512   8.662  0.4821 -0.1981 -3.0038
  883MOL0     H16499   1.369  11.246   8.740 -1.4252 -0.4206  0.2982
  883MOL0     H16500   1.329  11.395   8.808 -0.9283 -1.6821 -0.0889
  883MOL0     H16501   1.173  11.292   8.639 -0.5551 -2.1633 -2.3462
  883MOL0     H16502   1.298  11.313   8.511  0.7058  0.6130  0.0224
  883MOL0     H16503   1.302  11.547   8.525  0.2828 -0.5494  0.8779
  883MOL0     H16504   1.198  11.555   8.658  1.0804  2.3321 -1.1273
  883MOL0     H16505   1.124  11.455   8.374  0.5556  0.7263 -0.5977
  883MOL0     H16506   1.014  11.425   8.518 -0.1418 -0.5151  0.0105
  883MOL0     H16507   1.117  11.689   8.410  0.6865 -2.0838 -2.2621
  883MOL0     H16508   1.002  11.669   8.548  0.9068 -0.1919  1.0535
  883MOL0     H16509   0.974  11.646   8.154  0.4552 -2.7636 -0.1675
  883MOL0     H16510   0.752  11.495   8.030  1.2541 -0.1967  0.3527
  883MOL0     H16511   0.671  11.656   8.050 -0.8342 -0.7498  0.3506
  883MOL0     H16512   0.501  11.559   8.201  0.3079  0.8992  0.0027
  883MOL0     H16513   0.562  11.395   8.151  1.8373 -0.7735 -2.1903
  883MOL0     H16514   0.479  11.589   7.925 -0.9052  1.9208  1.3005
  883MOL0     H16515   0.472  11.411   7.945 -1.1035  1.0435 -2.4088
  883MOL0     H16516   0.279  11.601   8.091 -0.9381  0.3633 -0.5565
  883MOL0     H16517   0.301  11.428   8.118 -0.6775  1.0600  0.6252
  883MOL0     H16518   0.113  11.518   7.729 -0.1939  2.5914  0.8138
  883MOL0     H16519  -0.121  11.445   7.687  1.8379  3.3106  0.8133
  883MOL0     H16520  -0.388  11.202   7.604 -0.1271 -0.9181 -0.2875
  883MOL0     H16521  -0.604  11.087   7.543 -1.5038  0.2788  0.4852
  883MOL0     H16522  -0.971  11.258   7.733 -0.4605  1.4738 -0.8091
  883MOL0     H16523  -1.040  11.129   7.633  0.2388  0.1711 -0.5423
  883MOL0     H16524  -1.057  11.264   7.446 -1.7176 -1.8569  2.1783
  883MOL0     H16525  -0.953  11.399   7.507 -0.3109  0.9623  1.0234
  883MOL0     H16526  -1.178  11.468   7.500  0.0794  0.8819  0.6904
  883MOL0     H16527  -1.124  11.453   7.669 -2.1508 -0.8925  0.8007
  883MOL0     H16528  -1.277  11.233   7.528 -3.2352 -1.4802  1.5817
  883MOL0     H16529  -1.266  11.244   7.703 -1.4528  1.2343  1.2904
  883MOL0     H16530  -1.423  11.434   7.516 -1.6436  2.6896  1.7120
  883MOL0     H16531  -1.390  11.466   7.684 -1.1236 -0.5031  0.2145
  883MOL0     H16532  -1.486  11.210   7.690  3.9337  1.1852 -2.0694
  883MOL0     H16533  -1.555  11.257   7.538 -2.1562 -1.7101  0.8754
  883MOL0     H16534  -1.592  11.396   7.797 -2.1686 -2.1797  1.1552
  883MOL0     H16535  -1.638  11.465   7.642  0.0709  0.2676 -0.2627
  883MOL0     H16536  -1.768  11.213   7.757 -2.4144  0.8704  0.7747
  883MOL0     H16537  -1.806  11.283   7.601  1.4575  2.1769 -0.0480
  883MOL0     H16538  -0.815  11.382   7.770 -0.7610 -0.2150  0.1100
  883MOL0     H16539  -0.586  11.470   7.856  2.7748  0.7213  0.0710
  883MOL0     H16540  -0.155  11.296   8.086 -0.4431  0.6323  0.1457
  883MOL0     H16541   0.082  11.345   8.123 -0.9193 -1.3098 -0.1187
  883MOL0     H16542   1.871  11.102   8.644 -0.4099  0.4812  0.2833
  883MOL0     H16543   2.094  11.031   8.576 -1.4403  1.0028 -0.8317
  883MOL0     H16544   2.640  11.358   8.568  0.8159  1.2299  1.6843
  883MOL0     H16545   2.872  11.266   8.558  0.2214  0.0970  0.2563
  883MOL0     H16546   2.910  10.968   8.387  0.2402  0.6463 -0.3645
  883MOL0     H16547   2.963  10.825   8.479 -0.4486  0.2252  2.5189
  883MOL0     H16548   3.141  10.960   8.324 -2.3420  2.5580 -0.9770
  883MOL0     H16549   3.117  11.081   8.440 -0.1374 -0.2460  2.2934
  883MOL0     H16550   3.227  10.810   8.519 -0.0523 -0.0313 -2.8977
  883MOL0     H16551   3.191  10.944   8.629  3.4477  2.0705  0.3341
  883MOL0     H16552   3.420  10.907   8.438  1.2426  2.8604 -1.5610
  883MOL0     H16553   3.374  11.070   8.451  0.2636 -1.0685 -0.5464
  883MOL0     H16554   3.576  10.971   8.800  0.2876  0.5145  0.5819
  883MOL0     H16555   2.700  10.876   8.617  0.6257  1.4756  2.9905
  883MOL0     H16556   2.474  10.972   8.606  0.0704  1.4678  0.9582
  884MOL0     O16557   4.815   0.217   4.656  0.7853 -0.2000  0.6127
  884MOL0     C16558   4.805   0.141   4.561 -0.5549  1.2746  0.0537
  884MOL0     O16559   4.694   0.118   4.492  0.7603 -0.7092  0.0032
  884MOL0     C16560   4.568   0.172   4.518 -0.0349  0.7643 -0.5292
  884MOL0     C16561   4.475   0.158   4.416 -0.3806  0.2691 -0.6059
  884MOL0     C16562   4.352   0.227   4.419  0.2766  0.0754 -0.4171
  884MOL0     C16563   4.312   0.303   4.530 -0.4079  0.7232 -0.3560
  884MOL0     O16564   4.182   0.353   4.527 -0.0213 -0.5650 -0.0999
  884MOL0     C16565   4.192   0.496   4.529  0.3497  0.5098 -0.2765
  884MOL0     C16566   4.066   0.542   4.451  0.3683  0.0749  0.4141
  884MOL0     C16567   4.089   0.524   4.302  0.0325 -0.2184 -0.2559
  884MOL0     C16568   3.984   0.586   4.206 -0.1758  0.4806  0.2742
  884MOL0     C16569   3.836   0.549   4.212 -0.6086 -0.1128 -0.1030
  884MOL0     C16570   3.814   0.401   4.231  0.0044  0.8588  0.2999
  884MOL0     C16571   3.669   0.371   4.191  0.3582  0.0594  1.0159
  884MOL0     C16572   3.563   0.428   4.285 -1.1884  0.1249  0.3571
  884MOL0     N16573   3.431   0.385   4.240 -0.2657  0.7922  0.0669
  884MOL0     C16574   3.342   0.315   4.323 -0.1645  0.4031  1.0236
  884MOL0     C16575   3.225   0.317   4.247  0.6030 -0.0130 -0.5676
  884MOL0     C16576   3.110   0.228   4.268  1.1828 -1.4714 -0.2376
  884MOL0     C16577   3.144   0.078   4.232  0.1459 -0.2820  0.2621
  884MOL0     C16578   3.009   0.006   4.209  0.4364 -0.3046 -0.5229
  884MOL0     C16579   3.047  -0.132   4.164 -0.2251 -0.3229  0.6579
  884MOL0     O16580   3.061  -0.226   4.270 -0.1881  0.1993 -0.3886
  884MOL0     C16581   2.936  -0.274   4.328  0.0488  0.2828 -0.1755
  884MOL0     C16582   2.811  -0.265   4.268  0.6826  0.2665  0.0732
  884MOL0     C16583   2.704  -0.306   4.339 -0.0730  0.5550 -0.9757
  884MOL0     C16584   2.716  -0.363   4.467  0.0781  0.5998 -0.3842
  884MOL0     C16585   2.576  -0.401   4.528  0.1423 -0.5798 -0.0239
  884MOL0     O16586   2.465  -0.341   4.468 -0.6453  0.2276 -0.4182
  884MOL0     C16587   2.346  -0.397   4.498 -0.1471  0.1629 -0.2455
  884MOL0     C16588   2.248  -0.334   4.575 -0.5279 -0.0973 -0.1046
  884MOL0     C16589   2.123  -0.403   4.594 -0.1171  0.6278  0.6766
  884MOL0     C16590   2.094  -0.531   4.527  0.1824 -0.3600  0.5191
  884MOL0     O16591   1.964  -0.573   4.543  0.4752 -0.1636 -0.4190
  884MOL0     C16592   1.922  -0.696   4.478 -0.0499  0.1566  0.2981
  884MOL0     C16593   1.784  -0.727   4.532 -0.1493 -0.2520  0.4950
  884MOL0     C16594   1.674  -0.619   4.492  0.4966 -0.2636 -0.6290
  884MOL0     C16595   1.536  -0.652   4.558  0.4371  0.7742 -0.4861
  884MOL0     C16596   1.421  -0.548   4.523  0.1672  1.2896 -0.4985
  884MOL0     C16597   1.292  -0.555   4.601  0.1785 -0.0109 -0.5352
  884MOL0     C16598   1.205  -0.659   4.540 -0.0859 -0.2037  0.8823
  884MOL0     C16599   1.065  -0.653   4.599 -0.9674 -0.7533 -0.3477
  884MOL0    Cl16600   0.940  -0.751   4.533  0.4912 -0.2653 -0.3784
  884MOL0     C16601   2.193  -0.590   4.452 -0.1291 -0.6494  0.5282
  884MOL0     C16602   2.320  -0.523   4.431 -0.5092 -0.2319 -0.0150
  884MOL0     O16603   2.579  -0.487   4.616  0.0444  0.1290  0.1631
  884MOL0     C16604   2.843  -0.393   4.516  1.2892  0.2140  0.4102
  884MOL0     C16605   2.950  -0.347   4.441  0.2417  0.2287 -0.5698
  884MOL0     N16606   3.243   0.409   4.148 -0.0981 -0.2492  0.0323
  884MOL0     N16607   3.366   0.443   4.139 -0.3412  0.6704 -0.5918
  884MOL0     C16608   4.391   0.298   4.641  0.0804  0.1166 -0.2501
  884MOL0     C16609   4.522   0.232   4.642  0.2626 -0.2321  0.3975
  884MOL0     C16610   4.930   0.077   4.509 -1.0236 -0.1722  0.2320
  884MOL0     C16611   5.062   0.118   4.544  0.5435  0.7202  0.1323
  884MOL0     C16612   5.171   0.066   4.478 -0.1143  0.0519 -0.3588
  884MOL0     C16613   5.151  -0.004   4.358 -0.4417 -0.3399 -1.1475
  884MOL0     O16614   5.263  -0.035   4.282  0.2026 -0.0900 -0.3301
  884MOL0     C16615   5.258   0.015   4.147  0.2193 -0.6079 -0.5497
  884MOL0     C16616   5.387   0.100   4.140 -1.3831 -0.4633  0.1867
  884MOL0     C16617   5.507   0.010   4.110 -0.1284 -0.0122 -0.1115
  884MOL0     C16618   5.634   0.093   4.109  0.1123  0.1336 -0.0012
  884MOL0     C16619   5.671   0.106   4.252 -0.3780 -0.6015 -0.0136
  884MOL0     C16620   5.695   0.116   4.371 -0.0009 -0.4913 -0.6167
  884MOL0     C16621   5.028  -0.049   4.324 -0.8014  0.6649 -0.6112
  884MOL0     C16622   4.915  -0.006   4.398 -0.3578  0.2487 -0.5973
  884MOL0     H16623   4.512   0.119   4.322  0.0598 -1.0852  0.1083
  884MOL0     H16624   4.287   0.230   4.332  0.8805 -0.0118 -0.8788
  884MOL0     H16625   4.281   0.533   4.477  0.1198  0.4853 -0.6966
  884MOL0     H16626   4.193   0.523   4.635 -0.8279 -2.0094  0.4395
  884MOL0     H16627   4.058   0.650   4.465  2.4288  0.1249  1.5469
  884MOL0     H16628   3.973   0.491   4.477 -0.3566  1.1978  0.0673
  884MOL0     H16629   4.094   0.417   4.281  1.6441  0.3510 -3.4988
  884MOL0     H16630   4.182   0.567   4.265 -0.4321 -1.0011 -2.4994
  884MOL0     H16631   3.992   0.695   4.209  0.5442  0.4103  1.0066
  884MOL0     H16632   4.023   0.548   4.111  0.7131 -4.0479  2.2303
  884MOL0     H16633   3.780   0.595   4.131 -1.0364  1.3780  0.9980
  884MOL0     H16634   3.800   0.598   4.303 -2.2031  1.4572 -1.4999
  884MOL0     H16635   3.836   0.377   4.335  1.0709 -0.7045 -0.2415
  884MOL0     H16636   3.893   0.346   4.178 -0.1075  0.3592  0.6516
  884MOL0     H16637   3.646   0.413   4.093 -1.6181 -0.3632  1.2640
  884MOL0     H16638   3.670   0.262   4.188  0.8585  0.0642  0.9280
  884MOL0     H16639   3.570   0.536   4.270 -3.3529  0.3229  0.3766
  884MOL0     H16640   3.578   0.412   4.392 -1.1682 -1.7872  0.1130
  884MOL0     H16641   3.362   0.260   4.414 -1.6683 -0.3001  0.9603
  884MOL0     H16642   3.034   0.275   4.205 -0.1455 -2.8040  0.3273
  884MOL0     H16643   3.067   0.247   4.367 -0.4765  2.3608 -1.4935
  884MOL0     H16644   3.200   0.036   4.317  1.0626  1.0587  0.3595
  884MOL0     H16645   3.204   0.093   4.142 -3.1364  3.0172 -1.6362
  884MOL0     H16646   2.956   0.006   4.305  1.6346  2.0472  0.2140
  884MOL0     H16647   2.960   0.062   4.129  2.0786 -0.6345 -1.8122
  884MOL0     H16648   3.144  -0.129   4.113  0.2166 -1.3037  1.3879
  884MOL0     H16649   2.970  -0.164   4.093 -0.7443 -0.0500  1.0893
  884MOL0     H16650   2.799  -0.233   4.165 -1.5361  2.0455  0.7872
  884MOL0     H16651   2.606  -0.295   4.292 -1.5366 -1.1490  1.5111
  884MOL0     H16652   2.272  -0.236   4.617  0.4885 -0.2107 -0.4094
  884MOL0     H16653   2.042  -0.351   4.645 -1.5555 -2.1777  1.4787
  884MOL0     H16654   1.988  -0.773   4.519  0.1123  0.3835  0.4621
  884MOL0     H16655   1.915  -0.690   4.369  2.0163  3.2420  0.2155
  884MOL0     H16656   1.791  -0.742   4.640  2.1134  1.7740  0.7157
  884MOL0     H16657   1.761  -0.831   4.504 -0.5943 -0.4134  1.4137
  884MOL0     H16658   1.664  -0.605   4.383  1.3793  1.4068 -0.5271
  884MOL0     H16659   1.697  -0.517   4.521 -3.8179  1.1181 -1.3128
  884MOL0     H16660   1.501  -0.753   4.533 -0.0690  1.1712 -1.4302
  884MOL0     H16661   1.554  -0.654   4.666  1.1635  1.8062 -0.5803
  884MOL0     H16662   1.404  -0.542   4.415 -3.6961  1.6870 -0.0316
  884MOL0     H16663   1.464  -0.454   4.557 -1.0919  1.0345  2.1354
  884MOL0     H16664   1.240  -0.459   4.599 -1.6725 -0.9761 -0.7610
  884MOL0     H16665   1.312  -0.573   4.707 -0.5954  2.9638  0.1997
  884MOL0     H16666   1.182  -0.648   4.434  1.9474  1.4546  0.5452
  884MOL0     H16667   1.252  -0.758   4.538 -0.3144 -0.3074  0.6315
  884MOL0     H16668   1.026  -0.551   4.599 -2.1021 -1.1192  1.8329
  884MOL0     H16669   1.080  -0.676   4.705 -0.2041 -3.6942 -1.0018
  884MOL0     H16670   2.167  -0.673   4.388 -1.6338  0.8038 -0.8582
  884MOL0     H16671   2.394  -0.569   4.365 -1.1071 -0.2343 -0.6967
  884MOL0     H16672   2.858  -0.461   4.600  0.0414 -0.3367  0.2087
  884MOL0     H16673   3.051  -0.371   4.471 -0.2117 -4.3275 -2.0555
  884MOL0     H16674   4.346   0.329   4.734 -0.6358 -2.0637  0.1904
  884MOL0     H16675   4.577   0.231   4.735 -0.0412  0.0506  0.5806
  884MOL0     H16676   5.083   0.188   4.624  2.5295  1.2093 -0.7598
  884MOL0     H16677   5.269   0.087   4.520 -1.5119 -1.2749  4.0762
  884MOL0     H16678   5.191   0.100   4.127  1.0803  0.2049 -0.0632
  884MOL0     H16679   5.244  -0.060   4.068 -3.3310 -0.5773 -0.1074
  884MOL0     H16680   5.380   0.162   4.050  2.3007  1.0959  0.8156
  884MOL0     H16681   5.396   0.169   4.224  1.9973 -0.4941 -0.0255
  884MOL0     H16682   5.498  -0.039   4.013  0.1464  0.9674 -0.6475
  884MOL0     H16683   5.512  -0.071   4.184 -0.2528 -1.5455 -1.7133
  884MOL0     H16684   5.713   0.048   4.049  1.0095  0.6419  0.7728
  884MOL0     H16685   5.624   0.195   4.069 -0.2580 -0.2727 -0.9593
  884MOL0     H16686   5.713   0.129   4.475 -1.5894 -0.6088 -0.2997
  884MOL0     H16687   5.023  -0.116   4.239 -2.5802 -1.7912  1.2981
  884MOL0     H16688   4.818  -0.044   4.367 -0.0224  0.2078 -1.6233
  885MOL0     O16689  11.297   0.445   5.689  0.1781  0.6256 -0.6323
  885MOL0     C16690  11.349   0.516   5.775 -0.2146  0.0309 -0.3021
  885MOL0     O16691  11.285   0.566   5.887 -0.3108 -0.2787  0.5243
  885MOL0     C16692  11.158   0.525   5.913 -0.1088  0.3897  0.0182
  885MOL0     C16693  11.057   0.619   5.901  0.0601  0.3777 -0.4978
  885MOL0     C16694  10.916   0.579   5.916  0.0566 -0.1618 -0.1500
  885MOL0     C16695  10.884   0.443   5.933 -0.9218 -0.4568 -0.6062
  885MOL0     O16696  10.760   0.389   5.951 -0.9645 -0.6536  0.2155
  885MOL0     C16697  10.644   0.474   5.955 -1.2667  0.8715 -0.6187
  885MOL0     C16698  10.548   0.464   5.837  0.9532  0.4322 -0.0144
  885MOL0     C16699  10.530   0.305   5.803 -0.3488  0.0930  0.9659
  885MOL0     C16700  10.445   0.275   5.687  0.0910  0.0553 -0.1695
  885MOL0     C16701  10.422   0.133   5.643 -0.1717  0.1379 -0.4681
  885MOL0     C16702  10.528   0.063   5.554 -0.3402  0.2945 -0.0788
  885MOL0     C16703  10.630  -0.013   5.648  0.5322 -0.4642 -0.0786
  885MOL0     C16704  10.766  -0.052   5.587  0.4572  0.1257  0.5946
  885MOL0     N16705  10.845   0.055   5.531 -0.0860  0.7979  0.4055
  885MOL0     C16706  10.862   0.179   5.584 -0.8738  0.7595  0.6422
  885MOL0     C16707  10.949   0.232   5.495  0.4003  0.8403 -0.1978
  885MOL0     C16708  11.012   0.364   5.498  0.2237 -0.4834 -1.2937
  885MOL0     C16709  10.918   0.475   5.471  0.5776  0.0023 -0.3930
  885MOL0     C16710  10.941   0.583   5.572 -0.0046 -0.3655  0.4796
  885MOL0     C16711  10.828   0.693   5.580  0.5043  0.2290 -0.7018
  885MOL0     O16712  10.709   0.625   5.575  0.3494  0.0432 -0.3023
  885MOL0     C16713  10.606   0.701   5.508 -0.4698  0.0668  1.4607
  885MOL0     C16714  10.560   0.665   5.375  0.5314  0.5243  0.1684
  885MOL0     C16715  10.471   0.740   5.310  0.1510  0.4716 -0.3039
  885MOL0     C16716  10.425   0.861   5.370  1.1271  0.6617 -0.1747
  885MOL0     C16717  10.325   0.941   5.309  0.0765  0.7277 -0.1462
  885MOL0     O16718  10.284   1.060   5.383 -0.2012  0.3338  0.4822
  885MOL0     C16719  10.153   1.094   5.363  0.8269 -0.0075 -0.3858
  885MOL0     C16720  10.116   1.212   5.307  0.9745 -0.8236  0.0710
  885MOL0     C16721   9.984   1.248   5.285  0.5082  0.1697  0.0785
  885MOL0     C16722   9.884   1.165   5.331 -0.5658  0.9132 -0.2608
  885MOL0     O16723   9.756   1.200   5.317 -0.5160  0.2811  0.4111
  885MOL0     C16724   9.662   1.159   5.409 -0.2131  0.4035 -0.3050
  885MOL0     C16725   9.573   1.041   5.352  0.5061  0.1464 -0.3986
  885MOL0     C16726   9.491   0.981   5.465  0.1661  0.7406 -0.5129
  885MOL0     C16727   9.412   0.865   5.414  0.2863 -0.0885  0.3395
  885MOL0     C16728   9.305   0.807   5.501  1.3991  0.0794  0.0476
  885MOL0     C16729   9.233   0.694   5.426  0.4279  0.2085  0.5800
  885MOL0     C16730   9.111   0.653   5.514  1.1211  0.7998 -0.1261
  885MOL0     C16731   8.997   0.598   5.417 -0.0739 -0.5907 -0.9463
  885MOL0    Cl16732   8.896   0.713   5.327  0.2043 -0.0105  0.2280
  885MOL0     C16733   9.915   1.045   5.389 -0.3599 -0.2919 -0.0796
  885MOL0     C16734  10.044   1.004   5.402 -1.0039 -0.5734  0.7985
  885MOL0     O16735  10.270   0.900   5.202  0.1641 -0.1926  0.2655
  885MOL0     C16736  10.461   0.888   5.501 -0.3710  0.0334 -1.1930
  885MOL0     C16737  10.554   0.815   5.564 -0.4682 -0.3275  0.1253
  885MOL0     N16738  10.979   0.142   5.392  0.1132 -0.9553 -0.2018
  885MOL0     N16739  10.907   0.045   5.407  0.2778 -0.0762 -0.2488
  885MOL0     C16740  10.994   0.356   5.940  0.1858  0.8927 -0.5078
  885MOL0     C16741  11.129   0.395   5.940  0.2806 -0.8475  0.4743
  885MOL0     C16742  11.498   0.543   5.770  0.1961  0.9710  0.2737
  885MOL0     C16743  11.581   0.566   5.886  0.0989 -0.8433  0.1645
  885MOL0     C16744  11.723   0.592   5.864 -0.7336  0.7617 -0.6188
  885MOL0     C16745  11.775   0.602   5.737  0.4665 -0.0811  0.0139
  885MOL0     O16746  11.900   0.630   5.703 -0.2712 -0.6432 -0.1292
  885MOL0     C16747  11.997   0.592   5.803  0.3023  0.6735 -0.7639
  885MOL0     C16748  12.007   0.443   5.834  1.1131 -0.3969 -0.4076
  885MOL0     C16749  12.014   0.348   5.713  0.1665 -0.2824  0.3715
  885MOL0     C16750  12.117   0.376   5.605 -0.4147 -0.7209  0.0437
  885MOL0     C16751  12.249   0.362   5.662 -0.8324  0.0755  0.3952
  885MOL0     C16752  12.349   0.359   5.724 -0.8931  0.0601 -0.2927
  885MOL0     C16753  11.692   0.592   5.626  0.0022 -0.2764  1.4101
  885MOL0     C16754  11.559   0.553   5.646 -0.1567  0.4024  0.6542
  885MOL0     H16755  11.086   0.717   5.863 -1.3880  0.2812 -1.9671
  885MOL0     H16756  10.837   0.653   5.907  0.7656  0.8884  1.7493
  885MOL0     H16757  10.681   0.576   5.967 -1.9777  1.2306 -1.3931
  885MOL0     H16758  10.589   0.442   6.044  0.7957  0.2712  0.5058
  885MOL0     H16759  10.594   0.515   5.752 -2.9099  2.7124 -0.9826
  885MOL0     H16760  10.452   0.512   5.860  1.8631  2.0794  0.5034
  885MOL0     H16761  10.488   0.258   5.893 -1.7061 -0.4591  0.0711
  885MOL0     H16762  10.627   0.259   5.783  0.3931  2.3674 -1.1099
  885MOL0     H16763  10.343   0.312   5.703  0.3806  0.5850  0.4814
  885MOL0     H16764  10.486   0.335   5.606  2.2017 -1.4887 -0.3297
  885MOL0     H16765  10.331   0.138   5.583  0.1082  0.0721 -0.9040
  885MOL0     H16766  10.402   0.073   5.732  0.7355 -1.1039 -1.0760
  885MOL0     H16767  10.573   0.136   5.487 -0.2856  0.8829  0.5882
  885MOL0     H16768  10.484  -0.020   5.498  4.5580 -2.7531 -0.1071
  885MOL0     H16769  10.660   0.054   5.729  1.3721  0.2011 -0.9215
  885MOL0     H16770  10.577  -0.098   5.691 -1.6240  1.1296  0.6471
  885MOL0     H16771  10.740  -0.119   5.505  3.5437 -0.3596 -0.1224
  885MOL0     H16772  10.833  -0.090   5.665  1.9396  2.3982  0.5113
  885MOL0     H16773  10.816   0.204   5.678 -1.2128 -2.4945  1.4718
  885MOL0     H16774  11.101   0.359   5.435  0.5731  0.2284 -0.8633
  885MOL0     H16775  11.045   0.368   5.602 -1.1714 -1.1675 -0.7910
  885MOL0     H16776  10.812   0.449   5.463  0.3707  1.1654 -1.7134
  885MOL0     H16777  10.944   0.512   5.372  3.1901 -1.9882 -0.5583
  885MOL0     H16778  10.932   0.534   5.669 -2.0430  3.2114  2.2815
  885MOL0     H16779  11.037   0.635   5.558  1.4967 -2.1229  3.2373
  885MOL0     H16780  10.851   0.759   5.496  3.4196 -2.2239 -2.0511
  885MOL0     H16781  10.825   0.748   5.674 -4.3731  0.4582 -0.7165
  885MOL0     H16782  10.612   0.579   5.336 -0.4017 -0.1959  0.4872
  885MOL0     H16783  10.449   0.710   5.208  3.7209  3.2854 -2.1346
  885MOL0     H16784  10.187   1.288   5.277 -0.0044  1.1961  2.4770
  885MOL0     H16785   9.959   1.350   5.259 -0.8790 -1.1666 -4.9178
  885MOL0     H16786   9.591   1.240   5.429 -2.7278 -2.0189  1.2671
  885MOL0     H16787   9.701   1.142   5.510 -1.2551  1.2665  0.2683
  885MOL0     H16788   9.632   0.964   5.302  0.7706 -0.7222  1.2143
  885MOL0     H16789   9.512   1.091   5.276 -0.1668 -0.8180 -0.5082
  885MOL0     H16790   9.416   1.050   5.505 -2.3756 -2.6179  1.0022
  885MOL0     H16791   9.544   0.943   5.553 -1.5306  0.0322  0.2384
  885MOL0     H16792   9.358   0.916   5.334  0.3833  0.5489  0.6773
  885MOL0     H16793   9.488   0.794   5.380  0.7213 -0.0834  1.2652
  885MOL0     H16794   9.231   0.885   5.519  2.9034  1.8145 -0.9443
  885MOL0     H16795   9.349   0.765   5.592 -1.5051 -0.6177  1.2726
  885MOL0     H16796   9.303   0.612   5.408  3.6202  2.6281  1.0619
  885MOL0     H16797   9.207   0.745   5.333  0.4510  1.9087  1.4634
  885MOL0     H16798   9.127   0.570   5.584 -1.5531  0.8947  0.7133
  885MOL0     H16799   9.068   0.736   5.571 -2.6277 -1.1881  0.2658
  885MOL0     H16800   8.927   0.538   5.475  3.1488 -2.8543  0.9460
  885MOL0     H16801   9.045   0.521   5.356  0.4670 -1.7870  0.9090
  885MOL0     H16802   9.843   0.971   5.424  2.1636 -3.4458 -1.0797
  885MOL0     H16803  10.070   0.915   5.458  5.0323  0.6405  0.6501
  885MOL0     H16804  10.420   0.979   5.543 -0.1253 -0.9630  1.3420
  885MOL0     H16805  10.587   0.830   5.667 -3.8319 -0.8130  1.4071
  885MOL0     H16806  10.969   0.252   5.954  2.1555  0.1409 -2.0223
  885MOL0     H16807  11.199   0.314   5.957 -0.5490 -1.1158  3.1781
  885MOL0     H16808  11.527   0.578   5.979 -1.7002  1.6947 -1.0812
  885MOL0     H16809  11.788   0.618   5.947 -1.1515  0.5136 -0.2064
  885MOL0     H16810  11.988   0.652   5.893  1.7344 -1.6584  1.0571
  885MOL0     H16811  12.097   0.613   5.763  0.1171  0.2975 -1.4558
  885MOL0     H16812  12.097   0.411   5.888  0.0082 -4.0374 -0.4536
  885MOL0     H16813  11.930   0.412   5.904  1.0132  0.1529 -0.2761
  885MOL0     H16814  11.916   0.351   5.664 -0.3961 -1.6502  1.3221
  885MOL0     H16815  12.017   0.243   5.744  2.0148  0.0184  1.3348
  885MOL0     H16816  12.118   0.309   5.518  0.9855 -0.1697 -0.3983
  885MOL0     H16817  12.102   0.481   5.577  1.3409 -0.7892 -1.3502
  885MOL0     H16818  12.440   0.364   5.782 -1.9760 -2.8520  1.8792
  885MOL0     H16819  11.748   0.594   5.533 -0.0855 -3.4491  1.1755
  885MOL0     H16820  11.496   0.533   5.559  0.5806  0.0660  0.1900
  886MOL0     O16821   4.558   9.468   0.684  0.1586 -0.8991  0.2416
  886MOL0     C16822   4.504   9.549   0.760 -0.5670 -0.5034  1.0265
  886MOL0     O16823   4.563   9.647   0.833  0.2532 -0.8849  0.3790
  886MOL0     C16824   4.696   9.662   0.859 -0.7213  0.2177  0.8026
  886MOL0     C16825   4.806   9.613   0.789 -1.0196  0.2185  1.1458
  886MOL0     C16826   4.940   9.643   0.828  0.2682  0.1741  0.0335
  886MOL0     C16827   4.975   9.721   0.945  0.2593  0.9563 -0.0339
  886MOL0     O16828   5.109   9.744   0.952  0.1482  0.3303  0.1297
  886MOL0     C16829   5.139   9.868   1.020 -0.3422  0.1107 -0.2379
  886MOL0     C16830   5.295   9.899   1.023  0.6063  0.1132  0.8268
  886MOL0     C16831   5.339   9.939   0.880 -0.9536 -0.2511  0.5810
  886MOL0     C16832   5.490   9.947   0.860 -0.5005 -1.6670  0.2229
  886MOL0     C16833   5.528  10.027   0.727 -0.6488 -0.3766  0.3386
  886MOL0     C16834   5.474   9.960   0.594 -1.0771 -0.4886 -0.2124
  886MOL0     C16835   5.588   9.866   0.540 -0.9941  0.6853  0.0463
  886MOL0     C16836   5.564   9.823   0.396 -0.5830  0.3815  0.3822
  886MOL0     N16837   5.619   9.919   0.292  0.0250 -0.1916 -0.3118
  886MOL0     C16838   5.743   9.926   0.231 -0.3720  0.2107  0.4706
  886MOL0     C16839   5.732  10.016   0.131 -0.3054  0.1227  0.3875
  886MOL0     C16840   5.809  10.039   0.002  0.0350  0.3225 -0.0779
  886MOL0     C16841   5.961  10.049   0.032 -0.4136 -1.1079 -0.7541
  886MOL0     C16842   5.997  10.168   0.120  0.5899  0.0700  0.4459
  886MOL0     C16843   5.970  10.303   0.049  0.6676 -0.2842  0.7151
  886MOL0     O16844   6.063  10.315  -0.073 -0.6318 -0.7068 -0.9739
  886MOL0     C16845   6.116  10.438  -0.096 -0.3296  0.0283  0.7142
  886MOL0     C16846   6.050  10.553  -0.066  0.4454 -1.2628  0.5375
  886MOL0     C16847   6.105  10.681  -0.094 -0.2384 -0.6395 -0.3413
  886MOL0     C16848   6.220  10.684  -0.165  0.6569 -0.0002  1.4492
  886MOL0     C16849   6.279  10.824  -0.193  0.3643  0.9120  0.0917
  886MOL0     O16850   6.266  10.911  -0.098  0.2087 -0.1411  0.1037
  886MOL0     C16851   6.307  11.038  -0.116  0.0518 -0.1949 -0.7145
  886MOL0     C16852   6.420  11.082  -0.183  0.3687  0.4084 -0.8375
  886MOL0     C16853   6.460  11.219  -0.180 -0.4668  0.4116 -0.1841
  886MOL0     C16854   6.384  11.306  -0.100  0.4637 -0.7799 -0.2832
  886MOL0     O16855   6.433  11.436  -0.088  0.4477 -0.4224 -0.6830
  886MOL0     C16856   6.437  11.526  -0.198 -0.9945 -0.7097 -0.0190
  886MOL0     C16857   6.486  11.668  -0.156 -0.3731 -0.2917 -0.3684
  886MOL0     C16858   6.389  11.736  -0.066  0.9781 -0.1772  0.3266
  886MOL0     C16859   6.270  11.796  -0.150 -0.4763 -0.6684  0.0778
  886MOL0     C16860   6.185  11.896  -0.069  0.3648 -0.4365 -0.2283
  886MOL0     C16861   6.069  11.959  -0.158 -0.4581  0.0166  0.7058
  886MOL0     C16862   5.965  12.050  -0.092  0.0070 -0.3368 -0.2593
  886MOL0     C16863   6.003  12.178  -0.019  0.9111  0.0831  0.0203
  886MOL0    Cl16864   6.118  12.266  -0.120  0.1061  0.0758  0.2882
  886MOL0     C16865   6.276  11.252  -0.030  0.4176 -0.5870  0.4345
  886MOL0     C16866   6.239  11.124  -0.033 -0.4346  0.0578  0.6651
  886MOL0     O16867   6.335  10.844  -0.304  0.8211  0.2116 -0.0857
  886MOL0     C16868   6.292  10.574  -0.202 -0.4617  0.0404 -0.1520
  886MOL0     C16869   6.244  10.452  -0.157  0.4890  1.1699  0.6146
  886MOL0     N16870   5.606  10.072   0.143  0.4088 -0.2163 -0.4234
  886MOL0     N16871   5.540  10.019   0.240 -0.2321 -0.5194  0.1718
  886MOL0     C16872   4.861   9.766   1.020 -0.2491 -0.0045  0.1415
  886MOL0     C16873   4.728   9.739   0.976 -1.4463  0.4004  0.4710
  886MOL0     C16874   4.355   9.543   0.758 -0.7752  0.3253 -0.0075
  886MOL0     C16875   4.281   9.447   0.684 -0.6375  0.3817  0.5456
  886MOL0     C16876   4.140   9.432   0.698  0.2106  0.1453  0.5984
  886MOL0     C16877   4.074   9.516   0.781  0.0153 -0.3193 -0.1590
  886MOL0     O16878   3.937   9.494   0.798 -0.0059 -0.1472 -0.1701
  886MOL0     C16879   3.859   9.587   0.880 -0.8138 -0.6154  0.4337
  886MOL0     C16880   3.717   9.554   0.885  0.6346  0.1348  0.0698
  886MOL0     C16881   3.699   9.417   0.972  0.2056 -0.5246 -0.1610
  886MOL0     C16882   3.549   9.394   1.014 -0.6433  0.0210 -0.3488
  886MOL0     C16883   3.492   9.517   1.078 -0.8591  0.3848 -0.9724
  886MOL0     C16884   3.441   9.612   1.130 -0.8592  0.5667 -0.5106
  886MOL0     C16885   4.136   9.624   0.840  0.7115 -0.0494  0.0665
  886MOL0     C16886   4.276   9.626   0.833 -0.1336 -0.1622 -0.0902
  886MOL0     H16887   4.792   9.546   0.706  1.0205  0.7966  0.2680
  886MOL0     H16888   5.016   9.597   0.767 -0.5208 -0.9383 -0.1404
  886MOL0     H16889   5.103   9.863   1.124 -1.7127 -0.9952 -0.7348
  886MOL0     H16890   5.094   9.955   0.972 -0.8666  0.7936  1.4182
  886MOL0     H16891   5.349   9.806   1.043 -0.6703 -0.5436  1.3842
  886MOL0     H16892   5.327   9.966   1.103 -1.3243 -1.9176  3.5088
  886MOL0     H16893   5.292  10.034   0.853  0.5373  0.7945  1.5578
  886MOL0     H16894   5.297   9.861   0.816 -0.8344  0.4895 -0.4242
  886MOL0     H16895   5.527   9.991   0.953 -3.4595  1.6943  0.0062
  886MOL0     H16896   5.539   9.849   0.858  2.5192 -0.3855  2.8175
  886MOL0     H16897   5.637  10.036   0.731 -0.5976 -1.3173  1.2650
  886MOL0     H16898   5.477  10.124   0.738  0.8195  0.3230  1.3337
  886MOL0     H16899   5.457  10.029   0.511  2.0353 -2.1347 -2.4029
  886MOL0     H16900   5.388   9.895   0.614 -1.0680 -0.3941  0.1559
  886MOL0     H16901   5.690   9.907   0.544 -1.4182  1.8814 -0.6517
  886MOL0     H16902   5.605   9.783   0.609  2.3338  2.8201  2.1115
  886MOL0     H16903   5.456   9.816   0.385 -0.4705  0.6467 -1.1469
  886MOL0     H16904   5.612   9.727   0.372  1.8533  1.4043  0.7893
  886MOL0     H16905   5.827   9.870   0.269 -3.2001 -2.9910  2.5980
  886MOL0     H16906   5.771  10.135  -0.034 -1.2632  0.0444  0.4883
  886MOL0     H16907   5.789   9.961  -0.071  3.3066 -0.1445 -0.6187
  886MOL0     H16908   6.023  10.059  -0.057 -0.9349  1.2897 -0.9243
  886MOL0     H16909   5.996   9.968   0.096 -0.5021 -0.5172  0.0605
  886MOL0     H16910   5.952  10.154   0.219 -1.9876  0.4832 -0.5772
  886MOL0     H16911   6.104  10.162   0.139  0.7442 -4.3051 -0.6816
  886MOL0     H16912   5.983  10.377   0.128  0.2545  2.9778 -2.0060
  886MOL0     H16913   5.869  10.323   0.012  1.8397 -0.4100 -3.0329
  886MOL0     H16914   5.950  10.555  -0.023  0.0703  1.7697 -0.2482
  886MOL0     H16915   6.060  10.772  -0.058  1.1227 -0.2852  0.5529
  886MOL0     H16916   6.482  11.008  -0.232 -2.2727 -1.9926 -0.7832
  886MOL0     H16917   6.541  11.248  -0.247 -0.8094  1.7856 -0.0251
  886MOL0     H16918   6.346  11.530  -0.259 -0.2104  4.4039 -1.2699
  886MOL0     H16919   6.514  11.483  -0.263 -1.8839 -0.6138 -1.1643
  886MOL0     H16920   6.517  11.734  -0.238 -1.9957 -0.3708 -1.0820
  886MOL0     H16921   6.580  11.653  -0.103 -0.8941  2.1818  1.4656
  886MOL0     H16922   6.423  11.815   0.001 -1.2172  1.5451 -0.4781
  886MOL0     H16923   6.347  11.658  -0.001 -1.4513 -0.6890 -1.7034
  886MOL0     H16924   6.307  11.843  -0.242 -3.9671  0.1905 -1.0615
  886MOL0     H16925   6.197  11.719  -0.180 -3.4660  2.6383 -1.9761
  886MOL0     H16926   6.252  11.973  -0.027 -1.8443  2.0848 -1.0845
  886MOL0     H16927   6.140  11.850   0.019  0.1128  0.2490  0.0095
  886MOL0     H16928   6.010  11.877  -0.198 -0.9871  1.0496 -0.7155
  886MOL0     H16929   6.116  12.023  -0.233  3.5144 -0.9960  2.0711
  886MOL0     H16930   5.895  12.077  -0.172  0.6388 -2.2916 -1.5237
  886MOL0     H16931   5.906  11.980  -0.032  0.5939  0.6172  1.5194
  886MOL0     H16932   6.037  12.148   0.080 -2.7452  1.4252  1.8523
  886MOL0     H16933   5.907  12.230  -0.014 -0.3805 -2.0861 -0.4626
  886MOL0     H16934   6.214  11.324   0.023  0.9278  1.2049 -1.2758
  886MOL0     H16935   6.154  11.102   0.031  0.6772 -1.7500  1.5883
  886MOL0     H16936   6.391  10.578  -0.245  0.0005 -0.0318  0.8775
  886MOL0     H16937   6.301  10.363  -0.184 -1.1335 -0.8522  3.3463
  886MOL0     H16938   4.879   9.818   1.113 -2.7365 -1.6025  1.6169
  886MOL0     H16939   4.647   9.795   1.023 -1.9113 -1.0068  1.4138
  886MOL0     H16940   4.340   9.363   0.648 -2.1017  0.9504 -3.7134
  886MOL0     H16941   4.078   9.356   0.652 -1.2187 -0.4156  3.2177
  886MOL0     H16942   3.866   9.688   0.838  0.0987 -1.7404 -2.3228
  886MOL0     H16943   3.903   9.570   0.979 -0.1035 -1.4968 -0.0252
  886MOL0     H16944   3.659   9.633   0.934 -0.6105 -0.3814 -0.5278
  886MOL0     H16945   3.693   9.536   0.780  2.5096 -4.9819  0.2516
  886MOL0     H16946   3.755   9.433   1.065 -2.7553 -3.0958  2.2789
  886MOL0     H16947   3.744   9.330   0.925  2.1500  0.3106  0.0910
  886MOL0     H16948   3.494   9.362   0.925  0.3499 -2.2223 -0.2040
  886MOL0     H16949   3.536   9.313   1.086  1.4916  0.2926  0.4207
  886MOL0     H16950   3.377   9.684   1.177  0.2544  1.0649  0.3018
  886MOL0     H16951   4.076   9.685   0.907 -1.8160 -2.9471  0.6409
  886MOL0     H16952   4.322   9.711   0.882  0.6682 -0.9996  0.6417
  887MOL0     O16953   1.713   4.953   1.671  0.1392 -0.7148 -0.4475
  887MOL0     C16954   1.664   5.068   1.704  0.6085 -0.0325  0.7835
  887MOL0     O16955   1.721   5.156   1.805  0.2026  0.4743 -0.7918
  887MOL0     C16956   1.855   5.141   1.822  0.0620 -0.9413 -1.3721
  887MOL0     C16957   1.912   5.020   1.868  0.2307  0.0142  0.4544
  887MOL0     C16958   2.048   5.004   1.901 -0.0638  0.4860  0.6955
  887MOL0     C16959   2.129   5.122   1.908  0.2261  0.3094 -0.2936
  887MOL0     O16960   2.265   5.105   1.924  0.0150 -0.3173  0.2627
  887MOL0     C16961   2.299   5.092   2.061  0.0559  0.8929 -0.1494
  887MOL0     C16962   2.450   5.099   2.080  0.3224 -0.4682 -0.3423
  887MOL0     C16963   2.488   5.067   2.215  1.0941 -0.8941 -0.1145
  887MOL0     C16964   2.648   5.071   2.229  0.7784  1.1705 -0.7373
  887MOL0     C16965   2.703   5.153   2.341 -0.9018  0.1582  0.0642
  887MOL0     C16966   2.701   5.070   2.465 -0.3787 -0.3252  0.7653
  887MOL0     C16967   2.746   5.141   2.589  0.5878 -0.4111  1.2460
  887MOL0     C16968   2.736   5.053   2.709 -0.2475 -0.4795  0.3427
  887MOL0     N16969   2.778   5.112   2.833  0.8739  0.0521 -0.8668
  887MOL0     C16970   2.705   5.107   2.955  0.2799  0.6085 -0.4301
  887MOL0     C16971   2.791   5.153   3.048 -0.0698  0.3327  0.2374
  887MOL0     C16972   2.767   5.174   3.192 -0.4081 -0.1785 -0.6412
  887MOL0     C16973   2.709   5.313   3.222 -0.2559  0.4415 -0.1702
  887MOL0     C16974   2.567   5.337   3.187  0.3842  0.0822  0.1089
  887MOL0     C16975   2.463   5.246   3.251 -0.3317 -0.2441  0.4904
  887MOL0     O16976   2.330   5.263   3.193  0.5825 -0.4693  0.5650
  887MOL0     C16977   2.228   5.347   3.221 -0.3046 -0.1333 -0.0058
  887MOL0     C16978   2.101   5.318   3.172 -0.1395  0.5392 -0.0105
  887MOL0     C16979   1.997   5.414   3.180  0.0839 -0.5425  0.5911
  887MOL0     C16980   2.019   5.541   3.229 -0.4874  0.1605 -0.3776
  887MOL0     C16981   1.905   5.640   3.228 -1.1569 -0.2322 -0.4962
  887MOL0     O16982   1.782   5.604   3.173  0.7348 -0.2426  0.0452
  887MOL0     C16983   1.677   5.689   3.161  0.4098  1.5920  0.4921
  887MOL0     C16984   1.611   5.749   3.269  0.0348  1.5236 -0.7599
  887MOL0     C16985   1.479   5.806   3.256 -0.8630 -0.5618  0.2842
  887MOL0     C16986   1.417   5.795   3.128 -0.4412  0.5872 -0.0416
  887MOL0     O16987   1.293   5.849   3.106  0.2546 -0.4912  0.3175
  887MOL0     C16988   1.226   5.891   3.225 -0.3480 -0.4676  0.2013
  887MOL0     C16989   1.088   5.944   3.181  0.5500 -0.1192 -0.2918
  887MOL0     C16990   0.985   5.843   3.146  0.6488  1.0214 -0.2640
  887MOL0     C16991   0.840   5.892   3.098 -0.5697  0.1185  0.5620
  887MOL0     C16992   0.752   5.770   3.061 -0.4356  0.1871 -0.8140
  887MOL0     C16993   0.611   5.804   3.016 -0.2956  0.2374  0.8454
  887MOL0     C16994   0.531   5.690   2.938 -0.1528 -0.5451  0.2723
  887MOL0     C16995   0.509   5.555   3.027  0.3544 -0.5491  0.2375
  887MOL0    Cl16996   0.417   5.434   2.924 -0.4810 -0.0770  0.1547
  887MOL0     C16997   1.485   5.739   3.015 -0.6602 -0.2242  0.2603
  887MOL0     C16998   1.614   5.679   3.039  0.2537 -0.2405  0.5164
  887MOL0     O16999   1.927   5.736   3.302 -0.3342  0.0872 -0.3124
  887MOL0     C17000   2.145   5.564   3.290 -0.5794  0.2270 -0.3074
  887MOL0     C17001   2.248   5.462   3.296 -0.6187  0.3211 -0.2507
  887MOL0     N17002   2.912   5.162   2.988 -0.0257 -0.7138 -0.3278
  887MOL0     N17003   2.900   5.148   2.870 -0.5969 -0.7274  0.4296
  887MOL0     C17004   2.068   5.247   1.874 -0.2768 -0.1614 -0.1426
  887MOL0     C17005   1.940   5.252   1.823  0.8739  0.4650 -0.1458
  887MOL0     C17006   1.540   5.114   1.641 -0.0421  1.2483 -0.4545
  887MOL0     C17007   1.476   5.224   1.690  0.2159 -0.4159 -0.1152
  887MOL0     C17008   1.362   5.274   1.628  0.0965 -0.0265  0.0488
  887MOL0     C17009   1.306   5.204   1.518 -1.0120  0.3066  0.3429
  887MOL0     O17010   1.179   5.230   1.477 -0.0381  0.2877 -0.8948
  887MOL0     C17011   1.169   5.340   1.392 -0.0479 -0.8396  0.3264
  887MOL0     C17012   1.050   5.336   1.303  0.2933  0.7234  0.0555
  887MOL0     C17013   1.089   5.286   1.164  1.0320 -0.1190 -0.0194
  887MOL0     C17014   0.982   5.278   1.038 -0.7375  0.8285 -1.1191
  887MOL0     C17015   0.861   5.354   1.063 -0.1799 -0.1498 -0.1719
  887MOL0     C17016   0.760   5.416   1.071  0.4716 -0.1828  0.0567
  887MOL0     C17017   1.367   5.087   1.471 -0.2571 -0.2411 -0.3974
  887MOL0     C17018   1.483   5.052   1.527 -0.2479  0.5978  0.5180
  887MOL0     H17019   1.838   4.941   1.869 -1.5890  1.4442 -2.6643
  887MOL0     H17020   2.094   4.909   1.926  0.7148  0.0841 -1.9991
  887MOL0     H17021   2.267   4.992   2.093 -0.2127  1.2192  0.6319
  887MOL0     H17022   2.253   5.171   2.121 -0.5045 -0.0726  0.7317
  887MOL0     H17023   2.478   5.205   2.077 -2.4212  0.3102 -1.7816
  887MOL0     H17024   2.510   5.040   2.011 -0.2980 -1.0743 -0.3690
  887MOL0     H17025   2.439   4.973   2.243 -2.1139  1.1010  1.6056
  887MOL0     H17026   2.435   5.135   2.282 -1.1247 -2.3172 -0.3168
  887MOL0     H17027   2.687   4.968   2.229 -2.4876 -0.2279  1.3811
  887MOL0     H17028   2.693   5.122   2.143  1.0466  2.2638  0.0296
  887MOL0     H17029   2.643   5.241   2.369 -2.8052 -1.7655  2.4910
  887MOL0     H17030   2.805   5.187   2.323 -1.1974  1.2079  0.2679
  887MOL0     H17031   2.761   4.979   2.451 -0.1731 -0.9090  4.4026
  887MOL0     H17032   2.600   5.033   2.484 -1.5707  1.3672 -1.7605
  887MOL0     H17033   2.851   5.169   2.578 -0.0713  2.0144  0.5696
  887MOL0     H17034   2.694   5.236   2.603  0.0919 -0.5323  0.3113
  887MOL0     H17035   2.792   4.961   2.687 -0.7842 -0.8693  0.5733
  887MOL0     H17036   2.632   5.020   2.718 -0.5052  0.3530  0.4248
  887MOL0     H17037   2.601   5.079   2.969  0.9650 -2.6553 -1.0068
  887MOL0     H17038   2.854   5.151   3.254 -2.6711 -2.6254  1.9282
  887MOL0     H17039   2.703   5.092   3.225  3.9363 -2.7362  2.3834
  887MOL0     H17040   2.778   5.390   3.186  0.2183  0.7896  1.3803
  887MOL0     H17041   2.720   5.310   3.331  0.0866  1.3021 -0.1751
  887MOL0     H17042   2.547   5.437   3.227 -0.3057  1.0148 -2.4249
  887MOL0     H17043   2.545   5.340   3.080 -1.8711 -2.5722  0.3812
  887MOL0     H17044   2.452   5.259   3.359 -1.3865 -3.3255  0.8302
  887MOL0     H17045   2.500   5.143   3.243 -1.0248 -0.5065  0.6671
  887MOL0     H17046   2.083   5.222   3.124 -0.9679  1.6167 -1.9538
  887MOL0     H17047   1.896   5.387   3.150 -0.5843  0.8323  1.5138
  887MOL0     H17048   1.671   5.752   3.360 -2.0569  0.6931  0.7149
  887MOL0     H17049   1.446   5.858   3.346  1.0370 -0.4369  0.9641
  887MOL0     H17050   1.278   5.973   3.275  1.8734 -2.1867  0.8627
  887MOL0     H17051   1.221   5.803   3.289 -1.3247 -1.8802 -1.7131
  887MOL0     H17052   1.109   6.012   3.098 -0.9421  3.3798  1.9284
  887MOL0     H17053   1.043   6.013   3.253 -1.8815  0.1857 -1.9927
  887MOL0     H17054   0.965   5.790   3.240 -0.3767  0.0253 -1.0138
  887MOL0     H17055   1.024   5.775   3.071  0.7077  1.1207 -0.3235
  887MOL0     H17056   0.788   5.950   3.174 -0.5034  2.0454 -0.7995
  887MOL0     H17057   0.852   5.957   3.011  0.5729 -0.2755  0.4086
  887MOL0     H17058   0.753   5.709   3.152  0.8983  1.9379  0.4036
  887MOL0     H17059   0.806   5.708   2.989 -0.5767 -1.1172  0.1495
  887MOL0     H17060   0.620   5.898   2.960  1.3506 -0.6462 -0.4304
  887MOL0     H17061   0.561   5.830   3.110 -1.2717  0.2785  0.3331
  887MOL0     H17062   0.437   5.740   2.914 -0.1194 -0.4055  0.4331
  887MOL0     H17063   0.576   5.669   2.841  0.2353  1.2193  0.0258
  887MOL0     H17064   0.447   5.574   3.115 -0.0868 -0.8044 -0.0160
  887MOL0     H17065   0.606   5.519   3.062  1.9696 -0.1498 -3.3610
  887MOL0     H17066   1.427   5.723   2.924  1.9284  0.2806 -1.5917
  887MOL0     H17067   1.658   5.630   2.952 -1.3766  2.1006 -1.8128
  887MOL0     H17068   2.170   5.660   3.335 -0.8729 -0.2438  0.8913
  887MOL0     H17069   2.343   5.481   3.345 -1.4444 -2.6678  2.8306
  887MOL0     H17070   2.140   5.328   1.882  0.7936 -1.1286  0.2905
  887MOL0     H17071   1.906   5.353   1.799  0.0611  0.6490  1.6511
  887MOL0     H17072   1.515   5.278   1.776  0.9876  0.7288 -1.1520
  887MOL0     H17073   1.325   5.362   1.679  1.2396  0.1410  0.6432
  887MOL0     H17074   1.262   5.331   1.335 -0.0274 -3.5079  0.6515
  887MOL0     H17075   1.185   5.438   1.439  0.7413 -0.8609  0.1106
  887MOL0     H17076   0.970   5.278   1.349  0.7829  0.5536  0.7215
  887MOL0     H17077   1.009   5.437   1.289 -0.0404  0.5603 -0.1512
  887MOL0     H17078   1.125   5.183   1.175  1.5233 -0.2406 -2.2166
  887MOL0     H17079   1.177   5.347   1.141  0.7555  0.8487  1.3950
  887MOL0     H17080   1.039   5.321   0.956 -1.1210  1.4299 -1.0735
  887MOL0     H17081   0.960   5.172   1.024 -0.9135  0.4753  1.3362
  887MOL0     H17082   0.667   5.468   1.081  0.7881 -0.0118  3.2924
  887MOL0     H17083   1.325   5.028   1.391  2.4218 -3.2491  0.2440
  887MOL0     H17084   1.529   4.964   1.484  1.6965  1.2353  1.1812
  888MOL0     O17085  10.941   6.327   5.005  0.0720  0.4657 -0.9552
  888MOL0     C17086  10.952   6.415   4.915 -0.2115 -0.5101  0.0114
  888MOL0     O17087  10.871   6.529   4.910  0.0145  0.2120  0.3653
  888MOL0     C17088  10.769   6.539   5.005 -0.0611  0.1635  0.5566
  888MOL0     C17089  10.666   6.445   5.025  1.0206  0.6231 -0.4759
  888MOL0     C17090  10.553   6.479   5.102  0.7175  0.1157 -0.0877
  888MOL0     C17091  10.558   6.590   5.185  0.3068 -0.2237 -0.0501
  888MOL0     O17092  10.468   6.609   5.286  0.5863  0.3285  0.5994
  888MOL0     C17093  10.377   6.507   5.315 -0.5564  0.0844  0.2670
  888MOL0     C17094  10.295   6.569   5.437  0.0798 -0.1034  0.1757
  888MOL0     C17095  10.190   6.477   5.481  0.1051  0.6712 -0.4239
  888MOL0     C17096  10.127   6.515   5.615 -0.2173 -0.1894  0.3317
  888MOL0     C17097   9.986   6.444   5.636  0.0391  0.0255 -0.1346
  888MOL0     C17098  10.002   6.288   5.650  0.3000  0.4599  0.0339
  888MOL0     C17099   9.867   6.208   5.691  0.4052  0.0611  0.1217
  888MOL0     C17100   9.892   6.062   5.715 -0.3047  0.1058  0.3335
  888MOL0     N17101   9.772   5.999   5.768  0.7304  0.1679  0.5045
  888MOL0     C17102   9.670   5.950   5.691 -0.0612 -0.6426 -0.2729
  888MOL0     C17103   9.571   5.910   5.778 -0.7410  0.0771 -0.6810
  888MOL0     C17104   9.456   5.820   5.738 -0.6381 -0.3708 -0.0939
  888MOL0     C17105   9.325   5.896   5.720 -0.9625 -0.0435 -0.2617
  888MOL0     C17106   9.232   5.817   5.632 -0.4276  0.5949 -1.0686
  888MOL0     C17107   9.105   5.899   5.634  0.6439 -0.0448  0.2606
  888MOL0     O17108   9.048   5.887   5.764  0.6120 -0.3595  0.2586
  888MOL0     C17109   8.936   5.806   5.761  0.1402 -0.6719  0.2628
  888MOL0     C17110   8.929   5.676   5.811 -0.5339 -0.1515 -0.0635
  888MOL0     C17111   8.808   5.598   5.813  0.2657  0.0514  0.3752
  888MOL0     C17112   8.682   5.670   5.786 -1.0405 -0.1757 -0.8010
  888MOL0     C17113   8.559   5.601   5.812 -0.8335  0.9984 -0.1026
  888MOL0     O17114   8.566   5.468   5.838  0.4980 -0.5115  0.5940
  888MOL0     C17115   8.457   5.387   5.864  0.4608 -0.5039 -0.4631
  888MOL0     C17116   8.491   5.256   5.846 -0.3390 -0.3824  0.7363
  888MOL0     C17117   8.386   5.164   5.859 -0.8087  0.0701 -0.1670
  888MOL0     C17118   8.261   5.194   5.882  0.4699  0.5691  0.0761
  888MOL0     O17119   8.156   5.095   5.878 -0.0069  0.4647 -0.2775
  888MOL0     C17120   8.053   5.105   5.979  0.7722  0.5314 -1.0827
  888MOL0     C17121   8.002   4.964   6.028 -0.2996  0.5838 -0.3863
  888MOL0     C17122   7.942   4.871   5.912 -0.2609 -0.2381 -0.1536
  888MOL0     C17123   7.863   4.760   5.976  0.7410 -0.4710 -0.6525
  888MOL0     C17124   7.777   4.694   5.863 -0.9605 -0.2307  0.1657
  888MOL0     C17125   7.643   4.753   5.850  0.0222  0.7338 -0.6499
  888MOL0     C17126   7.556   4.666   5.754  0.5509 -0.5938 -0.6898
  888MOL0     C17127   7.458   4.578   5.821  0.6942  0.7004 -0.3085
  888MOL0    Cl17128   7.346   4.661   5.943  0.1339  0.4765  0.0209
  888MOL0     C17129   8.227   5.329   5.907 -0.4717 -0.1494  0.3729
  888MOL0     C17130   8.324   5.425   5.902  0.1363 -0.1243  0.1019
  888MOL0     O17131   8.454   5.665   5.798  0.5762 -0.1362 -0.5138
  888MOL0     C17132   8.693   5.797   5.738  0.3105 -0.7177 -0.3298
  888MOL0     C17133   8.811   5.862   5.728  0.1219 -0.1794 -0.7356
  888MOL0     N17134   9.610   5.957   5.899 -1.7291  0.2884 -0.1096
  888MOL0     N17135   9.729   6.012   5.900 -0.9347  0.3563  0.1502
  888MOL0     C17136  10.653   6.680   5.175  0.0033 -0.1849  0.5374
  888MOL0     C17137  10.762   6.662   5.082 -0.3096 -0.1153 -0.3885
  888MOL0     C17138  11.018   6.374   4.789  0.6463  0.4672 -0.3853
  888MOL0     C17139  11.098   6.257   4.781 -0.4468 -0.3660 -0.3129
  888MOL0     C17140  11.166   6.220   4.663  0.2230  0.3142  0.4336
  888MOL0     C17141  11.160   6.309   4.554  0.3440 -0.2872 -0.4005
  888MOL0     O17142  11.245   6.304   4.443  0.0403  0.2871 -0.5532
  888MOL0     C17143  11.237   6.171   4.376 -0.0145 -0.5851  0.2764
  888MOL0     C17144  11.257   6.180   4.225  0.4884 -0.7990 -0.1490
  888MOL0     C17145  11.271   6.034   4.184 -0.7329 -0.2667  0.6962
  888MOL0     C17146  11.135   5.956   4.191 -0.1215 -0.8343  0.2428
  888MOL0     C17147  11.139   5.847   4.094  0.7639  0.1249 -0.3668
  888MOL0     C17148  11.148   5.770   4.001 -0.0394  0.8756  1.1313
  888MOL0     C17149  11.072   6.411   4.558  0.6951  0.0044 -0.7246
  888MOL0     C17150  10.996   6.438   4.670 -0.9448 -0.1006 -0.6148
  888MOL0     H17151  10.667   6.350   4.973  4.8136  0.3037 -0.0975
  888MOL0     H17152  10.467   6.413   5.098  0.6468  0.2747 -2.1552
  888MOL0     H17153  10.431   6.416   5.343 -1.2963  0.1384  2.0480
  888MOL0     H17154  10.304   6.487   5.236 -0.4832  0.6699  0.0475
  888MOL0     H17155  10.245   6.663   5.413  0.5770 -0.0293 -0.6273
  888MOL0     H17156  10.369   6.589   5.515  1.8754 -0.9137 -1.2278
  888MOL0     H17157  10.232   6.376   5.482  0.0317  0.6214 -1.3468
  888MOL0     H17158  10.117   6.478   5.400  0.0589  3.0626 -0.4246
  888MOL0     H17159  10.182   6.490   5.706 -1.0645  0.2039  0.9735
  888MOL0     H17160  10.102   6.621   5.604 -0.6069 -0.5463 -3.2829
  888MOL0     H17161   9.918   6.465   5.553 -0.6436 -0.8033  0.1973
  888MOL0     H17162   9.945   6.485   5.729 -0.9354  2.3178 -1.4816
  888MOL0     H17163  10.075   6.262   5.728 -1.8257 -3.0218  1.0983
  888MOL0     H17164  10.042   6.240   5.560 -1.3830 -0.3279 -0.3319
  888MOL0     H17165   9.829   6.260   5.779 -1.1107 -0.1231 -0.3947
  888MOL0     H17166   9.799   6.219   5.605 -0.5431 -0.4687  0.7803
  888MOL0     H17167   9.968   6.043   5.790  0.1196  0.6431  0.0465
  888MOL0     H17168   9.928   6.025   5.618 -3.2072 -1.2835 -0.3528
  888MOL0     H17169   9.679   5.928   5.585  1.6294  0.9281 -0.5192
  888MOL0     H17170   9.434   5.745   5.815 -0.7490 -0.1449  0.0933
  888MOL0     H17171   9.481   5.767   5.645  0.6321  0.7850 -0.4501
  888MOL0     H17172   9.357   5.992   5.679  4.5285 -1.6445 -0.5070
  888MOL0     H17173   9.274   5.911   5.816 -2.2075  0.7126 -1.0021
  888MOL0     H17174   9.268   5.816   5.528 -2.6107 -2.5756 -1.9465
  888MOL0     H17175   9.211   5.714   5.661  0.4064 -0.1695 -2.9577
  888MOL0     H17176   9.043   5.860   5.553  3.0773 -3.6472 -0.1233
  888MOL0     H17177   9.137   6.000   5.608  0.4322 -0.1102 -0.2811
  888MOL0     H17178   9.029   5.643   5.837  0.6209  2.0136 -1.4373
  888MOL0     H17179   8.819   5.494   5.839 -2.8764 -1.5123 -3.6058
  888MOL0     H17180   8.588   5.217   5.816 -0.5099  0.7850 -1.4941
  888MOL0     H17181   8.424   5.063   5.848  0.1723 -0.0429  2.9715
  888MOL0     H17182   7.968   5.161   5.941  2.6309  3.6800 -0.9175
  888MOL0     H17183   8.096   5.168   6.058 -2.0239 -0.8437  1.7876
  888MOL0     H17184   7.925   4.986   6.103  1.0904  1.2184  0.9106
  888MOL0     H17185   8.088   4.920   6.080 -0.0452  1.7247  0.2138
  888MOL0     H17186   8.033   4.830   5.868 -0.9385 -0.4310 -1.3967
  888MOL0     H17187   7.890   4.935   5.840 -1.2212  1.5361  1.9918
  888MOL0     H17188   7.937   4.691   6.017  0.6596  0.3672  0.9639
  888MOL0     H17189   7.798   4.791   6.058 -0.0204 -1.4827 -0.8577
  888MOL0     H17190   7.781   4.585   5.870 -0.3206 -0.2016  0.3665
  888MOL0     H17191   7.821   4.720   5.766  0.8559 -0.0333  0.9920
  888MOL0     H17192   7.645   4.858   5.818 -1.6188  0.9569 -0.1732
  888MOL0     H17193   7.588   4.753   5.945  1.2648  4.1181  0.2154
  888MOL0     H17194   7.504   4.743   5.697  0.4210  0.6134  0.9970
  888MOL0     H17195   7.605   4.598   5.684 -1.5674 -3.0059 -0.0130
  888MOL0     H17196   7.518   4.504   5.875  1.5687  1.9808  0.5353
  888MOL0     H17197   7.393   4.535   5.745  1.4113 -0.7352 -0.1455
  888MOL0     H17198   8.130   5.362   5.943  1.0915  1.5579  3.4022
  888MOL0     H17199   8.302   5.529   5.924  1.7578  0.3015 -0.1623
  888MOL0     H17200   8.596   5.843   5.727 -1.3681 -3.5494  1.3917
  888MOL0     H17201   8.813   5.959   5.678 -3.5090 -1.4168 -3.8097
  888MOL0     H17202  10.652   6.772   5.233  0.3746 -0.1669  0.5151
  888MOL0     H17203  10.842   6.733   5.062  1.6681 -1.6281  1.6394
  888MOL0     H17204  11.120   6.193   4.866  1.7632 -1.9115 -1.9525
  888MOL0     H17205  11.232   6.134   4.666  0.5508  0.5851  1.2281
  888MOL0     H17206  11.140   6.127   4.402  0.5474 -1.7065  0.4803
  888MOL0     H17207  11.326   6.120   4.413 -1.3537 -4.1311 -1.0309
  888MOL0     H17208  11.170   6.228   4.180  0.4100 -0.5592  0.2535
  888MOL0     H17209  11.345   6.239   4.199 -1.1844  0.9580 -2.1833
  888MOL0     H17210  11.339   5.977   4.247 -0.3603 -1.2699 -0.5782
  888MOL0     H17211  11.307   6.031   4.081 -5.2884 -1.7796 -1.1065
  888MOL0     H17212  11.128   5.909   4.289  1.4460  0.5973  1.0912
  888MOL0     H17213  11.048   6.021   4.179  2.3607  2.8628  0.5633
  888MOL0     H17214  11.150   5.732   3.901  2.5328 -3.1906  2.5169
  888MOL0     H17215  11.063   6.478   4.473  0.1313  0.9561  0.0581
  888MOL0     H17216  10.932   6.526   4.668 -1.0062 -0.0388  1.7269
  889MOL0     O17217   0.367   8.739   9.145 -0.1042 -0.8677  0.3688
  889MOL0     C17218   0.369   8.845   9.215  0.1792  0.3119 -0.1419
  889MOL0     O17219   0.481   8.905   9.268  0.5645  0.4161  0.0576
  889MOL0     C17220   0.608   8.877   9.221 -0.2410  0.4895  0.2820
  889MOL0     C17221   0.645   8.894   9.086 -0.9997 -0.1559 -0.7020
  889MOL0     C17222   0.769   8.853   9.039 -0.1852  0.1715  0.6699
  889MOL0     C17223   0.868   8.798   9.116 -0.6769  0.7351 -0.8634
  889MOL0     O17224   0.989   8.771   9.065 -0.5043  0.4467 -0.5331
  889MOL0     C17225   1.044   8.640   9.103 -0.0831  1.0143  0.8232
  889MOL0     C17226   1.158   8.627   8.999  1.0188  0.2941 -0.6105
  889MOL0     C17227   1.269   8.730   9.016  0.2810 -0.4373  0.4659
  889MOL0     C17228   1.372   8.711   8.900 -0.2023  0.0646 -0.4470
  889MOL0     C17229   1.436   8.580   8.879  0.2188  0.9124 -0.3243
  889MOL0     C17230   1.568   8.568   8.815 -0.4015 -0.1612  0.1551
  889MOL0     C17231   1.682   8.655   8.869 -0.7376 -0.8988 -0.3996
  889MOL0     C17232   1.823   8.643   8.799  0.0963 -0.1937  0.1144
  889MOL0     N17233   1.872   8.503   8.800 -0.2285  0.8721  1.1426
  889MOL0     C17234   1.843   8.413   8.694 -0.3561  0.8746 -0.1151
  889MOL0     C17235   1.941   8.319   8.696  0.0874  0.5822  0.5741
  889MOL0     C17236   1.941   8.191   8.620  0.3536 -0.2355  0.2873
  889MOL0     C17237   1.807   8.131   8.636  0.4735 -0.2654 -0.1929
  889MOL0     C17238   1.775   8.089   8.788  0.5149 -0.2448  1.2340
  889MOL0     C17239   1.634   8.035   8.796  0.4741  0.5774  0.4157
  889MOL0     O17240   1.530   8.131   8.764 -0.2715 -1.1606 -0.1571
  889MOL0     C17241   1.403   8.093   8.732  0.0946  0.4054  0.3210
  889MOL0     C17242   1.354   7.964   8.765  0.6868  0.6123 -0.0114
  889MOL0     C17243   1.219   7.929   8.735  0.6131 -0.3528 -0.2676
  889MOL0     C17244   1.137   8.020   8.656 -0.1700 -0.5311  0.7145
  889MOL0     C17245   0.999   7.988   8.607 -0.0493 -0.2527  0.4152
  889MOL0     O17246   0.927   8.088   8.548  0.0501  0.0572 -0.5732
  889MOL0     C17247   0.789   8.086   8.538 -0.8242  0.0694  0.3312
  889MOL0     C17248   0.701   8.014   8.613  0.1777 -0.5214 -0.0375
  889MOL0     C17249   0.560   8.029   8.598  0.5585  0.7090  0.8687
  889MOL0     C17250   0.503   8.118   8.506 -0.5800 -0.1134  0.8101
  889MOL0     O17251   0.373   8.151   8.485 -0.2272  0.0698 -0.0860
  889MOL0     C17252   0.280   8.116   8.589  0.6411  0.4830 -1.0294
  889MOL0     C17253   0.146   8.185   8.559 -1.4212  0.5843 -0.0299
  889MOL0     C17254   0.027   8.131   8.641 -0.2467 -0.5444 -0.4278
  889MOL0     C17255  -0.106   8.177   8.574 -0.0544  0.1067  1.2589
  889MOL0     C17256  -0.225   8.125   8.657  0.0972  0.3818 -0.2737
  889MOL0     C17257  -0.369   8.147   8.576 -0.2962 -0.4902 -0.2819
  889MOL0     C17258  -0.487   8.156   8.679  0.2885  0.8765 -0.6174
  889MOL0     C17259  -0.481   8.022   8.770 -0.1414 -0.3550  0.1448
  889MOL0    Cl17260  -0.636   8.018   8.846  0.5285  0.4761  0.3087
  889MOL0     C17261   0.595   8.191   8.428  0.8053  0.8796  0.1211
  889MOL0     C17262   0.735   8.185   8.447 -0.8903  1.4126 -1.1698
  889MOL0     O17263   0.962   7.874   8.636 -0.3625  0.1833  0.0433
  889MOL0     C17264   1.193   8.155   8.639 -0.2826 -0.4988  0.6772
  889MOL0     C17265   1.326   8.184   8.667 -0.0150  0.1240 -1.0855
  889MOL0     N17266   2.036   8.356   8.791 -0.0969  0.0413  0.6575
  889MOL0     N17267   1.992   8.461   8.859 -0.1585  0.6171 -0.2818
  889MOL0     C17268   0.834   8.792   9.256  0.3428  0.2470  0.1468
  889MOL0     C17269   0.710   8.828   9.307  0.4721 -0.6792 -0.7544
  889MOL0     C17270   0.233   8.896   9.235 -0.4376  1.0302  0.7291
  889MOL0     C17271   0.120   8.841   9.167 -0.2608  0.9785  0.5528
  889MOL0     C17272  -0.007   8.893   9.202 -0.7339 -0.5296  0.1107
  889MOL0     C17273  -0.033   8.986   9.304  0.0989  0.0517  0.1102
  889MOL0     O17274  -0.161   9.029   9.325 -0.5019  0.0332 -0.4753
  889MOL0     C17275  -0.237   8.958   9.419  0.5601 -0.1636 -0.0298
  889MOL0     C17276  -0.316   8.839   9.362 -0.1043  0.0464  0.1340
  889MOL0     C17277  -0.384   8.851   9.232 -0.5505 -0.8051 -0.2023
  889MOL0     C17278  -0.467   8.734   9.179 -0.1396  0.3514 -0.0693
  889MOL0     C17279  -0.598   8.739   9.246 -0.2068 -0.1639  0.1643
  889MOL0     C17280  -0.700   8.768   9.312  0.1582 -0.1278 -0.0221
  889MOL0     C17281   0.073   9.031   9.375 -1.5397 -0.3674 -0.3585
  889MOL0     C17282   0.203   8.988   9.344 -1.2424  0.1237 -0.7926
  889MOL0     H17283   0.565   8.921   9.018 -3.5299  0.0563  2.1413
  889MOL0     H17284   0.790   8.840   8.933  0.9237 -2.0517  1.0979
  889MOL0     H17285   0.977   8.554   9.095  2.3374 -0.9558  0.6374
  889MOL0     H17286   1.087   8.636   9.203  0.9120 -2.8393  0.4023
  889MOL0     H17287   1.113   8.623   8.899  0.7558  4.5929 -0.8506
  889MOL0     H17288   1.205   8.533   9.029  1.6125  0.5540 -0.7074
  889MOL0     H17289   1.305   8.721   9.119  0.0302  0.0127  0.5964
  889MOL0     H17290   1.226   8.830   9.002  0.3507 -0.5482 -0.6578
  889MOL0     H17291   1.333   8.744   8.804 -0.7614  0.9779  0.0723
  889MOL0     H17292   1.454   8.780   8.925  0.0377 -0.8532  1.4816
  889MOL0     H17293   1.369   8.520   8.817 -1.8834  0.2093  2.4153
  889MOL0     H17294   1.449   8.530   8.975  0.7634 -1.6449 -1.6497
  889MOL0     H17295   1.555   8.579   8.707 -1.3384 -0.0522  0.2695
  889MOL0     H17296   1.595   8.464   8.831  2.1523  0.3826 -0.2369
  889MOL0     H17297   1.658   8.758   8.845 -2.3638 -1.1093  0.1903
  889MOL0     H17298   1.683   8.630   8.976  2.5741  0.5205  0.0379
  889MOL0     H17299   1.888   8.715   8.848 -3.9159  4.3838 -0.5484
  889MOL0     H17300   1.824   8.678   8.696  1.6217 -3.5204 -1.1699
  889MOL0     H17301   1.770   8.423   8.614 -0.7336  0.5705  0.1891
  889MOL0     H17302   2.022   8.128   8.660  0.0670 -0.4265  0.5680
  889MOL0     H17303   1.964   8.203   8.514 -2.7125 -1.9656 -0.6808
  889MOL0     H17304   1.801   8.045   8.569  1.0892 -0.8153  0.4472
  889MOL0     H17305   1.735   8.205   8.599  1.4445  0.1314 -1.3706
  889MOL0     H17306   1.843   8.009   8.820  1.4246  1.1241  2.9002
  889MOL0     H17307   1.768   8.176   8.853 -1.8806 -0.6272  1.5842
  889MOL0     H17308   1.625   8.011   8.902 -0.5970  1.5469  0.5583
  889MOL0     H17309   1.616   7.947   8.733 -1.7989 -0.0094  1.7556
  889MOL0     H17310   1.402   7.886   8.823 -4.7900 -2.4831  1.0435
  889MOL0     H17311   1.168   7.838   8.764 -2.2261  1.1199 -0.2885
  889MOL0     H17312   0.745   7.941   8.679 -0.5030 -0.7719  0.1465
  889MOL0     H17313   0.494   7.965   8.654 -0.1966  1.3798  0.7628
  889MOL0     H17314   0.302   8.168   8.682  0.7090 -0.3181 -0.5934
  889MOL0     H17315   0.263   8.008   8.598  3.4802  0.0529  0.0526
  889MOL0     H17316   0.121   8.170   8.453  1.9318 -1.8187 -0.6444
  889MOL0     H17317   0.155   8.289   8.592 -1.9150 -0.2301  2.9117
  889MOL0     H17318   0.024   8.158   8.747  0.2408  0.4783 -0.6666
  889MOL0     H17319   0.034   8.022   8.629 -0.7476 -0.6414  0.0696
  889MOL0     H17320  -0.115   8.286   8.570 -1.8763 -0.0416 -1.4579
  889MOL0     H17321  -0.107   8.145   8.470  3.0436  0.4298  1.0594
  889MOL0     H17322  -0.228   8.183   8.750  2.6354  0.7765 -0.3662
  889MOL0     H17323  -0.220   8.018   8.677 -2.5920  0.1864 -0.2132
  889MOL0     H17324  -0.389   8.065   8.505 -0.2762 -1.3415  0.6713
  889MOL0     H17325  -0.355   8.244   8.527 -1.6151  0.7681  1.7070
  889MOL0     H17326  -0.488   8.249   8.735 -1.0529 -1.4229  3.5979
  889MOL0     H17327  -0.580   8.156   8.622  0.5042 -0.4543 -1.0057
  889MOL0     H17328  -0.407   8.043   8.848 -1.8896  2.6887  1.1341
  889MOL0     H17329  -0.468   7.931   8.710  2.3998  0.1882 -0.2738
  889MOL0     H17330   0.555   8.256   8.352 -2.4638  0.0628  1.0083
  889MOL0     H17331   0.809   8.239   8.389 -0.7209  0.2309 -2.0999
  889MOL0     H17332   1.142   8.240   8.594  3.8454  2.2661  0.7477
  889MOL0     H17333   1.362   8.285   8.649  1.7990 -0.5197 -1.1840
  889MOL0     H17334   0.901   8.746   9.328  0.2844  0.9827  0.6746
  889MOL0     H17335   0.700   8.832   9.415  0.2778  3.3447 -0.7985
  889MOL0     H17336   0.130   8.777   9.080  1.7073 -0.6128  1.8758
  889MOL0     H17337  -0.094   8.871   9.140 -0.2472  0.3948 -0.9368
  889MOL0     H17338  -0.321   9.021   9.449 -3.1683 -3.2710 -2.9323
  889MOL0     H17339  -0.169   8.920   9.496  1.0665 -3.2348 -1.8275
  889MOL0     H17340  -0.243   8.758   9.355 -0.2875 -0.1069  0.0120
  889MOL0     H17341  -0.384   8.799   9.438  0.9015  0.0857  1.0963
  889MOL0     H17342  -0.311   8.873   9.154 -0.3060  0.9235  0.4660
  889MOL0     H17343  -0.455   8.934   9.240  0.1318 -0.3601  2.2399
  889MOL0     H17344  -0.479   8.737   9.070 -0.5625  0.9307 -0.0123
  889MOL0     H17345  -0.423   8.636   9.197  0.9575  1.2693  2.7370
  889MOL0     H17346  -0.794   8.789   9.357 -0.9524  0.4553 -2.4324
  889MOL0     H17347   0.054   9.105   9.453  0.5720  1.3583 -1.3916
  889MOL0     H17348   0.293   9.017   9.398 -0.6238 -3.2164  0.2398
  890MOL0     O17349   6.926   8.724   4.782  0.1446 -0.0593 -0.3837
  890MOL0     C17350   6.904   8.813   4.694 -0.1330  0.0067  0.1608
  890MOL0     O17351   7.000   8.886   4.621  0.8064 -0.4015  0.4792
  890MOL0     C17352   7.139   8.862   4.630 -0.5797 -0.3162  0.0217
  890MOL0     C17353   7.202   8.736   4.619 -0.2918 -0.4092 -0.5985
  890MOL0     C17354   7.340   8.723   4.604  0.7092 -0.0140  0.0181
  890MOL0     C17355   7.427   8.837   4.606 -0.5017  0.2374  0.5018
  890MOL0     O17356   7.559   8.812   4.591  0.5007  0.3600 -0.0892
  890MOL0     C17357   7.663   8.908   4.611  0.5073 -0.0432 -1.4020
  890MOL0     C17358   7.788   8.861   4.525 -0.1632  0.5072  0.1724
  890MOL0     C17359   7.904   8.944   4.565 -0.2986  0.0644  0.1166
  890MOL0     C17360   8.022   8.898   4.477 -0.4901 -0.0280  0.3996
  890MOL0     C17361   8.141   8.994   4.494 -0.2610 -0.8219  0.0031
  890MOL0     C17362   8.265   8.940   4.414 -0.0303 -0.6361 -0.3854
  890MOL0     C17363   8.372   9.050   4.380  0.5373 -1.3793 -0.4068
  890MOL0     C17364   8.325   9.143   4.263  0.2528  0.0907 -0.8350
  890MOL0     N17365   8.404   9.253   4.228  0.3069  0.0288 -0.2549
  890MOL0     C17366   8.372   9.330   4.109  0.3623 -0.0712 -0.9910
  890MOL0     C17367   8.489   9.408   4.103 -0.5723  0.6484 -0.6269
  890MOL0     C17368   8.498   9.511   3.995 -0.4297  1.2169 -0.4819
  890MOL0     C17369   8.586   9.483   3.873  0.3217  0.2279 -0.0947
  890MOL0     C17370   8.727   9.438   3.904 -1.0094 -0.2967 -0.6525
  890MOL0     C17371   8.800   9.553   3.986 -0.0281  0.6670  0.1472
  890MOL0     O17372   8.937   9.524   3.951 -0.2630  0.0503  0.7554
  890MOL0     C17373   9.053   9.584   4.000  0.0052 -0.4307  0.6479
  890MOL0     C17374   9.056   9.672   4.109 -0.2597  0.3303  0.7221
  890MOL0     C17375   9.172   9.714   4.163 -0.5295 -0.4776 -0.5266
  890MOL0     C17376   9.300   9.676   4.110 -0.3987 -0.4327 -0.4028
  890MOL0     C17377   9.436   9.713   4.169  0.3124  0.1202 -0.5371
  890MOL0     O17378   9.540   9.632   4.133  0.0619  0.3669 -0.1065
  890MOL0     C17379   9.654   9.626   4.211  0.1814 -0.1691 -0.8320
  890MOL0     C17380   9.723   9.512   4.189  0.2960  0.1552 -0.9042
  890MOL0     C17381   9.854   9.495   4.244 -0.7780 -0.2322  0.0984
  890MOL0     C17382   9.905   9.587   4.334  0.2671  0.0327 -0.0485
  890MOL0     O17383  10.020   9.541   4.393  0.3311 -0.9108 -0.2176
  890MOL0     C17384  10.091   9.641   4.461  0.6184 -0.4714  0.1930
  890MOL0     C17385  10.215   9.584   4.516 -0.0210 -0.2446 -0.2130
  890MOL0     C17386  10.340   9.674   4.503 -0.6132  0.2764  0.0395
  890MOL0     C17387  10.463   9.630   4.578 -0.0696 -0.4562  0.4744
  890MOL0     C17388  10.529   9.742   4.652  0.1814 -0.2039  0.2807
  890MOL0     C17389  10.668   9.706   4.694 -0.2062 -0.3171 -0.5321
  890MOL0     C17390  10.743   9.837   4.736 -0.7422 -0.6345 -0.4350
  890MOL0     C17391  10.885   9.795   4.777  0.4880  0.5509  0.0772
  890MOL0    Cl17392  10.950   9.958   4.806 -0.3517 -0.2176 -0.3163
  890MOL0     C17393   9.839   9.715   4.347 -0.2979 -0.3226 -0.2621
  890MOL0     C17394   9.711   9.727   4.290  0.8006 -0.9779 -0.3899
  890MOL0     O17395   9.432   9.800   4.258  0.4550  0.1454  0.0845
  890MOL0     C17396   9.302   9.578   4.011  0.2060  0.6291 -0.8674
  890MOL0     C17397   9.178   9.535   3.958  0.3895  0.0624  0.0186
  890MOL0     N17398   8.582   9.383   4.198 -0.2640  0.5112  0.1866
  890MOL0     N17399   8.529   9.281   4.270  1.0868 -0.4611 -0.2861
  890MOL0     C17400   7.363   8.964   4.606 -0.2599  0.1916 -0.5083
  890MOL0     C17401   7.228   8.976   4.607  1.3386  0.1162 -0.6167
  890MOL0     C17402   6.763   8.831   4.656  0.1553 -0.3030 -0.0659
  890MOL0     C17403   6.719   8.947   4.578  0.4387 -0.3185  0.3788
  890MOL0     C17404   6.585   8.962   4.537 -0.1150 -0.1363  0.4857
  890MOL0     C17405   6.490   8.866   4.572  0.5696  0.2901  0.5798
  890MOL0     O17406   6.357   8.875   4.549 -0.6580  0.7898  0.5086
  890MOL0     C17407   6.284   8.994   4.523 -0.2062  0.0494 -0.3721
  890MOL0     C17408   6.128   8.970   4.518  0.0256 -1.2291  0.1590
  890MOL0     C17409   6.061   8.941   4.656 -0.3255 -0.4027 -0.4000
  890MOL0     C17410   5.909   8.965   4.647  0.1090  0.2022 -0.4599
  890MOL0     C17411   5.833   8.889   4.748 -0.1369 -0.1800 -1.3431
  890MOL0     C17412   5.761   8.827   4.832  0.3158  0.1494  0.0617
  890MOL0     C17413   6.524   8.758   4.659  0.4423 -0.6230  0.2074
  890MOL0     C17414   6.658   8.744   4.697  0.0185  0.8060  0.3746
  890MOL0     H17415   7.132   8.653   4.613 -2.0401  0.6577  2.7469
  890MOL0     H17416   7.392   8.628   4.594 -0.2351 -0.4297 -1.0447
  890MOL0     H17417   7.689   8.914   4.717  2.4658 -0.9235 -1.7883
  890MOL0     H17418   7.629   9.005   4.574  0.5440  0.9975  1.1274
  890MOL0     H17419   7.766   8.874   4.419  2.0460 -0.7383 -0.5022
  890MOL0     H17420   7.816   8.755   4.535 -1.6434  0.3050  3.4715
  890MOL0     H17421   7.913   8.941   4.674 -5.4539 -1.2308  0.7781
  890MOL0     H17422   7.882   9.047   4.535 -3.6634 -0.8669 -1.0907
  890MOL0     H17423   8.079   8.811   4.512  2.8405  2.8995  2.9713
  890MOL0     H17424   7.998   8.876   4.372  1.4779  0.7806 -0.2652
  890MOL0     H17425   8.173   8.998   4.598  0.3138 -2.5106 -0.0824
  890MOL0     H17426   8.117   9.098   4.468 -1.5373 -1.0227  0.3443
  890MOL0     H17427   8.222   8.909   4.318 -0.8166 -2.0303  0.3805
  890MOL0     H17428   8.319   8.864   4.471  1.4272  2.9498  3.6014
  890MOL0     H17429   8.378   9.113   4.469 -0.0813  0.7183 -1.7819
  890MOL0     H17430   8.469   9.008   4.353 -0.0279 -2.0464 -1.5219
  890MOL0     H17431   8.227   9.188   4.282  1.0470  1.7325 -0.5282
  890MOL0     H17432   8.304   9.087   4.171 -2.4382  1.3921 -1.1155
  890MOL0     H17433   8.281   9.319   4.051 -0.7917 -3.4289  1.1405
  890MOL0     H17434   8.533   9.605   4.039  0.1323  0.9366 -0.3213
  890MOL0     H17435   8.395   9.534   3.965 -1.2623 -1.4976  0.0075
  890MOL0     H17436   8.591   9.575   3.814  0.8075 -1.1319 -2.2891
  890MOL0     H17437   8.531   9.409   3.814 -1.0653  2.3452 -1.6100
  890MOL0     H17438   8.721   9.344   3.961  2.5004  0.7888  1.9175
  890MOL0     H17439   8.786   9.422   3.813  0.3597  1.3163 -0.0985
  890MOL0     H17440   8.790   9.550   4.094 -0.6702 -0.5929  0.0733
  890MOL0     H17441   8.775   9.650   3.941 -1.4686  1.2776  2.1567
  890MOL0     H17442   8.959   9.710   4.139 -1.0607 -0.6506 -0.5326
  890MOL0     H17443   9.178   9.784   4.246 -0.0587 -0.9877 -0.1238
  890MOL0     H17444   9.678   9.442   4.119 -0.2355 -0.2970 -0.1172
  890MOL0     H17445   9.911   9.404   4.231  0.5113  0.4584  0.7329
  890MOL0     H17446  10.040   9.680   4.549  3.7641 -0.4489  2.1578
  890MOL0     H17447  10.129   9.723   4.400  0.3961 -0.4754  0.0475
  890MOL0     H17448  10.235   9.490   4.464  0.2750  0.3461 -1.1927
  890MOL0     H17449  10.194   9.562   4.621 -0.3849  1.3768  0.0797
  890MOL0     H17450  10.303   9.764   4.552  1.6244  0.6614  1.1760
  890MOL0     H17451  10.367   9.697   4.400  2.7720  1.1367  0.9901
  890MOL0     H17452  10.445   9.547   4.647  3.4486 -1.1699  0.7625
  890MOL0     H17453  10.535   9.584   4.509  0.1187 -0.4189  0.6449
  890MOL0     H17454  10.476   9.784   4.738  1.1126  2.1324 -0.2217
  890MOL0     H17455  10.531   9.832   4.590 -3.1993  0.1885  0.5213
  890MOL0     H17456  10.733   9.662   4.618  3.5274  0.8011  1.7303
  890MOL0     H17457  10.673   9.639   4.781 -1.0646 -0.0380 -0.2602
  890MOL0     H17458  10.746   9.908   4.652  3.3202 -0.8800 -0.7179
  890MOL0     H17459  10.686   9.886   4.815 -0.3239  1.5967 -1.4292
  890MOL0     H17460  10.929   9.749   4.688 -4.6964  0.4740 -2.9099
  890MOL0     H17461  10.883   9.729   4.864 -0.8798 -1.0949 -1.1422
  890MOL0     H17462   9.874   9.803   4.400  0.0592  0.1885 -1.3051
  890MOL0     H17463   9.663   9.824   4.297  4.0647  0.8598 -1.2959
  890MOL0     H17464   9.396   9.529   3.986  0.0566 -0.3656  0.4496
  890MOL0     H17465   9.181   9.450   3.890 -0.2274 -2.8377  3.3018
  890MOL0     H17466   7.411   9.059   4.587  0.6278 -0.8232 -4.2915
  890MOL0     H17467   7.175   9.070   4.596 -1.1067 -1.4321 -3.2369
  890MOL0     H17468   6.787   9.021   4.537 -0.1740 -0.7274 -1.4837
  890MOL0     H17469   6.568   9.046   4.471  0.5604  0.3619  0.9412
  890MOL0     H17470   6.316   9.041   4.430 -0.8637  1.0475 -0.1136
  890MOL0     H17471   6.302   9.061   4.608 -2.2378  0.0275  0.1346
  890MOL0     H17472   6.084   9.062   4.478  1.1472 -0.9191 -0.3949
  890MOL0     H17473   6.111   8.886   4.450 -1.0306 -1.6312  0.8767
  890MOL0     H17474   6.096   9.014   4.729  0.2946 -2.1307  1.1178
  890MOL0     H17475   6.092   8.839   4.681  1.1632  0.4482  1.3905
  890MOL0     H17476   5.888   9.072   4.650 -0.1009  0.1654 -0.5989
  890MOL0     H17477   5.882   8.913   4.555  0.7145 -1.5471  0.3064
  890MOL0     H17478   5.712   8.754   4.894  2.4316 -0.7793  0.7276
  890MOL0     H17479   6.455   8.678   4.687 -0.2937 -0.0574  0.0403
  890MOL0     H17480   6.672   8.662   4.767  1.5070  0.7419  0.0325
  891MOL0     O17481   3.384  10.593  10.470  0.0427  0.6207  0.4078
  891MOL0     C17482   3.422  10.674  10.386 -0.4660  0.0754  0.7096
  891MOL0     O17483   3.339  10.731  10.294 -0.3087 -0.1511  0.1483
  891MOL0     C17484   3.205  10.713  10.316 -0.7762 -0.3195 -0.3581
  891MOL0     C17485   3.143  10.603  10.268  0.4148  1.4726  0.4857
  891MOL0     C17486   3.003  10.579  10.305  0.2213  0.5554  0.2173
  891MOL0     C17487   2.935  10.672  10.386 -0.4889  0.3839  0.2495
  891MOL0     O17488   2.796  10.661  10.412  0.1673  0.2235 -0.0815
  891MOL0     C17489   2.726  10.538  10.415 -0.9291 -0.3697  0.0588
  891MOL0     C17490   2.777  10.451  10.523  0.1538  0.0257 -0.3971
  891MOL0     C17491   2.776  10.520  10.665  0.1546  0.7290 -0.2894
  891MOL0     C17492   2.658  10.606  10.706 -0.6406  1.2176 -0.4044
  891MOL0     C17493   2.682  10.643  10.855 -1.0157 -0.7572 -0.5068
  891MOL0     C17494   2.553  10.675  10.929 -0.2138  0.4070  0.0984
  891MOL0     C17495   2.477  10.782  10.863 -0.5773 -0.7448 -0.1741
  891MOL0     C17496   2.351  10.790  10.945  1.1443  0.1615  0.6014
  891MOL0     N17497   2.235  10.839  10.866 -0.2347  0.2286  0.1226
  891MOL0     C17498   2.131  10.772  10.804  0.1482 -0.9031 -0.2195
  891MOL0     C17499   2.041  10.863  10.763  0.7013 -1.1463 -0.4826
  891MOL0     C17500   1.894  10.843  10.721 -0.8409  0.6461  0.6243
  891MOL0     C17501   1.888  10.754  10.587  0.1445  0.0885 -1.5722
  891MOL0     C17502   1.746  10.710  10.554  0.2341  0.0613  0.1087
  891MOL0     C17503   1.654  10.667  10.667  0.5996 -0.5172 -0.1172
  891MOL0     O17504   1.731  10.566  10.743  0.0714 -1.1790  0.2319
  891MOL0     C17505   1.669  10.517  10.855 -0.8164 -0.7739  0.1340
  891MOL0     C17506   1.749  10.448  10.937  0.6627 -0.3693  0.8300
  891MOL0     C17507   1.703  10.394  11.058  0.1416 -0.2771  0.7597
  891MOL0     C17508   1.568  10.404  11.099 -0.9168  0.3820 -0.4351
  891MOL0     C17509   1.509  10.347  11.223 -0.3531 -0.3216 -0.0324
  891MOL0     O17510   1.383  10.389  11.259 -0.4815  0.0090 -0.4029
  891MOL0     C17511   1.318  10.353  11.377 -0.2498 -0.1827  1.2567
  891MOL0     C17512   1.315  10.218  11.425  0.1543 -1.1852 -0.1758
  891MOL0     C17513   1.238  10.180  11.535  0.3005 -0.1600  0.2563
  891MOL0     C17514   1.170  10.279  11.601  0.8008 -0.4594  0.3630
  891MOL0     O17515   1.100  10.234  11.715  0.0579 -0.2637  0.2600
  891MOL0     C17516   0.986  10.304  11.757 -0.5763 -0.9481  0.2240
  891MOL0     C17517   0.893  10.215  11.845  0.2289 -0.5985  0.1837
  891MOL0     C17518   0.750  10.256  11.833  0.2841 -0.3035  0.6848
  891MOL0     C17519   0.664  10.188  11.943  1.1036  0.0742 -1.1113
  891MOL0     C17520   0.517  10.221  11.946 -1.2889  0.2145 -0.8824
  891MOL0     C17521   0.438  10.118  12.034  0.4735 -0.2107  0.5304
  891MOL0     C17522   0.291  10.156  12.002  0.4761  0.2263  0.3643
  891MOL0     C17523   0.176  10.067  12.050  0.0066  0.2937 -0.0706
  891MOL0    Cl17524   0.179  10.023  12.231 -0.0195 -0.0136 -0.2650
  891MOL0     C17525   1.160  10.412  11.552 -0.4883 -0.4024  0.2012
  891MOL0     C17526   1.239  10.449  11.435 -0.1214 -0.1108 -0.5202
  891MOL0     O17527   1.573  10.264  11.288 -0.3953 -0.8269  0.2790
  891MOL0     C17528   1.489  10.486  11.023 -0.1416  0.0291 -0.0647
  891MOL0     C17529   1.540  10.530  10.904  0.2342 -0.8726 -1.0436
  891MOL0     N17530   2.112  10.988  10.763  0.0008  0.4269 -0.0721
  891MOL0     N17531   2.225  10.960  10.825  0.3049  0.6477 -0.5795
  891MOL0     C17532   3.000  10.790  10.426  0.3609 -0.7902  0.6784
  891MOL0     C17533   3.131  10.813  10.392 -0.5202  0.7804 -0.3840
  891MOL0     C17534   3.566  10.715  10.378  0.0705  0.4265  0.3674
  891MOL0     C17535   3.664  10.648  10.442 -0.2038  1.4701  0.2410
  891MOL0     C17536   3.796  10.699  10.455 -0.3949  0.2045  0.5636
  891MOL0     C17537   3.833  10.813  10.379 -0.1598 -0.0087  0.2251
  891MOL0     O17538   3.957  10.864  10.360 -0.3133 -0.5615 -0.2798
  891MOL0     C17539   4.068  10.792  10.425  0.1729  0.0608  0.6631
  891MOL0     C17540   4.196  10.864  10.375 -0.0124 -0.7939 -0.0557
  891MOL0     C17541   4.267  10.770  10.286  1.5690  0.3423  0.0037
  891MOL0     C17542   4.394  10.839  10.235 -0.5202 -0.5777  0.3559
  891MOL0     C17543   4.466  10.742  10.155 -1.2742 -0.2741 -0.7430
  891MOL0     C17544   4.533  10.651  10.118 -0.5322  1.2566  0.4543
  891MOL0     C17545   3.725  10.883  10.318 -0.4747  0.8905  0.1849
  891MOL0     C17546   3.600  10.833  10.313  0.4818  0.8105 -0.0771
  891MOL0     H17547   3.199  10.541  10.199 -2.5802  0.9415 -1.7166
  891MOL0     H17548   2.949  10.495  10.263 -0.5555 -0.3624  2.8078
  891MOL0     H17549   2.728  10.498  10.313 -3.3995 -0.6889  0.0698
  891MOL0     H17550   2.619  10.533  10.438 -0.4869 -5.0345  2.2005
  891MOL0     H17551   2.875  10.425  10.482  0.2079  3.4282 -2.8941
  891MOL0     H17552   2.710  10.365  10.533 -1.0228  0.8293 -1.0752
  891MOL0     H17553   2.866  10.582  10.666  1.7136 -1.4135 -0.5344
  891MOL0     H17554   2.796  10.441  10.738 -0.7091  0.9939  0.2468
  891MOL0     H17555   2.643  10.694  10.643 -3.1118  1.3064  0.2051
  891MOL0     H17556   2.566  10.547  10.700  1.2303 -1.9302 -0.4592
  891MOL0     H17557   2.749  10.729  10.857 -1.9065 -0.0497 -0.5271
  891MOL0     H17558   2.733  10.562  10.907 -1.0326 -0.1038  0.5475
  891MOL0     H17559   2.579  10.709  11.029  1.3192 -0.5208  0.0383
  891MOL0     H17560   2.490  10.585  10.930 -3.0034  2.1666 -1.5744
  891MOL0     H17561   2.530  10.876  10.874 -1.0366 -0.4851 -0.1445
  891MOL0     H17562   2.449  10.771  10.758  2.2493  2.9192 -1.5064
  891MOL0     H17563   2.364  10.877  11.010  0.8598  1.2204 -0.7189
  891MOL0     H17564   2.322  10.696  10.994  0.4656  0.8826  1.6487
  891MOL0     H17565   2.107  10.671  10.835 -3.2239  0.6508  2.9585
  891MOL0     H17566   1.838  10.934  10.696 -3.2217 -0.8097  0.3475
  891MOL0     H17567   1.842  10.785  10.798  2.5632 -0.9115  1.9676
  891MOL0     H17568   1.954  10.668  10.602  3.0865  2.4199  0.1876
  891MOL0     H17569   1.923  10.822  10.509 -0.1939 -1.0449 -2.7423
  891MOL0     H17570   1.701  10.786  10.490  0.5468  2.0083  2.0815
  891MOL0     H17571   1.764  10.630  10.481 -0.2532  0.3293 -0.3072
  891MOL0     H17572   1.567  10.632  10.611 -0.4294  1.7792 -0.0435
  891MOL0     H17573   1.626  10.751  10.731  1.5476 -0.8711  0.8089
  891MOL0     H17574   1.851  10.459  10.901  1.3343 -3.9283  1.2537
  891MOL0     H17575   1.780  10.346  11.118 -0.8913  1.0441  3.3045
  891MOL0     H17576   1.369  10.148  11.362  3.2568  0.9027 -0.0948
  891MOL0     H17577   1.238  10.075  11.561  0.4232 -0.5675 -1.3028
  891MOL0     H17578   0.936  10.352  11.673  0.4778 -0.0734  0.0604
  891MOL0     H17579   1.009  10.393  11.818  1.2269  1.3968 -3.5362
  891MOL0     H17580   0.917  10.226  11.951  1.7535  0.5056 -0.2345
  891MOL0     H17581   0.914  10.113  11.812  1.0919  0.6817 -3.7918
  891MOL0     H17582   0.713  10.240  11.732 -0.8039  1.4205  0.7734
  891MOL0     H17583   0.739  10.364  11.846 -1.4998 -0.5596  1.6454
  891MOL0     H17584   0.682  10.080  11.935  0.3209 -0.9063  5.3418
  891MOL0     H17585   0.716  10.203  12.038  1.4287  1.3925 -1.4778
  891MOL0     H17586   0.481  10.241  11.844 -2.4216  1.0489 -0.3322
  891MOL0     H17587   0.505  10.319  11.994 -1.0395 -0.8076  1.3891
  891MOL0     H17588   0.452  10.116  12.142 -0.1869 -3.9830  0.6583
  891MOL0     H17589   0.451  10.016  11.998 -1.4064  0.1649 -1.3725
  891MOL0     H17590   0.264  10.252  12.046 -1.9590 -0.1197 -0.2517
  891MOL0     H17591   0.281  10.166  11.894 -1.3071 -0.7984  0.3922
  891MOL0     H17592   0.183   9.983  11.980  3.1560  0.9925 -0.7847
  891MOL0     H17593   0.084  10.123  12.034  2.1973  5.2443  2.4374
  891MOL0     H17594   1.094  10.486  11.596  0.3333  0.5370 -0.1200
  891MOL0     H17595   1.236  10.555  11.410 -0.1257  0.9028  3.1398
  891MOL0     H17596   1.381  10.492  11.034 -0.4093 -0.2808 -2.1123
  891MOL0     H17597   1.466  10.578  10.840 -1.2764  2.0313  2.5192
  891MOL0     H17598   2.942  10.865  10.477 -1.5158 -2.2307  0.7653
  891MOL0     H17599   3.194  10.899  10.414  1.3307 -1.0643  1.9742
  891MOL0     H17600   3.636  10.556  10.493 -1.6385  1.4454 -0.5509
  891MOL0     H17601   3.860  10.655  10.531  0.2902  1.8379  0.9783
  891MOL0     H17602   4.066  10.688  10.391  0.2612  0.5322 -0.8717
  891MOL0     H17603   4.058  10.785  10.534  2.6888 -0.3042  0.9258
  891MOL0     H17604   4.168  10.959  10.329 -0.3436  0.7956  3.1615
  891MOL0     H17605   4.273  10.888  10.449  0.9977 -0.5802 -1.1354
  891MOL0     H17606   4.204  10.748  10.200  1.6907 -2.7889  0.6052
  891MOL0     H17607   4.285  10.673  10.333 -1.5956  0.5343  1.9157
  891MOL0     H17608   4.381  10.927  10.172  2.1679 -0.2332  0.1799
  891MOL0     H17609   4.448  10.875  10.323 -1.3710  0.8893  0.3154
  891MOL0     H17610   4.607  10.584  10.080  0.0526  1.9833  0.2771
  891MOL0     H17611   3.743  10.972  10.258 -1.1578  0.5245 -0.5818
  891MOL0     H17612   3.524  10.899  10.271  1.7039  1.3613 -1.4871
  892MOL0     O17613   0.730   8.346   4.012 -0.3720  0.7705 -1.4464
  892MOL0     C17614   0.808   8.364   4.106  0.0278  0.8428  0.6691
  892MOL0     O17615   0.771   8.380   4.233  0.1069 -0.1585  0.6677
  892MOL0     C17616   0.636   8.387   4.264  0.4544  0.3219 -0.1563
  892MOL0     C17617   0.612   8.325   4.392 -0.7619  0.4630 -0.2067
  892MOL0     C17618   0.501   8.338   4.468 -0.7458 -0.2921 -0.4628
  892MOL0     C17619   0.400   8.412   4.405  0.2257 -0.3773 -0.2948
  892MOL0     O17620   0.278   8.425   4.467 -0.2666 -0.1977 -0.0333
  892MOL0     C17621   0.302   8.522   4.570  0.3960 -0.2690 -0.2163
  892MOL0     C17622   0.190   8.526   4.673  0.0797  0.0161  0.1472
  892MOL0     C17623   0.050   8.548   4.611  0.9810  0.2614 -0.5158
  892MOL0     C17624   0.002   8.693   4.614 -0.4656  0.1732 -0.7853
  892MOL0     C17625  -0.129   8.705   4.531  0.6370 -0.3695 -0.5390
  892MOL0     C17626  -0.157   8.841   4.478 -0.6175  0.2276  0.5511
  892MOL0     C17627  -0.308   8.853   4.457 -0.6527  0.3646 -0.2660
  892MOL0     C17628  -0.365   8.737   4.364  0.3543 -0.3356 -0.8934
  892MOL0     N17629  -0.496   8.775   4.303  0.0643  1.3984 -0.5016
  892MOL0     C17630  -0.522   8.875   4.209 -0.5674  1.4260  0.5614
  892MOL0     C17631  -0.650   8.860   4.183  0.4959  0.5605 -1.5262
  892MOL0     C17632  -0.724   8.925   4.072  0.3286  0.1046  0.4761
  892MOL0     C17633  -0.734   8.833   3.957  0.3947 -0.6105  0.2857
  892MOL0     C17634  -0.759   8.899   3.824 -0.6641  0.5068  0.4141
  892MOL0     C17635  -0.909   8.944   3.813 -0.5607  0.2112 -0.1305
  892MOL0     O17636  -0.974   8.829   3.763  0.9060 -0.0225  0.3418
  892MOL0     C17637  -1.094   8.789   3.820 -0.3953 -0.1778  0.4576
  892MOL0     C17638  -1.199   8.869   3.870  0.6508  0.5182  0.2035
  892MOL0     C17639  -1.311   8.805   3.934  0.4518  0.5463 -0.5497
  892MOL0     C17640  -1.317   8.667   3.957 -0.2840 -0.5265  0.1153
  892MOL0     C17641  -1.420   8.600   4.041 -0.2089  0.3566  0.1839
  892MOL0     O17642  -1.402   8.471   4.079 -0.1550 -0.5451  0.6406
  892MOL0     C17643  -1.507   8.420   4.145  0.6110  0.5797  0.6062
  892MOL0     C17644  -1.520   8.426   4.286  0.8300  1.2937  0.2167
  892MOL0     C17645  -1.631   8.375   4.359  0.1003 -0.1034 -0.2717
  892MOL0     C17646  -1.737   8.305   4.283  0.8190  0.2209  0.0366
  892MOL0     O17647  -1.848   8.246   4.344 -0.0564 -0.1013  0.2142
  892MOL0     C17648  -1.937   8.164   4.271 -0.5914  0.0759  1.0478
  892MOL0     C17649  -2.054   8.152   4.366 -1.0719  0.0178  0.5498
  892MOL0     C17650  -2.172   8.108   4.278  0.6631 -0.3232  0.1191
  892MOL0     C17651  -2.282   8.042   4.362  0.1322  0.0506  0.8894
  892MOL0     C17652  -2.338   8.116   4.485  0.3111  0.5765 -0.2294
  892MOL0     C17653  -2.389   8.250   4.448  0.2975  0.6462 -0.2926
  892MOL0     C17654  -2.454   8.317   4.578  0.4317  0.2236 -0.9556
  892MOL0     C17655  -2.547   8.435   4.535  0.0135 -0.5018 -0.0947
  892MOL0    Cl17656  -2.666   8.469   4.662 -0.3400  0.5430 -0.3836
  892MOL0     C17657  -1.721   8.293   4.146  1.0268  0.3172 -0.2968
  892MOL0     C17658  -1.613   8.354   4.076 -0.8635 -0.2046  0.0580
  892MOL0     O17659  -1.506   8.668   4.086 -0.4621 -0.0815  0.3151
  892MOL0     C17660  -1.203   8.597   3.911  0.3386  0.8766  0.3341
  892MOL0     C17661  -1.096   8.659   3.850 -0.6779  0.2557 -0.7994
  892MOL0     N17662  -0.706   8.765   4.274 -0.3142  0.4934 -0.5351
  892MOL0     N17663  -0.610   8.712   4.340  0.5985  0.5020  0.1010
  892MOL0     C17664   0.419   8.472   4.277  0.0868 -0.6845  0.4132
  892MOL0     C17665   0.538   8.465   4.212 -1.5435  0.0284  0.4912
  892MOL0     C17666   0.953   8.368   4.089  1.1219 -0.3969 -0.6890
  892MOL0     C17667   1.015   8.386   3.959  0.8011  0.2698  0.0868
  892MOL0     C17668   1.153   8.376   3.949  0.5150 -0.0549  0.7766
  892MOL0     C17669   1.235   8.375   4.058  0.3940  0.7119 -0.5435
  892MOL0     O17670   1.377   8.369   4.061  0.8995  0.0918  0.4412
  892MOL0     C17671   1.440   8.367   3.933 -0.2589 -0.1261  0.0004
  892MOL0     C17672   1.592   8.377   3.962  0.3232  0.2380 -0.0548
  892MOL0     C17673   1.629   8.491   4.066  0.1087  0.1817  0.3392
  892MOL0     C17674   1.561   8.619   4.033  1.3837 -0.0538  0.1283
  892MOL0     C17675   1.606   8.736   4.113  0.7146  1.1733 -0.1881
  892MOL0     C17676   1.648   8.824   4.196 -0.2251  0.4532  0.4663
  892MOL0     C17677   1.180   8.368   4.191  0.0078  0.0499  0.2531
  892MOL0     C17678   1.040   8.368   4.204 -0.3233  0.8531  0.5683
  892MOL0     H17679   0.698   8.264   4.420 -0.3123 -0.6270 -3.5536
  892MOL0     H17680   0.485   8.303   4.569  1.7699 -1.2219 -0.3114
  892MOL0     H17681   0.309   8.620   4.522 -2.3928  1.2768  2.1636
  892MOL0     H17682   0.394   8.503   4.627 -0.0867  2.0961  1.5300
  892MOL0     H17683   0.197   8.610   4.743 -1.0042  1.0285 -0.9042
  892MOL0     H17684   0.193   8.429   4.724  1.9445 -0.1633 -0.2537
  892MOL0     H17685  -0.020   8.487   4.668 -1.4596  3.2761 -0.0416
  892MOL0     H17686   0.046   8.518   4.506  3.3043 -0.7932 -0.3602
  892MOL0     H17687  -0.017   8.712   4.720 -0.5789 -0.0883 -0.7578
  892MOL0     H17688   0.083   8.757   4.576 -1.5697  2.3423  0.3472
  892MOL0     H17689  -0.207   8.683   4.604  1.1127  1.7754  0.7281
  892MOL0     H17690  -0.136   8.624   4.458  2.4027 -0.5548 -0.5629
  892MOL0     H17691  -0.102   8.848   4.383  1.4001  0.0518  1.6380
  892MOL0     H17692  -0.125   8.913   4.554 -1.4319  0.9568  0.2248
  892MOL0     H17693  -0.371   8.858   4.547  1.2129 -0.8369  1.1724
  892MOL0     H17694  -0.305   8.952   4.410  0.8111  0.5731  0.2229
  892MOL0     H17695  -0.368   8.652   4.433  5.0767 -1.0633 -1.2472
  892MOL0     H17696  -0.286   8.696   4.300  0.8187 -2.6891  1.0484
  892MOL0     H17697  -0.469   8.943   4.143 -0.1153  2.7892  2.2388
  892MOL0     H17698  -0.668   9.015   4.044  1.8984 -0.4039  1.8460
  892MOL0     H17699  -0.827   8.948   4.102 -0.7362 -0.9985 -2.0196
  892MOL0     H17700  -0.804   8.753   3.982 -2.1679  1.2066 -0.6417
  892MOL0     H17701  -0.634   8.788   3.955  2.0649  2.7134  0.8111
  892MOL0     H17702  -0.689   8.982   3.813 -0.9992  1.0762  2.1654
  892MOL0     H17703  -0.730   8.821   3.753  1.3322  0.5169  1.1576
  892MOL0     H17704  -0.901   9.011   3.727  0.3117 -0.0483 -0.2611
  892MOL0     H17705  -0.954   8.976   3.908  3.0026 -1.3352  2.2967
  892MOL0     H17706  -1.208   8.977   3.858 -2.2732  0.2274 -1.2464
  892MOL0     H17707  -1.391   8.855   3.987  1.1493 -0.1543  1.2420
  892MOL0     H17708  -1.433   8.476   4.327  1.5540  0.8448 -0.7277
  892MOL0     H17709  -1.642   8.383   4.467  1.8360 -0.1317 -0.0734
  892MOL0     H17710  -1.899   8.068   4.237 -1.6370  0.2453 -0.7272
  892MOL0     H17711  -1.975   8.205   4.177 -1.3013  1.4153  1.8648
  892MOL0     H17712  -2.074   8.247   4.417  2.0955  2.0733 -1.6851
  892MOL0     H17713  -2.031   8.085   4.449 -0.2725 -0.0895  0.2425
  892MOL0     H17714  -2.146   8.050   4.190  0.1897 -0.3353 -0.0143
  892MOL0     H17715  -2.213   8.200   4.235  2.0491 -0.3803 -1.4036
  892MOL0     H17716  -2.368   8.028   4.295  2.7510 -0.9961 -2.5299
  892MOL0     H17717  -2.250   7.943   4.393 -0.1856 -0.6272 -0.8484
  892MOL0     H17718  -2.244   8.127   4.540  0.5775 -2.8592  0.1722
  892MOL0     H17719  -2.420   8.065   4.535  0.4201  1.3372  0.7680
  892MOL0     H17720  -2.462   8.222   4.372  0.1175 -0.4680  0.2777
  892MOL0     H17721  -2.314   8.315   4.402  2.5166 -1.7929 -0.3185
  892MOL0     H17722  -2.522   8.246   4.626  2.5074  0.5318  2.8754
  892MOL0     H17723  -2.376   8.330   4.654 -1.7889  1.5462  1.2572
  892MOL0     H17724  -2.587   8.416   4.435  2.7648  0.7306 -1.5293
  892MOL0     H17725  -2.484   8.524   4.529 -1.9215  1.2201  2.6280
  892MOL0     H17726  -1.787   8.230   4.088  0.2507  0.9049 -0.0589
  892MOL0     H17727  -1.613   8.319   3.973 -3.1511 -1.4765  0.4240
  892MOL0     H17728  -1.196   8.490   3.927 -1.7993  0.3995 -1.3707
  892MOL0     H17729  -1.010   8.596   3.831  1.0108  1.7310  1.4032
  892MOL0     H17730   0.337   8.533   4.240  2.3231  3.7841  1.9968
  892MOL0     H17731   0.566   8.508   4.116 -0.8706 -0.7855  0.3145
  892MOL0     H17732   0.964   8.388   3.864 -2.3432  0.0253  1.6341
  892MOL0     H17733   1.190   8.391   3.848  1.1385  3.1234  1.3892
  892MOL0     H17734   1.411   8.449   3.867 -2.0106 -0.9525 -0.3262
  892MOL0     H17735   1.413   8.274   3.883  0.8484  0.4124 -1.6614
  892MOL0     H17736   1.636   8.288   4.007  0.1204 -1.0483 -2.2457
  892MOL0     H17737   1.644   8.386   3.866  4.8360  0.7935  2.1917
  892MOL0     H17738   1.738   8.499   4.076  0.2812 -0.4446 -0.8561
  892MOL0     H17739   1.601   8.460   4.167  0.6909  0.6534  0.6503
  892MOL0     H17740   1.575   8.652   3.930  2.0887 -2.1893 -0.5041
  892MOL0     H17741   1.454   8.615   4.055  0.9504  0.7525 -1.6687
  892MOL0     H17742   1.696   8.907   4.242  0.0783 -0.3520  1.6220
  892MOL0     H17743   1.252   8.373   4.272 -1.8942 -1.0292  2.0968
  892MOL0     H17744   1.000   8.356   4.304 -1.9926 -1.2642 -0.2722
  893MOL0     O17745   2.651  10.268   9.763 -0.4685  0.3999  0.0601
  893MOL0     C17746   2.583  10.200   9.850 -0.2418 -0.4582 -1.4263
  893MOL0     O17747   2.555  10.059   9.845 -0.2527  0.0758 -0.3032
  893MOL0     C17748   2.600   9.996   9.734 -0.3253  0.8698 -0.6346
  893MOL0     C17749   2.514   9.978   9.621  0.1870 -0.0420  0.4623
  893MOL0     C17750   2.561   9.919   9.504 -0.4280  0.1527  0.3915
  893MOL0     C17751   2.696   9.876   9.499  0.4869 -0.6798  0.8521
  893MOL0     O17752   2.739   9.817   9.382  0.6824 -0.8662  0.1509
  893MOL0     C17753   2.689   9.687   9.359 -0.1325  0.1054 -0.6954
  893MOL0     C17754   2.795   9.582   9.365 -0.0853  0.3018 -1.0426
  893MOL0     C17755   2.725   9.443   9.328 -0.2453  0.6159 -0.2368
  893MOL0     C17756   2.821   9.329   9.340 -0.9256  1.0450 -0.5715
  893MOL0     C17757   2.743   9.197   9.337  0.1285 -0.1256 -0.0687
  893MOL0     C17758   2.831   9.084   9.371 -0.5012  0.9452 -0.8679
  893MOL0     C17759   2.779   8.937   9.336 -0.8021 -0.3248 -0.3777
  893MOL0     C17760   2.674   8.897   9.437  0.3367 -0.0243  0.2435
  893MOL0     N17761   2.740   8.877   9.564 -0.3652  0.1254 -0.5390
  893MOL0     C17762   2.855   8.804   9.601  0.3931 -0.6970  0.4025
  893MOL0     C17763   2.887   8.838   9.727  0.0812  0.3232  0.4426
  893MOL0     C17764   3.006   8.784   9.803  0.3709 -1.7303 -0.3408
  893MOL0     C17765   3.123   8.884   9.804 -0.3163  0.2779 -0.2481
  893MOL0     C17766   3.180   8.931   9.679 -0.0542  1.5354  0.4797
  893MOL0     C17767   3.228   8.826   9.574  0.2230  0.3801  0.9556
  893MOL0     O17768   3.336   8.751   9.633  0.3506  0.3609  0.2538
  893MOL0     C17769   3.419   8.662   9.570  0.8672  0.0590 -0.0890
  893MOL0     C17770   3.413   8.628   9.431 -0.4094  0.4911 -0.1392
  893MOL0     C17771   3.514   8.554   9.366 -0.4572  0.1554 -0.1039
  893MOL0     C17772   3.603   8.492   9.451 -0.6393  0.1876  0.1463
  893MOL0     C17773   3.689   8.381   9.396 -0.5802 -0.0990 -0.2886
  893MOL0     O17774   3.800   8.350   9.460  0.2882  0.2641 -0.8482
  893MOL0     C17775   3.875   8.238   9.426  0.2974  0.0127 -0.3719
  893MOL0     C17776   3.999   8.268   9.365 -0.0599 -0.5788  0.5142
  893MOL0     C17777   4.094   8.166   9.359  1.3081  0.2747  0.6751
  893MOL0     C17778   4.067   8.034   9.399  0.4108  0.5280  0.0662
  893MOL0     O17779   4.180   7.959   9.373  0.8262  0.1292  0.2553
  893MOL0     C17780   4.178   7.820   9.395  0.3078  0.7579  0.4099
  893MOL0     C17781   4.165   7.741   9.262  0.6119 -0.4832 -0.0090
  893MOL0     C17782   4.181   7.590   9.295  0.0409  0.1267  1.3718
  893MOL0     C17783   4.159   7.500   9.175 -0.5055 -0.2200  0.0883
  893MOL0     C17784   4.003   7.481   9.137 -0.1574 -0.0653  0.8464
  893MOL0     C17785   3.921   7.416   9.247 -0.2879 -0.0796 -0.3555
  893MOL0     C17786   3.960   7.275   9.305  0.7812  0.2629 -0.0860
  893MOL0     C17787   3.863   7.260   9.429 -0.3931  0.0398 -0.4002
  893MOL0    Cl17788   3.930   7.128   9.534  0.0238  0.1104  0.0255
  893MOL0     C17789   3.934   8.007   9.442 -1.2262  0.8001  0.8028
  893MOL0     C17790   3.848   8.108   9.454  0.1622  0.0034 -0.2225
  893MOL0     O17791   3.645   8.319   9.302 -0.0587  0.1545  0.1901
  893MOL0     C17792   3.599   8.513   9.593  0.2894  0.5131 -0.4780
  893MOL0     C17793   3.509   8.597   9.655  0.1494 -0.3942 -0.1164
  893MOL0     N17794   2.801   8.937   9.763  0.1801 -0.6827  0.2483
  893MOL0     N17795   2.716   8.962   9.671 -0.2603  0.0146  0.3995
  893MOL0     C17796   2.780   9.893   9.608 -0.9136  0.1489 -0.0312
  893MOL0     C17797   2.729   9.949   9.733  0.5307  0.4103  0.4271
  893MOL0     C17798   2.514  10.277   9.953 -0.4489  0.9803 -0.2375
  893MOL0     C17799   2.554  10.413   9.979  0.3688 -0.1352  0.3275
  893MOL0     C17800   2.485  10.497  10.054  0.1428 -0.2637 -1.3056
  893MOL0     C17801   2.388  10.445  10.136  2.2057 -0.4342 -0.2445
  893MOL0     O17802   2.309  10.515  10.224  0.0163  0.2836  0.3647
  893MOL0     C17803   2.315  10.656  10.237 -0.6834  0.5139  0.0544
  893MOL0     C17804   2.214  10.673  10.347  0.8311 -0.1959 -0.3021
  893MOL0     C17805   2.237  10.818  10.409  0.1886  0.9455  0.4852
  893MOL0     C17806   2.360  10.820  10.506  0.7016 -0.0395  0.6440
  893MOL0     C17807   2.487  10.884  10.442  0.5610 -0.1996 -0.4329
  893MOL0     C17808   2.589  10.933  10.408 -0.6452 -0.1855  0.2707
  893MOL0     C17809   2.351  10.315  10.127  0.3269  0.0128  0.0283
  893MOL0     C17810   2.412  10.229  10.030  1.5285 -1.3129 -0.1463
  893MOL0     H17811   2.410  10.006   9.629  1.0540  3.8016  0.1178
  893MOL0     H17812   2.500   9.897   9.416  0.2623  4.0134 -1.2364
  893MOL0     H17813   2.632   9.685   9.266 -2.6394 -1.5799  0.7523
  893MOL0     H17814   2.624   9.648   9.438 -0.9293  0.8347 -0.9850
  893MOL0     H17815   2.851   9.571   9.459 -1.2863  0.5375 -0.2852
  893MOL0     H17816   2.865   9.609   9.285 -0.2140 -0.0083 -1.2622
  893MOL0     H17817   2.694   9.451   9.224 -1.6703 -0.2758  0.1003
  893MOL0     H17818   2.639   9.419   9.390 -0.9589 -0.6493 -1.6571
  893MOL0     H17819   2.888   9.318   9.255  0.9411 -1.5008  1.0924
  893MOL0     H17820   2.874   9.345   9.435  1.2364  2.1418 -1.8941
  893MOL0     H17821   2.689   9.175   9.245  0.4374  3.5451 -1.3030
  893MOL0     H17822   2.671   9.213   9.418  0.5987 -0.0865  0.3474
  893MOL0     H17823   2.865   9.090   9.475 -1.4383  3.5346 -0.6221
  893MOL0     H17824   2.921   9.086   9.308  2.8489 -2.2647  3.2457
  893MOL0     H17825   2.756   8.937   9.229  2.8249  0.3941 -1.3067
  893MOL0     H17826   2.861   8.866   9.329  0.2599  0.4771  2.4811
  893MOL0     H17827   2.636   8.804   9.394  1.8773 -1.3836  1.6795
  893MOL0     H17828   2.600   8.978   9.435 -0.1716 -0.5096 -1.4852
  893MOL0     H17829   2.903   8.730   9.537 -1.0754  0.0251 -1.6341
  893MOL0     H17830   3.040   8.689   9.760  0.9531 -1.6557 -0.0542
  893MOL0     H17831   2.973   8.753   9.902  1.4991 -1.5117  0.1186
  893MOL0     H17832   3.199   8.829   9.861  0.8390 -1.3566 -3.1420
  893MOL0     H17833   3.107   8.973   9.865 -1.1105 -0.6602  0.9688
  893MOL0     H17834   3.108   8.993   9.625 -1.7168  2.3346  3.4055
  893MOL0     H17835   3.257   9.005   9.701 -0.6388  2.2791  0.0564
  893MOL0     H17836   3.256   8.878   9.482  0.6880 -1.9077 -0.2661
  893MOL0     H17837   3.144   8.762   9.544  1.0361  1.5083 -5.1106
  893MOL0     H17838   3.332   8.673   9.373  0.2669 -0.2266 -1.6933
  893MOL0     H17839   3.506   8.522   9.263  0.3857 -0.5622  0.0460
  893MOL0     H17840   4.030   8.369   9.340  1.7541 -1.4017 -0.7572
  893MOL0     H17841   4.195   8.178   9.322  0.8582  0.9735 -0.3785
  893MOL0     H17842   4.092   7.797   9.458 -0.1890 -1.7139 -1.0424
  893MOL0     H17843   4.268   7.797   9.452 -0.0136 -1.4181  0.1155
  893MOL0     H17844   4.235   7.788   9.193 -1.5828  1.0921 -1.2717
  893MOL0     H17845   4.067   7.762   9.218 -0.5748 -2.8028  1.3038
  893MOL0     H17846   4.125   7.551   9.380  1.9570  0.5658  2.9107
  893MOL0     H17847   4.283   7.584   9.334 -0.1272 -2.0958  1.5650
  893MOL0     H17848   4.210   7.535   9.085  0.3555 -1.8977 -0.1230
  893MOL0     H17849   4.214   7.407   9.193  1.8098  1.2886  1.4553
  893MOL0     H17850   3.996   7.406   9.058 -0.3420 -2.4454  3.0013
  893MOL0     H17851   3.953   7.573   9.106  1.0546 -0.4433 -2.6859
  893MOL0     H17852   3.828   7.389   9.198 -0.2493 -1.8549  0.4911
  893MOL0     H17853   3.922   7.491   9.327  3.4566 -1.3349  1.0096
  893MOL0     H17854   3.942   7.199   9.228  3.8213 -0.4379 -0.2413
  893MOL0     H17855   4.063   7.273   9.342  0.8410 -1.0738 -0.2875
  893MOL0     H17856   3.762   7.230   9.401  0.1630 -0.7292 -1.6689
  893MOL0     H17857   3.859   7.349   9.492  0.3334  0.8841 -1.5098
  893MOL0     H17858   3.901   7.905   9.457  1.4241 -0.4814 -1.2554
  893MOL0     H17859   3.749   8.086   9.493  1.0505  0.3311  2.4159
  893MOL0     H17860   3.662   8.463   9.666 -2.6124  0.7547  2.4087
  893MOL0     H17861   3.509   8.622   9.760 -3.6974  2.9329 -0.6567
  893MOL0     H17862   2.886   9.873   9.597 -1.0759 -0.7911  0.0018
  893MOL0     H17863   2.791   9.973   9.819  0.5401 -2.0121  1.1687
  893MOL0     H17864   2.620  10.464   9.909  0.8616  0.1504  0.9865
  893MOL0     H17865   2.531  10.595  10.057 -0.3535 -0.0245 -1.5328
  893MOL0     H17866   2.298  10.718  10.149 -1.0497 -1.3187 -1.2125
  893MOL0     H17867   2.411  10.688  10.279  0.5348  0.1468 -2.3130
  893MOL0     H17868   2.112  10.675  10.308  0.4076  3.1427  0.6805
  893MOL0     H17869   2.214  10.589  10.417 -1.4116 -1.9027 -2.2151
  893MOL0     H17870   2.139  10.834  10.453 -0.3928 -0.4554 -0.2397
  893MOL0     H17871   2.251  10.892  10.330  3.6613 -0.0115  0.0331
  893MOL0     H17872   2.346  10.882  10.595  1.0817 -0.3601  0.9340
  893MOL0     H17873   2.362  10.716  10.540 -2.3948  0.2284  1.9801
  893MOL0     H17874   2.669  10.986  10.361 -0.1229 -2.2029 -1.2298
  893MOL0     H17875   2.277  10.265  10.189  0.6131  0.5750  0.8426
  893MOL0     H17876   2.370  10.129  10.020 -0.3811 -0.4414 -1.3234
  894MOL0     O17877   6.391  10.611   5.907  0.3090 -0.9086 -0.4805
  894MOL0     C17878   6.417  10.543   6.001  0.4810 -0.6435 -0.7237
  894MOL0     O17879   6.322  10.480   6.078 -0.2874  0.4083 -0.4470
  894MOL0     C17880   6.191  10.512   6.050 -0.0821  0.3929  0.4234
  894MOL0     C17881   6.113  10.405   5.998 -0.3685  0.3297  0.1193
  894MOL0     C17882   5.981  10.431   5.977  0.5953  0.1583 -0.8503
  894MOL0     C17883   5.922  10.550   6.010  0.1853  0.2009  0.8608
  894MOL0     O17884   5.791  10.565   5.983  0.2600  0.0803 -0.0543
  894MOL0     C17885   5.740  10.700   5.953 -0.0045  0.3949 -0.1735
  894MOL0     C17886   5.605  10.671   5.885  0.5337  0.1571 -0.4198
  894MOL0     C17887   5.604  10.635   5.746  0.2175  0.2594  0.6137
  894MOL0     C17888   5.465  10.608   5.685 -0.2057  0.5259  0.2783
  894MOL0     C17889   5.475  10.589   5.537  0.5125  0.7997  0.2085
  894MOL0     C17890   5.345  10.570   5.454  0.4205 -0.6862  0.3170
  894MOL0     C17891   5.236  10.470   5.490 -0.5486 -0.1234  0.4089
  894MOL0     C17892   5.104  10.493   5.400 -0.8723 -0.7527  0.5309
  894MOL0     N17893   5.013  10.395   5.435 -0.2482  1.0207 -0.0097
  894MOL0     C17894   4.947  10.304   5.356  0.0572  0.5260  0.0103
  894MOL0     C17895   4.865  10.229   5.438  0.2616  0.1048  0.0263
  894MOL0     C17896   4.781  10.106   5.406  0.4163  0.2173 -0.2878
  894MOL0     C17897   4.638  10.139   5.438  0.3897  0.8465  0.3312
  894MOL0     C17898   4.588  10.090   5.576  0.0447  0.4132 -0.0926
  894MOL0     C17899   4.448  10.140   5.616  0.4960 -0.0746 -0.0565
  894MOL0     O17900   4.360  10.031   5.604  0.0847 -0.4641  0.0382
  894MOL0     C17901   4.228  10.064   5.620 -0.7054  0.0837 -0.0433
  894MOL0     C17902   4.179  10.197   5.612 -0.0450  0.4371 -0.5512
  894MOL0     C17903   4.047  10.224   5.609  0.7688 -0.8758  0.1439
  894MOL0     C17904   3.949  10.127   5.625 -0.1445  0.3349 -0.2142
  894MOL0     C17905   3.807  10.168   5.612 -0.1414  0.8508 -0.1500
  894MOL0     O17906   3.780  10.296   5.558 -0.0802 -0.0416 -0.0790
  894MOL0     C17907   3.643  10.320   5.555 -0.2424  0.1511 -0.6341
  894MOL0     C17908   3.563  10.295   5.448  0.1115 -0.1311 -0.4519
  894MOL0     C17909   3.431  10.315   5.455  0.3167  0.8489  1.1749
  894MOL0     C17910   3.369  10.358   5.577 -0.1084 -0.3637 -0.0362
  894MOL0     O17911   3.234  10.384   5.586 -0.6016 -0.1519  0.3345
  894MOL0     C17912   3.140  10.373   5.469 -0.3447 -0.6343  0.5123
  894MOL0     C17913   3.016  10.442   5.507 -0.6067  0.3718 -0.5937
  894MOL0     C17914   2.950  10.478   5.375  0.3963 -0.8549 -0.1156
  894MOL0     C17915   2.812  10.552   5.396 -0.4922 -0.4843  0.3525
  894MOL0     C17916   2.753  10.595   5.268 -0.1165  0.3267  1.2253
  894MOL0     C17917   2.609  10.628   5.263  0.5050 -0.1545 -0.4671
  894MOL0     C17918   2.549  10.619   5.121 -0.4785  0.3074 -0.3434
  894MOL0     C17919   2.490  10.483   5.074 -0.5091 -0.3832 -0.5298
  894MOL0    Cl17920   2.350  10.422   5.168  0.2569 -0.5493  0.5796
  894MOL0     C17921   3.454  10.390   5.679 -0.4616  0.3530 -0.0540
  894MOL0     C17922   3.591  10.361   5.680  0.4554  0.2278  0.5051
  894MOL0     O17923   3.729  10.078   5.641 -0.3406  0.5587 -0.1626
  894MOL0     C17924   4.000   9.995   5.637  0.6363 -0.4515 -0.2632
  894MOL0     C17925   4.138   9.964   5.635  0.3466 -0.2881  0.0627
  894MOL0     N17926   4.875  10.283   5.562  0.6537 -0.3812  0.7390
  894MOL0     N17927   4.952  10.388   5.558  0.2605  0.1733 -0.1279
  894MOL0     C17928   5.999  10.658   6.047 -0.2806 -0.6378  0.0039
  894MOL0     C17929   6.141  10.638   6.061  0.7641  0.2697 -0.6060
  894MOL0     C17930   6.561  10.521   6.016  0.1259 -0.4048  0.7041
  894MOL0     C17931   6.672  10.581   5.949 -0.3074 -0.2098 -0.8976
  894MOL0     C17932   6.801  10.555   5.984 -0.5588 -0.1399 -0.5344
  894MOL0     C17933   6.833  10.468   6.086  1.3511 -0.5121 -0.5856
  894MOL0     O17934   6.964  10.452   6.125  0.3619 -0.3828 -0.1757
  894MOL0     C17935   6.995  10.514   6.249 -0.0081 -0.8182 -0.2719
  894MOL0     C17936   7.100  10.625   6.227 -0.4954  0.2145  0.4149
  894MOL0     C17937   7.237  10.578   6.170  0.6330 -0.0081  0.1049
  894MOL0     C17938   7.338  10.690   6.152 -0.1842 -0.8096  0.3794
  894MOL0     C17939   7.392  10.735   6.288  0.0120 -0.3357  0.3577
  894MOL0     C17940   7.433  10.765   6.402  0.5275  0.4672  0.0145
  894MOL0     C17941   6.728  10.404   6.153  0.9274  1.4770  0.5061
  894MOL0     C17942   6.597  10.427   6.117 -1.0494  0.1402 -0.9432
  894MOL0     H17943   6.166  10.313   5.975  0.9863  1.5009 -1.7516
  894MOL0     H17944   5.918  10.351   5.940  1.8873 -0.2445 -2.2988
  894MOL0     H17945   5.801  10.766   5.890  0.6224 -0.0328 -0.0187
  894MOL0     H17946   5.714  10.755   6.044  0.7497 -0.7326  0.7506
  894MOL0     H17947   5.534  10.754   5.886 -1.6716 -1.5752 -2.1595
  894MOL0     H17948   5.550  10.597   5.945 -1.2379  1.1758 -0.7260
  894MOL0     H17949   5.669  10.547   5.741  0.4614  0.0969  4.1661
  894MOL0     H17950   5.645  10.726   5.703  1.0782  1.1087  3.0628
  894MOL0     H17951   5.433  10.514   5.730  1.6398 -0.2519  0.0615
  894MOL0     H17952   5.408  10.696   5.717  0.0814 -0.0402  2.4941
  894MOL0     H17953   5.537  10.503   5.511 -0.7501  0.9274 -4.2075
  894MOL0     H17954   5.531  10.677   5.505  2.3512 -0.0118  1.0673
  894MOL0     H17955   5.374  10.561   5.350  1.7149  2.0137  0.3498
  894MOL0     H17956   5.306  10.673   5.448  2.2856  0.0957  0.8969
  894MOL0     H17957   5.285  10.373   5.484  2.4503  1.3286 -0.0938
  894MOL0     H17958   5.199  10.482   5.593 -0.1358  1.5686  0.3916
  894MOL0     H17959   5.127  10.478   5.294 -0.2181  1.3623  0.3212
  894MOL0     H17960   5.078  10.596   5.425  1.1224  0.0978 -0.6251
  894MOL0     H17961   4.978  10.299   5.252  0.8665  1.3903  0.1999
  894MOL0     H17962   4.817  10.023   5.467 -0.2891  0.3002  0.2612
  894MOL0     H17963   4.796  10.077   5.301  3.0989  0.9955 -0.1919
  894MOL0     H17964   4.571  10.098   5.362  0.7277  1.3175 -0.2367
  894MOL0     H17965   4.615  10.245   5.426 -0.0080  0.8440  1.0343
  894MOL0     H17966   4.589   9.981   5.586  3.2702  0.4915  1.9314
  894MOL0     H17967   4.668  10.120   5.644  1.5088 -2.0229 -0.6205
  894MOL0     H17968   4.423  10.220   5.547 -1.6133 -0.6354 -0.0122
  894MOL0     H17969   4.454  10.176   5.719 -1.4258  1.0234 -0.2870
  894MOL0     H17970   4.224  10.296   5.622 -2.7822  1.8755 -1.5334
  894MOL0     H17971   4.021  10.322   5.571 -1.6523 -1.3838  0.3295
  894MOL0     H17972   3.611  10.267   5.355  1.0102  0.8467 -0.2916
  894MOL0     H17973   3.375  10.313   5.362  1.3584  1.0111  0.5340
  894MOL0     H17974   3.114  10.269   5.444  1.2177 -1.7902  3.2669
  894MOL0     H17975   3.188  10.421   5.383  0.3947 -3.7750 -1.0099
  894MOL0     H17976   3.023  10.526   5.576 -1.7185 -1.7290  2.2763
  894MOL0     H17977   2.960  10.369   5.565  2.7268 -0.9675  1.2159
  894MOL0     H17978   2.950  10.395   5.303  2.9072 -0.7937 -0.2619
  894MOL0     H17979   3.003  10.553   5.316 -1.0666  0.5427  0.2624
  894MOL0     H17980   2.742  10.473   5.424  2.4202 -3.8250 -1.0843
  894MOL0     H17981   2.811  10.645   5.454 -3.5575  1.8485 -2.9426
  894MOL0     H17982   2.774  10.510   5.202 -2.1418 -0.4132  1.4754
  894MOL0     H17983   2.804  10.685   5.234 -3.0519  2.1989  1.4411
  894MOL0     H17984   2.600  10.735   5.284 -0.6328 -0.5578  1.3248
  894MOL0     H17985   2.561  10.563   5.337  0.6886  1.7254  1.4104
  894MOL0     H17986   2.468  10.691   5.122 -0.7419  0.0202 -0.5808
  894MOL0     H17987   2.625  10.646   5.046 -0.4593  1.0388 -0.0604
  894MOL0     H17988   2.567  10.405   5.076  0.4876  0.5683  2.4179
  894MOL0     H17989   2.462  10.486   4.968 -1.2874  4.5816 -0.4015
  894MOL0     H17990   3.416  10.429   5.773  1.5351  2.9274 -0.1785
  894MOL0     H17991   3.665  10.378   5.758  4.1528 -0.3589 -2.5368
  894MOL0     H17992   3.920   9.924   5.655 -1.1955  1.6453  0.3309
  894MOL0     H17993   4.167   9.862   5.656 -0.3635 -0.2864  1.1218
  894MOL0     H17994   5.960  10.758   6.067  1.3571 -0.0905  0.7135
  894MOL0     H17995   6.210  10.718   6.089 -1.0443  1.0972  1.8115
  894MOL0     H17996   6.650  10.665   5.883 -0.0308  2.1553  1.8030
  894MOL0     H17997   6.887  10.608   5.943  0.1527  0.4763  1.6340
  894MOL0     H17998   7.038  10.431   6.307 -0.6267 -0.7028  0.3704
  894MOL0     H17999   6.906  10.563   6.291 -0.5010  1.6231 -3.7637
  894MOL0     H18000   7.049  10.689   6.154 -0.2822  1.2976  1.1937
  894MOL0     H18001   7.111  10.668   6.327  0.0736  1.4968 -0.1684
  894MOL0     H18002   7.222  10.524   6.076 -0.9342 -0.5631  0.6326
  894MOL0     H18003   7.267  10.502   6.243 -3.1485 -1.7699  0.0866
  894MOL0     H18004   7.428  10.647   6.107  0.5869  1.6809 -0.6628
  894MOL0     H18005   7.302  10.771   6.088 -0.0865 -2.6600 -2.1452
  894MOL0     H18006   7.455  10.772   6.506  3.8945 -2.2825 -0.3605
  894MOL0     H18007   6.758  10.327   6.223 -0.8003 -1.1430 -1.4596
  894MOL0     H18008   6.530  10.374   6.183  1.2253 -0.9981  0.6118
  895MOL0     O18009   1.586   8.101   1.540 -0.5468 -0.2191 -0.2752
  895MOL0     C18010   1.567   8.218   1.577 -0.0593 -0.8035 -0.4509
  895MOL0     O18011   1.641   8.332   1.542 -0.4520  0.6264  0.1773
  895MOL0     C18012   1.727   8.332   1.434  1.1691 -0.0631 -0.4971
  895MOL0     C18013   1.700   8.270   1.311  0.7606 -0.7725 -1.4364
  895MOL0     C18014   1.799   8.279   1.208  0.1547 -0.2767 -0.8311
  895MOL0     C18015   1.915   8.356   1.229  0.1572  0.3012  1.1116
  895MOL0     O18016   2.012   8.373   1.132 -0.1966 -0.2839 -0.1083
  895MOL0     C18017   2.005   8.313   1.001 -0.3376 -0.1812 -0.2222
  895MOL0     C18018   2.144   8.326   0.947  0.8756  0.1203  0.5867
  895MOL0     C18019   2.243   8.225   1.016  0.8343 -0.5510 -0.7108
  895MOL0     C18020   2.382   8.224   0.950  0.7045 -0.1518  0.2698
  895MOL0     C18021   2.483   8.148   1.031 -0.2779 -0.9788 -0.1584
  895MOL0     C18022   2.467   7.991   1.034 -0.7121 -0.5853 -0.1814
  895MOL0     C18023   2.381   7.946   1.156  0.4762  0.0323 -0.3097
  895MOL0     C18024   2.472   7.935   1.275 -0.2364 -1.4667 -0.6287
  895MOL0     N18025   2.417   7.903   1.411  0.5828 -0.1550  0.5841
  895MOL0     C18026   2.338   7.802   1.443 -0.0391  0.7590 -0.2839
  895MOL0     C18027   2.331   7.797   1.578  0.1227 -0.6752  0.5450
  895MOL0     C18028   2.267   7.678   1.645  0.0941  0.4390  0.1119
  895MOL0     C18029   2.117   7.686   1.627  0.2466  0.3491 -0.4867
  895MOL0     C18030   2.049   7.553   1.662 -0.7077 -0.2415  0.4850
  895MOL0     C18031   1.889   7.584   1.680  0.4853  0.0540  0.6174
  895MOL0     O18032   1.830   7.603   1.541  0.2184 -0.5152  0.0996
  895MOL0     C18033   1.713   7.674   1.536  0.4956  0.4270  0.2672
  895MOL0     C18034   1.602   7.654   1.625  0.4346 -0.0088 -0.0241
  895MOL0     C18035   1.475   7.702   1.605 -0.8304  0.1061 -0.1578
  895MOL0     C18036   1.455   7.793   1.492  1.0398  0.3466  0.2067
  895MOL0     C18037   1.315   7.852   1.471  0.2272  0.5370 -0.2746
  895MOL0     O18038   1.294   7.931   1.358 -0.4246  0.4261 -0.0341
  895MOL0     C18039   1.181   8.018   1.357 -0.1269  1.0344 -0.8047
  895MOL0     C18040   1.042   7.965   1.339 -0.2383  0.5424 -0.3309
  895MOL0     C18041   0.936   8.054   1.345 -0.1699  0.1835  0.3572
  895MOL0     C18042   0.945   8.191   1.361  0.1107 -0.2923  0.1783
  895MOL0     O18043   0.833   8.267   1.362  0.1767  0.0798  0.8091
  895MOL0     C18044   0.835   8.408   1.361  1.1486  0.4457 -0.7142
  895MOL0     C18045   0.711   8.464   1.291 -0.2346 -0.5283 -0.0082
  895MOL0     C18046   0.587   8.439   1.377 -0.9532 -0.5200  0.5323
  895MOL0     C18047   0.465   8.470   1.303  0.4745 -0.5877 -0.1091
  895MOL0     C18048   0.329   8.469   1.385  0.5342 -0.0314 -0.0323
  895MOL0     C18049   0.265   8.334   1.370  0.4852  0.6307 -1.0318
  895MOL0     C18050   0.138   8.310   1.442 -0.5035 -1.3134  0.4939
  895MOL0     C18051   0.080   8.175   1.432  0.0719 -0.0126 -0.0812
  895MOL0    Cl18052   0.049   8.131   1.262 -0.2133 -0.2527  0.1442
  895MOL0     C18053   1.073   8.239   1.399 -0.4178 -0.1721  0.0676
  895MOL0     C18054   1.191   8.153   1.399  0.5969 -1.1420 -0.5935
  895MOL0     O18055   1.230   7.836   1.560 -0.0994 -0.7908  0.1357
  895MOL0     C18056   1.559   7.805   1.408  0.2425 -0.3680 -0.4337
  895MOL0     C18057   1.687   7.748   1.424 -1.3122 -0.0744  0.0295
  895MOL0     N18058   2.412   7.899   1.631  0.3728  0.1675  0.6342
  895MOL0     N18059   2.466   7.954   1.527  0.2635 -0.3491 -0.5558
  895MOL0     C18060   1.943   8.419   1.353 -0.0593 -1.0139  0.6125
  895MOL0     C18061   1.843   8.406   1.449 -0.2744  0.5881  0.4219
  895MOL0     C18062   1.447   8.245   1.656 -0.7942 -0.3678  0.1955
  895MOL0     C18063   1.385   8.142   1.723 -0.5448 -0.6902  0.5643
  895MOL0     C18064   1.256   8.155   1.769  0.1623  0.1490  1.3030
  895MOL0     C18065   1.197   8.282   1.758 -0.2934 -0.9426  0.2012
  895MOL0     O18066   1.078   8.317   1.813 -0.5503 -0.5511 -0.3431
  895MOL0     C18067   0.977   8.219   1.861  0.6801 -0.9584 -0.1684
  895MOL0     C18068   0.893   8.148   1.751 -0.0597 -0.7237 -0.0454
  895MOL0     C18069   0.810   8.257   1.679  0.6464  0.1042  0.2346
  895MOL0     C18070   0.687   8.314   1.752  0.0443 -0.7776 -0.5350
  895MOL0     C18071   0.595   8.223   1.823  0.0951  0.0803  0.6284
  895MOL0     C18072   0.526   8.146   1.880 -0.0692  0.5020  0.0143
  895MOL0     C18073   1.271   8.392   1.710 -0.5994 -0.3923 -0.5799
  895MOL0     C18074   1.395   8.372   1.655  0.7262 -0.3514 -0.1065
  895MOL0     H18075   1.610   8.215   1.286 -2.1974  3.4152 -1.0791
  895MOL0     H18076   1.789   8.225   1.114  0.7400  0.0484 -1.0894
  895MOL0     H18077   1.934   8.368   0.939  1.4484  4.1198  1.1309
  895MOL0     H18078   1.972   8.209   1.007 -1.9769  0.2624 -0.9983
  895MOL0     H18079   2.173   8.431   0.939 -1.4452  0.6706 -2.0909
  895MOL0     H18080   2.124   8.306   0.841 -3.5161  2.6716  0.6606
  895MOL0     H18081   2.188   8.131   1.009 -1.6248  0.8065 -0.8587
  895MOL0     H18082   2.243   8.256   1.121 -0.4516  1.6599 -1.2989
  895MOL0     H18083   2.368   8.180   0.850 -1.7261  0.5416  0.2242
  895MOL0     H18084   2.409   8.329   0.940  1.4407 -0.4625 -1.5223
  895MOL0     H18085   2.508   8.194   1.127  2.2310  0.4489 -1.4026
  895MOL0     H18086   2.580   8.159   0.982  0.7072  1.9699  2.1535
  895MOL0     H18087   2.569   7.952   1.032 -0.6846 -0.5701  0.5135
  895MOL0     H18088   2.427   7.955   0.939  2.0981  1.0991 -2.1375
  895MOL0     H18089   2.305   8.023   1.172 -0.0066 -0.9248  2.3968
  895MOL0     H18090   2.340   7.848   1.129  1.7294 -0.6955  0.3235
  895MOL0     H18091   2.518   8.034   1.287  0.4620 -1.7826 -0.6643
  895MOL0     H18092   2.556   7.867   1.255  2.8171  0.5896  3.6957
  895MOL0     H18093   2.307   7.725   1.373 -1.7984  0.0545  1.1848
  895MOL0     H18094   2.294   7.685   1.751 -0.4376 -0.6765  0.3366
  895MOL0     H18095   2.308   7.590   1.594  0.7904  0.9559 -0.2436
  895MOL0     H18096   2.075   7.705   1.527  0.1442 -2.8864 -1.1705
  895MOL0     H18097   2.077   7.764   1.692  3.1760 -1.6450  4.2424
  895MOL0     H18098   2.064   7.482   1.580 -1.9508  1.1768 -1.0413
  895MOL0     H18099   2.088   7.521   1.759 -1.6850 -0.6723  0.7439
  895MOL0     H18100   1.873   7.673   1.742  2.7082 -0.3307  1.8538
  895MOL0     H18101   1.835   7.499   1.722 -0.4953  0.9273  1.1805
  895MOL0     H18102   1.611   7.596   1.717  1.3592 -0.4447 -0.3760
  895MOL0     H18103   1.385   7.669   1.655 -1.0927 -0.0294 -0.7173
  895MOL0     H18104   1.019   7.866   1.300 -0.7930 -0.2537  1.8888
  895MOL0     H18105   0.835   8.013   1.336 -1.1619  0.9897  5.2809
  895MOL0     H18106   0.928   8.439   1.312  3.2811 -1.9681  1.4855
  895MOL0     H18107   0.839   8.441   1.465  2.1744  1.4912 -1.0575
  895MOL0     H18108   0.695   8.406   1.199 -1.2546  1.0927 -0.8987
  895MOL0     H18109   0.718   8.571   1.274 -0.6045 -0.4234  0.4730
  895MOL0     H18110   0.591   8.502   1.467 -1.4914 -0.3688  0.4538
  895MOL0     H18111   0.590   8.337   1.418  0.4203  0.2692  2.5545
  895MOL0     H18112   0.478   8.573   1.269  0.2620 -0.1535  1.0898
  895MOL0     H18113   0.454   8.401   1.218  0.9265 -1.9901  0.9294
  895MOL0     H18114   0.269   8.536   1.322 -0.5278 -3.5438 -3.0610
  895MOL0     H18115   0.331   8.505   1.488 -3.3139  2.6259 -0.6745
  895MOL0     H18116   0.325   8.255   1.417 -0.2164  0.2744 -0.7270
  895MOL0     H18117   0.237   8.313   1.266 -2.5711  1.3698 -0.4618
  895MOL0     H18118   0.154   8.333   1.548  1.0907  0.4223 -0.0739
  895MOL0     H18119   0.062   8.379   1.405 -0.6118 -1.5518  0.2728
  895MOL0     H18120  -0.012   8.167   1.491  0.7329  2.2121  1.3764
  895MOL0     H18121   0.158   8.110   1.474 -1.4854  0.4366  4.0292
  895MOL0     H18122   1.087   8.345   1.417 -2.3061  0.0109  0.7116
  895MOL0     H18123   1.288   8.195   1.424 -0.5449  2.5885 -1.7692
  895MOL0     H18124   1.538   7.854   1.313 -0.5773  2.4179  1.0618
  895MOL0     H18125   1.761   7.771   1.349 -2.6996  2.4370 -0.6791
  895MOL0     H18126   2.033   8.473   1.380 -0.0373 -0.1578 -1.0516
  895MOL0     H18127   1.859   8.454   1.545  0.5001 -0.1588  0.6787
  895MOL0     H18128   1.439   8.048   1.727  1.3024  0.1861 -1.6246
  895MOL0     H18129   1.213   8.061   1.798  3.4029 -1.8657  0.1664
  895MOL0     H18130   0.908   8.281   1.920  1.3698 -0.2696 -0.0717
  895MOL0     H18131   1.018   8.135   1.917  2.1842 -0.5853 -0.6842
  895MOL0     H18132   0.967   8.099   1.686 -1.9493 -1.0199 -2.0833
  895MOL0     H18133   0.826   8.074   1.796  2.3797 -2.0020  1.6985
  895MOL0     H18134   0.769   8.220   1.585  0.5807  1.2075 -0.1871
  895MOL0     H18135   0.881   8.337   1.655 -0.6488  1.4946  0.8919
  895MOL0     H18136   0.731   8.375   1.832  1.6859  0.0921 -2.0396
  895MOL0     H18137   0.633   8.387   1.691  0.1596 -0.6584 -0.4948
  895MOL0     H18138   0.451   8.086   1.928 -1.0249  0.8167 -1.0593
  895MOL0     H18139   1.236   8.495   1.706 -0.2870 -0.1883  1.2271
  895MOL0     H18140   1.450   8.457   1.616  1.5064 -0.6234  0.3596
  896MOL0     O18141   3.305   0.194   2.459 -0.2971 -0.4122 -0.8388
  896MOL0     C18142   3.283   0.142   2.571 -0.3460 -0.1720  0.6447
  896MOL0     O18143   3.158   0.110   2.622 -0.5767  0.3899 -0.0446
  896MOL0     C18144   3.045   0.111   2.545  1.0753 -0.1492  0.6563
  896MOL0     C18145   2.930   0.153   2.605  0.6076 -0.2524 -1.1741
  896MOL0     C18146   2.815   0.174   2.537  0.0444 -0.4998  0.3023
  896MOL0     C18147   2.811   0.151   2.400  0.4449 -0.0767 -0.1508
  896MOL0     O18148   2.688   0.157   2.337 -0.1934 -0.3899  0.3065
  896MOL0     C18149   2.697   0.192   2.197 -0.0045  0.1318  0.4010
  896MOL0     C18150   2.558   0.213   2.146  0.4176  0.8477 -0.0409
  896MOL0     C18151   2.561   0.285   2.008  0.4622  0.5747  0.4647
  896MOL0     C18152   2.416   0.322   1.971  1.2497 -0.0161  0.4977
  896MOL0     C18153   2.387   0.396   1.829 -0.0119  0.3398 -0.2782
  896MOL0     C18154   2.442   0.540   1.833 -1.2538  0.5680 -1.3003
  896MOL0     C18155   2.388   0.612   1.714  0.3035 -0.1900  0.0116
  896MOL0     C18156   2.417   0.764   1.701 -0.3146 -0.1571  0.6112
  896MOL0     N18157   2.327   0.837   1.784  0.2311  0.3179 -0.1932
  896MOL0     C18158   2.338   0.861   1.916  0.4360 -0.1995  0.0306
  896MOL0     C18159   2.229   0.932   1.951 -0.2818  0.4621  1.0350
  896MOL0     C18160   2.184   0.988   2.080 -0.3115 -0.4598  0.0700
  896MOL0     C18161   2.285   1.087   2.142 -0.0099  0.6667  0.0611
  896MOL0     C18162   2.337   1.197   2.051 -0.5589  0.0586  0.3749
  896MOL0     C18163   2.222   1.266   1.977  0.2551 -0.4239  0.3287
  896MOL0     O18164   2.269   1.390   1.934  0.3196 -1.1222  0.4069
  896MOL0     C18165   2.358   1.392   1.828 -0.2463 -0.2596  0.0723
  896MOL0     C18166   2.421   1.511   1.793  1.0185 -1.1343  0.4240
  896MOL0     C18167   2.511   1.522   1.688  0.1392 -0.2096  0.3078
  896MOL0     C18168   2.556   1.410   1.620  0.2383  0.5458  0.4077
  896MOL0     C18169   2.650   1.410   1.498  0.2255 -0.3684 -0.0090
  896MOL0     O18170   2.628   1.341   1.389  0.0635  0.2476  0.2913
  896MOL0     C18171   2.672   1.389   1.267  0.0531  0.4163 -0.2626
  896MOL0     C18172   2.649   1.517   1.229  0.9135  0.1080  0.8118
  896MOL0     C18173   2.683   1.558   1.098  0.2748 -1.1081 -0.5198
  896MOL0     C18174   2.753   1.468   1.011  0.7155  0.8112 -0.2186
  896MOL0     O18175   2.785   1.521   0.886 -0.0913 -0.3443 -0.5019
  896MOL0     C18176   2.918   1.485   0.837  0.5476 -0.1711  0.1772
  896MOL0     C18177   3.019   1.591   0.894  0.3784  0.2959 -0.6116
  896MOL0     C18178   3.137   1.620   0.807 -0.1056  0.3134  0.1000
  896MOL0     C18179   3.271   1.542   0.833 -0.8560 -0.9427  0.5939
  896MOL0     C18180   3.376   1.595   0.725 -0.2286  0.8193 -0.8134
  896MOL0     C18181   3.475   1.702   0.780  0.4301 -0.4038 -0.4079
  896MOL0     C18182   3.585   1.639   0.869 -0.3755  0.7418 -0.6250
  896MOL0     C18183   3.709   1.587   0.787  0.9047  0.7855 -0.2385
  896MOL0    Cl18184   3.781   1.717   0.696  0.4134  0.3394 -0.0089
  896MOL0     C18185   2.783   1.337   1.050 -0.4090  0.2560 -0.0599
  896MOL0     C18186   2.739   1.296   1.174  0.4621  1.0237  0.4595
  896MOL0     O18187   2.750   1.481   1.520  0.0054 -0.1299  0.2205
  896MOL0     C18188   2.491   1.288   1.651 -0.1271 -0.2640 -0.3731
  896MOL0     C18189   2.394   1.284   1.749 -0.8280  0.3720  0.2397
  896MOL0     N18190   2.162   0.958   1.830  0.4522  0.3164  0.7112
  896MOL0     N18191   2.228   0.915   1.725  1.6363 -0.1578 -0.2319
  896MOL0     C18192   2.926   0.101   2.335  0.2918 -0.2857  0.8939
  896MOL0     C18193   3.042   0.087   2.409 -1.0140 -0.2094  0.8013
  896MOL0     C18194   3.404   0.093   2.644 -0.6327  0.6986 -0.2374
  896MOL0     C18195   3.524   0.084   2.579  0.2480  0.8493  0.0045
  896MOL0     C18196   3.640   0.040   2.646  0.3133 -0.4096  0.2889
  896MOL0     C18197   3.641   0.020   2.777  0.6719  0.4895  0.0611
  896MOL0     O18198   3.756  -0.023   2.826 -0.7029  1.1035 -0.2525
  896MOL0     C18199   3.767  -0.076   2.958  0.0519  0.6178 -0.0903
  896MOL0     C18200   3.907  -0.132   2.984  0.6562  0.2095  0.7042
  896MOL0     C18201   3.946  -0.251   2.889 -0.1259  0.9400 -1.0497
  896MOL0     C18202   4.087  -0.303   2.919 -0.1326 -0.4047  0.1308
  896MOL0     C18203   4.195  -0.207   2.891  0.3878 -0.6622  0.9316
  896MOL0     C18204   4.278  -0.118   2.884 -0.6410  0.6011 -0.2151
  896MOL0     C18205   3.523   0.026   2.839 -0.6141  0.0668 -0.1009
  896MOL0     C18206   3.406   0.051   2.771  0.5771 -0.1924 -0.3899
  896MOL0     H18207   2.940   0.180   2.710  2.4566 -0.2772 -1.3026
  896MOL0     H18208   2.729   0.216   2.588  1.6029  1.2784  1.5957
  896MOL0     H18209   2.735   0.108   2.138 -1.8694 -0.7682  0.4018
  896MOL0     H18210   2.757   0.282   2.185  0.6745 -0.4551 -0.8143
  896MOL0     H18211   2.498   0.267   2.220 -1.0163  1.4794 -1.6090
  896MOL0     H18212   2.506   0.118   2.135  1.3128  0.1387  1.5375
  896MOL0     H18213   2.609   0.229   1.927 -1.9954  0.1081 -0.7539
  896MOL0     H18214   2.626   0.370   2.027 -0.1154  1.1995 -0.2794
  896MOL0     H18215   2.361   0.227   1.973  3.1200 -1.1661 -0.3167
  896MOL0     H18216   2.367   0.376   2.053  0.7403  1.8104 -0.9325
  896MOL0     H18217   2.277   0.400   1.830 -0.1190 -1.7221  0.2600
  896MOL0     H18218   2.417   0.339   1.740  0.4389 -0.6613  0.5063
  896MOL0     H18219   2.550   0.527   1.824 -1.3594 -1.9780  0.1746
  896MOL0     H18220   2.417   0.580   1.932  1.9625 -2.0532  0.8137
  896MOL0     H18221   2.434   0.565   1.626  0.7289  0.2417  0.0009
  896MOL0     H18222   2.281   0.590   1.706  1.0936 -4.9693 -0.3326
  896MOL0     H18223   2.400   0.806   1.601 -1.2380 -0.1413  0.7641
  896MOL0     H18224   2.522   0.783   1.723 -0.7365  2.3843  0.7574
  896MOL0     H18225   2.422   0.831   1.978  0.2305 -0.8367  0.0159
  896MOL0     H18226   2.154   0.914   2.155  2.1580 -1.5536  0.0696
  896MOL0     H18227   2.096   1.052   2.064  0.5691  0.6658 -0.4368
  896MOL0     H18228   2.373   1.026   2.166 -0.4693 -1.1547 -2.5829
  896MOL0     H18229   2.239   1.123   2.235  0.6799 -2.3363  1.6911
  896MOL0     H18230   2.397   1.268   2.108  0.6618 -0.1730 -0.5772
  896MOL0     H18231   2.411   1.153   1.983  0.0543  0.6126  0.6717
  896MOL0     H18232   2.136   1.273   2.044  1.9964  1.2835  2.5968
  896MOL0     H18233   2.195   1.208   1.888 -2.1400 -1.7313  1.7921
  896MOL0     H18234   2.394   1.592   1.861 -4.2869 -2.6500  0.6030
  896MOL0     H18235   2.548   1.618   1.653 -0.3293 -0.6912 -1.6521
  896MOL0     H18236   2.596   1.581   1.298 -3.1079 -1.5258 -0.4560
  896MOL0     H18237   2.647   1.656   1.068 -1.9279 -2.1767 -1.6020
  896MOL0     H18238   2.907   1.477   0.728 -3.9488 -1.0069  0.5258
  896MOL0     H18239   2.963   1.389   0.865  2.0496  1.5712  4.6036
  896MOL0     H18240   3.036   1.556   0.996 -2.2525  2.0607  0.5401
  896MOL0     H18241   2.962   1.684   0.902  2.8076  1.8711 -0.5101
  896MOL0     H18242   3.160   1.726   0.795 -0.3116  0.1936 -1.4960
  896MOL0     H18243   3.116   1.601   0.701  0.4237 -2.2820  0.3914
  896MOL0     H18244   3.309   1.565   0.933 -5.2748  2.0472  1.8999
  896MOL0     H18245   3.255   1.434   0.841  1.0359 -1.1446  2.8561
  896MOL0     H18246   3.328   1.634   0.635  2.8121  1.7768 -2.1727
  896MOL0     H18247   3.435   1.505   0.706  0.1603  0.0733  3.1524
  896MOL0     H18248   3.422   1.784   0.829 -1.0913 -1.8601  0.4663
  896MOL0     H18249   3.530   1.748   0.698  1.8614  1.1280  1.3128
  896MOL0     H18250   3.621   1.723   0.927  0.1945  1.8102 -2.4610
  896MOL0     H18251   3.544   1.567   0.942 -1.3920  2.5290  0.6394
  896MOL0     H18252   3.690   1.511   0.711  0.8877  0.3007  0.2429
  896MOL0     H18253   3.780   1.553   0.864  0.1854 -3.6204 -1.2617
  896MOL0     H18254   2.847   1.263   1.005 -3.0480 -4.0942  2.5976
  896MOL0     H18255   2.763   1.194   1.205 -0.4399  1.2318  1.9510
  896MOL0     H18256   2.520   1.198   1.598  1.3543  1.0029 -1.8394
  896MOL0     H18257   2.348   1.186   1.757 -1.2072  0.4826 -0.5267
  896MOL0     H18258   2.937   0.076   2.230  0.3737  0.9015  0.6109
  896MOL0     H18259   3.134   0.039   2.378 -0.5685  0.7379  0.6268
  896MOL0     H18260   3.535   0.111   2.474 -0.0483 -2.4795 -1.0258
  896MOL0     H18261   3.737   0.042   2.597 -0.7436 -2.6893 -2.1422
  896MOL0     H18262   3.699  -0.156   2.989  1.5060 -0.0806  1.5209
  896MOL0     H18263   3.759   0.008   3.028  0.3339  2.0608 -1.7270
  896MOL0     H18264   3.971  -0.052   2.944  2.3487 -1.7844 -0.8393
  896MOL0     H18265   3.917  -0.151   3.091 -0.2393 -1.9283  0.4562
  896MOL0     H18266   3.945  -0.224   2.783  1.6419  1.1154 -1.0534
  896MOL0     H18267   3.876  -0.335   2.902 -2.1334  2.3505 -2.1518
  896MOL0     H18268   4.094  -0.346   3.020 -3.4466 -1.6389 -0.0544
  896MOL0     H18269   4.104  -0.390   2.854  0.5992  0.3899 -0.7702
  896MOL0     H18270   4.367  -0.061   2.897 -1.2204  1.6790 -0.8559
  896MOL0     H18271   3.518   0.008   2.946  1.3505 -0.0854 -0.0058
  896MOL0     H18272   3.323   0.056   2.841  3.6818  3.3937  3.6198
  897MOL0     O18273   3.158   2.907  10.801  0.5632  0.4347  0.0591
  897MOL0     C18274   3.137   3.022  10.834  0.5587  0.3597  0.2496
  897MOL0     O18275   3.016   3.089  10.833 -0.6515 -0.1042 -0.0340
  897MOL0     C18276   2.906   3.020  10.777 -1.0962 -0.0626 -1.0486
  897MOL0     C18277   2.795   2.997  10.856 -0.1210 -0.4672  0.8563
  897MOL0     C18278   2.693   2.918  10.803 -0.1571 -0.0218  1.1675
  897MOL0     C18279   2.697   2.868  10.674 -0.0835 -0.2956  0.3323
  897MOL0     O18280   2.602   2.783  10.619 -0.3989 -0.1540 -0.6409
  897MOL0     C18281   2.470   2.811  10.680  0.9186 -0.0610  0.2701
  897MOL0     C18282   2.365   2.731  10.598  0.3833 -0.0670 -0.2379
  897MOL0     C18283   2.221   2.762  10.660  0.5099  0.0882 -0.2738
  897MOL0     C18284   2.120   2.703  10.564  0.8149  0.0541 -0.1924
  897MOL0     C18285   1.984   2.739  10.634 -0.3113 -0.4314  0.5297
  897MOL0     C18286   1.867   2.650  10.590  0.4969  0.4015  0.6277
  897MOL0     C18287   1.840   2.653  10.438 -0.0080  0.0818 -0.2556
  897MOL0     C18288   1.794   2.795  10.394 -0.7750 -0.1165 -0.2672
  897MOL0     N18289   1.755   2.808  10.256  0.1894  0.4448  0.3658
  897MOL0     C18290   1.638   2.746  10.217 -0.1616 -0.7898 -0.7098
  897MOL0     C18291   1.633   2.773  10.083 -0.2411  0.3724 -1.1602
  897MOL0     C18292   1.512   2.745   9.999 -1.3010  0.5655  0.2375
  897MOL0     C18293   1.434   2.612  10.028 -0.1205  0.1066  0.7842
  897MOL0     C18294   1.359   2.568   9.895  0.4673  0.8236 -0.1336
  897MOL0     C18295   1.238   2.469   9.927 -0.6921  0.3284  0.3053
  897MOL0     O18296   1.281   2.350   9.996 -0.2348 -0.6633  0.2735
  897MOL0     C18297   1.367   2.274   9.929  0.1150 -0.2834 -0.3175
  897MOL0     C18298   1.438   2.182  10.022  1.0003  0.3546  0.3299
  897MOL0     C18299   1.523   2.091   9.966  0.1216 -0.4874  0.6099
  897MOL0     C18300   1.529   2.073   9.823  0.0384  0.7021  1.1561
  897MOL0     C18301   1.633   1.990   9.761 -0.2923  0.7418 -0.7005
  897MOL0     O18302   1.703   1.909   9.846  0.0590  0.3002 -0.0787
  897MOL0     C18303   1.836   1.879   9.811 -0.3894 -0.3645 -0.6389
  897MOL0     C18304   1.929   1.981   9.777  0.1810  0.4218 -1.0738
  897MOL0     C18305   2.058   1.953   9.735 -0.3994  0.5228  0.1372
  897MOL0     C18306   2.107   1.818   9.745 -0.1826 -0.2426  0.0301
  897MOL0     O18307   2.228   1.783   9.694 -0.0602 -1.1465  0.5894
  897MOL0     C18308   2.319   1.740   9.791 -0.6517 -0.2650 -0.6132
  897MOL0     C18309   2.371   1.859   9.877 -0.4348  0.2170 -0.6691
  897MOL0     C18310   2.495   1.840   9.967 -0.2996  0.3320 -0.6594
  897MOL0     C18311   2.627   1.841   9.889 -0.4595  0.9014 -0.0369
  897MOL0     C18312   2.758   1.870   9.976  0.1015 -0.3760  0.6572
  897MOL0     C18313   2.853   1.917   9.877 -0.8299  0.1606  0.3149
  897MOL0     C18314   2.995   1.949   9.932  0.1844  0.3287 -0.4729
  897MOL0     C18315   3.102   1.955   9.821 -0.1615  0.2578  0.4132
  897MOL0    Cl18316   3.259   2.017   9.892 -0.3511  0.4442 -0.1633
  897MOL0     C18317   2.019   1.717   9.793 -0.1248  0.1304  0.2129
  897MOL0     C18318   1.880   1.745   9.824 -0.6402 -0.3084  0.1750
  897MOL0     O18319   1.664   2.016   9.645 -0.0872 -0.9722 -0.2928
  897MOL0     C18320   1.446   2.154   9.737  0.1586  0.5090  0.6899
  897MOL0     C18321   1.374   2.261   9.784  0.1228  0.4639 -0.4502
  897MOL0     N18322   1.738   2.840  10.050 -0.5109 -0.4847 -0.2535
  897MOL0     N18323   1.809   2.865  10.150  0.8287 -0.8118  0.5003
  897MOL0     C18324   2.802   2.900  10.591 -1.3389  0.0363 -0.0149
  897MOL0     C18325   2.918   2.963  10.639  0.6579 -0.5587 -0.5753
  897MOL0     C18326   3.261   3.097  10.876  0.2078  0.7575 -0.2965
  897MOL0     C18327   3.393   3.044  10.891  0.5675  0.0243  0.2802
  897MOL0     C18328   3.496   3.127  10.938 -0.4203 -0.1080 -0.0959
  897MOL0     C18329   3.474   3.264  10.968  0.4700 -0.4019 -0.1852
  897MOL0     O18330   3.579   3.359  10.981 -0.8124  0.1835 -0.6347
  897MOL0     C18331   3.708   3.339  10.931 -0.3873 -1.0113  0.2527
  897MOL0     C18332   3.746   3.437  10.819  0.0148 -0.4346  1.1832
  897MOL0     C18333   3.897   3.439  10.797  0.2243  0.1532 -0.4901
  897MOL0     C18334   3.955   3.299  10.769 -0.3579 -0.6304  0.4748
  897MOL0     C18335   4.086   3.299  10.714  0.5461  0.3721  0.5240
  897MOL0     C18336   4.198   3.312  10.673 -0.0896 -0.0572  0.0140
  897MOL0     C18337   3.356   3.321  10.937  0.4611 -0.0907  0.2457
  897MOL0     C18338   3.247   3.239  10.900  0.0406 -0.7158  0.2077
  897MOL0     H18339   2.801   3.043  10.954  2.4458 -1.6830  1.3614
  897MOL0     H18340   2.612   2.897  10.872 -3.7235  1.5904 -2.0852
  897MOL0     H18341   2.448   2.918  10.678 -1.8807 -0.5824 -0.3269
  897MOL0     H18342   2.469   2.774  10.784  1.8669  0.2573  0.3975
  897MOL0     H18343   2.368   2.622  10.609 -1.7075 -0.2514 -1.0218
  897MOL0     H18344   2.362   2.756  10.492  1.0448  1.0466 -0.0114
  897MOL0     H18345   2.218   2.870  10.676  0.1633  0.4376 -2.4628
  897MOL0     H18346   2.217   2.712  10.758 -0.4774  1.9306  0.6823
  897MOL0     H18347   2.130   2.754  10.468  0.7086  0.4154 -0.0118
  897MOL0     H18348   2.123   2.595  10.546 -2.0763  0.2019 -2.2692
  897MOL0     H18349   1.961   2.846  10.641  0.8706 -0.2065  1.3547
  897MOL0     H18350   2.007   2.716  10.739  0.2229  1.0934  0.7738
  897MOL0     H18351   1.773   2.669  10.641 -0.3389 -0.8511 -0.3672
  897MOL0     H18352   1.892   2.545  10.610  0.2334  0.3884  0.8918
  897MOL0     H18353   1.930   2.625  10.382 -1.3174 -1.4597 -1.7136
  897MOL0     H18354   1.767   2.577  10.409 -1.8171  1.9533 -0.8555
  897MOL0     H18355   1.872   2.872  10.400 -2.1587  1.4788 -1.5439
  897MOL0     H18356   1.720   2.838  10.462  0.1036  3.2178 -1.1990
  897MOL0     H18357   1.570   2.690  10.280 -1.3447 -0.3661 -1.5778
  897MOL0     H18358   1.536   2.754   9.892 -3.1474 -1.8059 -0.4588
  897MOL0     H18359   1.450   2.835  10.002  0.6383  2.0373 -0.9075
  897MOL0     H18360   1.367   2.622  10.114 -0.4080 -4.5492  1.3380
  897MOL0     H18361   1.514   2.538  10.043  1.8288  1.9384 -0.0816
  897MOL0     H18362   1.313   2.663   9.864  2.0122  1.3676 -0.8682
  897MOL0     H18363   1.423   2.521   9.819  2.1815  1.6275  0.7493
  897MOL0     H18364   1.176   2.436   9.842  0.0111 -3.0978  0.9606
  897MOL0     H18365   1.184   2.518  10.008 -1.0735 -0.3080  0.4400
  897MOL0     H18366   1.414   2.184  10.127  0.3624 -2.6549  0.3465
  897MOL0     H18367   1.582   2.044  10.044 -0.2618 -0.5787  0.8455
  897MOL0     H18368   1.905   2.087   9.774 -0.1124  0.3959 -0.0088
  897MOL0     H18369   2.121   2.028   9.689 -0.1658  1.2174  1.5312
  897MOL0     H18370   2.412   1.700   9.748  0.2404  2.3249 -1.2852
  897MOL0     H18371   2.276   1.662   9.854 -2.3663  0.0818 -1.3022
  897MOL0     H18372   2.289   1.891   9.942  0.8571  0.5730  0.8416
  897MOL0     H18373   2.386   1.941   9.806 -0.4387 -2.3351 -3.8818
  897MOL0     H18374   2.505   1.753  10.032  3.2913 -0.1672 -1.6726
  897MOL0     H18375   2.499   1.923  10.039  1.9985 -1.0671  0.9314
  897MOL0     H18376   2.636   1.759   9.817 -1.4562 -1.2014  2.0845
  897MOL0     H18377   2.619   1.920   9.813 -2.0972  0.8970  0.1076
  897MOL0     H18378   2.793   1.780  10.027  1.6169  2.2162  4.6598
  897MOL0     H18379   2.731   1.942  10.053 -2.4873  1.3166 -1.6216
  897MOL0     H18380   2.818   2.011   9.834  0.0581  0.3609  0.0004
  897MOL0     H18381   2.849   1.839   9.801 -3.9084  0.3293  0.1981
  897MOL0     H18382   2.986   2.043   9.988  0.9490  0.5728 -0.7438
  897MOL0     H18383   3.018   1.872  10.006 -4.3221 -2.6158 -1.7223
  897MOL0     H18384   3.078   2.019   9.736 -0.1286  0.1688  0.3368
  897MOL0     H18385   3.104   1.854   9.779 -0.2733  0.2321  0.4678
  897MOL0     H18386   2.053   1.614   9.791  0.6002  0.3325 -2.8039
  897MOL0     H18387   1.810   1.664   9.843 -1.6519  0.1857 -1.3399
  897MOL0     H18388   1.457   2.151   9.629  0.1730 -1.4930  0.7129
  897MOL0     H18389   1.318   2.331   9.722 -0.2680  1.0938  0.5858
  897MOL0     H18390   2.804   2.856  10.491  3.5301 -0.4871  0.0299
  897MOL0     H18391   3.007   2.990  10.582 -0.3250 -2.5650 -3.2884
  897MOL0     H18392   3.414   2.938  10.878 -3.1158 -0.6560 -1.6589
  897MOL0     H18393   3.596   3.087  10.955 -0.6187 -1.3749 -1.6128
  897MOL0     H18394   3.722   3.237  10.892 -1.8561 -0.3387 -2.2180
  897MOL0     H18395   3.765   3.343  11.025 -1.5006 -1.4383  0.9713
  897MOL0     H18396   3.700   3.397  10.728  0.9840 -1.1623  0.9960
  897MOL0     H18397   3.707   3.533  10.854 -0.2874 -0.8127  1.9143
  897MOL0     H18398   3.946   3.473  10.888  0.3554  1.2299 -0.9568
  897MOL0     H18399   3.919   3.507  10.715  2.9861  1.7125  1.4100
  897MOL0     H18400   3.958   3.239  10.860  0.1346 -1.0060  0.2207
  897MOL0     H18401   3.885   3.251  10.700  0.1282  0.7910 -1.0911
  897MOL0     H18402   4.303   3.316  10.648  0.0050 -2.6134 -0.2637
  897MOL0     H18403   3.340   3.428  10.946 -1.2283 -0.3083  0.2739
  897MOL0     H18404   3.156   3.290  10.868  1.6804  0.9816 -2.0787
  898MOL0     O18405   6.999  11.110   6.092  0.4315 -0.1230  0.4742
  898MOL0     C18406   7.087  11.082   6.171  0.1980 -0.6090  0.5329
  898MOL0     O18407   7.087  10.993   6.272  0.4311  0.1384  0.2923
  898MOL0     C18408   6.979  10.916   6.299  0.6940 -0.8748  0.1439
  898MOL0     C18409   6.958  10.876   6.434 -0.7827 -0.0386 -0.3874
  898MOL0     C18410   6.843  10.814   6.483 -0.4390  0.1713  0.1909
  898MOL0     C18411   6.745  10.795   6.397  0.8153  0.2748  0.6675
  898MOL0     O18412   6.630  10.739   6.452  0.2363  0.5345  0.1506
  898MOL0     C18413   6.516  10.729   6.369 -0.8947 -0.1946 -0.4952
  898MOL0     C18414   6.408  10.653   6.461  0.1238  0.2320 -0.3685
  898MOL0     C18415   6.272  10.661   6.386 -0.9449  0.1135  0.4008
  898MOL0     C18416   6.150  10.622   6.481  0.6337 -0.1653  0.6729
  898MOL0     C18417   6.035  10.615   6.386  1.0112 -0.5671 -0.2019
  898MOL0     C18418   5.911  10.571   6.462 -0.3672  0.3602  0.3005
  898MOL0     C18419   5.799  10.558   6.364 -0.5321  0.3112 -0.9402
  898MOL0     C18420   5.677  10.486   6.424  0.3304  0.7354  0.8342
  898MOL0     N18421   5.548  10.534   6.376 -0.1228 -0.3777 -0.3294
  898MOL0     C18422   5.507  10.557   6.240 -0.0213  0.4871 -0.9096
  898MOL0     C18423   5.396  10.643   6.258  0.4017  0.5057 -0.3062
  898MOL0     C18424   5.324  10.701   6.140 -0.1091 -0.6284  0.2171
  898MOL0     C18425   5.207  10.619   6.085 -0.3776 -0.0911  0.3187
  898MOL0     C18426   5.150  10.663   5.954 -0.0567  0.4882  0.5209
  898MOL0     C18427   5.027  10.742   5.970  0.3868  0.6780  0.3033
  898MOL0     O18428   4.972  10.817   5.862 -0.1819  0.2645 -0.2912
  898MOL0     C18429   4.850  10.778   5.819 -0.1962  1.2879 -0.8223
  898MOL0     C18430   4.821  10.647   5.786 -0.8048  0.3059 -1.0565
  898MOL0     C18431   4.698  10.611   5.734 -0.0027  0.5240 -0.2384
  898MOL0     C18432   4.601  10.703   5.708 -0.2516  0.3478  0.0792
  898MOL0     C18433   4.468  10.658   5.653 -1.1012  0.1356  0.3620
  898MOL0     O18434   4.381  10.759   5.633  1.0687  0.0287 -0.2401
  898MOL0     C18435   4.259  10.738   5.570  0.4597 -0.2996  0.7375
  898MOL0     C18436   4.213  10.838   5.493  0.0403 -0.1217 -0.7116
  898MOL0     C18437   4.090  10.819   5.428 -0.3040 -0.2046  0.1373
  898MOL0     C18438   4.013  10.707   5.440 -0.6169  0.3228 -0.5371
  898MOL0     O18439   3.894  10.690   5.374 -0.6402 -0.7008  0.5837
  898MOL0     C18440   3.882  10.752   5.239  0.6944  0.5426 -0.1874
  898MOL0     C18441   3.776  10.671   5.145  0.1519 -1.0389  0.1107
  898MOL0     C18442   3.637  10.674   5.212 -0.9069  0.6747  0.2596
  898MOL0     C18443   3.524  10.598   5.139  1.3279 -0.0230 -0.0963
  898MOL0     C18444   3.497  10.638   5.000 -0.5211  0.0482  0.2616
  898MOL0     C18445   3.474  10.800   4.987  0.4694 -0.1435 -0.1528
  898MOL0     C18446   3.347  10.852   5.060  0.1025 -0.0634 -0.2433
  898MOL0     C18447   3.344  11.011   5.040 -0.2575  0.4514  0.2131
  898MOL0    Cl18448   3.470  11.079   5.152  0.2444  0.1411 -0.2858
  898MOL0     C18449   4.056  10.610   5.535  0.7592  0.4830  0.0539
  898MOL0     C18450   4.174  10.630   5.606  0.3455 -0.2675 -0.1974
  898MOL0     O18451   4.455  10.537   5.623 -0.5532  0.0850 -0.5802
  898MOL0     C18452   4.626  10.834   5.738  1.0701  0.6797  0.4687
  898MOL0     C18453   4.749  10.871   5.799  0.7959 -0.0596  0.2657
  898MOL0     N18454   5.370  10.658   6.393  0.3356  0.4034 -0.8659
  898MOL0     N18455   5.463  10.597   6.462 -0.7542  0.5320 -0.2592
  898MOL0     C18456   6.758  10.816   6.256  0.3301  0.0453  0.4104
  898MOL0     C18457   6.875  10.884   6.208  0.1970  0.2116 -0.1784
  898MOL0     C18458   7.197  11.175   6.164 -0.6810 -0.8178  0.6524
  898MOL0     C18459   7.303  11.179   6.260  0.5802  0.4036 -0.5691
  898MOL0     C18460   7.405  11.272   6.252 -0.4933  1.3638 -0.5404
  898MOL0     C18461   7.408  11.369   6.159 -0.5297 -0.1474  0.6787
  898MOL0     O18462   7.501  11.467   6.155  0.0164  0.7357 -0.1016
  898MOL0     C18463   7.453  11.595   6.190  0.0813 -0.3187 -0.0693
  898MOL0     C18464   7.570  11.696   6.207 -0.3039 -0.0815 -0.1576
  898MOL0     C18465   7.647  11.669   6.340 -0.0607  0.6608 -0.8192
  898MOL0     C18466   7.746  11.777   6.376  0.3900  0.1790 -0.5972
  898MOL0     C18467   7.697  11.911   6.380  1.3138 -0.3930  0.5559
  898MOL0     C18468   7.679  12.026   6.363 -0.5708 -0.5721  1.4338
  898MOL0     C18469   7.322  11.354   6.046 -0.7893 -0.7588  0.2282
  898MOL0     C18470   7.220  11.262   6.050 -0.3434  0.0645 -1.1180
  898MOL0     H18471   7.035  10.902   6.507 -1.8845 -0.7343  1.0860
  898MOL0     H18472   6.825  10.795   6.588 -3.0626  0.5136 -0.1376
  898MOL0     H18473   6.520  10.669   6.278 -0.1189 -1.4038  0.3111
  898MOL0     H18474   6.479  10.826   6.332  0.0257 -0.9826 -3.7996
  898MOL0     H18475   6.394  10.692   6.562 -1.5379 -2.4344  0.5229
  898MOL0     H18476   6.429  10.546   6.473 -2.4899 -0.0307  3.3060
  898MOL0     H18477   6.282  10.582   6.311 -0.7983  0.7757 -0.2896
  898MOL0     H18478   6.263  10.755   6.330 -0.9066  2.0009  3.3312
  898MOL0     H18479   6.168  10.529   6.534  0.0529 -0.8812 -0.3519
  898MOL0     H18480   6.135  10.700   6.556 -2.1200 -0.6950  0.7629
  898MOL0     H18481   6.061  10.540   6.311  1.7776 -1.1206  0.6088
  898MOL0     H18482   6.018  10.715   6.344 -0.9427  1.3260  4.4531
  898MOL0     H18483   5.898  10.640   6.545  1.3199 -1.1282  1.8922
  898MOL0     H18484   5.935  10.471   6.500  4.3483  1.4862  0.9198
  898MOL0     H18485   5.775  10.656   6.323  2.1101  0.4119 -2.4258
  898MOL0     H18486   5.840  10.505   6.278 -0.6156  0.5543 -1.1283
  898MOL0     H18487   5.680  10.495   6.533 -1.8855 -0.3015  1.0469
  898MOL0     H18488   5.685  10.378   6.405  2.2427  1.0245 -0.2085
  898MOL0     H18489   5.558  10.524   6.150  0.9619 -2.2642  0.5617
  898MOL0     H18490   5.402  10.721   6.067 -2.1165 -0.0574 -1.8826
  898MOL0     H18491   5.279  10.798   6.164  1.0462  1.5192 -5.0291
  898MOL0     H18492   5.129  10.619   6.162 -1.5909 -1.5912 -0.8616
  898MOL0     H18493   5.224  10.511   6.079 -2.1501 -0.4131  0.6205
  898MOL0     H18494   5.220  10.716   5.889  0.9917 -3.3283 -1.7510
  898MOL0     H18495   5.143  10.570   5.897  0.7861 -0.1727  1.4599
  898MOL0     H18496   5.049  10.815   6.049 -2.5967  2.6424 -0.5256
  898MOL0     H18497   4.958  10.669   6.014 -0.8934 -1.0487 -4.0194
  898MOL0     H18498   4.899  10.572   5.794 -0.9351  0.2261 -0.4083
  898MOL0     H18499   4.668  10.515   5.694 -2.6336  3.0894 -5.3251
  898MOL0     H18500   4.265  10.931   5.471 -0.8826  0.7697  0.7221
  898MOL0     H18501   4.059  10.903   5.367  0.3967  0.1021  0.2042
  898MOL0     H18502   3.982  10.743   5.197  0.1116  0.3947 -1.5865
  898MOL0     H18503   3.849  10.856   5.241  1.3132  0.7641 -1.0211
  898MOL0     H18504   3.815  10.569   5.140  1.2008 -0.7204  1.2553
  898MOL0     H18505   3.777  10.712   5.043 -0.6877 -0.5603  0.2897
  898MOL0     H18506   3.615  10.777   5.243 -0.8719  0.8707 -0.3466
  898MOL0     H18507   3.654  10.629   5.310  1.9930  0.0292 -0.4507
  898MOL0     H18508   3.552  10.493   5.125  2.5949  0.4026 -0.9480
  898MOL0     H18509   3.433  10.619   5.196  0.2010 -0.2503 -1.7515
  898MOL0     H18510   3.413  10.582   4.957  0.4147 -0.1910 -1.3185
  898MOL0     H18511   3.584  10.612   4.939 -0.4545  2.4880 -0.7878
  898MOL0     H18512   3.453  10.835   4.886 -0.9176  1.0348  0.5010
  898MOL0     H18513   3.563  10.849   5.027  0.9112 -0.2342 -1.0031
  898MOL0     H18514   3.258  10.802   5.022 -0.4859 -0.2752  1.3482
  898MOL0     H18515   3.350  10.842   5.169 -0.6803  0.5016 -0.1566
  898MOL0     H18516   3.246  11.052   5.068  0.5057  1.5107  1.4344
  898MOL0     H18517   3.358  11.038   4.935 -0.3078  1.4428  0.4522
  898MOL0     H18518   3.994  10.523   5.552  1.9321 -0.2640  0.5961
  898MOL0     H18519   4.204  10.549   5.671 -1.6840 -1.2193 -0.3496
  898MOL0     H18520   4.543  10.904   5.735 -0.3935 -0.9084  1.8480
  898MOL0     H18521   4.761  10.974   5.831 -2.3016  0.8072 -0.9653
  898MOL0     H18522   6.680  10.790   6.186  0.1763 -0.3555  0.7287
  898MOL0     H18523   6.883  10.893   6.100 -2.3547 -1.8888 -0.6202
  898MOL0     H18524   7.287  11.102   6.335 -2.2397  1.5238  0.1453
  898MOL0     H18525   7.471  11.291   6.336 -1.1335  0.9875  0.0495
  898MOL0     H18526   7.403  11.606   6.287  0.7725  0.5690  0.2013
  898MOL0     H18527   7.387  11.626   6.108 -2.1124 -2.6280  0.6878
  898MOL0     H18528   7.636  11.675   6.122  0.0076 -0.1786  0.1101
  898MOL0     H18529   7.529  11.798   6.204  0.7606  0.3507 -1.0274
  898MOL0     H18530   7.688  11.569   6.325  1.2829  1.1773 -0.7347
  898MOL0     H18531   7.582  11.664   6.427  0.7416 -0.3172 -0.2584
  898MOL0     H18532   7.791  11.743   6.470 -0.1950 -1.7570 -0.9790
  898MOL0     H18533   7.828  11.782   6.303 -0.5239 -1.0844 -1.7505
  898MOL0     H18534   7.663  12.131   6.355  0.8385 -0.4015  0.5337
  898MOL0     H18535   7.336  11.428   5.969 -0.2136 -4.0796 -3.1411
  898MOL0     H18536   7.143  11.253   5.974 -0.7131  2.1713 -1.0307
  899MOL0     O18537   3.915   3.336   1.738  0.2836 -0.2565  0.3809
  899MOL0     C18538   3.965   3.233   1.758 -0.6252 -0.1276  0.6308
  899MOL0     O18539   3.906   3.122   1.817  0.3159 -0.1997  0.5849
  899MOL0     C18540   3.772   3.116   1.838  0.0546  0.0787 -0.4995
  899MOL0     C18541   3.729   3.046   1.949 -0.7359  0.0450 -0.0474
  899MOL0     C18542   3.590   3.016   1.969  0.0962  0.6547 -0.1319
  899MOL0     C18543   3.496   3.038   1.866 -0.1922  0.2340  0.2833
  899MOL0     O18544   3.361   3.010   1.869  0.2695  0.4261  0.6960
  899MOL0     C18545   3.342   2.877   1.921  0.1224  0.5786 -0.0193
  899MOL0     C18546   3.191   2.861   1.939 -0.6041  0.1074 -0.5776
  899MOL0     C18547   3.115   2.837   1.804  0.6403 -0.1981  0.0669
  899MOL0     C18548   2.975   2.899   1.800  0.0854  0.2461  0.3598
  899MOL0     C18549   2.911   2.855   1.671  0.6706  0.2037  0.2508
  899MOL0     C18550   2.776   2.929   1.647 -0.8023 -1.2316 -0.7892
  899MOL0     C18551   2.711   2.862   1.526 -0.2964 -0.2549 -0.3196
  899MOL0     C18552   2.597   2.949   1.472  0.4801  0.3545  0.8103
  899MOL0     N18553   2.531   2.865   1.369 -0.2077 -0.3521  0.1408
  899MOL0     C18554   2.566   2.866   1.233  0.2938  0.3700  0.2084
  899MOL0     C18555   2.505   2.753   1.190 -0.2898  0.4050  0.0312
  899MOL0     C18556   2.522   2.695   1.050  0.9134 -0.6215 -0.3477
  899MOL0     C18557   2.663   2.646   1.015 -0.7860  0.7110  0.3576
  899MOL0     C18558   2.688   2.516   1.089 -0.1276 -0.4931  0.1579
  899MOL0     C18559   2.834   2.477   1.075  0.1860 -0.1930  0.3256
  899MOL0     O18560   2.923   2.566   1.147 -0.4442  0.3410  0.0341
  899MOL0     C18561   3.049   2.585   1.113 -0.0189  0.4763 -0.5072
  899MOL0     C18562   3.121   2.489   1.043 -0.5425 -0.9383  0.7452
  899MOL0     C18563   3.264   2.505   1.023 -0.1752 -0.2597  0.8546
  899MOL0     C18564   3.327   2.622   1.061 -0.4679 -0.4091 -0.2997
  899MOL0     C18565   3.474   2.642   1.031  0.8862 -0.0438 -0.3484
  899MOL0     O18566   3.537   2.538   0.971 -0.7376 -0.2901 -0.6545
  899MOL0     C18567   3.672   2.538   0.966 -0.1148  1.3686 -0.6743
  899MOL0     C18568   3.735   2.574   0.848  0.3754  0.2723  0.2771
  899MOL0     C18569   3.878   2.576   0.841  0.0047  0.4198 -0.3551
  899MOL0     C18570   3.955   2.542   0.955 -0.2241 -0.0225  0.6487
  899MOL0     O18571   4.082   2.530   0.925  0.7164 -0.8087  0.1760
  899MOL0     C18572   4.170   2.443   0.992  0.0138  0.7159  0.9399
  899MOL0     C18573   4.278   2.417   0.889  0.1625 -0.6448 -0.6369
  899MOL0     C18574   4.352   2.297   0.927 -0.1131  0.1037  0.6329
  899MOL0     C18575   4.488   2.262   0.849  1.3470 -0.4610  0.5996
  899MOL0     C18576   4.492   2.295   0.698 -0.1657 -0.2388 -0.0740
  899MOL0     C18577   4.625   2.236   0.645  0.4576  0.2444 -0.1809
  899MOL0     C18578   4.667   2.266   0.504  0.7312  0.4469  0.7524
  899MOL0     C18579   4.798   2.205   0.460 -0.0605  0.6206 -0.3360
  899MOL0    Cl18580   4.929   2.253   0.559  0.4364 -0.1077 -0.3102
  899MOL0     C18581   3.893   2.517   1.076 -0.2042  0.6394  0.5413
  899MOL0     C18582   3.754   2.516   1.090  0.0600 -0.7951 -0.2059
  899MOL0     O18583   3.530   2.743   1.080  0.4654  0.2636  0.0773
  899MOL0     C18584   3.251   2.716   1.127 -0.2761 -1.1084  0.2639
  899MOL0     C18585   3.113   2.696   1.165  0.0310  0.4326  0.5463
  899MOL0     N18586   2.432   2.693   1.286  0.5912  0.0359  0.4940
  899MOL0     N18587   2.449   2.760   1.394  0.4175 -0.0106 -0.1364
  899MOL0     C18588   3.546   3.103   1.744  0.7593 -0.3581 -0.5690
  899MOL0     C18589   3.683   3.140   1.733  0.3181 -0.2690  0.2029
  899MOL0     C18590   4.114   3.235   1.757 -0.5306  0.1920 -0.3552
  899MOL0     C18591   4.178   3.303   1.647 -1.1123  0.1623 -0.0142
  899MOL0     C18592   4.313   3.307   1.633  0.6648  0.4148 -0.1693
  899MOL0     C18593   4.390   3.219   1.709 -0.1983  0.0581 -0.0470
  899MOL0     O18594   4.524   3.219   1.693 -0.4154  0.3058  0.5971
  899MOL0     C18595   4.595   3.101   1.723 -1.3668  0.2573 -0.2012
  899MOL0     C18596   4.724   3.107   1.647 -0.6007 -0.8072  0.1714
  899MOL0     C18597   4.697   3.108   1.492 -0.4164  0.3003 -0.8326
  899MOL0     C18598   4.809   3.066   1.404  0.0863  0.8739  0.0382
  899MOL0     C18599   4.815   2.925   1.416 -1.2282  1.3448 -0.2386
  899MOL0     C18600   4.847   2.808   1.430  0.1777  0.3700  0.1997
  899MOL0     C18601   4.338   3.141   1.806  0.7296  0.0526 -0.4472
  899MOL0     C18602   4.193   3.141   1.827  0.0048 -0.4141 -0.5326
  899MOL0     H18603   3.807   3.015   2.018 -1.2991  0.3862  0.7505
  899MOL0     H18604   3.560   2.976   2.065 -2.6623  0.7562 -0.8821
  899MOL0     H18605   3.391   2.852   2.016 -2.3215  0.6206  1.3524
  899MOL0     H18606   3.389   2.811   1.848  3.1128 -0.3398  2.4782
  899MOL0     H18607   3.165   2.952   1.994  4.2209  0.6316  1.3116
  899MOL0     H18608   3.163   2.780   2.007  2.7843 -0.1889  0.6328
  899MOL0     H18609   3.103   2.731   1.781 -0.5873  0.0963 -0.8024
  899MOL0     H18610   3.179   2.888   1.732  2.9604  1.1837  2.8748
  899MOL0     H18611   2.917   2.858   1.883 -0.7811 -2.2305 -1.3223
  899MOL0     H18612   2.969   3.008   1.798  2.2191  0.4106 -1.7055
  899MOL0     H18613   2.910   2.746   1.660 -1.5467  0.0272  1.6942
  899MOL0     H18614   2.979   2.891   1.593 -0.6526  2.7220  0.1649
  899MOL0     H18615   2.806   3.033   1.633  2.6144 -2.2280 -1.7219
  899MOL0     H18616   2.715   2.920   1.738  1.4943 -0.3113  0.9283
  899MOL0     H18617   2.780   2.847   1.442  2.7381 -3.3141  2.3866
  899MOL0     H18618   2.677   2.761   1.553  1.0941 -0.0857  2.3970
  899MOL0     H18619   2.636   3.043   1.432  1.6135 -1.0112 -1.5238
  899MOL0     H18620   2.517   2.967   1.544 -0.9435 -0.1506 -0.5804
  899MOL0     H18621   2.640   2.932   1.186  0.9277 -1.0206 -0.8182
  899MOL0     H18622   2.491   2.764   0.971  2.1802  0.9518  0.4643
  899MOL0     H18623   2.454   2.609   1.052  1.5263 -1.3612  5.4249
  899MOL0     H18624   2.743   2.716   1.043 -0.1519 -0.7097  2.3725
  899MOL0     H18625   2.671   2.633   0.907  0.5140 -2.4887  0.7199
  899MOL0     H18626   2.666   2.538   1.194  2.1376  0.3297  0.5069
  899MOL0     H18627   2.615   2.444   1.050 -0.7033 -0.6088  1.4135
  899MOL0     H18628   2.858   2.476   0.968  1.2863  1.7807  0.5010
  899MOL0     H18629   2.850   2.378   1.118 -0.0987 -0.3568  0.0606
  899MOL0     H18630   3.078   2.396   1.008  0.7561 -0.9572 -0.9345
  899MOL0     H18631   3.317   2.425   0.973 -2.1251  1.0860 -3.8885
  899MOL0     H18632   3.669   2.613   0.771  1.9518 -1.0557 -1.8480
  899MOL0     H18633   3.918   2.598   0.743  1.1206  3.1410  0.6141
  899MOL0     H18634   4.112   2.353   1.012 -0.9697  0.9609 -0.6362
  899MOL0     H18635   4.212   2.477   1.087 -0.3001 -1.7184  2.0165
  899MOL0     H18636   4.345   2.503   0.879  2.3108 -2.1560  0.2040
  899MOL0     H18637   4.233   2.391   0.792  0.8458  0.0733 -1.1622
  899MOL0     H18638   4.282   2.215   0.909  1.7867 -1.3503 -0.5414
  899MOL0     H18639   4.372   2.297   1.035  0.6228 -2.4800  0.5546
  899MOL0     H18640   4.569   2.311   0.905 -0.1488  1.5859  1.1182
  899MOL0     H18641   4.508   2.155   0.855  0.1417 -0.6141  3.4467
  899MOL0     H18642   4.483   2.402   0.674  0.5484  0.2758  1.7840
  899MOL0     H18643   4.404   2.251   0.650  0.4323 -1.5183 -0.0094
  899MOL0     H18644   4.620   2.129   0.665 -1.1650  0.5164  1.0329
  899MOL0     H18645   4.699   2.278   0.713 -0.4273 -0.1754  1.0708
  899MOL0     H18646   4.591   2.228   0.435  1.7787 -1.4960  0.6193
  899MOL0     H18647   4.663   2.375   0.487  1.4022  0.3393 -0.2342
  899MOL0     H18648   4.829   2.223   0.357 -0.2012  0.5301 -0.3945
  899MOL0     H18649   4.774   2.100   0.479  0.0809  0.8398  1.2566
  899MOL0     H18650   3.963   2.508   1.159  0.1100 -1.9272  0.0896
  899MOL0     H18651   3.700   2.506   1.184 -3.0965  3.4143 -1.2820
  899MOL0     H18652   3.284   2.814   1.159 -1.9637 -0.2707 -0.4275
  899MOL0     H18653   3.056   2.781   1.201 -1.6688  0.4972 -2.0272
  899MOL0     H18654   3.483   3.137   1.662  0.2304  2.5085  0.8893
  899MOL0     H18655   3.711   3.184   1.638 -0.1863 -2.2032 -0.8976
  899MOL0     H18656   4.122   3.361   1.574  0.7629  3.1242  0.7255
  899MOL0     H18657   4.372   3.356   1.557  0.5351 -1.1837 -1.3676
  899MOL0     H18658   4.555   3.006   1.685  2.5698 -1.0174 -1.6876
  899MOL0     H18659   4.613   3.097   1.830  1.5084  2.5752 -0.4892
  899MOL0     H18660   4.779   3.197   1.676 -1.0542  0.4201 -2.4404
  899MOL0     H18661   4.772   3.017   1.685 -5.0432 -2.3273  2.9729
  899MOL0     H18662   4.665   3.209   1.465 -0.6279  0.7328  0.8647
  899MOL0     H18663   4.610   3.047   1.468  0.7506 -1.9407  0.2510
  899MOL0     H18664   4.800   3.095   1.299 -1.3126 -0.1047 -0.1512
  899MOL0     H18665   4.899   3.117   1.440 -0.6045  5.0469 -3.3745
  899MOL0     H18666   4.889   2.710   1.435  1.3452  0.6398 -2.5737
  899MOL0     H18667   4.395   3.063   1.856 -1.4438 -2.0274 -1.0399
  899MOL0     H18668   4.145   3.088   1.909 -0.6804 -1.1289 -1.3666
  900MOL0     O18669   8.128   2.662   8.784 -0.3702 -0.7501  0.1451
  900MOL0     C18670   8.096   2.584   8.877  0.3202  0.3310  0.2795
  900MOL0     O18671   7.972   2.572   8.930  0.1370  0.0075 -0.1280
  900MOL0     C18672   7.859   2.633   8.877  0.0596 -0.6592 -0.1638
  900MOL0     C18673   7.833   2.650   8.738 -0.0973  0.3144  0.2969
  900MOL0     C18674   7.711   2.702   8.690 -0.3704 -0.4753  0.0347
  900MOL0     C18675   7.615   2.748   8.794 -1.0157 -0.1231 -0.0995
  900MOL0     O18676   7.493   2.796   8.771 -0.1981  0.1932  0.0301
  900MOL0     C18677   7.462   2.821   8.628  0.5431  0.4669 -0.4749
  900MOL0     C18678   7.318   2.854   8.621 -1.1953 -0.1827 -0.6745
  900MOL0     C18679   7.271   2.982   8.681  0.4191  0.5013 -0.7119
  900MOL0     C18680   7.132   3.016   8.627 -0.2574  0.1554 -0.0355
  900MOL0     C18681   7.072   3.133   8.713 -0.1281  0.3261  0.1700
  900MOL0     C18682   6.938   3.183   8.649 -0.2264  0.3161  0.4875
  900MOL0     C18683   6.872   3.289   8.748 -0.5519  1.1191  0.4123
  900MOL0     C18684   6.725   3.281   8.747 -0.6254 -0.6108  0.3382
  900MOL0     N18685   6.648   3.372   8.834 -0.4202  0.8261  1.2347
  900MOL0     C18686   6.684   3.387   8.967 -0.1355  1.1498 -0.0734
  900MOL0     C18687   6.585   3.453   9.029  0.7042  0.7080 -0.5332
  900MOL0     C18688   6.569   3.469   9.175  0.8008 -0.6109 -0.5572
  900MOL0     C18689   6.421   3.499   9.208  0.1055  0.3288 -0.1548
  900MOL0     C18690   6.400   3.548   9.352 -0.3939 -0.0134 -0.0428
  900MOL0     C18691   6.265   3.611   9.370 -0.1842  0.0892 -0.2321
  900MOL0     O18692   6.266   3.731   9.301 -0.5050 -0.0344  0.3685
  900MOL0     C18693   6.134   3.785   9.300  0.0430 -0.4199 -0.7106
  900MOL0     C18694   6.083   3.878   9.396  1.7445  0.1057 -0.4733
  900MOL0     C18695   5.954   3.937   9.383 -0.1038  0.1349 -0.1169
  900MOL0     C18696   5.869   3.893   9.278 -0.6245  0.6524 -1.0535
  900MOL0     C18697   5.729   3.950   9.263 -1.7028  0.1145 -0.7814
  900MOL0     O18698   5.657   3.901   9.156 -0.4735  0.3165 -0.1256
  900MOL0     C18699   5.534   3.961   9.135 -0.3727 -0.3258  0.1354
  900MOL0     C18700   5.501   3.999   9.012 -0.2482 -0.8967  0.3780
  900MOL0     C18701   5.377   4.052   8.976  0.2114 -0.0460  0.8369
  900MOL0     C18702   5.273   4.067   9.071  0.0654  0.6269 -0.4365
  900MOL0     O18703   5.150   4.119   9.031 -0.1388 -0.6170  0.9368
  900MOL0     C18704   5.036   4.091   9.115 -0.6753 -0.0960 -0.3023
  900MOL0     C18705   4.901   4.122   9.056  0.1287 -0.2296 -0.7846
  900MOL0     C18706   4.792   4.101   9.159  0.6264  0.4610 -0.1758
  900MOL0     C18707   4.797   3.959   9.217 -0.7932  0.5166 -0.1214
  900MOL0     C18708   4.663   3.909   9.267 -0.0111 -0.5489  0.3702
  900MOL0     C18709   4.656   3.760   9.318  0.2201 -0.1716  0.1542
  900MOL0     C18710   4.632   3.664   9.201  0.0113  0.8970 -0.0401
  900MOL0     C18711   4.671   3.523   9.245  0.1192 -0.3419 -0.3866
  900MOL0    Cl18712   4.645   3.416   9.104  0.0480 -0.1975 -0.8509
  900MOL0     C18713   5.307   4.029   9.198 -0.2711  0.4451 -0.6199
  900MOL0     C18714   5.429   3.973   9.234 -0.8882  0.3566  0.6451
  900MOL0     O18715   5.703   4.041   9.343  0.1752 -0.5085  0.4468
  900MOL0     C18716   5.922   3.802   9.186 -0.2950 -0.0873  0.3963
  900MOL0     C18717   6.052   3.759   9.187 -0.4756  0.2484 -0.1844
  900MOL0     N18718   6.503   3.490   8.925  0.6528  0.6010 -0.6310
  900MOL0     N18719   6.543   3.441   8.809 -0.3271  0.1211  0.4853
  900MOL0     C18720   7.651   2.748   8.924 -0.5997 -0.6917 -0.4538
  900MOL0     C18721   7.767   2.691   8.971  1.2635 -0.2542  0.9248
  900MOL0     C18722   8.203   2.497   8.929  1.0083  0.5771 -1.4543
  900MOL0     C18723   8.337   2.542   8.906 -0.2164 -0.4092  0.4146
  900MOL0     C18724   8.448   2.467   8.952  1.0595 -0.2177 -0.0272
  900MOL0     C18725   8.427   2.346   9.007 -0.5964 -0.5053 -1.0458
  900MOL0     O18726   8.547   2.276   9.028  0.0620  0.0318  0.5138
  900MOL0     C18727   8.577   2.254   9.167  0.8430 -0.1793  0.4539
  900MOL0     C18728   8.685   2.155   9.207 -0.2328  0.1142  0.0520
  900MOL0     C18729   8.822   2.202   9.154 -0.2003 -0.5411  0.8616
  900MOL0     C18730   8.934   2.222   9.259 -0.5813  0.1129 -0.1623
  900MOL0     C18731   9.062   2.168   9.209  0.1344 -0.0450 -0.3205
  900MOL0     C18732   9.175   2.154   9.172 -0.9276 -0.1857  0.2229
  900MOL0     C18733   8.294   2.289   9.019 -0.2559  0.4930 -0.8725
  900MOL0     C18734   8.182   2.363   8.986 -0.7086 -0.0692 -0.7977
  900MOL0     H18735   7.907   2.624   8.663  1.7130  0.4223  1.9693
  900MOL0     H18736   7.688   2.695   8.584  3.0464 -3.2763 -0.6974
  900MOL0     H18737   7.467   2.732   8.564 -1.6969  1.4139 -2.0979
  900MOL0     H18738   7.518   2.910   8.596 -1.8447  1.5062 -1.9962
  900MOL0     H18739   7.263   2.766   8.656  0.1264 -0.3748  1.0423
  900MOL0     H18740   7.296   2.872   8.515 -1.5919  2.0597 -0.2509
  900MOL0     H18741   7.336   3.070   8.673  1.7564 -0.5833 -2.3403
  900MOL0     H18742   7.256   2.966   8.788 -1.9161  0.4010 -1.0175
  900MOL0     H18743   7.129   3.049   8.523  0.0138 -0.0041 -0.0945
  900MOL0     H18744   7.065   2.932   8.644 -0.6727  0.2697 -1.0705
  900MOL0     H18745   7.142   3.217   8.711 -0.8763  0.9725  0.4708
  900MOL0     H18746   7.045   3.096   8.812 -0.5604 -3.6063 -1.2550
  900MOL0     H18747   6.874   3.096   8.632 -1.3945  1.4722 -1.5144
  900MOL0     H18748   6.943   3.232   8.551 -1.7357 -1.0252 -0.3124
  900MOL0     H18749   6.909   3.277   8.851 -0.0469 -2.1289 -0.0161
  900MOL0     H18750   6.911   3.384   8.712  3.7377 -0.0008  1.5263
  900MOL0     H18751   6.701   3.182   8.787 -2.1814  0.1777  1.4308
  900MOL0     H18752   6.676   3.287   8.649  0.2754 -3.5501 -0.4108
  900MOL0     H18753   6.764   3.340   9.024 -1.0364  0.3535  0.5715
  900MOL0     H18754   6.628   3.558   9.197  0.9271 -0.4687 -1.4432
  900MOL0     H18755   6.600   3.380   9.232 -2.2814 -2.1850 -1.1152
  900MOL0     H18756   6.362   3.413   9.174 -0.1798  0.9648 -1.3376
  900MOL0     H18757   6.383   3.575   9.139  1.0337 -0.8164 -1.9959
  900MOL0     H18758   6.400   3.453   9.406 -3.4629 -1.4046 -2.1490
  900MOL0     H18759   6.478   3.616   9.387  2.0076 -2.4556 -0.2545
  900MOL0     H18760   6.232   3.637   9.470  0.7295  0.1707  0.0565
  900MOL0     H18761   6.184   3.553   9.324 -0.0835 -0.0384 -0.2490
  900MOL0     H18762   6.126   3.914   9.489 -1.1280  0.0066  1.0283
  900MOL0     H18763   5.919   4.010   9.456  0.6127  1.4273 -1.0236
  900MOL0     H18764   5.584   3.997   8.942  1.4448  0.9758  2.1819
  900MOL0     H18765   5.349   4.095   8.880  0.7296  2.4495  1.7097
  900MOL0     H18766   5.067   4.153   9.199  0.4306 -1.4057  0.3049
  900MOL0     H18767   5.046   3.984   9.135  3.7364 -0.0481 -1.3728
  900MOL0     H18768   4.891   4.048   8.976  0.7436 -1.3857  0.1796
  900MOL0     H18769   4.904   4.229   9.030  1.4081 -0.0144  0.1791
  900MOL0     H18770   4.699   4.106   9.101  0.1979 -0.0189  0.4553
  900MOL0     H18771   4.804   4.170   9.242 -2.4749  0.8369  0.1012
  900MOL0     H18772   4.838   3.885   9.147 -1.6244 -1.2579  1.1877
  900MOL0     H18773   4.863   3.958   9.304  0.2563  0.2244 -0.9017
  900MOL0     H18774   4.593   3.926   9.184  1.2998  1.6405 -0.3875
  900MOL0     H18775   4.625   3.972   9.348 -1.8167 -1.2593  0.1007
  900MOL0     H18776   4.571   3.744   9.385 -2.5661  0.1119 -3.0989
  900MOL0     H18777   4.752   3.748   9.370  0.8941  0.2092 -0.9796
  900MOL0     H18778   4.527   3.657   9.173 -0.8272  1.6048  2.5746
  900MOL0     H18779   4.696   3.684   9.115 -1.6191 -1.4271 -1.8963
  900MOL0     H18780   4.608   3.481   9.324 -0.5818 -0.1423 -0.8278
  900MOL0     H18781   4.775   3.515   9.277 -0.2108  1.2427  1.2019
  900MOL0     H18782   5.230   4.035   9.274  0.2752  2.0162 -0.1613
  900MOL0     H18783   5.453   3.922   9.327  0.4196 -0.2565 -0.0052
  900MOL0     H18784   5.868   3.745   9.112 -0.4145 -2.1125  1.9463
  900MOL0     H18785   6.097   3.707   9.103 -0.4605  2.0500 -1.3335
  900MOL0     H18786   7.589   2.780   9.007 -0.2794 -2.7611  0.6579
  900MOL0     H18787   7.790   2.694   9.078  2.0343 -2.4631  0.8614
  900MOL0     H18788   8.350   2.632   8.847 -3.4755 -0.7762 -1.1024
  900MOL0     H18789   8.549   2.507   8.951  0.0087  2.6517  0.3713
  900MOL0     H18790   8.488   2.219   9.221  0.9536  0.7402  1.2533
  900MOL0     H18791   8.601   2.350   9.213 -1.8419  0.6639  0.2546
  900MOL0     H18792   8.690   2.144   9.316 -0.3703 -0.2167  0.0269
  900MOL0     H18793   8.665   2.057   9.162  1.6540  0.8806 -2.7507
  900MOL0     H18794   8.813   2.298   9.102  1.2830 -0.4288  0.7583
  900MOL0     H18795   8.849   2.125   9.081  0.3628 -1.6257  2.1795
  900MOL0     H18796   8.937   2.326   9.295 -0.8529  0.8038 -2.0016
  900MOL0     H18797   8.916   2.157   9.344  2.4039 -1.6850 -0.7527
  900MOL0     H18798   9.279   2.161   9.151 -0.8805 -1.2727  0.0533
  900MOL0     H18799   8.277   2.182   9.026  2.4109 -0.0289 -1.3356
  900MOL0     H18800   8.083   2.318   8.992  0.4233 -2.4383  2.4286
  901MOL0     O18801  11.253   3.437   7.002 -0.3946  0.1039  0.6321
  901MOL0     C18802  11.305   3.492   6.909  0.3858 -0.1274 -0.2936
  901MOL0     O18803  11.257   3.494   6.781 -0.3332 -0.1851 -0.3190
  901MOL0     C18804  11.140   3.436   6.744  0.6655 -0.5726 -0.4516
  901MOL0     C18805  11.043   3.525   6.713 -0.0463  0.4846  1.0379
  901MOL0     C18806  10.911   3.494   6.668 -0.2004 -0.5969  0.0817
  901MOL0     C18807  10.888   3.361   6.649  0.1631  0.1621  0.5505
  901MOL0     O18808  10.759   3.330   6.609 -0.7804 -0.8167 -0.9039
  901MOL0     C18809  10.728   3.204   6.553 -0.4789 -0.3517  0.6680
  901MOL0     C18810  10.596   3.234   6.476  0.2773  0.9926 -0.8631
  901MOL0     C18811  10.564   3.119   6.394 -0.4094 -0.0113 -0.5866
  901MOL0     C18812  10.445   3.153   6.299  0.4710 -0.0016 -0.5059
  901MOL0     C18813  10.476   3.240   6.171 -0.9337 -0.6264 -0.7798
  901MOL0     C18814  10.556   3.173   6.065  0.1358  0.0585  0.1174
  901MOL0     C18815  10.482   3.062   5.988  0.4498 -0.6177 -0.1127
  901MOL0     C18816  10.573   2.943   5.958  0.5129  0.0562 -0.0734
  901MOL0     N18817  10.680   2.977   5.857 -0.3972 -0.1908 -0.0979
  901MOL0     C18818  10.817   2.969   5.868  0.4597  0.0491  0.0394
  901MOL0     C18819  10.861   2.995   5.733 -0.0768 -0.3332  1.2073
  901MOL0     C18820  10.993   2.996   5.692 -1.1256  0.1541  0.4832
  901MOL0     C18821  11.020   3.049   5.541 -0.1035  0.8098  0.3805
  901MOL0     C18822  11.017   2.939   5.439  0.3416 -0.6419  0.9532
  901MOL0     C18823  10.879   2.898   5.389 -0.5155  0.4193 -0.7744
  901MOL0     O18824  10.836   2.995   5.288 -0.2965 -0.0194  0.3545
  901MOL0     C18825  10.702   2.994   5.257 -0.6541  0.4936  0.3020
  901MOL0     C18826  10.667   3.092   5.170  0.1566 -0.1410  0.3837
  901MOL0     C18827  10.534   3.100   5.123  1.0606 -0.0268 -0.4610
  901MOL0     C18828  10.433   3.019   5.179  0.0040  0.2153 -0.1643
  901MOL0     C18829  10.295   3.028   5.119 -0.2733  0.1693  0.1120
  901MOL0     O18830  10.209   2.921   5.151  0.3591  1.0235 -0.1820
  901MOL0     C18831  10.070   2.918   5.119  0.4097 -1.8419 -0.9158
  901MOL0     C18832   9.981   2.833   5.190  0.0112 -0.2873 -0.6060
  901MOL0     C18833   9.839   2.837   5.179 -0.1764  0.9498 -0.4791
  901MOL0     C18834   9.779   2.928   5.093 -0.2868 -0.6040 -0.5843
  901MOL0     O18835   9.642   2.932   5.087  0.4876  1.0236  0.8389
  901MOL0     C18836   9.573   2.829   5.143  0.4596  0.5464 -0.1924
  901MOL0     C18837   9.428   2.870   5.120  0.8391 -0.3601  0.4331
  901MOL0     C18838   9.326   2.766   5.182 -0.6163 -0.4598  0.1879
  901MOL0     C18839   9.181   2.815   5.160 -0.5197 -0.1429  0.8626
  901MOL0     C18840   9.089   2.762   5.280  0.7150 -0.7153  0.0382
  901MOL0     C18841   8.966   2.853   5.274 -0.1886 -0.0016 -0.0570
  901MOL0     C18842   8.864   2.827   5.376 -0.1026 -0.2349  0.1385
  901MOL0     C18843   8.748   2.936   5.394  0.7389  0.5322 -1.3478
  901MOL0    Cl18844   8.604   2.864   5.455 -0.0188  0.4763 -0.4181
  901MOL0     C18845   9.858   3.009   5.013  0.1360 -0.4432  0.4372
  901MOL0     C18846  10.003   3.007   5.027 -0.4953 -0.0537  0.3264
  901MOL0     O18847  10.275   3.129   5.056  0.4226 -0.0797 -0.4301
  901MOL0     C18848  10.474   2.920   5.275  0.0508 -0.1411 -0.0151
  901MOL0     C18849  10.605   2.913   5.321 -0.6252 -0.6774 -0.4679
  901MOL0     N18850  10.753   3.021   5.659  0.0880 -0.1880 -0.1586
  901MOL0     N18851  10.645   3.018   5.730  1.0156  0.7408 -0.5631
  901MOL0     C18852  10.988   3.267   6.675 -0.4532 -0.2027 -0.3443
  901MOL0     C18853  11.118   3.305   6.728  0.4849 -0.6501 -0.2923
  901MOL0     C18854  11.444   3.551   6.941  0.3977 -0.8736 -0.0737
  901MOL0     C18855  11.501   3.543   7.069  0.6453 -0.8757  0.8744
  901MOL0     C18856  11.634   3.585   7.089 -0.9267  1.1199  0.6952
  901MOL0     C18857  11.709   3.644   6.980  1.6405 -0.3407 -1.4565
  901MOL0     O18858  11.812   3.735   6.996  0.0306  0.1472  0.4916
  901MOL0     C18859  11.866   3.757   7.121 -0.3875  0.5025  0.3676
  901MOL0     C18860  11.791   3.868   7.196  0.0691 -0.0492  0.4833
  901MOL0     C18861  11.776   3.986   7.100  0.0442  1.1698  0.0237
  901MOL0     C18862  11.903   4.038   7.044 -0.1734  0.6107 -0.4027
  901MOL0     C18863  12.016   4.060   7.127 -1.0511 -0.4071  0.0845
  901MOL0     C18864  12.105   4.089   7.194 -0.1073 -0.4512 -0.8995
  901MOL0     C18865  11.655   3.635   6.855  0.3565  0.9027  0.2440
  901MOL0     C18866  11.523   3.590   6.834 -0.4206  0.4799 -0.5272
  901MOL0     H18867  11.070   3.630   6.707  0.8385  0.1815 -1.8086
  901MOL0     H18868  10.827   3.563   6.659  1.0524  0.7777 -1.8130
  901MOL0     H18869  10.700   3.129   6.627 -1.5086 -1.4719 -0.8050
  901MOL0     H18870  10.813   3.172   6.491  0.0610 -1.3549  1.8746
  901MOL0     H18871  10.616   3.319   6.410 -0.1217  2.7258  1.1490
  901MOL0     H18872  10.527   3.271   6.552  2.3081  4.2765 -0.4464
  901MOL0     H18873  10.526   3.045   6.465 -0.3054 -1.5021 -2.0463
  901MOL0     H18874  10.646   3.075   6.337  0.9860  0.3802  1.0287
  901MOL0     H18875  10.421   3.055   6.258  2.2241 -0.1665 -1.2425
  901MOL0     H18876  10.365   3.206   6.352  1.6703  1.8969 -0.4897
  901MOL0     H18877  10.520   3.335   6.204 -1.1673 -0.5031 -0.8184
  901MOL0     H18878  10.374   3.261   6.136 -0.8295  0.4115 -0.5115
  901MOL0     H18879  10.647   3.136   6.113  0.2673  1.2690  0.8471
  901MOL0     H18880  10.571   3.251   5.989  1.1370 -0.2484 -0.0175
  901MOL0     H18881  10.403   3.026   6.054  0.5078 -0.6655 -0.0703
  901MOL0     H18882  10.426   3.096   5.900  0.8406  1.2373  0.3156
  901MOL0     H18883  10.510   2.854   5.947 -0.5850  0.7129  0.6325
  901MOL0     H18884  10.627   2.925   6.052 -0.0120 -1.2314  0.0119
  901MOL0     H18885  10.874   2.953   5.958 -0.4523  3.6354  1.4265
  901MOL0     H18886  11.043   2.899   5.704 -0.7828 -0.0649 -1.9987
  901MOL0     H18887  11.049   3.062   5.759 -0.3369 -2.2940  2.3900
  901MOL0     H18888  11.113   3.108   5.543  0.6942 -0.3817  2.7387
  901MOL0     H18889  10.938   3.118   5.519 -0.5357  0.1075 -0.2381
  901MOL0     H18890  11.081   2.971   5.357 -0.7309 -0.8748  0.0119
  901MOL0     H18891  11.069   2.849   5.472  0.0951 -0.6821  1.2358
  901MOL0     H18892  10.816   2.890   5.478  1.5962 -0.6518  0.7158
  901MOL0     H18893  10.883   2.799   5.341 -1.5482  0.4487 -0.9605
  901MOL0     H18894  10.746   3.161   5.144 -0.8536  1.2731  0.9685
  901MOL0     H18895  10.514   3.170   5.043  0.0325 -1.2109 -1.2886
  901MOL0     H18896  10.026   2.754   5.249 -0.8220 -0.5464 -0.3160
  901MOL0     H18897   9.787   2.765   5.240  1.1735  0.5075  0.1859
  901MOL0     H18898   9.599   2.816   5.249  1.0004 -2.4277 -0.5944
  901MOL0     H18899   9.599   2.737   5.091  1.4588  2.6999 -3.8782
  901MOL0     H18900   9.403   2.888   5.015  2.2506  0.7462  0.2478
  901MOL0     H18901   9.411   2.968   5.167  0.0127 -0.1639 -0.2553
  901MOL0     H18902   9.359   2.761   5.286  1.8265  0.1469 -0.4840
  901MOL0     H18903   9.348   2.669   5.138  0.6349 -0.3364  0.5152
  901MOL0     H18904   9.184   2.924   5.166  1.3337  0.0936 -2.3150
  901MOL0     H18905   9.144   2.795   5.059 -0.4322 -0.4632  0.8921
  901MOL0     H18906   9.137   2.778   5.376 -3.3711 -1.0768  2.3668
  901MOL0     H18907   9.053   2.659   5.275  0.7346 -1.0257  3.8490
  901MOL0     H18908   8.907   2.843   5.182 -1.0343 -0.6622  0.5320
  901MOL0     H18909   9.001   2.956   5.284 -1.1250  0.2284  1.1158
  901MOL0     H18910   8.822   2.727   5.363 -0.3002 -0.5957  2.8674
  901MOL0     H18911   8.911   2.814   5.474  1.3547 -0.3111 -0.5386
  901MOL0     H18912   8.726   2.974   5.293 -1.2539  2.8730 -0.1264
  901MOL0     H18913   8.780   3.012   5.465  1.9813 -1.2547  0.0839
  901MOL0     H18914   9.817   3.068   4.932 -3.7899 -2.9334  0.3534
  901MOL0     H18915  10.065   3.063   4.959  1.3535  0.1251  2.0569
  901MOL0     H18916  10.417   2.837   5.315 -0.1174  1.3286  3.1073
  901MOL0     H18917  10.631   2.842   5.399  1.2609 -0.0279 -0.4642
  901MOL0     H18918  10.976   3.162   6.650  1.5758 -1.1783  2.3042
  901MOL0     H18919  11.198   3.234   6.741 -2.2365 -3.5652  2.2450
  901MOL0     H18920  11.451   3.506   7.159  1.9823 -1.2189  1.5020
  901MOL0     H18921  11.668   3.566   7.190  0.2482 -1.5982 -0.1132
  901MOL0     H18922  11.971   3.787   7.118  0.0875 -1.0738  0.0626
  901MOL0     H18923  11.857   3.665   7.180 -3.6686 -0.2148 -1.0479
  901MOL0     H18924  11.696   3.844   7.245 -1.2184 -1.4983 -2.4736
  901MOL0     H18925  11.848   3.899   7.284  0.5231  0.7032 -0.0652
  901MOL0     H18926  11.722   4.058   7.162 -3.7780 -1.8545  0.6149
  901MOL0     H18927  11.707   3.952   7.022  1.2085 -0.7595 -0.2353
  901MOL0     H18928  11.920   3.977   6.956 -3.2460 -0.2456 -0.5104
  901MOL0     H18929  11.867   4.136   7.011 -1.4218  1.5872  3.2691
  901MOL0     H18930  12.181   4.087   7.270 -1.1264 -0.3100  0.1461
  901MOL0     H18931  11.725   3.663   6.777  0.4516 -1.1459 -0.4736
  901MOL0     H18932  11.483   3.597   6.733  3.4636 -0.0591 -2.2707
  902MOL0     O18933   1.228   9.876   9.290  0.5289  0.1070  0.0329
  902MOL0     C18934   1.296   9.923   9.199  0.0519  0.4226 -0.1049
  902MOL0     O18935   1.254  10.006   9.102 -0.2406 -0.7509 -0.5826
  902MOL0     C18936   1.128  10.055   9.091  0.6226  0.1320 -0.5174
  902MOL0     C18937   1.026  10.078   9.188  0.4236 -0.6863 -0.3271
  902MOL0     C18938   0.907  10.144   9.145  0.9163 -0.6245  0.8753
  902MOL0     C18939   0.880  10.174   9.008 -0.7202 -0.2074 -0.2381
  902MOL0     O18940   0.756  10.232   8.995 -0.6151 -0.1410  0.4715
  902MOL0     C18941   0.679  10.185   8.881 -0.0652 -0.5638  0.2527
  902MOL0     C18942   0.536  10.167   8.916 -0.4557  0.3528 -0.0404
  902MOL0     C18943   0.459  10.087   8.809  0.3993 -0.1551  0.0941
  902MOL0     C18944   0.314  10.073   8.837  0.6110  0.6014  0.9632
  902MOL0     C18945   0.263  10.015   8.700  0.5121 -0.3113 -0.8187
  902MOL0     C18946   0.305   9.865   8.670  0.0091 -0.9944  0.1972
  902MOL0     C18947   0.218   9.802   8.566  0.0040  0.5564  0.8260
  902MOL0     C18948   0.247   9.652   8.566 -0.4917  0.3379  0.0331
  902MOL0     N18949   0.385   9.623   8.538  0.1945  0.8532 -0.5054
  902MOL0     C18950   0.462   9.665   8.438  0.1376 -1.5065 -0.2287
  902MOL0     C18951   0.581   9.606   8.464 -0.4435 -0.1667  0.1508
  902MOL0     C18952   0.713   9.649   8.399  0.2265  0.1458 -0.3735
  902MOL0     C18953   0.742   9.581   8.267 -0.5227  1.6192 -0.4999
  902MOL0     C18954   0.650   9.615   8.153 -0.6246 -0.5738  0.1386
  902MOL0     C18955   0.668   9.522   8.028  0.3406  0.1165  0.4732
  902MOL0     O18956   0.576   9.560   7.920  0.0631 -0.4651  0.6157
  902MOL0     C18957   0.446   9.533   7.940 -0.6370 -0.6566  0.1319
  902MOL0     C18958   0.361   9.629   7.890 -0.2897 -0.3700  0.6138
  902MOL0     C18959   0.226   9.615   7.898  0.9972  0.5148  0.5718
  902MOL0     C18960   0.166   9.517   7.980 -0.3046 -0.2022 -0.0223
  902MOL0     C18961   0.018   9.517   8.019 -0.1816  0.4388  0.3873
  902MOL0     O18962  -0.042   9.408   8.081  0.4927  0.1684  0.3951
  902MOL0     C18963  -0.170   9.419   8.129 -0.4500  0.5734 -0.6307
  902MOL0     C18964  -0.182   9.476   8.251 -0.2233  0.2420 -0.9293
  902MOL0     C18965  -0.302   9.462   8.325  0.0669  0.3466 -0.1312
  902MOL0     C18966  -0.413   9.415   8.258  0.1561  0.7585  0.2468
  902MOL0     O18967  -0.535   9.402   8.328  0.7763  0.0863  0.0364
  902MOL0     C18968  -0.652   9.355   8.261  1.5006 -0.8105  0.4254
  902MOL0     C18969  -0.751   9.355   8.378  0.0805  0.7138 -0.0943
  902MOL0     C18970  -0.880   9.293   8.324  0.0074 -0.1092  0.1660
  902MOL0     C18971  -1.002   9.306   8.423  0.1299  0.5416  0.0594
  902MOL0     C18972  -1.134   9.259   8.360  0.2748  0.2419 -1.1731
  902MOL0     C18973  -1.254   9.323   8.436 -0.1039 -0.1326  0.0865
  902MOL0     C18974  -1.396   9.295   8.372  0.7446  0.6076 -0.1200
  902MOL0     C18975  -1.503   9.371   8.454 -0.0676 -1.7107 -0.6159
  902MOL0    Cl18976  -1.679   9.319   8.432 -0.1532 -0.6352 -0.4903
  902MOL0     C18977  -0.401   9.361   8.131  0.1403 -0.2020  0.4679
  902MOL0     C18978  -0.278   9.359   8.070  1.7622  0.4721  0.5502
  902MOL0     O18979  -0.051   9.623   7.993 -0.3083  1.2430  0.4807
  902MOL0     C18980   0.247   9.415   8.030  0.3786 -0.6115  0.2002
  902MOL0     C18981   0.384   9.425   8.009 -0.2254  0.4951  0.4101
  902MOL0     N18982   0.566   9.510   8.564  0.7304  0.2591 -0.7544
  902MOL0     N18983   0.451   9.527   8.609  0.3695  0.7049  0.5115
  902MOL0     C18984   0.974  10.140   8.914  0.0445  1.0684 -0.2101
  902MOL0     C18985   1.097  10.074   8.953 -0.7832  0.1217  0.2525
  902MOL0     C18986   1.438   9.879   9.178  0.1357 -0.0156 -0.7207
  902MOL0     C18987   1.493   9.893   9.052 -0.4163  0.8449 -0.8929
  902MOL0     C18988   1.627   9.850   9.023  1.0147  0.5389 -0.6337
  902MOL0     C18989   1.703   9.801   9.132 -0.8824  0.4547 -0.3472
  902MOL0     O18990   1.836   9.745   9.115  0.9024 -0.4983 -0.6558
  902MOL0     C18991   1.913   9.817   9.015  0.2911  0.7703 -0.3665
  902MOL0     C18992   2.063   9.804   9.047 -0.4121 -0.9530 -0.6007
  902MOL0     C18993   2.084   9.802   9.200  0.1054  0.6573 -0.6710
  902MOL0     C18994   2.230   9.804   9.240  0.3579  0.2046 -0.2397
  902MOL0     C18995   2.256   9.781   9.384 -0.0873 -0.1320  0.6014
  902MOL0     C18996   2.270   9.747   9.503 -0.3135 -0.3314 -0.3049
  902MOL0     C18997   1.646   9.777   9.257  0.5784 -0.0145 -1.8003
  902MOL0     C18998   1.512   9.817   9.277  0.1504  0.8748 -0.1026
  902MOL0     H18999   1.038  10.065   9.295 -0.5643 -4.3470 -0.5311
  902MOL0     H19000   0.837  10.183   9.218  1.7382 -2.6336  2.8384
  902MOL0     H19001   0.716  10.086   8.851 -0.2632 -0.4076 -0.5298
  902MOL0     H19002   0.688  10.250   8.793 -1.8331 -4.1147 -2.8364
  902MOL0     H19003   0.495  10.268   8.923 -1.5614  0.0280 -1.3661
  902MOL0     H19004   0.532  10.122   9.015 -1.2319 -0.7906 -0.5652
  902MOL0     H19005   0.511   9.993   8.794 -1.2135 -1.0028 -0.4299
  902MOL0     H19006   0.460  10.148   8.718 -3.1401 -1.5432 -1.0450
  902MOL0     H19007   0.304   9.999   8.917 -0.5895 -0.9863 -0.5845
  902MOL0     H19008   0.261  10.167   8.857  0.6789  0.7885  0.2812
  902MOL0     H19009   0.296  10.074   8.614  1.5293 -0.4562 -0.5384
  902MOL0     H19010   0.154  10.020   8.694  0.5501 -0.6433 -4.0735
  902MOL0     H19011   0.286   9.814   8.765 -1.8519  3.0620  2.2374
  902MOL0     H19012   0.413   9.869   8.650 -0.1749 -0.8259 -0.8302
  902MOL0     H19013   0.112   9.822   8.585 -1.2239 -1.2769 -2.9499
  902MOL0     H19014   0.239   9.843   8.467 -2.7432  3.4713  1.2860
  902MOL0     H19015   0.195   9.591   8.491 -2.4159  0.2140  1.3949
  902MOL0     H19016   0.230   9.632   8.672 -3.5663  3.3467  0.2968
  902MOL0     H19017   0.434   9.746   8.371  2.5040  0.2303  0.7173
  902MOL0     H19018   0.785   9.625   8.479  0.0473  0.9053  0.0278
  902MOL0     H19019   0.718   9.758   8.397 -0.6319  0.4639  4.1814
  902MOL0     H19020   0.751   9.472   8.277  1.5147  1.9621  2.7325
  902MOL0     H19021   0.843   9.614   8.239  0.4717  2.2020  3.2071
  902MOL0     H19022   0.545   9.617   8.183 -0.3447 -1.3009  1.2011
  902MOL0     H19023   0.656   9.719   8.118 -1.2786 -1.3366 -2.4051
  902MOL0     H19024   0.643   9.418   8.052  0.8139 -0.0784  0.1431
  902MOL0     H19025   0.770   9.514   7.989 -0.2586  0.2541 -1.1772
  902MOL0     H19026   0.403   9.721   7.852 -0.3658 -0.3609  0.5515
  902MOL0     H19027   0.170   9.700   7.861  0.9163  0.2643  0.1093
  902MOL0     H19028  -0.098   9.525   8.300 -0.8988  1.4678 -0.9759
  902MOL0     H19029  -0.310   9.491   8.429 -2.2679  1.4106 -0.5280
  902MOL0     H19030  -0.626   9.260   8.213  1.0803  0.1980 -1.9311
  902MOL0     H19031  -0.683   9.432   8.190  5.2276 -1.6128 -2.4282
  902MOL0     H19032  -0.764   9.461   8.400  0.4290  1.0300 -1.3054
  902MOL0     H19033  -0.721   9.296   8.465  4.1992  1.1801 -0.9959
  902MOL0     H19034  -0.855   9.189   8.302 -1.8684 -0.3893 -0.8310
  902MOL0     H19035  -0.909   9.325   8.224 -0.4675 -0.2519  0.2510
  902MOL0     H19036  -0.969   9.244   8.507  3.7064  2.3072  0.1206
  902MOL0     H19037  -1.012   9.409   8.459 -3.2985 -1.1664  5.1175
  902MOL0     H19038  -1.144   9.151   8.359 -2.8869  0.3155  2.1234
  902MOL0     H19039  -1.133   9.295   8.256 -0.5188  1.2532 -0.8480
  902MOL0     H19040  -1.238   9.431   8.443 -2.3961  0.4211 -1.9094
  902MOL0     H19041  -1.255   9.285   8.539  1.4572 -1.8681 -0.4767
  902MOL0     H19042  -1.395   9.342   8.274  2.2715  2.0320  0.5292
  902MOL0     H19043  -1.424   9.189   8.373  0.6027  0.6462  0.9437
  902MOL0     H19044  -1.497   9.478   8.430  1.9974 -1.1281  2.0168
  902MOL0     H19045  -1.467   9.356   8.556  1.0949 -2.1747 -1.0846
  902MOL0     H19046  -0.477   9.308   8.075 -1.7170  1.2889  1.4508
  902MOL0     H19047  -0.267   9.329   7.966 -2.5940  0.3143 -0.0901
  902MOL0     H19048   0.199   9.349   8.101  2.7923  1.1968  3.8565
  902MOL0     H19049   0.442   9.342   8.046  1.2083  0.3418 -2.0281
  902MOL0     H19050   0.958  10.146   8.807  0.8559 -2.0327 -0.6218
  902MOL0     H19051   1.169  10.042   8.878 -0.8476  1.6177 -0.4969
  902MOL0     H19052   1.448   9.935   8.963 -2.5621 -0.9553 -0.7445
  902MOL0     H19053   1.661   9.847   8.920  3.3292 -1.1673  0.1087
  902MOL0     H19054   1.886   9.923   9.026 -1.5138  0.2975  0.0296
  902MOL0     H19055   1.886   9.788   8.913 -0.2522 -0.0024 -0.0053
  902MOL0     H19056   2.115   9.715   9.011  0.9863  0.1778 -1.4630
  902MOL0     H19057   2.114   9.891   9.004 -2.0436  1.4892  2.0526
  902MOL0     H19058   2.051   9.701   9.222  0.2786  0.7700  0.1282
  902MOL0     H19059   2.032   9.881   9.256 -0.5368 -0.0835 -0.2091
  902MOL0     H19060   2.283   9.722   9.190  0.3773 -2.2449  3.4122
  902MOL0     H19061   2.277   9.895   9.204  1.6868  0.2223  1.3969
  902MOL0     H19062   2.275   9.728   9.608 -0.5774  0.9801 -0.0345
  902MOL0     H19063   1.712   9.737   9.334  0.5897  0.8639 -1.3432
  902MOL0     H19064   1.462   9.813   9.373 -0.5531 -1.1994 -0.5102
  903MOL0     O19065   5.795   4.452   0.670  0.1340  0.1541  0.0539
  903MOL0     C19066   5.735   4.402   0.761  0.1140  0.1325 -0.8069
  903MOL0     O19067   5.783   4.301   0.832  0.5553  0.1832  0.9253
  903MOL0     C19068   5.902   4.256   0.803 -0.5656 -0.6157 -0.9220
  903MOL0     C19069   6.021   4.330   0.819 -0.2903  0.0574 -1.4763
  903MOL0     C19070   6.149   4.282   0.787 -0.2291 -0.7651 -0.7498
  903MOL0     C19071   6.165   4.157   0.730 -0.3555 -0.2176  0.0289
  903MOL0     O19072   6.279   4.093   0.698 -0.5182  0.3181  0.6109
  903MOL0     C19073   6.413   4.143   0.741 -0.0340 -0.2677 -1.0739
  903MOL0     C19074   6.508   4.021   0.731  0.0747 -0.1837 -0.1598
  903MOL0     C19075   6.439   3.886   0.685 -0.1288  0.3877 -0.7410
  903MOL0     C19076   6.553   3.780   0.705 -0.8685 -0.3845 -0.1761
  903MOL0     C19077   6.537   3.659   0.607  0.6742 -0.3770 -0.4336
  903MOL0     C19078   6.607   3.676   0.470  0.3250  0.0535 -1.0955
  903MOL0     C19079   6.602   3.555   0.384  0.6743  0.9871 -0.1022
  903MOL0     C19080   6.717   3.450   0.403  0.5314  0.5080 -0.3157
  903MOL0     N19081   6.669   3.311   0.374 -0.4060  0.4037  0.8146
  903MOL0     C19082   6.702   3.234   0.265 -0.1920 -0.4239  0.0081
  903MOL0     C19083   6.618   3.124   0.265 -1.2757  0.0397  0.1144
  903MOL0     C19084   6.601   3.017   0.163  0.7271  1.1541 -0.1816
  903MOL0     C19085   6.488   3.052   0.067  0.1295  0.6090  0.3203
  903MOL0     C19086   6.496   2.961  -0.061 -0.0539  0.0840  0.5523
  903MOL0     C19087   6.357   2.966  -0.132 -0.7099  0.6123 -0.5051
  903MOL0     O19088   6.269   2.870  -0.079  0.2058  0.1707 -0.4076
  903MOL0     C19089   6.142   2.908  -0.036 -0.1995 -0.3036 -0.4158
  903MOL0     C19090   6.086   2.834   0.064 -0.4892  0.6125 -0.4232
  903MOL0     C19091   5.958   2.859   0.115  0.6656 -0.1966  0.0767
  903MOL0     C19092   5.877   2.967   0.060 -0.0228  0.2560 -0.4880
  903MOL0     C19093   5.735   2.994   0.097 -1.0576  0.5746 -0.3395
  903MOL0     O19094   5.678   3.112   0.057  0.3329 -0.7092 -0.4754
  903MOL0     C19095   5.551   3.138   0.090 -0.2226 -0.5636  0.5493
  903MOL0     C19096   5.449   3.075   0.022 -0.0683  0.4863  0.3024
  903MOL0     C19097   5.313   3.097   0.038  0.0239  0.6646 -0.0565
  903MOL0     C19098   5.272   3.221   0.094  0.1456  0.0614  0.1238
  903MOL0     O19099   5.143   3.277   0.099  0.7560 -0.2386 -0.2460
  903MOL0     C19100   5.065   3.257  -0.026 -0.1672  0.0844 -0.7664
  903MOL0     C19101   4.930   3.331  -0.023 -0.6692 -0.2876 -0.5453
  903MOL0     C19102   4.850   3.301   0.106  0.1888 -0.2303 -0.0435
  903MOL0     C19103   4.726   3.392   0.128 -0.4509  0.2590  0.5939
  903MOL0     C19104   4.598   3.333   0.058  0.2366  0.1940 -0.2881
  903MOL0     C19105   4.473   3.398   0.123 -0.3307  0.3541  0.2343
  903MOL0     C19106   4.343   3.353   0.061 -1.0530 -0.5613 -0.8179
  903MOL0     C19107   4.216   3.435   0.078  0.3257 -1.6807  0.2991
  903MOL0    Cl19108   4.219   3.594  -0.003  0.4701 -0.1273 -0.2362
  903MOL0     C19109   5.374   3.297   0.152  0.1112 -0.3201  0.4420
  903MOL0     C19110   5.508   3.246   0.164  0.3225  0.1049  0.0071
  903MOL0     O19111   5.679   2.901   0.149  0.3767  0.4272 -0.2791
  903MOL0     C19112   5.940   3.050  -0.044  0.2433 -0.3553  0.1963
  903MOL0     C19113   6.068   3.009  -0.095 -0.2976  0.5497  0.2484
  903MOL0     N19114   6.533   3.141   0.368 -0.5816  0.6856  0.3521
  903MOL0     N19115   6.572   3.242   0.433  0.3677 -0.4512 -0.1399
  903MOL0     C19116   6.046   4.083   0.712  0.3025 -1.1372 -0.2675
  903MOL0     C19117   5.919   4.136   0.738 -0.7550 -0.0485  0.1514
  903MOL0     C19118   5.592   4.454   0.786  0.0461  1.3387  0.2133
  903MOL0     C19119   5.547   4.550   0.701  0.5356  0.3404  0.6230
  903MOL0     C19120   5.417   4.597   0.724  0.6521 -0.2182 -0.1599
  903MOL0     C19121   5.332   4.541   0.815  0.5564 -0.1651 -0.3671
  903MOL0     O19122   5.214   4.589   0.846  0.1999  0.0852 -0.6302
  903MOL0     C19123   5.102   4.574   0.754 -0.2631  1.4685  1.0179
  903MOL0     C19124   4.968   4.573   0.832  0.1655 -0.5936  0.3365
  903MOL0     C19125   4.853   4.621   0.736 -0.0348 -1.0867 -0.3429
  903MOL0     C19126   4.801   4.766   0.783 -0.1693 -0.3174  0.5505
  903MOL0     C19127   4.706   4.748   0.894  0.1582 -0.1373  0.4383
  903MOL0     C19128   4.626   4.700   0.963 -0.4083  0.6510  0.2669
  903MOL0     C19129   5.379   4.444   0.897  0.3456  0.1941  0.3222
  903MOL0     C19130   5.509   4.401   0.888  0.1975 -0.0825 -0.4795
  903MOL0     H19131   6.004   4.433   0.850  0.2268 -0.7204  1.6884
  903MOL0     H19132   6.225   4.357   0.806  0.4693 -1.4040 -0.9471
  903MOL0     H19133   6.414   4.178   0.845  3.6044 -1.0678 -0.7118
  903MOL0     H19134   6.442   4.226   0.675  1.8043  0.2159  0.2593
  903MOL0     H19135   6.545   4.005   0.833 -1.1527 -1.0679  0.1700
  903MOL0     H19136   6.594   4.045   0.667 -0.4132  1.5181 -0.2222
  903MOL0     H19137   6.396   3.898   0.586 -4.3009  0.9047  0.9371
  903MOL0     H19138   6.355   3.859   0.750  0.5016  0.8872  0.3190
  903MOL0     H19139   6.650   3.815   0.667 -1.1628 -1.9994 -2.5743
  903MOL0     H19140   6.557   3.743   0.808 -1.3292 -0.7044 -0.2767
  903MOL0     H19141   6.430   3.642   0.589  0.9948 -2.2595 -0.7795
  903MOL0     H19142   6.577   3.571   0.658  4.0205  0.4976 -1.3557
  903MOL0     H19143   6.709   3.710   0.489  0.0389  0.5869 -0.4675
  903MOL0     H19144   6.555   3.753   0.412 -0.0793  0.9430  0.3766
  903MOL0     H19145   6.504   3.508   0.395 -0.1342  2.8716  1.3596
  903MOL0     H19146   6.608   3.582   0.278 -1.4309 -1.5245 -0.9779
  903MOL0     H19147   6.742   3.454   0.509 -0.2415  0.6185 -0.1255
  903MOL0     H19148   6.805   3.482   0.348  1.1997  2.0825  1.5355
  903MOL0     H19149   6.781   3.254   0.192 -1.0385 -0.7361 -1.0169
  903MOL0     H19150   6.559   2.928   0.210 -0.7971  1.4060 -0.9971
  903MOL0     H19151   6.689   2.995   0.103 -1.6364 -1.5381 -3.0211
  903MOL0     H19152   6.497   3.152   0.023  2.9390 -0.7571 -2.6656
  903MOL0     H19153   6.390   3.034   0.112  0.9780  1.8592  2.8033
  903MOL0     H19154   6.569   3.001  -0.132  6.1760 -2.3673  4.7612
  903MOL0     H19155   6.522   2.860  -0.028  0.4158 -0.5347 -1.5859
  903MOL0     H19156   6.368   2.947  -0.239  0.5799  2.5592 -0.7523
  903MOL0     H19157   6.315   3.066  -0.116  0.8778  1.1474  0.5415
  903MOL0     H19158   6.149   2.761   0.114  1.3394  3.2000  1.3210
  903MOL0     H19159   5.926   2.804   0.204 -0.6434  4.0302  2.5084
  903MOL0     H19160   5.477   2.993  -0.044  1.1433 -0.2525  1.6692
  903MOL0     H19161   5.242   3.031  -0.010  0.3110 -1.6168  2.3867
  903MOL0     H19162   5.053   3.148  -0.037  1.5932 -0.2811  0.4939
  903MOL0     H19163   5.120   3.285  -0.116 -1.5305  0.0262 -1.6492
  903MOL0     H19164   4.871   3.311  -0.113  0.9095  0.6091 -1.8600
  903MOL0     H19165   4.955   3.437  -0.013 -1.7254 -0.2499  2.5081
  903MOL0     H19166   4.912   3.304   0.195  2.3967 -2.9020 -1.3443
  903MOL0     H19167   4.820   3.196   0.097  1.7225 -0.7798  1.0539
  903MOL0     H19168   4.710   3.399   0.236  1.2116 -2.2199  1.1019
  903MOL0     H19169   4.752   3.492   0.092 -0.0853 -0.0921 -0.1365
  903MOL0     H19170   4.579   3.229   0.083 -0.3149  0.7912  1.9960
  903MOL0     H19171   4.595   3.350  -0.050 -2.9728  1.0155 -0.1705
  903MOL0     H19172   4.492   3.505   0.123  0.4633  0.2259  0.1248
  903MOL0     H19173   4.483   3.375   0.229 -1.0979 -0.2036  0.1919
  903MOL0     H19174   4.359   3.347  -0.047 -1.2318  0.7664 -0.9412
  903MOL0     H19175   4.326   3.253   0.101  0.9956  0.5456  3.4796
  903MOL0     H19176   4.203   3.465   0.183  1.6013  2.3137 -0.4786
  903MOL0     H19177   4.135   3.378   0.033  1.5552 -0.2371 -4.3282
  903MOL0     H19178   5.335   3.378   0.213  2.2323  2.4897 -1.6818
  903MOL0     H19179   5.583   3.299   0.223  0.6479 -2.1121  1.7082
  903MOL0     H19180   5.877   3.122  -0.095  2.5764  1.2104 -0.6550
  903MOL0     H19181   6.102   3.068  -0.179 -3.7332  1.0706 -0.9029
  903MOL0     H19182   6.057   3.996   0.648 -0.0076 -0.9905 -0.5191
  903MOL0     H19183   5.825   4.087   0.714 -1.1264 -0.1211  1.6601
  903MOL0     H19184   5.601   4.587   0.614  2.6737  1.7415  2.4499
  903MOL0     H19185   5.390   4.692   0.678 -1.6538 -1.1561 -0.8561
  903MOL0     H19186   5.111   4.485   0.692 -0.5222  1.5860  0.8110
  903MOL0     H19187   5.108   4.662   0.689 -4.5767  2.4647  1.6452
  903MOL0     H19188   4.949   4.481   0.887 -2.8078  0.4470  1.2086
  903MOL0     H19189   4.972   4.651   0.909 -2.0848  0.5141 -0.5604
  903MOL0     H19190   4.767   4.553   0.743 -3.0115  2.0883 -2.4636
  903MOL0     H19191   4.876   4.640   0.631  1.0529  0.0032  0.0735
  903MOL0     H19192   4.888   4.827   0.810 -0.9183 -0.4255  3.5942
  903MOL0     H19193   4.750   4.818   0.702 -0.9532  0.2174  1.3614
  903MOL0     H19194   4.553   4.665   1.033  0.6242  0.4115  1.2400
  903MOL0     H19195   5.327   4.400   0.981  2.8127 -0.5699  1.5299
  903MOL0     H19196   5.547   4.332   0.962  1.6180 -0.6009 -1.6558
  904MOL0     O19197   7.403   4.571   5.425 -0.5153 -0.2321  0.4381
  904MOL0     C19198   7.436   4.462   5.375 -0.3654  0.5596 -0.0774
  904MOL0     O19199   7.351   4.356   5.349  0.9038  0.0575  0.5850
  904MOL0     C19200   7.219   4.376   5.329  0.9678  0.0440 -0.4163
  904MOL0     C19201   7.127   4.486   5.328  0.4375  0.5422  1.0847
  904MOL0     C19202   6.987   4.458   5.323  0.4437  0.7180  1.2865
  904MOL0     C19203   6.934   4.330   5.322  0.1467 -0.6368 -0.0558
  904MOL0     O19204   6.794   4.327   5.315  0.0214 -0.7440  0.2543
  904MOL0     C19205   6.731   4.311   5.441 -0.5136  0.4460  0.3935
  904MOL0     C19206   6.714   4.163   5.463 -0.7507  0.5768 -0.3688
  904MOL0     C19207   6.607   4.128   5.574  0.1881 -0.1191 -0.8777
  904MOL0     C19208   6.625   3.996   5.646 -0.1991  0.1976 -0.2888
  904MOL0     C19209   6.731   3.992   5.764  0.1254 -0.0819 -0.0281
  904MOL0     C19210   6.767   3.854   5.804  0.1250 -0.9718  0.1561
  904MOL0     C19211   6.858   3.845   5.928 -0.6708 -0.8421  1.0439
  904MOL0     C19212   6.903   3.701   5.948 -0.4371  0.7621  0.0404
  904MOL0     N19213   6.794   3.624   6.023  0.1528 -0.7861 -0.3022
  904MOL0     C19214   6.750   3.665   6.149  0.4534 -0.9228  0.0037
  904MOL0     C19215   6.625   3.602   6.157 -0.4879  0.4258 -0.3013
  904MOL0     C19216   6.523   3.619   6.281  0.6294 -0.3248  0.2489
  904MOL0     C19217   6.459   3.489   6.317  0.7341 -0.4734  0.3455
  904MOL0     C19218   6.379   3.468   6.440 -0.2715  0.2923  0.0887
  904MOL0     C19219   6.459   3.481   6.572 -0.5354 -0.6426 -0.1080
  904MOL0     O19220   6.449   3.609   6.634 -0.0473 -0.1633 -0.4628
  904MOL0     C19221   6.317   3.655   6.669 -0.6942  0.3757  0.0608
  904MOL0     C19222   6.199   3.575   6.665 -0.1647 -0.0382  0.0617
  904MOL0     C19223   6.068   3.626   6.691 -0.2452 -0.2157  0.3283
  904MOL0     C19224   6.049   3.764   6.737  0.4190  0.0740 -0.8400
  904MOL0     C19225   5.918   3.812   6.776  0.4090  0.0902  1.3970
  904MOL0     O19226   5.909   3.921   6.855  0.4278 -0.2775  0.7410
  904MOL0     C19227   5.782   3.964   6.880  0.3133 -0.6631  1.2695
  904MOL0     C19228   5.684   3.892   6.955  0.6344  0.3077 -0.0258
  904MOL0     C19229   5.559   3.948   6.977 -0.6904 -0.0606 -0.0099
  904MOL0     C19230   5.519   4.072   6.919 -1.0864  0.0339  0.7762
  904MOL0     O19231   5.392   4.128   6.933 -0.1741 -0.9018 -0.3097
  904MOL0     C19232   5.299   4.078   7.029 -0.1438 -0.1146 -0.7242
  904MOL0     C19233   5.172   4.170   7.045  0.4329  0.5427  0.3108
  904MOL0     C19234   5.059   4.087   7.086  0.3491 -0.0707 -0.3207
  904MOL0     C19235   4.939   4.181   7.116  1.4674  1.3643 -0.0025
  904MOL0     C19236   4.806   4.102   7.115 -0.0048  1.1741 -1.1675
  904MOL0     C19237   4.787   4.014   7.241  0.5623 -0.9616 -0.1449
  904MOL0     C19238   4.755   4.096   7.368  0.3283  0.3508  0.5275
  904MOL0     C19239   4.647   4.203   7.362  0.2017  0.2015  0.0954
  904MOL0    Cl19240   4.709   4.367   7.303  0.4669 -0.1671  0.3391
  904MOL0     C19241   5.610   4.135   6.839 -0.8761 -0.8786  0.4246
  904MOL0     C19242   5.738   4.084   6.827 -1.3831  0.6420  0.1696
  904MOL0     O19243   5.821   3.750   6.720  0.8840  0.0408 -0.0343
  904MOL0     C19244   6.166   3.841   6.744 -0.5166  0.2188 -0.0222
  904MOL0     C19245   6.291   3.783   6.710 -0.2077 -0.8823 -0.5500
  904MOL0     N19246   6.610   3.529   6.041 -0.0991  0.5711 -0.1893
  904MOL0     N19247   6.703   3.546   5.963  0.4239  0.1192 -0.1419
  904MOL0     C19248   7.017   4.229   5.313  0.1727 -0.0855 -0.0915
  904MOL0     C19249   7.158   4.248   5.325 -0.1598  0.1911  0.6596
  904MOL0     C19250   7.586   4.432   5.396  0.3769 -0.3287  0.1486
  904MOL0     C19251   7.674   4.536   5.420 -0.5759 -0.4290  0.4783
  904MOL0     C19252   7.805   4.514   5.462 -0.0123 -0.3938 -0.3785
  904MOL0     C19253   7.853   4.387   5.476 -0.1659  0.4642 -0.0959
  904MOL0     O19254   7.986   4.379   5.520  0.6987  0.8695 -0.6186
  904MOL0     C19255   8.046   4.250   5.533  0.4257  0.7287 -0.2520
  904MOL0     C19256   8.194   4.250   5.565 -0.1589  0.2003  0.2731
  904MOL0     C19257   8.288   4.318   5.456 -0.7126 -0.1018 -1.8849
  904MOL0     C19258   8.309   4.249   5.321  0.3524  0.5074 -0.8511
  904MOL0     C19259   8.432   4.291   5.256  0.0609 -0.8079 -0.0934
  904MOL0     C19260   8.537   4.333   5.203  0.0341  0.5665 -0.6473
  904MOL0     C19261   7.770   4.278   5.442  0.2265  0.5387 -0.5098
  904MOL0     C19262   7.636   4.303   5.398 -0.1920  0.3944 -0.4722
  904MOL0     H19263   7.154   4.591   5.325 -2.4704  1.4160 -3.1435
  904MOL0     H19264   6.908   4.533   5.319 -1.8392 -1.4987 -3.2288
  904MOL0     H19265   6.627   4.346   5.436 -2.1735 -3.7580  1.4211
  904MOL0     H19266   6.778   4.356   5.529 -0.1070 -1.0621  0.9849
  904MOL0     H19267   6.804   4.107   5.491 -0.9605  0.2102 -0.4150
  904MOL0     H19268   6.690   4.108   5.372  0.3638 -1.7655  0.6439
  904MOL0     H19269   6.506   4.131   5.533 -0.2249  1.0012  0.1633
  904MOL0     H19270   6.607   4.210   5.647 -2.7685 -1.8833  1.3295
  904MOL0     H19271   6.527   3.958   5.673 -0.6599  1.6568  0.1704
  904MOL0     H19272   6.663   3.923   5.574 -0.5337  1.1963 -1.5205
  904MOL0     H19273   6.688   4.050   5.846 -0.3583  0.4406 -0.6347
  904MOL0     H19274   6.826   4.040   5.738  0.2367  0.2691  0.9816
  904MOL0     H19275   6.816   3.807   5.718 -0.6468 -0.6746 -0.4550
  904MOL0     H19276   6.672   3.805   5.826 -2.4234  1.9808 -3.2070
  904MOL0     H19277   6.943   3.915   5.928  0.4849 -2.1295  3.0279
  904MOL0     H19278   6.797   3.889   6.008  3.3403  4.6560  1.7082
  904MOL0     H19279   6.994   3.704   6.010 -0.5148 -3.1053  0.6049
  904MOL0     H19280   6.931   3.644   5.859  0.5685 -2.7521  2.3774
  904MOL0     H19281   6.808   3.730   6.214 -1.4411 -0.4358  1.3090
  904MOL0     H19282   6.448   3.696   6.260  2.2147  1.0246 -0.7862
  904MOL0     H19283   6.583   3.660   6.363  0.9975 -0.7676  0.2051
  904MOL0     H19284   6.538   3.413   6.307  3.4942  2.1907  0.5642
  904MOL0     H19285   6.393   3.467   6.233  2.0038 -0.5597 -0.6659
  904MOL0     H19286   6.294   3.536   6.440 -0.3286  0.2301  0.7501
  904MOL0     H19287   6.333   3.369   6.440 -1.9124  1.0044  1.3322
  904MOL0     H19288   6.562   3.466   6.540 -1.1031 -2.5466 -1.2263
  904MOL0     H19289   6.427   3.409   6.649 -1.5772  2.0629  2.1637
  904MOL0     H19290   6.197   3.472   6.632  1.5758 -0.0252 -0.1754
  904MOL0     H19291   5.986   3.561   6.663  0.9668 -2.1794  1.1445
  904MOL0     H19292   5.721   3.795   6.988  1.2568  0.5132 -0.1050
  904MOL0     H19293   5.492   3.891   7.041 -0.8025 -0.6152 -0.6057
  904MOL0     H19294   5.342   4.085   7.129  0.0833 -0.1343 -0.8203
  904MOL0     H19295   5.273   3.974   7.004 -0.0819 -0.6318  1.2271
  904MOL0     H19296   5.140   4.205   6.946  1.1658 -2.0747 -0.9429
  904MOL0     H19297   5.198   4.262   7.097 -2.7853  3.0803 -2.1094
  904MOL0     H19298   5.080   4.032   7.178 -0.1618  1.6411  0.8809
  904MOL0     H19299   5.031   4.007   7.017 -0.3613 -2.7582  2.8472
  904MOL0     H19300   4.961   4.234   7.209 -1.9877  2.3871  0.4141
  904MOL0     H19301   4.925   4.258   7.039  0.9471 -0.8173 -2.2321
  904MOL0     H19302   4.805   4.032   7.031  2.2307  1.3041 -1.3436
  904MOL0     H19303   4.726   4.175   7.098  0.6819  2.4713  0.8140
  904MOL0     H19304   4.872   3.947   7.256 -0.1343 -2.2022 -1.4875
  904MOL0     H19305   4.703   3.946   7.224 -0.2536 -0.2260  0.8002
  904MOL0     H19306   4.730   4.035   7.455 -1.7065 -0.7256 -0.7453
  904MOL0     H19307   4.852   4.140   7.393 -0.5517  1.5113  2.0888
  904MOL0     H19308   4.599   4.220   7.459  1.8239  1.6022  0.7176
  904MOL0     H19309   4.562   4.166   7.305  1.2114 -0.5016 -1.0011
  904MOL0     H19310   5.587   4.232   6.796  1.1703 -0.0521  1.0802
  904MOL0     H19311   5.800   4.148   6.766 -1.9844  0.3511 -0.7646
  904MOL0     H19312   6.143   3.943   6.776  0.1405  0.4162 -0.1629
  904MOL0     H19313   6.376   3.850   6.717 -2.0359  1.7137 -1.7922
  904MOL0     H19314   6.968   4.133   5.310 -1.3767  0.6867 -0.5262
  904MOL0     H19315   7.216   4.157   5.317  0.4536  0.6069  0.2996
  904MOL0     H19316   7.640   4.638   5.408  2.5687  0.6620 -0.0059
  904MOL0     H19317   7.876   4.591   5.491  1.6878  0.2004 -5.1734
  904MOL0     H19318   8.026   4.179   5.453  2.6842 -1.4624  1.0001
  904MOL0     H19319   8.013   4.193   5.621  1.7678 -0.7585 -0.6705
  904MOL0     H19320   8.213   4.301   5.660 -4.5692  0.4757  1.2655
  904MOL0     H19321   8.228   4.151   5.597 -0.5886 -0.4649 -1.2725
  904MOL0     H19322   8.384   4.323   5.508 -1.1685  4.1521 -1.0678
  904MOL0     H19323   8.255   4.420   5.435  0.6592  1.2360  1.7893
  904MOL0     H19324   8.302   4.140   5.328 -1.3094  0.5844 -0.8819
  904MOL0     H19325   8.230   4.271   5.248 -0.9739 -0.4086  0.2493
  904MOL0     H19326   8.624   4.374   5.156  2.4618  0.3135  3.1296
  904MOL0     H19327   7.810   4.177   5.439  1.1472  0.9150 -1.5737
  904MOL0     H19328   7.578   4.216   5.370  1.1476 -0.9642  0.7792
  905MOL0     O19329   9.094   0.632   6.413 -0.3111 -0.9515 -0.0570
  905MOL0     C19330   9.161   0.736   6.393 -0.5841  0.6525  0.1882
  905MOL0     O19331   9.106   0.852   6.351  0.1514 -0.2620 -0.1021
  905MOL0     C19332   8.970   0.868   6.335  0.3833  0.3346  0.1030
  905MOL0     C19333   8.877   0.804   6.411  0.7653 -1.1051  0.2782
  905MOL0     C19334   8.742   0.808   6.377  0.3900  0.3710 -0.3113
  905MOL0     C19335   8.697   0.905   6.277 -1.8087  0.3062 -0.5839
  905MOL0     O19336   8.568   0.932   6.240  0.0730  0.8064 -0.0404
  905MOL0     C19337   8.464   0.866   6.314  0.9079 -0.5918 -0.3039
  905MOL0     C19338   8.338   0.949   6.284  0.0358 -0.3500  1.0262
  905MOL0     C19339   8.307   0.928   6.134 -0.0474 -0.0118 -0.1598
  905MOL0     C19340   8.205   1.013   6.056 -0.1680  0.2480 -0.0766
  905MOL0     C19341   8.068   1.003   6.135 -0.7650 -0.6863  0.0654
  905MOL0     C19342   7.956   1.078   6.068  0.3798 -0.4280 -0.1172
  905MOL0     C19343   7.820   1.053   6.139 -0.2198 -0.4483  0.0579
  905MOL0     C19344   7.696   1.101   6.051  0.1840 -1.0313  1.0882
  905MOL0     N19345   7.580   1.071   6.128 -0.2304 -0.0537  0.4565
  905MOL0     C19346   7.521   1.158   6.222  1.2497  0.1468 -0.2846
  905MOL0     C19347   7.415   1.079   6.262 -0.1855  0.4432  0.8359
  905MOL0     C19348   7.314   1.119   6.371 -0.2815 -0.7062  0.1304
  905MOL0     C19349   7.178   1.125   6.307  0.1196 -0.5242 -0.4604
  905MOL0     C19350   7.143   1.243   6.212 -0.0779  0.1061  0.0651
  905MOL0     C19351   6.988   1.253   6.204 -0.4029 -0.1075  0.3090
  905MOL0     O19352   6.960   1.380   6.139 -0.6661 -0.5520  0.4086
  905MOL0     C19353   6.824   1.397   6.108 -0.0161  0.2330 -1.3715
  905MOL0     C19354   6.736   1.290   6.078  0.4948 -0.2517  0.3833
  905MOL0     C19355   6.601   1.318   6.051 -1.0196  0.4921 -0.4951
  905MOL0     C19356   6.545   1.447   6.065  0.8104 -0.0371  0.1241
  905MOL0     C19357   6.402   1.476   6.039  0.0986  1.4853  0.7859
  905MOL0     O19358   6.340   1.377   5.965  0.6439 -0.6556 -0.2288
  905MOL0     C19359   6.214   1.387   5.910  0.1029 -0.2392  0.9929
  905MOL0     C19360   6.181   1.357   5.772  0.2925  0.2815  0.2134
  905MOL0     C19361   6.050   1.380   5.727  0.0414  0.0230 -0.0883
  905MOL0     C19362   5.952   1.447   5.805 -0.5146 -0.0884 -1.1168
  905MOL0     O19363   5.838   1.474   5.743  0.2726  0.2249  0.0652
  905MOL0     C19364   5.735   1.544   5.818 -0.2330  0.2421 -0.6062
  905MOL0     C19365   5.612   1.557   5.734  0.3270  0.5238 -0.6773
  905MOL0     C19366   5.494   1.613   5.820 -0.2675 -0.2467 -0.3312
  905MOL0     C19367   5.357   1.570   5.762 -0.1123 -0.8188 -0.1823
  905MOL0     C19368   5.238   1.641   5.824  0.4874  0.6731  0.1471
  905MOL0     C19369   5.118   1.622   5.733  0.6508  0.7229  0.3510
  905MOL0     C19370   4.999   1.732   5.753 -0.6017 -0.1399 -0.1735
  905MOL0     C19371   4.914   1.693   5.873 -0.4339  0.0922  0.5070
  905MOL0    Cl19372   4.794   1.811   5.879 -0.1446  0.1780  0.1673
  905MOL0     C19373   5.979   1.463   5.947 -1.0508 -0.0548  0.2705
  905MOL0     C19374   6.110   1.436   5.986 -0.4774  0.0997 -0.7000
  905MOL0     O19375   6.352   1.584   6.067 -0.0903  0.5222 -0.4195
  905MOL0     C19376   6.637   1.546   6.106 -0.0218 -0.6001 -0.1309
  905MOL0     C19377   6.769   1.527   6.123  0.5599 -0.1724  0.4680
  905MOL0     N19378   7.427   0.945   6.210 -0.3567 -0.4229 -0.1316
  905MOL0     N19379   7.530   0.941   6.133  0.1739 -0.5603 -0.6798
  905MOL0     C19380   8.798   0.967   6.198  1.1681  0.0920  0.6156
  905MOL0     C19381   8.931   0.944   6.230 -0.3176  0.5309  0.0819
  905MOL0     C19382   9.315   0.714   6.402  0.0291 -0.0725  0.4004
  905MOL0     C19383   9.381   0.613   6.482 -0.6752  0.5299  0.4963
  905MOL0     C19384   9.522   0.612   6.471 -0.0633  0.0913 -0.5436
  905MOL0     C19385   9.601   0.699   6.387  0.7829 -0.4516 -0.0082
  905MOL0     O19386   9.740   0.679   6.376 -0.3042  0.1042  0.0817
  905MOL0     C19387   9.823   0.772   6.305  0.3956  0.1969  0.2653
  905MOL0     C19388   9.983   0.740   6.294  0.9108  0.2478  0.8173
  905MOL0     C19389  10.031   0.606   6.232 -0.3966 -0.0463 -0.0296
  905MOL0     C19390   9.984   0.577   6.090 -0.9687 -0.1284  0.3129
  905MOL0     C19391  10.078   0.483   6.023 -0.0317 -0.5197 -0.1489
  905MOL0     C19392  10.157   0.401   5.976 -0.2511  0.1087 -0.9271
  905MOL0     C19393   9.532   0.791   6.307 -0.4993 -0.3103 -0.2148
  905MOL0     C19394   9.395   0.795   6.314 -0.2366 -0.3453 -0.6691
  905MOL0     H19395   8.898   0.732   6.489  0.0277 -1.0642  0.5263
  905MOL0     H19396   8.666   0.746   6.423  1.6877 -0.9571  0.0950
  905MOL0     H19397   8.479   0.874   6.422 -3.0040  1.5797  0.2606
  905MOL0     H19398   8.449   0.761   6.289 -2.2933 -0.3648  0.2392
  905MOL0     H19399   8.379   1.050   6.300  0.1056 -0.2434  0.2017
  905MOL0     H19400   8.249   0.934   6.347  1.0533  0.5537  2.7770
  905MOL0     H19401   8.276   0.824   6.118 -0.1769 -0.0209  0.1557
  905MOL0     H19402   8.405   0.930   6.085  1.3681  5.2509  2.2236
  905MOL0     H19403   8.233   1.118   6.068 -1.4963  0.6503 -0.3310
  905MOL0     H19404   8.190   0.975   5.954 -0.5548 -1.6688  0.6576
  905MOL0     H19405   8.087   1.040   6.236  1.1741  0.1878 -0.5698
  905MOL0     H19406   8.029   0.900   6.137 -0.8165 -0.7210 -1.8045
  905MOL0     H19407   7.962   1.060   5.960  2.7441  1.5683 -0.4047
  905MOL0     H19408   7.981   1.184   6.080  0.2681 -0.4051 -0.0930
  905MOL0     H19409   7.814   0.946   6.163  1.2664 -0.8742 -1.2785
  905MOL0     H19410   7.831   1.110   6.231 -2.1733  3.3806 -1.8031
  905MOL0     H19411   7.698   1.026   5.971 -2.9870 -0.3898  0.3044
  905MOL0     H19412   7.686   1.206   6.022 -2.1242 -1.0344  1.7149
  905MOL0     H19413   7.522   1.264   6.242  1.2637  0.3348 -1.2794
  905MOL0     H19414   7.357   1.208   6.418  2.2846 -2.7195  1.8382
  905MOL0     H19415   7.322   1.045   6.450  1.0198  0.4642  1.1405
  905MOL0     H19416   7.109   1.124   6.391  2.1336 -1.6499  1.2748
  905MOL0     H19417   7.154   1.036   6.247  0.8636 -1.1701  0.1735
  905MOL0     H19418   7.197   1.333   6.242  2.0887  2.4376 -8.1049
  905MOL0     H19419   7.182   1.225   6.111 -0.0731 -0.8865  0.2362
  905MOL0     H19420   6.951   1.257   6.307  0.7433  1.8205  0.6874
  905MOL0     H19421   6.958   1.161   6.153  0.0810  1.1308 -2.3824
  905MOL0     H19422   6.762   1.185   6.077  1.9035  0.0806 -0.0606
  905MOL0     H19423   6.542   1.227   6.047 -0.9548  0.4080  0.3373
  905MOL0     H19424   6.248   1.304   5.705  1.0617 -0.0770  1.2463
  905MOL0     H19425   6.028   1.344   5.626  0.5533  1.7890 -0.8703
  905MOL0     H19426   5.772   1.641   5.850  1.8136 -0.6332 -0.1922
  905MOL0     H19427   5.720   1.484   5.908  1.7774 -1.3159 -1.2243
  905MOL0     H19428   5.588   1.457   5.694 -0.9264 -1.5542  4.5003
  905MOL0     H19429   5.639   1.619   5.648 -0.9428  0.4446 -1.1673
  905MOL0     H19430   5.506   1.721   5.829 -0.3947 -0.3403  1.2146
  905MOL0     H19431   5.508   1.567   5.919  0.1945  0.2287 -0.1726
  905MOL0     H19432   5.362   1.606   5.658  3.9962  0.7929  0.3781
  905MOL0     H19433   5.339   1.463   5.770  1.0829 -0.9198  1.5881
  905MOL0     H19434   5.264   1.747   5.833  0.3333  0.5435  2.9974
  905MOL0     H19435   5.215   1.599   5.923 -0.2100 -0.0735 -0.3211
  905MOL0     H19436   5.079   1.522   5.748 -1.3806  1.6003  1.2522
  905MOL0     H19437   5.144   1.636   5.627  1.0732 -2.9445 -0.1403
  905MOL0     H19438   5.027   1.838   5.761  0.2954 -0.4771  1.9583
  905MOL0     H19439   4.923   1.735   5.675 -2.8432  2.5193  1.8879
  905MOL0     H19440   4.976   1.678   5.962 -1.0407  0.0315  0.9176
  905MOL0     H19441   4.866   1.596   5.855  2.3774 -1.6374  1.5694
  905MOL0     H19442   5.916   1.509   6.022  1.8591 -2.4701  4.6030
  905MOL0     H19443   6.123   1.464   6.090  0.2458  0.7295 -0.9510
  905MOL0     H19444   6.604   1.644   6.136  0.5512 -1.1920  2.7889
  905MOL0     H19445   6.833   1.604   6.165  2.6529 -1.4441 -0.1795
  905MOL0     H19446   8.775   1.033   6.115 -0.6713 -0.8132  0.3393
  905MOL0     H19447   9.006   0.996   6.170  0.1442 -1.6636 -1.3658
  905MOL0     H19448   9.325   0.536   6.533  1.4899 -1.9941 -0.6498
  905MOL0     H19449   9.570   0.534   6.530 -1.7551 -0.9259 -0.4564
  905MOL0     H19450   9.806   0.871   6.348 -2.1465 -0.7608  1.7575
  905MOL0     H19451   9.784   0.771   6.203  0.4206  0.9205  0.2488
  905MOL0     H19452  10.022   0.825   6.238  2.5621  0.4547  2.2075
  905MOL0     H19453  10.030   0.766   6.389 -2.2649 -0.5547  2.7451
  905MOL0     H19454   9.998   0.520   6.291  0.3706 -1.4311 -1.5341
  905MOL0     H19455  10.140   0.610   6.237 -0.4148 -0.6950  1.6489
  905MOL0     H19456   9.886   0.529   6.090 -0.6848 -0.7838  2.4628
  905MOL0     H19457   9.984   0.669   6.030 -1.2079 -0.3993 -0.1082
  905MOL0     H19458  10.224   0.320   5.958 -1.8582 -2.2387  2.4257
  905MOL0     H19459   9.573   0.861   6.235  0.4864  2.1607  2.5719
  905MOL0     H19460   9.354   0.868   6.245  3.9026  2.2413 -0.7236
  906MOL0     O19461   9.087   6.979   7.991 -0.1121  0.6350  0.2845
  906MOL0     C19462   9.172   6.897   7.966 -0.7934 -0.3935 -0.5263
  906MOL0     O19463   9.154   6.761   7.979  0.3621  0.5670  0.0746
  906MOL0     C19464   9.026   6.736   8.021  0.8984  0.6420  0.2968
  906MOL0     C19465   8.970   6.761   8.150 -0.5125 -1.3033  0.9235
  906MOL0     C19466   8.832   6.749   8.166  0.1721 -0.3156 -0.0519
  906MOL0     C19467   8.743   6.725   8.062  0.7286 -0.4441  0.0788
  906MOL0     O19468   8.609   6.709   8.073  0.1932  0.3508  0.1431
  906MOL0     C19469   8.545   6.778   8.186 -1.7531 -0.3376  0.1026
  906MOL0     C19470   8.400   6.797   8.164  0.6765 -0.2445  0.1593
  906MOL0     C19471   8.330   6.684   8.252 -0.4399 -0.2289 -0.4837
  906MOL0     C19472   8.178   6.662   8.213  0.1992  0.2643  0.7971
  906MOL0     C19473   8.091   6.598   8.326 -0.2025  0.3887 -0.0162
  906MOL0     C19474   8.157   6.468   8.366  0.9981  0.0828 -0.5298
  906MOL0     C19475   8.170   6.353   8.265 -0.2928 -0.5351  0.6449
  906MOL0     C19476   8.040   6.329   8.181 -0.6705 -0.1645 -0.7160
  906MOL0     N19477   8.072   6.189   8.120  0.1728 -0.2756 -0.6527
  906MOL0     C19478   8.170   6.151   8.037 -0.9984 -0.0195 -1.3189
  906MOL0     C19479   8.171   6.015   8.024  0.7667  0.0766 -0.8737
  906MOL0     C19480   8.269   5.929   7.948  0.0797 -0.4247  0.8970
  906MOL0     C19481   8.405   5.947   8.006  0.7724 -0.4828 -0.4618
  906MOL0     C19482   8.475   6.079   7.981  0.2175  0.4090 -0.3238
  906MOL0     C19483   8.628   6.056   7.988 -0.7208 -0.1676  0.2663
  906MOL0     O19484   8.685   5.968   7.887  0.1116  0.3390 -0.1498
  906MOL0     C19485   8.822   5.962   7.871 -0.4606 -0.5531  1.1706
  906MOL0     C19486   8.890   5.942   7.744  0.9379  0.1265  0.5195
  906MOL0     C19487   9.020   5.956   7.720 -0.1800 -0.0172 -0.1729
  906MOL0     C19488   9.107   5.981   7.827  0.0953  0.1952 -0.0888
  906MOL0     C19489   9.254   5.998   7.797  0.0473  0.9504 -0.1410
  906MOL0     O19490   9.328   6.027   7.899 -0.2222 -0.0602  0.8296
  906MOL0     C19491   9.467   6.035   7.885 -0.9475 -0.1744 -1.1877
  906MOL0     C19492   9.563   5.965   7.960  0.6839  0.3205 -0.3059
  906MOL0     C19493   9.685   6.030   7.983 -0.6754 -0.4330 -0.2801
  906MOL0     C19494   9.723   6.139   7.901  0.1476 -0.0709 -1.3976
  906MOL0     O19495   9.854   6.168   7.923  0.2521 -0.0981  0.4151
  906MOL0     C19496   9.932   6.253   7.829  0.2018 -0.3478  0.2693
  906MOL0     C19497  10.078   6.248   7.860 -0.1713  0.4116  0.0118
  906MOL0     C19498  10.106   6.254   8.007 -0.1541 -0.0757  0.0943
  906MOL0     C19499  10.255   6.252   8.041 -1.3451  0.3498  0.3698
  906MOL0     C19500  10.301   6.290   8.185 -0.5579  0.1423  0.0278
  906MOL0     C19501  10.271   6.434   8.219 -0.3719 -0.7039 -1.3175
  906MOL0     C19502  10.308   6.461   8.371  0.5716 -0.2300 -0.5872
  906MOL0     C19503  10.279   6.605   8.412  0.7030  0.1599  0.5609
  906MOL0    Cl19504  10.095   6.639   8.380 -0.0982 -0.0659  0.2238
  906MOL0     C19505   9.639   6.192   7.810  0.2418  1.2062 -0.5645
  906MOL0     C19506   9.511   6.143   7.812  0.3768 -0.0402  0.2255
  906MOL0     O19507   9.284   5.980   7.676 -0.0740  0.2262  0.5042
  906MOL0     C19508   9.057   5.993   7.955  1.0477 -0.6515 -0.8991
  906MOL0     C19509   8.914   5.994   7.972 -0.0686  0.4577  0.6546
  906MOL0     N19510   8.066   5.976   8.099  0.4533 -0.0290 -0.0130
  906MOL0     N19511   8.006   6.079   8.157 -0.5104 -0.0085  0.0726
  906MOL0     C19512   8.792   6.701   7.940  0.0413 -0.4855  0.8731
  906MOL0     C19513   8.930   6.715   7.910  1.2219 -0.2197 -0.3309
  906MOL0     C19514   9.297   6.944   7.905 -0.0662 -1.2666  0.2324
  906MOL0     C19515   9.316   7.073   7.852 -0.0959 -0.6301  0.1100
  906MOL0     C19516   9.434   7.110   7.786  1.3819 -0.6008 -0.0769
  906MOL0     C19517   9.541   7.016   7.762 -0.0863 -0.2591  0.4416
  906MOL0     O19518   9.655   7.051   7.697 -0.0971  0.4984  0.4849
  906MOL0     C19519   9.776   6.974   7.719  0.1375  0.0441 -0.2735
  906MOL0     C19520   9.899   7.034   7.657  0.7167 -0.2724 -0.0675
  906MOL0     C19521   9.944   7.155   7.741  0.6564 -0.5846 -0.3165
  906MOL0     C19522  10.078   7.211   7.705 -1.1748  0.2318 -0.6588
  906MOL0     C19523  10.086   7.288   7.584  0.3399 -0.2342  0.1890
  906MOL0     C19524  10.092   7.346   7.476 -0.8150 -0.3267 -0.2925
  906MOL0     C19525   9.521   6.886   7.807 -0.7669  0.2057 -0.6169
  906MOL0     C19526   9.401   6.851   7.877  0.4782  0.0310 -0.9176
  906MOL0     H19527   9.035   6.790   8.232 -0.8738  0.0102  0.7731
  906MOL0     H19528   8.796   6.767   8.266  5.0645 -3.4458  2.7273
  906MOL0     H19529   8.585   6.880   8.180 -3.4248  0.3135 -0.7831
  906MOL0     H19530   8.563   6.723   8.279 -0.9349 -0.1885  0.0444
  906MOL0     H19531   8.361   6.787   8.062  0.5527 -0.9960  0.2747
  906MOL0     H19532   8.363   6.897   8.192  1.6848  1.1939 -3.1387
  906MOL0     H19533   8.337   6.705   8.359  0.5884  0.9055 -0.7541
  906MOL0     H19534   8.391   6.593   8.247 -1.0794 -0.7297  0.5706
  906MOL0     H19535   8.126   6.756   8.191  1.5606  0.6870 -0.8174
  906MOL0     H19536   8.166   6.599   8.125  0.1849 -1.8649  2.2399
  906MOL0     H19537   7.989   6.576   8.292 -0.7988  0.2000  1.7793
  906MOL0     H19538   8.091   6.661   8.415 -3.4792  0.9229 -0.2613
  906MOL0     H19539   8.101   6.435   8.453  2.6764  0.4018  0.7133
  906MOL0     H19540   8.262   6.482   8.392  1.1268 -1.2712 -0.2919
  906MOL0     H19541   8.257   6.374   8.203  0.9620  0.1620  2.5652
  906MOL0     H19542   8.194   6.257   8.311  2.9554 -0.0052  0.2890
  906MOL0     H19543   8.016   6.401   8.102  2.1850  1.5540 -0.1560
  906MOL0     H19544   7.953   6.311   8.246  0.6625 -2.3371  0.5734
  906MOL0     H19545   8.242   6.220   7.993 -0.3937 -0.8449 -1.6469
  906MOL0     H19546   8.269   5.969   7.846 -1.0958 -0.7507  0.7494
  906MOL0     H19547   8.234   5.825   7.939  0.3913 -0.4167 -0.8520
  906MOL0     H19548   8.475   5.869   7.976  4.5786  1.8640  1.5551
  906MOL0     H19549   8.392   5.935   8.113 -0.6647 -2.1337 -0.7727
  906MOL0     H19550   8.435   6.115   7.886 -2.5105  0.9801  0.9522
  906MOL0     H19551   8.432   6.151   8.050 -1.8406  0.1555 -1.2834
  906MOL0     H19552   8.646   6.013   8.087 -0.9652 -4.3570 -1.3216
  906MOL0     H19553   8.680   6.151   7.970 -1.0243  0.2116  1.3545
  906MOL0     H19554   8.827   5.915   7.660  2.0005 -1.7827  0.2597
  906MOL0     H19555   9.050   5.936   7.617  1.1826 -1.7115  0.5083
  906MOL0     H19556   9.528   5.868   7.995  1.2031 -0.9930 -3.1328
  906MOL0     H19557   9.767   5.994   8.045  0.5739 -0.2570 -1.7489
  906MOL0     H19558   9.903   6.358   7.843 -1.6068 -0.8154  0.2613
  906MOL0     H19559   9.918   6.228   7.724  0.3434  0.2901  0.0991
  906MOL0     H19560  10.131   6.328   7.809  1.1074 -0.6809 -0.4338
  906MOL0     H19561  10.112   6.154   7.816 -3.2504 -3.0541  4.2097
  906MOL0     H19562  10.050   6.174   8.057 -0.7698 -0.4524 -1.1618
  906MOL0     H19563  10.070   6.346   8.054  0.0896 -0.7875  1.7642
  906MOL0     H19564  10.281   6.147   8.026 -3.2608 -0.5098  2.4958
  906MOL0     H19565  10.313   6.312   7.969 -2.1668  2.6683  1.5372
  906MOL0     H19566  10.401   6.249   8.201  1.0281  3.5838 -0.0374
  906MOL0     H19567  10.234   6.228   8.245  0.7749 -3.8038 -2.2355
  906MOL0     H19568  10.164   6.454   8.208 -0.4066 -0.9114 -1.3423
  906MOL0     H19569  10.335   6.500   8.159 -0.6373  1.5858  0.7323
  906MOL0     H19570  10.251   6.395   8.438  0.1826  2.2096  1.6521
  906MOL0     H19571  10.414   6.435   8.376  0.3845 -0.8346  0.6490
  906MOL0     H19572  10.340   6.676   8.355 -1.0549  3.9517  2.9877
  906MOL0     H19573  10.291   6.619   8.520  0.4253 -2.7576  1.0548
  906MOL0     H19574   9.652   6.279   7.746 -0.9494 -0.3367 -3.0449
  906MOL0     H19575   9.437   6.185   7.744  1.0187 -1.6821 -1.6039
  906MOL0     H19576   9.126   6.014   8.036  0.2561 -1.4557 -0.0128
  906MOL0     H19577   8.883   5.991   8.076  0.0441  0.5257  0.6910
  906MOL0     H19578   8.717   6.660   7.874  0.9595 -1.0613  0.1509
  906MOL0     H19579   8.978   6.699   7.814  2.5995  0.6138  0.1771
  906MOL0     H19580   9.234   7.144   7.852  0.4153  0.0035  1.7839
  906MOL0     H19581   9.426   7.209   7.742  0.3050 -0.5252  0.2535
  906MOL0     H19582   9.759   6.877   7.672  2.0781 -1.0798  1.2064
  906MOL0     H19583   9.791   6.955   7.826  2.9900  1.3197 -0.3581
  906MOL0     H19584   9.967   6.950   7.641  0.4222 -1.2204  2.9608
  906MOL0     H19585   9.874   7.069   7.557  1.0739 -0.8969 -0.3837
  906MOL0     H19586   9.943   7.128   7.847  1.7465  1.2224  0.2057
  906MOL0     H19587   9.874   7.238   7.733  2.7761  1.4063  0.5654
  906MOL0     H19588  10.095   7.290   7.779  1.5570  0.9637 -1.9499
  906MOL0     H19589  10.156   7.135   7.714 -0.9683  0.2786 -1.9303
  906MOL0     H19590  10.113   7.410   7.392  0.5225 -0.1915  0.1283
  906MOL0     H19591   9.598   6.812   7.788 -0.2496 -0.0698  2.1240
  906MOL0     H19592   9.397   6.752   7.923  1.5036  0.4470  0.1422
  907MOL0     O19593   5.448   4.589   1.311  0.5578  0.6323 -0.4920
  907MOL0     C19594   5.493   4.693   1.363  0.2297 -0.3339 -0.2073
  907MOL0     O19595   5.419   4.805   1.389 -1.3357 -0.3121  0.3893
  907MOL0     C19596   5.287   4.795   1.356 -0.4105 -0.3418  0.2064
  907MOL0     C19597   5.249   4.905   1.307  0.6264 -0.2782  0.5497
  907MOL0     C19598   5.113   4.944   1.298 -0.5660  0.1324  0.5407
  907MOL0     C19599   5.019   4.844   1.343 -0.3281 -0.3572  0.0475
  907MOL0     O19600   4.882   4.861   1.334  1.2480 -0.3105  0.7458
  907MOL0     C19601   4.839   4.953   1.236 -0.2036 -0.4844  0.0277
  907MOL0     C19602   4.684   4.961   1.231 -0.0646  0.0296  0.5738
  907MOL0     C19603   4.634   5.047   1.113  0.2849  0.4690 -0.3890
  907MOL0     C19604   4.481   5.030   1.100  0.3373 -0.2282  0.4375
  907MOL0     C19605   4.435   5.104   0.972 -0.9745 -0.8698 -0.6412
  907MOL0     C19606   4.448   5.013   0.852  0.1559  0.2203  0.4122
  907MOL0     C19607   4.386   5.080   0.734  0.0808  0.4106 -1.2167
  907MOL0     C19608   4.392   4.979   0.621 -0.0707 -0.1751 -0.4636
  907MOL0     N19609   4.360   5.035   0.492 -0.2850 -0.3578  0.0403
  907MOL0     C19610   4.241   5.014   0.429  0.2871 -0.0108  0.0173
  907MOL0     C19611   4.246   5.077   0.306  0.8488  0.0177  0.6347
  907MOL0     C19612   4.137   5.087   0.193 -0.1500  0.8152 -0.3184
  907MOL0     C19613   3.996   5.114   0.258  0.1140 -0.2945 -0.0693
  907MOL0     C19614   3.917   5.203   0.154  0.9758 -0.0025  0.3721
  907MOL0     C19615   3.782   5.250   0.203 -1.0878  0.0846 -0.3018
  907MOL0     O19616   3.718   5.155   0.288 -0.4394 -0.5774 -0.4910
  907MOL0     C19617   3.581   5.163   0.304 -0.5947 -0.1908  0.4737
  907MOL0     C19618   3.542   5.052   0.385  0.3281  0.3051  0.1413
  907MOL0     C19619   3.405   5.039   0.412  0.5290 -0.5880 -0.1463
  907MOL0     C19620   3.310   5.128   0.361  1.0393  0.2271 -0.0421
  907MOL0     C19621   3.163   5.110   0.398 -0.3248  1.5092  0.3206
  907MOL0     O19622   3.094   5.177   0.305  0.3785  0.7241 -0.0880
  907MOL0     C19623   2.971   5.216   0.338  0.1918  0.1115 -0.4719
  907MOL0     C19624   2.957   5.355   0.342  0.1370  0.1908  0.7726
  907MOL0     C19625   2.841   5.408   0.395  0.7965  0.3758  0.6833
  907MOL0     C19626   2.734   5.326   0.429 -0.3916  0.7126  0.3200
  907MOL0     O19627   2.609   5.372   0.464  0.7895 -0.0173 -0.3984
  907MOL0     C19628   2.621   5.487   0.555 -0.0374 -0.1240  1.3236
  907MOL0     C19629   2.472   5.511   0.601 -0.5002  0.3837  0.0065
  907MOL0     C19630   2.458   5.655   0.642  0.7762 -0.6013 -0.6781
  907MOL0     C19631   2.534   5.688   0.778  0.0045 -1.1598 -0.5329
  907MOL0     C19632   2.466   5.812   0.836  0.0163 -0.2252 -0.8602
  907MOL0     C19633   2.543   5.876   0.935  0.3026  0.6555 -0.7551
  907MOL0     C19634   2.628   5.790   1.036  0.1081 -0.5452 -0.3508
  907MOL0     C19635   2.614   5.844   1.174  0.2762  0.8047 -0.9680
  907MOL0    Cl19636   2.566   5.724   1.297  0.0862  0.3360 -0.2800
  907MOL0     C19637   2.750   5.189   0.407 -0.6855  0.2128 -0.1775
  907MOL0     C19638   2.863   5.132   0.355  0.1363  0.4940  0.4149
  907MOL0     O19639   3.124   5.053   0.500 -0.0129  0.1736 -0.0269
  907MOL0     C19640   3.353   5.238   0.282 -0.1300 -0.3021 -0.2027
  907MOL0     C19641   3.493   5.270   0.268 -0.2547 -0.3958 -1.1008
  907MOL0     N19642   4.380   5.133   0.295 -0.2890 -0.2551 -0.0870
  907MOL0     N19643   4.447   5.102   0.403  0.6584  0.6102 -0.0795
  907MOL0     C19644   5.067   4.731   1.406  0.2659  0.5469 -0.4964
  907MOL0     C19645   5.202   4.707   1.407  0.3704 -0.3119 -0.7384
  907MOL0     C19646   5.625   4.674   1.435 -0.6081 -0.7806  0.0123
  907MOL0     C19647   5.673   4.786   1.497 -0.1875 -0.2448  0.4688
  907MOL0     C19648   5.790   4.786   1.567  0.2234 -0.2145  0.1290
  907MOL0     C19649   5.881   4.678   1.575  0.5210  0.6257  0.7231
  907MOL0     O19650   6.002   4.674   1.647 -0.0278  0.0377 -0.4406
  907MOL0     C19651   6.072   4.551   1.677  0.5889  0.3628  0.8660
  907MOL0     C19652   5.998   4.459   1.776  0.0527  0.9784  0.7145
  907MOL0     C19653   6.023   4.310   1.731 -0.8300  0.0677  0.1541
  907MOL0     C19654   6.138   4.239   1.808 -0.2843 -0.2763 -0.6599
  907MOL0     C19655   6.133   4.097   1.768 -0.4243  0.0874  1.2190
  907MOL0     C19656   6.117   3.985   1.730  0.4850  0.1528  0.7276
  907MOL0     C19657   5.834   4.570   1.498 -0.1872 -0.8908  0.2884
  907MOL0     C19658   5.706   4.566   1.437 -0.4788 -0.1930  0.6712
  907MOL0     H19659   5.318   4.983   1.276 -0.0646  0.0055 -0.3008
  907MOL0     H19660   5.090   5.036   1.245 -0.9678 -0.1749  0.1819
  907MOL0     H19661   4.868   4.911   1.140 -2.4859 -1.5843 -0.2204
  907MOL0     H19662   4.881   5.055   1.235 -0.7676 -0.2333 -2.1184
  907MOL0     H19663   4.637   5.013   1.315  1.2210 -0.1602  1.4341
  907MOL0     H19664   4.652   4.856   1.234  0.1954 -0.0387  0.9539
  907MOL0     H19665   4.684   5.021   1.020 -2.6721 -2.7411 -1.3094
  907MOL0     H19666   4.639   5.154   1.132 -0.2308 -0.0320  3.3344
  907MOL0     H19667   4.474   4.921   1.105 -0.6891 -0.1487  1.0802
  907MOL0     H19668   4.429   5.078   1.184  1.7224 -0.2501  1.3254
  907MOL0     H19669   4.489   5.198   0.957 -4.8397  2.1180  2.0722
  907MOL0     H19670   4.337   5.144   0.996  1.0912  2.1421  4.3184
  907MOL0     H19671   4.411   4.912   0.871  1.4379  0.4240  5.2882
  907MOL0     H19672   4.549   4.987   0.821  0.6757  0.0330  2.1321
  907MOL0     H19673   4.284   5.108   0.760  0.8713  1.8257  0.6309
  907MOL0     H19674   4.443   5.173   0.717 -0.9887  2.1612  3.2176
  907MOL0     H19675   4.320   4.898   0.637 -0.5475  0.2472 -0.4536
  907MOL0     H19676   4.490   4.932   0.634  0.3064  1.3596  3.8223
  907MOL0     H19677   4.166   4.946   0.469  0.4299  0.7170  1.5734
  907MOL0     H19678   4.151   4.996   0.134  1.3912  0.3978  0.6341
  907MOL0     H19679   4.175   5.168   0.130 -0.9358  1.7750  0.4001
  907MOL0     H19680   4.016   5.173   0.348  1.4212  1.9982 -1.7337
  907MOL0     H19681   3.948   5.018   0.279  0.0962 -0.1202  0.6957
  907MOL0     H19682   3.975   5.289   0.118 -0.2331  0.6494 -0.0899
  907MOL0     H19683   3.901   5.140   0.067 -1.9459  0.0538  0.7757
  907MOL0     H19684   3.724   5.271   0.113  0.5148  1.3460 -1.1026
  907MOL0     H19685   3.794   5.344   0.257 -1.7609 -1.0271  1.9073
  907MOL0     H19686   3.616   4.981   0.422  1.1146  1.0393  0.0162
  907MOL0     H19687   3.361   4.957   0.468 -1.8539 -0.4667 -1.7162
  907MOL0     H19688   3.046   5.415   0.323  0.6097 -1.0567 -1.2581
  907MOL0     H19689   2.830   5.514   0.415  1.1520 -0.2855  5.3166
  907MOL0     H19690   2.656   5.576   0.503  1.3178 -0.7352  1.1639
  907MOL0     H19691   2.686   5.471   0.641  0.8761  0.1016  0.6901
  907MOL0     H19692   2.444   5.455   0.691 -1.4567 -0.5244 -0.8229
  907MOL0     H19693   2.414   5.478   0.515  1.5608 -1.5315 -0.7236
  907MOL0     H19694   2.356   5.692   0.647  0.9959 -0.0846  0.4744
  907MOL0     H19695   2.494   5.731   0.573  0.2005  1.7713  1.4871
  907MOL0     H19696   2.523   5.605   0.849  1.4941 -0.1872  0.8839
  907MOL0     H19697   2.639   5.709   0.759 -0.9153  2.6135 -2.5356
  907MOL0     H19698   2.371   5.777   0.879  0.8268  0.2058  1.4032
  907MOL0     H19699   2.434   5.884   0.760  0.3317  3.1287  1.9097
  907MOL0     H19700   2.480   5.945   0.992  2.6446  1.8094  0.5967
  907MOL0     H19701   2.603   5.958   0.893 -0.2244  0.4632 -1.9255
  907MOL0     H19702   2.590   5.687   1.036 -2.4892  0.3531 -0.1781
  907MOL0     H19703   2.734   5.787   1.007 -0.0364  1.6012 -1.2962
  907MOL0     H19704   2.531   5.915   1.170 -1.9469 -1.6637 -4.2789
  907MOL0     H19705   2.701   5.900   1.211  1.7765 -1.5602 -0.6501
  907MOL0     H19706   2.656   5.135   0.414 -1.7038  1.9485  0.1381
  907MOL0     H19707   2.878   5.027   0.330 -0.7636  0.4256  0.1303
  907MOL0     H19708   3.285   5.308   0.235  2.5147  3.1443  0.6412
  907MOL0     H19709   3.513   5.362   0.214  0.6075  0.5967  0.8054
  907MOL0     H19710   5.016   4.647   1.451  0.4704 -0.4269 -1.9992
  907MOL0     H19711   5.249   4.622   1.456 -1.2570  0.5934  2.6660
  907MOL0     H19712   5.615   4.878   1.499  0.7172  0.6450 -3.6612
  907MOL0     H19713   5.813   4.882   1.613  2.3124 -0.7496  0.3148
  907MOL0     H19714   6.169   4.583   1.716  0.1161  2.2395  0.6003
  907MOL0     H19715   6.079   4.504   1.579 -0.7993  1.2809  0.2901
  907MOL0     H19716   6.024   4.489   1.877 -1.1785  0.1904  1.2846
  907MOL0     H19717   5.896   4.496   1.761  0.1676  0.5296 -1.6302
  907MOL0     H19718   6.048   4.303   1.625 -0.6309  0.7659  0.1532
  907MOL0     H19719   5.933   4.248   1.733  0.7750 -2.5237  3.7583
  907MOL0     H19720   6.234   4.290   1.792 -1.5458  2.3256 -0.3749
  907MOL0     H19721   6.121   4.230   1.915  3.8951  0.0746  0.1961
  907MOL0     H19722   6.106   3.881   1.706  1.4493  0.0508  0.7196
  907MOL0     H19723   5.901   4.485   1.493 -0.2048 -0.8835 -4.8311
  907MOL0     H19724   5.691   4.472   1.386  3.8974 -0.0530 -1.3340
  908MOL0     O19725   4.514   6.044   9.917 -0.0064  0.8098  0.2457
  908MOL0     C19726   4.582   6.145   9.926  0.6855 -0.1546  0.1537
  908MOL0     O19727   4.527   6.268   9.938 -0.2738  0.0647 -0.1984
  908MOL0     C19728   4.395   6.305   9.959 -0.3791  1.0434 -0.6986
  908MOL0     C19729   4.285   6.226   9.921 -0.0951 -0.6256 -0.0879
  908MOL0     C19730   4.159   6.282   9.939  0.0381  0.1524 -0.2742
  908MOL0     C19731   4.138   6.409   9.991  0.6783  1.4086  0.8213
  908MOL0     O19732   4.011   6.476  10.009 -0.8168 -0.2930  0.4578
  908MOL0     C19733   3.889   6.398  10.026 -0.3218  0.5709  0.1933
  908MOL0     C19734   3.811   6.367   9.898 -0.3724  0.7058 -0.4922
  908MOL0     C19735   3.687   6.287   9.919  0.8093 -0.8292  0.2689
  908MOL0     C19736   3.585   6.364  10.007  0.1155  0.7071 -0.1288
  908MOL0     C19737   3.450   6.294   9.980 -0.4031 -0.5985 -0.0980
  908MOL0     C19738   3.339   6.369  10.064 -0.4914 -0.1528  0.9886
  908MOL0     C19739   3.213   6.293  10.066  0.7034  0.3225  0.4809
  908MOL0     C19740   3.099   6.359  10.155  0.0802 -0.2138 -0.3875
  908MOL0     N19741   3.021   6.460  10.086  0.7520 -0.6954 -1.0233
  908MOL0     C19742   2.902   6.436  10.026 -0.6901  0.1862 -0.6711
  908MOL0     C19743   2.857   6.561   9.996  0.1779  0.2671  0.1103
  908MOL0     C19744   2.734   6.593   9.903 -0.3293  0.3148 -0.0588
  908MOL0     C19745   2.695   6.483   9.800  0.7364  0.3374 -0.2663
  908MOL0     C19746   2.545   6.527   9.760  0.1313 -0.8312  0.4123
  908MOL0     C19747   2.456   6.427   9.673  0.2859  0.7690 -0.1833
  908MOL0     O19748   2.318   6.468   9.647  0.1169 -0.4213 -0.6575
  908MOL0     C19749   2.224   6.384   9.606  0.0050 -0.6046  0.2405
  908MOL0     C19750   2.094   6.426   9.626 -0.1036 -0.3342  0.1725
  908MOL0     C19751   1.988   6.346   9.590 -0.4442  0.6434  0.5375
  908MOL0     C19752   2.003   6.218   9.533  0.0368 -0.8829  0.3993
  908MOL0     C19753   1.890   6.124   9.502  0.1038 -0.0363 -0.3645
  908MOL0     O19754   1.924   5.999   9.474 -0.2338  0.6803 -0.2425
  908MOL0     C19755   1.833   5.915   9.412 -0.3871 -0.0058  0.7950
  908MOL0     C19756   1.796   5.788   9.454  0.7450  0.5131 -0.2653
  908MOL0     C19757   1.718   5.702   9.371  0.1765 -0.0585  0.1302
  908MOL0     C19758   1.662   5.747   9.247 -0.9981  0.2511 -1.1442
  908MOL0     O19759   1.584   5.675   9.159 -0.0867  0.0573 -0.2833
  908MOL0     C19760   1.504   5.569   9.205 -0.1398 -0.3646  1.1844
  908MOL0     C19761   1.361   5.617   9.249  0.3304 -0.0719  0.0537
  908MOL0     C19762   1.306   5.735   9.166 -0.2386 -0.0883 -0.1301
  908MOL0     C19763   1.185   5.804   9.241  0.3136 -0.2478  0.0316
  908MOL0     C19764   1.053   5.719   9.230 -1.2549  0.2673  0.1120
  908MOL0     C19765   0.938   5.789   9.298 -0.4421  0.5949 -1.2427
  908MOL0     C19766   0.803   5.740   9.258 -0.2304 -0.5821 -0.3539
  908MOL0     C19767   0.753   5.621   9.346  0.4697  0.3062 -0.5902
  908MOL0    Cl19768   0.747   5.653   9.520 -0.0716  0.2337 -0.2282
  908MOL0     C19769   1.706   5.868   9.201  0.4512 -0.4802 -0.5215
  908MOL0     C19770   1.795   5.946   9.280 -0.7298 -0.7644  1.1840
  908MOL0     O19771   1.783   6.170   9.500  1.2094  0.2083 -0.1063
  908MOL0     C19772   2.139   6.181   9.502  0.7829 -0.6859  0.8310
  908MOL0     C19773   2.240   6.267   9.538 -0.3610  0.4492  0.0046
  908MOL0     N19774   2.937   6.658  10.050 -0.6668  0.5335 -0.0836
  908MOL0     N19775   3.032   6.595  10.099 -0.1299 -0.2634 -0.2740
  908MOL0     C19776   4.246   6.481  10.026 -0.7725 -0.7552  0.0886
  908MOL0     C19777   4.372   6.430  10.021 -0.6451 -0.2350  0.7218
  908MOL0     C19778   4.730   6.128   9.945  1.3416 -0.4873  0.0117
  908MOL0     C19779   4.799   6.011   9.909  0.4511  0.6185 -0.5177
  908MOL0     C19780   4.942   6.014   9.911 -1.4289 -0.0878  1.1725
  908MOL0     C19781   5.007   6.125   9.959 -0.3315  0.4309 -0.8642
  908MOL0     O19782   5.147   6.112   9.970  0.2209  0.2583 -0.3990
  908MOL0     C19783   5.229   6.211  10.036 -0.0465  0.3157 -0.5274
  908MOL0     C19784   5.372   6.160  10.056 -0.9180  1.2297 -0.1727
  908MOL0     C19785   5.372   6.009  10.095 -0.5405  0.0995 -0.4139
  908MOL0     C19786   5.505   5.966  10.163 -0.3195 -0.3837  0.2699
  908MOL0     C19787   5.487   5.852  10.256 -0.3722  0.1130 -0.3792
  908MOL0     C19788   5.491   5.768  10.346 -0.4319 -0.3075 -1.0758
  908MOL0     C19789   4.936   6.237  10.013 -0.9734  0.2621 -0.9275
  908MOL0     C19790   4.803   6.234  10.003  0.4700  0.4104 -1.1933
  908MOL0     H19791   4.298   6.129   9.874  1.2262 -0.1849 -0.6870
  908MOL0     H19792   4.077   6.217   9.910  0.8784 -2.0071  1.8427
  908MOL0     H19793   3.827   6.453  10.098 -0.8432 -0.4084  0.5241
  908MOL0     H19794   3.921   6.310  10.083  0.4773  0.2614 -0.7110
  908MOL0     H19795   3.870   6.301   9.835 -0.2144  1.6315 -1.3438
  908MOL0     H19796   3.783   6.466   9.861  2.9975  2.1609  0.3971
  908MOL0     H19797   3.712   6.199   9.980  0.9714  0.0500  1.5075
  908MOL0     H19798   3.647   6.253   9.823 -3.6940 -1.6986  2.2199
  908MOL0     H19799   3.608   6.364  10.114  0.7099 -0.2335 -0.2433
  908MOL0     H19800   3.575   6.465   9.967 -3.2477  1.2096  1.6668
  908MOL0     H19801   3.449   6.193  10.020 -1.5003  1.0800  4.8971
  908MOL0     H19802   3.436   6.292   9.872  1.4790 -0.2230 -0.3935
  908MOL0     H19803   3.324   6.472  10.029 -0.3035 -0.6528 -0.6670
  908MOL0     H19804   3.377   6.372  10.166  1.8021  0.1923  0.1951
  908MOL0     H19805   3.163   6.279   9.970  0.4929  1.2753  0.4428
  908MOL0     H19806   3.231   6.192  10.103 -3.1868 -0.7642 -0.1587
  908MOL0     H19807   3.135   6.392  10.253  2.7325 -0.2391 -1.2759
  908MOL0     H19808   3.035   6.273  10.177  1.5974 -1.6744 -1.3766
  908MOL0     H19809   2.863   6.336  10.008 -0.3840  0.0940 -0.8308
  908MOL0     H19810   2.768   6.677   9.842 -2.4050  2.4363  1.5302
  908MOL0     H19811   2.646   6.623   9.960  0.9359  1.9164  1.1440
  908MOL0     H19812   2.701   6.384   9.846 -3.2266  0.2534  0.4108
  908MOL0     H19813   2.762   6.495   9.714  0.7040 -2.1706 -0.7081
  908MOL0     H19814   2.491   6.535   9.855  1.6581 -0.9131  1.3195
  908MOL0     H19815   2.540   6.626   9.715 -0.8106 -0.1409  1.9302
  908MOL0     H19816   2.454   6.332   9.728  0.4474  0.9870  0.1959
  908MOL0     H19817   2.492   6.409   9.571 -2.5096 -1.8032 -0.8670
  908MOL0     H19818   2.071   6.529   9.651  1.5621  0.1689 -0.2426
  908MOL0     H19819   1.883   6.362   9.613 -0.4326 -0.5313  1.4818
  908MOL0     H19820   1.831   5.768   9.554  0.8872  3.2679  0.3286
  908MOL0     H19821   1.694   5.601   9.400  3.0704 -0.7228  0.5060
  908MOL0     H19822   1.559   5.520   9.285 -0.2580 -0.0051  1.4914
  908MOL0     H19823   1.495   5.513   9.112  0.2472  5.8590 -3.2478
  908MOL0     H19824   1.371   5.652   9.352  3.7220  1.1408 -0.5685
  908MOL0     H19825   1.283   5.540   9.242  2.0037 -1.8549  0.1501
  908MOL0     H19826   1.263   5.681   9.080  1.1669  0.2811 -1.0893
  908MOL0     H19827   1.378   5.813   9.141 -1.2199  0.7091 -0.5414
  908MOL0     H19828   1.201   5.824   9.348 -0.6044  0.4664  0.0426
  908MOL0     H19829   1.170   5.904   9.198  1.1543 -1.0721 -2.3225
  908MOL0     H19830   1.079   5.621   9.270 -0.2395  0.0288 -1.0903
  908MOL0     H19831   1.033   5.708   9.123  0.0751  0.5463 -0.1815
  908MOL0     H19832   0.959   5.890   9.262 -0.3663  1.9682  2.3068
  908MOL0     H19833   0.945   5.793   9.407 -0.0519  2.6415 -1.3101
  908MOL0     H19834   0.726   5.814   9.281 -0.3137 -0.9812  0.7349
  908MOL0     H19835   0.804   5.708   9.153 -0.8941  0.7610 -0.7861
  908MOL0     H19836   0.823   5.538   9.336 -0.0613 -0.1980 -0.1910
  908MOL0     H19837   0.653   5.595   9.310  0.7682  3.0360 -3.9224
  908MOL0     H19838   1.668   5.903   9.106 -1.5832  0.4554  0.5663
  908MOL0     H19839   1.851   6.029   9.240 -0.1225 -1.1732  1.1757
  908MOL0     H19840   2.158   6.092   9.443  2.2977  1.3395 -1.9870
  908MOL0     H19841   2.342   6.253   9.503 -0.5300  3.0759 -1.7767
  908MOL0     H19842   4.214   6.582  10.050  1.3637  0.8666 -3.1581
  908MOL0     H19843   4.465   6.472  10.057 -1.8047  1.5834  1.7245
  908MOL0     H19844   4.753   5.921   9.869  1.3396 -0.5411  0.9604
  908MOL0     H19845   5.000   5.936   9.863  0.3418  1.8516 -0.0314
  908MOL0     H19846   5.182   6.216  10.134 -0.8310 -2.5759 -0.6569
  908MOL0     H19847   5.226   6.314   9.998  1.0308  1.8491  3.1247
  908MOL0     H19848   5.434   6.166   9.965 -0.5183 -0.0761 -0.0017
  908MOL0     H19849   5.413   6.214  10.142  0.6444 -1.8366  1.1627
  908MOL0     H19850   5.351   5.945  10.010 -0.3998 -0.9978  0.3559
  908MOL0     H19851   5.289   5.993  10.164 -0.6152 -0.4372 -0.6295
  908MOL0     H19852   5.578   5.936  10.087 -2.1247 -1.7865 -0.9731
  908MOL0     H19853   5.553   6.047  10.219 -0.2944  0.1797 -0.5487
  908MOL0     H19854   5.482   5.683  10.411  1.5808 -0.3696 -0.8078
  908MOL0     H19855   4.989   6.317  10.063 -0.8835  0.4807 -1.3616
  908MOL0     H19856   4.765   6.326  10.048 -2.2307 -0.3406 -1.7649
  909MOL0     O19857   0.167   0.412   8.235 -0.0786 -0.1097 -0.6190
  909MOL0     C19858   0.194   0.507   8.165  0.1680  0.0006 -0.6125
  909MOL0     O19859   0.117   0.558   8.071 -0.1038 -0.3561  0.8968
  909MOL0     C19860  -0.011   0.519   8.049  0.0772  0.6662 -1.4083
  909MOL0     C19861  -0.118   0.607   8.060 -0.1537  0.1800  0.0252
  909MOL0     C19862  -0.245   0.573   8.040 -0.3907  0.4472 -0.6770
  909MOL0     C19863  -0.275   0.448   7.993 -0.0651  0.4342 -0.1048
  909MOL0     O19864  -0.400   0.394   7.958  0.1041 -0.1629 -0.5457
  909MOL0     C19865  -0.512   0.482   7.979  0.4853 -0.3156  1.1766
  909MOL0     C19866  -0.637   0.400   7.931 -0.3829  0.2158 -0.4906
  909MOL0     C19867  -0.764   0.468   7.950  0.3806  0.3800  0.2171
  909MOL0     C19868  -0.878   0.380   7.903  0.1935 -0.1746 -0.5727
  909MOL0     C19869  -1.009   0.442   7.945 -0.5630  0.5528 -0.2417
  909MOL0     C19870  -1.134   0.362   7.894 -0.0015  0.4118  0.3022
  909MOL0     C19871  -1.254   0.419   7.962  0.0057  0.1894 -1.0298
  909MOL0     C19872  -1.371   0.335   7.935  0.5008 -0.9945  0.0190
  909MOL0     N19873  -1.489   0.390   8.008  1.2046 -0.3738  0.5467
  909MOL0     C19874  -1.603   0.327   8.062 -0.6579  0.0455 -0.2295
  909MOL0     C19875  -1.687   0.422   8.100  0.7044  0.9356  0.3667
  909MOL0     C19876  -1.823   0.388   8.157 -0.2466 -0.5423  0.3303
  909MOL0     C19877  -1.923   0.364   8.050 -0.1203  0.1593 -0.0883
  909MOL0     C19878  -2.071   0.405   8.071  1.2154  1.0278 -0.0021
  909MOL0     C19879  -2.159   0.395   7.949 -0.0002 -0.1872  0.1557
  909MOL0     O19880  -2.290   0.446   7.973  0.6210  0.7692 -0.1573
  909MOL0     C19881  -2.376   0.486   7.874 -0.0809  0.2127  0.9811
  909MOL0     C19882  -2.364   0.477   7.740 -0.2171 -0.8872  0.3086
  909MOL0     C19883  -2.459   0.519   7.647  0.4351 -0.1895 -0.7059
  909MOL0     C19884  -2.580   0.568   7.693  0.1733  1.0536 -0.4607
  909MOL0     C19885  -2.692   0.589   7.605 -0.4766 -0.4615  0.3601
  909MOL0     O19886  -2.797   0.653   7.657 -0.5033  0.0705  0.4063
  909MOL0     C19887  -2.916   0.675   7.579 -0.3794  0.4367  0.8753
  909MOL0     C19888  -2.929   0.684   7.443  0.2930 -0.1647  0.3255
  909MOL0     C19889  -3.037   0.738   7.385  0.2648  0.1579 -0.5987
  909MOL0     C19890  -3.143   0.775   7.464  0.2637  0.3298  0.4897
  909MOL0     O19891  -3.259   0.832   7.412 -0.3951  0.3272 -0.2102
  909MOL0     C19892  -3.285   0.833   7.271 -0.5269  0.7860 -0.3429
  909MOL0     C19893  -3.322   0.691   7.218 -0.1128  0.7542 -0.2090
  909MOL0     C19894  -3.376   0.707   7.079  0.5742 -1.2568  0.1778
  909MOL0     C19895  -3.427   0.585   7.014 -0.3297 -0.6662  0.0293
  909MOL0     C19896  -3.478   0.620   6.875 -0.2307 -1.1335  0.5237
  909MOL0     C19897  -3.368   0.641   6.773 -0.0230  0.4425 -0.4733
  909MOL0     C19898  -3.434   0.692   6.640  0.0813  0.2778 -0.5944
  909MOL0     C19899  -3.346   0.703   6.523 -0.2487  0.0187 -0.3201
  909MOL0    Cl19900  -3.191   0.785   6.568 -0.7762  0.6954  0.1534
  909MOL0     C19901  -3.138   0.755   7.604  0.3631  0.7547 -0.1683
  909MOL0     C19902  -3.027   0.698   7.663 -0.4186 -0.5505  0.4071
  909MOL0     O19903  -2.682   0.549   7.486 -0.1386  0.4363 -0.6155
  909MOL0     C19904  -2.602   0.567   7.830 -0.3846  0.0374  0.2917
  909MOL0     C19905  -2.501   0.536   7.915 -0.1172  0.3357  0.1265
  909MOL0     N19906  -1.620   0.543   8.076  0.9180 -0.0047  0.0109
  909MOL0     N19907  -1.505   0.521   8.019 -0.2354  0.1350  0.0526
  909MOL0     C19908  -0.172   0.354   7.989  0.4910  0.7273 -0.0147
  909MOL0     C19909  -0.041   0.395   8.012  0.2640 -0.6307  0.8717
  909MOL0     C19910   0.331   0.555   8.191 -0.6150 -0.4838  0.1523
  909MOL0     C19911   0.427   0.482   8.268 -0.4369  0.1390  0.0500
  909MOL0     C19912   0.555   0.523   8.274  0.2662  0.0788  0.5326
  909MOL0     C19913   0.600   0.648   8.230  0.0185  0.0205  0.2513
  909MOL0     O19914   0.734   0.682   8.247  0.1209 -0.5236 -0.3446
  909MOL0     C19915   0.827   0.619   8.337 -0.7881 -0.9931  0.0126
  909MOL0     C19916   0.959   0.699   8.336 -0.5198 -0.8741  0.7280
  909MOL0     C19917   1.088   0.621   8.368 -0.7438  0.8453 -0.1579
  909MOL0     C19918   1.213   0.693   8.375 -0.3845 -0.8303  0.5545
  909MOL0     C19919   1.316   0.622   8.451 -0.2976 -0.2077 -0.6448
  909MOL0     C19920   1.402   0.563   8.513 -0.8917 -1.5250 -0.0861
  909MOL0     C19921   0.503   0.726   8.173  1.2723 -0.5793  0.4063
  909MOL0     C19922   0.378   0.679   8.149  0.7550  0.3356  1.2133
  909MOL0     H19923  -0.094   0.707   8.091 -5.1256  1.5255  0.3652
  909MOL0     H19924  -0.322   0.644   8.065 -0.4734  0.8605 -2.0041
  909MOL0     H19925  -0.500   0.573   7.920  3.5152 -2.6187 -2.2201
  909MOL0     H19926  -0.524   0.501   8.086  0.2447  4.9669  0.4502
  909MOL0     H19927  -0.646   0.313   7.997  4.0146  1.2767  1.8830
  909MOL0     H19928  -0.610   0.374   7.828  1.9241  1.6714 -0.3188
  909MOL0     H19929  -0.769   0.562   7.894 -0.3285  1.7798  2.5115
  909MOL0     H19930  -0.769   0.487   8.058 -3.2920  0.3917  0.1596
  909MOL0     H19931  -0.873   0.365   7.795  0.1022  1.3205 -0.7984
  909MOL0     H19932  -0.884   0.278   7.942  0.7188 -0.8337 -2.1436
  909MOL0     H19933  -1.017   0.545   7.908  4.3121  0.7749 -1.3163
  909MOL0     H19934  -1.011   0.443   8.054 -1.9390  2.0846 -0.2457
  909MOL0     H19935  -1.128   0.257   7.927 -2.5589 -0.6495 -2.1701
  909MOL0     H19936  -1.140   0.379   7.787  3.5022 -1.0856 -0.2564
  909MOL0     H19937  -1.243   0.418   8.071 -1.0012  0.8029 -0.9059
  909MOL0     H19938  -1.263   0.523   7.929  1.1355  0.4230 -0.6502
  909MOL0     H19939  -1.360   0.229   7.960 -4.7442 -1.3482  2.1122
  909MOL0     H19940  -1.408   0.333   7.832 -0.7271  1.3508  0.3570
  909MOL0     H19941  -1.632   0.223   8.047 -1.9380  0.3018  0.3320
  909MOL0     H19942  -1.850   0.474   8.219  0.3398  2.4100 -3.2023
  909MOL0     H19943  -1.801   0.300   8.218 -0.4506 -2.4367 -2.1895
  909MOL0     H19944  -1.928   0.260   8.017 -1.7669 -0.5196  2.0943
  909MOL0     H19945  -1.892   0.433   7.971 -1.8221  3.4130  1.8559
  909MOL0     H19946  -2.118   0.353   8.155  0.8944  3.6422  1.5754
  909MOL0     H19947  -2.067   0.510   8.103  0.8007  1.4616 -1.3368
  909MOL0     H19948  -2.161   0.294   7.906  1.8251  0.0697 -0.6036
  909MOL0     H19949  -2.112   0.457   7.872  3.2034 -0.8443  1.4531
  909MOL0     H19950  -2.276   0.432   7.694  0.1984 -0.6361  0.8411
  909MOL0     H19951  -2.446   0.514   7.540  0.5532 -0.7109 -0.6681
  909MOL0     H19952  -2.838   0.678   7.384  0.6899  0.0590  0.9068
  909MOL0     H19953  -3.041   0.743   7.277 -3.4323 -2.1182 -0.7503
  909MOL0     H19954  -3.196   0.860   7.213  1.9041 -3.6539  0.8156
  909MOL0     H19955  -3.369   0.898   7.245 -2.2413 -0.7900  0.9481
  909MOL0     H19956  -3.383   0.633   7.288  3.4733 -2.5106  0.5414
  909MOL0     H19957  -3.232   0.629   7.206  0.0212  0.4072  2.0735
  909MOL0     H19958  -3.301   0.765   7.025  1.7155 -1.7787  1.1295
  909MOL0     H19959  -3.461   0.774   7.088  2.9124  1.7818  1.6274
  909MOL0     H19960  -3.343   0.516   7.004  1.5325  1.2862  1.3230
  909MOL0     H19961  -3.516   0.553   7.068  1.8057 -2.0148  3.0641
  909MOL0     H19962  -3.536   0.712   6.865  0.6820 -0.7652 -2.2594
  909MOL0     H19963  -3.541   0.535   6.847  1.2824 -2.0771 -0.1209
  909MOL0     H19964  -3.316   0.547   6.755  1.9990  1.1003  1.4155
  909MOL0     H19965  -3.302   0.720   6.811  0.2689  0.0453 -0.1505
  909MOL0     H19966  -3.516   0.624   6.615 -0.4179 -0.3871  2.5405
  909MOL0     H19967  -3.480   0.789   6.659 -0.7176 -0.6962  3.2064
  909MOL0     H19968  -3.399   0.753   6.440  0.4319  0.1687 -0.6737
  909MOL0     H19969  -3.315   0.602   6.496 -2.2406 -0.5079 -0.7858
  909MOL0     H19970  -3.218   0.783   7.672  1.1598 -1.9910  2.1106
  909MOL0     H19971  -3.015   0.691   7.771  1.4898 -2.4433  0.1215
  909MOL0     H19972  -2.692   0.608   7.876  0.3773  0.2221  1.6766
  909MOL0     H19973  -2.519   0.548   8.021 -1.2704  2.1849 -0.2447
  909MOL0     H19974  -0.200   0.254   7.957  1.8907  1.0561 -2.5210
  909MOL0     H19975   0.043   0.329   7.994  2.1554  1.5948  0.9920
  909MOL0     H19976   0.403   0.385   8.310  1.3221 -0.6606 -0.6925
  909MOL0     H19977   0.639   0.465   8.313  0.4294  0.0707  0.1718
  909MOL0     H19978   0.843   0.514   8.311  0.5820  0.1640 -4.7131
  909MOL0     H19979   0.795   0.615   8.442 -0.7202 -1.7178  0.0108
  909MOL0     H19980   0.964   0.749   8.239 -0.5122 -0.4989  0.9207
  909MOL0     H19981   0.961   0.787   8.401  3.9705  1.2126 -1.7406
  909MOL0     H19982   1.094   0.542   8.293 -3.4763  0.7621 -0.3760
  909MOL0     H19983   1.063   0.586   8.468 -0.5876 -0.2469 -0.4851
  909MOL0     H19984   1.243   0.709   8.271 -1.2209 -1.8593  0.1405
  909MOL0     H19985   1.195   0.795   8.411 -1.6379 -0.7693 -0.1600
  909MOL0     H19986   1.483   0.516   8.565  1.7531 -0.9072 -3.3001
  909MOL0     H19987   0.515   0.832   8.155 -1.4224  0.3122  3.0466
  909MOL0     H19988   0.297   0.740   8.109 -0.5841 -1.9814  0.1541
  910MOL0     O19989   3.092   1.186   3.867 -0.8872 -0.1502 -0.2672
  910MOL0     C19990   3.054   1.246   3.967  0.1961  0.2205 -0.3333
  910MOL0     O19991   3.135   1.266   4.077  0.4488  0.4822  0.4900
  910MOL0     C19992   3.263   1.214   4.070 -0.1262 -0.9958 -0.0848
  910MOL0     C19993   3.358   1.313   4.022 -0.0984  0.3793 -0.8629
  910MOL0     C19994   3.492   1.283   4.033 -0.0145 -0.2163 -0.4484
  910MOL0     C19995   3.531   1.164   4.094  0.2961  0.0382 -0.3053
  910MOL0     O19996   3.665   1.150   4.128 -0.3264 -0.5601  1.0542
  910MOL0     C19997   3.747   1.144   4.006  1.0418 -0.2987 -0.1118
  910MOL0     C19998   3.889   1.192   4.049 -0.2469  0.0163 -0.4680
  910MOL0     C19999   3.879   1.340   4.066 -0.3981 -0.2944  0.0022
  910MOL0     C20000   3.891   1.414   3.933 -0.1646  0.6023 -0.1392
  910MOL0     C20001   3.886   1.566   3.942 -0.5413 -0.2494  0.3284
  910MOL0     C20002   3.919   1.615   3.804  0.3975  0.4777  0.2187
  910MOL0     C20003   3.898   1.767   3.789  0.6305  0.8672 -0.2021
  910MOL0     C20004   3.937   1.826   3.653  0.5801  0.0438 -0.5775
  910MOL0     N20005   3.874   1.765   3.533 -0.5456 -0.2904 -1.1930
  910MOL0     C20006   3.741   1.771   3.493 -0.1863 -0.8565  0.7300
  910MOL0     C20007   3.732   1.689   3.386  0.3752  0.0640  1.2154
  910MOL0     C20008   3.612   1.682   3.306 -0.1769  0.7674  0.0811
  910MOL0     C20009   3.637   1.714   3.151  0.0964  0.4092 -0.3631
  910MOL0     C20010   3.529   1.664   3.060  0.9302 -0.1835  0.2684
  910MOL0     C20011   3.400   1.739   3.075  0.7491 -0.5152 -0.5777
  910MOL0     O20012   3.333   1.678   3.181 -0.8597 -0.0535  0.2340
  910MOL0     C20013   3.214   1.723   3.227 -0.5488  0.0419 -0.0882
  910MOL0     C20014   3.129   1.802   3.151  0.0568 -0.2885  0.1243
  910MOL0     C20015   3.005   1.843   3.188 -0.3490  0.1635 -1.2527
  910MOL0     C20016   2.958   1.802   3.320 -0.8963 -0.5440 -0.1059
  910MOL0     C20017   2.816   1.830   3.368 -0.3459 -0.2152  0.3616
  910MOL0     O20018   2.738   1.916   3.283  0.6275 -0.4547 -0.9095
  910MOL0     C20019   2.605   1.912   3.296 -0.2896 -0.3537  0.1452
  910MOL0     C20020   2.533   1.822   3.215  0.3338  0.5395  0.4483
  910MOL0     C20021   2.390   1.828   3.213  0.3365  0.9461 -0.3787
  910MOL0     C20022   2.322   1.919   3.288  0.0942 -0.9436  0.4481
  910MOL0     O20023   2.184   1.914   3.278  0.0694 -0.5566 -0.0805
  910MOL0     C20024   2.102   2.023   3.327  0.5301  0.2204 -0.1998
  910MOL0     C20025   2.100   2.153   3.236  0.7287 -0.3237  0.8458
  910MOL0     C20026   2.026   2.263   3.317 -0.0582 -0.9821  0.7196
  910MOL0     C20027   2.061   2.409   3.250  0.4970 -0.8868 -0.7832
  910MOL0     C20028   2.062   2.533   3.341  1.1470 -0.2315 -0.6981
  910MOL0     C20029   2.178   2.533   3.453 -0.5658  0.3307 -0.7118
  910MOL0     C20030   2.317   2.511   3.402 -0.3542  0.1110  0.1660
  910MOL0     C20031   2.409   2.505   3.529 -0.0197  0.2370  0.0972
  910MOL0    Cl20032   2.481   2.342   3.551 -0.0659 -0.3816  0.2824
  910MOL0     C20033   2.391   2.014   3.358 -0.2015 -0.2942 -0.6826
  910MOL0     C20034   2.528   2.012   3.365  0.5680 -0.4283 -0.7982
  910MOL0     O20035   2.784   1.768   3.470  0.3562  0.5210 -0.8680
  910MOL0     C20036   3.047   1.717   3.396  1.5574  0.0132  0.1973
  910MOL0     C20037   3.169   1.685   3.350  0.2524  0.0283 -0.4288
  910MOL0     N20038   3.854   1.631   3.363 -0.6794  0.1799 -0.0258
  910MOL0     N20039   3.940   1.672   3.461  0.1529  0.0185 -0.4949
  910MOL0     C20040   3.439   1.065   4.142 -0.1138  0.4963  0.6825
  910MOL0     C20041   3.304   1.098   4.123  0.8085  0.6827 -1.7230
  910MOL0     C20042   2.914   1.295   3.975 -0.7959  0.7448  0.9259
  910MOL0     C20043   2.874   1.381   4.079  0.7731  0.4348 -1.0294
  910MOL0     C20044   2.739   1.427   4.095  0.1056  0.4004  0.2212
  910MOL0     C20045   2.638   1.372   4.009 -0.1901  0.4504 -0.6358
  910MOL0     O20046   2.499   1.388   4.018  0.9502  0.7483 -0.2279
  910MOL0     C20047   2.454   1.468   4.128 -0.2379  0.6164  0.5463
  910MOL0     C20048   2.298   1.471   4.115  1.2251 -0.0107  0.7639
  910MOL0     C20049   2.245   1.597   4.201 -0.0677  0.5367 -0.2685
  910MOL0     C20050   2.097   1.601   4.230  0.3431  0.0669  0.1101
  910MOL0     C20051   2.041   1.715   4.156 -0.2583 -0.5441  0.4713
  910MOL0     C20052   2.018   1.816   4.088 -0.2949  0.0113  0.8098
  910MOL0     C20053   2.683   1.286   3.906 -0.4829  0.2745  0.3131
  910MOL0     C20054   2.816   1.242   3.891 -0.3307  1.7362 -0.6224
  910MOL0     H20055   3.313   1.405   3.986 -1.0726  0.4101  0.3600
  910MOL0     H20056   3.568   1.349   3.991  0.6129  0.5818  1.8013
  910MOL0     H20057   3.700   1.201   3.925 -2.8863 -1.5978  0.9973
  910MOL0     H20058   3.755   1.040   3.971 -2.3025 -0.2559 -1.3187
  910MOL0     H20059   3.969   1.170   3.977 -0.2304  0.1598 -0.4955
  910MOL0     H20060   3.916   1.137   4.140  0.8385 -0.4399 -1.0469
  910MOL0     H20061   3.966   1.361   4.130 -0.5185  0.1171  0.0316
  910MOL0     H20062   3.792   1.372   4.124 -1.3778 -2.6249 -0.0648
  910MOL0     H20063   3.988   1.389   3.888  0.1747  0.3632  0.7097
  910MOL0     H20064   3.812   1.378   3.866 -2.1822  2.4000  1.1467
  910MOL0     H20065   3.951   1.615   4.015 -1.2793  0.4006  0.5652
  910MOL0     H20066   3.787   1.598   3.976 -0.6452 -0.1508 -0.0665
  910MOL0     H20067   3.843   1.574   3.738 -0.6573  2.4319  0.1320
  910MOL0     H20068   4.024   1.596   3.778  0.4886 -0.2697  1.0710
  910MOL0     H20069   3.794   1.785   3.815 -0.7502 -2.3812 -2.6643
  910MOL0     H20070   3.966   1.823   3.853  1.8208  0.4166 -1.0320
  910MOL0     H20071   4.045   1.816   3.638  0.8295 -0.7745  1.4141
  910MOL0     H20072   3.915   1.933   3.654 -0.3375 -0.1249 -1.0864
  910MOL0     H20073   3.664   1.831   3.539  0.3285 -1.1096  1.9580
  910MOL0     H20074   3.537   1.743   3.358 -0.2441 -0.3628  1.3848
  910MOL0     H20075   3.579   1.578   3.307  0.6512  0.4942  1.0920
  910MOL0     H20076   3.740   1.682   3.130 -0.5370 -1.1185 -1.3063
  910MOL0     H20077   3.648   1.823   3.144 -0.0768  0.4925  0.5718
  910MOL0     H20078   3.558   1.702   2.961 -1.6183  0.6771 -0.2300
  910MOL0     H20079   3.510   1.556   3.054  1.1527 -0.2040 -0.1011
  910MOL0     H20080   3.340   1.723   2.985  1.0305 -0.5951 -0.7531
  910MOL0     H20081   3.409   1.847   3.090 -0.4676 -0.1950 -1.9662
  910MOL0     H20082   3.151   1.844   3.054 -4.3083 -0.0093 -0.9169
  910MOL0     H20083   2.943   1.913   3.132  2.5890  2.5538 -1.7977
  910MOL0     H20084   2.594   1.756   3.155  2.7846  0.3758  2.9035
  910MOL0     H20085   2.327   1.760   3.156 -0.7721  0.0449  1.8081
  910MOL0     H20086   2.132   2.049   3.429 -0.3010 -3.0111  1.0137
  910MOL0     H20087   1.995   1.999   3.320  0.9890 -1.8457 -1.1462
  910MOL0     H20088   2.047   2.134   3.142 -0.8380  1.3700  1.3321
  910MOL0     H20089   2.200   2.186   3.208  0.9611  3.2431  4.8342
  910MOL0     H20090   2.062   2.256   3.420  1.9105  1.8596  0.3458
  910MOL0     H20091   1.918   2.249   3.325 -0.2372 -0.9524 -1.0882
  910MOL0     H20092   2.158   2.406   3.200  2.5366 -0.6735  2.8030
  910MOL0     H20093   1.982   2.439   3.181 -0.8665  0.8758  1.4002
  910MOL0     H20094   1.959   2.545   3.375  1.4382 -0.6084  0.3275
  910MOL0     H20095   2.081   2.623   3.282 -1.4445  0.8148 -0.0595
  910MOL0     H20096   2.163   2.450   3.524 -0.2434  0.0332 -0.9872
  910MOL0     H20097   2.165   2.621   3.516  0.6041  1.9665 -2.6335
  910MOL0     H20098   2.336   2.425   3.338  1.7740  1.0926 -0.5880
  910MOL0     H20099   2.344   2.597   3.340 -3.4258 -0.0806 -1.6356
  910MOL0     H20100   2.360   2.533   3.623 -1.7787 -3.1386  0.3187
  910MOL0     H20101   2.492   2.571   3.503  0.6147 -0.5905 -0.0100
  910MOL0     H20102   2.339   2.093   3.410  1.6482  1.0266 -0.7565
  910MOL0     H20103   2.578   2.095   3.415  0.5677 -1.8126  1.6990
  910MOL0     H20104   3.010   1.686   3.493 -0.4814  1.0111 -0.2174
  910MOL0     H20105   3.237   1.619   3.403  0.2480 -1.2152 -1.8798
  910MOL0     H20106   3.487   0.969   4.156 -0.7667 -0.6731 -3.5071
  910MOL0     H20107   3.240   1.024   4.171 -0.3916  2.4400 -0.5058
  910MOL0     H20108   2.945   1.412   4.154 -0.6465  1.3291  0.0053
  910MOL0     H20109   2.707   1.502   4.167 -2.1666  0.9627 -1.2639
  910MOL0     H20110   2.490   1.571   4.119 -0.6462  0.9123  1.9875
  910MOL0     H20111   2.478   1.446   4.232  0.0187  1.2815  0.6337
  910MOL0     H20112   2.267   1.463   4.011  3.3541 -0.7711  0.1427
  910MOL0     H20113   2.267   1.382   4.170  2.0011 -0.4107  0.5628
  910MOL0     H20114   2.286   1.687   4.153 -1.9343  2.4711  1.5221
  910MOL0     H20115   2.289   1.597   4.301 -2.7516  1.4576  1.0037
  910MOL0     H20116   2.043   1.517   4.186 -1.3009 -1.5246  4.6203
  910MOL0     H20117   2.066   1.601   4.334 -2.0554 -1.4840 -0.5285
  910MOL0     H20118   1.997   1.900   4.026  3.9583  0.9064  0.2807
  910MOL0     H20119   2.609   1.243   3.840 -1.0550 -0.2333  1.2682
  910MOL0     H20120   2.849   1.168   3.818  2.5791  1.2529  1.0134
  911MOL0     O20121   0.684   7.649  10.039  0.5382  0.5273  0.3093
  911MOL0     C20122   0.739   7.709   9.949 -0.0577  0.9148  0.3962
  911MOL0     O20123   0.680   7.753   9.827  0.7004  0.5304 -0.7491
  911MOL0     C20124   0.546   7.728   9.818 -0.3041  0.0904  0.8570
  911MOL0     C20125   0.456   7.744   9.927 -0.7485 -0.3500  0.5840
  911MOL0     C20126   0.313   7.720   9.913  0.9022 -0.0845  0.4766
  911MOL0     C20127   0.263   7.682   9.783  0.6800 -0.0735 -0.1313
  911MOL0     O20128   0.127   7.657   9.757  0.5825 -0.7633  0.1942
  911MOL0     C20129   0.085   7.532   9.789  0.2190  0.9808 -0.2861
  911MOL0     C20130  -0.064   7.526   9.765 -0.2020 -0.2062  0.0651
  911MOL0     C20131  -0.105   7.376   9.777 -0.3270  0.2820 -0.8662
  911MOL0     C20132  -0.256   7.375   9.774 -0.6116 -0.5654  0.0305
  911MOL0     C20133  -0.311   7.237   9.740  0.2807 -0.7961  0.1324
  911MOL0     C20134  -0.459   7.232   9.770 -0.0131  0.1331 -0.9862
  911MOL0     C20135  -0.525   7.113   9.703 -0.6986  0.1784 -0.7322
  911MOL0     C20136  -0.499   6.976   9.783 -0.3790 -0.7913  0.7748
  911MOL0     N20137  -0.570   6.868   9.721  0.1074 -0.4397  0.6229
  911MOL0     C20138  -0.692   6.810   9.749  0.4316 -0.8584 -0.5626
  911MOL0     C20139  -0.696   6.697   9.687  0.4275 -0.3758  0.6750
  911MOL0     C20140  -0.794   6.581   9.705  0.9507 -0.2796 -1.0974
  911MOL0     C20141  -0.814   6.509   9.567  0.3225 -0.6589  0.5879
  911MOL0     C20142  -0.889   6.370   9.581 -0.7304  0.0226  0.3954
  911MOL0     C20143  -1.035   6.377   9.589 -0.0556 -0.1966  0.3770
  911MOL0     O20144  -1.084   6.264   9.664  0.0739 -0.0304  1.0223
  911MOL0     C20145  -1.215   6.279   9.696 -0.1540  0.6916 -0.9096
  911MOL0     C20146  -1.311   6.212   9.609  0.0402  0.1233 -0.0071
  911MOL0     C20147  -1.446   6.210   9.650  0.3206  0.7862 -0.2335
  911MOL0     C20148  -1.485   6.265   9.771  1.2038  0.7151  0.1768
  911MOL0     C20149  -1.610   6.239   9.838  0.7355  0.5318  0.7269
  911MOL0     O20150  -1.695   6.141   9.794 -0.4166  0.0550  0.2170
  911MOL0     C20151  -1.829   6.167   9.823 -0.2262  0.5930  0.0043
  911MOL0     C20152  -1.899   6.276   9.779 -0.4917  0.0211 -0.0213
  911MOL0     C20153  -2.036   6.290   9.816  0.2948 -0.9159  0.3110
  911MOL0     C20154  -2.102   6.187   9.889 -0.6841 -0.0962  0.1353
  911MOL0     O20155  -2.234   6.208   9.914  0.8324 -0.2663 -0.0290
  911MOL0     C20156  -2.313   6.126  10.003  1.0163 -0.1118 -0.0611
  911MOL0     C20157  -2.412   6.212  10.085  0.4909  0.1502 -0.0152
  911MOL0     C20158  -2.478   6.136  10.201  0.4274  0.0712  0.5716
  911MOL0     C20159  -2.603   6.058  10.154  0.8180  0.9668  0.0240
  911MOL0     C20160  -2.733   6.144  10.181 -0.0726 -0.3119 -0.7162
  911MOL0     C20161  -2.865   6.117  10.103 -0.3085 -0.8672  0.0923
  911MOL0     C20162  -2.854   6.189   9.964  0.0331 -0.5414 -0.4598
  911MOL0     C20163  -2.989   6.177   9.887  0.8045  0.3563  0.6944
  911MOL0    Cl20164  -3.031   6.005   9.882 -0.6411 -0.2991 -0.9232
  911MOL0     C20165  -2.027   6.074   9.917 -0.9867 -0.0108 -0.5765
  911MOL0     C20166  -1.895   6.066   9.893 -0.4857 -0.0866 -0.4802
  911MOL0     O20167  -1.652   6.332   9.905  0.4743 -0.1241 -1.0155
  911MOL0     C20168  -1.395   6.330   9.847  0.8438 -1.1777  0.2345
  911MOL0     C20169  -1.258   6.345   9.812 -0.2162 -0.7008 -0.1666
  911MOL0     N20170  -0.581   6.685   9.610  1.1553 -0.2063 -0.0422
  911MOL0     N20171  -0.515   6.790   9.628 -0.1047 -0.6183 -0.0673
  911MOL0     C20172   0.359   7.649   9.687  0.2515 -0.5044 -0.3080
  911MOL0     C20173   0.496   7.671   9.699 -0.3182 -0.1953 -0.6764
  911MOL0     C20174   0.882   7.739   9.973 -0.1744  0.0870 -0.8003
  911MOL0     C20175   0.956   7.793   9.871  0.2317 -0.2932  0.3330
  911MOL0     C20176   1.097   7.804   9.883  0.1255  0.7565 -0.6342
  911MOL0     C20177   1.163   7.769  10.003  0.9241 -0.3263 -0.1217
  911MOL0     O20178   1.299   7.782  10.006  0.2390  0.4453  0.7868
  911MOL0     C20179   1.359   7.807  10.129  0.1759 -1.3181 -0.3889
  911MOL0     C20180   1.513   7.823  10.106 -0.6649  0.0031  0.9764
  911MOL0     C20181   1.577   7.698  10.032  0.0986 -0.3222  0.0714
  911MOL0     C20182   1.729   7.713  10.009 -0.0570 -0.2523 -0.3973
  911MOL0     C20183   1.786   7.684  10.144 -0.0132  0.0667  0.4418
  911MOL0     C20184   1.833   7.660  10.258  0.3228 -0.0845  0.0805
  911MOL0     C20185   1.085   7.727  10.115 -0.2272 -0.1436 -0.1791
  911MOL0     C20186   0.944   7.704  10.088  0.4629  0.0581 -0.8414
  911MOL0     H20187   0.479   7.780  10.026 -0.3971  1.7943 -0.2407
  911MOL0     H20188   0.237   7.744   9.987 -2.7951 -1.8173 -2.4099
  911MOL0     H20189   0.118   7.504   9.889 -1.3469  0.4092  0.1052
  911MOL0     H20190   0.129   7.463   9.717  1.7456  1.0377  0.5554
  911MOL0     H20191  -0.082   7.556   9.661 -2.6425 -1.2918  0.1217
  911MOL0     H20192  -0.126   7.593   9.824 -2.8776 -1.3003 -1.3332
  911MOL0     H20193  -0.081   7.326   9.871  0.6250  2.1029 -0.0685
  911MOL0     H20194  -0.059   7.320   9.695  1.3833  1.5918 -0.8655
  911MOL0     H20195  -0.302   7.414   9.865 -1.2175  1.4387 -1.0543
  911MOL0     H20196  -0.314   7.435   9.703 -2.7062 -2.2210  0.2267
  911MOL0     H20197  -0.258   7.163   9.801  0.3150 -1.2928 -0.4809
  911MOL0     H20198  -0.292   7.210   9.635  0.0721 -1.6515  0.3037
  911MOL0     H20199  -0.514   7.322   9.741  2.1293  2.3819  1.4142
  911MOL0     H20200  -0.477   7.235   9.878 -0.9257  0.2067 -1.1361
  911MOL0     H20201  -0.633   7.133   9.711 -0.2328  2.4396  0.9925
  911MOL0     H20202  -0.498   7.101   9.598  0.0623  0.3773 -0.5601
  911MOL0     H20203  -0.535   6.983   9.886 -1.4452 -1.2781  0.4446
  911MOL0     H20204  -0.391   6.957   9.777 -0.1074  0.7143  0.5992
  911MOL0     H20205  -0.759   6.826   9.833  0.5198  2.3207 -1.0093
  911MOL0     H20206  -0.887   6.620   9.748  1.5527  1.8177 -1.5591
  911MOL0     H20207  -0.754   6.518   9.785 -0.1006  1.6924  1.1114
  911MOL0     H20208  -0.717   6.486   9.522  0.7882  2.5524 -0.2751
  911MOL0     H20209  -0.871   6.578   9.504  2.2439 -0.3283 -0.9079
  911MOL0     H20210  -0.858   6.299   9.504  1.7717 -1.8634  2.9503
  911MOL0     H20211  -0.847   6.330   9.674  2.5093 -2.8640 -2.0419
  911MOL0     H20212  -1.091   6.394   9.496 -2.3175 -1.8897  1.3063
  911MOL0     H20213  -1.063   6.454   9.661 -2.2310  2.4940 -2.9869
  911MOL0     H20214  -1.265   6.149   9.534  4.2501  0.7172  1.7916
  911MOL0     H20215  -1.513   6.144   9.595 -0.7663  3.0537 -1.7858
  911MOL0     H20216  -1.857   6.353   9.715 -2.2646  1.3896  0.3855
  911MOL0     H20217  -2.109   6.362   9.779 -0.8799 -3.3878 -2.7119
  911MOL0     H20218  -2.234   6.087  10.067  0.5472  1.2412  1.4200
  911MOL0     H20219  -2.371   6.048   9.953  0.7015  0.3411 -0.4145
  911MOL0     H20220  -2.485   6.254  10.016  0.5218  1.4274  0.7022
  911MOL0     H20221  -2.375   6.304  10.131 -0.9204  0.3737  0.7523
  911MOL0     H20222  -2.493   6.213  10.277  0.2082 -0.5259  1.1421
  911MOL0     H20223  -2.411   6.057  10.237  0.9092 -0.2125 -0.8982
  911MOL0     H20224  -2.594   6.033  10.048 -0.1517 -0.1734  0.1934
  911MOL0     H20225  -2.605   5.966  10.212 -2.8976  1.3056  0.6656
  911MOL0     H20226  -2.701   6.246  10.161 -0.0556  0.7172  3.5039
  911MOL0     H20227  -2.763   6.126  10.285 -0.5824  1.3878 -0.5400
  911MOL0     H20228  -2.937   6.172  10.164  3.2816  0.9073  3.1581
  911MOL0     H20229  -2.895   6.012  10.098  0.1869 -0.9548 -2.0371
  911MOL0     H20230  -2.843   6.297   9.976 -0.0942 -0.4187 -1.3542
  911MOL0     H20231  -2.772   6.151   9.902  1.8432  2.5173 -0.1452
  911MOL0     H20232  -2.977   6.219   9.787  0.6378 -2.0356 -0.4063
  911MOL0     H20233  -3.070   6.232   9.935 -0.1154  0.7647 -1.2224
  911MOL0     H20234  -2.063   5.991   9.976 -1.6828  2.1219  2.2678
  911MOL0     H20235  -1.837   5.977   9.914  0.5688  1.3493  3.5898
  911MOL0     H20236  -1.427   6.370   9.942  0.5719  2.0983 -1.0710
  911MOL0     H20237  -1.184   6.381   9.884 -0.0730 -0.0760 -0.6169
  911MOL0     H20238   0.329   7.631   9.584  2.4546  1.6777 -1.4308
  911MOL0     H20239   0.558   7.629   9.620  1.7338  0.1071  0.6930
  911MOL0     H20240   0.913   7.798   9.772 -4.4428 -1.8866  1.9963
  911MOL0     H20241   1.150   7.857   9.804  2.4275  0.6460  0.7578
  911MOL0     H20242   1.333   7.727  10.199 -0.2146 -2.8419 -2.1764
  911MOL0     H20243   1.319   7.900  10.169  1.2244 -0.1516 -1.9208
  911MOL0     H20244   1.525   7.900  10.029 -0.2435 -1.4648 -0.4831
  911MOL0     H20245   1.568   7.854  10.195 -0.3519  0.1908  0.7235
  911MOL0     H20246   1.526   7.693   9.935 -1.6932 -0.4371  0.9786
  911MOL0     H20247   1.552   7.610  10.092 -1.2296 -0.9379 -1.3250
  911MOL0     H20248   1.772   7.644   9.937  0.4500 -0.3666  0.0104
  911MOL0     H20249   1.750   7.813   9.970  2.3686 -1.0428 -1.2438
  911MOL0     H20250   1.870   7.630  10.353  3.5726  1.2027 -0.6614
  911MOL0     H20251   1.130   7.695  10.208 -0.6508 -2.9976 -0.8560
  911MOL0     H20252   0.892   7.650  10.167  1.2648 -0.8967 -0.9431
  912MOL0     O20253   7.418   1.936   6.412 -0.3312  0.1819  0.2139
  912MOL0     C20254   7.474   1.996   6.312 -0.6038  0.5912  0.0124
  912MOL0     O20255   7.414   2.065   6.214 -0.6720  0.6882 -0.0276
  912MOL0     C20256   7.284   2.068   6.198 -0.1344 -0.4240  0.8117
  912MOL0     C20257   7.235   2.181   6.138 -0.5550 -0.7405 -0.7607
  912MOL0     C20258   7.102   2.191   6.098 -0.2380 -0.6729 -0.8727
  912MOL0     C20259   7.008   2.084   6.117  0.5601 -0.2132  0.6531
  912MOL0     O20260   6.878   2.085   6.082  0.8432 -0.0761 -0.0377
  912MOL0     C20261   6.811   2.212   6.081 -0.0138 -1.3121 -0.7332
  912MOL0     C20262   6.676   2.165   6.035  0.0595  0.1997 -1.2192
  912MOL0     C20263   6.605   2.292   5.979  0.4338  1.0297  0.3958
  912MOL0     C20264   6.459   2.252   5.958  0.5900 -0.2658  0.8260
  912MOL0     C20265   6.373   2.350   5.872 -0.2639 -0.4183 -0.9558
  912MOL0     C20266   6.363   2.487   5.938  0.2719 -0.3942  0.4523
  912MOL0     C20267   6.286   2.589   5.843  1.0397 -0.5167 -0.3367
  912MOL0     C20268   6.133   2.595   5.880 -0.1603  0.3422 -1.2044
  912MOL0     N20269   6.109   2.643   6.012 -0.6366 -1.2794 -0.4984
  912MOL0     C20270   6.081   2.562   6.123  0.3151  1.4113 -0.6761
  912MOL0     C20271   6.044   2.648   6.222 -1.0174 -0.1317 -1.0034
  912MOL0     C20272   6.001   2.602   6.356  0.6443  0.0893 -0.1203
  912MOL0     C20273   5.842   2.577   6.372 -0.3647 -0.2396 -0.9665
  912MOL0     C20274   5.756   2.704   6.395  0.1490  0.6293 -0.6501
  912MOL0     C20275   5.605   2.675   6.360 -0.2096  0.0623 -0.2990
  912MOL0     O20276   5.528   2.793   6.397  0.2151  0.8797  0.3070
  912MOL0     C20277   5.388   2.791   6.410  0.2047 -0.1642  0.2676
  912MOL0     C20278   5.321   2.890   6.480  0.0121 -0.6523  0.0070
  912MOL0     C20279   5.173   2.902   6.485 -0.4963  0.1547  1.5306
  912MOL0     C20280   5.104   2.798   6.422 -0.5371  1.0990  0.0212
  912MOL0     C20281   4.957   2.793   6.425  0.1443 -0.9536  0.1501
  912MOL0     O20282   4.903   2.669   6.427  1.0822  0.7167  0.5059
  912MOL0     C20283   4.761   2.652   6.407  0.0953 -0.7639  0.0132
  912MOL0     C20284   4.713   2.635   6.272  0.2559 -0.3737 -0.5543
  912MOL0     C20285   4.579   2.626   6.246  0.2532  0.9362 -0.1504
  912MOL0     C20286   4.483   2.638   6.349 -0.3174 -0.0433 -0.7051
  912MOL0     O20287   4.348   2.626   6.339 -0.3455 -0.7346 -0.4703
  912MOL0     C20288   4.282   2.586   6.216 -0.0049 -0.1778  0.3260
  912MOL0     C20289   4.138   2.636   6.238  0.1025 -0.9832  0.3391
  912MOL0     C20290   4.070   2.549   6.348  0.8971 -0.4512  0.1756
  912MOL0     C20291   3.954   2.625   6.398  0.7227  0.5752  0.3944
  912MOL0     C20292   3.893   2.538   6.494  0.1431  0.0145 -0.2451
  912MOL0     C20293   3.768   2.597   6.558  0.1026  0.0223  0.3628
  912MOL0     C20294   3.657   2.618   6.457 -0.0652 -0.7693  0.3720
  912MOL0     C20295   3.515   2.631   6.524 -0.6772 -0.3803 -0.5085
  912MOL0    Cl20296   3.510   2.797   6.587  0.2667  0.1910 -0.0347
  912MOL0     C20297   4.529   2.664   6.483 -1.1734 -0.1907 -0.4701
  912MOL0     C20298   4.668   2.676   6.512 -0.1067 -0.0562 -0.5293
  912MOL0     O20299   4.889   2.899   6.418 -0.3104  0.2861  0.2501
  912MOL0     C20300   5.180   2.687   6.363  0.4847  0.4041 -0.1507
  912MOL0     C20301   5.321   2.684   6.354 -0.1656  0.3321 -0.2165
  912MOL0     N20302   6.074   2.774   6.178 -0.6355  1.3234  0.1920
  912MOL0     N20303   6.095   2.774   6.054  0.1537  0.2417 -0.4548
  912MOL0     C20304   7.065   1.972   6.186 -0.0197 -0.4647  0.2782
  912MOL0     C20305   7.196   1.963   6.224  0.0254  0.2825  1.0375
  912MOL0     C20306   7.621   2.016   6.334  0.2971  0.2505 -0.5665
  912MOL0     C20307   7.688   2.107   6.253 -0.3014  0.3926 -0.4260
  912MOL0     C20308   7.825   2.139   6.275  0.5789 -0.4633  0.1168
  912MOL0     C20309   7.903   2.065   6.365 -0.4592  0.8810  0.2132
  912MOL0     O20310   8.037   2.073   6.388 -0.5552 -0.5526 -0.6524
  912MOL0     C20311   8.122   2.108   6.278 -0.6482  0.8986 -0.4715
  912MOL0     C20312   8.125   2.010   6.165 -0.1713  1.2718  0.2692
  912MOL0     C20313   8.218   1.893   6.194  0.6464  0.4766 -0.7069
  912MOL0     C20314   8.230   1.784   6.081  0.2279 -0.0634  0.6081
  912MOL0     C20315   8.299   1.844   5.967 -0.4556  0.4606  0.1269
  912MOL0     C20316   8.354   1.876   5.864  0.4544  0.4649  0.1821
  912MOL0     C20317   7.834   1.970   6.439  0.1635  0.5720  0.8020
  912MOL0     C20318   7.696   1.941   6.431 -0.1442 -0.7262 -0.1312
  912MOL0     H20319   7.316   2.254   6.130 -0.7079 -0.3117  1.1045
  912MOL0     H20320   7.064   2.283   6.055  0.2800 -0.5375 -1.0468
  912MOL0     H20321   6.857   2.277   6.006 -1.9551 -0.9422 -1.6686
  912MOL0     H20322   6.812   2.261   6.179  1.2440  1.1637 -1.8740
  912MOL0     H20323   6.619   2.118   6.116  1.0533  1.4312  0.2517
  912MOL0     H20324   6.683   2.091   5.955 -0.7633 -1.9021  0.5452
  912MOL0     H20325   6.641   2.346   5.891 -0.6111  2.0507  0.5669
  912MOL0     H20326   6.611   2.360   6.064 -0.4571 -1.3142  2.4364
  912MOL0     H20327   6.459   2.153   5.910  1.6879  0.1480 -0.0570
  912MOL0     H20328   6.419   2.247   6.060 -1.2022  2.3179  0.3458
  912MOL0     H20329   6.274   2.305   5.860 -0.6865 -0.5450  2.2855
  912MOL0     H20330   6.418   2.342   5.772 -2.2534  0.1441 -1.9480
  912MOL0     H20331   6.465   2.526   5.945 -0.1714  0.6040  1.7222
  912MOL0     H20332   6.326   2.473   6.040 -1.6835  0.0212 -0.1544
  912MOL0     H20333   6.320   2.693   5.843  0.5939 -0.3506 -1.5463
  912MOL0     H20334   6.299   2.552   5.740 -1.9389 -1.4887 -0.4692
  912MOL0     H20335   6.090   2.496   5.862 -0.5633 -0.2118  2.2236
  912MOL0     H20336   6.085   2.660   5.806  0.4089  0.5888 -1.3674
  912MOL0     H20337   6.064   2.455   6.130 -2.4751  1.7636 -0.7884
  912MOL0     H20338   6.036   2.688   6.413  2.9681  0.1042 -1.4261
  912MOL0     H20339   6.072   2.522   6.379  5.0810  4.0756  1.9413
  912MOL0     H20340   5.832   2.510   6.458 -0.9292 -0.2380 -1.0250
  912MOL0     H20341   5.803   2.519   6.287  1.5029 -1.4014 -1.0927
  912MOL0     H20342   5.762   2.732   6.501 -1.2535  0.2388 -0.4434
  912MOL0     H20343   5.796   2.782   6.331 -0.2914 -0.3040 -2.1115
  912MOL0     H20344   5.562   2.594   6.419 -1.6499  0.8499 -0.2139
  912MOL0     H20345   5.596   2.644   6.255 -0.0592 -1.7242  0.1819
  912MOL0     H20346   5.370   2.971   6.534 -2.2190  0.9910 -0.2724
  912MOL0     H20347   5.132   2.990   6.533 -0.5782  1.4789 -0.7870
  912MOL0     H20348   4.779   2.618   6.188  0.1882 -1.1705 -0.4562
  912MOL0     H20349   4.542   2.602   6.147 -1.3977  1.9980  0.1708
  912MOL0     H20350   4.291   2.478   6.203  2.2193 -0.0862  0.7628
  912MOL0     H20351   4.323   2.642   6.131  0.3275 -0.1395  0.5087
  912MOL0     H20352   4.082   2.606   6.149 -2.6198  1.1169  1.2229
  912MOL0     H20353   4.131   2.743   6.259 -0.5378 -1.2544  1.5444
  912MOL0     H20354   4.137   2.542   6.434 -1.5586  2.4203  2.5578
  912MOL0     H20355   4.047   2.449   6.308  1.7075 -0.5826  0.0127
  912MOL0     H20356   3.979   2.719   6.448  3.3572  0.0374  0.1951
  912MOL0     H20357   3.887   2.651   6.315  2.5956  4.3601 -0.1345
  912MOL0     H20358   3.975   2.510   6.560  0.3750  1.4178  0.0819
  912MOL0     H20359   3.856   2.458   6.428 -1.0715  0.0164  0.3922
  912MOL0     H20360   3.783   2.691   6.612  0.0465  0.6787 -0.7307
  912MOL0     H20361   3.719   2.526   6.626 -1.9457  0.3185 -0.7380
  912MOL0     H20362   3.672   2.705   6.392 -0.5547 -0.7955  0.2190
  912MOL0     H20363   3.651   2.529   6.394  1.3795  1.1182 -2.6657
  912MOL0     H20364   3.502   2.551   6.597 -1.3473 -1.3176 -1.6233
  912MOL0     H20365   3.440   2.626   6.445 -0.6649  0.2817 -0.5729
  912MOL0     H20366   4.452   2.683   6.557 -0.0420 -1.5861  1.1389
  912MOL0     H20367   4.686   2.711   6.613 -0.9971  1.2454 -0.8009
  912MOL0     H20368   5.125   2.603   6.322 -0.2686  1.1595 -0.7365
  912MOL0     H20369   5.373   2.603   6.302 -1.9506 -1.4309  0.6218
  912MOL0     H20370   7.005   1.882   6.193 -1.1211  0.0883 -1.3883
  912MOL0     H20371   7.231   1.868   6.263 -3.9284 -1.9891 -0.3293
  912MOL0     H20372   7.637   2.167   6.178 -0.0562  0.0511 -0.8680
  912MOL0     H20373   7.869   2.201   6.197 -0.2771 -0.5699 -0.4719
  912MOL0     H20374   8.216   2.095   6.332 -0.9022  1.1306  0.0336
  912MOL0     H20375   8.117   2.211   6.240 -0.7086  0.7431 -0.8992
  912MOL0     H20376   8.024   1.972   6.153 -0.1674  2.0847 -3.5207
  912MOL0     H20377   8.156   2.059   6.072  2.8356  0.3424  0.6478
  912MOL0     H20378   8.176   1.843   6.282  2.0941 -1.0337 -0.8329
  912MOL0     H20379   8.321   1.922   6.216  0.9773 -0.9382 -0.3111
  912MOL0     H20380   8.283   1.694   6.115 -1.6674 -1.3197  0.3678
  912MOL0     H20381   8.129   1.755   6.052 -0.6575  1.8389  1.6575
  912MOL0     H20382   8.405   1.895   5.772 -0.9162 -2.8644 -1.4509
  912MOL0     H20383   7.884   1.896   6.501  3.3014  1.7392 -0.1524
  912MOL0     H20384   7.661   1.856   6.488  2.2356 -1.0960  0.8992
  913MOL0     O20385   5.923   7.652   4.966 -0.4925  0.1646  0.2281
  913MOL0     C20386   5.874   7.620   4.859  0.0733 -0.1292  0.7269
  913MOL0     O20387   5.737   7.608   4.831  0.8500  0.4182 -0.8459
  913MOL0     C20388   5.646   7.603   4.939  0.6008  0.5737 -0.2369
  913MOL0     C20389   5.534   7.521   4.939  0.5525 -0.6014  0.1084
  913MOL0     C20390   5.453   7.499   5.047  0.4224  0.2025 -0.1198
  913MOL0     C20391   5.464   7.575   5.165  0.7863  0.2255  0.0528
  913MOL0     O20392   5.368   7.553   5.260 -0.7920  0.1625  0.1257
  913MOL0     C20393   5.236   7.608   5.239 -1.1068 -0.2655  0.4617
  913MOL0     C20394   5.159   7.537   5.351 -0.3615  0.9551 -0.4535
  913MOL0     C20395   5.011   7.562   5.363  0.2255 -0.3056  0.6097
  913MOL0     C20396   4.940   7.475   5.464 -0.0459  0.5210 -0.7013
  913MOL0     C20397   4.789   7.482   5.451  0.0148 -0.6209  0.0141
  913MOL0     C20398   4.723   7.372   5.541  0.3286 -0.4997  0.0014
  913MOL0     C20399   4.566   7.382   5.536 -0.4833  0.5643  1.0735
  913MOL0     C20400   4.471   7.294   5.627  0.3837  0.5402  0.4437
  913MOL0     N20401   4.499   7.334   5.768  0.5886 -0.0084 -0.9046
  913MOL0     C20402   4.481   7.461   5.822  0.1862  0.2234  0.3838
  913MOL0     C20403   4.491   7.448   5.948 -0.3451 -0.9641  1.1639
  913MOL0     C20404   4.484   7.562   6.053 -0.4363  0.6267  0.0680
  913MOL0     C20405   4.343   7.595   6.102  0.2000  0.1168  0.2118
  913MOL0     C20406   4.276   7.469   6.153  0.7311 -0.0010 -0.1209
  913MOL0     C20407   4.334   7.392   6.266 -0.3250  0.7078 -0.4660
  913MOL0     O20408   4.228   7.337   6.349  0.5390 -0.6068 -0.0318
  913MOL0     C20409   4.118   7.275   6.292 -0.9032 -1.1586 -0.2989
  913MOL0     C20410   4.129   7.187   6.181 -0.1273  0.4812 -0.9334
  913MOL0     C20411   4.021   7.116   6.143 -0.1135  0.8325 -0.4199
  913MOL0     C20412   3.895   7.131   6.202  0.5762 -0.1486 -0.1971
  913MOL0     C20413   3.781   7.049   6.153 -0.0279 -0.1637 -0.6725
  913MOL0     O20414   3.776   6.998   6.032  0.1770  0.5982  0.0797
  913MOL0     C20415   3.664   6.924   5.993  0.1777 -0.3336  0.2598
  913MOL0     C20416   3.581   6.988   5.912 -0.1985  0.7839 -1.4454
  913MOL0     C20417   3.455   6.930   5.889 -1.2025 -0.1378  0.0908
  913MOL0     C20418   3.425   6.800   5.926 -0.3458 -0.2819  0.8371
  913MOL0     O20419   3.308   6.732   5.906  0.0388 -0.1995  0.3521
  913MOL0     C20420   3.330   6.616   5.825  0.5747  0.4181 -0.2026
  913MOL0     C20421   3.326   6.652   5.674  0.3258  0.6734  0.5640
  913MOL0     C20422   3.183   6.684   5.619 -0.2677 -0.5482  0.0154
  913MOL0     C20423   3.189   6.706   5.467 -0.2162 -0.2430 -0.1257
  913MOL0     C20424   3.050   6.753   5.409 -0.3412  0.4650  0.3750
  913MOL0     C20425   3.052   6.785   5.264 -0.7015 -0.6156  0.2622
  913MOL0     C20426   3.159   6.891   5.223 -0.4105  0.5865 -0.0783
  913MOL0     C20427   3.135   6.958   5.084 -0.1529  0.7635 -1.1535
  913MOL0    Cl20428   3.277   7.045   5.032  0.2428  0.0121 -0.1260
  913MOL0     C20429   3.532   6.734   5.998 -0.0713 -0.1370  0.4063
  913MOL0     C20430   3.646   6.797   6.036  0.4875  0.3724 -1.0903
  913MOL0     O20431   3.699   7.030   6.244  0.3080 -0.1903 -0.3691
  913MOL0     C20432   3.880   7.221   6.307 -0.4026  0.5857  0.1007
  913MOL0     C20433   3.993   7.291   6.348 -0.4677 -0.5710 -0.9932
  913MOL0     N20434   4.500   7.312   5.977 -0.6204 -0.0061  1.2539
  913MOL0     N20435   4.502   7.243   5.871 -0.8045 -0.1223 -0.9006
  913MOL0     C20436   5.564   7.667   5.165  0.2594 -0.9499  0.1820
  913MOL0     C20437   5.654   7.675   5.058  0.8720 -0.1574 -0.2081
  913MOL0     C20438   5.969   7.576   4.749  1.4134 -0.7958  0.4143
  913MOL0     C20439   6.105   7.569   4.774 -0.1809 -0.2218 -0.0470
  913MOL0     C20440   6.198   7.563   4.667 -0.0759 -0.6368 -0.2217
  913MOL0     C20441   6.154   7.564   4.532 -0.4853  0.6660  0.9307
  913MOL0     O20442   6.242   7.567   4.424 -0.4849  0.0764 -0.0935
  913MOL0     C20443   6.372   7.636   4.436 -0.1611  0.7735  0.4075
  913MOL0     C20444   6.465   7.591   4.326  0.0574 -0.2390 -0.6762
  913MOL0     C20445   6.492   7.441   4.346  0.3571  0.6532 -0.0287
  913MOL0     C20446   6.617   7.401   4.280  0.1837  1.3756 -0.4471
  913MOL0     C20447   6.663   7.263   4.319 -0.2269 -0.2651  0.1401
  913MOL0     C20448   6.683   7.141   4.341 -0.5301 -0.2407 -0.4243
  913MOL0     C20449   6.013   7.573   4.515  0.5927 -0.0444  0.1475
  913MOL0     C20450   5.914   7.575   4.617  0.4605 -0.1311 -0.9595
  913MOL0     H20451   5.504   7.473   4.846  2.0155 -0.5467 -0.4201
  913MOL0     H20452   5.379   7.420   5.039  0.8845 -0.1944 -0.4698
  913MOL0     H20453   5.203   7.573   5.141 -1.1581 -2.0119  1.0796
  913MOL0     H20454   5.229   7.717   5.240  0.1304 -0.0838 -2.2486
  913MOL0     H20455   5.211   7.543   5.447 -1.5870 -0.2971  0.3366
  913MOL0     H20456   5.169   7.430   5.331 -1.6524  0.3808  1.6561
  913MOL0     H20457   4.960   7.549   5.267 -1.5905 -0.7256  1.5833
  913MOL0     H20458   4.999   7.661   5.407 -0.5355 -0.5382  0.9474
  913MOL0     H20459   4.962   7.371   5.439 -1.7082 -0.2554  0.8848
  913MOL0     H20460   4.969   7.492   5.568  1.3780 -1.1585 -0.7654
  913MOL0     H20461   4.753   7.459   5.350 -0.9444 -0.1671  0.2388
  913MOL0     H20462   4.750   7.578   5.485 -0.0244 -0.7576  0.3520
  913MOL0     H20463   4.765   7.382   5.641 -0.5993  1.5485  0.2424
  913MOL0     H20464   4.753   7.276   5.498 -0.2704  0.3954 -2.6108
  913MOL0     H20465   4.542   7.488   5.546 -2.5241  0.1226  1.4404
  913MOL0     H20466   4.539   7.355   5.433 -0.7431 -0.8861  1.4881
  913MOL0     H20467   4.484   7.185   5.622  1.3830  0.5573  1.9863
  913MOL0     H20468   4.365   7.318   5.617  0.4992  0.8371 -0.0970
  913MOL0     H20469   4.461   7.550   5.764 -3.0014 -2.3887 -3.0060
  913MOL0     H20470   4.533   7.652   6.014 -2.1557  2.1607  1.2835
  913MOL0     H20471   4.548   7.529   6.136 -1.0645 -2.1179 -0.4667
  913MOL0     H20472   4.293   7.639   6.015 -0.0576 -1.9778 -0.7593
  913MOL0     H20473   4.341   7.676   6.176 -2.3145 -0.4033  0.8011
  913MOL0     H20474   4.182   7.507   6.195  2.0729  0.7941  2.3490
  913MOL0     H20475   4.264   7.397   6.072  1.3230  1.4480 -1.5411
  913MOL0     H20476   4.389   7.462   6.330  2.1488  0.3460 -2.0766
  913MOL0     H20477   4.406   7.319   6.231  0.4499  0.9398  0.6086
  913MOL0     H20478   4.217   7.181   6.118  0.7017  1.3680  0.0964
  913MOL0     H20479   4.025   7.035   6.071  1.7705 -0.4387  1.0036
  913MOL0     H20480   3.605   7.081   5.860 -3.1591  1.4351 -1.8445
  913MOL0     H20481   3.391   6.989   5.824  2.5584  2.8463 -1.2326
  913MOL0     H20482   3.249   6.546   5.847  1.7685 -2.2428 -3.2913
  913MOL0     H20483   3.421   6.556   5.838  0.2878 -0.9972 -3.5090
  913MOL0     H20484   3.361   6.569   5.613 -2.3200 -0.6256  0.7087
  913MOL0     H20485   3.402   6.730   5.660 -0.3247  1.0509 -0.9969
  913MOL0     H20486   3.149   6.781   5.658 -2.3619 -1.3224  0.2041
  913MOL0     H20487   3.108   6.608   5.641 -0.5843 -1.2700 -3.0893
  913MOL0     H20488   3.263   6.784   5.446  0.4640 -0.8398 -0.0073
  913MOL0     H20489   3.213   6.610   5.421 -0.1962  0.1542 -0.9642
  913MOL0     H20490   3.026   6.842   5.470  0.6690 -0.1900  1.7897
  913MOL0     H20491   2.974   6.678   5.429  0.7173 -0.8625 -0.4448
  913MOL0     H20492   2.960   6.838   5.237  1.6177  2.4624 -2.5240
  913MOL0     H20493   3.062   6.697   5.200  0.4501 -1.0509  1.0065
  913MOL0     H20494   3.137   6.968   5.297  0.0285 -1.0787  1.8479
  913MOL0     H20495   3.259   6.849   5.235 -1.0283 -0.1961  3.4047
  913MOL0     H20496   3.046   7.022   5.089 -1.1927 -0.6930  2.4938
  913MOL0     H20497   3.121   6.878   5.011 -0.0237  0.5753 -0.9711
  913MOL0     H20498   3.515   6.633   6.032  0.5162  0.4986  2.7292
  913MOL0     H20499   3.720   6.744   6.095  0.0472  0.8159 -0.1221
  913MOL0     H20500   3.788   7.223   6.364 -1.8095 -2.3809 -1.7749
  913MOL0     H20501   3.982   7.359   6.432  0.9024 -0.3567 -0.9638
  913MOL0     H20502   5.583   7.735   5.247 -0.7369 -2.0180  1.3328
  913MOL0     H20503   5.726   7.751   5.088 -1.1569  1.5426  0.5680
  913MOL0     H20504   6.150   7.567   4.873 -2.1360 -1.2882  0.8830
  913MOL0     H20505   6.303   7.564   4.692 -0.1943 -0.3270  0.2738
  913MOL0     H20506   6.423   7.608   4.529  1.4607 -0.0516 -0.6861
  913MOL0     H20507   6.360   7.743   4.420  0.9423  0.8509 -0.0211
  913MOL0     H20508   6.421   7.619   4.230 -1.4484  0.6912  0.2549
  913MOL0     H20509   6.559   7.647   4.322 -0.3047  0.4006 -0.3939
  913MOL0     H20510   6.403   7.386   4.314 -0.0085  1.8007 -1.1114
  913MOL0     H20511   6.511   7.428   4.453 -1.2224 -0.8097  0.1059
  913MOL0     H20512   6.596   7.402   4.172  0.1797  3.3575 -0.4557
  913MOL0     H20513   6.700   7.472   4.290  1.8032 -0.0003 -2.9117
  913MOL0     H20514   6.679   7.040   4.374  1.3631  0.2393  1.5655
  913MOL0     H20515   5.981   7.599   4.414 -2.2036 -0.4157  0.8515
  913MOL0     H20516   5.810   7.597   4.598  0.3945  0.8236  0.3509
  914MOL0     O20517   9.208   6.857  10.360 -0.4016 -0.2375  0.5031
  914MOL0     C20518   9.195   6.948  10.281  0.5243 -0.1765 -0.8295
  914MOL0     O20519   9.083   7.005  10.240  0.9316 -0.3265 -0.2600
  914MOL0     C20520   8.963   6.988  10.292  1.2192  0.8738 -0.1223
  914MOL0     C20521   8.853   6.981  10.206  0.8109  0.0290 -0.5550
  914MOL0     C20522   8.724   6.964  10.264  0.6884  0.5311  0.3167
  914MOL0     C20523   8.705   6.946  10.402  0.7916  0.3244  0.4263
  914MOL0     O20524   8.571   6.912  10.433 -0.3975 -0.3256  0.0049
  914MOL0     C20525   8.549   6.881  10.569  0.1944  0.5978 -0.0523
  914MOL0     C20526   8.406   6.857  10.616  0.0204  0.1888 -0.4165
  914MOL0     C20527   8.331   6.989  10.619  0.4462 -0.7204 -0.2662
  914MOL0     C20528   8.256   7.011  10.483  0.3890  0.0436 -0.1113
  914MOL0     C20529   8.163   7.134  10.480  0.0337 -0.3926 -0.1028
  914MOL0     C20530   8.035   7.105  10.564  0.2035 -0.5700  0.0728
  914MOL0     C20531   7.922   7.083  10.462 -0.8490 -0.6070 -0.1742
  914MOL0     C20532   7.808   6.996  10.515 -0.7615 -0.5184  0.1663
  914MOL0     N20533   7.743   7.059  10.629  0.3583 -0.5410  0.1540
  914MOL0     C20534   7.701   7.192  10.650 -0.2237  0.5054  0.0930
  914MOL0     C20535   7.618   7.188  10.762 -0.3403 -0.2673 -0.1322
  914MOL0     C20536   7.550   7.309  10.823 -0.2144 -0.5382 -0.1193
  914MOL0     C20537   7.399   7.297  10.862  0.0015 -0.9092 -0.2208
  914MOL0     C20538   7.396   7.296  11.018 -0.2306  0.5321  0.4479
  914MOL0     C20539   7.254   7.290  11.068 -0.1462 -0.1805 -0.1017
  914MOL0     O20540   7.229   7.417  11.135 -0.2956  0.4202 -0.2370
  914MOL0     C20541   7.102   7.459  11.141 -0.0919  0.2327  1.1585
  914MOL0     C20542   7.077   7.590  11.170 -0.0387 -0.4075 -0.2899
  914MOL0     C20543   6.952   7.643  11.182  0.0665 -0.1993  0.7515
  914MOL0     C20544   6.837   7.563  11.186  0.1929  0.1742  0.7341
  914MOL0     C20545   6.695   7.620  11.192  0.0840  0.3816 -0.3769
  914MOL0     O20546   6.597   7.527  11.157 -0.1043 -0.7139 -0.2236
  914MOL0     C20547   6.460   7.544  11.178  0.7720 -0.0690  0.3852
  914MOL0     C20548   6.369   7.535  11.073  0.0767 -0.3490  0.4094
  914MOL0     C20549   6.234   7.574  11.091 -0.7487 -0.4711  0.2548
  914MOL0     C20550   6.180   7.622  11.214  0.8219 -0.7032 -0.1652
  914MOL0     O20551   6.042   7.633  11.207 -0.4618 -0.5015  0.0530
  914MOL0     C20552   5.976   7.701  11.313  0.8349  0.1119  0.3729
  914MOL0     C20553   5.833   7.704  11.263  0.0910  0.1372  0.5075
  914MOL0     C20554   5.822   7.826  11.162 -0.2215 -0.6618 -0.2248
  914MOL0     C20555   5.677   7.869  11.116  0.3938  0.3306 -0.4723
  914MOL0     C20556   5.602   7.928  11.240  1.2923  0.1392 -0.0275
  914MOL0     C20557   5.454   7.925  11.214 -0.4939 -0.1394  0.3134
  914MOL0     C20558   5.382   7.975  11.339 -0.2505  0.5169 -0.1425
  914MOL0     C20559   5.234   7.990  11.327 -0.3346 -0.2719 -0.5486
  914MOL0    Cl20560   5.164   7.853  11.239  0.2227 -0.1115  0.1228
  914MOL0     C20561   6.271   7.634  11.315 -0.7045  0.4397 -0.0297
  914MOL0     C20562   6.406   7.606  11.295 -0.6997  0.2532  0.0316
  914MOL0     O20563   6.678   7.735  11.234 -0.1558 -0.0453 -0.8432
  914MOL0     C20564   6.859   7.427  11.146 -0.6164  0.7965  0.2412
  914MOL0     C20565   6.988   7.377  11.140 -1.1970 -0.2321 -0.2600
  914MOL0     N20566   7.619   7.059  10.809  0.0737 -0.5372 -0.4562
  914MOL0     N20567   7.686   6.983  10.728  0.3242 -1.1657  0.3216
  914MOL0     C20568   8.819   6.938  10.479  0.2536 -1.1157 -0.5401
  914MOL0     C20569   8.945   6.965  10.427  0.6197  0.5097 -0.3306
  914MOL0     C20570   9.325   7.003  10.233  0.4138 -0.1502  0.8045
  914MOL0     C20571   9.447   6.992  10.307 -0.8036  1.1378  0.0190
  914MOL0     C20572   9.566   7.050  10.260  1.4071 -0.4141  0.3213
  914MOL0     C20573   9.577   7.119  10.142  1.3834 -0.2239  0.3118
  914MOL0     O20574   9.693   7.165  10.099 -0.2656  0.1818 -0.7601
  914MOL0     C20575   9.733   7.272  10.181  0.6558  0.7402 -0.1322
  914MOL0     C20576   9.862   7.248  10.255  0.9756  0.1131  0.5751
  914MOL0     C20577   9.937   7.379  10.278  0.0750 -0.2009  0.5467
  914MOL0     C20578  10.007   7.424  10.139  1.0780  0.8285  0.0420
  914MOL0     C20579  10.087   7.551  10.165  0.2385  0.0147  1.2983
  914MOL0     C20580  10.167   7.640  10.182  0.5200 -0.1120  0.2956
  914MOL0     C20581   9.455   7.135  10.071 -0.2923 -0.5941  0.3816
  914MOL0     C20582   9.338   7.082  10.118 -0.8563  0.9303  0.2736
  914MOL0     H20583   8.869   6.997  10.100  0.4963  0.7232 -0.5055
  914MOL0     H20584   8.646   6.982  10.191  1.0471  0.2425 -0.1432
  914MOL0     H20585   8.605   6.953  10.630 -0.2701 -0.3309  1.4954
  914MOL0     H20586   8.599   6.786  10.587  0.3311  0.1609 -2.3610
  914MOL0     H20587   8.395   6.805  10.712  1.0457  0.3635 -0.2000
  914MOL0     H20588   8.348   6.791  10.550 -0.6569  0.7049 -0.3504
  914MOL0     H20589   8.398   7.072  10.642  0.4073 -0.5779 -0.6552
  914MOL0     H20590   8.267   6.979  10.707 -0.3036  0.3496 -0.6669
  914MOL0     H20591   8.326   7.009  10.399 -1.1932 -0.3253 -1.4678
  914MOL0     H20592   8.190   6.929  10.455  0.7009  0.8765 -3.8792
  914MOL0     H20593   8.147   7.168  10.376 -1.5976  0.3097  0.3354
  914MOL0     H20594   8.218   7.211  10.535  2.6573 -3.3200  1.6367
  914MOL0     H20595   8.011   7.184  10.636  2.0327 -1.2050  1.4465
  914MOL0     H20596   8.056   7.019  10.629  0.8680 -0.0774  0.5208
  914MOL0     H20597   7.886   7.186  10.456  1.5817  0.2096 -2.5228
  914MOL0     H20598   7.965   7.055  10.365  4.6332 -0.4900  1.8922
  914MOL0     H20599   7.856   6.904  10.550  6.2982  2.9450  1.4634
  914MOL0     H20600   7.731   6.989  10.438 -1.3269 -1.9204  0.8372
  914MOL0     H20601   7.743   7.280  10.603  1.7455  0.5579  1.8289
  914MOL0     H20602   7.559   7.388  10.748 -1.0475 -0.9100 -0.6164
  914MOL0     H20603   7.603   7.336  10.915 -2.5723 -0.3613  1.2731
  914MOL0     H20604   7.377   7.196  10.827  5.3966 -1.2954 -3.7121
  914MOL0     H20605   7.359   7.385  10.810 -0.4371  1.5108  3.7621
  914MOL0     H20606   7.446   7.205  11.052 -1.1053  0.8102  2.6474
  914MOL0     H20607   7.440   7.390  11.052 -1.3585  1.3260 -0.2133
  914MOL0     H20608   7.239   7.194  11.118  0.6109 -0.5612 -0.5870
  914MOL0     H20609   7.190   7.274  10.981 -1.8566 -0.1558  1.1073
  914MOL0     H20610   7.155   7.661  11.194  0.1962 -1.8627  4.0437
  914MOL0     H20611   6.943   7.751  11.192 -0.5347  0.0224 -1.7226
  914MOL0     H20612   6.415   7.510  10.978 -1.3109  0.8222 -0.6250
  914MOL0     H20613   6.161   7.559  11.012  1.8026  0.2165 -2.4070
  914MOL0     H20614   6.002   7.806  11.331 -3.6913  2.2701 -3.3848
  914MOL0     H20615   5.977   7.638  11.403 -1.6572 -0.0505  0.3828
  914MOL0     H20616   5.771   7.728  11.350  3.5173  5.6295  1.9360
  914MOL0     H20617   5.808   7.615  11.205  0.4693  0.9906 -1.0087
  914MOL0     H20618   5.886   7.793  11.080  4.5165  0.0215  2.8265
  914MOL0     H20619   5.879   7.913  11.197 -1.1199  0.7050 -1.9731
  914MOL0     H20620   5.681   7.938  11.031 -1.0988  1.5690  0.4128
  914MOL0     H20621   5.628   7.776  11.090  1.4478 -0.1194 -0.9257
  914MOL0     H20622   5.647   8.027  11.251  1.3799  0.1586 -0.5445
  914MOL0     H20623   5.618   7.876  11.335 -2.2823  0.3151  0.8234
  914MOL0     H20624   5.424   7.825  11.180 -0.5279  0.3789 -1.2506
  914MOL0     H20625   5.425   7.998  11.138  1.5887  0.2687 -0.1514
  914MOL0     H20626   5.413   7.925  11.432  1.7157  2.6123  0.4529
  914MOL0     H20627   5.423   8.075  11.356  0.4876  0.2754 -0.4676
  914MOL0     H20628   5.204   8.075  11.265 -1.0841  0.5287  0.8447
  914MOL0     H20629   5.198   8.003  11.430  1.8651 -0.3321  0.2931
  914MOL0     H20630   6.235   7.685  11.403 -1.5915  2.1781 -1.3294
  914MOL0     H20631   6.473   7.639  11.373  1.6034 -1.5513 -1.0626
  914MOL0     H20632   6.778   7.355  11.134  1.5254 -1.9286  1.1014
  914MOL0     H20633   7.003   7.275  11.105 -1.3178 -0.5189  0.4908
  914MOL0     H20634   8.801   6.928  10.585 -1.0476  3.4664 -0.1077
  914MOL0     H20635   9.031   6.965  10.493 -2.4140  0.0939  4.1118
  914MOL0     H20636   9.455   6.928  10.393  2.9733  0.3135 -0.7746
  914MOL0     H20637   9.655   7.017  10.313  0.2019 -0.0706  2.7309
  914MOL0     H20638   9.658   7.306  10.252 -2.1285 -3.4615 -0.7228
  914MOL0     H20639   9.740   7.356  10.111 -2.6146 -0.2563 -1.8519
  914MOL0     H20640   9.836   7.202  10.351  3.1141  1.0059  1.6397
  914MOL0     H20641   9.932   7.186  10.199  2.8058  1.7445  0.9485
  914MOL0     H20642  10.016   7.377  10.354  1.8836  2.9086 -1.0420
  914MOL0     H20643   9.867   7.451  10.320 -0.2219  0.8101 -1.5725
  914MOL0     H20644  10.083   7.350  10.111  1.6230  1.9742 -1.6350
  914MOL0     H20645   9.947   7.420  10.047  1.9915 -3.8774 -0.6362
  914MOL0     H20646  10.234   7.718  10.212  2.4963 -1.7627  0.3994
  914MOL0     H20647   9.456   7.200   9.984  0.8775 -0.8915  0.1659
  914MOL0     H20648   9.247   7.102  10.061 -2.7558 -1.4222  2.2205
  915MOL0     O20649  11.153   7.715   4.968 -0.7789 -0.3203  0.1411
  915MOL0     C20650  11.100   7.610   4.941  0.7001 -0.5959 -0.1476
  915MOL0     O20651  11.163   7.493   4.903 -1.1888  0.0414  0.0792
  915MOL0     C20652  11.293   7.504   4.855 -0.0871  0.6854  0.0675
  915MOL0     C20653  11.323   7.579   4.741  0.2803 -0.4540 -0.3974
  915MOL0     C20654  11.445   7.575   4.675 -0.0130  0.9845 -0.5422
  915MOL0     C20655  11.548   7.513   4.749  0.7207  0.0258  0.1470
  915MOL0     O20656  11.667   7.540   4.692  0.8716 -0.0228  0.1289
  915MOL0     C20657  11.742   7.626   4.770  0.5226  0.0160 -0.0374
  915MOL0     C20658  11.871   7.637   4.690  0.8608  0.0225  0.7316
  915MOL0     C20659  11.987   7.721   4.746  0.4499  0.4807  0.2999
  915MOL0     C20660  11.985   7.737   4.897 -0.3826  0.8198 -0.7161
  915MOL0     C20661  12.008   7.622   4.996  0.4764  0.4532 -0.4156
  915MOL0     C20662  12.143   7.558   4.959  0.1039  0.0498 -0.0026
  915MOL0     C20663  12.196   7.450   5.048  0.1676  0.0254 -1.0593
  915MOL0     C20664  12.275   7.505   5.181  0.3237  0.4554  0.2285
  915MOL0     N20665  12.359   7.400   5.243  0.2288  1.0381 -0.7541
  915MOL0     C20666  12.374   7.378   5.379 -0.7533 -0.1837  0.5711
  915MOL0     C20667  12.452   7.271   5.399  0.0611 -0.0494 -1.9729
  915MOL0     C20668  12.487   7.217   5.538  0.8029  0.9144 -0.1125
  915MOL0     C20669  12.604   7.291   5.598  0.4861 -0.6105 -0.3548
  915MOL0     C20670  12.630   7.272   5.747  0.0877  0.2566  0.0352
  915MOL0     C20671  12.659   7.121   5.786  0.1765 -0.5442  1.2350
  915MOL0     O20672  12.646   7.098   5.929 -0.0950  0.0024  1.2094
  915MOL0     C20673  12.530   7.076   5.991  1.1813 -0.6131  0.6110
  915MOL0     C20674  12.533   7.037   6.123  0.5004 -0.3410  0.3337
  915MOL0     C20675  12.415   7.015   6.189 -0.2413  0.2821 -0.3995
  915MOL0     C20676  12.291   6.996   6.131  0.2756  0.5763  0.5972
  915MOL0     C20677  12.172   6.945   6.194 -1.3930  0.5484 -0.8372
  915MOL0     O20678  12.050   6.970   6.155 -0.6832  0.5316  0.1965
  915MOL0     C20679  11.924   6.931   6.213 -0.5427 -0.3539  1.1359
  915MOL0     C20680  11.819   6.897   6.126 -0.2135 -1.0621  0.6666
  915MOL0     C20681  11.691   6.868   6.178 -0.4803  0.1476 -0.8711
  915MOL0     C20682  11.666   6.861   6.319 -1.0886  0.2116 -0.8658
  915MOL0     O20683  11.552   6.821   6.385 -0.0190 -0.0407 -0.2257
  915MOL0     C20684  11.482   6.704   6.330  0.0892 -0.0752  0.2786
  915MOL0     C20685  11.342   6.709   6.397 -0.2844 -0.2415  0.0801
  915MOL0     C20686  11.263   6.824   6.337  0.4271  0.6922 -0.1346
  915MOL0     C20687  11.114   6.818   6.392 -1.0664 -0.2646 -0.3401
  915MOL0     C20688  11.095   6.854   6.525 -0.2770 -0.2582 -0.2370
  915MOL0     C20689  10.952   6.889   6.561  0.9733  0.4729  0.2736
  915MOL0     C20690  10.849   6.773   6.554 -0.4486  0.3875 -0.3756
  915MOL0     C20691  10.708   6.811   6.491 -0.0591 -0.3419  0.0246
  915MOL0    Cl20692  10.748   6.878   6.327 -0.2324 -0.3315 -0.2682
  915MOL0     C20693  11.770   6.899   6.401  0.5051 -0.2346 -0.5713
  915MOL0     C20694  11.894   6.934   6.348  0.3072  0.4839 -0.4071
  915MOL0     O20695  12.209   6.871   6.286  0.8840 -0.8562 -0.0442
  915MOL0     C20696  12.293   7.041   5.995 -0.4535 -0.5457  0.4470
  915MOL0     C20697  12.406   7.088   5.933  0.0011 -0.6843 -0.1432
  915MOL0     N20698  12.485   7.226   5.275 -0.2223 -0.4269  0.4583
  915MOL0     N20699  12.433   7.302   5.186 -0.3127 -0.0767 -0.2524
  915MOL0     C20700  11.525   7.440   4.862  0.1896  0.3502  0.0411
  915MOL0     C20701  11.402   7.438   4.918  0.4665 -0.4964 -0.3370
  915MOL0     C20702  10.954   7.599   4.963  0.0769 -0.3017 -0.5062
  915MOL0     C20703  10.872   7.704   5.014 -0.4499 -0.5280  0.1401
  915MOL0     C20704  10.724   7.688   5.015 -1.3128  0.0031 -0.3186
  915MOL0     C20705  10.665   7.575   4.979 -0.5487  1.1202  0.3041
  915MOL0     O20706  10.525   7.566   5.003 -0.0077 -0.3842 -0.2354
  915MOL0     C20707  10.463   7.446   4.965  0.1315 -0.4596  0.1458
  915MOL0     C20708  10.313   7.463   4.957 -0.1201  0.2428  0.1743
  915MOL0     C20709  10.257   7.543   5.080 -0.7089  0.0074 -0.2032
  915MOL0     C20710  10.103   7.556   5.067  0.7836 -0.8144 -0.7433
  915MOL0     C20711  10.047   7.631   5.183  0.0383  0.8599  0.0413
  915MOL0     C20712  10.015   7.687   5.279  0.2768  0.0543  0.5603
  915MOL0     C20713  10.750   7.463   4.949 -0.4496 -0.4829 -0.1218
  915MOL0     C20714  10.893   7.484   4.946  0.9246  0.3507  0.5897
  915MOL0     H20715  11.247   7.635   4.688 -1.4798 -0.2117  2.1921
  915MOL0     H20716  11.458   7.610   4.573  1.7939  1.4037 -0.2036
  915MOL0     H20717  11.756   7.590   4.872 -3.5099  0.3828  0.8305
  915MOL0     H20718  11.686   7.720   4.768 -1.4557 -1.0956  0.7141
  915MOL0     H20719  11.843   7.660   4.586  1.8486 -1.8172  0.0197
  915MOL0     H20720  11.906   7.534   4.684 -2.5439 -1.8490  5.8942
  915MOL0     H20721  11.979   7.820   4.701  1.3474  1.5765  2.4428
  915MOL0     H20722  12.078   7.670   4.714  0.8519  2.6467 -2.2998
  915MOL0     H20723  12.062   7.812   4.917 -0.6670  0.7696  0.6433
  915MOL0     H20724  11.893   7.787   4.927  1.6683  2.7773  2.9505
  915MOL0     H20725  11.929   7.546   4.994  0.9434 -0.0327 -0.5684
  915MOL0     H20726  12.006   7.671   5.093 -0.7313  2.1178 -1.2470
  915MOL0     H20727  12.226   7.628   4.945  3.9185 -3.9053  0.6221
  915MOL0     H20728  12.119   7.508   4.865 -0.0665  0.7458 -0.3344
  915MOL0     H20729  12.109   7.395   5.083  0.5216  0.2853  0.2846
  915MOL0     H20730  12.264   7.386   4.991  0.2575 -4.7114  3.6213
  915MOL0     H20731  12.203   7.546   5.253 -1.7453 -1.6240 -0.4995
  915MOL0     H20732  12.347   7.581   5.148  1.0396 -0.2201  0.2229
  915MOL0     H20733  12.329   7.446   5.451  0.8939  2.0566 -0.3868
  915MOL0     H20734  12.512   7.111   5.533  0.3343  0.8409 -1.3215
  915MOL0     H20735  12.398   7.232   5.600  2.4671  1.0693  2.3660
  915MOL0     H20736  12.597   7.398   5.579  0.2148 -0.6242 -0.3309
  915MOL0     H20737  12.693   7.265   5.540  1.1044 -2.3734  1.2838
  915MOL0     H20738  12.718   7.330   5.775 -0.7562  1.6810 -0.1622
  915MOL0     H20739  12.536   7.302   5.793 -0.5298 -0.4243 -0.7383
  915MOL0     H20740  12.746   7.092   5.726 -1.3869  0.2011 -1.5779
  915MOL0     H20741  12.582   7.065   5.732  1.2059  0.2612 -1.2395
  915MOL0     H20742  12.629   7.043   6.173  0.8564  1.6219 -0.4988
  915MOL0     H20743  12.418   7.005   6.297  1.0768  0.8777 -0.3705
  915MOL0     H20744  11.835   6.906   6.019  0.8849 -0.9918  0.8202
  915MOL0     H20745  11.606   6.835   6.118 -0.0483  1.2606 -2.1449
  915MOL0     H20746  11.551   6.622   6.353  2.1832  2.1158  2.2835
  915MOL0     H20747  11.476   6.723   6.223  1.4078  1.9799  0.5225
  915MOL0     H20748  11.352   6.732   6.504 -3.4770  0.5251  0.3173
  915MOL0     H20749  11.298   6.610   6.383 -1.8222  0.4864 -0.3347
  915MOL0     H20750  11.256   6.815   6.228 -3.2228  2.6850 -0.2299
  915MOL0     H20751  11.313   6.919   6.359 -2.6098  2.0279  1.5333
  915MOL0     H20752  11.051   6.886   6.334  0.5593  1.1321 -0.5162
  915MOL0     H20753  11.085   6.714   6.370 -1.8396  0.2693 -2.0443
  915MOL0     H20754  11.163   6.938   6.542  1.3640 -1.6750  0.5017
  915MOL0     H20755  11.124   6.776   6.595 -0.6933  1.4842  2.0016
  915MOL0     H20756  10.907   6.978   6.515 -0.1125 -0.6292 -0.8445
  915MOL0     H20757  10.965   6.931   6.662 -0.1080  1.1406  0.1505
  915MOL0     H20758  10.898   6.692   6.500 -0.2877  0.5765 -0.5119
  915MOL0     H20759  10.824   6.729   6.651 -0.8496 -0.1668 -0.7267
  915MOL0     H20760  10.676   6.891   6.559 -2.6549 -1.2549  0.0099
  915MOL0     H20761  10.635   6.731   6.503 -0.0549 -0.2757  0.5209
  915MOL0     H20762  11.742   6.904   6.506 -1.0692 -2.1675 -0.8414
  915MOL0     H20763  11.958   6.974   6.425 -1.4170 -0.1653  1.4685
  915MOL0     H20764  12.198   7.044   5.943  0.1716 -0.8974 -0.7703
  915MOL0     H20765  12.389   7.118   5.830  0.2973  0.9871  0.2663
  915MOL0     H20766  11.608   7.390   4.913 -1.1242 -0.9401  0.9987
  915MOL0     H20767  11.394   7.378   5.008 -1.3751  0.2902  0.0615
  915MOL0     H20768  10.908   7.798   5.054 -4.1620  1.1987 -0.0830
  915MOL0     H20769  10.658   7.767   5.051 -2.4633 -0.6714 -0.8981
  915MOL0     H20770  10.490   7.367   5.035 -1.5393 -0.2774  1.0445
  915MOL0     H20771  10.502   7.428   4.864  2.4225  0.8950  0.7264
  915MOL0     H20772  10.290   7.531   4.875  0.8848  1.0623  0.5389
  915MOL0     H20773  10.260   7.368   4.951  1.1582 -0.4140 -2.1127
  915MOL0     H20774  10.314   7.636   5.088  1.2490 -1.0988 -0.6883
  915MOL0     H20775  10.278   7.484   5.170  1.5603 -0.1454 -0.7785
  915MOL0     H20776  10.068   7.605   4.976 -1.6169  0.3565  0.7150
  915MOL0     H20777  10.065   7.453   5.071 -2.2566  0.2146 -0.0534
  915MOL0     H20778   9.979   7.752   5.356  2.5285  3.5616 -1.0542
  915MOL0     H20779  10.725   7.358   4.932  0.3379 -0.1575 -4.5700
  915MOL0     H20780  10.951   7.394   4.927  1.3630  0.4956  1.2198
  916MOL0     O20781   0.518   7.884   1.164  0.5922  0.2690  0.0413
  916MOL0     C20782   0.467   7.842   1.056 -0.1142  0.6038 -1.0017
  916MOL0     O20783   0.545   7.796   0.946  0.5385 -0.0895  0.4581
  916MOL0     C20784   0.677   7.786   0.950 -0.1965  0.3319  0.2562
  916MOL0     C20785   0.744   7.688   1.016  0.5939  0.7874 -0.4584
  916MOL0     C20786   0.889   7.685   1.009  0.5183 -0.2277 -0.0126
  916MOL0     C20787   0.961   7.781   0.934  0.0554  0.5150 -0.2148
  916MOL0     O20788   1.100   7.798   0.941 -0.2128 -0.0352 -0.1073
  916MOL0     C20789   1.185   7.695   1.007  0.6197 -0.8330 -0.3437
  916MOL0     C20790   1.331   7.728   0.957  0.9283  0.4471 -0.4321
  916MOL0     C20791   1.403   7.839   1.039  0.5517  0.8751  0.5297
  916MOL0     C20792   1.552   7.878   0.980 -0.8897  0.4881 -1.0038
  916MOL0     C20793   1.632   7.758   0.953 -0.4241  0.8588 -0.6702
  916MOL0     C20794   1.657   7.662   1.071 -0.5484  0.3320 -0.0478
  916MOL0     C20795   1.673   7.519   1.013 -0.0270  0.0623 -0.4455
  916MOL0     C20796   1.809   7.486   0.946 -0.0680  0.3627 -0.6867
  916MOL0     N20797   1.809   7.360   0.875 -0.6061 -1.2862 -0.4782
  916MOL0     C20798   1.745   7.244   0.912  0.4611 -0.0229  0.4901
  916MOL0     C20799   1.811   7.147   0.839 -0.1726 -0.6172 -1.1386
  916MOL0     C20800   1.810   7.006   0.868 -0.0156 -1.6717 -0.5574
  916MOL0     C20801   1.789   6.919   0.738 -0.7843 -0.1116 -0.6527
  916MOL0     C20802   1.662   6.968   0.659  0.4369 -0.4158  0.3850
  916MOL0     C20803   1.524   6.927   0.718 -0.3437 -0.2648  1.3549
  916MOL0     O20804   1.509   6.963   0.852  0.4909 -0.1821  0.0783
  916MOL0     C20805   1.400   6.936   0.919 -0.9566  0.0314  0.5277
  916MOL0     C20806   1.281   6.886   0.860 -0.4206  0.4121  0.1512
  916MOL0     C20807   1.170   6.855   0.941 -0.1343 -1.7853 -0.0222
  916MOL0     C20808   1.171   6.884   1.070  0.1785  0.5082  0.2208
  916MOL0     C20809   1.056   6.865   1.149 -0.2935  0.4517 -0.7738
  916MOL0     O20810   1.058   6.928   1.269 -0.3783  0.1825 -0.4100
  916MOL0     C20811   0.945   6.933   1.354  0.0942 -0.1459 -0.4913
  916MOL0     C20812   0.815   6.910   1.313  0.9630 -0.4280  0.8301
  916MOL0     C20813   0.714   6.913   1.408  0.3640 -0.8502  0.2945
  916MOL0     C20814   0.740   6.942   1.540 -0.4968  0.3699 -0.0533
  916MOL0     O20815   0.644   6.975   1.633  0.1794 -0.0372 -0.0660
  916MOL0     C20816   0.518   6.907   1.639  0.2582  0.0554 -0.9891
  916MOL0     C20817   0.433   6.981   1.743 -0.6592  0.5059  0.1544
  916MOL0     C20818   0.491   6.951   1.882 -0.1093  0.1180  0.3441
  916MOL0     C20819   0.440   6.813   1.936 -0.0348  0.6516 -1.6269
  916MOL0     C20820   0.508   6.778   2.071 -0.0649 -0.4899 -0.6662
  916MOL0     C20821   0.477   6.639   2.125  0.4261 -0.8338  0.5414
  916MOL0     C20822   0.543   6.619   2.262  0.6301  0.1086  0.2247
  916MOL0     C20823   0.439   6.668   2.372 -0.3592 -0.0756 -1.0339
  916MOL0    Cl20824   0.274   6.582   2.351 -0.3725 -0.3932  0.3974
  916MOL0     C20825   0.871   6.958   1.580 -0.7550 -0.6053 -0.4721
  916MOL0     C20826   0.972   6.963   1.489 -0.2648 -0.6361 -0.2430
  916MOL0     O20827   0.964   6.787   1.103  0.4704  0.0760 -0.3605
  916MOL0     C20828   1.290   6.931   1.128 -0.2181  0.1873  0.2347
  916MOL0     C20829   1.411   6.952   1.052 -0.2906 -1.1247  0.5263
  916MOL0     N20830   1.896   7.211   0.750 -0.0145  0.8324 -0.3109
  916MOL0     N20831   1.906   7.335   0.776 -0.9762  0.6869  0.1633
  916MOL0     C20832   0.890   7.874   0.871  0.2194 -0.5707 -0.1604
  916MOL0     C20833   0.751   7.878   0.876 -0.1132  0.4961 -0.7693
  916MOL0     C20834   0.324   7.803   1.053 -0.0454  0.0181 -0.0274
  916MOL0     C20835   0.236   7.847   1.155 -0.1921 -0.9119  0.2402
  916MOL0     C20836   0.096   7.825   1.144  0.1084  1.2889 -0.9245
  916MOL0     C20837   0.042   7.764   1.029 -0.6557 -0.0143  0.3154
  916MOL0     O20838  -0.095   7.767   1.018  0.6834 -0.1725  0.1540
  916MOL0     C20839  -0.145   7.670   0.922 -0.1453 -0.2954  0.1668
  916MOL0     C20840  -0.285   7.610   0.926  0.1929  0.9821 -0.6310
  916MOL0     C20841  -0.393   7.714   0.968 -0.7484  1.6699 -0.9470
  916MOL0     C20842  -0.529   7.634   0.981 -0.0499 -0.3192  0.1310
  916MOL0     C20843  -0.642   7.725   0.988 -0.7109 -0.0087 -1.1027
  916MOL0     C20844  -0.745   7.782   1.019 -0.9152 -0.4652 -0.3988
  916MOL0     C20845   0.126   7.722   0.919  0.2767 -0.3518 -0.8127
  916MOL0     C20846   0.270   7.734   0.936 -0.1730  0.2609 -0.7277
  916MOL0     H20847   0.702   7.604   1.070  0.1772  0.8140 -0.7462
  916MOL0     H20848   0.941   7.607   1.063  0.2375 -0.0268  0.5570
  916MOL0     H20849   1.156   7.593   0.978 -0.3420 -0.1872 -1.7400
  916MOL0     H20850   1.187   7.708   1.116  0.2092  1.3007 -0.5469
  916MOL0     H20851   1.332   7.760   0.852 -3.9585  1.1469 -0.4673
  916MOL0     H20852   1.380   7.630   0.953  1.2589  0.5820  0.1646
  916MOL0     H20853   1.405   7.803   1.142 -0.0603  0.2899  0.3457
  916MOL0     H20854   1.339   7.928   1.046  0.1651  0.4547  3.7379
  916MOL0     H20855   1.550   7.926   0.881 -0.6899  0.7528 -0.8821
  916MOL0     H20856   1.602   7.943   1.053 -1.7736  0.4349 -0.3353
  916MOL0     H20857   1.729   7.793   0.917 -0.8479  0.6273 -2.1448
  916MOL0     H20858   1.571   7.705   0.879 -2.0144  1.1676  0.3768
  916MOL0     H20859   1.572   7.672   1.140 -2.2048  2.0440 -2.1838
  916MOL0     H20860   1.743   7.699   1.127 -1.6823  0.9464  1.3670
  916MOL0     H20861   1.676   7.448   1.096 -0.9251  1.2086  0.6165
  916MOL0     H20862   1.596   7.496   0.939  0.8960 -6.0152 -0.0162
  916MOL0     H20863   1.883   7.481   1.026  0.5530  0.2263 -1.2540
  916MOL0     H20864   1.836   7.570   0.880  2.0207 -0.3780 -0.8332
  916MOL0     H20865   1.675   7.237   0.995 -1.0348  1.8051 -0.5308
  916MOL0     H20866   1.736   6.989   0.947 -0.5620 -1.9356 -1.1145
  916MOL0     H20867   1.905   6.988   0.919  1.1869 -0.7673 -2.3850
  916MOL0     H20868   1.770   6.817   0.772  0.3903 -0.6632 -1.6043
  916MOL0     H20869   1.887   6.935   0.692 -1.8172  3.1843 -2.0417
  916MOL0     H20870   1.664   7.076   0.639  0.0058 -0.4291  0.2631
  916MOL0     H20871   1.673   6.917   0.563 -0.1916  1.8362 -0.9479
  916MOL0     H20872   1.513   6.819   0.709 -0.5266 -0.1004 -1.0448
  916MOL0     H20873   1.444   6.971   0.657  1.9852  1.3958 -0.7327
  916MOL0     H20874   1.286   6.871   0.753  4.4471  1.4483  0.0058
  916MOL0     H20875   1.077   6.843   0.885  0.3055 -3.0490 -0.5051
  916MOL0     H20876   0.797   6.905   1.206 -0.7579  0.5798  1.0307
  916MOL0     H20877   0.610   6.901   1.379  0.6779 -0.2633 -1.1730
  916MOL0     H20878   0.536   6.802   1.662 -0.4847  0.2394  0.5600
  916MOL0     H20879   0.463   6.926   1.546  0.8320  2.4509 -0.9084
  916MOL0     H20880   0.324   6.966   1.736 -0.6368  0.2009  0.4074
  916MOL0     H20881   0.446   7.088   1.727  2.8614 -0.1034 -2.2609
  916MOL0     H20882   0.459   7.028   1.952  3.4633  2.0242  0.0931
  916MOL0     H20883   0.598   6.965   1.871 -0.1734  0.4515  0.1404
  916MOL0     H20884   0.335   6.823   1.963  0.4298  1.2659  0.1234
  916MOL0     H20885   0.460   6.740   1.857 -1.1035 -1.4562 -0.0328
  916MOL0     H20886   0.462   6.854   2.134 -2.3164 -1.3618 -1.1616
  916MOL0     H20887   0.617   6.784   2.061  0.4612 -3.3428  1.9272
  916MOL0     H20888   0.520   6.564   2.057  1.3750  2.6021 -3.0082
  916MOL0     H20889   0.370   6.617   2.131  0.2650  0.0268  0.9613
  916MOL0     H20890   0.567   6.516   2.289  0.0835  0.0091  0.3353
  916MOL0     H20891   0.642   6.666   2.265  1.6891 -1.9654 -0.2628
  916MOL0     H20892   0.421   6.776   2.377  2.5458  0.4208  0.4987
  916MOL0     H20893   0.476   6.631   2.467 -3.2314 -1.2764 -0.2573
  916MOL0     H20894   0.889   6.980   1.685 -0.1401 -2.2750 -0.1938
  916MOL0     H20895   1.077   6.985   1.504 -0.9399  3.1125 -0.1536
  916MOL0     H20896   1.289   6.934   1.237 -2.4774 -2.9910  0.4517
  916MOL0     H20897   1.502   6.982   1.103  0.9792 -3.0132 -0.4890
  916MOL0     H20898   0.945   7.954   0.823  0.7036 -0.0711  1.1660
  916MOL0     H20899   0.693   7.961   0.837 -1.7224 -0.1746  0.1230
  916MOL0     H20900   0.282   7.912   1.229  3.3982 -1.3013 -1.4514
  916MOL0     H20901   0.022   7.841   1.222 -3.2723 -0.2343 -3.5502
  916MOL0     H20902  -0.083   7.580   0.912  0.6716  0.4286 -1.7152
  916MOL0     H20903  -0.149   7.727   0.829 -4.1230 -1.6070 -0.7060
  916MOL0     H20904  -0.309   7.568   0.828 -1.3399 -0.9483  0.4696
  916MOL0     H20905  -0.282   7.529   0.999  3.4359  1.4831 -0.0943
  916MOL0     H20906  -0.404   7.799   0.901  0.2637  2.7074  0.1518
  916MOL0     H20907  -0.364   7.749   1.068  3.1184  0.9425 -1.6476
  916MOL0     H20908  -0.544   7.579   0.888 -0.0452  0.2666 -0.2208
  916MOL0     H20909  -0.532   7.566   1.067  2.4275 -1.5199 -0.6404
  916MOL0     H20910  -0.840   7.830   1.034 -0.8943 -0.7865  0.8042
  916MOL0     H20911   0.091   7.665   0.834  0.2862 -2.4626  0.5346
  916MOL0     H20912   0.329   7.696   0.853 -0.5155 -2.3678  0.1438
  917MOL0     O20913  10.184   9.199   0.169  0.0666 -0.0640  0.4012
  917MOL0     C20914  10.139   9.172   0.057 -0.4463 -0.7874  0.3489
  917MOL0     O20915  10.187   9.214  -0.067 -0.7896  0.3020  0.2170
  917MOL0     C20916  10.300   9.297  -0.067 -0.4923  0.0030 -0.1281
  917MOL0     C20917  10.286   9.407  -0.147  0.8513 -0.3095  0.0944
  917MOL0     C20918  10.396   9.505  -0.165 -0.4732  0.1774 -0.7285
  917MOL0     C20919  10.515   9.496  -0.096  0.3830 -0.4242  0.1536
  917MOL0     O20920  10.620   9.582  -0.100 -0.3342 -0.1011  0.4314
  917MOL0     C20921  10.608   9.709  -0.154  0.0799  0.1513  0.2481
  917MOL0     C20922  10.710   9.792  -0.075  0.0388  0.2331  0.0526
  917MOL0     C20923  10.667   9.818   0.072 -0.0304  0.1734  0.0470
  917MOL0     C20924  10.750   9.916   0.145 -0.3018 -0.1202  0.0014
  917MOL0     C20925  10.899   9.876   0.157 -0.1088 -0.2641  0.0319
  917MOL0     C20926  10.924   9.746   0.237 -0.1135  0.3178 -0.0585
  917MOL0     C20927  10.896   9.755   0.383 -0.5354  0.3760  0.0444
  917MOL0     C20928  10.919   9.616   0.449 -0.3433 -0.3830 -0.2303
  917MOL0     N20929  10.873   9.613   0.589 -0.2329 -0.5870  1.1263
  917MOL0     C20930  10.748   9.563   0.638  0.0954  0.7129 -0.6454
  917MOL0     C20931  10.757   9.563   0.775 -0.1871  0.0348  0.5887
  917MOL0     C20932  10.642   9.511   0.853 -0.2385 -0.3570  0.0946
  917MOL0     C20933  10.669   9.506   1.002  0.6200  0.2199 -0.0540
  917MOL0     C20934  10.772   9.394   1.048 -0.7383 -0.2383  0.2205
  917MOL0     C20935  10.852   9.410   1.173  0.6927 -0.8300 -0.3609
  917MOL0     O20936  10.779   9.491   1.260  0.3202  0.3559  0.0675
  917MOL0     C20937  10.704   9.423   1.355 -0.1150  0.0945  0.4181
  917MOL0     C20938  10.672   9.287   1.350  0.3965 -0.0026 -0.2246
  917MOL0     C20939  10.576   9.236   1.439 -0.4511 -0.1843 -0.6074
  917MOL0     C20940  10.518   9.319   1.544  0.2151 -0.0018  0.0111
  917MOL0     C20941  10.438   9.260   1.647  0.5136  0.4508 -0.1104
  917MOL0     O20942  10.384   9.330   1.756 -0.3127  0.4682 -0.7799
  917MOL0     C20943  10.326   9.263   1.856  0.0497  0.1878 -0.1236
  917MOL0     C20944  10.192   9.273   1.883  0.1769 -0.3561 -0.1206
  917MOL0     C20945  10.129   9.214   1.989 -0.0257  0.0306 -0.6210
  917MOL0     C20946  10.209   9.143   2.084 -0.1265 -0.0974  0.5088
  917MOL0     O20947  10.148   9.086   2.193  0.2251 -0.2388 -0.2771
  917MOL0     C20948  10.167   8.945   2.214 -0.0440  0.8518  0.3441
  917MOL0     C20949  10.067   8.893   2.311  0.5370 -0.3431 -0.1124
  917MOL0     C20950  10.058   8.742   2.319 -0.0861  0.0263 -0.2796
  917MOL0     C20951   9.980   8.692   2.441  0.3340  0.5088  0.0126
  917MOL0     C20952   9.830   8.731   2.427 -1.0253 -0.3945  0.1029
  917MOL0     C20953   9.761   8.720   2.293  0.7817  0.2112 -0.6914
  917MOL0     C20954   9.761   8.570   2.255 -0.1967 -1.2594  0.1146
  917MOL0     C20955   9.739   8.566   2.106  0.3344 -0.4765 -0.1388
  917MOL0    Cl20956   9.578   8.637   2.064  0.3085  0.0431 -0.1622
  917MOL0     C20957  10.345   9.118   2.056  0.1746  0.5543  0.3072
  917MOL0     C20958  10.410   9.182   1.945  0.8176 -0.1632  1.6009
  917MOL0     O20959  10.411   9.136   1.622  0.0632  0.4207  0.2256
  917MOL0     C20960  10.544   9.449   1.535  0.3160  0.3841  0.2128
  917MOL0     C20961  10.642   9.505   1.449 -1.2019 -0.6512  0.2652
  917MOL0     N20962  10.882   9.625   0.809  0.4607  0.3477  1.4210
  917MOL0     N20963  10.946   9.648   0.704 -0.1850  1.0106  0.8114
  917MOL0     C20964  10.519   9.393   0.002 -0.5219  0.5858  0.6823
  917MOL0     C20965  10.414   9.295   0.014 -0.2502  0.4273  0.1527
  917MOL0     C20966  10.018   9.094   0.051  0.3599 -0.1631  0.1674
  917MOL0     C20967   9.938   9.070  -0.069 -0.1907  0.1874 -0.6330
  917MOL0     C20968   9.817   9.001  -0.065  0.5230 -0.6232 -0.1986
  917MOL0     C20969   9.755   8.969   0.055 -0.3269  0.7498 -0.3514
  917MOL0     O20970   9.638   8.915   0.043 -0.4575 -0.7740  0.4488
  917MOL0     C20971   9.557   8.891   0.158 -0.7348 -0.3940 -0.2415
  917MOL0     C20972   9.413   8.858   0.105  0.4192 -0.3042 -0.8081
  917MOL0     C20973   9.400   8.716   0.053 -0.7167  0.2220  0.4964
  917MOL0     C20974   9.280   8.696  -0.038 -0.4742  0.1579  0.2401
  917MOL0     C20975   9.149   8.746   0.014 -0.2558 -0.6339 -0.0724
  917MOL0     C20976   9.043   8.805   0.045  0.0967 -0.2461  0.9747
  917MOL0     C20977   9.832   8.980   0.174 -0.2997 -0.4982  0.8365
  917MOL0     C20978   9.959   9.046   0.169 -0.2810 -0.0848 -0.0017
  917MOL0     H20979  10.192   9.419  -0.200 -0.1799 -2.4129  1.3275
  917MOL0     H20980  10.378   9.587  -0.234 -0.2681  1.0767  0.2677
  917MOL0     H20981  10.509   9.753  -0.138 -1.1504 -0.8931 -3.4780
  917MOL0     H20982  10.630   9.714  -0.261 -0.1620  0.8472  0.2216
  917MOL0     H20983  10.713   9.883  -0.136  0.6434  0.0430 -0.2145
  917MOL0     H20984  10.812   9.753  -0.082  0.0906  0.6399 -2.5195
  917MOL0     H20985  10.668   9.723   0.125  1.4902 -0.9811 -1.8666
  917MOL0     H20986  10.564   9.855   0.075  0.0626  0.4889 -0.4764
  917MOL0     H20987  10.739  10.017   0.105  0.7892  0.0042 -0.0203
  917MOL0     H20988  10.704   9.927   0.243 -1.5943 -4.0112  0.0187
  917MOL0     H20989  10.956   9.960   0.198 -3.1307  1.3058  1.3017
  917MOL0     H20990  10.935   9.865   0.054  1.8209 -3.4588  0.8991
  917MOL0     H20991  11.029   9.717   0.226 -0.9211 -2.4456 -1.4684
  917MOL0     H20992  10.866   9.665   0.191  2.4343 -0.3374 -2.3706
  917MOL0     H20993  10.958   9.834   0.427  2.1114 -0.5817 -1.7409
  917MOL0     H20994  10.790   9.779   0.394 -0.6597 -0.0416 -0.2334
  917MOL0     H20995  11.028   9.603   0.453 -0.1673  0.9391 -0.5104
  917MOL0     H20996  10.876   9.530   0.397 -3.6802 -0.0460  1.7117
  917MOL0     H20997  10.678   9.513   0.571 -2.1356  3.6764 -0.7017
  917MOL0     H20998  10.606   9.421   0.801  2.3630 -0.5460 -1.5430
  917MOL0     H20999  10.562   9.584   0.838 -2.1749 -2.8545 -3.8149
  917MOL0     H21000  10.576   9.490   1.058 -0.1855  0.7869 -1.1929
  917MOL0     H21001  10.702   9.606   1.029 -0.1293  1.3971 -3.1289
  917MOL0     H21002  10.709   9.304   1.055 -3.9610  1.9864  3.0320
  917MOL0     H21003  10.846   9.374   0.970  0.8668 -0.0384  1.6408
  917MOL0     H21004  10.942   9.465   1.145  1.5228 -3.1059 -2.5893
  917MOL0     H21005  10.882   9.312   1.213 -1.5594 -1.9910 -1.3387
  917MOL0     H21006  10.723   9.210   1.293 -0.5601 -0.6260 -0.2561
  917MOL0     H21007  10.562   9.128   1.441  2.0632 -0.5575  0.6915
  917MOL0     H21008  10.125   9.305   1.804  1.5086 -1.1690 -1.6371
  917MOL0     H21009  10.023   9.227   2.012  0.1982 -0.8213  1.0340
  917MOL0     H21010  10.267   8.925   2.252  0.5257  1.6743 -0.6734
  917MOL0     H21011  10.137   8.879   2.132 -0.7097  0.8598  0.5770
  917MOL0     H21012   9.974   8.933   2.269  2.6526  3.7993 -1.4836
  917MOL0     H21013  10.087   8.939   2.408  2.2072  0.8731 -0.9765
  917MOL0     H21014  10.158   8.701   2.336 -0.3376  0.3962  2.8251
  917MOL0     H21015  10.032   8.697   2.224  1.5899 -1.1082 -0.2474
  917MOL0     H21016   9.983   8.583   2.448 -0.6088  0.1800 -3.1656
  917MOL0     H21017  10.028   8.730   2.531  2.4794  2.3095 -1.7636
  917MOL0     H21018   9.826   8.835   2.461  0.3051 -1.2590  3.3053
  917MOL0     H21019   9.775   8.675   2.503  0.6588 -1.5981  0.4791
  917MOL0     H21020   9.804   8.794   2.224  3.5039  1.8344  2.4739
  917MOL0     H21021   9.660   8.760   2.300  1.0358  0.7861 -0.2678
  917MOL0     H21022   9.857   8.527   2.284 -0.9808 -0.8866  3.6803
  917MOL0     H21023   9.689   8.519   2.320 -2.1008  3.1519  1.8364
  917MOL0     H21024   9.748   8.460   2.080  1.0123 -0.8189  1.3675
  917MOL0     H21025   9.817   8.614   2.047  1.1016 -1.1103  0.3307
  917MOL0     H21026  10.412   9.066   2.123  3.4530  2.5414 -1.1899
  917MOL0     H21027  10.517   9.173   1.924  1.0624 -0.8904  3.0248
  917MOL0     H21028  10.502   9.516   1.610 -2.9243  0.5803 -1.5809
  917MOL0     H21029  10.661   9.612   1.451  0.9687 -0.9941  0.4161
  917MOL0     H21030  10.609   9.394   0.062  0.7541  0.3158 -1.1270
  917MOL0     H21031  10.422   9.211   0.083  0.3483 -0.2407 -0.7028
  917MOL0     H21032   9.973   9.109  -0.164  2.0683 -3.7517 -1.6394
  917MOL0     H21033   9.758   8.994  -0.156 -0.3504  0.0155  0.2962
  917MOL0     H21034   9.554   8.982   0.218  4.4872 -1.4722  2.1978
  917MOL0     H21035   9.591   8.820   0.234  0.9954  1.3767  0.7459
  917MOL0     H21036   9.345   8.877   0.189 -2.6536 -1.9100 -2.7578
  917MOL0     H21037   9.394   8.932   0.027 -0.8828 -2.8764 -3.1174
  917MOL0     H21038   9.401   8.643   0.134  1.5890  2.1484  2.3669
  917MOL0     H21039   9.488   8.693  -0.008  0.6033 -0.5038  2.5553
  917MOL0     H21040   9.293   8.744  -0.135 -0.0511 -0.3374  0.0457
  917MOL0     H21041   9.262   8.595  -0.076 -0.3730  0.5214 -0.8079
  917MOL0     H21042   8.955   8.859   0.075  0.8866  0.4589  2.1190
  917MOL0     H21043   9.787   8.952   0.269  0.3240  3.0557  2.3600
  917MOL0     H21044  10.018   9.074   0.256  1.2164 -0.5121 -0.8390
  918MOL0     O21045   4.932   8.243   9.137  0.4202  0.0445 -0.1068
  918MOL0     C21046   4.941   8.145   9.214 -0.0719 -0.6454 -0.0826
  918MOL0     O21047   4.884   8.024   9.193  0.1067 -0.1024 -0.1605
  918MOL0     C21048   4.794   8.008   9.090 -1.2214  0.7397  0.2310
  918MOL0     C21049   4.843   7.995   8.961  1.1290  0.2617 -0.5971
  918MOL0     C21050   4.757   7.956   8.852  0.1438  0.3029 -0.0866
  918MOL0     C21051   4.616   7.940   8.868 -0.4231  0.0674  0.0006
  918MOL0     O21052   4.517   7.932   8.772 -0.0603  0.1647  0.3123
  918MOL0     C21053   4.556   7.921   8.628  0.5270 -0.0747 -0.4377
  918MOL0     C21054   4.433   7.954   8.539 -0.2864  0.3588 -0.0825
  918MOL0     C21055   4.401   8.100   8.532  0.0651  0.0147 -0.5826
  918MOL0     C21056   4.265   8.110   8.484 -0.2907 -0.3303  0.5155
  918MOL0     C21057   4.249   8.260   8.464 -0.6167 -0.6999  0.2589
  918MOL0     C21058   4.118   8.302   8.413  0.0022 -0.8589  0.0392
  918MOL0     C21059   4.126   8.422   8.319 -0.1902  0.2797  0.8575
  918MOL0     C21060   4.136   8.366   8.174  0.0420  0.0964  0.9630
  918MOL0     N21061   4.011   8.309   8.113 -0.6122  0.4231 -0.9782
  918MOL0     C21062   3.896   8.385   8.089 -0.4303  0.0465 -0.3251
  918MOL0     C21063   3.807   8.286   8.045 -0.2563  0.5411  0.5345
  918MOL0     C21064   3.658   8.284   8.032 -0.5235  0.3937 -0.9182
  918MOL0     C21065   3.609   8.285   7.881 -1.4701 -0.4320  0.0981
  918MOL0     C21066   3.461   8.319   7.870 -0.8685  0.2728  0.9129
  918MOL0     C21067   3.409   8.449   7.936 -0.3116  0.1084 -0.5228
  918MOL0     O21068   3.361   8.436   8.071  0.9459 -0.2997  0.4025
  918MOL0     C21069   3.314   8.550   8.127 -0.0015  0.0866 -0.2387
  918MOL0     C21070   3.285   8.534   8.262 -0.3526  0.1636 -0.8225
  918MOL0     C21071   3.223   8.633   8.333  0.2213  0.0943 -0.4042
  918MOL0     C21072   3.192   8.761   8.274  0.4462  0.8161  0.1502
  918MOL0     C21073   3.132   8.868   8.361 -0.0120 -0.4466  0.4683
  918MOL0     O21074   3.094   8.982   8.294  0.3033  0.5320  0.1645
  918MOL0     C21075   3.056   9.092   8.365  0.2723 -0.5431  0.1955
  918MOL0     C21076   3.147   9.201   8.352  0.6805 -0.0896 -0.1658
  918MOL0     C21077   3.133   9.316   8.425  0.1479  0.0807  0.2801
  918MOL0     C21078   3.031   9.325   8.527 -0.1085  0.3455 -0.0978
  918MOL0     O21079   3.027   9.430   8.620 -0.0383 -0.3320 -0.2081
  918MOL0     C21080   3.137   9.443   8.706 -0.1640 -0.9266  0.0573
  918MOL0     C21081   3.093   9.388   8.840  0.3088  0.7734 -0.2132
  918MOL0     C21082   3.187   9.444   8.948 -0.5090 -0.1075  0.7098
  918MOL0     C21083   3.145   9.407   9.085 -0.8298 -0.2081 -0.4369
  918MOL0     C21084   3.228   9.483   9.187 -0.0994 -0.2542 -0.3752
  918MOL0     C21085   3.211   9.432   9.330 -0.0579  0.4633  0.0822
  918MOL0     C21086   3.309   9.508   9.427 -0.2949  0.8701 -0.7613
  918MOL0     C21087   3.267   9.479   9.573 -0.6015  0.7241  0.3613
  918MOL0    Cl21088   3.123   9.566   9.614  0.2174 -0.2984 -0.2299
  918MOL0     C21089   2.940   9.213   8.534 -0.1664 -0.0659 -0.0841
  918MOL0     C21090   2.947   9.100   8.451 -0.2707  0.3439  0.1732
  918MOL0     O21091   3.128   8.851   8.481 -0.2339 -0.6995  0.1435
  918MOL0     C21092   3.223   8.775   8.138  1.0151  0.2585  0.9800
  918MOL0     C21093   3.277   8.668   8.073  0.1338 -0.2778 -0.5649
  918MOL0     N21094   3.875   8.166   8.038  0.4899 -0.0926 -0.4968
  918MOL0     N21095   3.992   8.179   8.084 -0.0082  0.0012  0.5629
  918MOL0     C21096   4.571   7.952   9.000 -0.1609 -0.3654 -0.1590
  918MOL0     C21097   4.660   7.986   9.110  0.1702  0.8373  0.9122
  918MOL0     C21098   5.031   8.172   9.335  0.6543  0.3569  0.3561
  918MOL0     C21099   5.044   8.062   9.429 -0.2493  0.5161 -0.3924
  918MOL0     C21100   5.130   8.086   9.537  0.2325 -0.4556  0.3868
  918MOL0     C21101   5.191   8.203   9.576 -0.1943 -0.2610 -0.1266
  918MOL0     O21102   5.266   8.210   9.690 -0.1719 -0.3139 -0.7189
  918MOL0     C21103   5.292   8.346   9.739  0.4594  0.9038  0.7128
  918MOL0     C21104   5.374   8.365   9.865 -0.9958 -0.4221  0.5630
  918MOL0     C21105   5.393   8.518   9.902 -0.1711 -0.4992 -0.0347
  918MOL0     C21106   5.508   8.579   9.817 -0.1009  0.1540  0.8570
  918MOL0     C21107   5.490   8.720   9.835 -0.1726  0.1208  0.7140
  918MOL0     C21108   5.478   8.839   9.859 -0.4643 -0.2489 -0.5444
  918MOL0     C21109   5.196   8.301   9.472  0.2498 -0.6821 -0.4387
  918MOL0     C21110   5.111   8.283   9.354  0.1762  0.2575 -0.4383
  918MOL0     H21111   4.950   8.005   8.952  1.1923  0.2813  0.1286
  918MOL0     H21112   4.803   7.931   8.757 -0.3071 -0.4746 -0.1114
  918MOL0     H21113   4.582   7.817   8.609  1.3803 -0.2322  1.3864
  918MOL0     H21114   4.637   7.990   8.604  3.7245 -2.8775  1.3782
  918MOL0     H21115   4.344   7.904   8.577 -0.3634  1.6871  1.5834
  918MOL0     H21116   4.463   7.923   8.438  3.0247  2.6236  0.0165
  918MOL0     H21117   4.464   8.136   8.451 -0.4293  2.3994  0.0081
  918MOL0     H21118   4.421   8.154   8.626 -0.8717 -2.0117  0.8480
  918MOL0     H21119   4.261   8.046   8.395  0.2326  0.5874 -0.1858
  918MOL0     H21120   4.188   8.071   8.551 -0.6651  1.0463  0.9185
  918MOL0     H21121   4.327   8.283   8.390 -0.2302 -2.0330  0.2222
  918MOL0     H21122   4.267   8.316   8.556  0.7617 -1.8795  0.7557
  918MOL0     H21123   4.051   8.334   8.493  2.8293  2.7286  1.2489
  918MOL0     H21124   4.085   8.211   8.363 -3.2276  0.0188  0.3941
  918MOL0     H21125   4.030   8.475   8.326 -1.0051 -0.6387 -1.8527
  918MOL0     H21126   4.219   8.475   8.339 -0.4610  0.7269  0.9517
  918MOL0     H21127   4.224   8.302   8.167 -0.8245 -1.0430 -0.0089
  918MOL0     H21128   4.155   8.443   8.098 -1.3373  1.4144  1.8963
  918MOL0     H21129   3.883   8.491   8.107  2.5849  0.7079 -1.4427
  918MOL0     H21130   3.610   8.366   8.087 -3.7707 -2.1579  0.3904
  918MOL0     H21131   3.621   8.191   8.076  3.4817 -1.3627 -0.8450
  918MOL0     H21132   3.626   8.182   7.847  1.1996  0.5171 -1.7906
  918MOL0     H21133   3.667   8.353   7.817 -0.8124 -2.1749 -1.2554
  918MOL0     H21134   3.439   8.322   7.762  0.5140 -0.8210  0.5630
  918MOL0     H21135   3.403   8.229   7.892 -2.0222  0.0824 -2.3363
  918MOL0     H21136   3.332   8.495   7.872 -0.7821  0.2561  0.1345
  918MOL0     H21137   3.489   8.522   7.949 -1.0323  1.0925 -1.4402
  918MOL0     H21138   3.315   8.447   8.320  1.5656  3.0197  2.9989
  918MOL0     H21139   3.199   8.631   8.439 -3.6130 -1.0404 -1.1358
  918MOL0     H21140   3.225   9.198   8.276 -0.6632 -0.0664 -1.6036
  918MOL0     H21141   3.217   9.385   8.422 -0.7567  1.1930 -0.1632
  918MOL0     H21142   3.172   9.546   8.713 -1.9621 -0.4284  3.7029
  918MOL0     H21143   3.220   9.384   8.664 -0.4434 -1.1094 -0.2473
  918MOL0     H21144   3.086   9.279   8.835  0.1909  0.7974 -0.5454
  918MOL0     H21145   3.000   9.440   8.868 -1.1959 -1.8697 -0.0265
  918MOL0     H21146   3.199   9.552   8.961  0.6593 -0.2355  0.8729
  918MOL0     H21147   3.292   9.424   8.922 -0.5005 -0.1067  0.7419
  918MOL0     H21148   3.040   9.427   9.110 -1.4579 -3.1089 -0.3963
  918MOL0     H21149   3.151   9.298   9.095 -0.4146 -0.2324 -0.9211
  918MOL0     H21150   3.186   9.584   9.186  0.3355 -0.0422 -2.8291
  918MOL0     H21151   3.335   9.494   9.170 -0.2617  1.4353 -0.5532
  918MOL0     H21152   3.237   9.327   9.341  2.1456  0.7802 -1.4478
  918MOL0     H21153   3.106   9.455   9.354 -0.2986  2.9090 -2.7107
  918MOL0     H21154   3.415   9.483   9.418 -0.1136  1.6464 -0.8363
  918MOL0     H21155   3.286   9.613   9.403 -1.5242  0.8386  0.1910
  918MOL0     H21156   3.346   9.504   9.645  1.5857  0.0973 -1.6790
  918MOL0     H21157   3.243   9.373   9.583 -0.8241  0.7864  0.4975
  918MOL0     H21158   2.876   9.199   8.621  1.5580 -2.8895  0.8842
  918MOL0     H21159   2.884   9.012   8.457 -1.2363  0.9963 -0.0062
  918MOL0     H21160   3.191   8.868   8.092  2.4534 -0.5754 -1.9948
  918MOL0     H21161   3.280   8.690   7.967 -0.9416  2.0795 -0.1650
  918MOL0     H21162   4.463   7.949   9.012 -0.0180 -0.0681  1.3869
  918MOL0     H21163   4.613   8.000   9.207 -1.0106 -0.9725  0.6484
  918MOL0     H21164   4.990   7.970   9.410  0.9544  0.1145 -2.1311
  918MOL0     H21165   5.161   8.000   9.595  1.0251 -1.4555 -1.4140
  918MOL0     H21166   5.192   8.387   9.760 -0.6640 -1.7953  0.9655
  918MOL0     H21167   5.334   8.414   9.664 -0.4406  0.8518  0.1470
  918MOL0     H21168   5.325   8.329   9.956 -2.1364  3.6562  1.7918
  918MOL0     H21169   5.466   8.308   9.852  0.0180  0.9841  1.3643
  918MOL0     H21170   5.429   8.527  10.005  1.1349 -1.7901 -0.3389
  918MOL0     H21171   5.302   8.576   9.884  2.0698  3.2291 -0.2650
  918MOL0     H21172   5.605   8.542   9.851  0.2711  0.5022  0.1752
  918MOL0     H21173   5.491   8.543   9.716  0.5663  2.2641 -0.0588
  918MOL0     H21174   5.475   8.946   9.870 -1.2519 -0.3131 -0.0373
  918MOL0     H21175   5.252   8.394   9.476 -1.6923  0.5571 -0.7954
  918MOL0     H21176   5.120   8.361   9.279  2.3472 -0.3697 -0.8777
  919MOL0     O21177   1.700  10.888   8.780 -0.0910 -0.0247 -0.3437
  919MOL0     C21178   1.668  10.786   8.834  0.1734  0.2028  0.5066
  919MOL0     O21179   1.547  10.716   8.805 -0.2171 -0.6628 -0.3447
  919MOL0     C21180   1.455  10.771   8.726  0.3651 -0.8257  0.1237
  919MOL0     C21181   1.475  10.829   8.606  0.2792 -1.1490  0.0416
  919MOL0     C21182   1.365  10.892   8.541 -2.0764 -0.7430 -0.0828
  919MOL0     C21183   1.238  10.917   8.606 -0.3834  0.5481  0.7247
  919MOL0     O21184   1.147  10.998   8.535 -0.4763  0.0815 -0.8241
  919MOL0     C21185   1.011  10.975   8.559  0.0148 -0.3502 -0.3952
  919MOL0     C21186   0.920  11.068   8.486 -0.2029 -0.8963 -0.3139
  919MOL0     C21187   0.779  11.084   8.548  0.1086 -0.3207  0.3616
  919MOL0     C21188   0.713  11.190   8.463  0.8020 -1.0676  0.6570
  919MOL0     C21189   0.564  11.214   8.527  0.0022  0.1621 -0.9529
  919MOL0     C21190   0.514  11.353   8.488  0.4638 -0.0197 -0.8549
  919MOL0     C21191   0.361  11.356   8.498  0.4592  0.3492  0.2055
  919MOL0     C21192   0.291  11.494   8.453 -0.3496  0.0365 -0.4934
  919MOL0     N21193   0.145  11.489   8.468  1.2510 -0.8069  0.9645
  919MOL0     C21194   0.067  11.602   8.456 -0.3134  0.3697  0.8089
  919MOL0     C21195  -0.060  11.558   8.435 -0.8926  1.3925  0.1322
  919MOL0     C21196  -0.172  11.643   8.403 -0.0973  0.0791  0.4857
  919MOL0     C21197  -0.301  11.569   8.373 -0.3003 -0.0416  0.6162
  919MOL0     C21198  -0.399  11.684   8.341  0.7168  0.3078  0.4415
  919MOL0     C21199  -0.546  11.634   8.350 -0.2450 -0.4557 -0.5731
  919MOL0     O21200  -0.571  11.531   8.258 -0.0207 -0.1056 -0.9233
  919MOL0     C21201  -0.699  11.503   8.210  0.0424 -0.5124 -0.5551
  919MOL0     C21202  -0.723  11.377   8.159 -0.5564 -0.0315 -0.0464
  919MOL0     C21203  -0.849  11.329   8.114  0.0166 -0.0982 -0.3530
  919MOL0     C21204  -0.961  11.411   8.146 -0.2542 -0.0245 -0.2544
  919MOL0     C21205  -1.105  11.379   8.105 -0.0594  0.1334 -0.7720
  919MOL0     O21206  -1.204  11.435   8.181 -0.7080 -0.3107  0.3404
  919MOL0     C21207  -1.335  11.396   8.176 -0.2834  0.3984 -0.2694
  919MOL0     C21208  -1.414  11.480   8.257 -0.4186 -0.5954 -1.0977
  919MOL0     C21209  -1.557  11.462   8.273  0.3217 -0.4256  0.4285
  919MOL0     C21210  -1.627  11.365   8.196 -0.3621  1.3695 -0.6913
  919MOL0     O21211  -1.764  11.355   8.209 -0.4966 -0.3525  0.3714
  919MOL0     C21212  -1.840  11.244   8.162 -0.4048 -0.3263 -0.5657
  919MOL0     C21213  -1.986  11.284   8.135 -0.3160  0.3073  0.3871
  919MOL0     C21214  -2.066  11.362   8.243 -0.3944  0.3500  0.2626
  919MOL0     C21215  -2.208  11.385   8.187 -0.7578  0.5238  0.0726
  919MOL0     C21216  -2.300  11.363   8.310 -0.5197 -0.2341  0.9346
  919MOL0     C21217  -2.326  11.488   8.381 -0.0569 -0.1900  0.7874
  919MOL0     C21218  -2.403  11.587   8.284 -1.6060 -0.0054 -0.4607
  919MOL0     C21219  -2.516  11.689   8.335  0.0486  0.0476 -0.0101
  919MOL0    Cl21220  -2.648  11.615   8.434  0.6769 -0.0541 -0.3644
  919MOL0     C21221  -1.538  11.289   8.113 -0.0524  0.2511  0.8908
  919MOL0     C21222  -1.396  11.299   8.106  0.2435  0.4715  0.7032
  919MOL0     O21223  -1.118  11.313   8.007  0.3249 -0.2312 -0.7239
  919MOL0     C21224  -0.939  11.538   8.202 -0.4075  1.1245 -1.5507
  919MOL0     C21225  -0.808  11.580   8.235 -0.5084 -0.3489 -0.0195
  919MOL0     N21226  -0.048  11.420   8.442 -0.0104 -0.2507  0.3481
  919MOL0     N21227   0.075  11.379   8.456 -0.0564  0.4057 -0.9994
  919MOL0     C21228   1.219  10.843   8.716 -0.1704  0.5095 -0.9545
  919MOL0     C21229   1.325  10.768   8.775  0.3184 -0.1734  0.2137
  919MOL0     C21230   1.770  10.712   8.920  0.6245  0.6102  0.0674
  919MOL0     C21231   1.904  10.738   8.912 -0.4984  0.9630  0.2025
  919MOL0     C21232   1.997  10.678   9.004  0.2502  0.2572  1.3565
  919MOL0     C21233   1.950  10.601   9.107  0.4305 -0.4064  0.4211
  919MOL0     O21234   2.033  10.551   9.208  0.4493  0.3691  0.0140
  919MOL0     C21235   2.159  10.618   9.235  0.5659  0.9796 -1.1036
  919MOL0     C21236   2.276  10.557   9.150  0.7555  0.5807 -0.5854
  919MOL0     C21237   2.296  10.408   9.187  0.2383  0.2254 -0.4802
  919MOL0     C21238   2.428  10.358   9.126 -0.0702  0.2649  0.4503
  919MOL0     C21239   2.452  10.211   9.138  0.1168 -0.7890 -0.3398
  919MOL0     C21240   2.476  10.095   9.138  0.0663  0.1447 -0.9384
  919MOL0     C21241   1.818  10.569   9.105  0.5258  0.6395  0.1573
  919MOL0     C21242   1.723  10.618   9.016 -0.0680 -0.1112  1.0621
  919MOL0     H21243   1.576  10.829   8.568  1.1186  0.5165  2.0325
  919MOL0     H21244   1.391  10.930   8.443  2.6055 -2.1800  0.3637
  919MOL0     H21245   0.995  10.980   8.668  2.1508 -2.4419  0.0927
  919MOL0     H21246   0.977  10.876   8.525 -2.0624 -1.1881  3.4568
  919MOL0     H21247   0.913  11.040   8.381  0.7906 -1.0919 -0.3356
  919MOL0     H21248   0.971  11.164   8.480  0.3621 -1.1246  0.5647
  919MOL0     H21249   0.782  11.106   8.655  1.5317 -2.7839  0.9114
  919MOL0     H21250   0.725  10.991   8.525 -3.0208  1.5048 -0.2768
  919MOL0     H21251   0.772  11.281   8.481 -2.9162  1.1902  2.4937
  919MOL0     H21252   0.713  11.164   8.357  0.7160 -3.4214  1.1778
  919MOL0     H21253   0.579  11.206   8.635 -3.9240 -0.9482 -0.3379
  919MOL0     H21254   0.501  11.135   8.485  1.4124 -1.3789 -0.2903
  919MOL0     H21255   0.539  11.368   8.382  0.0364  0.3413 -0.9081
  919MOL0     H21256   0.554  11.438   8.545  1.1762  1.8449 -3.8970
  919MOL0     H21257   0.320  11.272   8.442 -1.8995 -0.1545  2.4627
  919MOL0     H21258   0.336  11.340   8.604  0.3524  1.1564  0.3076
  919MOL0     H21259   0.327  11.508   8.351  2.5157  3.4079  0.7693
  919MOL0     H21260   0.327  11.580   8.510 -2.1081  0.5328 -0.0625
  919MOL0     H21261   0.105  11.703   8.452  1.4895 -0.2550  1.0687
  919MOL0     H21262  -0.151  11.695   8.309 -0.5784  0.2339  0.4590
  919MOL0     H21263  -0.196  11.722   8.475 -1.1572  0.1483  0.0730
  919MOL0     H21264  -0.336  11.501   8.451 -3.5353  2.7272  1.8575
  919MOL0     H21265  -0.286  11.514   8.280 -0.1161  2.8932 -1.2135
  919MOL0     H21266  -0.390  11.767   8.412  2.3653 -0.3678  1.0755
  919MOL0     H21267  -0.370  11.727   8.244  0.6213  0.3678  0.4393
  919MOL0     H21268  -0.603  11.725   8.327 -0.1129  0.0604  1.0690
  919MOL0     H21269  -0.575  11.600   8.449 -1.5949 -1.9169 -1.4312
  919MOL0     H21270  -0.636  11.319   8.129 -1.1275 -1.3172  0.6860
  919MOL0     H21271  -0.871  11.230   8.076 -1.1730 -0.3822  0.9629
  919MOL0     H21272  -1.368  11.557   8.319 -1.1788 -0.5510 -0.5665
  919MOL0     H21273  -1.606  11.525   8.347  0.7103  0.7274 -0.2691
  919MOL0     H21274  -1.843  11.167   8.240 -2.2277 -0.0223 -0.2742
  919MOL0     H21275  -1.798  11.199   8.072  0.6757 -2.6849  1.0281
  919MOL0     H21276  -2.040  11.189   8.124 -1.0536  0.8959 -1.4546
  919MOL0     H21277  -1.989  11.347   8.046 -0.0833 -1.5327 -0.9885
  919MOL0     H21278  -2.010  11.454   8.263  1.6842 -0.8771  0.3460
  919MOL0     H21279  -2.059  11.301   8.334  0.4739  1.5721  1.0621
  919MOL0     H21280  -2.214  11.488   8.150 -0.1668  1.5744  2.6415
  919MOL0     H21281  -2.248  11.308   8.121 -2.2737 -1.6287  3.2525
  919MOL0     H21282  -2.255  11.283   8.370 -0.8665 -2.3200 -1.3968
  919MOL0     H21283  -2.393  11.321   8.269 -0.5679  1.9492 -1.4675
  919MOL0     H21284  -2.232  11.540   8.399 -0.1394  1.3978 -2.7041
  919MOL0     H21285  -2.392  11.461   8.464 -1.3687 -0.9842 -0.4535
  919MOL0     H21286  -2.323  11.636   8.227  0.8754 -3.4288 -0.2509
  919MOL0     H21287  -2.450  11.528   8.205  0.1429 -0.7347 -1.0090
  919MOL0     H21288  -2.568  11.711   8.242 -2.6474 -4.6985  0.0540
  919MOL0     H21289  -2.466  11.769   8.391  1.8528 -0.4803 -0.7934
  919MOL0     H21290  -1.569  11.227   8.030 -1.5717  0.3813  1.3395
  919MOL0     H21291  -1.339  11.235   8.040 -1.9871 -0.9137  0.0224
  919MOL0     H21292  -1.020  11.604   8.231  0.4007  1.3318  0.3592
  919MOL0     H21293  -0.799  11.672   8.290 -0.6035 -0.2179 -0.2205
  919MOL0     H21294   1.132  10.835   8.780  0.2090  1.1488 -0.3489
  919MOL0     H21295   1.297  10.708   8.861  0.3113 -0.3544  0.0858
  919MOL0     H21296   1.934  10.812   8.838 -0.1425  1.4938  0.8611
  919MOL0     H21297   2.102  10.701   8.987 -0.5649  1.7951 -2.8674
  919MOL0     H21298   2.180  10.603   9.341 -2.2014 -0.2272 -0.6499
  919MOL0     H21299   2.153  10.727   9.227  0.2520  0.9279 -1.6297
  919MOL0     H21300   2.261  10.556   9.042 -0.5187  1.0645 -0.4338
  919MOL0     H21301   2.362  10.617   9.182  0.4086  0.3112  0.9260
  919MOL0     H21302   2.215  10.346   9.149  0.8042 -0.3067 -0.8541
  919MOL0     H21303   2.305  10.395   9.296 -1.0307  0.5564 -0.3284
  919MOL0     H21304   2.446  10.383   9.021  3.0034  1.9107  1.2563
  919MOL0     H21305   2.512  10.412   9.171  2.0367 -2.9379  0.6802
  919MOL0     H21306   2.501   9.991   9.129  3.1224  0.6378  0.7048
  919MOL0     H21307   1.794  10.499   9.184  0.0957  0.2676 -0.2936
  919MOL0     H21308   1.621  10.584   9.024 -0.5119  0.7154 -0.6688
  920MOL0     O21309  10.009   1.262   6.452 -0.6124 -0.2191 -0.3522
  920MOL0     C21310   9.981   1.143   6.458 -0.0159 -0.2641  0.2354
  920MOL0     O21311  10.071   1.038   6.424  0.3170 -0.7774  0.1181
  920MOL0     C21312  10.203   1.077   6.449  0.3175  0.0696 -0.1916
  920MOL0     C21313  10.272   1.148   6.352  0.5769  0.5860 -0.2649
  920MOL0     C21314  10.406   1.185   6.363  0.8058  0.2267 -0.9600
  920MOL0     C21315  10.458   1.166   6.493  0.7948 -1.1269  0.5159
  920MOL0     O21316  10.593   1.198   6.526 -0.0506  0.6087  0.0395
  920MOL0     C21317  10.686   1.265   6.439  0.4786 -0.5821 -0.1952
  920MOL0     C21318  10.827   1.247   6.481 -0.8557 -0.0513  0.3900
  920MOL0     C21319  10.847   1.305   6.618  0.0883 -0.9600 -0.4571
  920MOL0     C21320  10.995   1.286   6.661  0.0094  1.5224 -0.1978
  920MOL0     C21321  11.015   1.351   6.795 -0.0002 -0.1082 -0.6193
  920MOL0     C21322  11.149   1.416   6.832 -0.6086 -0.1312 -0.3260
  920MOL0     C21323  11.271   1.324   6.802 -0.4570 -0.6067 -0.6334
  920MOL0     C21324  11.415   1.391   6.796 -0.4195 -0.6997  0.0697
  920MOL0     N21325  11.528   1.304   6.821 -0.7202 -0.6402 -0.1953
  920MOL0     C21326  11.600   1.288   6.939  1.1856 -0.4659  0.9283
  920MOL0     C21327  11.689   1.188   6.915  0.1852 -0.0108  0.1138
  920MOL0     C21328  11.761   1.105   7.023 -0.0898  0.2095  1.1894
  920MOL0     C21329  11.910   1.139   7.050 -0.1778  0.1063 -0.2092
  920MOL0     C21330  11.964   1.053   7.161 -0.1019 -0.0226  0.1200
  920MOL0     C21331  11.950   0.899   7.149  0.4375 -0.1575  0.3610
  920MOL0     O21332  12.005   0.828   7.259 -0.5663  0.1791 -0.0785
  920MOL0     C21333  12.133   0.857   7.306  0.1523  0.6067  0.6654
  920MOL0     C21334  12.246   0.844   7.229 -0.2075 -0.0092  0.8077
  920MOL0     C21335  12.370   0.874   7.280  0.2848 -0.4637  0.3836
  920MOL0     C21336  12.381   0.925   7.409  0.3187  0.3554  0.4642
  920MOL0     C21337  12.517   0.945   7.470 -0.3404  0.3201 -0.4071
  920MOL0     O21338  12.516   0.921   7.603  0.4642  0.3323 -0.3081
  920MOL0     C21339  12.629   0.927   7.685  0.7046  0.7007 -0.2744
  920MOL0     C21340  12.761   0.886   7.661 -0.2972  0.5862  0.1158
  920MOL0     C21341  12.864   0.866   7.762  0.3211 -0.7012  0.7334
  920MOL0     C21342  12.831   0.878   7.896 -0.3502  0.3905  0.2526
  920MOL0     O21343  12.917   0.852   7.997 -1.2076 -0.3911  0.4593
  920MOL0     C21344  13.056   0.832   7.966  0.1278 -0.6432  0.3908
  920MOL0     C21345  13.130   0.862   8.094  0.8737  0.2095 -0.6843
  920MOL0     C21346  13.112   0.754   8.206 -0.2398  0.5106 -0.2557
  920MOL0     C21347  13.174   0.797   8.335  0.8196  0.1456 -0.5624
  920MOL0     C21348  13.128   0.707   8.455  0.7119 -0.1188 -0.1266
  920MOL0     C21349  13.212   0.577   8.450 -0.9870 -0.4371  0.1572
  920MOL0     C21350  13.212   0.492   8.579 -0.3496 -0.0079  0.2266
  920MOL0     C21351  13.225   0.331   8.573  0.2759  0.0734 -0.8001
  920MOL0    Cl21352  13.077   0.258   8.508  0.5261 -0.1375 -0.1064
  920MOL0     C21353  12.698   0.919   7.918 -0.2043  0.2733 -0.3814
  920MOL0     C21354  12.603   0.942   7.823 -0.0348  0.0929  0.1648
  920MOL0     O21355  12.610   0.965   7.401 -0.0777  0.5864  0.5155
  920MOL0     C21356  12.266   0.944   7.483 -0.3215 -0.0758  0.3996
  920MOL0     C21357  12.143   0.911   7.440  0.8018  0.1490  0.4994
  920MOL0     N21358  11.681   1.148   6.784  0.1419  0.1609  0.1834
  920MOL0     N21359  11.591   1.223   6.732 -0.1177  0.5400 -0.1893
  920MOL0     C21360  10.390   1.108   6.595 -0.6005  0.0463  0.1105
  920MOL0     C21361  10.267   1.061   6.572  0.8789 -0.4522  0.2494
  920MOL0     C21362   9.842   1.109   6.505 -0.7772  0.5566 -0.0820
  920MOL0     C21363   9.733   1.186   6.479  0.4996 -0.7910  0.2587
  920MOL0     C21364   9.616   1.152   6.541  0.4405  0.1203 -0.6306
  920MOL0     C21365   9.607   1.038   6.623  1.1415  0.3344  0.7580
  920MOL0     O21366   9.486   1.020   6.685  0.1408  0.1123  0.0519
  920MOL0     C21367   9.466   0.909   6.773  0.7067  0.3773  0.0687
  920MOL0     C21368   9.313   0.911   6.802  0.3548  1.3674 -0.0706
  920MOL0     C21369   9.225   0.912   6.680 -0.1677  0.6624  0.4184
  920MOL0     C21370   9.078   0.918   6.731 -0.6981  0.1598 -0.1124
  920MOL0     C21371   9.044   1.051   6.781 -0.6620 -0.8062 -0.0450
  920MOL0     C21372   9.018   1.166   6.816 -0.7207 -0.7063  0.1284
  920MOL0     C21373   9.723   0.956   6.646  0.0563 -0.1714  0.5937
  920MOL0     C21374   9.844   0.992   6.588  0.2353 -0.4184  0.4475
  920MOL0     H21375  10.212   1.165   6.264  1.8375  0.0697 -1.2441
  920MOL0     H21376  10.470   1.226   6.285  2.5995 -1.0570 -0.2464
  920MOL0     H21377  10.658   1.371   6.444  0.0047 -0.7250  3.4397
  920MOL0     H21378  10.665   1.218   6.342  1.0543 -0.0577 -0.5784
  920MOL0     H21379  10.889   1.289   6.401  0.0677 -0.9859  0.5991
  920MOL0     H21380  10.861   1.143   6.488 -1.4346 -0.3702 -1.1584
  920MOL0     H21381  10.774   1.265   6.688  0.2314 -1.6226 -0.6766
  920MOL0     H21382  10.839   1.414   6.613  2.5114 -0.7335 -0.7338
  920MOL0     H21383  11.024   1.181   6.662  0.2970  1.5777 -1.1619
  920MOL0     H21384  11.066   1.321   6.585 -0.5060  0.3466 -1.2601
  920MOL0     H21385  10.993   1.283   6.878  0.0987  1.3787  0.6898
  920MOL0     H21386  10.947   1.437   6.802 -0.8744 -0.7931 -0.5195
  920MOL0     H21387  11.157   1.447   6.937  3.2598  0.6996 -0.7106
  920MOL0     H21388  11.158   1.512   6.781 -0.0012 -0.1392 -0.2386
  920MOL0     H21389  11.251   1.240   6.869 -1.0435  0.9782  1.2640
  920MOL0     H21390  11.262   1.290   6.698  0.2966 -1.1681 -0.5164
  920MOL0     H21391  11.424   1.474   6.868 -0.8580  1.6436 -2.4099
  920MOL0     H21392  11.429   1.437   6.698  1.0048  0.7053  0.8704
  920MOL0     H21393  11.583   1.327   7.038 -0.3242 -0.7425  0.7886
  920MOL0     H21394  11.768   1.004   6.982 -3.4635 -0.0635  0.9657
  920MOL0     H21395  11.714   1.103   7.122  0.5993 -2.0331  1.5235
  920MOL0     H21396  11.916   1.243   7.082 -0.8663 -0.3694  1.6056
  920MOL0     H21397  11.965   1.141   6.956 -1.6934  1.6624 -1.1194
  920MOL0     H21398  12.073   1.069   7.159  0.1732 -1.7401 -1.7037
  920MOL0     H21399  11.933   1.096   7.257  1.6238 -2.1745  1.7478
  920MOL0     H21400  11.999   0.874   7.055  3.7871  0.9810  1.6296
  920MOL0     H21401  11.843   0.877   7.145 -0.0221  1.8397  0.1889
  920MOL0     H21402  12.223   0.815   7.127  0.1054  0.9527  0.4606
  920MOL0     H21403  12.464   0.865   7.227  1.1769 -3.0377  2.2257
  920MOL0     H21404  12.793   0.855   7.561 -2.1403 -2.3890  0.3116
  920MOL0     H21405  12.962   0.849   7.719  0.5758 -0.2736  1.1454
  920MOL0     H21406  13.086   0.911   7.897 -0.1553  0.6784  1.7334
  920MOL0     H21407  13.072   0.731   7.928  2.5193  0.5598 -2.1118
  920MOL0     H21408  13.091   0.958   8.126 -1.2766  0.2203 -2.9998
  920MOL0     H21409  13.236   0.875   8.071  0.1548  4.2580 -2.4707
  920MOL0     H21410  13.164   0.670   8.158 -0.1651 -0.0198  0.7239
  920MOL0     H21411  13.009   0.723   8.226 -0.3370 -0.7664 -2.4969
  920MOL0     H21412  13.283   0.804   8.329  0.7847  0.2910 -1.0982
  920MOL0     H21413  13.139   0.899   8.356 -0.6262 -1.2965  6.1257
  920MOL0     H21414  13.022   0.680   8.460  1.0760 -2.4221 -2.5503
  920MOL0     H21415  13.153   0.767   8.543 -1.7556 -1.5829  1.6914
  920MOL0     H21416  13.315   0.611   8.430 -1.9049  3.4901  1.2291
  920MOL0     H21417  13.175   0.516   8.367  0.8467 -0.0093 -1.0516
  920MOL0     H21418  13.283   0.549   8.640 -1.6054  1.2928  0.5475
  920MOL0     H21419  13.113   0.503   8.626 -1.4368  0.9686 -2.1472
  920MOL0     H21420  13.252   0.294   8.672  0.4751  0.6276 -0.6474
  920MOL0     H21421  13.308   0.301   8.508 -1.6257 -1.9884 -2.4497
  920MOL0     H21422  12.668   0.938   8.020 -0.0268 -1.0120 -0.0647
  920MOL0     H21423  12.500   0.967   7.847 -0.2345 -0.3141 -0.2455
  920MOL0     H21424  12.269   0.987   7.582 -1.3902 -2.1045  1.3628
  920MOL0     H21425  12.058   0.914   7.508  0.2997 -3.5599  0.2471
  920MOL0     H21426  10.446   1.099   6.688  2.6487  0.4662 -1.6681
  920MOL0     H21427  10.206   1.018   6.651 -0.3474 -0.7533 -0.8267
  920MOL0     H21428   9.738   1.274   6.415  2.4546 -0.9085  0.1863
  920MOL0     H21429   9.525   1.199   6.504  1.0700  1.7964 -0.1551
  920MOL0     H21430   9.525   0.928   6.863 -0.3034  0.6822  0.6844
  920MOL0     H21431   9.496   0.813   6.730 -1.6429 -0.0079 -0.8645
  920MOL0     H21432   9.292   0.819   6.857  0.8604  1.9382  1.1442
  920MOL0     H21433   9.285   0.991   6.871 -4.4166  0.3884 -0.5564
  920MOL0     H21434   9.245   0.815   6.632  0.1598  1.0528 -0.2518
  920MOL0     H21435   9.242   0.993   6.609  0.0624  2.1153  2.0792
  920MOL0     H21436   8.997   0.896   6.661 -0.1856  1.3618 -1.1224
  920MOL0     H21437   9.072   0.839   6.805  0.4830  0.8285  0.7454
  920MOL0     H21438   8.997   1.266   6.848  4.1607  0.1479  1.4012
  920MOL0     H21439   9.724   0.868   6.709  1.2272  1.2400  2.6951
  920MOL0     H21440   9.930   0.927   6.594  0.8382  0.3318  0.1016
  921MOL0     O21441  10.895   5.476   0.207  0.0123 -0.3448 -0.4275
  921MOL0     C21442  10.952   5.575   0.241 -0.2232 -0.0954  0.0896
  921MOL0     O21443  10.893   5.697   0.266  0.2645 -0.0925  0.5975
  921MOL0     C21444  10.767   5.710   0.214 -0.2427  0.0019 -0.1268
  921MOL0     C21445  10.751   5.693   0.075 -0.2661 -0.1157  0.3981
  921MOL0     C21446  10.629   5.723   0.016  1.0756 -0.3962  0.9052
  921MOL0     C21447  10.522   5.767   0.092  0.6371  0.2679 -0.3522
  921MOL0     O21448  10.404   5.808   0.026 -0.2111 -0.5286 -0.3961
  921MOL0     C21449  10.287   5.852   0.097 -1.2239  1.0374 -0.8843
  921MOL0     C21450  10.165   5.897   0.009 -1.6888  0.0917 -0.3649
  921MOL0     C21451  10.047   5.930   0.109 -0.7027 -0.4004  1.0328
  921MOL0     C21452   9.989   5.812   0.192 -1.1694  0.0676  1.2145
  921MOL0     C21453   9.858   5.866   0.255 -0.6196  0.1091  0.0398
  921MOL0     C21454   9.811   5.777   0.373  0.0227 -1.2782 -0.0856
  921MOL0     C21455   9.682   5.835   0.437  0.6948  0.0291  0.5336
  921MOL0     C21456   9.560   5.835   0.345 -1.2081 -0.4602 -0.2413
  921MOL0     N21457   9.433   5.871   0.414 -0.4591 -0.2165 -0.3933
  921MOL0     C21458   9.318   5.804   0.367  0.0248 -0.5533  1.2392
  921MOL0     C21459   9.218   5.873   0.430  0.7699  0.7930  0.5009
  921MOL0     C21460   9.070   5.841   0.421 -0.4751  0.1897  0.6731
  921MOL0     C21461   8.973   5.950   0.458  0.7246 -0.1263 -0.2448
  921MOL0     C21462   9.004   6.079   0.373 -0.7859  1.3935 -0.0044
  921MOL0     C21463   8.893   6.179   0.395  0.7227  0.4410 -0.2817
  921MOL0     O21464   8.768   6.127   0.441  0.0765  0.3782 -0.1453
  921MOL0     C21465   8.666   6.215   0.436 -0.1291  0.8618 -0.0830
  921MOL0     C21466   8.541   6.159   0.458 -0.9175 -0.7455 -0.1218
  921MOL0     C21467   8.424   6.240   0.447  0.0749 -0.3092  0.6472
  921MOL0     C21468   8.424   6.380   0.423  0.4956  0.0041 -0.0299
  921MOL0     C21469   8.313   6.471   0.394 -0.3127 -0.3815  0.1921
  921MOL0     O21470   8.197   6.410   0.386  0.5891  0.4534 -0.2293
  921MOL0     C21471   8.076   6.473   0.369  0.3972 -0.1301  0.3715
  921MOL0     C21472   8.040   6.604   0.327 -0.3681  0.4728 -0.7401
  921MOL0     C21473   7.906   6.643   0.315 -0.8821 -0.0801 -0.9872
  921MOL0     C21474   7.811   6.546   0.338 -0.1363 -0.0268 -0.0335
  921MOL0     O21475   7.681   6.576   0.307  0.0943  0.0227 -0.0596
  921MOL0     C21476   7.601   6.633   0.415 -0.4418  0.6078 -0.6056
  921MOL0     C21477   7.557   6.786   0.398 -0.1109  0.2958  1.1197
  921MOL0     C21478   7.433   6.833   0.478 -0.1437  1.0254 -0.7233
  921MOL0     C21479   7.384   6.972   0.446 -0.0380  0.2035 -0.8859
  921MOL0     C21480   7.265   7.002   0.537 -0.5018  0.0112 -0.0292
  921MOL0     C21481   7.182   7.123   0.499 -0.4474  0.4351 -1.2692
  921MOL0     C21482   7.098   7.170   0.625  0.1089  0.5633 -0.7795
  921MOL0     C21483   7.033   7.308   0.597  0.5130  0.2608  0.3624
  921MOL0    Cl21484   7.175   7.427   0.594 -0.0448  0.1101  0.3356
  921MOL0     C21485   7.841   6.426   0.383  0.3286  0.7636  0.7056
  921MOL0     C21486   7.971   6.390   0.396  0.3822  0.2153  0.2106
  921MOL0     O21487   8.333   6.592   0.390  0.6528  0.4063  0.2730
  921MOL0     C21488   8.549   6.433   0.420  0.1430 -0.2970  0.3235
  921MOL0     C21489   8.670   6.357   0.423  0.5926 -0.2658  1.2471
  921MOL0     N21490   9.272   5.961   0.518 -1.1053  0.2323  0.2104
  921MOL0     N21491   9.401   5.968   0.502  0.2895  0.6604 -0.4635
  921MOL0     C21492  10.538   5.775   0.232 -0.7660 -0.8636 -0.0819
  921MOL0     C21493  10.660   5.755   0.295 -0.3239 -0.7465 -1.2335
  921MOL0     C21494  11.097   5.557   0.286 -1.0239  0.0325  0.1944
  921MOL0     C21495  11.164   5.667   0.331 -0.0447  0.6197  0.2082
  921MOL0     C21496  11.291   5.655   0.383  0.8870  0.1848 -0.4425
  921MOL0     C21497  11.356   5.533   0.387  0.0251  1.0252 -0.5396
  921MOL0     O21498  11.492   5.530   0.414 -0.1560 -0.2116  0.3979
  921MOL0     C21499  11.584   5.464   0.323  0.1901  0.1106 -0.2369
  921MOL0     C21500  11.641   5.335   0.373  0.1727  0.4236 -0.0574
  921MOL0     C21501  11.746   5.284   0.276 -0.0367  0.5680 -0.4805
  921MOL0     C21502  11.817   5.159   0.322  0.7146 -0.4163  0.3305
  921MOL0     C21503  11.901   5.179   0.438  1.0047  0.5331  0.8852
  921MOL0     C21504  11.961   5.198   0.534 -0.9018  0.4673 -1.0471
  921MOL0     C21505  11.292   5.422   0.335 -0.5266 -0.1327  0.5342
  921MOL0     C21506  11.164   5.427   0.285 -0.1896 -0.4542 -0.5543
  921MOL0     H21507  10.822   5.640   0.013 -0.7727  0.4284 -0.6567
  921MOL0     H21508  10.612   5.710  -0.090 -0.9264 -0.4992  1.1949
  921MOL0     H21509  10.310   5.934   0.165  1.2723 -0.6668  0.5086
  921MOL0     H21510  10.263   5.768   0.163  0.9767  0.1887 -1.0659
  921MOL0     H21511  10.142   5.818  -0.063 -1.1832 -0.8707  0.4992
  921MOL0     H21512  10.191   5.979  -0.059 -1.8847 -0.9100 -1.6852
  921MOL0     H21513   9.961   5.961   0.049 -3.0044 -1.6089  3.4700
  921MOL0     H21514  10.078   6.001   0.187 -1.5190  1.8928 -0.5996
  921MOL0     H21515   9.961   5.733   0.122 -2.8114  0.3832  1.4675
  921MOL0     H21516  10.061   5.775   0.266  1.9814 -1.3195 -2.2231
  921MOL0     H21517   9.779   5.880   0.181 -0.3965 -0.6731 -0.3535
  921MOL0     H21518   9.883   5.962   0.303  0.6444  1.0576 -2.3633
  921MOL0     H21519   9.899   5.772   0.437  1.6288 -1.4445 -2.2095
  921MOL0     H21520   9.785   5.677   0.336  0.6777 -0.9167 -1.5823
  921MOL0     H21521   9.654   5.781   0.528 -0.4480  0.8676  0.6947
  921MOL0     H21522   9.703   5.939   0.466 -1.3456  0.8900 -0.8573
  921MOL0     H21523   9.565   5.743   0.285  3.4097  0.6384 -1.9224
  921MOL0     H21524   9.575   5.909   0.266 -0.4534 -3.3906 -3.0506
  921MOL0     H21525   9.308   5.720   0.299 -2.0120  0.0280  0.7218
  921MOL0     H21526   9.057   5.758   0.491 -1.0663  1.6540  2.4002
  921MOL0     H21527   9.054   5.807   0.318  0.4722 -0.7309  0.8231
  921MOL0     H21528   9.008   5.983   0.557 -2.4143 -2.6063  1.8949
  921MOL0     H21529   8.869   5.918   0.456  0.4005  0.8327 -3.0990
  921MOL0     H21530   9.104   6.116   0.396 -1.0858  0.5447  3.1212
  921MOL0     H21531   9.000   6.054   0.267  1.1637  2.3977 -0.3593
  921MOL0     H21532   8.888   6.237   0.303  1.4827 -0.7409 -1.0960
  921MOL0     H21533   8.927   6.244   0.476  0.7474  1.1175 -0.8313
  921MOL0     H21534   8.540   6.051   0.466  3.1418 -1.1386 -2.2642
  921MOL0     H21535   8.332   6.185   0.461 -0.4320 -0.3091 -2.0635
  921MOL0     H21536   8.123   6.672   0.311  2.8949 -2.8693  0.8242
  921MOL0     H21537   7.882   6.745   0.287 -2.0587 -0.7179 -2.3886
  921MOL0     H21538   7.651   6.632   0.512  1.1777 -0.6332 -1.4030
  921MOL0     H21539   7.514   6.570   0.438  0.5471 -0.8315 -0.6418
  921MOL0     H21540   7.533   6.794   0.292  2.5010 -0.5670  0.3752
  921MOL0     H21541   7.645   6.845   0.425  0.3675  0.1608 -0.0544
  921MOL0     H21542   7.453   6.822   0.585  0.3205  2.2582 -0.6713
  921MOL0     H21543   7.352   6.761   0.460  1.0170 -0.1034 -1.6576
  921MOL0     H21544   7.462   7.044   0.473  0.5725 -0.6791 -0.2551
  921MOL0     H21545   7.340   6.981   0.346 -3.5811 -0.6633  0.4519
  921MOL0     H21546   7.296   6.998   0.642  0.3693  0.3982 -0.2662
  921MOL0     H21547   7.204   6.913   0.517  0.3332 -0.7854  0.8555
  921MOL0     H21548   7.118   7.099   0.414 -1.3338  2.3124 -1.1560
  921MOL0     H21549   7.241   7.209   0.467 -2.0365  1.7424 -0.8099
  921MOL0     H21550   7.039   7.084   0.657  0.1063  0.9078  0.1600
  921MOL0     H21551   7.171   7.184   0.705  0.6615  0.9494 -1.3367
  921MOL0     H21552   6.955   7.332   0.670  0.6809  1.2398  0.2382
  921MOL0     H21553   6.986   7.307   0.498  0.5613  0.1935  0.3404
  921MOL0     H21554   7.754   6.361   0.392 -1.5760  3.1723  0.6610
  921MOL0     H21555   7.995   6.288   0.425  0.2660  0.4941  1.3240
  921MOL0     H21556   8.552   6.537   0.392 -2.5492 -0.1397  0.4122
  921MOL0     H21557   8.763   6.409   0.403 -0.1519  0.3680 -0.8203
  921MOL0     H21558  10.460   5.810   0.299  1.0514 -0.1744  1.7592
  921MOL0     H21559  10.678   5.767   0.401 -1.7393 -0.2513 -1.0271
  921MOL0     H21560  11.112   5.762   0.338 -2.3250 -0.6413  1.4424
  921MOL0     H21561  11.337   5.744   0.426 -0.1525  1.7319 -2.3669
  921MOL0     H21562  11.670   5.530   0.311  1.6091 -1.1160  2.5064
  921MOL0     H21563  11.538   5.464   0.223 -1.0260 -1.1071  0.2896
  921MOL0     H21564  11.700   5.365   0.461  2.0271  1.8195 -1.6973
  921MOL0     H21565  11.575   5.249   0.384  0.3437  0.0964 -1.4276
  921MOL0     H21566  11.819   5.363   0.256 -1.2855  1.6688 -0.8411
  921MOL0     H21567  11.697   5.242   0.188 -1.6247  1.7163 -0.1983
  921MOL0     H21568  11.739   5.085   0.340 -3.4340  2.4827 -3.5565
  921MOL0     H21569  11.882   5.128   0.239  0.3321  4.0073 -1.9135
  921MOL0     H21570  12.023   5.225   0.618 -1.2384  2.8028 -1.4641
  921MOL0     H21571  11.338   5.324   0.332 -1.5810 -0.7014  1.9703
  921MOL0     H21572  11.124   5.334   0.247 -3.2392 -1.0266  3.4154
  922MOL0     O21573   1.721   9.165   5.030  0.1744  0.8395  0.6640
  922MOL0     C21574   1.682   9.268   5.083  0.2129 -0.2464  0.7878
  922MOL0     O21575   1.562   9.290   5.148 -0.3176  0.6211  0.2021
  922MOL0     C21576   1.466   9.198   5.117  0.7208  0.5040  0.3294
  922MOL0     C21577   1.367   9.254   5.041  0.0688  1.0264  0.0164
  922MOL0     C21578   1.269   9.169   4.991  0.1790 -1.0114 -0.3689
  922MOL0     C21579   1.251   9.040   5.023 -0.6910  0.4066 -0.4881
  922MOL0     O21580   1.154   8.961   4.973  0.3177  0.7291 -0.7071
  922MOL0     C21581   1.022   9.004   4.948 -0.2107 -0.3200  0.0296
  922MOL0     C21582   0.999   9.060   4.810 -0.0021  0.1956 -0.8132
  922MOL0     C21583   1.079   8.992   4.694  0.9188 -0.2819  0.4216
  922MOL0     C21584   1.050   8.849   4.663  0.8909 -0.4270  0.0539
  922MOL0     C21585   0.921   8.841   4.586  0.1632  0.6543 -0.2936
  922MOL0     C21586   0.931   8.892   4.441 -0.1924  0.1214  0.5086
  922MOL0     C21587   0.797   8.898   4.363 -0.3909  0.0017  0.0899
  922MOL0     C21588   0.725   8.761   4.324  0.2769 -0.6019  0.1760
  922MOL0     N21589   0.706   8.748   4.178 -0.4883 -0.3085 -0.2476
  922MOL0     C21590   0.798   8.686   4.093  0.0741  0.8173 -0.5721
  922MOL0     C21591   0.733   8.691   3.974  0.2977 -0.9263 -0.8084
  922MOL0     C21592   0.770   8.641   3.827  0.2238  0.6279 -0.8412
  922MOL0     C21593   0.745   8.763   3.733  0.2654 -0.7568  0.6260
  922MOL0     C21594   0.854   8.865   3.733 -1.2480 -0.2719 -1.0873
  922MOL0     C21595   0.805   8.990   3.663 -1.1892  0.4119 -0.3923
  922MOL0     O21596   0.928   9.061   3.635  0.2128 -0.3631 -0.6074
  922MOL0     C21597   0.945   9.151   3.534 -0.3791  0.1195  0.3342
  922MOL0     C21598   0.842   9.221   3.482  0.6777  0.1307  0.7156
  922MOL0     C21599   0.856   9.311   3.380  0.1743  0.4715 -0.9666
  922MOL0     C21600   0.982   9.342   3.331  0.2288  0.0396 -0.3331
  922MOL0     C21601   0.997   9.447   3.232 -0.5547  0.3489  0.9468
  922MOL0     O21602   1.117   9.458   3.162 -0.0096 -0.0923 -0.2786
  922MOL0     C21603   1.140   9.549   3.063  0.2568 -0.8503  0.1331
  922MOL0     C21604   1.202   9.509   2.949  0.0293 -0.7460 -0.7087
  922MOL0     C21605   1.238   9.595   2.840 -0.1891 -0.3582 -0.1664
  922MOL0     C21606   1.217   9.734   2.869  0.0715  0.6141 -0.0082
  922MOL0     O21607   1.254   9.833   2.783 -0.1119 -0.3688  0.8087
  922MOL0     C21608   1.381   9.831   2.719 -0.5085 -0.3883  0.3222
  922MOL0     C21609   1.423   9.975   2.667 -0.0893 -0.4370 -0.0176
  922MOL0     C21610   1.521  10.048   2.766  0.3945  0.1087  0.1701
  922MOL0     C21611   1.545  10.185   2.726 -0.4527  0.0333 -0.0625
  922MOL0     C21612   1.618  10.197   2.593  0.2038  0.1403  0.3052
  922MOL0     C21613   1.641  10.349   2.552  0.4341 -0.4641  0.3075
  922MOL0     C21614   1.740  10.423   2.644 -0.4632 -0.0595  0.7630
  922MOL0     C21615   1.886  10.368   2.668  0.5184 -0.2118 -1.0770
  922MOL0    Cl21616   1.966  10.383   2.517  0.7577  0.1842  0.0719
  922MOL0     C21617   1.149   9.781   2.980 -0.2432  0.7648  0.7093
  922MOL0     C21618   1.114   9.691   3.080 -0.2590 -0.2356  0.2726
  922MOL0     O21619   0.902   9.516   3.204  0.6527  0.1873  0.4284
  922MOL0     C21620   1.086   9.280   3.397 -1.1837 -0.6253 -1.5745
  922MOL0     C21621   1.071   9.179   3.487 -0.3720 -0.1852  0.3844
  922MOL0     N21622   0.611   8.766   3.986  0.4515  0.0024  0.5691
  922MOL0     N21623   0.594   8.787   4.112  0.7864  0.4004 -0.3089
  922MOL0     C21624   1.355   8.990   5.102  1.2159  0.1765 -0.2477
  922MOL0     C21625   1.459   9.061   5.157  0.3587  0.1981 -0.0976
  922MOL0     C21626   1.775   9.372   5.108  0.4962 -0.1558  0.7449
  922MOL0     C21627   1.737   9.502   5.085  0.4642 -0.9321 -0.0635
  922MOL0     C21628   1.836   9.600   5.108 -0.0762 -1.0563 -0.1921
  922MOL0     C21629   1.952   9.572   5.167  0.0733 -0.5537  0.1871
  922MOL0     O21630   2.046   9.671   5.199  0.1480  0.0351  0.6292
  922MOL0     C21631   2.016   9.809   5.158  0.1601  0.0265 -0.1411
  922MOL0     C21632   2.059   9.831   5.012  0.2440  0.0359 -0.2853
  922MOL0     C21633   2.097   9.972   4.982 -0.1040  0.0783 -0.8061
  922MOL0     C21634   2.215  10.019   5.055 -1.0469 -1.0387  0.0828
  922MOL0     C21635   2.279  10.137   4.987 -0.1336  0.3493 -0.1540
  922MOL0     C21636   2.322  10.220   4.914  0.2715 -0.1776  0.1083
  922MOL0     C21637   1.990   9.440   5.182  0.4498 -0.2099 -0.6295
  922MOL0     C21638   1.904   9.347   5.146 -0.2384  0.6223  0.4008
  922MOL0     H21639   1.356   9.352   4.996 -0.6593 -0.0006 -2.1600
  922MOL0     H21640   1.198   9.214   4.922 -0.0813 -0.4630  0.2484
  922MOL0     H21641   0.993   9.086   5.014  0.8152  0.8179 -0.8813
  922MOL0     H21642   0.941   8.932   4.965 -0.3824 -0.2455 -0.4599
  922MOL0     H21643   1.005   9.168   4.798  1.6024  0.0832 -1.1877
  922MOL0     H21644   0.894   9.047   4.781 -0.5415 -2.9048  1.9713
  922MOL0     H21645   1.186   9.007   4.713  0.4638  2.1686  1.5091
  922MOL0     H21646   1.073   9.050   4.601  1.1226 -5.2607 -3.0887
  922MOL0     H21647   1.134   8.805   4.608 -0.1299 -1.8007 -0.4633
  922MOL0     H21648   1.041   8.800   4.760 -0.5714 -1.5795 -0.6141
  922MOL0     H21649   0.847   8.894   4.646 -0.8376 -1.5054  0.5066
  922MOL0     H21650   0.881   8.739   4.581  0.6672  0.2406  2.4842
  922MOL0     H21651   1.012   8.834   4.394 -0.3905 -1.2643  1.8076
  922MOL0     H21652   0.973   8.993   4.445  0.4376 -0.1626  1.3454
  922MOL0     H21653   0.718   8.958   4.410 -2.1208 -1.6721 -0.5353
  922MOL0     H21654   0.817   8.934   4.262  0.8110 -1.0049 -0.0525
  922MOL0     H21655   0.634   8.749   4.383  0.2747  1.3054  0.6082
  922MOL0     H21656   0.797   8.688   4.361  2.2619  0.9327 -0.5018
  922MOL0     H21657   0.892   8.634   4.111 -0.8708 -1.1424 -1.0227
  922MOL0     H21658   0.705   8.556   3.801 -0.4450  0.9575 -0.2805
  922MOL0     H21659   0.871   8.601   3.833 -0.6722 -1.6286  0.4493
  922MOL0     H21660   0.650   8.812   3.755 -0.5220  1.4400 -5.7514
  922MOL0     H21661   0.722   8.728   3.632 -1.0370 -0.4374  0.8003
  922MOL0     H21662   0.891   8.883   3.835  1.3636 -0.9662 -1.8210
  922MOL0     H21663   0.944   8.826   3.684  0.4416  1.1757  0.6774
  922MOL0     H21664   0.736   9.054   3.719  0.2343  1.0218  0.6958
  922MOL0     H21665   0.760   8.967   3.565  0.6599  1.5695 -1.5541
  922MOL0     H21666   0.740   9.199   3.515 -0.3854  2.5235 -0.7262
  922MOL0     H21667   0.769   9.359   3.336  1.3170  2.3728 -1.2696
  922MOL0     H21668   1.224   9.403   2.946 -0.5798 -0.9474  0.9357
  922MOL0     H21669   1.284   9.565   2.746  1.4251  1.5028 -0.0290
  922MOL0     H21670   1.364   9.788   2.619  2.2146  1.1596 -0.9150
  922MOL0     H21671   1.468   9.792   2.773  1.8432  3.2072 -0.4798
  922MOL0     H21672   1.334  10.038   2.654 -2.1083 -3.3257 -1.3080
  922MOL0     H21673   1.471   9.967   2.569  0.8279  1.4835  0.2264
  922MOL0     H21674   1.613   9.989   2.767  0.8224  0.5971 -2.3163
  922MOL0     H21675   1.486  10.061   2.868  0.5303  1.0365  0.1048
  922MOL0     H21676   1.454  10.243   2.706 -2.8212 -3.3128  0.1068
  922MOL0     H21677   1.603  10.240   2.800  0.8532 -1.0036 -0.2772
  922MOL0     H21678   1.554  10.154   2.515 -0.1588  0.9553  0.1471
  922MOL0     H21679   1.707  10.133   2.597 -0.3006 -0.6015 -0.0001
  922MOL0     H21680   1.550  10.406   2.568  1.4071  0.6888  2.0427
  922MOL0     H21681   1.674  10.356   2.448 -0.1240 -0.5680  0.1206
  922MOL0     H21682   1.735  10.525   2.606  0.3279 -0.7208 -1.2156
  922MOL0     H21683   1.691  10.426   2.742  1.3691  0.2812  1.7111
  922MOL0     H21684   1.892  10.265   2.705  2.5984  0.1815 -0.1935
  922MOL0     H21685   1.919  10.433   2.749 -1.5134 -2.6673  1.9597
  922MOL0     H21686   1.113   9.883   2.991 -1.1804  0.9013 -2.5505
  922MOL0     H21687   1.055   9.719   3.167 -1.6580 -0.0610 -0.7021
  922MOL0     H21688   1.186   9.322   3.397  0.5593 -4.0277  2.7166
  922MOL0     H21689   1.161   9.133   3.526 -0.4986 -1.5098 -0.7975
  922MOL0     H21690   1.353   8.888   5.140 -0.5069  0.5763  0.8674
  922MOL0     H21691   1.538   9.006   5.206  0.5777  1.2621  0.7992
  922MOL0     H21692   1.642   9.529   5.038 -0.7348 -0.1928  2.5764
  922MOL0     H21693   1.805   9.700   5.079 -1.5726 -1.2402  0.6832
  922MOL0     H21694   2.079   9.862   5.230  1.1364 -1.5537  0.2355
  922MOL0     H21695   1.912   9.837   5.170  0.3200  1.1570 -1.1607
  922MOL0     H21696   2.140   9.767   4.975  0.9443  0.7389 -0.0144
  922MOL0     H21697   1.973   9.810   4.947  0.2802  0.5529 -0.5076
  922MOL0     H21698   2.010  10.038   4.983  0.7997  1.2973  0.4794
  922MOL0     H21699   2.130   9.983   4.878 -1.9883  1.9956 -1.2742
  922MOL0     H21700   2.175  10.044   5.153  1.8927  0.4305  1.0273
  922MOL0     H21701   2.289   9.945   5.086 -0.5065 -0.2649  0.6830
  922MOL0     H21702   2.360  10.285   4.837 -1.3521  1.8356  0.9091
  922MOL0     H21703   2.085   9.417   5.230 -0.1776  0.4651  1.0019
  922MOL0     H21704   1.931   9.243   5.165 -0.8214  1.1143  5.5653
  923MOL0     O21705   4.623   9.299  11.047  0.7103  0.0411 -0.0972
  923MOL0     C21706   4.703   9.211  11.066 -0.3807  0.1594 -0.3334
  923MOL0     O21707   4.678   9.081  11.038  0.1389  0.4882  0.4614
  923MOL0     C21708   4.550   9.046  10.992  0.4093  0.1784  0.5697
  923MOL0     C21709   4.515   8.911  11.016 -0.2043 -0.0773  0.6436
  923MOL0     C21710   4.400   8.852  10.962  0.4871 -0.7165 -0.6998
  923MOL0     C21711   4.303   8.931  10.900  0.1291  0.0892  0.3889
  923MOL0     O21712   4.194   8.877  10.831 -1.0391 -0.2240 -0.7819
  923MOL0     C21713   4.146   8.740  10.844 -0.7334 -0.0143 -0.4484
  923MOL0     C21714   4.013   8.714  10.781  0.2116  0.2862  0.8393
  923MOL0     C21715   3.961   8.585  10.842  0.6448 -0.6708  1.0037
  923MOL0     C21716   3.838   8.541  10.757 -0.1279  0.6446 -0.6667
  923MOL0     C21717   3.772   8.421  10.825 -0.1661  0.2292  0.4274
  923MOL0     C21718   3.673   8.351  10.736 -0.4457  0.0600  0.6401
  923MOL0     C21719   3.534   8.411  10.760 -0.0469 -0.4512  0.3934
  923MOL0     C21720   3.431   8.306  10.834 -0.7402 -0.8247 -0.4515
  923MOL0     N21721   3.447   8.331  10.977  0.3242 -0.2534  0.5378
  923MOL0     C21722   3.418   8.449  11.043 -0.1756  0.8150  0.8704
  923MOL0     C21723   3.443   8.415  11.175 -0.2705 -0.2303  0.8360
  923MOL0     C21724   3.394   8.493  11.287  0.2311 -0.6857 -0.8217
  923MOL0     C21725   3.469   8.463  11.415 -0.0385 -0.3755  0.1022
  923MOL0     C21726   3.471   8.566  11.523  0.0549 -0.5692 -0.2570
  923MOL0     C21727   3.331   8.613  11.572 -0.5328  0.6214  0.0491
  923MOL0     O21728   3.248   8.505  11.615  0.2441  0.7926 -0.6507
  923MOL0     C21729   3.269   8.440  11.727  0.2938 -0.2588  0.0914
  923MOL0     C21730   3.180   8.338  11.753  0.5121 -0.0961 -1.0518
  923MOL0     C21731   3.197   8.243  11.846  0.1527  0.3060 -0.6690
  923MOL0     C21732   3.299   8.254  11.942 -0.1742 -0.2132 -0.6738
  923MOL0     C21733   3.339   8.135  12.021  0.0206 -1.3546 -0.2063
  923MOL0     O21734   3.469   8.130  12.065 -0.1194  0.1971  0.2211
  923MOL0     C21735   3.513   8.031  12.143 -0.3180  0.7312 -0.8062
  923MOL0     C21736   3.489   7.896  12.128 -0.2667 -0.3936  0.1591
  923MOL0     C21737   3.554   7.809  12.209  0.1927 -0.1209  0.0522
  923MOL0     C21738   3.652   7.851  12.306  1.0082 -1.4239  0.1830
  923MOL0     O21739   3.702   7.742  12.376  0.0346 -0.1737 -0.4968
  923MOL0     C21740   3.794   7.763  12.481 -0.8499  0.2431  0.2233
  923MOL0     C21741   3.718   7.777  12.611  1.0307 -0.5422 -0.2543
  923MOL0     C21742   3.659   7.636  12.652 -0.0719  0.0296  0.4980
  923MOL0     C21743   3.612   7.617  12.789 -0.6221 -0.4424 -0.2205
  923MOL0     C21744   3.562   7.476  12.816 -0.1435 -0.1669 -0.1291
  923MOL0     C21745   3.459   7.477  12.927 -0.6564  0.1819 -0.4783
  923MOL0     C21746   3.525   7.469  13.064 -0.3324 -0.0920  0.3219
  923MOL0     C21747   3.433   7.513  13.182 -0.9532  0.9486 -0.1242
  923MOL0    Cl21748   3.511   7.424  13.321 -0.0901 -0.1536  0.2889
  923MOL0     C21749   3.682   7.992  12.314 -0.2777  0.5256  0.2299
  923MOL0     C21750   3.612   8.083  12.225  0.1810 -0.3541 -0.0230
  923MOL0     O21751   3.246   8.056  12.049 -0.5177 -0.2569  0.2820
  923MOL0     C21752   3.385   8.366  11.925  0.1212 -0.4181  0.8054
  923MOL0     C21753   3.370   8.458  11.819  0.0063  0.3239 -0.0248
  923MOL0     N21754   3.510   8.296  11.189 -0.0523  0.6267  0.0315
  923MOL0     N21755   3.507   8.244  11.073  0.2171 -0.0836 -0.4119
  923MOL0     C21756   4.340   9.059  10.865  0.8243 -0.3139  0.2111
  923MOL0     C21757   4.455   9.115  10.913 -0.4503 -0.7876  0.8317
  923MOL0     C21758   4.843   9.254  11.105  1.3394  0.3861  0.0585
  923MOL0     C21759   4.880   9.390  11.111  0.0183  0.2119  0.1041
  923MOL0     C21760   5.003   9.433  11.153 -0.3234 -0.4085 -0.0040
  923MOL0     C21761   5.089   9.340  11.205 -0.0346  0.7593 -0.1035
  923MOL0     O21762   5.202   9.390  11.257 -0.8202  0.0038  0.7086
  923MOL0     C21763   5.312   9.313  11.294  0.4113  0.3332 -0.0106
  923MOL0     C21764   5.434   9.403  11.283 -0.0625 -0.1471 -0.7423
  923MOL0     C21765   5.435   9.534  11.366 -0.4963  0.4876 -0.0255
  923MOL0     C21766   5.554   9.625  11.332 -0.0739  0.5799 -0.5371
  923MOL0     C21767   5.674   9.579  11.404  0.0850 -0.4801 -0.7322
  923MOL0     C21768   5.768   9.546  11.476  0.0259  0.1105 -0.1847
  923MOL0     C21769   5.061   9.196  11.203  0.1079 -0.4435  0.0452
  923MOL0     C21770   4.940   9.154  11.145 -0.5116 -0.6572  0.3857
  923MOL0     H21771   4.596   8.844  11.043  0.8797  0.7695 -0.3943
  923MOL0     H21772   4.399   8.744  10.974  0.9069 -1.1020 -3.4577
  923MOL0     H21773   4.140   8.730  10.953 -2.1238  0.4147 -0.4523
  923MOL0     H21774   4.222   8.675  10.802  1.6184  2.0755  0.3259
  923MOL0     H21775   4.037   8.694  10.676 -1.7074  0.3927  0.3358
  923MOL0     H21776   3.950   8.800  10.806  0.2901  0.8869 -0.9060
  923MOL0     H21777   3.945   8.591  10.950  3.0789  1.2632  1.3254
  923MOL0     H21778   4.032   8.503  10.827  2.1632  1.0610 -2.1117
  923MOL0     H21779   3.761   8.618  10.751 -1.0496 -0.0565  1.4329
  923MOL0     H21780   3.873   8.520  10.655 -2.1584  0.2957 -1.3458
  923MOL0     H21781   3.714   8.456  10.911  0.3395  1.3129  0.3378
  923MOL0     H21782   3.848   8.349  10.854  0.5706  0.8768  0.1273
  923MOL0     H21783   3.667   8.246  10.766  0.8867 -0.1497  0.2648
  923MOL0     H21784   3.709   8.369  10.635  0.2807  0.7099  1.0056
  923MOL0     H21785   3.535   8.514  10.799 -0.1978 -0.4071  0.2822
  923MOL0     H21786   3.486   8.431  10.663  2.4729  1.6364 -0.5434
  923MOL0     H21787   3.466   8.205  10.811  1.6372 -0.1984  0.1881
  923MOL0     H21788   3.327   8.333  10.813 -0.2984  0.2944 -1.2497
  923MOL0     H21789   3.367   8.540  11.013 -2.0141 -0.7246 -0.9192
  923MOL0     H21790   3.292   8.463  11.315  0.1943 -0.3330 -0.5658
  923MOL0     H21791   3.391   8.600  11.266  2.1411 -0.9377 -2.7438
  923MOL0     H21792   3.572   8.430  11.397  0.0417 -2.0135  3.0050
  923MOL0     H21793   3.433   8.369  11.459  0.8565 -0.4068  0.8074
  923MOL0     H21794   3.543   8.540  11.600  0.1468 -0.0639 -0.1752
  923MOL0     H21795   3.511   8.656  11.477 -2.6137 -0.0213 -1.7307
  923MOL0     H21796   3.292   8.672  11.489 -0.7059  2.3133  1.2668
  923MOL0     H21797   3.336   8.680  11.658  2.2509  0.1696  0.3330
  923MOL0     H21798   3.099   8.321  11.683  0.3490  0.6856 -1.0615
  923MOL0     H21799   3.133   8.156  11.829 -1.0320  1.3729 -1.9010
  923MOL0     H21800   3.429   7.860  12.046  0.7627 -1.0769 -0.3192
  923MOL0     H21801   3.531   7.703  12.200 -1.1432  0.1967 -0.5943
  923MOL0     H21802   3.859   7.848  12.462 -1.1939  0.1292 -1.5969
  923MOL0     H21803   3.853   7.671  12.490 -1.0082  0.0378 -0.7753
  923MOL0     H21804   3.644   7.855  12.588 -2.7671 -4.0022 -0.8484
  923MOL0     H21805   3.777   7.813  12.696 -0.2081  0.1143  0.3495
  923MOL0     H21806   3.742   7.565  12.644  0.7391  1.0339 -0.2153
  923MOL0     H21807   3.586   7.614  12.574  2.9200 -0.3076 -2.4219
  923MOL0     H21808   3.699   7.622  12.856 -1.4806 -3.0779  1.2458
  923MOL0     H21809   3.537   7.695  12.805 -2.4187 -1.8339 -1.4588
  923MOL0     H21810   3.645   7.411  12.843  0.2426 -0.1298 -1.1787
  923MOL0     H21811   3.517   7.436  12.724 -1.6482  1.3365 -0.0906
  923MOL0     H21812   3.387   7.395  12.925  0.0848 -0.7035  2.8580
  923MOL0     H21813   3.389   7.560  12.925 -1.6175 -0.6055 -0.4010
  923MOL0     H21814   3.548   7.363  13.078 -1.0480 -0.0640  2.0128
  923MOL0     H21815   3.619   7.526  13.070 -1.0316  1.2941 -1.1998
  923MOL0     H21816   3.330   7.478  13.166  0.6858 -5.8278  0.7559
  923MOL0     H21817   3.444   7.621  13.194 -0.2054  0.9030 -0.3598
  923MOL0     H21818   3.751   8.039  12.384  0.1921 -0.0489  0.1513
  923MOL0     H21819   3.626   8.190  12.224  1.6996 -0.5166 -1.9673
  923MOL0     H21820   3.469   8.383  11.992 -1.0662  2.8312  1.6173
  923MOL0     H21821   3.440   8.539  11.800 -1.5346  1.8553  0.5751
  923MOL0     H21822   4.279   9.117  10.796  2.1835 -0.4346 -1.1495
  923MOL0     H21823   4.476   9.218  10.885 -0.2927 -0.3886  2.3560
  923MOL0     H21824   4.811   9.458  11.062  0.4360 -1.5186 -3.1667
  923MOL0     H21825   5.019   9.541  11.158 -2.0755 -0.1714  3.2287
  923MOL0     H21826   5.336   9.226  11.232  2.9524  1.8619 -1.3127
  923MOL0     H21827   5.295   9.292  11.400  0.5911  0.8466  0.1215
  923MOL0     H21828   5.527   9.348  11.300  0.4399  0.1486 -2.3158
  923MOL0     H21829   5.422   9.430  11.177 -1.0373 -0.7629 -0.8038
  923MOL0     H21830   5.442   9.505  11.471  1.3575  2.1130  0.3687
  923MOL0     H21831   5.346   9.595  11.346 -1.6499 -1.5422 -1.4166
  923MOL0     H21832   5.567   9.618  11.224 -3.1342  0.6924 -0.9945
  923MOL0     H21833   5.533   9.730  11.353 -1.6160 -0.1291  1.9313
  923MOL0     H21834   5.856   9.532  11.535  0.2114  0.0740 -0.4676
  923MOL0     H21835   5.125   9.128  11.258 -3.3292 -1.8549  2.6382
  923MOL0     H21836   4.925   9.047  11.142 -0.0446 -0.7086 -0.2574
  924MOL0     O21837   5.663   0.959   9.952  0.2705 -0.5093  0.4476
  924MOL0     C21838   5.663   0.991   9.832  0.0688  0.5354  0.4652
  924MOL0     O21839   5.556   0.956   9.743  0.3173  0.1655 -0.2798
  924MOL0     C21840   5.463   0.863   9.789 -0.2025 -0.3895  0.1835
  924MOL0     C21841   5.337   0.923   9.808 -0.0529 -0.1021 -1.3586
  924MOL0     C21842   5.238   0.840   9.857 -0.1149  0.1895 -0.1439
  924MOL0     C21843   5.266   0.704   9.885 -0.0762 -0.2065 -0.0313
  924MOL0     O21844   5.162   0.631   9.937 -0.3352 -0.3302 -0.1794
  924MOL0     C21845   5.162   0.507   9.879 -0.7019 -0.4601 -0.5286
  924MOL0     C21846   5.020   0.446   9.898 -1.0353  0.5175  0.1365
  924MOL0     C21847   4.912   0.526   9.828 -0.5829  1.2687  0.2408
  924MOL0     C21848   4.769   0.452   9.822 -0.1225 -0.2228 -0.1352
  924MOL0     C21849   4.665   0.560   9.783  0.1866  0.2890 -0.3937
  924MOL0     C21850   4.536   0.485   9.749  0.6324 -1.3860 -0.1536
  924MOL0     C21851   4.422   0.597   9.724  1.7777  0.2376 -0.3517
  924MOL0     C21852   4.280   0.537   9.682  0.0163  0.8971  1.1004
  924MOL0     N21853   4.170   0.636   9.667 -0.0218 -0.3540  0.5871
  924MOL0     C21854   4.131   0.686   9.546  0.8306  0.5813  0.3462
  924MOL0     C21855   4.025   0.771   9.569 -0.7058 -0.0599 -1.4400
  924MOL0     C21856   3.969   0.851   9.455  0.2587  0.8044 -0.6080
  924MOL0     C21857   3.828   0.882   9.481  0.8438 -0.0615  0.3293
  924MOL0     C21858   3.774   0.991   9.393 -0.1289  0.3328  0.1598
  924MOL0     C21859   3.656   1.077   9.440  0.1507 -0.3091  0.1445
  924MOL0     O21860   3.611   1.191   9.359  0.1250  0.2500 -0.0800
  924MOL0     C21861   3.483   1.234   9.381  1.2841 -0.4998 -0.6528
  924MOL0     C21862   3.383   1.211   9.287  0.3510  0.7402  0.4353
  924MOL0     C21863   3.249   1.242   9.303  0.0427 -0.4902  0.1673
  924MOL0     C21864   3.199   1.283   9.433  0.9191 -0.0396 -1.0185
  924MOL0     C21865   3.054   1.314   9.463 -0.5304 -0.0991  0.4105
  924MOL0     O21866   2.955   1.290   9.366 -0.5225 -0.4154 -0.0191
  924MOL0     C21867   2.830   1.343   9.372 -0.2786  0.3428  0.0635
  924MOL0     C21868   2.738   1.281   9.287  0.0404 -1.4190 -1.1012
  924MOL0     C21869   2.599   1.316   9.294 -0.3822  0.7691  0.2632
  924MOL0     C21870   2.555   1.411   9.384  0.3457 -0.6582 -0.8200
  924MOL0     O21871   2.421   1.435   9.362 -0.7626  0.2984  0.7245
  924MOL0     C21872   2.382   1.571   9.380 -0.7218 -0.1738 -0.1003
  924MOL0     C21873   2.262   1.602   9.287  0.6147  0.1285 -0.6873
  924MOL0     C21874   2.299   1.578   9.143 -0.2479 -0.0244 -0.1849
  924MOL0     C21875   2.181   1.613   9.053  0.2834 -0.1908  0.3626
  924MOL0     C21876   2.184   1.559   8.915  0.5047  0.3613  0.4405
  924MOL0     C21877   2.283   1.625   8.817 -0.6117  0.4631 -0.3625
  924MOL0     C21878   2.414   1.541   8.793  0.4819 -0.4063  0.3768
  924MOL0     C21879   2.407   1.398   8.738  0.7128 -0.6731 -0.0041
  924MOL0    Cl21880   2.316   1.438   8.583 -0.1835  0.0076 -0.0984
  924MOL0     C21881   2.647   1.475   9.472  0.8456 -0.0413 -0.0597
  924MOL0     C21882   2.776   1.444   9.460 -0.2991  0.7169  0.2464
  924MOL0     O21883   3.032   1.362   9.571  0.0003  0.5672 -0.6236
  924MOL0     C21884   3.300   1.303   9.535 -0.1814 -0.1728  0.0689
  924MOL0     C21885   3.432   1.279   9.509  0.3881  0.5518  0.8763
  924MOL0     N21886   4.015   0.776   9.706  0.0657 -0.1046 -0.5184
  924MOL0     N21887   4.102   0.701   9.766  0.0805 -0.8505 -0.1469
  924MOL0     C21888   5.397   0.653   9.874  0.3765 -0.1870  0.0290
  924MOL0     C21889   5.500   0.732   9.824 -0.1896  0.0850 -0.1238
  924MOL0     C21890   5.774   1.074   9.778  1.2968  0.8481 -0.3552
  924MOL0     C21891   5.743   1.129   9.646  0.3346 -0.0386 -0.5603
  924MOL0     C21892   5.853   1.184   9.584  0.1508  0.8119 -0.3730
  924MOL0     C21893   5.978   1.206   9.645 -0.2263 -0.4822 -0.1270
  924MOL0     O21894   6.082   1.282   9.588 -0.5078  0.6614 -0.1838
  924MOL0     C21895   6.085   1.307   9.449 -0.1406 -0.3869 -0.5586
  924MOL0     C21896   6.216   1.389   9.426 -0.0848 -0.4636  0.4663
  924MOL0     C21897   6.222   1.412   9.274  0.4579  1.1416  0.1699
  924MOL0     C21898   6.177   1.547   9.217  0.1577 -0.2957 -0.2797
  924MOL0     C21899   6.030   1.569   9.226 -0.7647 -0.0753  0.3252
  924MOL0     C21900   5.918   1.615   9.224  0.0727 -1.0850 -0.2740
  924MOL0     C21901   5.992   1.172   9.780 -0.0879 -0.6308  0.8989
  924MOL0     C21902   5.891   1.104   9.847  1.1108  0.7972 -0.5080
  924MOL0     H21903   5.316   1.025   9.777  1.4780 -0.5985 -4.4091
  924MOL0     H21904   5.139   0.880   9.876 -0.6436  0.4313 -3.0183
  924MOL0     H21905   5.239   0.442   9.922  0.8305  0.8106 -1.2230
  924MOL0     H21906   5.189   0.517   9.774 -1.9984 -2.0009 -1.0445
  924MOL0     H21907   5.003   0.440  10.006  0.2269  2.5948  0.4982
  924MOL0     H21908   5.026   0.344   9.858  2.4299  0.5975  0.1930
  924MOL0     H21909   4.947   0.537   9.725  1.5554  1.7798  0.9729
  924MOL0     H21910   4.905   0.626   9.873 -0.5370  1.7403 -0.7801
  924MOL0     H21911   4.781   0.379   9.741  5.0799 -0.3009  0.3546
  924MOL0     H21912   4.739   0.397   9.912 -2.7902  1.1980 -0.0749
  924MOL0     H21913   4.688   0.613   9.691 -2.7019  0.5769 -1.0679
  924MOL0     H21914   4.647   0.623   9.871  0.0274  0.9287 -0.8804
  924MOL0     H21915   4.520   0.422   9.837  3.2433 -0.8636  0.7980
  924MOL0     H21916   4.558   0.420   9.663  1.5858 -0.1098 -0.9075
  924MOL0     H21917   4.406   0.651   9.817 -0.5600  0.9348 -1.0984
  924MOL0     H21918   4.460   0.667   9.649  4.7329 -2.2402 -1.3842
  924MOL0     H21919   4.258   0.462   9.759 -1.0625 -1.7064 -1.5033
  924MOL0     H21920   4.287   0.478   9.590  0.0745  0.5114  1.3500
  924MOL0     H21921   4.176   0.666   9.449 -3.2374  0.1771 -1.7115
  924MOL0     H21922   3.982   0.791   9.364 -0.9519 -1.9712  0.9344
  924MOL0     H21923   4.026   0.944   9.449 -1.1065  1.6528 -0.6049
  924MOL0     H21924   3.823   0.928   9.580 -0.6479 -0.0589  0.2747
  924MOL0     H21925   3.763   0.794   9.480  0.3476  0.2828  1.1465
  924MOL0     H21926   3.859   1.060   9.388  1.5438 -1.4470  2.3007
  924MOL0     H21927   3.749   0.958   9.292  0.6465 -0.5238  0.2426
  924MOL0     H21928   3.693   1.115   9.536 -0.8193 -2.3799  1.4051
  924MOL0     H21929   3.571   1.009   9.453 -0.0549 -0.5745 -2.1839
  924MOL0     H21930   3.399   1.168   9.189 -3.5793  3.9432 -1.9396
  924MOL0     H21931   3.174   1.219   9.229 -0.5925  2.1444 -0.0929
  924MOL0     H21932   2.772   1.206   9.216  3.1415 -0.8410 -0.3847
  924MOL0     H21933   2.526   1.272   9.228 -0.0063 -2.0451  1.6049
  924MOL0     H21934   2.457   1.646   9.351 -0.6937 -0.2642 -0.2629
  924MOL0     H21935   2.358   1.601   9.482 -1.4402  1.2328 -0.6420
  924MOL0     H21936   2.230   1.706   9.291 -2.6639 -0.7987  1.7379
  924MOL0     H21937   2.173   1.540   9.301  1.4248 -0.8491  0.4018
  924MOL0     H21938   2.325   1.472   9.130 -1.7613 -0.4416  0.0622
  924MOL0     H21939   2.380   1.644   9.110 -0.5682 -0.2674 -1.5407
  924MOL0     H21940   2.082   1.589   9.094  0.8715 -0.2454  1.7954
  924MOL0     H21941   2.188   1.721   9.039  1.9037 -0.3102  0.0393
  924MOL0     H21942   2.086   1.574   8.868  1.1748 -0.1250 -1.1463
  924MOL0     H21943   2.213   1.454   8.925 -2.1648 -0.7440 -1.8082
  924MOL0     H21944   2.305   1.730   8.838 -0.2473  0.3309 -0.0728
  924MOL0     H21945   2.235   1.633   8.719  1.8868  1.4789 -1.5941
  924MOL0     H21946   2.482   1.591   8.722 -2.0652  2.7051 -0.1364
  924MOL0     H21947   2.457   1.541   8.893 -3.4340  0.1843  2.2464
  924MOL0     H21948   2.349   1.332   8.803  2.3296 -2.2338 -0.0827
  924MOL0     H21949   2.505   1.358   8.711  2.0730  1.3091  1.6753
  924MOL0     H21950   2.621   1.549   9.546  0.5092  0.4918 -0.7036
  924MOL0     H21951   2.840   1.486   9.537  0.9417 -0.4701 -0.0970
  924MOL0     H21952   3.287   1.332   9.639  0.6291 -1.6436  0.6166
  924MOL0     H21953   3.515   1.278   9.578  3.0911 -0.6619 -2.1338
  924MOL0     H21954   5.430   0.562   9.923  1.2703 -0.7958 -1.6258
  924MOL0     H21955   5.605   0.707   9.816 -0.7204 -2.1614 -0.9414
  924MOL0     H21956   5.645   1.125   9.599  0.5830 -0.2073 -1.0595
  924MOL0     H21957   5.828   1.235   9.492  0.8773  1.4611 -0.2263
  924MOL0     H21958   5.997   1.363   9.418  0.4780  3.9822  4.1594
  924MOL0     H21959   6.091   1.215   9.390  1.6181 -0.8025  0.1805
  924MOL0     H21960   6.211   1.486   9.476  1.8107  0.0421 -0.2362
  924MOL0     H21961   6.302   1.333   9.464 -0.5762 -0.1619  2.0960
  924MOL0     H21962   6.169   1.328   9.228  0.9345 -0.3647  2.2629
  924MOL0     H21963   6.328   1.395   9.251  1.0833 -0.3604  3.5628
  924MOL0     H21964   6.241   1.628   9.253 -0.1361  0.3380 -1.1465
  924MOL0     H21965   6.195   1.543   9.109 -2.0319 -0.2669 -0.6886
  924MOL0     H21966   5.827   1.670   9.232 -0.3073 -1.9864  2.5633
  924MOL0     H21967   6.084   1.195   9.833 -1.2861  1.0498  2.3810
  924MOL0     H21968   5.892   1.076   9.952  1.5952 -1.9719 -1.1782
  925MOL0     O21969   1.760   1.960   2.568 -0.0962 -0.4064 -0.0770
  925MOL0     C21970   1.758   2.064   2.500 -0.1627  0.4675 -0.2141
  925MOL0     O21971   1.646   2.114   2.448  0.4734  0.7613  0.5947
  925MOL0     C21972   1.518   2.056   2.472 -0.4691  0.8385 -0.6806
  925MOL0     C21973   1.448   2.036   2.594 -0.3223 -0.4512 -0.4809
  925MOL0     C21974   1.314   1.990   2.596  0.2139  0.4158  0.5286
  925MOL0     C21975   1.254   1.968   2.469  0.1963 -0.2162 -0.0939
  925MOL0     O21976   1.123   1.937   2.471  0.1895 -0.3918  0.3297
  925MOL0     C21977   1.057   1.857   2.374 -0.4507 -0.6311 -0.2635
  925MOL0     C21978   0.909   1.852   2.426  0.0077  0.2144  0.1579
  925MOL0     C21979   0.791   1.809   2.326 -1.4784  0.1082  0.1605
  925MOL0     C21980   0.835   1.680   2.251  0.2109 -0.1286 -0.8549
  925MOL0     C21981   0.759   1.668   2.113 -0.2327 -0.3912  0.6355
  925MOL0     C21982   0.605   1.648   2.132 -0.5957  0.2259  0.6170
  925MOL0     C21983   0.530   1.607   2.002  0.9707  0.3857  0.0785
  925MOL0     C21984   0.376   1.623   2.016 -0.5009  0.4080  0.6628
  925MOL0     N21985   0.318   1.622   1.880  0.1521 -0.4504 -0.3519
  925MOL0     C21986   0.350   1.535   1.770  0.0845 -0.7991  0.4945
  925MOL0     C21987   0.247   1.559   1.677  1.3747  0.3594 -0.0567
  925MOL0     C21988   0.228   1.494   1.541  0.3869  0.2285  0.7100
  925MOL0     C21989   0.349   1.445   1.484  0.1629 -0.3523  0.3336
  925MOL0     C21990   0.435   1.579   1.443  0.7378  0.8642  0.0233
  925MOL0     C21991   0.580   1.565   1.458  0.6678  0.5586  0.0124
  925MOL0     O21992   0.620   1.516   1.591  0.2603 -0.2339  0.6686
  925MOL0     C21993   0.742   1.546   1.648 -0.1319  0.3144  0.5576
  925MOL0     C21994   0.833   1.644   1.601  0.3472 -0.0574 -0.3886
  925MOL0     C21995   0.951   1.672   1.662  0.2441  0.5788  0.9190
  925MOL0     C21996   0.986   1.607   1.776 -0.1953  0.4062  0.2603
  925MOL0     C21997   1.110   1.638   1.841  0.0210  0.3547  0.1216
  925MOL0     O21998   1.130   1.590   1.971  0.0371 -0.0069 -0.6407
  925MOL0     C21999   1.253   1.617   2.035  0.5147  0.0903  0.4876
  925MOL0     C22000   1.342   1.514   2.030 -0.7932 -0.6494  0.7257
  925MOL0     C22001   1.469   1.519   2.096  1.3253  0.7339 -0.1809
  925MOL0     C22002   1.516   1.641   2.154 -0.2715 -0.4681 -0.0617
  925MOL0     O22003   1.640   1.646   2.200 -0.9643 -0.1936  0.1564
  925MOL0     C22004   1.694   1.774   2.236 -0.9914  0.4801  0.0194
  925MOL0     C22005   1.838   1.746   2.281  0.2714 -0.5254 -0.7860
  925MOL0     C22006   1.930   1.712   2.168 -0.5166 -0.2115 -0.4332
  925MOL0     C22007   2.076   1.760   2.170  0.2747 -0.0924  0.5389
  925MOL0     C22008   2.167   1.676   2.251 -0.9527 -0.4214 -0.6128
  925MOL0     C22009   2.297   1.759   2.264 -0.0809 -0.0932 -0.2996
  925MOL0     C22010   2.408   1.681   2.333 -0.5835  0.3740  0.1670
  925MOL0     C22011   2.471   1.578   2.236  0.3155 -0.5110  0.3738
  925MOL0    Cl22012   2.550   1.655   2.099  0.2520  0.1329  0.0785
  925MOL0     C22013   1.427   1.754   2.142 -0.5836  1.0878  1.1841
  925MOL0     C22014   1.305   1.740   2.079  1.1516  0.6019 -0.3764
  925MOL0     O22015   1.187   1.708   1.774 -0.1027 -0.2543 -0.3172
  925MOL0     C22016   0.904   1.496   1.822  0.1089  0.1017 -0.3359
  925MOL0     C22017   0.783   1.464   1.757  0.6375  0.1575  0.5026
  925MOL0     N22018   0.167   1.655   1.737 -0.3505  0.2945 -0.6792
  925MOL0     N22019   0.202   1.690   1.855 -1.9341 -0.6267  0.3397
  925MOL0     C22020   1.320   1.991   2.349 -0.2739 -0.2874 -0.6225
  925MOL0     C22021   1.451   2.038   2.354 -0.3797 -0.5800  0.0256
  925MOL0     C22022   1.875   2.126   2.473 -0.0613  0.1092  0.6709
  925MOL0     C22023   1.894   2.251   2.409 -0.1170 -0.2377  0.0601
  925MOL0     C22024   2.023   2.311   2.410 -0.5148 -1.0526  0.1720
  925MOL0     C22025   2.130   2.247   2.471 -0.1293 -0.0775  0.4629
  925MOL0     O22026   2.257   2.298   2.477  0.2043 -0.8616  0.2586
  925MOL0     C22027   2.268   2.440   2.444  0.1741 -0.4290 -0.6213
  925MOL0     C22028   2.410   2.482   2.490 -0.7365 -0.6523 -0.0899
  925MOL0     C22029   2.515   2.390   2.440 -0.0706  0.9908  0.3523
  925MOL0     C22030   2.658   2.456   2.437 -0.2116  0.0365 -0.1970
  925MOL0     C22031   2.709   2.510   2.565 -0.0760  0.7663 -0.1658
  925MOL0     C22032   2.733   2.555   2.674  0.9667  0.6960 -0.1569
  925MOL0     C22033   2.110   2.118   2.516 -0.9305 -0.6575 -0.4393
  925MOL0     C22034   1.992   2.064   2.526 -0.6741  0.2087 -0.0875
  925MOL0     H22035   1.499   2.051   2.689  1.1925  1.3766 -1.5132
  925MOL0     H22036   1.263   1.970   2.689  0.0926 -1.7243  0.0569
  925MOL0     H22037   1.110   1.762   2.364 -3.2631 -2.3031 -0.2251
  925MOL0     H22038   1.048   1.922   2.286  0.3088  1.2865  1.0019
  925MOL0     H22039   0.881   1.954   2.456  0.5564  0.1108  1.0656
  925MOL0     H22040   0.916   1.789   2.515  2.2474  0.7858  0.4677
  925MOL0     H22041   0.775   1.885   2.249  0.4736  0.1907 -0.2005
  925MOL0     H22042   0.689   1.811   2.367 -2.1482 -1.8800 -1.2296
  925MOL0     H22043   0.943   1.667   2.244  0.0830 -2.8726  0.5936
  925MOL0     H22044   0.788   1.594   2.300 -0.4001  0.6620 -0.0139
  925MOL0     H22045   0.812   1.597   2.049  0.2873  2.4022 -2.3322
  925MOL0     H22046   0.779   1.761   2.058  3.5725 -0.9062  0.8540
  925MOL0     H22047   0.577   1.744   2.177  1.5951  0.4574  1.6549
  925MOL0     H22048   0.580   1.563   2.196  0.3251 -0.4088  0.1448
  925MOL0     H22049   0.565   1.655   1.910  1.0164 -0.2475 -0.2421
  925MOL0     H22050   0.548   1.500   1.985  1.7200  0.0576  2.6009
  925MOL0     H22051   0.358   1.722   2.059 -1.6101  0.7446 -0.5211
  925MOL0     H22052   0.320   1.560   2.086 -0.9470 -2.7401 -2.2525
  925MOL0     H22053   0.431   1.463   1.758 -0.9979 -1.8796 -0.5433
  925MOL0     H22054   0.176   1.559   1.471  0.3940 -0.2269  0.2758
  925MOL0     H22055   0.160   1.409   1.551  1.5665 -0.9156 -0.5118
  925MOL0     H22056   0.329   1.389   1.392 -1.1811  0.4034  0.1394
  925MOL0     H22057   0.413   1.385   1.549  1.5111 -0.8934 -1.4233
  925MOL0     H22058   0.418   1.598   1.337  0.4392 -0.9865 -0.2930
  925MOL0     H22059   0.400   1.662   1.505  0.7244  0.8231  0.0717
  925MOL0     H22060   0.626   1.662   1.435  0.3837  0.7217  0.1298
  925MOL0     H22061   0.609   1.492   1.381 -4.7420 -0.9103 -1.0263
  925MOL0     H22062   0.791   1.706   1.523 -1.4637  0.1863  0.7250
  925MOL0     H22063   1.023   1.737   1.615 -0.6994 -0.6234 -2.4574
  925MOL0     H22064   1.303   1.428   1.976  1.0322 -0.8086 -0.4162
  925MOL0     H22065   1.549   1.445   2.097  2.2038  1.6377 -1.2372
  925MOL0     H22066   1.643   1.803   2.328 -0.4384 -0.9223  0.7937
  925MOL0     H22067   1.691   1.857   2.165 -1.4002  0.6591  0.2424
  925MOL0     H22068   1.828   1.671   2.360 -3.3790 -1.0886 -1.6064
  925MOL0     H22069   1.869   1.843   2.321  2.8369 -0.6676 -2.2144
  925MOL0     H22070   1.888   1.768   2.085  0.3807  2.0204  0.5536
  925MOL0     H22071   1.923   1.602   2.167 -0.5987 -0.4548  4.0640
  925MOL0     H22072   2.106   1.761   2.065 -2.3133  0.5407 -0.2820
  925MOL0     H22073   2.075   1.863   2.206  0.6676 -0.2968  1.1349
  925MOL0     H22074   2.190   1.587   2.192  1.3401  1.4806 -2.8510
  925MOL0     H22075   2.126   1.663   2.351 -1.2797 -3.0392 -1.0234
  925MOL0     H22076   2.280   1.849   2.324  0.1335 -0.4199  0.2579
  925MOL0     H22077   2.329   1.810   2.172 -0.5825  3.8223  1.4987
  925MOL0     H22078   2.492   1.744   2.363  0.3138 -0.4375 -0.5437
  925MOL0     H22079   2.358   1.629   2.415  1.4673 -0.9025  0.6864
  925MOL0     H22080   2.401   1.511   2.185  1.6078 -1.2506 -0.4948
  925MOL0     H22081   2.525   1.511   2.304 -1.1089 -0.3937  1.6750
  925MOL0     H22082   1.463   1.852   2.174  0.0890  0.8031  1.3211
  925MOL0     H22083   1.242   1.828   2.082  0.1683 -0.0193 -1.6772
  925MOL0     H22084   0.937   1.428   1.900 -0.0752 -0.1772 -0.5020
  925MOL0     H22085   0.726   1.382   1.797  2.2363 -0.4662  1.5824
  925MOL0     H22086   1.265   1.979   2.256 -0.8076 -0.4073 -0.2933
  925MOL0     H22087   1.496   2.065   2.259  0.0663 -0.6531  0.2122
  925MOL0     H22088   1.811   2.312   2.377  0.9674  2.0868  1.4046
  925MOL0     H22089   2.036   2.411   2.369  1.1737 -1.9298 -1.5854
  925MOL0     H22090   2.187   2.495   2.492  0.8322 -1.5142  1.9356
  925MOL0     H22091   2.251   2.456   2.337 -3.7561  1.7028  0.1430
  925MOL0     H22092   2.433   2.583   2.455 -0.1569 -0.1522  1.6528
  925MOL0     H22093   2.418   2.497   2.598 -1.6875  1.8561 -0.3018
  925MOL0     H22094   2.485   2.345   2.345  0.2073  1.1828  0.1757
  925MOL0     H22095   2.519   2.300   2.504 -0.3535  0.2940 -0.5888
  925MOL0     H22096   2.736   2.386   2.405  1.6316  2.1064 -0.4640
  925MOL0     H22097   2.669   2.537   2.364  0.6731  0.3538  0.2791
  925MOL0     H22098   2.753   2.582   2.776  1.8668 -0.6232  0.0477
  925MOL0     H22099   2.195   2.067   2.560 -0.1611  0.7193 -0.2941
  925MOL0     H22100   1.987   1.968   2.576  2.1941  0.6907  1.3265
  926MOL0     O22101   1.324   2.895   4.032 -0.3637  0.8932 -0.2206
  926MOL0     C22102   1.242   2.861   4.113  0.5022  0.3277 -0.8923
  926MOL0     O22103   1.177   2.738   4.128  0.0801  0.0053 -0.5276
  926MOL0     C22104   1.231   2.631   4.061 -1.0652  0.4770 -0.3873
  926MOL0     C22105   1.246   2.515   4.139  1.1106 -0.5792  0.2998
  926MOL0     C22106   1.303   2.400   4.089  0.3875  0.1475  0.4994
  926MOL0     C22107   1.327   2.392   3.954 -0.7665 -0.0974 -1.0036
  926MOL0     O22108   1.367   2.269   3.909 -0.2171 -0.1091 -0.6865
  926MOL0     C22109   1.371   2.252   3.762 -0.4860  0.1484 -0.6293
  926MOL0     C22110   1.400   2.107   3.730 -0.3272 -0.4158 -0.0398
  926MOL0     C22111   1.550   2.077   3.759 -0.2669  0.0633  0.1188
  926MOL0     C22112   1.596   1.941   3.706 -0.5976 -0.0513  0.2703
  926MOL0     C22113   1.739   1.905   3.736 -0.2487  0.0550 -0.2555
  926MOL0     C22114   1.776   1.776   3.667 -0.3413 -0.5034 -0.5300
  926MOL0     C22115   1.917   1.723   3.709 -0.1905 -0.5214 -0.2013
  926MOL0     C22116   2.025   1.791   3.622 -0.1887  0.3548 -0.0157
  926MOL0     N22117   2.154   1.724   3.622  0.3256 -0.9274 -0.4069
  926MOL0     C22118   2.279   1.770   3.611 -0.0702 -0.0011  0.4985
  926MOL0     C22119   2.349   1.654   3.622 -0.8085  0.9000  0.5971
  926MOL0     C22120   2.499   1.659   3.630 -0.4429 -0.1723 -0.4103
  926MOL0     C22121   2.530   1.673   3.787 -0.3101 -0.4388  0.3458
  926MOL0     C22122   2.672   1.707   3.826 -0.8156  0.4857  0.1541
  926MOL0     C22123   2.787   1.621   3.769 -0.0666  0.0596 -0.3942
  926MOL0     O22124   2.918   1.677   3.816  1.0206 -0.2332 -0.3706
  926MOL0     C22125   3.034   1.616   3.790 -0.3006 -0.0850  0.5479
  926MOL0     C22126   3.144   1.699   3.794 -0.2689 -0.1236 -0.4461
  926MOL0     C22127   3.269   1.653   3.750 -0.5997  0.2214 -0.1210
  926MOL0     C22128   3.286   1.526   3.707 -0.3608  0.6210  1.0843
  926MOL0     C22129   3.424   1.475   3.671  0.0513  0.4154 -0.2494
  926MOL0     O22130   3.439   1.337   3.646  0.2274 -0.2973 -0.6241
  926MOL0     C22131   3.563   1.279   3.628  0.1367 -0.3224 -0.6938
  926MOL0     C22132   3.676   1.329   3.556 -0.6503 -0.1527 -0.2428
  926MOL0     C22133   3.793   1.261   3.551 -0.4675  0.3429  0.4006
  926MOL0     C22134   3.807   1.138   3.609 -0.2645 -0.2603 -0.7665
  926MOL0     O22135   3.938   1.087   3.613  0.0685  0.1794 -1.0308
  926MOL0     C22136   3.968   0.965   3.550 -0.0116 -0.9048  0.7533
  926MOL0     C22137   4.098   0.983   3.474  0.3162 -0.0445  0.4424
  926MOL0     C22138   4.210   1.017   3.583 -0.0931 -0.1064 -0.0516
  926MOL0     C22139   4.346   1.037   3.520  0.1622 -0.0251  0.0057
  926MOL0     C22140   4.456   1.040   3.628  0.3495 -0.0211 -0.0907
  926MOL0     C22141   4.591   1.103   3.586 -0.8757  0.4082 -0.7697
  926MOL0     C22142   4.691   1.083   3.702  0.3653  0.4711  0.3832
  926MOL0     C22143   4.838   1.125   3.671 -0.8458  0.4102 -0.4145
  926MOL0    Cl22144   4.869   1.297   3.628  0.1441  0.2007  0.2648
  926MOL0     C22145   3.695   1.084   3.675 -0.8264 -0.6332 -0.1627
  926MOL0     C22146   3.573   1.144   3.678  0.5486 -0.1200  0.5252
  926MOL0     O22147   3.513   1.557   3.675 -0.1429 -0.3399  0.1614
  926MOL0     C22148   3.171   1.450   3.674 -0.2631 -0.5833 -0.8799
  926MOL0     C22149   3.048   1.491   3.731 -0.5911 -0.5555  0.7180
  926MOL0     N22150   2.279   1.545   3.631  1.1337  0.6090 -0.0929
  926MOL0     N22151   2.157   1.585   3.623  0.0162 -0.3025 -1.3342
  926MOL0     C22152   1.324   2.507   3.871  0.5980  0.0235 -0.4170
  926MOL0     C22153   1.269   2.628   3.931 -0.0234 -0.0798 -1.0020
  926MOL0     C22154   1.197   2.967   4.207 -0.3485 -0.2142  0.5460
  926MOL0     C22155   1.170   3.102   4.160  0.1101  0.2656 -0.5739
  926MOL0     C22156   1.128   3.198   4.258  0.2539  0.2969  0.3991
  926MOL0     C22157   1.107   3.165   4.394  0.1668 -0.7104 -0.9037
  926MOL0     O22158   1.055   3.242   4.498 -0.0212 -0.3942  0.2292
  926MOL0     C22159   0.971   3.360   4.469 -0.3287  0.6451 -0.6600
  926MOL0     C22160   0.938   3.448   4.596 -0.3892  0.0370 -0.2726
  926MOL0     C22161   1.062   3.506   4.681 -0.4092  0.3415  0.0670
  926MOL0     C22162   1.160   3.603   4.612  0.0131 -0.2290 -0.1680
  926MOL0     C22163   1.120   3.729   4.548 -0.4721  1.2767  0.0971
  926MOL0     C22164   1.089   3.829   4.497  0.8545  0.1231 -0.7303
  926MOL0     C22165   1.135   3.037   4.428 -0.1255 -0.3549  0.0954
  926MOL0     C22166   1.170   2.941   4.340 -0.0888 -0.5629 -1.0711
  926MOL0     H22167   1.217   2.534   4.242 -0.1398  2.8627 -0.5740
  926MOL0     H22168   1.317   2.322   4.163 -0.0841 -0.2056  0.2215
  926MOL0     H22169   1.448   2.317   3.719 -1.7061  2.0241 -0.0746
  926MOL0     H22170   1.277   2.273   3.710 -0.5205  0.0105 -0.6236
  926MOL0     H22171   1.384   2.068   3.629 -4.1444 -0.9224  0.6109
  926MOL0     H22172   1.336   2.043   3.792 -2.6898  2.7392  0.9897
  926MOL0     H22173   1.566   2.080   3.867 -1.8697  0.2927  0.3672
  926MOL0     H22174   1.598   2.158   3.704 -2.1412 -0.1203 -1.8995
  926MOL0     H22175   1.534   1.859   3.744  0.4605 -0.6502  0.7345
  926MOL0     H22176   1.604   1.945   3.597 -0.2559 -0.7426  0.2625
  926MOL0     H22177   1.750   1.892   3.844 -0.8020  0.4361 -0.1476
  926MOL0     H22178   1.805   1.988   3.709 -0.9451  0.6718 -0.0816
  926MOL0     H22179   1.764   1.777   3.558 -0.2986 -2.6082 -0.5953
  926MOL0     H22180   1.711   1.702   3.713  0.9212  0.2926  2.8032
  926MOL0     H22181   1.934   1.742   3.815 -4.5315 -1.3396  0.8150
  926MOL0     H22182   1.899   1.616   3.695 -0.6573 -0.6031  0.9487
  926MOL0     H22183   2.047   1.897   3.640  0.4798  1.1893 -4.4913
  926MOL0     H22184   1.985   1.783   3.520 -1.6918 -1.6252  0.6579
  926MOL0     H22185   2.322   1.869   3.608 -0.1184  0.0014 -0.6094
  926MOL0     H22186   2.527   1.754   3.582 -0.2422  0.6138  1.1958
  926MOL0     H22187   2.546   1.572   3.584  1.3281  2.2731 -3.7143
  926MOL0     H22188   2.477   1.602   3.852 -2.2936  0.4753 -0.1775
  926MOL0     H22189   2.488   1.770   3.816 -0.3299  0.2174 -1.7103
  926MOL0     H22190   2.698   1.807   3.791 -1.1642 -0.1292 -1.9922
  926MOL0     H22191   2.684   1.699   3.934 -2.4066 -0.3702  0.2973
  926MOL0     H22192   2.788   1.617   3.660  0.9042  0.9045 -0.4265
  926MOL0     H22193   2.780   1.518   3.808 -0.4237  0.5829  0.9800
  926MOL0     H22194   3.118   1.801   3.821 -2.4299 -0.5154 -0.8655
  926MOL0     H22195   3.358   1.714   3.756 -0.5742  0.1251  0.5886
  926MOL0     H22196   3.681   1.432   3.522 -0.7541  0.1386  0.6136
  926MOL0     H22197   3.885   1.300   3.509 -1.2521  3.0843  1.0433
  926MOL0     H22198   3.886   0.940   3.482 -0.4369 -0.2525  1.0088
  926MOL0     H22199   3.980   0.883   3.622  0.5353  0.7273  2.5937
  926MOL0     H22200   4.094   1.076   3.415 -1.6943 -1.3483 -1.6313
  926MOL0     H22201   4.109   0.894   3.412 -1.3442  1.3360 -1.9880
  926MOL0     H22202   4.218   0.931   3.650  1.7185  2.2956  3.0790
  926MOL0     H22203   4.172   1.107   3.631 -2.7947  0.1094 -2.3241
  926MOL0     H22204   4.365   0.954   3.451 -1.6395 -0.2448 -0.2691
  926MOL0     H22205   4.345   1.135   3.471 -0.3195  0.2799  0.6123
  926MOL0     H22206   4.467   0.934   3.654 -0.5466  0.0417  0.5967
  926MOL0     H22207   4.419   1.085   3.720  2.0746  0.6795  0.2984
  926MOL0     H22208   4.578   1.211   3.570 -1.2634  0.0969 -2.6856
  926MOL0     H22209   4.639   1.052   3.502  0.9781 -0.3252  0.6619
  926MOL0     H22210   4.653   1.133   3.792 -1.6111 -0.7097  0.2700
  926MOL0     H22211   4.698   0.978   3.733  3.1194  0.7628  1.0525
  926MOL0     H22212   4.881   1.062   3.593  0.7300  0.0201  0.7207
  926MOL0     H22213   4.895   1.113   3.764  3.5084 -0.8531 -2.9735
  926MOL0     H22214   3.709   0.997   3.739 -3.0859 -0.6648  0.3729
  926MOL0     H22215   3.486   1.110   3.733 -0.0771 -0.4201 -0.6222
  926MOL0     H22216   3.175   1.352   3.629 -1.0651 -2.0801  2.0651
  926MOL0     H22217   2.961   1.439   3.693  1.1579 -1.3566 -2.5705
  926MOL0     H22218   1.347   2.500   3.765 -2.9078  2.2700 -1.5089
  926MOL0     H22219   1.264   2.713   3.864 -1.6537  1.4640  0.9778
  926MOL0     H22220   1.191   3.134   4.058  1.7061 -1.2057 -0.7442
  926MOL0     H22221   1.113   3.303   4.233 -0.5487 -0.4670 -2.6755
  926MOL0     H22222   0.885   3.328   4.409 -1.3124  2.3417 -0.2320
  926MOL0     H22223   1.035   3.419   4.403  2.5124 -2.2677 -0.7865
  926MOL0     H22224   0.871   3.530   4.569 -0.9081 -0.0038  0.8542
  926MOL0     H22225   0.891   3.388   4.674 -1.6141  1.3943  0.0891
  926MOL0     H22226   1.123   3.419   4.710  0.8838  1.4996  0.9275
  926MOL0     H22227   1.019   3.554   4.768 -0.8986  3.3621 -1.7131
  926MOL0     H22228   1.241   3.637   4.677  1.3054  0.4328 -2.0517
  926MOL0     H22229   1.202   3.542   4.532 -2.1245 -0.4427 -1.1975
  926MOL0     H22230   1.069   3.930   4.469  0.5542 -0.4447 -2.7357
  926MOL0     H22231   1.112   3.004   4.529  0.8679 -1.1670  0.0716
  926MOL0     H22232   1.204   2.846   4.381 -0.3058 -0.6259 -1.0396
  927MOL0     O22233   0.401   3.477  10.947  0.7729 -0.3248 -0.3919
  927MOL0     C22234   0.323   3.568  10.920 -0.3985  0.0667  0.4387
  927MOL0     O22235   0.199   3.552  10.859 -0.6709  0.1149  0.1050
  927MOL0     C22236   0.139   3.429  10.852  0.0139  0.4744 -0.3011
  927MOL0     C22237   0.113   3.356  10.964 -0.7184  0.5295 -0.0880
  927MOL0     C22238   0.073   3.224  10.950 -0.4326 -0.7399  0.4967
  927MOL0     C22239   0.066   3.158  10.822 -0.3956 -0.3653  0.4193
  927MOL0     O22240   0.015   3.031  10.793  1.1605 -0.5640  0.3541
  927MOL0     C22241  -0.104   2.992  10.860 -0.2672 -0.0511 -0.3346
  927MOL0     C22242  -0.226   3.067  10.796 -0.1535  0.7663 -0.1909
  927MOL0     C22243  -0.348   3.000  10.843 -0.4110 -0.0631  0.2993
  927MOL0     C22244  -0.468   3.051  10.758 -0.4476 -1.0711 -0.0925
  927MOL0     C22245  -0.597   3.060  10.836  0.9933 -0.4863 -0.5138
  927MOL0     C22246  -0.714   3.148  10.775  0.1059 -0.7166 -0.1241
  927MOL0     C22247  -0.686   3.295  10.817 -0.5479 -0.9656  0.0654
  927MOL0     C22248  -0.717   3.336  10.956  0.3361 -0.6436 -0.4757
  927MOL0     N22249  -0.861   3.337  10.984 -0.5053  0.4326  0.9007
  927MOL0     C22250  -0.956   3.405  10.900  0.0497 -0.3609  0.5454
  927MOL0     C22251  -1.068   3.382  10.977  0.1284 -1.3286  0.0664
  927MOL0     C22252  -1.206   3.428  10.918 -0.1925  0.9308 -0.6689
  927MOL0     C22253  -1.309   3.414  11.038  0.1059 -0.2466 -0.6035
  927MOL0     C22254  -1.328   3.540  11.125  0.0909 -0.8706  0.2021
  927MOL0     C22255  -1.372   3.663  11.051 -0.0555  1.0610 -1.0802
  927MOL0     O22256  -1.481   3.650  10.954  0.2321  0.5344 -0.0921
  927MOL0     C22257  -1.605   3.628  11.013  0.8320  0.1173  0.1859
  927MOL0     C22258  -1.679   3.527  10.947  0.3971  0.1877 -0.5739
  927MOL0     C22259  -1.811   3.515  10.973  1.1711  0.5349  0.0811
  927MOL0     C22260  -1.866   3.574  11.092  0.0353  0.0082  1.4160
  927MOL0     C22261  -2.014   3.559  11.120  0.2585 -0.5767  0.8607
  927MOL0     O22262  -2.064   3.644  11.217 -0.2360 -0.2755  0.4872
  927MOL0     C22263  -2.201   3.631  11.230 -1.0133 -0.5797  0.3996
  927MOL0     C22264  -2.256   3.536  11.310  0.2086  0.1182  0.5680
  927MOL0     C22265  -2.397   3.521  11.316 -0.1765 -0.3285 -0.0670
  927MOL0     C22266  -2.475   3.595  11.231 -0.2608 -0.5346 -0.0040
  927MOL0     O22267  -2.614   3.574  11.250  0.1503 -0.2253 -0.2949
  927MOL0     C22268  -2.708   3.571  11.140 -0.6719 -0.4874  0.2397
  927MOL0     C22269  -2.825   3.657  11.179 -0.3503 -0.2082 -0.2519
  927MOL0     C22270  -2.941   3.563  11.218  0.2310  0.6827 -1.2418
  927MOL0     C22271  -3.001   3.458  11.111 -0.1973 -0.3928  0.2930
  927MOL0     C22272  -3.074   3.342  11.184  0.1456 -0.3135  0.0674
  927MOL0     C22273  -3.144   3.270  11.080 -0.2881 -0.3127  0.9402
  927MOL0     C22274  -3.230   3.157  11.134 -0.8255 -0.5955  0.3768
  927MOL0     C22275  -3.330   3.099  11.030 -1.2198 -0.3878  0.1979
  927MOL0    Cl22276  -3.388   2.929  11.070 -0.2899 -0.1040  0.0071
  927MOL0     C22277  -2.423   3.691  11.146  0.5994  0.9383  0.1322
  927MOL0     C22278  -2.288   3.707  11.144 -0.7825 -0.3882 -0.3992
  927MOL0     O22279  -2.076   3.482  11.048 -0.4410 -0.8844 -0.1141
  927MOL0     C22280  -1.790   3.650  11.172  1.3444 -0.4608 -0.1290
  927MOL0     C22281  -1.665   3.693  11.122  0.8599 -0.4203  0.1546
  927MOL0     N22282  -1.034   3.315  11.101  1.2111 -0.9973  1.0138
  927MOL0     N22283  -0.909   3.293  11.099 -0.5749  0.3985  0.7847
  927MOL0     C22284   0.085   3.235  10.711 -0.4987 -0.5616 -0.3664
  927MOL0     C22285   0.123   3.374  10.725  0.1050 -0.1916 -0.3976
  927MOL0     C22286   0.351   3.711  10.956  0.5343 -0.3604 -0.3037
  927MOL0     C22287   0.252   3.814  10.931 -0.0814  1.0165  0.4869
  927MOL0     C22288   0.278   3.947  10.967 -0.0231 -0.1615 -0.0903
  927MOL0     C22289   0.397   3.976  11.037 -0.0957  0.1134  0.1192
  927MOL0     O22290   0.426   4.100  11.094  0.6387 -0.1654  0.5842
  927MOL0     C22291   0.316   4.182  11.116  0.2286  0.0616 -0.4578
  927MOL0     C22292   0.343   4.287  11.221  0.2725 -1.1812 -0.1944
  927MOL0     C22293   0.388   4.224  11.354  0.4258  0.7526 -1.1183
  927MOL0     C22294   0.283   4.145  11.430 -0.2316 -0.2843  0.2376
  927MOL0     C22295   0.352   4.052  11.514  0.0871  0.4076 -0.4178
  927MOL0     C22296   0.415   4.015  11.611  0.4126  0.0522  0.5637
  927MOL0     C22297   0.485   3.871  11.074 -0.2657  0.0513 -0.3856
  927MOL0     C22298   0.456   3.743  11.040 -0.4734  0.4659 -0.2989
  927MOL0     H22299   0.098   3.407  11.059  1.1660  1.6262 -0.3425
  927MOL0     H22300   0.050   3.160  11.034 -2.1556 -3.0616 -1.6145
  927MOL0     H22301  -0.094   3.015  10.967  0.8241  3.2083 -1.0034
  927MOL0     H22302  -0.116   2.884  10.850 -0.9831 -0.1222  1.0250
  927MOL0     H22303  -0.208   3.063  10.688 -0.1923 -2.6223 -0.1621
  927MOL0     H22304  -0.219   3.173  10.821  4.3978  0.0079  2.8636
  927MOL0     H22305  -0.364   3.035  10.945 -0.1219  0.6158  0.1177
  927MOL0     H22306  -0.345   2.891  10.842  0.9178 -0.0998  2.4434
  927MOL0     H22307  -0.453   3.154  10.721  2.8551 -0.8451  1.5423
  927MOL0     H22308  -0.494   2.985  10.675 -2.1099 -0.6186  0.0314
  927MOL0     H22309  -0.581   3.085  10.941 -2.1714 -2.9849  0.7354
  927MOL0     H22310  -0.641   2.960  10.847 -0.5399  0.2870  0.7402
  927MOL0     H22311  -0.809   3.113  10.817 -0.0976 -0.5750 -0.4627
  927MOL0     H22312  -0.717   3.148  10.666  1.7561 -1.0869 -0.2015
  927MOL0     H22313  -0.584   3.324  10.792  0.9856 -0.3693  5.6479
  927MOL0     H22314  -0.734   3.359  10.742  1.3904 -2.4334 -2.5873
  927MOL0     H22315  -0.682   3.438  10.976 -2.2317  1.0712 -3.5987
  927MOL0     H22316  -0.661   3.270  11.023  0.0607  2.3120  2.9365
  927MOL0     H22317  -0.948   3.450  10.801  1.1890 -2.4909 -0.4016
  927MOL0     H22318  -1.212   3.354  10.838  3.6056  1.5024 -1.7038
  927MOL0     H22319  -1.222   3.527  10.876  0.7144 -0.0667 -3.5929
  927MOL0     H22320  -1.283   3.336  11.111 -1.0059  1.4154  1.7126
  927MOL0     H22321  -1.404   3.389  10.990 -0.5428  1.7727 -0.4839
  927MOL0     H22322  -1.403   3.511  11.199  0.8716 -0.7887  1.0486
  927MOL0     H22323  -1.231   3.564  11.168  0.4546  0.8005 -1.4387
  927MOL0     H22324  -1.286   3.701  10.995  0.1882 -0.7933 -2.0239
  927MOL0     H22325  -1.389   3.740  11.126  0.9650 -0.7132  1.0927
  927MOL0     H22326  -1.637   3.478  10.859 -0.6878  0.5642 -1.3174
  927MOL0     H22327  -1.877   3.474  10.897 -0.3014  0.1497  1.5005
  927MOL0     H22328  -2.198   3.472  11.375  1.3542 -1.8822 -2.2057
  927MOL0     H22329  -2.445   3.441  11.372  1.9885 -2.5383 -1.1968
  927MOL0     H22330  -2.745   3.472  11.114  0.2076 -0.6290 -0.4979
  927MOL0     H22331  -2.659   3.614  11.052  1.4600 -2.1241  0.5544
  927MOL0     H22332  -2.850   3.730  11.101  2.3733  1.0770 -0.0281
  927MOL0     H22333  -2.793   3.716  11.265  2.2817 -1.4100 -0.3026
  927MOL0     H22334  -3.025   3.627  11.248  0.7982  1.5699 -1.5182
  927MOL0     H22335  -2.907   3.516  11.311 -0.1386 -1.2688 -2.0287
  927MOL0     H22336  -3.066   3.520  11.048  1.3598  1.4102  0.3929
  927MOL0     H22337  -2.916   3.422  11.053 -0.3292 -1.1377  0.5528
  927MOL0     H22338  -3.144   3.387  11.255  0.1120  4.5231 -2.6049
  927MOL0     H22339  -2.998   3.278  11.230  2.6312  0.9943 -1.9490
  927MOL0     H22340  -3.064   3.218  11.026  0.4700  1.5762  0.1809
  927MOL0     H22341  -3.197   3.334  11.009 -1.0283 -0.1712  1.5980
  927MOL0     H22342  -3.167   3.073  11.164  0.4921  1.3841  3.6977
  927MOL0     H22343  -3.285   3.185  11.224  0.7748  0.3903  1.0878
  927MOL0     H22344  -3.262   3.093  10.944  1.1145 -1.6240  2.0043
  927MOL0     H22345  -3.420   3.159  11.017 -3.5087 -3.2153  1.9856
  927MOL0     H22346  -2.488   3.745  11.078 -1.8407 -0.2796  1.3676
  927MOL0     H22347  -2.241   3.784  11.083 -0.1084 -2.5396 -2.8080
  927MOL0     H22348  -1.830   3.696  11.262 -1.7379 -1.9654 -0.5939
  927MOL0     H22349  -1.620   3.781  11.169  0.3412 -0.9753  1.7707
  927MOL0     H22350   0.072   3.187  10.614 -3.1054 -1.5217  0.3846
  927MOL0     H22351   0.144   3.433  10.637 -3.7367  1.0058 -0.6629
  927MOL0     H22352   0.158   3.796  10.880 -0.3213  1.6112  0.7111
  927MOL0     H22353   0.212   4.031  10.947 -0.6146 -0.8131 -0.9208
  927MOL0     H22354   0.240   4.110  11.147  2.2423 -2.2944 -0.6729
  927MOL0     H22355   0.289   4.232  11.022 -3.5123 -2.4221 -0.9462
  927MOL0     H22356   0.424   4.348  11.181 -0.1448 -0.4060  0.1223
  927MOL0     H22357   0.253   4.349  11.225  1.3046  0.6491 -2.7136
  927MOL0     H22358   0.444   4.295  11.417 -2.1996  1.9038  0.0877
  927MOL0     H22359   0.462   4.145  11.339 -3.1696 -3.1246 -0.0838
  927MOL0     H22360   0.236   4.211  11.504  1.3682  1.1848 -0.0032
  927MOL0     H22361   0.209   4.092  11.370 -0.0029  1.4184 -1.6284
  927MOL0     H22362   0.462   3.999  11.706 -1.5645  0.8979  1.7393
  927MOL0     H22363   0.563   3.907  11.141 -0.3910  0.5702 -0.5115
  927MOL0     H22364   0.523   3.658  11.049 -1.5623 -0.2443  1.8631
  928MOL0     O22365   6.677  11.281   2.014  0.3212 -0.0165  0.7688
  928MOL0     C22366   6.732  11.196   2.077 -0.8916 -0.2053  0.2710
  928MOL0     O22367   6.676  11.088   2.141  0.1582  0.7187  0.6721
  928MOL0     C22368   6.540  11.103   2.156  0.2016  0.3325  0.0508
  928MOL0     C22369   6.447  11.033   2.080  0.4986  0.2832  0.1670
  928MOL0     C22370   6.306  11.068   2.084 -0.2426  0.2657 -0.5502
  928MOL0     C22371   6.260  11.163   2.186 -0.6157 -0.0636 -0.3539
  928MOL0     O22372   6.140  11.215   2.202  0.0573  0.3916 -0.4268
  928MOL0     C22373   6.044  11.163   2.109  0.2306  0.3529 -0.5927
  928MOL0     C22374   5.907  11.221   2.136 -0.2678  0.0469 -0.4849
  928MOL0     C22375   5.802  11.121   2.092  0.1817 -0.2980 -0.1133
  928MOL0     C22376   5.657  11.181   2.122 -0.9842  0.6911 -0.2089
  928MOL0     C22377   5.555  11.085   2.068  0.6304  0.1544  0.0884
  928MOL0     C22378   5.412  11.139   2.062  0.2271 -0.6533  0.4642
  928MOL0     C22379   5.311  11.055   1.981 -0.0936 -0.2909 -0.4834
  928MOL0     C22380   5.163  11.097   1.986  0.4060 -0.5912 -1.2138
  928MOL0     N22381   5.120  11.085   2.131 -0.1066 -0.2251 -0.5242
  928MOL0     C22382   5.127  11.174   2.237  0.7667 -0.0968  0.5849
  928MOL0     C22383   5.114  11.105   2.348  0.2933 -0.2205 -1.4602
  928MOL0     C22384   5.105  11.149   2.495 -0.8217  1.2075  0.8291
  928MOL0     C22385   5.230  11.149   2.574 -0.3227 -1.1691  1.2431
  928MOL0     C22386   5.210  11.219   2.715  0.4303  0.1870  0.0662
  928MOL0     C22387   5.349  11.255   2.780 -0.4943 -0.1299 -0.3691
  928MOL0     O22388   5.440  11.310   2.693 -1.0942 -0.1381  0.1745
  928MOL0     C22389   5.541  11.370   2.767 -0.2107 -0.2302  1.1062
  928MOL0     C22390   5.675  11.321   2.788 -0.1684 -0.2790  0.8679
  928MOL0     C22391   5.758  11.392   2.876 -0.2294  0.0226  0.0481
  928MOL0     C22392   5.731  11.512   2.928 -0.1992 -0.2533  0.4090
  928MOL0     C22393   5.824  11.582   3.019  0.4975  1.1686  0.4309
  928MOL0     O22394   5.958  11.547   3.009 -0.3754  0.9581 -0.1483
  928MOL0     C22395   6.067  11.619   3.049 -0.3609 -0.4516  0.8193
  928MOL0     C22396   6.192  11.566   3.000  1.0789 -1.0045  1.0451
  928MOL0     C22397   6.308  11.633   3.032  0.5320  0.6460  0.8117
  928MOL0     C22398   6.316  11.750   3.103  0.6902  0.9214 -0.0451
  928MOL0     O22399   6.440  11.793   3.136 -1.7272 -0.2959 -0.5792
  928MOL0     C22400   6.461  11.935   3.144 -0.1206 -0.1949 -0.6220
  928MOL0     C22401   6.596  11.970   3.192  0.2258  0.7492 -0.0540
  928MOL0     C22402   6.610  12.107   3.232  0.4009 -0.0121  0.0543
  928MOL0     C22403   6.751  12.137   3.279  0.4464 -0.6908  0.4164
  928MOL0     C22404   6.827  12.156   3.149 -0.2440  0.4999 -0.2118
  928MOL0     C22405   6.971  12.178   3.179 -0.1544  0.2038 -0.2445
  928MOL0     C22406   7.040  12.216   3.054 -0.0384  0.9243 -0.1474
  928MOL0     C22407   7.187  12.281   3.078  0.5112  0.9303  0.3821
  928MOL0    Cl22408   7.319  12.172   3.140 -0.3368  0.1895  0.0594
  928MOL0     C22409   6.192  11.815   3.141 -0.4758 -0.2890 -0.4889
  928MOL0     C22410   6.070  11.750   3.114  0.2970  0.7787 -0.2716
  928MOL0     O22411   5.774  11.670   3.081  0.5802 -0.2619 -0.5563
  928MOL0     C22412   5.603  11.567   2.891  1.3856  0.4517  0.5625
  928MOL0     C22413   5.512  11.501   2.807 -1.0734  0.2389 -0.5891
  928MOL0     N22414   5.086  10.976   2.307  0.3436  0.2830 -0.2210
  928MOL0     N22415   5.076  10.966   2.178 -0.1589  0.7838  0.3569
  928MOL0     C22416   6.354  11.202   2.287  0.6044  0.1801 -0.2976
  928MOL0     C22417   6.490  11.174   2.272 -0.6719  0.0356 -0.3495
  928MOL0     C22418   6.877  11.198   2.087  0.4351  0.7302  0.7468
  928MOL0     C22419   6.952  11.301   2.033 -0.2901 -0.0235 -0.0278
  928MOL0     C22420   7.096  11.308   2.041  0.4238 -0.5440  0.3580
  928MOL0     C22421   7.166  11.205   2.110  0.0239  0.0154 -0.2035
  928MOL0     O22422   7.303  11.194   2.112 -0.2796  0.3361  0.4424
  928MOL0     C22423   7.389  11.305   2.086  0.1056 -0.3350 -0.0676
  928MOL0     C22424   7.509  11.303   2.181 -0.4041 -0.1235  0.5701
  928MOL0     C22425   7.497  11.232   2.325 -0.1119 -0.5607  0.5743
  928MOL0     C22426   7.395  11.318   2.414 -1.2001  0.4296  0.7530
  928MOL0     C22427   7.408  11.261   2.550 -0.2494 -0.2543 -0.0840
  928MOL0     C22428   7.402  11.210   2.662 -0.1516 -0.1076  0.3110
  928MOL0     C22429   7.093  11.099   2.160  1.0829 -0.2962 -0.2303
  928MOL0     C22430   6.950  11.094   2.146 -0.1803  0.5561  0.5893
  928MOL0     H22431   6.487  10.961   2.009  1.2281  1.2491 -0.4195
  928MOL0     H22432   6.242  11.012   2.018 -0.5410  0.4947 -0.4585
  928MOL0     H22433   6.046  11.057   2.137 -0.2351  0.9268  1.8251
  928MOL0     H22434   6.077  11.175   2.005  2.1160  1.3865  0.0846
  928MOL0     H22435   5.896  11.314   2.080  3.6240 -0.5371 -2.5684
  928MOL0     H22436   5.909  11.245   2.243  2.8042  0.6200 -0.5836
  928MOL0     H22437   5.815  11.031   2.153 -0.7784  0.4006  1.1974
  928MOL0     H22438   5.812  11.098   1.986 -5.0917  0.3517 -1.0317
  928MOL0     H22439   5.645  11.187   2.230 -4.4399  0.4935 -0.4487
  928MOL0     H22440   5.653  11.284   2.087  0.2747  1.0619  0.6844
  928MOL0     H22441   5.540  10.991   2.123 -3.0649  0.5635  0.0682
  928MOL0     H22442   5.582  11.054   1.966 -1.4471 -0.7074 -0.2582
  928MOL0     H22443   5.407  11.239   2.018 -1.1178 -1.0523 -0.3222
  928MOL0     H22444   5.372  11.155   2.163  1.4216  1.4937  0.6780
  928MOL0     H22445   5.346  11.060   1.877  3.4581 -3.4844  0.3376
  928MOL0     H22446   5.305  10.950   2.009  0.8780 -0.8211 -2.0970
  928MOL0     H22447   5.111  11.024   1.924  1.5375 -1.7364 -0.8705
  928MOL0     H22448   5.146  11.198   1.950  0.0170 -0.7470 -1.4736
  928MOL0     H22449   5.146  11.280   2.233 -0.4860  0.2251  2.1847
  928MOL0     H22450   5.028  11.088   2.544  0.9674 -0.7250  1.3525
  928MOL0     H22451   5.074  11.254   2.497 -1.2970  1.0631  1.1071
  928MOL0     H22452   5.303  11.209   2.518 -1.0887 -1.4528 -0.1001
  928MOL0     H22453   5.264  11.045   2.584 -0.8255 -1.5624 -0.6870
  928MOL0     H22454   5.158  11.315   2.700  3.1972  1.9235  0.7676
  928MOL0     H22455   5.155  11.143   2.771  0.8234 -1.3756 -1.5887
  928MOL0     H22456   5.384  11.167   2.835 -1.1437 -1.9086 -2.6580
  928MOL0     H22457   5.331  11.323   2.865  1.4772  1.8041 -1.3918
  928MOL0     H22458   5.709  11.225   2.750 -4.2024 -1.7065  0.3081
  928MOL0     H22459   5.857  11.348   2.888 -0.6576 -1.7824 -2.3069
  928MOL0     H22460   6.213  11.480   2.937  0.5636 -0.3744 -0.0168
  928MOL0     H22461   6.402  11.585   3.008  1.1478  2.8474 -1.6175
  928MOL0     H22462   6.405  11.985   3.224  0.1979 -1.5582  0.4978
  928MOL0     H22463   6.436  11.976   3.046  0.8630  1.7068 -0.1277
  928MOL0     H22464   6.676  11.940   3.124  1.5490  2.2552  0.7539
  928MOL0     H22465   6.609  11.902   3.276 -0.9942 -1.0447 -1.2689
  928MOL0     H22466   6.548  12.135   3.317 -0.9103 -1.4024 -0.4006
  928MOL0     H22467   6.577  12.175   3.152 -0.9120 -0.1745  0.4317
  928MOL0     H22468   6.754  12.225   3.344 -1.2503 -0.6294  0.4443
  928MOL0     H22469   6.800  12.061   3.339  0.5161  0.6483  2.1228
  928MOL0     H22470   6.791  12.242   3.090  0.4817  0.8272 -0.1814
  928MOL0     H22471   6.822  12.062   3.094 -0.8247  0.1496  0.4224
  928MOL0     H22472   7.018  12.089   3.221  3.2282  1.5927 -0.7348
  928MOL0     H22473   6.979  12.265   3.246 -1.0486 -1.8966  2.8026
  928MOL0     H22474   7.044  12.129   2.987  0.6696 -0.1020  1.1810
  928MOL0     H22475   6.977  12.297   3.016 -1.0481  0.9524  1.5150
  928MOL0     H22476   7.171  12.355   3.158  0.2511 -1.6653  2.9135
  928MOL0     H22477   7.224  12.322   2.984  1.2939 -0.4071  0.0772
  928MOL0     H22478   6.182  11.909   3.194  0.6064  0.0844 -0.9281
  928MOL0     H22479   5.973  11.790   3.143 -0.1986 -1.7244  1.9695
  928MOL0     H22480   5.576  11.671   2.906  0.4730  0.2854  0.1927
  928MOL0     H22481   5.428  11.561   2.772 -1.7716  0.2492  0.9844
  928MOL0     H22482   6.327  11.257   2.377  0.1597  0.9053 -0.8578
  928MOL0     H22483   6.562  11.200   2.349 -2.7089  0.3776  1.5303
  928MOL0     H22484   6.896  11.379   1.983 -1.3910 -0.6976  0.1095
  928MOL0     H22485   7.139  11.394   1.991 -1.8245 -0.2005 -1.1163
  928MOL0     H22486   7.340  11.402   2.103 -0.3939 -1.0102  2.7374
  928MOL0     H22487   7.416  11.300   1.980  2.6611  5.7578 -0.1528
  928MOL0     H22488   7.589  11.255   2.124 -0.5249 -0.0568  0.3428
  928MOL0     H22489   7.529  11.408   2.204  3.2963 -0.6954  0.5425
  928MOL0     H22490   7.599  11.240   2.361  0.3239 -3.0230  0.1104
  928MOL0     H22491   7.474  11.126   2.309 -2.0819 -0.0238 -0.4833
  928MOL0     H22492   7.428  11.422   2.422 -1.0633  0.4734 -0.2646
  928MOL0     H22493   7.295  11.310   2.371 -0.5454  0.9916 -0.9439
  928MOL0     H22494   7.407  11.199   2.769  2.6110  2.5811  0.6148
  928MOL0     H22495   7.137  11.009   2.202 -0.6961 -2.4379 -2.6617
  928MOL0     H22496   6.896  11.011   2.191 -0.2466 -0.9221 -2.0390
  929MOL0     O22497   7.192  10.030  11.045 -0.0739 -0.4433  0.3888
  929MOL0     C22498   7.102   9.943  11.070  0.8047  0.3745 -0.8416
  929MOL0     O22499   7.113   9.832  11.157 -1.4974  0.7563  0.0822
  929MOL0     C22500   7.228   9.838  11.232  0.9464  0.2743 -0.5173
  929MOL0     C22501   7.347   9.773  11.192 -0.5091 -0.4702  0.1115
  929MOL0     C22502   7.459   9.778  11.273 -0.7849  0.3792  0.4994
  929MOL0     C22503   7.454   9.848  11.394  0.5239  0.1686  0.1027
  929MOL0     O22504   7.554   9.871  11.484  0.8666  0.4275  0.2365
  929MOL0     C22505   7.684   9.819  11.461 -0.7233 -0.1804 -0.1272
  929MOL0     C22506   7.754   9.895  11.358  0.2607  1.1915  0.1466
  929MOL0     C22507   7.794  10.031  11.410  0.2682  0.5660  0.2556
  929MOL0     C22508   7.851  10.127  11.298  0.1296  0.3284  0.0623
  929MOL0     C22509   7.746  10.208  11.223  0.4384  0.4878 -0.1804
  929MOL0     C22510   7.632  10.142  11.149 -0.4382  0.7722  0.2446
  929MOL0     C22511   7.524  10.241  11.094  0.0506 -0.7030  0.4942
  929MOL0     C22512   7.412  10.272  11.201  0.2247  0.1274 -0.1987
  929MOL0     N22513   7.370  10.415  11.188 -0.3935  0.1706 -0.1803
  929MOL0     C22514   7.295  10.479  11.081 -0.5342 -0.6040 -0.3267
  929MOL0     C22515   7.276  10.609  11.130  0.0899 -0.0120 -0.2872
  929MOL0     C22516   7.202  10.729  11.073 -0.2630 -0.7752  0.4099
  929MOL0     C22517   7.059  10.704  11.070  0.4090  0.7992 -0.0384
  929MOL0     C22518   6.993  10.830  11.019 -0.6114 -0.0286 -0.0742
  929MOL0     C22519   6.847  10.819  10.979 -0.5519  0.7723 -0.1336
  929MOL0     O22520   6.839  10.759  10.851 -0.0571  0.9131  0.2512
  929MOL0     C22521   6.715  10.739  10.803 -0.4103 -0.3210 -0.4287
  929MOL0     C22522   6.598  10.783  10.865  0.0995 -0.2839 -0.1574
  929MOL0     C22523   6.476  10.754  10.798 -0.1844 -0.3437 -0.0850
  929MOL0     C22524   6.462  10.700  10.672  0.3635 -0.3303 -0.5982
  929MOL0     C22525   6.335  10.684  10.595 -0.2368 -0.2355 -0.8340
  929MOL0     O22526   6.344  10.622  10.473  0.5254 -0.9811  0.4371
  929MOL0     C22527   6.230  10.623  10.405 -0.3642  0.0875  0.4228
  929MOL0     C22528   6.153  10.508  10.403 -0.5391  0.9110 -0.1782
  929MOL0     C22529   6.043  10.498  10.321 -0.2019  0.6777 -0.8009
  929MOL0     C22530   6.001  10.601  10.245  0.5954 -0.4133 -0.1765
  929MOL0     O22531   5.889  10.588  10.168 -0.8052  0.6637 -0.3200
  929MOL0     C22532   5.766  10.608  10.226 -0.5767 -0.8243 -0.1369
  929MOL0     C22533   5.670  10.598  10.110  0.3855 -0.5420 -0.0192
  929MOL0     C22534   5.691  10.711  10.002  0.5047  0.3180  0.1914
  929MOL0     C22535   5.577  10.721   9.890  0.1309  0.0604  0.3583
  929MOL0     C22536   5.578  10.855   9.819 -0.4928 -0.1724  0.0140
  929MOL0     C22537   5.459  10.887   9.740  0.2726  0.2533 -1.1556
  929MOL0     C22538   5.483  10.991   9.640  0.1641 -0.1655 -0.1623
  929MOL0     C22539   5.370  11.041   9.559  0.0663  0.5776 -0.5803
  929MOL0    Cl22540   5.427  11.154   9.434  0.3439 -0.3226  0.1245
  929MOL0     C22541   6.075  10.724  10.253 -0.5546 -0.0683 -0.6587
  929MOL0     C22542   6.192  10.733  10.336  0.3252 -0.2930 -0.0563
  929MOL0     O22543   6.232  10.715  10.656  0.0522  0.4344  1.0940
  929MOL0     C22544   6.591  10.673  10.611  0.1130 -0.0571 -0.7249
  929MOL0     C22545   6.714  10.687  10.682  0.0490  0.1456 -0.1468
  929MOL0     N22546   7.351  10.621  11.246 -0.1170  0.2232  0.0733
  929MOL0     N22547   7.403  10.510  11.277  0.3138  0.1106  0.8145
  929MOL0     C22548   7.338   9.923  11.430  0.0593  0.2853  0.2223
  929MOL0     C22549   7.218   9.907  11.353 -0.7971  0.1000  0.3730
  929MOL0     C22550   6.986   9.959  10.981  0.4803  0.5351 -0.7170
  929MOL0     C22551   6.974  10.060  10.886  0.1478 -1.2470 -0.1759
  929MOL0     C22552   6.864  10.095  10.817  0.2459 -0.0128  0.4095
  929MOL0     C22553   6.747  10.019  10.832 -0.4418 -0.1681  0.5521
  929MOL0     O22554   6.629  10.042  10.760 -0.2965  1.3341  0.1375
  929MOL0     C22555   6.615  10.157  10.668  0.2968  0.3395 -0.3816
  929MOL0     C22556   6.489  10.139  10.593  0.4781  0.0187 -0.7048
  929MOL0     C22557   6.449  10.252  10.506 -0.0836 -0.8501 -0.4694
  929MOL0     C22558   6.551  10.288  10.397  0.1833  1.2137  0.5647
  929MOL0     C22559   6.596  10.167  10.323 -0.4117  0.2314  0.4694
  929MOL0     C22560   6.645  10.071  10.272  0.3154 -0.8684  0.0311
  929MOL0     C22561   6.764   9.902  10.913  0.7842  0.5664 -0.0646
  929MOL0     C22562   6.872   9.872  10.989  0.0856  0.2276 -0.3306
  929MOL0     H22563   7.346   9.708  11.105  2.5563 -3.1055  1.8184
  929MOL0     H22564   7.548   9.716  11.263  1.3929  3.6157 -2.3445
  929MOL0     H22565   7.674   9.716  11.427 -1.1694 -0.9387  2.1739
  929MOL0     H22566   7.744   9.821  11.552  0.2728 -1.6920 -0.7069
  929MOL0     H22567   7.693   9.894  11.267  1.8577 -0.8457 -0.9865
  929MOL0     H22568   7.841   9.830  11.346  0.6039  1.8453 -1.0445
  929MOL0     H22569   7.871  10.004  11.483  0.6610  3.5212  1.1005
  929MOL0     H22570   7.709  10.083  11.455  0.0213  0.8601 -0.5385
  929MOL0     H22571   7.918  10.200  11.344  2.0712 -0.9201 -0.6279
  929MOL0     H22572   7.913  10.069  11.229  0.7155 -1.7014  2.1598
  929MOL0     H22573   7.801  10.270  11.152  2.2681 -0.9256 -0.0559
  929MOL0     H22574   7.704  10.277  11.297  1.1564 -0.5277  1.2072
  929MOL0     H22575   7.585  10.080  11.225  2.1404 -1.6119  0.0355
  929MOL0     H22576   7.684  10.085  11.072  0.4051 -0.3672  1.6125
  929MOL0     H22577   7.580  10.328  11.060  0.1263 -0.6987  0.6272
  929MOL0     H22578   7.479  10.205  11.001  2.8292  1.2337 -1.7572
  929MOL0     H22579   7.455  10.253  11.299 -0.2778  0.1899  0.0391
  929MOL0     H22580   7.324  10.208  11.190 -0.1827  0.4197  1.1367
  929MOL0     H22581   7.257  10.427  10.994  1.0992 -2.3625 -0.0534
  929MOL0     H22582   7.239  10.749  10.972 -1.7445 -2.7437 -0.5784
  929MOL0     H22583   7.219  10.817  11.137 -0.8288 -0.1216 -0.3157
  929MOL0     H22584   7.012  10.685  11.167  1.3149  2.0107  0.6565
  929MOL0     H22585   7.036  10.632  10.991  0.3311  1.9573 -1.1003
  929MOL0     H22586   7.006  10.900  11.103  1.2093  1.4886 -1.5048
  929MOL0     H22587   7.050  10.869  10.933 -0.3107  1.0319  0.5775
  929MOL0     H22588   6.811  10.922  10.966  1.5481  1.2573 -3.0720
  929MOL0     H22589   6.801  10.748  11.049  1.5623 -2.6188 -1.9458
  929MOL0     H22590   6.581  10.838  10.957 -0.3382 -2.4917  1.1612
  929MOL0     H22591   6.385  10.786  10.847  0.6454  1.1715  0.5351
  929MOL0     H22592   6.180  10.431  10.475 -4.2105 -0.1395  0.2793
  929MOL0     H22593   5.982  10.409  10.311 -1.0437  1.2482 -0.7939
  929MOL0     H22594   5.766  10.708  10.271 -1.7361 -0.9653  0.1991
  929MOL0     H22595   5.753  10.532  10.303  1.3178 -0.6512  0.4189
  929MOL0     H22596   5.565  10.593  10.140  0.0678  0.1245 -0.9642
  929MOL0     H22597   5.682  10.499  10.065 -3.8716 -1.2877  0.1560
  929MOL0     H22598   5.782  10.690   9.944  1.1312  1.4363  0.7389
  929MOL0     H22599   5.697  10.809  10.050  0.7946 -0.0745  0.9747
  929MOL0     H22600   5.600  10.662   9.801 -1.0824 -1.1379  0.7951
  929MOL0     H22601   5.480  10.694   9.934  1.2847 -3.3853  1.1495
  929MOL0     H22602   5.661  10.857   9.747  0.6109 -3.5626  1.0005
  929MOL0     H22603   5.589  10.928   9.900 -1.7270 -0.6629  0.6431
  929MOL0     H22604   5.390  10.933   9.811  1.4873 -1.5657  1.3421
  929MOL0     H22605   5.406  10.808   9.685 -1.9182  0.1419  0.9396
  929MOL0     H22606   5.515  11.076   9.702 -2.0565  0.0908  0.7036
  929MOL0     H22607   5.561  10.956   9.571 -1.4997  0.4512 -2.4518
  929MOL0     H22608   5.301  11.080   9.635 -0.3472 -0.9593 -0.1067
  929MOL0     H22609   5.327  10.947   9.522 -0.7902 -0.4454  2.6600
  929MOL0     H22610   6.043  10.811  10.196 -0.5940  0.8433  0.6911
  929MOL0     H22611   6.260  10.817  10.332 -1.4929  1.3534  1.5369
  929MOL0     H22612   6.609  10.638  10.510 -0.9036  1.0978 -1.3277
  929MOL0     H22613   6.810  10.669  10.635 -0.1820 -1.1440 -0.1681
  929MOL0     H22614   7.341   9.987  11.517 -0.2120 -1.2611  1.4049
  929MOL0     H22615   7.125   9.953  11.383  1.8850  4.3910  3.2807
  929MOL0     H22616   7.056  10.131  10.884  1.1596 -2.3365  0.8529
  929MOL0     H22617   6.863  10.182  10.752 -2.2230  1.4373  2.2044
  929MOL0     H22618   6.695  10.150  10.594 -0.3313  0.1980 -1.0605
  929MOL0     H22619   6.624  10.252  10.722 -0.6057 -1.1061  2.4710
  929MOL0     H22620   6.473  10.043  10.543 -1.2601 -0.5862  0.8979
  929MOL0     H22621   6.412  10.135  10.671  1.8883 -2.1327  0.6644
  929MOL0     H22622   6.435  10.334  10.576  1.1262 -2.5670  1.9418
  929MOL0     H22623   6.357  10.216  10.458  0.0833 -0.8967 -0.7572
  929MOL0     H22624   6.506  10.356  10.325  0.2577 -1.7168 -2.4791
  929MOL0     H22625   6.630  10.345  10.447  0.5215  1.2388  0.0040
  929MOL0     H22626   6.686   9.991  10.214 -1.9567 -1.8550 -0.3266
  929MOL0     H22627   6.683   9.829  10.916 -0.8339  2.2052 -1.4352
  929MOL0     H22628   6.862   9.793  11.062  0.4544  0.7868  0.3376
  930MOL0     O22629   3.524   3.978   2.889 -0.1503 -0.1608 -0.1886
  930MOL0     C22630   3.515   3.862   2.913  0.6897 -0.5764 -0.2413
  930MOL0     O22631   3.451   3.776   2.839 -0.1025 -0.1027  0.2743
  930MOL0     C22632   3.369   3.818   2.737 -0.3078  0.0657  0.1322
  930MOL0     C22633   3.258   3.736   2.731  0.1288 -0.3866  0.5749
  930MOL0     C22634   3.167   3.754   2.631 -0.6590  0.3619  0.0208
  930MOL0     C22635   3.191   3.854   2.529  0.1968  0.2548 -1.1611
  930MOL0     O22636   3.095   3.891   2.435 -0.5464 -0.0450 -0.4001
  930MOL0     C22637   2.991   3.792   2.409  0.3723  0.1142  0.5370
  930MOL0     C22638   2.909   3.858   2.298  0.2823 -0.2676  0.6367
  930MOL0     C22639   2.795   3.763   2.256 -1.1374  0.6680  0.4303
  930MOL0     C22640   2.668   3.751   2.336 -0.4882  0.3184 -0.1924
  930MOL0     C22641   2.559   3.688   2.247  0.2542 -0.5243  0.6782
  930MOL0     C22642   2.414   3.680   2.313  0.2283 -0.1241 -0.8415
  930MOL0     C22643   2.298   3.629   2.218  0.8753 -0.5233  0.5189
  930MOL0     C22644   2.168   3.631   2.294  0.3907 -0.4860 -0.5870
  930MOL0     N22645   2.053   3.584   2.215 -0.6101 -0.4200  0.6663
  930MOL0     C22646   1.986   3.659   2.121  0.0578 -0.1677 -0.8848
  930MOL0     C22647   1.887   3.579   2.070 -1.3743 -0.1421 -0.4783
  930MOL0     C22648   1.783   3.625   1.974 -0.3191  0.3144  1.2374
  930MOL0     C22649   1.646   3.555   2.012  0.5075  0.1666  0.5867
  930MOL0     C22650   1.540   3.559   1.896 -0.7343  1.2055 -0.3116
  930MOL0     C22651   1.518   3.704   1.844 -0.6819  0.9204 -0.4864
  930MOL0     O22652   1.396   3.701   1.777 -0.3310  0.2764 -0.0812
  930MOL0     C22653   1.373   3.821   1.703  0.4037 -0.1956 -1.3836
  930MOL0     C22654   1.238   3.821   1.660 -0.4806  0.0831  0.4236
  930MOL0     C22655   1.200   3.925   1.573 -0.0617  0.2697  0.1342
  930MOL0     C22656   1.277   4.029   1.530 -0.2980 -0.3347 -0.2091
  930MOL0     C22657   1.229   4.144   1.455 -0.2210  0.4933  0.3463
  930MOL0     O22658   1.312   4.231   1.396  0.1650  0.2832 -0.3337
  930MOL0     C22659   1.263   4.314   1.299  1.1177 -0.4765 -0.4806
  930MOL0     C22660   1.140   4.313   1.239  0.1942 -0.6894  0.3227
  930MOL0     C22661   1.106   4.415   1.145 -0.8829  0.0351 -0.0616
  930MOL0     C22662   1.193   4.524   1.114  0.7529  0.6772  0.3273
  930MOL0     O22663   1.167   4.627   1.031  0.3267 -0.6901  0.6905
  930MOL0     C22664   1.056   4.603   0.946  0.2452  0.3926 -0.3044
  930MOL0     C22665   1.063   4.712   0.848 -0.1444 -1.2029 -0.0870
  930MOL0     C22666   0.926   4.715   0.774  0.2796 -1.0389 -0.1602
  930MOL0     C22667   0.907   4.841   0.685 -0.7368 -0.7932  0.8765
  930MOL0     C22668   0.811   4.815   0.575  0.2741 -0.8716 -0.4263
  930MOL0     C22669   0.673   4.788   0.633  0.3213 -0.5007  0.6431
  930MOL0     C22670   0.561   4.806   0.517  0.4943 -0.1747 -0.6991
  930MOL0     C22671   0.435   4.868   0.584  0.1948  0.0783 -0.0517
  930MOL0    Cl22672   0.294   4.861   0.472  0.5160  0.0496  0.2255
  930MOL0     C22673   1.317   4.524   1.177 -0.7782  0.3847 -0.1195
  930MOL0     C22674   1.347   4.418   1.266  0.1628  1.0167  0.4956
  930MOL0     O22675   1.109   4.143   1.457  0.0898  0.7519 -0.6077
  930MOL0     C22676   1.408   4.030   1.584 -0.0042  0.3450  0.4360
  930MOL0     C22677   1.459   3.917   1.661  0.2491 -0.9848 -0.5141
  930MOL0     N22678   1.908   3.454   2.137  0.2221  0.0414  0.0256
  930MOL0     N22679   2.006   3.459   2.220 -0.1019 -0.2385  0.5159
  930MOL0     C22680   3.313   3.927   2.533  0.1880  1.2460 -0.5015
  930MOL0     C22681   3.400   3.910   2.636  0.4597 -1.1638 -0.2245
  930MOL0     C22682   3.593   3.803   3.034 -0.2883  0.4628 -0.6175
  930MOL0     C22683   3.668   3.889   3.114 -0.0838 -0.4413  0.7682
  930MOL0     C22684   3.736   3.838   3.221 -0.0063 -0.4303  0.0204
  930MOL0     C22685   3.746   3.705   3.257 -0.2306  0.0560  0.4530
  930MOL0     O22686   3.815   3.650   3.362  0.4710 -0.5855 -0.1225
  930MOL0     C22687   3.915   3.728   3.434 -0.1748  0.2938  1.1088
  930MOL0     C22688   3.991   3.615   3.508 -0.3005 -0.3703 -0.0933
  930MOL0     C22689   4.113   3.683   3.578  0.6364  0.0296  0.3899
  930MOL0     C22690   4.208   3.572   3.634 -0.2859  0.1986 -0.8618
  930MOL0     C22691   4.326   3.625   3.692  0.0618 -0.0462  0.3177
  930MOL0     C22692   4.440   3.655   3.727 -1.0030  0.1759 -0.3351
  930MOL0     C22693   3.679   3.614   3.169 -0.1471 -0.0128 -0.3041
  930MOL0     C22694   3.595   3.667   3.066 -0.3559  0.2729 -0.9548
  930MOL0     H22695   3.247   3.651   2.797  1.3203 -0.8512  0.1999
  930MOL0     H22696   3.081   3.688   2.629  0.6485 -1.4447  0.6104
  930MOL0     H22697   2.916   3.778   2.487 -3.6890  0.6902 -2.9423
  930MOL0     H22698   3.024   3.694   2.375 -1.5362 -0.0296 -1.0443
  930MOL0     H22699   2.967   3.888   2.210 -1.2645  3.6045  0.7103
  930MOL0     H22700   2.857   3.949   2.330 -0.6658  0.8602 -3.4633
  930MOL0     H22701   2.838   3.663   2.248  1.7347  1.4863  3.3613
  930MOL0     H22702   2.768   3.798   2.155  2.4315  1.5694 -0.3488
  930MOL0     H22703   2.691   3.691   2.424 -1.6334  2.0760  1.3951
  930MOL0     H22704   2.632   3.845   2.378 -0.5792 -0.3678  1.3252
  930MOL0     H22705   2.594   3.588   2.222  0.4976 -0.4426  0.6855
  930MOL0     H22706   2.549   3.743   2.153 -1.7896 -2.0188 -0.0549
  930MOL0     H22707   2.394   3.779   2.356 -0.7668  0.2906 -2.2025
  930MOL0     H22708   2.423   3.607   2.394  0.5116 -0.2812 -1.0118
  930MOL0     H22709   2.300   3.702   2.136  0.0644 -1.3248 -0.2404
  930MOL0     H22710   2.317   3.533   2.170  1.8818 -0.0583 -0.0470
  930MOL0     H22711   2.150   3.727   2.342  0.1052 -2.0841  2.8548
  930MOL0     H22712   2.179   3.557   2.374  2.0529 -0.0493 -0.3787
  930MOL0     H22713   2.006   3.764   2.103  1.6135 -0.6691 -2.3175
  930MOL0     H22714   1.817   3.589   1.877  1.8995  0.9442  1.7107
  930MOL0     H22715   1.767   3.733   1.963 -2.2181 -0.1692 -1.7418
  930MOL0     H22716   1.601   3.595   2.103 -0.4263 -0.7730  0.5505
  930MOL0     H22717   1.665   3.449   2.030  0.3150  0.3120  1.7580
  930MOL0     H22718   1.563   3.496   1.809 -0.4358  1.6234 -0.5407
  930MOL0     H22719   1.449   3.522   1.943  1.8403 -1.7110  2.9171
  930MOL0     H22720   1.607   3.718   1.782  0.5873 -1.3861  0.6718
  930MOL0     H22721   1.504   3.776   1.926 -3.3401  1.7289 -1.5678
  930MOL0     H22722   1.169   3.745   1.696 -1.1392 -0.9606 -2.7175
  930MOL0     H22723   1.096   3.912   1.543  0.3784 -3.4579 -0.2196
  930MOL0     H22724   1.063   4.240   1.260  1.1658 -1.1764  2.4148
  930MOL0     H22725   1.009   4.410   1.095 -2.5843 -2.4029  3.0312
  930MOL0     H22726   0.967   4.613   1.008  0.9799  3.2054  0.4726
  930MOL0     H22727   1.050   4.512   0.886 -0.3316 -1.6906  2.7071
  930MOL0     H22728   1.138   4.702   0.769 -3.4808  0.5334 -3.8343
  930MOL0     H22729   1.074   4.807   0.900 -2.7639 -0.2603 -1.0734
  930MOL0     H22730   0.855   4.717   0.857  0.6575  3.3198  0.3157
  930MOL0     H22731   0.923   4.628   0.709  2.4867 -0.3104 -1.3523
  930MOL0     H22732   0.877   4.925   0.747  0.5670  0.2017  0.2066
  930MOL0     H22733   1.001   4.864   0.633 -2.5875  0.7257 -2.0524
  930MOL0     H22734   0.856   4.754   0.496  5.2241  3.3069 -1.3721
  930MOL0     H22735   0.802   4.904   0.513 -1.4130 -0.1239  0.8327
  930MOL0     H22736   0.637   4.868   0.698 -1.2835 -1.4533  0.9881
  930MOL0     H22737   0.666   4.694   0.689  1.2419 -0.4264  0.8939
  930MOL0     H22738   0.585   4.878   0.439  1.0432  2.5905  1.8243
  930MOL0     H22739   0.525   4.713   0.472  1.3650 -0.6026 -0.5333
  930MOL0     H22740   0.443   4.973   0.613 -0.1341  0.4080 -1.1405
  930MOL0     H22741   0.414   4.814   0.677  0.4106  0.6521  0.3337
  930MOL0     H22742   1.387   4.605   1.158  2.6504 -2.1851  0.4597
  930MOL0     H22743   1.450   4.420   1.300  0.2235 -0.4376  0.4504
  930MOL0     H22744   1.477   4.114   1.576 -1.0023  1.3662  2.0035
  930MOL0     H22745   1.563   3.915   1.694  0.6888 -0.8344 -1.8276
  930MOL0     H22746   3.337   3.999   2.455  0.7897  1.5031 -0.0831
  930MOL0     H22747   3.493   3.967   2.632  1.1042 -2.1179  0.7818
  930MOL0     H22748   3.664   3.996   3.093 -2.2511 -0.7660 -0.7229
  930MOL0     H22749   3.795   3.912   3.275 -0.7660 -0.5269  1.0168
  930MOL0     H22750   3.865   3.793   3.506  2.1020  2.1111  1.1630
  930MOL0     H22751   3.982   3.781   3.365  1.3529 -0.1855  2.1751
  930MOL0     H22752   3.918   3.588   3.585  0.1170  0.5813  0.6519
  930MOL0     H22753   4.007   3.521   3.454  0.6860  0.5044 -1.3867
  930MOL0     H22754   4.084   3.761   3.650  1.8256  2.7500 -1.8848
  930MOL0     H22755   4.163   3.745   3.503  0.5848  1.1048  1.2030
  930MOL0     H22756   4.158   3.522   3.717 -2.1465  2.2666 -0.6273
  930MOL0     H22757   4.235   3.502   3.554  1.6754  1.2243 -1.1547
  930MOL0     H22758   4.542   3.655   3.761 -0.5306 -1.8581 -1.5893
  930MOL0     H22759   3.680   3.506   3.181 -0.8462  0.2971  3.7419
  930MOL0     H22760   3.519   3.602   3.022 -1.6232  0.4164  0.9396
  931MOL0     O22761   0.146   8.423   7.809  0.1895  0.1959  0.6837
  931MOL0     C22762   0.183   8.519   7.740 -0.0551  1.1747 -0.8029
  931MOL0     O22763   0.314   8.548   7.708  0.3861  0.8304 -0.3849
  931MOL0     C22764   0.408   8.460   7.751  0.0070 -0.0739  0.5221
  931MOL0     C22765   0.521   8.459   7.678 -0.1932  0.0517  0.3157
  931MOL0     C22766   0.632   8.386   7.710  0.1273 -0.3786  0.1129
  931MOL0     C22767   0.625   8.312   7.829 -0.6402  0.2121  0.3407
  931MOL0     O22768   0.737   8.232   7.866  0.3158  0.1031  0.9974
  931MOL0     C22769   0.869   8.282   7.869  0.0298 -0.8269  0.4337
  931MOL0     C22770   0.962   8.223   7.980  0.7589  0.5462  0.3436
  931MOL0     C22771   1.092   8.304   7.985  0.0923 -0.3345  0.5197
  931MOL0     C22772   1.188   8.264   8.094  0.9622  0.1618 -0.3348
  931MOL0     C22773   1.287   8.370   8.122 -1.0440 -0.1378  0.2662
  931MOL0     C22774   1.353   8.328   8.254 -1.3162 -0.1496  0.8435
  931MOL0     C22775   1.462   8.433   8.292  0.2805 -0.3346  0.4833
  931MOL0     C22776   1.587   8.432   8.204  0.4375 -0.2328  0.6786
  931MOL0     N22777   1.704   8.505   8.262  0.2664 -0.0252  0.1807
  931MOL0     C22778   1.807   8.558   8.190 -1.0334 -0.2153 -1.3559
  931MOL0     C22779   1.903   8.596   8.281  0.9053 -0.4813 -0.9804
  931MOL0     C22780   2.030   8.652   8.256 -0.4144 -0.5099  0.8874
  931MOL0     C22781   2.007   8.807   8.245 -0.0521  0.5030 -1.0873
  931MOL0     C22782   1.932   8.850   8.112 -0.2324 -0.2992  0.6931
  931MOL0     C22783   1.986   8.800   7.979  0.9917  0.0600 -0.7500
  931MOL0     O22784   2.128   8.804   7.964 -0.0232  0.0620 -0.2559
  931MOL0     C22785   2.201   8.920   7.985 -0.3051 -0.3352 -0.3945
  931MOL0     C22786   2.339   8.911   8.006  0.4260  0.4555  0.2788
  931MOL0     C22787   2.427   9.019   8.018 -0.3704  0.1489  0.5840
  931MOL0     C22788   2.376   9.151   8.013 -0.4446  0.0578 -1.2196
  931MOL0     C22789   2.467   9.273   8.019  0.2873 -0.4283  0.1464
  931MOL0     O22790   2.598   9.239   8.042 -0.1373 -0.6613  0.2753
  931MOL0     C22791   2.698   9.335   8.044 -0.2503  0.3467 -0.4953
  931MOL0     C22792   2.730   9.413   7.937 -0.0992  0.4211  0.2537
  931MOL0     C22793   2.835   9.506   7.951 -0.7274 -0.1579 -0.3397
  931MOL0     C22794   2.927   9.510   8.063  1.4544  0.2193  1.4179
  931MOL0     O22795   3.026   9.602   8.084 -1.0338 -0.4804 -0.2619
  931MOL0     C22796   3.102   9.650   7.973  0.0112  0.7148 -0.3422
  931MOL0     C22797   3.173   9.524   7.917  0.2734 -0.4620  0.2237
  931MOL0     C22798   3.313   9.550   7.869  0.3649  0.1050  0.3668
  931MOL0     C22799   3.388   9.431   7.858 -0.9886  0.6920 -0.1857
  931MOL0     C22800   3.533   9.467   7.836  0.5736 -0.2877 -0.8011
  931MOL0     C22801   3.640   9.351   7.824 -0.7186  0.6039 -1.1635
  931MOL0     C22802   3.770   9.421   7.853 -0.7996  0.1993 -0.4743
  931MOL0     C22803   3.812   9.530   7.760  0.2920 -0.6470  0.5006
  931MOL0    Cl22804   3.954   9.612   7.801 -0.2836 -0.1991 -0.0248
  931MOL0     C22805   2.874   9.436   8.174  0.1986  0.5309  0.1537
  931MOL0     C22806   2.763   9.345   8.163  0.2927 -0.2805 -0.3735
  931MOL0     O22807   2.426   9.386   7.986  0.7421  0.1488  0.4195
  931MOL0     C22808   2.241   9.167   7.992 -0.6514 -0.5499  0.4610
  931MOL0     C22809   2.155   9.052   7.967 -0.4579 -0.4646  0.5591
  931MOL0     N22810   1.834   8.580   8.403 -0.7181  0.0852  0.8709
  931MOL0     N22811   1.725   8.533   8.392  1.0353  0.8020 -0.1736
  931MOL0     C22812   0.518   8.321   7.919 -0.3313  0.7513  0.2482
  931MOL0     C22813   0.413   8.406   7.879 -0.0222  0.0000 -0.3395
  931MOL0     C22814   0.085   8.592   7.661 -0.2262 -0.7648  0.4176
  931MOL0     C22815   0.106   8.709   7.595  0.1994 -1.2350 -0.1187
  931MOL0     C22816  -0.006   8.769   7.521 -0.4337 -0.3966 -0.4888
  931MOL0     C22817  -0.132   8.712   7.528 -0.3374  0.0671 -0.1709
  931MOL0     O22818  -0.252   8.766   7.482 -0.3429  0.6482  1.0107
  931MOL0     C22819  -0.252   8.899   7.414 -1.0193 -0.0574  0.0596
  931MOL0     C22820  -0.396   8.935   7.403  0.2549 -0.2849 -0.2466
  931MOL0     C22821  -0.468   8.841   7.313 -0.7322  0.2484 -0.1880
  931MOL0     C22822  -0.592   8.891   7.238  0.4013 -0.2164  0.7865
  931MOL0     C22823  -0.652   8.769   7.171  0.4524  0.1535 -0.7387
  931MOL0     C22824  -0.688   8.669   7.111  0.7943  0.7841 -1.3040
  931MOL0     C22825  -0.146   8.593   7.595  0.2424  0.0417 -0.1391
  931MOL0     C22826  -0.042   8.531   7.658  1.0414  0.0773 -0.3045
  931MOL0     H22827   0.535   8.517   7.588  0.3431 -1.0224 -0.3217
  931MOL0     H22828   0.715   8.381   7.641 -0.4802 -0.3178 -0.6272
  931MOL0     H22829   0.873   8.390   7.887  0.8005 -0.9571  1.1204
  931MOL0     H22830   0.904   8.265   7.766 -2.6568  0.5350 -0.7876
  931MOL0     H22831   0.977   8.119   7.951 -1.4747  0.1557  0.4333
  931MOL0     H22832   0.911   8.226   8.077  0.8992  1.4522  0.4035
  931MOL0     H22833   1.066   8.409   8.001  4.1725  1.3791 -2.3991
  931MOL0     H22834   1.137   8.299   7.885 -3.9840 -0.5164 -1.5276
  931MOL0     H22835   1.123   8.256   8.182  1.4584  1.2124  0.1439
  931MOL0     H22836   1.234   8.168   8.070  0.6377  0.2434 -1.3138
  931MOL0     H22837   1.238   8.467   8.126  1.8817  1.5037 -0.8600
  931MOL0     H22838   1.356   8.356   8.038 -1.7138 -0.9152 -0.1647
  931MOL0     H22839   1.404   8.232   8.242 -0.9333 -0.0282  1.4635
  931MOL0     H22840   1.275   8.327   8.331  1.1470  2.0492  3.6303
  931MOL0     H22841   1.404   8.526   8.299 -2.4436 -2.0182  2.0246
  931MOL0     H22842   1.499   8.399   8.389  1.2838  0.3219  0.3501
  931MOL0     H22843   1.564   8.478   8.108 -1.1060  0.0900  1.1703
  931MOL0     H22844   1.622   8.330   8.185  0.3321 -0.3522  1.1055
  931MOL0     H22845   1.816   8.569   8.083  2.3468  0.6876 -1.1046
  931MOL0     H22846   2.074   8.611   8.165  0.1899  1.2464  0.3561
  931MOL0     H22847   2.094   8.626   8.340 -0.5086 -3.2368  0.2142
  931MOL0     H22848   2.107   8.850   8.252  1.2424 -2.5391  1.5783
  931MOL0     H22849   1.942   8.843   8.325 -2.2816 -4.4145 -0.2578
  931MOL0     H22850   1.828   8.816   8.111  0.1390 -1.4776 -0.0880
  931MOL0     H22851   1.936   8.959   8.119  1.4943 -0.3959  1.6762
  931MOL0     H22852   1.942   8.860   7.898  1.0161  3.6246  1.6663
  931MOL0     H22853   1.972   8.692   7.967 -0.0580  0.2935 -1.9357
  931MOL0     H22854   2.382   8.811   8.014  1.5425  0.8027 -0.9907
  931MOL0     H22855   2.531   9.002   8.046  0.2627  1.3183 -0.8892
  931MOL0     H22856   2.667   9.416   7.848  0.8873  1.4062 -0.4285
  931MOL0     H22857   2.836   9.582   7.873 -4.2806 -0.0794 -0.4515
  931MOL0     H22858   3.173   9.719   8.019  1.3087 -0.4446 -0.5240
  931MOL0     H22859   3.034   9.704   7.907 -1.4628  2.0967  2.1448
  931MOL0     H22860   3.108   9.480   7.841  1.6084  1.1450 -1.9738
  931MOL0     H22861   3.188   9.447   7.993  1.3406  0.0629  0.5627
  931MOL0     H22862   3.354   9.623   7.939 -0.4111  0.5261  0.3919
  931MOL0     H22863   3.295   9.605   7.776  1.4013  0.3116  0.2785
  931MOL0     H22864   3.388   9.361   7.942  2.0372  0.4670 -0.2667
  931MOL0     H22865   3.350   9.392   7.763  1.4502 -0.0459 -0.9348
  931MOL0     H22866   3.558   9.530   7.922 -0.7840 -1.1103  0.2453
  931MOL0     H22867   3.534   9.542   7.757  0.2844  1.3917  0.7238
  931MOL0     H22868   3.646   9.294   7.731  0.3973 -1.8613  0.3158
  931MOL0     H22869   3.616   9.285   7.907  0.6698  0.3422 -0.9455
  931MOL0     H22870   3.770   9.460   7.955  0.2396 -3.8268  1.2713
  931MOL0     H22871   3.834   9.335   7.834  0.6145  1.2591 -0.7158
  931MOL0     H22872   3.740   9.613   7.757 -0.6475 -1.4595 -0.3944
  931MOL0     H22873   3.827   9.491   7.659 -1.1717  1.1358 -0.4542
  931MOL0     H22874   2.933   9.426   8.265 -1.7096 -3.4900  1.1997
  931MOL0     H22875   2.727   9.275   8.238 -3.7694  3.2518  1.4010
  931MOL0     H22876   2.209   9.269   7.975  1.0227  0.3309  2.1534
  931MOL0     H22877   2.056   9.063   7.925 -0.4779 -1.4479  0.3267
  931MOL0     H22878   0.524   8.257   8.007 -2.4442 -1.1943 -0.9167
  931MOL0     H22879   0.329   8.422   7.946 -1.8964 -3.0224 -1.6933
  931MOL0     H22880   0.204   8.756   7.589  0.9304 -2.3933  1.8297
  931MOL0     H22881   0.000   8.866   7.472 -0.4176  1.5407  3.0064
  931MOL0     H22882  -0.189   8.895   7.325  3.0068  0.8367  2.5612
  931MOL0     H22883  -0.200   8.981   7.466 -1.8289  0.3697  0.2078
  931MOL0     H22884  -0.454   8.939   7.495 -1.0461  0.7526 -1.0706
  931MOL0     H22885  -0.386   9.037   7.364  0.6023  0.5222  1.8349
  931MOL0     H22886  -0.494   8.754   7.375  4.7295 -3.9875 -2.9765
  931MOL0     H22887  -0.390   8.810   7.243 -0.8921  1.5586 -0.9721
  931MOL0     H22888  -0.668   8.942   7.298  1.4804  0.9541  1.2041
  931MOL0     H22889  -0.574   8.958   7.153 -0.9209  0.6677  1.1702
  931MOL0     H22890  -0.717   8.585   7.051 -3.6882  1.5212 -0.5705
  931MOL0     H22891  -0.243   8.546   7.608  0.4727 -0.1531  1.0150
  931MOL0     H22892  -0.069   8.438   7.708 -1.6953 -0.5327 -2.6387
  932MOL0     O22893  11.276   9.982   8.476 -0.5140 -0.9288 -0.2221
  932MOL0     C22894  11.296   9.875   8.415  0.6182 -0.8495 -0.6384
  932MOL0     O22895  11.236   9.754   8.446 -0.1503 -0.1595 -0.3368
  932MOL0     C22896  11.144   9.751   8.546  0.4204  0.1579  0.6532
  932MOL0     C22897  11.171   9.664   8.653 -0.3862  0.4007 -0.5272
  932MOL0     C22898  11.071   9.646   8.754 -0.0548 -0.0437 -0.4898
  932MOL0     C22899  10.948   9.712   8.744 -0.3313  0.1128 -0.0676
  932MOL0     O22900  10.839   9.697   8.820 -0.1346  0.1969 -0.1425
  932MOL0     C22901  10.867   9.711   8.959  0.2622 -0.1876  0.3606
  932MOL0     C22902  10.750   9.754   9.036  0.1457 -0.3334  0.4728
  932MOL0     C22903  10.643   9.650   9.024 -0.1793  0.6974  0.3862
  932MOL0     C22904  10.633   9.563   9.151 -0.2507  0.3441 -0.0960
  932MOL0     C22905  10.515   9.619   9.231 -0.6749  0.0915 -0.6299
  932MOL0     C22906  10.490   9.518   9.344  0.3808 -0.5773  0.0795
  932MOL0     C22907  10.389   9.558   9.451  0.2346  0.2276  0.8762
  932MOL0     C22908  10.429   9.665   9.544  0.8402 -0.0329  0.0354
  932MOL0     N22909  10.350   9.645   9.672  0.1234 -0.1720  0.3444
  932MOL0     C22910  10.361   9.539   9.763 -0.6243 -0.1880 -0.7039
  932MOL0     C22911  10.277   9.578   9.865  0.4508 -1.0216  0.5527
  932MOL0     C22912  10.256   9.481   9.976  0.2523 -0.6621  0.7065
  932MOL0     C22913  10.360   9.516  10.092  0.5250  0.2651 -0.5053
  932MOL0     C22914  10.378   9.384  10.173 -0.5134 -0.3974  0.5411
  932MOL0     C22915  10.493   9.287  10.140  0.1399 -0.1037 -0.3357
  932MOL0     O22916  10.505   9.189  10.244  0.5088  0.1972 -0.2984
  932MOL0     C22917  10.407   9.085  10.258  1.3323  0.4055 -0.6625
  932MOL0     C22918  10.397   9.033  10.383 -0.3529 -1.2972 -0.3960
  932MOL0     C22919  10.308   8.938  10.426 -0.0854  0.1365  0.8669
  932MOL0     C22920  10.205   8.897  10.336  1.0201 -0.2049 -0.0252
  932MOL0     C22921  10.114   8.804  10.394 -0.4918  0.6587  1.2234
  932MOL0     O22922  10.038   8.848  10.499  0.2121 -0.0306  0.5294
  932MOL0     C22923   9.902   8.814  10.477 -0.5356  0.2044 -0.6277
  932MOL0     C22924   9.821   8.892  10.404  0.2803  0.1013 -0.5151
  932MOL0     C22925   9.691   8.854  10.371 -0.3207  0.2187 -0.0678
  932MOL0     C22926   9.631   8.736  10.433 -0.2227 -0.5760  0.2333
  932MOL0     O22927   9.508   8.704  10.392  0.0229  0.0801  0.5533
  932MOL0     C22928   9.449   8.585  10.446 -0.0999  0.6457  0.0718
  932MOL0     C22929   9.310   8.578  10.397  0.9277  1.1085  0.0898
  932MOL0     C22930   9.250   8.436  10.436  0.4573  0.3443  0.0130
  932MOL0     C22931   9.102   8.414  10.422 -0.2626 -0.9425 -0.4128
  932MOL0     C22932   9.040   8.287  10.475 -0.5803 -0.6741  0.7819
  932MOL0     C22933   9.098   8.162  10.404  0.4787 -0.7683 -0.5613
  932MOL0     C22934   9.039   8.048  10.477  1.0961  1.0822  0.1986
  932MOL0     C22935   9.075   7.919  10.402  0.1039  0.1349 -0.4807
  932MOL0    Cl22936   8.948   7.908  10.275 -0.0282 -0.5032  0.4385
  932MOL0     C22937   9.705   8.660  10.525 -0.6881 -0.5723  0.0825
  932MOL0     C22938   9.847   8.702  10.541  0.9315  0.2580  0.7871
  932MOL0     O22939  10.096   8.696  10.326 -0.3963  0.4341 -0.5875
  932MOL0     C22940  10.200   8.959  10.200 -0.0513  0.0424 -0.7556
  932MOL0     C22941  10.302   9.055  10.166  0.0143  0.0575  0.0260
  932MOL0     N22942  10.232   9.704   9.834 -0.3859 -0.2468 -0.5877
  932MOL0     N22943  10.267   9.739   9.720  0.1942  0.4515  0.6055
  932MOL0     C22944  10.926   9.791   8.633  0.2628  0.4079  0.0206
  932MOL0     C22945  11.018   9.815   8.537 -0.0246 -0.5115  0.5604
  932MOL0     C22946  11.401   9.889   8.310  1.2190 -0.0189 -0.4234
  932MOL0     C22947  11.466   9.776   8.253 -0.7128  0.7710  1.1504
  932MOL0     C22948  11.578   9.801   8.177  0.2234  1.1917 -0.1135
  932MOL0     C22949  11.633   9.927   8.156 -0.0729  0.1892 -0.0120
  932MOL0     O22950  11.748   9.934   8.081 -0.2195  0.2626  0.2460
  932MOL0     C22951  11.831  10.051   8.098 -0.6157 -0.8450  0.5383
  932MOL0     C22952  11.959  10.029   8.019  0.3216  1.1110 -0.3654
  932MOL0     C22953  12.050  10.146   8.012 -0.7196  0.0401 -0.5704
  932MOL0     C22954  12.189  10.107   7.949  0.3780  0.5740 -0.5384
  932MOL0     C22955  12.292  10.206   7.983  0.5237 -0.5022  0.6376
  932MOL0     C22956  12.349  10.310   7.993  0.8114 -0.1090 -0.2811
  932MOL0     C22957  11.580  10.031   8.221 -0.0118  0.1589  0.1014
  932MOL0     C22958  11.461  10.019   8.292  1.6565  0.8232  0.5522
  932MOL0     H22959  11.265   9.611   8.662 -1.9977 -2.2912  2.9002
  932MOL0     H22960  11.080   9.590   8.847  1.3284  2.2950  0.8805
  932MOL0     H22961  10.935   9.791   8.988  0.4155  0.6688 -2.1359
  932MOL0     H22962  10.900   9.615   9.002 -2.1940 -0.2716  2.2651
  932MOL0     H22963  10.711   9.841   8.982 -2.2843 -1.2777  0.5480
  932MOL0     H22964  10.770   9.785   9.139  2.8006  2.1534 -0.6584
  932MOL0     H22965  10.647   9.587   8.935  0.0142  0.3534  0.6401
  932MOL0     H22966  10.541   9.687   9.009  0.1645  1.2477 -0.6782
  932MOL0     H22967  10.615   9.460   9.119  3.3491 -0.4472  0.0665
  932MOL0     H22968  10.726   9.555   9.208 -0.3881 -1.1586 -0.0263
  932MOL0     H22969  10.426   9.614   9.168 -0.5824 -3.4423 -0.6859
  932MOL0     H22970  10.531   9.719   9.271  0.5827 -0.4940  0.4390
  932MOL0     H22971  10.585   9.503   9.398  2.2251  4.1453 -1.3010
  932MOL0     H22972  10.443   9.429   9.302 -2.4721  1.2374 -0.8214
  932MOL0     H22973  10.298   9.588   9.399  0.9534 -2.9165 -2.6256
  932MOL0     H22974  10.348   9.473   9.506 -0.0448  0.2805  0.7533
  932MOL0     H22975  10.422   9.763   9.496 -0.8554 -0.9918 -1.8312
  932MOL0     H22976  10.532   9.647   9.575  0.4269 -0.9492  0.9593
  932MOL0     H22977  10.426   9.452   9.752 -1.1540 -0.4714 -1.6826
  932MOL0     H22978  10.281   9.382   9.936 -0.3057 -0.7805  0.6510
  932MOL0     H22979  10.156   9.476  10.019  0.5261 -0.1461  1.4227
  932MOL0     H22980  10.315   9.592  10.157  2.6598  1.1320  0.0241
  932MOL0     H22981  10.452   9.564  10.059 -0.9810  2.6925 -1.4804
  932MOL0     H22982  10.388   9.415  10.277  0.6715 -0.5386  0.4765
  932MOL0     H22983  10.282   9.332  10.174 -0.1181 -1.2854  3.8172
  932MOL0     H22984  10.586   9.344  10.137 -1.5741  3.2892  2.6242
  932MOL0     H22985  10.480   9.238  10.043  0.0582  0.7890 -0.7896
  932MOL0     H22986  10.464   9.072  10.459  1.1714 -0.4987 -2.0818
  932MOL0     H22987  10.305   8.917  10.532 -2.1590 -0.5505  0.7181
  932MOL0     H22988   9.866   8.980  10.359 -0.0380  0.9001  0.6671
  932MOL0     H22989   9.634   8.918  10.305  1.4106  3.4715  1.3765
  932MOL0     H22990   9.446   8.588  10.555  1.3763  0.9275  0.1117
  932MOL0     H22991   9.491   8.493  10.403  0.1709  1.4312 -1.4003
  932MOL0     H22992   9.313   8.593  10.289 -4.5290  0.7579 -0.3915
  932MOL0     H22993   9.247   8.663  10.423  0.2192  0.7843 -0.5519
  932MOL0     H22994   9.279   8.410  10.538  1.4422 -1.0859 -0.5806
  932MOL0     H22995   9.313   8.361  10.386  2.2718 -0.0851  2.7377
  932MOL0     H22996   9.047   8.497  10.466 -0.6539 -0.6923 -1.3512
  932MOL0     H22997   9.080   8.428  10.316  1.6166  0.5466 -0.6638
  932MOL0     H22998   8.933   8.289  10.453 -0.4212  0.6630  0.0498
  932MOL0     H22999   9.037   8.278  10.584 -0.4991 -0.3421  0.8116
  932MOL0     H23000   9.207   8.161  10.410  0.6803 -2.5449 -2.9573
  932MOL0     H23001   9.071   8.146  10.299 -0.7872 -3.5241  0.0803
  932MOL0     H23002   9.065   8.029  10.581  2.0511 -1.5811 -0.4421
  932MOL0     H23003   8.930   8.055  10.467  0.8091  0.2236  2.2064
  932MOL0     H23004   9.091   7.829  10.462  0.0576 -0.0100 -0.6870
  932MOL0     H23005   9.174   7.933  10.358 -1.0212  0.1369 -3.2397
  932MOL0     H23006   9.683   8.564  10.569  0.0200  0.7089  3.5360
  932MOL0     H23007   9.922   8.649  10.601  2.5844 -0.4070 -1.7047
  932MOL0     H23008  10.118   8.952  10.129 -0.0735 -0.2798 -0.7007
  932MOL0     H23009  10.291   9.108  10.072 -6.1828 -0.7415 -0.0970
  932MOL0     H23010  10.831   9.843   8.623  1.0265  1.8232 -0.0932
  932MOL0     H23011  11.004   9.889   8.459  1.9805  0.8040  1.3365
  932MOL0     H23012  11.431   9.675   8.271 -0.1433  0.5389  0.9768
  932MOL0     H23013  11.643   9.719   8.151  1.0838  2.0480 -0.7336
  932MOL0     H23014  11.860  10.079   8.199  2.6841  0.2053 -0.5532
  932MOL0     H23015  11.770  10.129   8.053 -3.3050 -1.7495  2.4210
  932MOL0     H23016  12.019   9.949   8.063 -1.7635  0.6887  1.9429
  932MOL0     H23017  11.927   9.997   7.920  1.1075 -0.9419  0.0029
  932MOL0     H23018  12.070  10.158   8.119  1.9014 -2.4055 -0.6640
  932MOL0     H23019  12.012  10.242   7.975 -1.7398 -0.8560 -1.9494
  932MOL0     H23020  12.227  10.010   7.984 -0.4529  0.3748 -0.1596
  932MOL0     H23021  12.173  10.100   7.841 -1.9703  0.1484 -0.2128
  932MOL0     H23022  12.390  10.410   7.993  0.2486  0.1301 -1.0815
  932MOL0     H23023  11.623  10.131   8.229  1.4390 -0.2260 -1.8442
  932MOL0     H23024  11.422  10.108   8.341  0.1073  0.1258  0.6515
  933MOL0     O23025   6.490   0.343   6.212  0.2528 -0.6388 -0.5377
  933MOL0     C23026   6.517   0.248   6.133  0.6433  0.3743  0.0971
  933MOL0     O23027   6.638   0.175   6.126  0.8305 -0.3101 -0.4383
  933MOL0     C23028   6.750   0.220   6.204  0.1023 -0.9610  0.1705
  933MOL0     C23029   6.793   0.348   6.229 -0.3651 -0.1871 -0.7649
  933MOL0     C23030   6.907   0.376   6.308 -0.2329 -0.3324  0.5768
  933MOL0     C23031   6.991   0.270   6.344 -0.2426  1.1508 -0.3413
  933MOL0     O23032   7.114   0.290   6.408  0.4938  0.6625 -0.3352
  933MOL0     C23033   7.178   0.180   6.478  0.3869 -0.3278  0.9590
  933MOL0     C23034   7.305   0.227   6.550  0.2327 -0.0834 -0.2144
  933MOL0     C23035   7.412   0.108   6.577  0.0596  0.0499 -0.6058
  933MOL0     C23036   7.521   0.161   6.676  1.8550 -0.5479  0.7432
  933MOL0     C23037   7.646   0.076   6.700  1.5645 -0.5209  0.2977
  933MOL0     C23038   7.730   0.040   6.576 -0.3641 -0.1818 -0.5805
  933MOL0     C23039   7.846  -0.049   6.619  0.0026 -0.4734  0.0603
  933MOL0     C23040   7.956  -0.060   6.512  0.2687  0.0388  0.6227
  933MOL0     N23041   8.033   0.067   6.473 -0.3653  0.2196 -1.2171
  933MOL0     C23042   8.129   0.131   6.545  0.1637  0.7310  0.3941
  933MOL0     C23043   8.155   0.240   6.474  0.4515 -0.7283 -0.6027
  933MOL0     C23044   8.262   0.349   6.499  0.2201  0.1727 -0.0955
  933MOL0     C23045   8.355   0.369   6.387 -0.9815  0.1883 -0.4202
  933MOL0     C23046   8.314   0.456   6.278  1.4683 -0.1498  0.2097
  933MOL0     C23047   8.412   0.457   6.163  0.1510  0.7526  0.3832
  933MOL0     O23048   8.507   0.547   6.215 -0.2702 -0.3616 -0.3459
  933MOL0     C23049   8.627   0.564   6.151 -0.7545 -0.3530 -0.1049
  933MOL0     C23050   8.640   0.621   6.022 -0.8616 -0.3331  0.1776
  933MOL0     C23051   8.767   0.617   5.954 -0.5087  0.4776  0.4313
  933MOL0     C23052   8.876   0.558   6.023 -0.5785  0.1254  0.6157
  933MOL0     C23053   9.014   0.554   5.963  0.2090  0.5790 -0.5477
  933MOL0     O23054   9.116   0.524   6.054  0.5006 -0.1763  0.3820
  933MOL0     C23055   9.241   0.474   6.013  0.1727  1.1447  0.2796
  933MOL0     C23056   9.268   0.421   5.884  0.3553 -0.8279 -0.3777
  933MOL0     C23057   9.398   0.378   5.854  0.4682  0.3941 -0.2595
  933MOL0     C23058   9.502   0.380   5.948 -0.0023 -0.2885  0.0876
  933MOL0     O23059   9.628   0.348   5.920 -0.5902 -0.6281  0.4428
  933MOL0     C23060   9.694   0.247   6.001 -0.0674  0.0438 -0.2524
  933MOL0     C23061   9.803   0.174   5.918 -0.6827 -0.3936 -0.2937
  933MOL0     C23062   9.905   0.083   6.002  0.9718 -0.1268 -0.2331
  933MOL0     C23063   9.972  -0.024   5.918 -1.1591  1.3171  0.4168
  933MOL0     C23064  10.072  -0.111   5.992  0.2902  1.5740  0.3113
  933MOL0     C23065  10.189  -0.049   6.056 -0.1129 -0.6176  0.1692
  933MOL0     C23066  10.293  -0.129   6.134  0.6940  0.0481  0.6692
  933MOL0     C23067  10.410  -0.174   6.047 -0.2430 -0.5979  0.0433
  933MOL0    Cl23068  10.507  -0.052   5.984 -0.0012  0.1857  0.9055
  933MOL0     C23069   9.462   0.425   6.072 -0.9356  0.0331  0.8785
  933MOL0     C23070   9.336   0.470   6.105  0.0334 -0.4532  0.1762
  933MOL0     O23071   9.029   0.591   5.852  0.1184  0.0795  0.3288
  933MOL0     C23072   8.863   0.527   6.159  0.0522 -0.6761 -0.4631
  933MOL0     C23073   8.738   0.524   6.221  0.1883  0.5045 -0.8324
  933MOL0     N23074   8.071   0.241   6.365 -0.1867 -0.8507 -0.2226
  933MOL0     N23075   7.997   0.141   6.365 -0.5870 -0.3540 -0.0111
  933MOL0     C23076   6.949   0.137   6.316  0.6988 -0.1822  0.0504
  933MOL0     C23077   6.827   0.117   6.249  0.2570 -0.4698  0.3134
  933MOL0     C23078   6.401   0.196   6.054  0.2963  0.6720  0.4707
  933MOL0     C23079   6.289   0.275   6.043 -0.3267 -0.5306  0.2799
  933MOL0     C23080   6.172   0.226   5.984  0.2455  0.0720 -0.0317
  933MOL0     C23081   6.164   0.104   5.925  0.3540  0.5863 -0.4606
  933MOL0     O23082   6.045   0.044   5.886 -0.1304 -0.8441  0.9146
  933MOL0     C23083   5.920   0.111   5.914  1.2126 -0.1003  0.5874
  933MOL0     C23084   5.882   0.173   5.776  0.4122  0.5114  0.2437
  933MOL0     C23085   5.750   0.265   5.780  0.0636 -0.4634 -0.7143
  933MOL0     C23086   5.624   0.199   5.819  0.5904  0.4055 -0.0667
  933MOL0     C23087   5.499   0.278   5.791 -0.9778  0.3876 -0.8690
  933MOL0     C23088   5.387   0.333   5.768 -0.0606  0.9547  0.3943
  933MOL0     C23089   6.277   0.021   5.924 -0.2343  0.4922 -1.2209
  933MOL0     C23090   6.398   0.071   5.983  0.6527 -0.6754 -0.1028
  933MOL0     H23091   6.738   0.430   6.184 -2.6883 -0.6752  1.0065
  933MOL0     H23092   6.941   0.472   6.345  1.3503 -1.2291  1.5368
  933MOL0     H23093   7.210   0.111   6.399 -0.2327 -0.8166  1.1291
  933MOL0     H23094   7.121   0.117   6.546  4.8420 -2.8643  2.7701
  933MOL0     H23095   7.269   0.272   6.643 -0.9568  0.3368 -0.8546
  933MOL0     H23096   7.351   0.313   6.501 -2.1201  2.0477  1.0453
  933MOL0     H23097   7.453   0.068   6.483  0.6124 -1.4305  0.2386
  933MOL0     H23098   7.358   0.027   6.626 -0.7685  0.0658 -1.4614
  933MOL0     H23099   7.537   0.264   6.642 -1.4441  0.9735  3.2242
  933MOL0     H23100   7.472   0.167   6.774  1.2548  0.9461  0.3853
  933MOL0     H23101   7.619  -0.022   6.740  0.7743 -0.9469 -1.1955
  933MOL0     H23102   7.711   0.133   6.767  0.0928  0.6522  0.7765
  933MOL0     H23103   7.765   0.130   6.523  0.3852 -0.3685 -0.3977
  933MOL0     H23104   7.669  -0.016   6.504 -1.3783  0.0528  0.0695
  933MOL0     H23105   7.888  -0.032   6.718 -0.8472  2.0697  0.0825
  933MOL0     H23106   7.812  -0.153   6.614  0.6656 -0.6728 -0.4122
  933MOL0     H23107   7.916  -0.097   6.417  0.8235 -1.4768  0.9536
  933MOL0     H23108   8.029  -0.136   6.542  0.3334  0.5922  1.9532
  933MOL0     H23109   8.175   0.100   6.638 -1.1761 -0.1532  0.7838
  933MOL0     H23110   8.305   0.319   6.595 -3.0266 -0.2436  1.3996
  933MOL0     H23111   8.220   0.446   6.526  1.3466  0.8759 -0.8131
  933MOL0     H23112   8.387   0.276   6.339 -1.2524  1.1898 -2.6610
  933MOL0     H23113   8.450   0.402   6.431 -1.1135 -1.4322  1.2521
  933MOL0     H23114   8.221   0.408   6.245 -1.0630  3.3234  1.5686
  933MOL0     H23115   8.280   0.555   6.309 -1.9595 -1.7362  2.0882
  933MOL0     H23116   8.367   0.497   6.071  2.4424  1.6208 -0.4378
  933MOL0     H23117   8.444   0.358   6.131  0.8059 -0.1429  3.4736
  933MOL0     H23118   8.552   0.647   5.964 -1.7855  0.7231  1.9795
  933MOL0     H23119   8.766   0.632   5.847 -1.0104 -2.4311 -0.0671
  933MOL0     H23120   9.187   0.418   5.812 -2.1586  0.7048  2.2036
  933MOL0     H23121   9.420   0.328   5.760 -0.9975 -3.9480  1.4090
  933MOL0     H23122   9.612   0.181   6.033 -2.3851  3.0915  0.6396
  933MOL0     H23123   9.743   0.293   6.087 -2.2412  1.6936  0.2094
  933MOL0     H23124   9.864   0.255   5.876  3.1913 -1.4201  2.6620
  933MOL0     H23125   9.761   0.113   5.838  3.6810 -2.1302 -1.5972
  933MOL0     H23126   9.855   0.041   6.091 -0.0227 -0.9076 -1.1352
  933MOL0     H23127   9.984   0.141   6.050 -0.6373  1.8462  0.1880
  933MOL0     H23128   9.910  -0.090   5.857  0.6483 -0.9388  0.8625
  933MOL0     H23129  10.032   0.024   5.840  0.2860 -1.5308 -0.3765
  933MOL0     H23130  10.105  -0.184   5.917  0.3489  2.7279 -0.8224
  933MOL0     H23131  10.021  -0.175   6.064  2.9100 -2.3932 -1.0094
  933MOL0     H23132  10.152   0.011   6.140  0.0719  0.2112 -0.3291
  933MOL0     H23133  10.235   0.022   5.987  1.5380 -2.6626 -0.9497
  933MOL0     H23134  10.340  -0.068   6.212 -0.6368 -0.2436  1.7339
  933MOL0     H23135  10.242  -0.214   6.180  0.0164 -0.7368 -1.3952
  933MOL0     H23136  10.361  -0.215   5.958 -2.6599  1.9632  0.0554
  933MOL0     H23137  10.468  -0.255   6.092 -0.1144  0.4031  1.7629
  933MOL0     H23138   9.525   0.410   6.159  0.1997  0.2778  0.1242
  933MOL0     H23139   9.318   0.511   6.204 -3.2076  0.8506 -0.8218
  933MOL0     H23140   8.952   0.490   6.209 -0.6222 -1.5914  0.0974
  933MOL0     H23141   8.725   0.482   6.320  1.0366  1.1739 -0.4161
  933MOL0     H23142   7.001   0.046   6.344 -0.6991 -1.4146 -1.1631
  933MOL0     H23143   6.792   0.015   6.232 -1.1833  0.2116 -1.0930
  933MOL0     H23144   6.292   0.381   6.069 -0.6124 -0.5356  0.3352
  933MOL0     H23145   6.089   0.295   5.973  0.6834  0.6891  0.4704
  933MOL0     H23146   5.913   0.183   5.996 -1.6388 -0.2214  0.5189
  933MOL0     H23147   5.849   0.030   5.929  0.1205  0.8689  0.7341
  933MOL0     H23148   5.968   0.225   5.734 -1.0354  3.2997  0.4613
  933MOL0     H23149   5.847   0.098   5.705 -2.1083  3.6065 -2.0677
  933MOL0     H23150   5.724   0.284   5.676 -0.4139 -2.1164 -0.9251
  933MOL0     H23151   5.778   0.356   5.833 -0.7033 -0.4320 -0.3484
  933MOL0     H23152   5.615   0.110   5.757  3.7418 -0.8805  1.1192
  933MOL0     H23153   5.629   0.167   5.923 -0.5646 -1.5504 -0.5737
  933MOL0     H23154   5.289   0.377   5.762 -0.4453  0.0341 -0.2643
  933MOL0     H23155   6.279  -0.079   5.883 -1.3180  0.9732 -2.5147
  933MOL0     H23156   6.485   0.007   5.970 -0.7845 -2.1167 -3.9846
  934MOL0     O23157   8.853   1.955   7.788 -0.1030  0.2254 -0.0340
  934MOL0     C23158   8.796   2.055   7.829  0.0658 -0.3644  1.1799
  934MOL0     O23159   8.857   2.164   7.859  0.5720  0.6767 -0.9988
  934MOL0     C23160   8.986   2.199   7.824 -0.9674 -0.9990  0.4847
  934MOL0     C23161   9.014   2.336   7.834 -0.2607  0.0557 -0.0926
  934MOL0     C23162   9.142   2.398   7.825 -0.9047 -0.3431 -0.2253
  934MOL0     C23163   9.253   2.318   7.763  0.1457 -0.2468 -0.3918
  934MOL0     O23164   9.380   2.365   7.731  0.0830 -0.1164  0.5382
  934MOL0     C23165   9.439   2.470   7.804 -0.3384 -0.0125 -0.7299
  934MOL0     C23166   9.568   2.522   7.744 -0.0081  0.2745  0.3741
  934MOL0     C23167   9.630   2.641   7.826  0.3128 -0.6447  0.1724
  934MOL0     C23168   9.710   2.582   7.938 -0.3484  0.1409  0.1666
  934MOL0     C23169   9.776   2.680   8.034 -0.6377  0.1562  0.7583
  934MOL0     C23170   9.863   2.609   8.141 -0.1329  0.6302 -0.2862
  934MOL0     C23171   9.929   2.706   8.243  0.4268 -1.4015 -0.5703
  934MOL0     C23172   9.832   2.770   8.343 -0.0022  0.4140  0.9086
  934MOL0     N23173   9.898   2.870   8.433 -0.8630 -0.4027 -0.4461
  934MOL0     C23174  10.013   2.853   8.511 -0.4524  0.2673 -0.1016
  934MOL0     C23175  10.066   2.976   8.525 -0.5014  0.6990  0.0768
  934MOL0     C23176  10.182   3.019   8.605  0.1419  0.4297 -0.1688
  934MOL0     C23177  10.289   3.081   8.513 -0.1979 -0.1166  0.3180
  934MOL0     C23178  10.353   2.987   8.417  0.2331 -0.2501  0.2214
  934MOL0     C23179  10.424   3.060   8.302  1.0137  0.3826  0.6659
  934MOL0     O23180  10.486   2.962   8.213 -0.0131  0.0881 -0.0108
  934MOL0     C23181  10.401   2.873   8.146  0.1391 -0.1794 -0.2345
  934MOL0     C23182  10.408   2.740   8.186 -0.4867  0.0196 -0.1431
  934MOL0     C23183  10.329   2.642   8.113  0.2022 -0.1676 -0.7234
  934MOL0     C23184  10.253   2.674   8.011  0.4349 -0.2088  0.2106
  934MOL0     C23185  10.196   2.580   7.915 -0.1987 -0.7572 -0.5103
  934MOL0     O23186  10.244   2.451   7.932 -0.5197 -0.1293 -0.2325
  934MOL0     C23187  10.180   2.341   7.878  0.0154 -0.9636  0.5059
  934MOL0     C23188  10.254   2.231   7.813  0.4465 -0.7949 -0.0050
  934MOL0     C23189  10.192   2.131   7.751 -0.3557  0.1858 -0.4287
  934MOL0     C23190  10.056   2.118   7.748  0.1351  0.4802  0.6239
  934MOL0     O23191   9.989   2.015   7.686 -0.0668  0.0709 -0.4885
  934MOL0     C23192  10.059   1.892   7.659 -0.0252  0.4528 -0.0689
  934MOL0     C23193   9.968   1.776   7.637  0.3080  0.5719  0.5009
  934MOL0     C23194   9.898   1.777   7.500  0.6525 -0.8607  0.2720
  934MOL0     C23195   9.825   1.904   7.470  0.7143  0.4107 -0.0271
  934MOL0     C23196   9.706   1.942   7.569 -0.2930 -0.5577  0.0379
  934MOL0     C23197   9.617   1.824   7.584  0.8941  0.2210  0.1922
  934MOL0     C23198   9.489   1.873   7.660 -0.3905 -0.5723  0.3484
  934MOL0     C23199   9.466   1.788   7.783  0.5777 -0.6659 -0.1732
  934MOL0    Cl23200   9.321   1.846   7.854  0.1208  0.5549  0.0925
  934MOL0     C23201   9.982   2.217   7.813  0.1560 -0.1682  0.8613
  934MOL0     C23202  10.036   2.323   7.882  0.0615  0.7666 -0.4750
  934MOL0     O23203  10.098   2.614   7.856 -0.4686  0.2801  0.7336
  934MOL0     C23204  10.224   2.819   7.999  0.4853  0.4962 -1.2255
  934MOL0     C23205  10.300   2.917   8.065  0.5989 -0.4033  1.5918
  934MOL0     N23206   9.988   3.067   8.464 -0.2602  0.1913  0.8939
  934MOL0     N23207   9.892   3.006   8.399  0.8619  0.3161 -0.1750
  934MOL0     C23208   9.220   2.185   7.736 -0.2758 -0.2707 -0.4469
  934MOL0     C23209   9.092   2.121   7.770 -0.1944 -0.3518 -0.2307
  934MOL0     C23210   8.651   2.047   7.847  0.6951 -0.4086  0.3808
  934MOL0     C23211   8.586   2.164   7.881 -0.8189  0.0703  1.2331
  934MOL0     C23212   8.450   2.164   7.893  0.3800 -0.2264 -0.8783
  934MOL0     C23213   8.373   2.046   7.865 -0.3371 -0.3764  0.3317
  934MOL0     O23214   8.241   2.049   7.879 -0.8427  0.4351  0.5215
  934MOL0     C23215   8.157   1.931   7.850 -0.1802 -0.7439 -1.2058
  934MOL0     C23216   8.117   1.929   7.713  0.0779  0.2250  0.3606
  934MOL0     C23217   7.972   1.971   7.687 -0.3235 -0.7014  0.2666
  934MOL0     C23218   7.874   1.867   7.731 -1.1561  0.4290  0.1128
  934MOL0     C23219   7.732   1.888   7.688 -0.3726  1.5327 -0.7731
  934MOL0     C23220   7.618   1.894   7.658  0.5204  0.0433 -0.4965
  934MOL0     C23221   8.437   1.929   7.824 -0.4355  0.4108 -0.5628
  934MOL0     C23222   8.579   1.927   7.819  0.0728  0.8453 -0.6343
  934MOL0     H23223   8.927   2.384   7.878 -0.5773 -2.1820  1.9570
  934MOL0     H23224   9.166   2.498   7.858 -1.5583 -0.1887 -0.1935
  934MOL0     H23225   9.471   2.426   7.899 -1.3481 -0.0150 -0.3697
  934MOL0     H23226   9.371   2.552   7.829 -2.8029 -1.8738 -0.8689
  934MOL0     H23227   9.530   2.554   7.646  1.1561  0.0131 -0.1839
  934MOL0     H23228   9.637   2.437   7.735 -0.2529  0.2871 -2.5836
  934MOL0     H23229   9.551   2.712   7.853 -0.9340 -1.8316 -0.2501
  934MOL0     H23230   9.702   2.689   7.759  3.0843 -2.9864  1.2620
  934MOL0     H23231   9.653   2.510   7.998 -1.1434 -1.1192 -1.9610
  934MOL0     H23232   9.786   2.528   7.880 -0.1427  2.6382 -2.0692
  934MOL0     H23233   9.694   2.743   8.070 -0.5452  1.5169 -1.2615
  934MOL0     H23234   9.844   2.744   7.976 -1.1517 -0.9545 -1.1601
  934MOL0     H23235   9.944   2.546   8.104  3.5338  3.3200  2.4079
  934MOL0     H23236   9.786   2.550   8.191  0.3602 -1.7665 -2.1825
  934MOL0     H23237  10.017   2.671   8.297 -2.3799 -3.3270  3.2451
  934MOL0     H23238   9.971   2.783   8.178  2.3529 -0.3781  1.7539
  934MOL0     H23239   9.778   2.700   8.407  0.9220 -0.0600  1.1813
  934MOL0     H23240   9.751   2.817   8.287 -1.3007  0.0661  2.4265
  934MOL0     H23241  10.056   2.760   8.546  0.8828  0.5987 -0.8154
  934MOL0     H23242  10.230   2.932   8.652 -1.0358  0.8259  1.8551
  934MOL0     H23243  10.154   3.090   8.683 -0.4000 -0.1815  0.2082
  934MOL0     H23244  10.368   3.117   8.579 -0.3277 -0.5627  0.7266
  934MOL0     H23245  10.246   3.161   8.452 -1.0397 -2.8446 -2.9840
  934MOL0     H23246  10.417   2.916   8.469 -1.1570 -0.5909  1.5551
  934MOL0     H23247  10.266   2.931   8.383 -0.9464  1.1948  0.7316
  934MOL0     H23248  10.500   3.123   8.349 -2.2125  2.4875  3.5920
  934MOL0     H23249  10.364   3.135   8.249  2.3824 -0.8824 -3.0021
  934MOL0     H23250  10.461   2.709   8.275 -0.0517 -0.9099 -0.7187
  934MOL0     H23251  10.346   2.538   8.137 -0.0549  0.0696  0.5319
  934MOL0     H23252  10.362   2.234   7.800  0.5087  2.5002  0.3978
  934MOL0     H23253  10.262   2.060   7.708  1.3914  2.7463 -2.1121
  934MOL0     H23254  10.114   1.860   7.748  1.5536  2.5809 -0.2025
  934MOL0     H23255  10.138   1.903   7.584  1.1880 -0.5377  1.0327
  934MOL0     H23256   9.890   1.772   7.713  1.8033  2.1030  2.2304
  934MOL0     H23257  10.029   1.685   7.647  0.8329  0.0936 -4.3817
  934MOL0     H23258   9.836   1.688   7.486  0.5791 -0.8550  0.5619
  934MOL0     H23259   9.973   1.783   7.421  1.3287 -1.3376  0.8627
  934MOL0     H23260   9.895   1.987   7.463  2.8870 -1.0879  2.1495
  934MOL0     H23261   9.778   1.898   7.371  2.6507  0.5699 -1.0018
  934MOL0     H23262   9.653   2.029   7.530  0.3184  1.0345  2.4765
  934MOL0     H23263   9.747   1.991   7.658 -0.4563 -1.2507  0.5004
  934MOL0     H23264   9.669   1.738   7.628  2.0742  0.5418 -0.5175
  934MOL0     H23265   9.586   1.795   7.483  0.4443  0.2042  0.3338
  934MOL0     H23266   9.510   1.975   7.693 -3.0129  0.4108 -0.8083
  934MOL0     H23267   9.397   1.868   7.602 -0.9926  0.9227  1.1323
  934MOL0     H23268   9.542   1.800   7.861 -0.0407 -1.4365  0.5599
  934MOL0     H23269   9.447   1.682   7.767 -0.6618 -0.9580  2.7367
  934MOL0     H23270   9.874   2.217   7.821  0.1658 -2.1941  1.6523
  934MOL0     H23271   9.980   2.401   7.933 -0.8463  0.0412 -0.3279
  934MOL0     H23272  10.152   2.858   7.927  1.2407  0.9846 -1.7272
  934MOL0     H23273  10.285   3.021   8.038  0.4662 -1.3048 -2.4306
  934MOL0     H23274   9.283   2.120   7.676  0.7361  1.5574 -1.4399
  934MOL0     H23275   9.091   2.019   7.733 -1.9025 -1.1653  1.8754
  934MOL0     H23276   8.630   2.262   7.868 -1.8829  0.6005  1.5068
  934MOL0     H23277   8.398   2.258   7.913 -1.3617 -0.8520 -2.1737
  934MOL0     H23278   8.059   1.936   7.899  0.5358 -3.6293  0.8113
  934MOL0     H23279   8.204   1.842   7.893  1.1136  2.4070  5.1529
  934MOL0     H23280   8.175   2.006   7.661  0.5385  0.9440  1.8822
  934MOL0     H23281   8.140   1.836   7.662 -2.1322  0.0192 -0.3922
  934MOL0     H23282   7.958   1.991   7.580 -1.3916  0.0597  0.5273
  934MOL0     H23283   7.949   2.059   7.747 -1.6995  0.3407 -1.6721
  934MOL0     H23284   7.902   1.769   7.693 -0.0785  0.0311  1.8563
  934MOL0     H23285   7.879   1.862   7.840  1.1133  1.5470  0.1237
  934MOL0     H23286   7.519   1.919   7.624  1.4612  1.2202 -2.5256
  934MOL0     H23287   8.392   1.831   7.814  1.0264 -0.2535 -0.9336
  934MOL0     H23288   8.624   1.835   7.784  0.4278  0.5037  0.6892
  935MOL0     O23289  10.850   1.808   9.828  0.0423 -0.2358  0.4551
  935MOL0     C23290  10.889   1.700   9.883  0.0661  0.2298 -0.2578
  935MOL0     O23291  10.820   1.625   9.976  0.1963 -0.5010  0.3156
  935MOL0     C23292  10.694   1.654  10.014  0.0560 -0.2557  0.9304
  935MOL0     C23293  10.583   1.665   9.922  0.2421 -0.0782  0.8032
  935MOL0     C23294  10.446   1.664   9.962  0.5207  0.9205 -0.4810
  935MOL0     C23295  10.414   1.655  10.100 -1.2815  0.2613  1.1492
  935MOL0     O23296  10.283   1.644  10.131  0.7965 -0.3390 -0.4911
  935MOL0     C23297  10.249   1.579  10.262  0.3075  0.0745 -0.2828
  935MOL0     C23298  10.105   1.515  10.260  0.5494 -0.5203  0.2596
  935MOL0     C23299  10.078   1.455  10.399  0.3567 -0.5085  1.1564
  935MOL0     C23300  10.127   1.307  10.405  0.7025  0.1856 -0.5068
  935MOL0     C23301  10.066   1.230  10.524  0.5441  0.5739 -0.2365
  935MOL0     C23302  10.131   1.270  10.664 -0.1543 -0.4173  0.4881
  935MOL0     C23303  10.085   1.186  10.790  0.7531  0.5322 -0.3357
  935MOL0     C23304   9.975   1.086  10.771 -0.2733  0.0613  0.3663
  935MOL0     N23305   9.972   0.982  10.871  0.2998  0.3599  0.3362
  935MOL0     C23306   9.893   0.871  10.874  0.4051  0.2322  0.2111
  935MOL0     C23307   9.913   0.803  10.993  0.2225 -0.3400  0.4039
  935MOL0     C23308   9.844   0.669  11.034  0.7294  0.7628 -1.1081
  935MOL0     C23309   9.690   0.664  10.998 -0.1797 -1.3982 -0.4522
  935MOL0     C23310   9.631   0.521  11.015 -1.0391  0.4120  0.2030
  935MOL0     C23311   9.485   0.515  10.976  0.2388  0.2214  0.8953
  935MOL0     O23312   9.478   0.498  10.835 -0.5080  0.3596 -0.6536
  935MOL0     C23313   9.396   0.394  10.798 -0.4925  0.3234 -0.6304
  935MOL0     C23314   9.265   0.428  10.771 -0.1603  0.3026  0.3861
  935MOL0     C23315   9.176   0.319  10.735 -0.0193  0.2197  0.0093
  935MOL0     C23316   9.222   0.183  10.732  0.4536 -0.1418 -0.2105
  935MOL0     C23317   9.128   0.076  10.693 -0.3194  1.1195 -0.2982
  935MOL0     O23318   9.001   0.120  10.696 -0.3148  0.8224  0.3970
  935MOL0     C23319   8.895   0.043  10.656 -0.6294  0.2974 -0.7996
  935MOL0     C23320   8.896  -0.084  10.592 -0.5313  0.8908  0.4790
  935MOL0     C23321   8.783  -0.150  10.563 -0.2618  0.1058 -0.7195
  935MOL0     C23322   8.660  -0.100  10.614 -0.3814 -0.6748 -0.4788
  935MOL0     O23323   8.542  -0.174  10.597  0.1201  0.8925 -1.0763
  935MOL0     C23324   8.482  -0.211  10.725  0.4740 -0.2204  0.4497
  935MOL0     C23325   8.399  -0.344  10.716 -0.4384 -0.4055 -0.7914
  935MOL0     C23326   8.283  -0.339  10.618 -1.3620 -0.1654  0.4321
  935MOL0     C23327   8.168  -0.245  10.649  1.2008  0.1200 -0.3547
  935MOL0     C23328   8.160  -0.141  10.534  0.0402 -0.3208 -0.4198
  935MOL0     C23329   8.049  -0.027  10.554 -0.1531 -0.0201 -0.1559
  935MOL0     C23330   8.036   0.052  10.412  0.1251 -0.5270  0.6423
  935MOL0     C23331   7.964   0.186  10.423 -0.2166 -0.1538 -0.8861
  935MOL0    Cl23332   8.019   0.299  10.547 -0.1361 -0.6300 -0.4576
  935MOL0     C23333   8.660   0.028  10.671  0.1504  0.3657  0.4906
  935MOL0     C23334   8.772   0.107  10.687  0.4675  0.4934  0.6017
  935MOL0     O23335   9.167  -0.043  10.679  0.2933  0.0438 -0.4919
  935MOL0     C23336   9.360   0.159  10.772  0.3593 -0.5956  0.0654
  935MOL0     C23337   9.445   0.263  10.806 -0.1804  0.3358 -0.5414
  935MOL0     N23338  10.006   0.877  11.060 -0.3774  0.7356  0.4219
  935MOL0     N23339  10.043   0.974  10.988  0.6256 -0.8657 -0.5472
  935MOL0     C23340  10.522   1.648  10.193 -0.0608 -1.1396  0.6741
  935MOL0     C23341  10.659   1.641  10.152 -0.6616 -0.4863 -0.0484
  935MOL0     C23342  11.016   1.637   9.835  0.7383 -1.2459 -0.0658
  935MOL0     C23343  11.107   1.716   9.763 -0.4670  0.6752  0.4132
  935MOL0     C23344  11.224   1.662   9.721 -0.6512  0.1606  0.2665
  935MOL0     C23345  11.257   1.533   9.734 -0.2245  0.4612  0.1461
  935MOL0     O23346  11.382   1.495   9.685 -0.3062  0.7125  0.0081
  935MOL0     C23347  11.443   1.366   9.735  0.1773 -0.1108 -0.3485
  935MOL0     C23348  11.591   1.361   9.691  0.0825 -0.4335 -0.6308
  935MOL0     C23349  11.677   1.487   9.729 -0.4370  0.3338  0.6410
  935MOL0     C23350  11.814   1.469   9.672 -0.2774  0.1567  0.3559
  935MOL0     C23351  11.896   1.594   9.696  0.2820 -0.3310 -0.8721
  935MOL0     C23352  11.963   1.691   9.706  0.5862  0.0422  0.0985
  935MOL0     C23353  11.156   1.446   9.802  0.0604  0.1012 -0.1100
  935MOL0     C23354  11.038   1.498   9.857 -0.6326  0.2443  0.1229
  935MOL0     H23355  10.607   1.685   9.819  0.0076  2.6535  1.1895
  935MOL0     H23356  10.365   1.679   9.892 -0.8154 -0.6319  0.6718
  935MOL0     H23357  10.258   1.649  10.345 -2.3312  0.4329 -0.2125
  935MOL0     H23358  10.326   1.502  10.270  0.0929 -0.4639 -2.5528
  935MOL0     H23359  10.099   1.439  10.182  2.2162  0.7005 -1.1353
  935MOL0     H23360  10.024   1.586  10.239  2.0214  1.0234 -0.3697
  935MOL0     H23361   9.970   1.462  10.411  0.2242 -1.9111  0.9151
  935MOL0     H23362  10.123   1.525  10.470  2.5541 -0.3471 -0.2985
  935MOL0     H23363  10.091   1.259  10.314  0.5637  2.7383 -1.9045
  935MOL0     H23364  10.235   1.291  10.419  0.3116 -0.3237  2.7428
  935MOL0     H23365  10.083   1.123  10.510  0.0689  0.0293  2.7359
  935MOL0     H23366   9.959   1.250  10.531  0.4406  0.2918 -0.9313
  935MOL0     H23367  10.107   1.375  10.683 -1.3281 -1.0155  2.5733
  935MOL0     H23368  10.240   1.262  10.661 -0.1750 -2.3606  2.6313
  935MOL0     H23369  10.172   1.130  10.825  0.4951  0.6933  0.6061
  935MOL0     H23370  10.064   1.259  10.869  0.8621 -0.2103  0.3911
  935MOL0     H23371   9.976   1.041  10.672  4.5061  1.1300 -0.3095
  935MOL0     H23372   9.885   1.148  10.768 -0.1425  0.3143  1.3020
  935MOL0     H23373   9.825   0.850  10.793  2.3894 -3.1364 -0.7997
  935MOL0     H23374   9.841   0.651  11.142 -1.6141  1.5637 -1.0040
  935MOL0     H23375   9.893   0.588  10.978 -2.5948 -0.6471 -2.1898
  935MOL0     H23376   9.676   0.691  10.893  0.2652 -0.9674 -0.4106
  935MOL0     H23377   9.628   0.735  11.054  0.6648  0.1679 -1.4003
  935MOL0     H23378   9.677   0.451  10.946 -2.3912  0.2863 -0.6125
  935MOL0     H23379   9.645   0.486  11.118  0.6054  0.5906  0.0566
  935MOL0     H23380   9.429   0.605  11.002  2.0183  1.8934 -0.7319
  935MOL0     H23381   9.439   0.433  11.031  1.5883 -0.2491  1.3613
  935MOL0     H23382   9.245   0.534  10.763 -1.0743  0.1919  0.9762
  935MOL0     H23383   9.074   0.344  10.707  0.8417  1.3664 -2.3399
  935MOL0     H23384   8.991  -0.124  10.560 -1.3517 -1.0118  0.2967
  935MOL0     H23385   8.784  -0.243  10.507 -0.6486  0.9621 -2.2283
  935MOL0     H23386   8.414  -0.127  10.743 -0.3409 -1.0804  1.6428
  935MOL0     H23387   8.546  -0.198  10.813  1.7852  0.4932 -0.5903
  935MOL0     H23388   8.359  -0.355  10.817 -1.0254  0.7962 -0.8750
  935MOL0     H23389   8.458  -0.432  10.688 -3.1181 -3.0809  1.2604
  935MOL0     H23390   8.245  -0.441  10.609 -0.5228 -0.8359  3.4184
  935MOL0     H23391   8.328  -0.303  10.525 -0.0259 -1.6503  0.4668
  935MOL0     H23392   8.080  -0.308  10.667  0.9577  0.5748  0.0830
  935MOL0     H23393   8.192  -0.191  10.741 -2.0151  2.6368 -0.8168
  935MOL0     H23394   8.129  -0.187  10.440 -0.7568 -0.7979  0.0741
  935MOL0     H23395   8.262  -0.102  10.520 -0.9978  2.3870 -1.1094
  935MOL0     H23396   8.084   0.037  10.635 -1.7312 -2.8335  3.0040
  935MOL0     H23397   7.951  -0.056  10.593  0.1164  3.7554  4.2807
  935MOL0     H23398   8.132   0.048  10.360 -0.7078 -0.6236 -0.9509
  935MOL0     H23399   7.975  -0.004  10.342 -2.7679  1.9929  0.9221
  935MOL0     H23400   7.859   0.157  10.435 -0.5052  1.6375  1.7475
  935MOL0     H23401   7.978   0.232  10.324  0.1111 -4.4781 -3.1027
  935MOL0     H23402   8.562   0.071  10.692 -2.4943 -1.2218 -6.0118
  935MOL0     H23403   8.751   0.206  10.727 -3.1687 -0.1872  0.7130
  935MOL0     H23404   9.410   0.064  10.783 -1.2905 -1.3884  1.0007
  935MOL0     H23405   9.551   0.258  10.828 -0.0462  1.3711 -0.8690
  935MOL0     H23406  10.514   1.626  10.298 -0.8132  0.9957  1.1188
  935MOL0     H23407  10.727   1.612  10.231  0.4094  0.9399 -0.4067
  935MOL0     H23408  11.091   1.823   9.752  1.3488  0.8475 -0.9563
  935MOL0     H23409  11.307   1.726   9.695  1.8072 -2.7716  0.4599
  935MOL0     H23410  11.392   1.281   9.689  4.3506 -1.6506 -2.6990
  935MOL0     H23411  11.438   1.364   9.844 -1.7332 -3.0280 -0.3781
  935MOL0     H23412  11.651   1.279   9.731 -0.2057 -1.5358 -2.3446
  935MOL0     H23413  11.597   1.343   9.583 -1.5513  0.6308 -0.9193
  935MOL0     H23414  11.692   1.489   9.837  0.8725 -1.4623  0.5433
  935MOL0     H23415  11.636   1.575   9.679 -0.4586  0.6316  1.1797
  935MOL0     H23416  11.857   1.382   9.722  0.8352  1.3664  1.5808
  935MOL0     H23417  11.813   1.445   9.565 -1.8547 -0.2664  0.4454
  935MOL0     H23418  12.028   1.775   9.711  1.2568 -0.4848  0.4087
  935MOL0     H23419  11.165   1.338   9.804 -1.9899 -0.2541 -3.0150
  935MOL0     H23420  10.967   1.442   9.917 -0.0588  0.9273  1.4594
  936MOL0     O23421   2.751   1.182   0.717 -1.1739  0.7539 -0.4749
  936MOL0     C23422   2.668   1.108   0.775 -0.3724 -1.3097 -0.3477
  936MOL0     O23423   2.697   0.990   0.842 -0.2281  0.6038 -0.6823
  936MOL0     C23424   2.825   0.933   0.845  0.3570 -0.4314  0.1725
  936MOL0     C23425   2.876   0.872   0.733  0.4303  0.0369 -0.7855
  936MOL0     C23426   3.002   0.817   0.745 -0.2055  0.1715  0.1818
  936MOL0     C23427   3.085   0.831   0.848  0.8815 -0.4844 -0.1053
  936MOL0     O23428   3.203   0.769   0.851 -0.4261  0.0588  1.1220
  936MOL0     C23429   3.200   0.629   0.869  0.4634 -0.3420 -0.6062
  936MOL0     C23430   3.335   0.560   0.856  0.3504 -1.3931 -0.5198
  936MOL0     C23431   3.319   0.414   0.848 -0.0278 -0.5414 -0.1995
  936MOL0     C23432   3.454   0.336   0.836 -0.4296  0.2791 -0.1637
  936MOL0     C23433   3.565   0.374   0.943  0.1807 -0.3262 -0.2445
  936MOL0     C23434   3.708   0.318   0.924 -0.4125 -0.2485 -0.0504
  936MOL0     C23435   3.795   0.310   1.056  0.3634 -0.3663  0.1490
  936MOL0     C23436   3.918   0.235   1.027  0.2432 -0.3297  1.0015
  936MOL0     N23437   4.023   0.307   0.947 -0.0107  0.1490  0.0763
  936MOL0     C23438   4.149   0.331   1.002 -0.0118  0.1512  0.3754
  936MOL0     C23439   4.226   0.363   0.893 -0.7502  0.4710  0.6965
  936MOL0     C23440   4.376   0.394   0.890  0.6797  1.3301 -0.4870
  936MOL0     C23441   4.401   0.532   0.946  0.3902  0.1520 -0.4814
  936MOL0     C23442   4.553   0.566   0.966 -0.3004  0.7557 -0.0627
  936MOL0     C23443   4.598   0.716   0.996  0.0394  0.9364  0.5724
  936MOL0     O23444   4.695   0.712   1.107 -0.2006 -0.3476 -0.0828
  936MOL0     C23445   4.828   0.698   1.078  0.0903 -0.6270  0.5678
  936MOL0     C23446   4.884   0.691   0.950 -0.8646 -0.7776  0.2890
  936MOL0     C23447   5.022   0.683   0.936 -0.4625 -0.5064  0.2481
  936MOL0     C23448   5.108   0.688   1.043  0.1440  0.4773 -0.3891
  936MOL0     C23449   5.254   0.678   1.031  0.7562  0.1132 -0.3282
  936MOL0     O23450   5.331   0.711   1.135 -0.1872 -0.2458 -0.0750
  936MOL0     C23451   5.466   0.693   1.138 -0.3714  0.8181  0.9129
  936MOL0     C23452   5.521   0.566   1.129  0.3011  0.9201  0.1037
  936MOL0     C23453   5.656   0.539   1.145  0.4312  0.5073  0.0095
  936MOL0     C23454   5.743   0.642   1.150  0.0816 -0.1122 -0.3659
  936MOL0     O23455   5.877   0.615   1.151 -0.0896  0.1908 -0.4701
  936MOL0     C23456   5.973   0.715   1.177  0.0830 -0.4951 -0.2841
  936MOL0     C23457   6.104   0.678   1.126 -0.9235  0.1848 -1.0821
  936MOL0     C23458   6.177   0.557   1.180 -0.2329  0.4418 -1.0176
  936MOL0     C23459   6.098   0.432   1.164 -0.1357  0.5266 -0.3253
  936MOL0     C23460   6.198   0.304   1.181  0.1018  0.2359  0.1670
  936MOL0     C23461   6.250   0.273   1.321  0.1750  0.3529 -0.1818
  936MOL0     C23462   6.146   0.237   1.425  0.3172 -0.1674  0.3888
  936MOL0     C23463   6.195   0.260   1.568 -0.1667 -0.6368  1.3729
  936MOL0    Cl23464   6.352   0.185   1.596 -0.1193 -0.2505  0.3507
  936MOL0     C23465   5.695   0.777   1.165 -0.6568 -0.6572  0.4070
  936MOL0     C23466   5.555   0.801   1.147  0.0978  0.4362  0.9598
  936MOL0     O23467   5.300   0.655   0.922  0.4209 -0.7173  0.1771
  936MOL0     C23468   5.056   0.692   1.168 -0.1859 -0.3680 -1.1912
  936MOL0     C23469   4.920   0.707   1.187  1.0713  0.5952  0.0074
  936MOL0     N23470   4.144   0.371   0.777  0.6303 -0.4629 -0.2556
  936MOL0     N23471   4.029   0.330   0.815  0.3494 -0.5877 -1.1400
  936MOL0     C23472   3.028   0.897   0.961 -0.7331  0.1311 -0.3799
  936MOL0     C23473   2.900   0.947   0.961 -0.8605  0.0673  1.0906
  936MOL0     C23474   2.528   1.175   0.784  0.1657 -0.0661 -0.7692
  936MOL0     C23475   2.439   1.131   0.885  0.8861  0.4027 -0.0420
  936MOL0     C23476   2.325   1.214   0.929 -0.7728  0.7183  0.2818
  936MOL0     C23477   2.305   1.336   0.862  1.1952  0.6170 -0.3685
  936MOL0     O23478   2.206   1.424   0.899 -0.5601 -0.3809  0.1818
  936MOL0     C23479   2.088   1.383   0.961 -0.2203 -0.0963  0.1075
  936MOL0     C23480   2.019   1.300   0.855 -0.2897  0.0009  0.3661
  936MOL0     C23481   1.878   1.270   0.885  0.6482  0.2571  0.3872
  936MOL0     C23482   1.847   1.193   1.021 -0.8299  0.0940  0.4821
  936MOL0     C23483   1.919   1.059   1.024  0.6298 -0.3565  0.1492
  936MOL0     C23484   1.988   0.960   1.038  0.9013  0.8448 -1.3920
  936MOL0     C23485   2.392   1.370   0.754 -0.3560  0.1451  0.3038
  936MOL0     C23486   2.503   1.297   0.724  0.4409 -0.4757 -0.7460
  936MOL0     H23487   2.815   0.864   0.643  0.3605  0.0201 -0.7368
  936MOL0     H23488   3.039   0.753   0.665 -1.1201  0.3779 -0.4280
  936MOL0     H23489   3.136   0.571   0.801 -3.7545  0.1558  2.5027
  936MOL0     H23490   3.166   0.610   0.971 -1.1471 -1.0293 -1.2293
  936MOL0     H23491   3.400   0.590   0.939  2.8124 -0.5015 -2.6146
  936MOL0     H23492   3.389   0.592   0.767 -0.1625 -0.2909 -0.4440
  936MOL0     H23493   3.262   0.384   0.760  2.3801 -0.5369 -1.8491
  936MOL0     H23494   3.264   0.387   0.939  1.2402  0.2424  0.8328
  936MOL0     H23495   3.441   0.227   0.829 -2.5374  0.2321  2.7771
  936MOL0     H23496   3.498   0.361   0.739  1.3316 -1.1903  0.2104
  936MOL0     H23497   3.525   0.334   1.037 -0.9556  2.9323  0.7840
  936MOL0     H23498   3.571   0.482   0.962  0.7123 -0.4494  0.3298
  936MOL0     H23499   3.762   0.372   0.846  0.6709 -0.6533  0.4007
  936MOL0     H23500   3.697   0.213   0.897 -0.3078 -0.9429  2.3809
  936MOL0     H23501   3.827   0.413   1.071  2.2201 -0.8677 -0.0998
  936MOL0     H23502   3.751   0.280   1.151  1.3834 -0.4273  0.6151
  936MOL0     H23503   3.909   0.145   0.965  1.6557  1.6508 -2.3938
  936MOL0     H23504   3.955   0.204   1.125  1.8271  0.2208  0.6038
  936MOL0     H23505   4.191   0.326   1.102  4.1165  0.7856 -1.1169
  936MOL0     H23506   4.413   0.379   0.788 -0.0199 -0.3947 -0.5347
  936MOL0     H23507   4.422   0.334   0.970 -1.1729  2.1651  1.2983
  936MOL0     H23508   4.351   0.538   1.043 -0.8169  3.1582 -1.1557
  936MOL0     H23509   4.359   0.605   0.876  0.9323  0.7552 -0.1910
  936MOL0     H23510   4.593   0.498   1.041 -2.0752 -1.3061 -0.9003
  936MOL0     H23511   4.592   0.538   0.867  0.0579  1.2984 -0.0794
  936MOL0     H23512   4.508   0.766   1.030 -0.1973  1.9273 -1.4124
  936MOL0     H23513   4.627   0.765   0.903 -0.1443 -0.4003 -0.2246
  936MOL0     H23514   4.822   0.703   0.862 -1.4332  0.6491  0.8564
  936MOL0     H23515   5.055   0.680   0.833  0.1333  1.1494  0.3567
  936MOL0     H23516   5.453   0.482   1.116  3.7789 -1.9912 -1.0140
  936MOL0     H23517   5.694   0.438   1.145 -0.0164  0.2900  2.5444
  936MOL0     H23518   5.971   0.736   1.285  0.4780 -2.1897  0.0813
  936MOL0     H23519   5.947   0.811   1.130 -0.5230 -1.5021 -2.0807
  936MOL0     H23520   6.174   0.755   1.161  0.4263 -1.4681  0.0559
  936MOL0     H23521   6.104   0.681   1.017 -0.5891  2.2929 -1.0685
  936MOL0     H23522   6.183   0.585   1.285  0.1371  0.8367 -1.1413
  936MOL0     H23523   6.273   0.549   1.128  0.4386 -1.8987  0.4163
  936MOL0     H23524   6.025   0.437   1.246  3.3076  0.4311  3.0398
  936MOL0     H23525   6.046   0.422   1.068  1.4307 -0.9837 -1.0667
  936MOL0     H23526   6.278   0.320   1.109 -0.3220 -2.4400 -1.0018
  936MOL0     H23527   6.150   0.218   1.135  1.5014  1.0104 -3.0469
  936MOL0     H23528   6.302   0.361   1.360  2.3528 -2.1425  3.1205
  936MOL0     H23529   6.315   0.185   1.311 -0.1651  0.2075 -1.3520
  936MOL0     H23530   6.058   0.302   1.410  1.0017  0.5363 -0.7017
  936MOL0     H23531   6.118   0.135   1.399 -1.4282  0.8042 -1.9288
  936MOL0     H23532   6.119   0.224   1.639 -2.5469 -0.5065 -0.9403
  936MOL0     H23533   6.204   0.368   1.582  0.0433 -0.7465  2.1317
  936MOL0     H23534   5.753   0.868   1.175 -1.5011 -0.1976  1.2809
  936MOL0     H23535   5.508   0.898   1.142  0.9242  0.7914 -0.4435
  936MOL0     H23536   5.114   0.695   1.260 -1.5577  0.4748 -0.3021
  936MOL0     H23537   4.886   0.710   1.290 -0.9909 -0.4116 -0.5941
  936MOL0     H23538   3.085   0.894   1.053 -3.4669 -2.8347  1.4566
  936MOL0     H23539   2.860   1.000   1.047 -4.1453 -2.4510  1.3068
  936MOL0     H23540   2.467   1.045   0.946 -2.6885 -1.0095 -0.1027
  936MOL0     H23541   2.268   1.167   1.009 -1.9260 -1.2420 -1.6007
  936MOL0     H23542   2.025   1.470   0.979  0.1288  1.0616 -3.4592
  936MOL0     H23543   2.098   1.330   1.057 -1.3488  2.8414  1.9812
  936MOL0     H23544   2.018   1.353   0.759  0.7754  0.9546  0.8629
  936MOL0     H23545   2.057   1.199   0.838 -0.7663  0.1528 -1.9075
  936MOL0     H23546   1.834   1.216   0.800 -1.4558 -0.2829  1.7286
  936MOL0     H23547   1.817   1.361   0.884 -1.8445 -1.3031 -0.3974
  936MOL0     H23548   1.847   1.246   1.116 -0.5190  2.8066 -0.9236
  936MOL0     H23549   1.741   1.167   1.017 -0.2121 -2.5751 -1.5517
  936MOL0     H23550   2.044   0.869   1.037  1.5404  1.1981 -0.2885
  936MOL0     H23551   2.378   1.467   0.707 -1.7653 -0.6096 -0.9086
  936MOL0     H23552   2.575   1.344   0.657  1.2367  0.9361  1.0375
  937MOL0     O23553   8.049   2.832   7.051  0.6280 -0.1825  0.3337
  937MOL0     C23554   8.011   2.927   7.125 -0.3914  0.3395 -0.3921
  937MOL0     O23555   7.890   2.944   7.177 -0.3209 -0.2593 -0.3425
  937MOL0     C23556   7.796   2.845   7.133 -0.5960 -0.3353 -0.4799
  937MOL0     C23557   7.733   2.764   7.230  0.1323 -0.2505 -0.1449
  937MOL0     C23558   7.644   2.664   7.186 -0.1330 -0.3074  0.0267
  937MOL0     C23559   7.614   2.650   7.050 -0.2018  0.4765 -0.1742
  937MOL0     O23560   7.502   2.574   7.021  0.2375  0.2599  0.3445
  937MOL0     C23561   7.507   2.500   6.899 -0.2536 -0.3057  0.1335
  937MOL0     C23562   7.368   2.451   6.887  0.3304  0.3078 -0.2116
  937MOL0     C23563   7.271   2.561   6.830  0.0969 -0.0002 -0.3168
  937MOL0     C23564   7.118   2.547   6.862 -0.8603  0.4729  0.4849
  937MOL0     C23565   7.026   2.663   6.820 -0.6414  0.7217  0.5926
  937MOL0     C23566   6.905   2.662   6.905  0.0476  0.9839 -0.4355
  937MOL0     C23567   6.819   2.792   6.869 -1.9002 -0.0112  0.2867
  937MOL0     C23568   6.690   2.774   6.940  0.3607  0.0489 -0.3689
  937MOL0     N23569   6.609   2.896   6.926 -0.5828  0.8719 -0.4882
  937MOL0     C23570   6.517   2.922   6.830 -0.1429 -0.2824  0.7549
  937MOL0     C23571   6.434   3.006   6.887  0.1976 -0.5332 -0.0079
  937MOL0     C23572   6.329   3.089   6.809  0.4030  0.5083 -1.1463
  937MOL0     C23573   6.241   3.174   6.907 -0.0983 -0.3481  0.5517
  937MOL0     C23574   6.133   3.255   6.832  0.6020 -0.0505 -0.4922
  937MOL0     C23575   6.063   3.343   6.931  0.3226  0.8211 -0.4858
  937MOL0     O23576   5.947   3.383   6.856 -0.5660  0.1979  0.0304
  937MOL0     C23577   5.840   3.432   6.926  0.1892 -1.4101  0.3650
  937MOL0     C23578   5.720   3.475   6.865  0.4900  0.0617 -0.4126
  937MOL0     C23579   5.616   3.523   6.934  1.1576  1.2912  1.2224
  937MOL0     C23580   5.611   3.536   7.072  0.2931 -1.9473 -0.1058
  937MOL0     C23581   5.493   3.592   7.137 -0.0712 -0.4190 -0.1567
  937MOL0     O23582   5.516   3.688   7.232  0.4466 -0.1267 -0.5415
  937MOL0     C23583   5.413   3.762   7.294 -0.9482  0.4123  0.3406
  937MOL0     C23584   5.466   3.874   7.364  0.1310 -0.3216 -0.6550
  937MOL0     C23585   5.378   3.968   7.422  0.5734  0.0412 -1.1463
  937MOL0     C23586   5.239   3.947   7.425 -1.1286 -0.5661 -0.4431
  937MOL0     O23587   5.142   4.033   7.488 -0.1151  0.2703 -0.3122
  937MOL0     C23588   5.200   4.153   7.547 -0.1752 -0.7565  0.4249
  937MOL0     C23589   5.085   4.237   7.607 -0.2295 -0.6267 -0.5429
  937MOL0     C23590   5.079   4.202   7.757 -0.9814 -1.0598  0.8058
  937MOL0     C23591   4.996   4.300   7.842 -0.3833  0.1499  0.2743
  937MOL0     C23592   4.948   4.234   7.977  0.3665 -0.3372  0.1491
  937MOL0     C23593   4.821   4.305   8.027 -0.0873 -0.7412 -0.8848
  937MOL0     C23594   4.840   4.315   8.179  0.2356 -0.3217  0.1204
  937MOL0     C23595   4.732   4.389   8.249  0.4861  0.4006 -0.0595
  937MOL0    Cl23596   4.570   4.320   8.214  0.1590  0.3123  0.4959
  937MOL0     C23597   5.194   3.837   7.357  0.4096 -0.7175 -0.1582
  937MOL0     C23598   5.279   3.746   7.289  0.0345 -0.4671 -1.1285
  937MOL0     O23599   5.383   3.572   7.090 -0.1817  1.0807 -0.3359
  937MOL0     C23600   5.732   3.510   7.139 -0.4972 -0.1446  0.3183
  937MOL0     C23601   5.838   3.453   7.068 -1.1592  0.5572 -0.7584
  937MOL0     N23602   6.479   3.023   7.014 -0.1229 -0.0071 -0.9553
  937MOL0     N23603   6.583   2.959   7.034 -0.2158  0.3394 -0.3213
  937MOL0     C23604   7.673   2.737   6.957  0.4622 -0.1060  0.3264
  937MOL0     C23605   7.759   2.831   7.001 -0.8134  0.0796  0.1350
  937MOL0     C23606   8.116   3.025   7.161  0.4728  0.8410  0.3655
  937MOL0     C23607   8.078   3.141   7.224  0.5414 -0.5239  0.1576
  937MOL0     C23608   8.174   3.235   7.260  0.8325 -0.1868 -0.7873
  937MOL0     C23609   8.310   3.211   7.243 -1.2233 -0.9293  0.2020
  937MOL0     O23610   8.399   3.322   7.264  0.3993  0.3695 -0.1790
  937MOL0     C23611   8.541   3.291   7.267 -0.0489 -0.0581 -0.1240
  937MOL0     C23612   8.613   3.421   7.310  0.2984 -0.2216 -0.4473
  937MOL0     C23613   8.763   3.404   7.293  0.3320 -0.1561 -0.8748
  937MOL0     C23614   8.842   3.531   7.307  0.0598  0.8525  0.1763
  937MOL0     C23615   8.851   3.609   7.186  0.4477 -0.3090 -0.3592
  937MOL0     C23616   8.862   3.672   7.085  0.6316 -0.7719  0.3291
  937MOL0     C23617   8.356   3.088   7.185 -0.4412  0.5721  0.2120
  937MOL0     C23618   8.258   3.000   7.140 -0.3910 -0.0704 -0.2495
  937MOL0     H23619   7.754   2.757   7.337 -2.6943  0.8789  0.5879
  937MOL0     H23620   7.598   2.596   7.258  2.4637  1.7591  4.0119
  937MOL0     H23621   7.571   2.414   6.920 -1.6232 -1.3475  0.2180
  937MOL0     H23622   7.548   2.555   6.814  0.8059  2.0357  2.0634
  937MOL0     H23623   7.338   2.411   6.984 -1.7309 -1.0018 -1.3085
  937MOL0     H23624   7.368   2.359   6.828  0.6014  0.9906 -1.3195
  937MOL0     H23625   7.273   2.583   6.722 -0.1502 -1.0591 -0.5472
  937MOL0     H23626   7.297   2.656   6.878 -0.0300 -0.0174 -0.2114
  937MOL0     H23627   7.089   2.448   6.827  1.5858 -0.4505  0.8274
  937MOL0     H23628   7.108   2.535   6.971  0.5966 -0.0945  0.5842
  937MOL0     H23629   7.003   2.652   6.713  0.8234 -0.1930  0.3339
  937MOL0     H23630   7.082   2.756   6.836  1.4098 -0.5083  0.8384
  937MOL0     H23631   6.936   2.663   7.010 -0.2602 -0.8058 -0.2949
  937MOL0     H23632   6.851   2.572   6.873  1.5451  0.9058 -3.0368
  937MOL0     H23633   6.876   2.871   6.918  0.4239 -0.8527 -0.9095
  937MOL0     H23634   6.825   2.809   6.761 -0.7674 -0.9541  0.1763
  937MOL0     H23635   6.714   2.756   7.045  0.3692 -1.7310 -0.6355
  937MOL0     H23636   6.619   2.698   6.905 -0.1011  0.7414 -0.9646
  937MOL0     H23637   6.516   2.877   6.731  1.4799 -0.3050  0.7283
  937MOL0     H23638   6.266   3.022   6.750 -0.2727  2.3462 -2.6417
  937MOL0     H23639   6.368   3.170   6.746  0.2881  2.0345  0.6324
  937MOL0     H23640   6.304   3.241   6.966  1.2670  1.8628 -3.0407
  937MOL0     H23641   6.188   3.109   6.977  0.9094  0.4594  2.1001
  937MOL0     H23642   6.184   3.322   6.761  1.6862  1.0158  1.2301
  937MOL0     H23643   6.060   3.197   6.775  2.9286  0.6164 -4.5470
  937MOL0     H23644   6.121   3.426   6.972 -2.5591  2.9399 -0.3927
  937MOL0     H23645   6.028   3.272   7.006 -2.6510 -0.1458 -2.6181
  937MOL0     H23646   5.717   3.470   6.757 -1.3784  2.8150 -0.6005
  937MOL0     H23647   5.524   3.551   6.883 -0.2859 -1.7481  1.9118
  937MOL0     H23648   5.572   3.883   7.387 -0.3740 -1.6401  2.7208
  937MOL0     H23649   5.421   4.058   7.466 -0.5575  1.4878 -2.8339
  937MOL0     H23650   5.250   4.202   7.463 -0.9338 -0.1705  0.2994
  937MOL0     H23651   5.277   4.124   7.619  0.4720  0.3767  0.2109
  937MOL0     H23652   4.986   4.224   7.563 -0.7744  0.2336  0.3813
  937MOL0     H23653   5.115   4.342   7.601  1.1511 -0.8716  1.1029
  937MOL0     H23654   5.186   4.203   7.782  0.2225 -1.2689 -3.5689
  937MOL0     H23655   5.050   4.097   7.764 -0.2663 -1.2406  1.1565
  937MOL0     H23656   5.064   4.381   7.868 -0.5685 -0.1486  1.7571
  937MOL0     H23657   4.909   4.334   7.784 -1.0862  0.4808  1.4948
  937MOL0     H23658   5.022   4.246   8.056 -2.0674  0.7812  2.4419
  937MOL0     H23659   4.924   4.128   7.966 -0.4498 -0.6017  3.3705
  937MOL0     H23660   4.724   4.259   8.004 -0.1315 -1.8717  1.3020
  937MOL0     H23661   4.832   4.411   8.003  0.6348 -0.0145  2.2494
  937MOL0     H23662   4.841   4.213   8.216  2.8615 -0.3295  0.1845
  937MOL0     H23663   4.936   4.362   8.202  1.6249 -3.1750  0.4967
  937MOL0     H23664   4.745   4.491   8.211  2.8011 -0.3323 -1.4281
  937MOL0     H23665   4.753   4.405   8.355  1.2798  2.2718 -0.4562
  937MOL0     H23666   5.088   3.825   7.338  0.3772  0.9608 -1.1809
  937MOL0     H23667   5.232   3.660   7.243  0.2800 -1.6591  0.7220
  937MOL0     H23668   5.750   3.524   7.245  0.8655 -0.3257  0.1237
  937MOL0     H23669   5.927   3.444   7.129 -1.9296  0.2370  0.3553
  937MOL0     H23670   7.643   2.743   6.853  3.4251  2.8347 -0.5046
  937MOL0     H23671   7.800   2.903   6.932  0.2219  0.2195  0.8843
  937MOL0     H23672   7.973   3.159   7.243  0.9393  0.7624  1.2850
  937MOL0     H23673   8.147   3.325   7.316 -1.0996  0.4140 -2.5447
  937MOL0     H23674   8.573   3.260   7.168  0.1188 -0.2285 -0.0170
  937MOL0     H23675   8.552   3.216   7.345 -1.3735 -3.0345 -2.5962
  937MOL0     H23676   8.584   3.501   7.241  0.1678 -1.9592 -2.5144
  937MOL0     H23677   8.584   3.450   7.412 -2.4124  0.2057 -1.2521
  937MOL0     H23678   8.799   3.345   7.209  3.9890  1.3778 -0.5808
  937MOL0     H23679   8.805   3.353   7.380 -2.0696 -0.0033  0.4500
  937MOL0     H23680   8.780   3.583   7.381  0.0100 -0.1507  0.8769
  937MOL0     H23681   8.940   3.504   7.347  0.3589 -1.5019 -1.9285
  937MOL0     H23682   8.876   3.718   6.990 -1.4291 -2.2323 -0.7613
  937MOL0     H23683   8.463   3.070   7.174  0.0277  2.3060  1.4126
  937MOL0     H23684   8.287   2.897   7.121 -0.9665 -0.2777 -0.0354
  938MOL0     O23685   4.021   6.788   9.643 -0.3554  0.4083 -0.0156
  938MOL0     C23686   4.065   6.828   9.751  0.3807 -0.3942  0.1413
  938MOL0     O23687   4.001   6.828   9.876  0.1947 -0.2645 -0.3824
  938MOL0     C23688   3.862   6.810   9.879 -0.3599 -0.2850 -0.1458
  938MOL0     C23689   3.813   6.758  10.003  0.2901 -0.8245 -0.2190
  938MOL0     C23690   3.684   6.796  10.040  0.3849  0.2017 -0.6264
  938MOL0     C23691   3.601   6.863   9.953  0.8535  0.2539 -0.4234
  938MOL0     O23692   3.476   6.906   9.978  0.8151 -0.0899  0.1591
  938MOL0     C23693   3.369   6.832  10.038  0.9700  0.6235  0.7705
  938MOL0     C23694   3.270   6.942  10.077  0.5442  0.1960 -1.4181
  938MOL0     C23695   3.211   7.023   9.954 -0.0331 -0.3705  0.1635
  938MOL0     C23696   3.131   7.150   9.988  0.5050  0.1882 -0.5199
  938MOL0     C23697   2.975   7.123   9.986  0.5292  0.7994  0.0477
  938MOL0     C23698   2.938   6.992  10.053  0.4507  0.4714 -0.1134
  938MOL0     C23699   2.786   6.976  10.078  0.2863  0.2291  0.2496
  938MOL0     C23700   2.687   7.005   9.963 -0.3961  0.5734  0.2364
  938MOL0     N23701   2.543   6.979  10.000  0.0348 -0.7124  0.5918
  938MOL0     C23702   2.488   6.871  10.071 -1.0375  0.0355 -0.0949
  938MOL0     C23703   2.360   6.902  10.093  0.8996 -0.3186  0.0036
  938MOL0     C23704   2.265   6.810  10.155  0.1182 -0.1847  0.3265
  938MOL0     C23705   2.214   6.710  10.055  0.2230 -0.5555  0.2249
  938MOL0     C23706   2.150   6.769   9.920 -0.5697 -0.2059 -0.3062
  938MOL0     C23707   2.003   6.790   9.939 -0.1547 -0.5531 -0.1028
  938MOL0     O23708   1.951   6.880   9.839  0.0824 -0.6649 -0.2930
  938MOL0     C23709   1.824   6.854   9.806 -0.0910  0.2006 -0.6607
  938MOL0     C23710   1.784   6.736   9.729  0.4074  0.2777 -0.0501
  938MOL0     C23711   1.655   6.703   9.704  0.1423 -1.0705  1.1769
  938MOL0     C23712   1.554   6.791   9.744  0.4176  0.0371 -0.2229
  938MOL0     C23713   1.411   6.764   9.701 -0.3425 -0.5320  0.5333
  938MOL0     O23714   1.318   6.835   9.779 -0.5512 -0.0744 -0.3527
  938MOL0     C23715   1.182   6.839   9.742  0.1519 -0.5494 -0.1011
  938MOL0     C23716   1.116   6.958   9.759 -0.9913  0.0773  0.6831
  938MOL0     C23717   0.981   6.968   9.746  0.2336  0.1728  0.2602
  938MOL0     C23718   0.903   6.866   9.681  0.4346 -0.8795 -0.4440
  938MOL0     O23719   0.771   6.891   9.664  1.1708 -0.3877 -0.9007
  938MOL0     C23720   0.688   6.805   9.578  0.4601 -0.3017 -0.5051
  938MOL0     C23721   0.539   6.851   9.582  0.0866  0.5169 -0.1878
  938MOL0     C23722   0.458   6.795   9.707 -0.7658  0.1623  0.9133
  938MOL0     C23723   0.321   6.849   9.703  1.3951 -1.0588 -0.9935
  938MOL0     C23724   0.221   6.775   9.622 -0.0707 -0.2896 -0.0736
  938MOL0     C23725   0.077   6.809   9.658  0.4660  0.0355 -0.4183
  938MOL0     C23726  -0.020   6.749   9.556  0.7070  0.3479 -0.0656
  938MOL0     C23727  -0.164   6.770   9.598  0.5072 -0.4006 -0.5305
  938MOL0    Cl23728  -0.201   6.938   9.550  0.2181 -0.1015 -0.2296
  938MOL0     C23729   0.973   6.746   9.657 -0.0465 -0.9735 -0.3480
  938MOL0     C23730   1.108   6.732   9.681 -0.2453  0.0034 -0.2453
  938MOL0     O23731   1.385   6.697   9.606 -0.0845  0.4756 -0.4538
  938MOL0     C23732   1.592   6.902   9.812 -0.1758  1.3238 -0.2643
  938MOL0     C23733   1.730   6.939   9.845  0.0343 -0.0577 -0.3507
  938MOL0     N23734   2.331   7.026  10.040 -0.2820  0.0914 -0.6521
  938MOL0     N23735   2.440   7.069   9.982  0.6757 -0.1545 -0.0407
  938MOL0     C23736   3.652   6.908   9.831 -0.2224  0.6980 -0.2372
  938MOL0     C23737   3.780   6.876   9.788 -0.9812 -0.7795 -0.3653
  938MOL0     C23738   4.206   6.872   9.748  0.3993  0.0680  0.3432
  938MOL0     C23739   4.279   6.917   9.629 -0.2365  0.2913 -0.1523
  938MOL0     C23740   4.419   6.929   9.650  0.0127  0.2621 -0.6237
  938MOL0     C23741   4.486   6.891   9.767  0.4558 -0.2668  0.1147
  938MOL0     O23742   4.620   6.903   9.770  0.3925  0.0645  0.0499
  938MOL0     C23743   4.658   7.032   9.796 -0.1534 -0.9257  0.6688
  938MOL0     C23744   4.776   7.051   9.702  0.1342  0.1056  0.3783
  938MOL0     C23745   4.901   7.018   9.793  0.7592  0.0841  0.2764
  938MOL0     C23746   5.015   6.974   9.710 -0.3916  0.6948 -0.8909
  938MOL0     C23747   5.056   7.089   9.635 -0.3915 -0.4143  0.2317
  938MOL0     C23748   5.075   7.203   9.586 -0.8355  0.9443  0.3549
  938MOL0     C23749   4.412   6.860   9.883 -0.1642  0.2074  0.4833
  938MOL0     C23750   4.271   6.842   9.870 -0.6568  0.8536 -0.2708
  938MOL0     H23751   3.891   6.718  10.067  1.1056  0.1154 -0.5901
  938MOL0     H23752   3.662   6.760  10.140  0.6418 -2.3866 -1.4320
  938MOL0     H23753   3.401   6.764  10.117 -2.4654 -3.3941 -0.8945
  938MOL0     H23754   3.314   6.769   9.968 -1.7230  1.7909  1.6926
  938MOL0     H23755   3.333   7.001  10.144  1.1542 -1.5661 -0.3756
  938MOL0     H23756   3.191   6.899  10.139 -0.3845  4.4697  0.7524
  938MOL0     H23757   3.142   6.961   9.896 -3.2256  1.5861  1.5950
  938MOL0     H23758   3.288   7.050   9.881 -0.9551 -2.5128 -1.7391
  938MOL0     H23759   3.162   7.206  10.076 -0.5273  0.5281 -0.3517
  938MOL0     H23760   3.154   7.216   9.904  0.6377 -1.8636 -2.2044
  938MOL0     H23761   2.952   7.130   9.879 -1.3934  1.9850  0.4842
  938MOL0     H23762   2.941   7.208  10.047  0.5016  0.8712 -0.0674
  938MOL0     H23763   2.987   6.971  10.148  0.6288 -2.9407 -0.8310
  938MOL0     H23764   2.950   6.912   9.979 -0.1634  0.6028 -0.3698
  938MOL0     H23765   2.772   6.871  10.106  2.6644  0.2948  1.9748
  938MOL0     H23766   2.759   7.028  10.171  2.5796 -0.8991  1.6353
  938MOL0     H23767   2.718   6.971   9.864 -1.1635  1.8346 -0.4671
  938MOL0     H23768   2.695   7.114   9.973 -3.6516  0.9661 -0.2434
  938MOL0     H23769   2.532   6.779  10.107  0.0387  1.4157  2.3663
  938MOL0     H23770   2.179   6.864  10.195 -1.1863 -3.3769  2.1826
  938MOL0     H23771   2.311   6.762  10.242 -3.6463 -0.2362  2.5241
  938MOL0     H23772   2.149   6.635  10.101  0.7277 -1.0573  0.1339
  938MOL0     H23773   2.304   6.661  10.016  0.5039  1.9112 -2.6026
  938MOL0     H23774   2.197   6.862   9.886 -0.9066 -0.2987 -1.0632
  938MOL0     H23775   2.169   6.692   9.845 -5.1001  1.0761 -3.1895
  938MOL0     H23776   1.989   6.829  10.040  1.1637 -3.7151  1.4493
  938MOL0     H23777   1.951   6.693   9.933  0.1737 -0.8346  1.1732
  938MOL0     H23778   1.859   6.663   9.701  0.1061 -0.8040  1.8250
  938MOL0     H23779   1.629   6.621   9.638 -0.1007  0.5629 -0.8659
  938MOL0     H23780   1.175   7.042   9.795 -1.0866  1.3428 -1.9005
  938MOL0     H23781   0.943   7.066   9.772 -0.2578 -0.7448  3.5745
  938MOL0     H23782   0.696   6.700   9.607 -0.5755 -0.6856 -1.5263
  938MOL0     H23783   0.721   6.821   9.475 -2.9604 -1.0853 -1.8628
  938MOL0     H23784   0.495   6.817   9.488  1.6644 -0.3442 -0.6555
  938MOL0     H23785   0.531   6.960   9.573  0.0128  0.3834 -2.2870
  938MOL0     H23786   0.496   6.827   9.805 -2.9688 -0.9165  2.1974
  938MOL0     H23787   0.469   6.686   9.711  0.4169  0.2513  4.8060
  938MOL0     H23788   0.275   6.851   9.802 -1.2133  1.6885 -2.0784
  938MOL0     H23789   0.331   6.953   9.671  2.3263 -1.1643 -1.0503
  938MOL0     H23790   0.246   6.669   9.625  2.0727  0.0886 -1.9280
  938MOL0     H23791   0.232   6.799   9.516  2.7775  0.4219  0.3221
  938MOL0     H23792   0.054   6.914   9.635 -3.5215 -0.6083 -0.1054
  938MOL0     H23793   0.048   6.777   9.758  1.5755  2.9160  0.9599
  938MOL0     H23794  -0.013   6.788   9.454  0.4675  2.3904  0.6427
  938MOL0     H23795   0.001   6.642   9.556 -0.8379 -0.0822  3.2501
  938MOL0     H23796  -0.181   6.750   9.704 -1.6414  0.2619 -0.7114
  938MOL0     H23797  -0.235   6.718   9.532 -2.7299  4.0108 -0.9550
  938MOL0     H23798   0.935   6.654   9.616  1.1086 -0.7915 -1.9038
  938MOL0     H23799   1.159   6.642   9.646  0.9030  1.0254 -1.3280
  938MOL0     H23800   1.518   6.969   9.855 -2.2880 -1.5949  0.9421
  938MOL0     H23801   1.751   7.033   9.895  0.0489  0.0985 -0.6518
  938MOL0     H23802   3.585   6.960   9.763  0.7740  0.4755 -1.4066
  938MOL0     H23803   3.824   6.929   9.705  1.3566  1.6538  2.2148
  938MOL0     H23804   4.257   6.943   9.526 -2.3875 -0.2564  0.1360
  938MOL0     H23805   4.477   6.947   9.560  0.4623 -0.7933 -0.5683
  938MOL0     H23806   4.670   7.061   9.901  2.1827  1.7135 -0.1649
  938MOL0     H23807   4.583   7.105   9.763 -0.4228 -1.0791  0.9390
  938MOL0     H23808   4.769   6.979   9.620  0.1770 -0.7846  1.1333
  938MOL0     H23809   4.780   7.149   9.653  1.7279  0.3081  0.8416
  938MOL0     H23810   4.877   6.933   9.857  1.7032  1.9129  3.2599
  938MOL0     H23811   4.937   7.098   9.858  2.0889  0.5865 -1.0216
  938MOL0     H23812   5.094   6.953   9.783 -1.1186  2.4656  0.4851
  938MOL0     H23813   5.005   6.884   9.648 -1.7166  1.3264 -1.6261
  938MOL0     H23814   5.108   7.296   9.543  3.3997 -0.0728  1.0023
  938MOL0     H23815   4.453   6.843   9.982 -4.7970 -1.1687  2.4164
  938MOL0     H23816   4.221   6.814   9.962  1.8399 -2.8522  0.2137
  939MOL0     O23817   3.285   4.663   7.935  1.2473 -0.5948  0.6354
  939MOL0     C23818   3.243   4.784   7.951  0.3200  0.1266  0.5913
  939MOL0     O23819   3.117   4.834   7.956 -0.0679  0.1841  0.5736
  939MOL0     C23820   3.011   4.752   7.941  0.7556  0.4159 -0.0953
  939MOL0     C23821   2.990   4.617   7.904 -1.0058 -0.5385 -0.3308
  939MOL0     C23822   2.874   4.549   7.912  0.6731  0.9989 -0.5374
  939MOL0     C23823   2.753   4.617   7.932  0.0350 -0.5713  0.5588
  939MOL0     O23824   2.632   4.564   7.905 -0.2015  0.0497  0.1905
  939MOL0     C23825   2.603   4.462   8.002 -0.0810 -0.4426 -0.0966
  939MOL0     C23826   2.453   4.467   8.041 -0.5029 -0.9924 -0.3184
  939MOL0     C23827   2.343   4.438   7.926 -1.5181  0.1319 -1.0482
  939MOL0     C23828   2.349   4.287   7.884 -0.0019 -0.9093  0.6695
  939MOL0     C23829   2.221   4.244   7.826  1.0037  0.7032  0.4225
  939MOL0     C23830   2.195   4.282   7.679 -0.2491 -0.3844  0.8750
  939MOL0     C23831   2.054   4.234   7.618 -0.3443 -0.9896  0.5331
  939MOL0     C23832   2.061   4.086   7.575  0.0920  0.2269  0.5133
  939MOL0     N23833   1.938   4.019   7.609  0.2306  0.3343 -0.0909
  939MOL0     C23834   1.917   3.976   7.738  0.0215 -0.0552  0.1057
  939MOL0     C23835   1.802   3.907   7.732 -0.5590 -0.5350 -0.6561
  939MOL0     C23836   1.736   3.838   7.848  0.6128 -0.6591  0.0955
  939MOL0     C23837   1.679   3.949   7.939 -0.0357  1.3446 -0.3476
  939MOL0     C23838   1.612   3.900   8.067  0.5567 -0.6267  0.5461
  939MOL0     C23839   1.564   4.024   8.155 -1.3280  0.0248 -0.3060
  939MOL0     O23840   1.454   4.090   8.083  0.5011  0.2446  0.4909
  939MOL0     C23841   1.332   4.024   8.093 -0.2027  0.3952 -1.0836
  939MOL0     C23842   1.235   4.060   8.002 -0.5029  0.2067 -0.3506
  939MOL0     C23843   1.096   4.026   8.009 -0.3938  0.2385 -0.1520
  939MOL0     C23844   1.059   3.923   8.101  1.1659 -0.4144  0.0596
  939MOL0     C23845   0.926   3.863   8.102 -0.3742 -0.1351  0.0010
  939MOL0     O23846   0.882   3.819   8.222  0.1092  0.4119 -0.2794
  939MOL0     C23847   0.760   3.745   8.233  0.0304 -0.8671 -0.4437
  939MOL0     C23848   0.760   3.628   8.300  0.2467  0.3431  0.2053
  939MOL0     C23849   0.635   3.563   8.315  0.0829  0.7963 -0.8375
  939MOL0     C23850   0.511   3.610   8.258 -0.2611  0.7392  0.1640
  939MOL0     O23851   0.391   3.535   8.269  0.4305  0.1354  0.5172
  939MOL0     C23852   0.269   3.617   8.278  0.2527 -0.9382 -0.7949
  939MOL0     C23853   0.162   3.527   8.325  0.5563 -0.0623 -0.0711
  939MOL0     C23854   0.169   3.469   8.459 -0.7815 -0.6049  0.5409
  939MOL0     C23855   0.065   3.372   8.505 -0.5323 -0.6394 -0.3574
  939MOL0     C23856   0.096   3.256   8.595 -0.1143  0.7718  0.0404
  939MOL0     C23857  -0.018   3.152   8.599 -0.4762 -0.3282 -0.5037
  939MOL0     C23858  -0.018   3.060   8.722  0.2786 -0.5589  0.4943
  939MOL0     C23859  -0.138   2.965   8.733 -0.8458  0.3227  0.7747
  939MOL0    Cl23860  -0.315   3.034   8.691 -0.1341  0.2243  0.3289
  939MOL0     C23861   0.522   3.737   8.193 -0.0973  0.3829  0.1864
  939MOL0     C23862   0.647   3.797   8.183  0.1297  0.1043  0.4818
  939MOL0     O23863   0.861   3.873   7.993 -0.2534  0.3549 -0.3906
  939MOL0     C23864   1.152   3.890   8.197  0.2860  0.5964  0.6206
  939MOL0     C23865   1.281   3.945   8.199  0.0390  0.3799  0.3140
  939MOL0     N23866   1.758   3.916   7.596  0.2860  0.5667 -0.0914
  939MOL0     N23867   1.847   3.965   7.524 -0.5475  0.3637  0.3951
  939MOL0     C23868   2.756   4.757   7.958 -0.9080 -0.1078 -0.1436
  939MOL0     C23869   2.885   4.814   7.967 -0.6831  0.0685  0.5114
  939MOL0     C23870   3.343   4.877   7.973 -0.5098  0.3918 -0.4762
  939MOL0     C23871   3.321   5.016   7.987 -0.2597  0.2729 -0.2582
  939MOL0     C23872   3.425   5.102   8.008 -0.7405 -0.4415  0.3005
  939MOL0     C23873   3.556   5.056   8.020  1.1152 -1.1327  0.1691
  939MOL0     O23874   3.647   5.158   8.037  0.2042  0.8842 -0.0941
  939MOL0     C23875   3.776   5.126   8.094 -0.0756  0.1648 -0.9324
  939MOL0     C23876   3.878   5.099   7.985  0.4362 -0.1290  0.4136
  939MOL0     C23877   3.875   5.207   7.877 -1.1704  0.1702 -0.3621
  939MOL0     C23878   3.909   5.351   7.927 -0.1819 -0.2985 -0.1972
  939MOL0     C23879   3.948   5.438   7.821  0.1950  0.6543  0.6980
  939MOL0     C23880   3.988   5.519   7.747  0.6632  0.5845 -0.2045
  939MOL0     C23881   3.581   4.921   8.010  0.7655  0.0379 -0.5189
  939MOL0     C23882   3.477   4.830   7.993  0.0993  0.0947 -0.4908
  939MOL0     H23883   3.071   4.549   7.880  0.6115  1.2746 -0.2944
  939MOL0     H23884   2.879   4.443   7.888 -1.6555 -0.2231  3.3605
  939MOL0     H23885   2.666   4.465   8.091  0.4529 -3.7113 -0.2619
  939MOL0     H23886   2.617   4.362   7.960  2.1760  0.2129 -1.0614
  939MOL0     H23887   2.438   4.568   8.080 -1.9162 -1.1648 -0.3660
  939MOL0     H23888   2.437   4.394   8.122  3.2742 -2.0851 -0.3628
  939MOL0     H23889   2.352   4.507   7.841  2.3631  0.8055 -0.2630
  939MOL0     H23890   2.250   4.466   7.976 -0.9988  0.6952 -0.3880
  939MOL0     H23891   2.430   4.282   7.811 -1.1057  1.2080 -0.8224
  939MOL0     H23892   2.365   4.234   7.979  0.1887 -2.6874 -0.3201
  939MOL0     H23893   2.147   4.286   7.895  0.0883 -0.8590  0.4380
  939MOL0     H23894   2.220   4.135   7.830  2.2892  0.7182  2.9004
  939MOL0     H23895   2.280   4.243   7.621  0.2253 -0.7636  1.8028
  939MOL0     H23896   2.203   4.391   7.683 -2.6909 -0.0817 -0.4328
  939MOL0     H23897   1.976   4.243   7.694 -2.7314  3.2169 -1.9953
  939MOL0     H23898   2.028   4.299   7.534 -2.7468 -1.0590  1.1577
  939MOL0     H23899   2.144   4.034   7.624  1.0458 -0.9896 -2.1790
  939MOL0     H23900   2.089   4.081   7.469 -1.6297  2.4947 -0.1224
  939MOL0     H23901   1.974   3.988   7.830  2.1105  0.2972 -1.1755
  939MOL0     H23902   1.808   3.784   7.911 -0.5338 -0.1470  1.9431
  939MOL0     H23903   1.653   3.769   7.830 -0.7745  1.0022 -0.1210
  939MOL0     H23904   1.603   3.995   7.875 -1.2872  0.6727  0.6066
  939MOL0     H23905   1.765   4.011   7.968  1.4163 -0.8674  0.3251
  939MOL0     H23906   1.528   3.836   8.039  2.5328 -2.5985 -1.2191
  939MOL0     H23907   1.674   3.828   8.122 -1.7062 -2.0030  1.4215
  939MOL0     H23908   1.655   4.084   8.161 -1.2120 -0.2249  0.6309
  939MOL0     H23909   1.530   3.985   8.251 -1.1099  0.4601 -0.0480
  939MOL0     H23910   1.277   4.113   7.918  5.0200 -2.1535  0.4705
  939MOL0     H23911   1.036   4.069   7.930  1.1487  1.6575 -0.6199
  939MOL0     H23912   0.860   3.597   8.329 -0.1651 -2.6631 -1.2334
  939MOL0     H23913   0.630   3.476   8.380 -3.8185  0.5453 -1.2338
  939MOL0     H23914   0.244   3.672   8.186  0.2856 -2.8798 -2.0116
  939MOL0     H23915   0.277   3.700   8.349  3.1181  1.1114 -3.2848
  939MOL0     H23916   0.153   3.435   8.265  0.3909  0.1338 -0.3465
  939MOL0     H23917   0.077   3.595   8.323 -0.8353 -1.5142  3.1068
  939MOL0     H23918   0.182   3.544   8.537  1.3718  0.3101 -0.6261
  939MOL0     H23919   0.265   3.418   8.463 -0.1733  0.5101  0.5955
  939MOL0     H23920  -0.009   3.428   8.563 -1.5736 -0.5964 -1.6705
  939MOL0     H23921   0.004   3.347   8.418 -0.2289  1.3182 -1.1964
  939MOL0     H23922   0.120   3.299   8.692  3.5548 -2.6534  0.9072
  939MOL0     H23923   0.189   3.200   8.578 -0.4940 -0.5137  1.9271
  939MOL0     H23924  -0.021   3.098   8.504 -0.5628 -0.4268 -0.4460
  939MOL0     H23925  -0.108   3.215   8.606  0.7130  1.4150 -0.2646
  939MOL0     H23926   0.078   3.007   8.729 -0.2774 -1.5229  0.8605
  939MOL0     H23927  -0.034   3.127   8.807  0.7999  0.1490  0.0503
  939MOL0     H23928  -0.133   2.911   8.828  3.1805  0.3171  0.7469
  939MOL0     H23929  -0.117   2.884   8.662 -2.2449 -0.9289  1.7532
  939MOL0     H23930   0.440   3.781   8.136  0.7137 -1.0970 -2.2762
  939MOL0     H23931   0.659   3.893   8.134 -1.0705  1.6361  2.9597
  939MOL0     H23932   1.132   3.818   8.276  1.3065 -1.1713 -0.6849
  939MOL0     H23933   1.344   3.915   8.283  1.3766 -0.1817 -0.8521
  939MOL0     H23934   2.672   4.822   7.978 -0.7739 -0.4467  1.7232
  939MOL0     H23935   2.892   4.921   7.988 -0.7753  1.1013 -3.6950
  939MOL0     H23936   3.220   5.053   7.979 -0.4267 -0.4455 -1.9399
  939MOL0     H23937   3.410   5.209   8.017 -2.0228 -0.5393 -0.4847
  939MOL0     H23938   3.763   5.046   8.168  1.9538  3.1666  3.0690
  939MOL0     H23939   3.810   5.212   8.151  1.6894 -1.6075  0.8637
  939MOL0     H23940   3.976   5.089   8.034  0.0391 -2.6680  0.8265
  939MOL0     H23941   3.843   5.008   7.935 -1.0726 -0.4619  1.9867
  939MOL0     H23942   3.773   5.203   7.838 -1.1954 -2.9078 -0.2397
  939MOL0     H23943   3.937   5.180   7.791 -0.2354  1.4018 -0.1029
  939MOL0     H23944   3.830   5.390   7.991  0.1291 -0.3532  0.2225
  939MOL0     H23945   3.994   5.344   7.996 -0.8876  3.3146  1.2971
  939MOL0     H23946   4.035   5.589   7.681  1.1733  0.4271 -0.0144
  939MOL0     H23947   3.683   4.890   8.027  1.3254  2.2042  0.4050
  939MOL0     H23948   3.510   4.727   7.988 -1.5436 -0.4979  0.2688
  940MOL0     O23949   0.582   0.897   7.748  0.2776  0.2729 -0.8720
  940MOL0     C23950   0.640   0.794   7.709  0.1233 -0.7492  0.1791
  940MOL0     O23951   0.587   0.706   7.614 -0.7908  0.0869  0.3345
  940MOL0     C23952   0.452   0.688   7.600 -0.2351  0.2753  0.0150
  940MOL0     C23953   0.404   0.666   7.472  0.2917  0.7046 -0.0248
  940MOL0     C23954   0.270   0.619   7.446 -0.3129  0.4968 -0.3910
  940MOL0     C23955   0.192   0.587   7.554 -0.1877 -0.6669 -0.4366
  940MOL0     O23956   0.064   0.559   7.521  0.4851  0.4522  0.8702
  940MOL0     C23957  -0.010   0.494   7.627  0.1592  0.2873 -0.1394
  940MOL0     C23958  -0.141   0.434   7.579 -0.3944  0.9687 -0.0268
  940MOL0     C23959  -0.239   0.519   7.502 -0.4368  0.1253 -0.5603
  940MOL0     C23960  -0.352   0.452   7.442 -0.2386  0.2734 -0.3138
  940MOL0     C23961  -0.405   0.329   7.521  0.1520 -0.3729 -0.2823
  940MOL0     C23962  -0.517   0.272   7.458  0.0129  0.0827  0.4749
  940MOL0     C23963  -0.642   0.347   7.507 -0.2107  0.6842  0.0464
  940MOL0     C23964  -0.765   0.295   7.438 -0.5387 -0.3560  0.2226
  940MOL0     N23965  -0.891   0.365   7.460 -0.3436  0.2117 -0.0604
  940MOL0     C23966  -1.019   0.317   7.423 -0.2828 -0.5353 -0.2399
  940MOL0     C23967  -1.106   0.420   7.459 -0.3656  0.1811  0.0521
  940MOL0     C23968  -1.253   0.410   7.435 -0.2871 -0.8904  0.3483
  940MOL0     C23969  -1.353   0.480   7.535 -0.4643  0.2524 -0.0675
  940MOL0     C23970  -1.501   0.448   7.512  0.1006 -0.0387  0.5154
  940MOL0     C23971  -1.584   0.493   7.637  0.8221 -0.5331 -0.5660
  940MOL0     O23972  -1.715   0.476   7.594  0.0575  0.3375 -0.9281
  940MOL0     C23973  -1.811   0.551   7.657 -0.0910 -0.0987 -0.2968
  940MOL0     C23974  -1.785   0.629   7.771  0.8823 -0.6027  0.9819
  940MOL0     C23975  -1.895   0.707   7.819 -0.9457 -0.2115  0.1475
  940MOL0     C23976  -2.019   0.716   7.757  0.3964 -0.0731  0.4845
  940MOL0     C23977  -2.113   0.817   7.796 -0.6375 -0.2866  0.5107
  940MOL0     O23978  -2.216   0.833   7.716 -0.0873 -0.2312  0.1529
  940MOL0     C23979  -2.342   0.869   7.760  0.2559  0.9091 -0.6001
  940MOL0     C23980  -2.376   0.890   7.889  1.3066 -0.1950 -0.1237
  940MOL0     C23981  -2.500   0.930   7.930  0.0862 -0.2872  0.0326
  940MOL0     C23982  -2.602   0.942   7.841  0.3546  0.7694  0.6678
  940MOL0     O23983  -2.720   0.984   7.893 -0.3029 -0.0762 -0.1713
  940MOL0     C23984  -2.848   0.929   7.862 -1.5770  0.0133 -0.2673
  940MOL0     C23985  -2.966   1.019   7.919 -0.4499 -0.1277  0.0137
  940MOL0     C23986  -3.099   0.948   7.922  0.6865  0.1128  0.3132
  940MOL0     C23987  -3.232   1.037   7.937 -0.1085 -0.0632 -0.8822
  940MOL0     C23988  -3.353   0.942   7.927  1.0306  0.4341 -0.1382
  940MOL0     C23989  -3.485   1.006   7.944  0.1389 -0.2191 -0.1430
  940MOL0     C23990  -3.519   1.121   7.844  0.4481  1.0629  0.4691
  940MOL0     C23991  -3.659   1.187   7.867  0.0760  0.1977 -0.3673
  940MOL0    Cl23992  -3.788   1.066   7.815 -0.4456 -0.0034 -0.3666
  940MOL0     C23993  -2.578   0.916   7.701 -0.7538  0.2370 -0.0034
  940MOL0     C23994  -2.444   0.882   7.667  0.2642  0.2744 -0.8157
  940MOL0     O23995  -2.070   0.897   7.884 -0.0476 -0.6108  0.5375
  940MOL0     C23996  -2.041   0.633   7.650 -0.0482 -0.3395 -0.5240
  940MOL0     C23997  -1.934   0.548   7.606  0.2642 -0.2716 -0.4048
  940MOL0     N23998  -1.034   0.518   7.522 -0.4579 -0.1566 -0.2583
  940MOL0     N23999  -0.916   0.491   7.506  0.1487  0.8772 -0.4095
  940MOL0     C24000   0.239   0.616   7.688 -0.0247 -0.0940 -0.5019
  940MOL0     C24001   0.370   0.672   7.705  0.6552 -0.6935  0.1358
  940MOL0     C24002   0.773   0.761   7.772 -0.2915  0.6239  0.3407
  940MOL0     C24003   0.813   0.808   7.895  0.0290 -0.8981 -1.1996
  940MOL0     C24004   0.927   0.762   7.954  0.5282  0.5209 -0.8994
  940MOL0     C24005   1.000   0.652   7.897 -0.0890  0.0612 -0.1095
  940MOL0     O24006   1.100   0.598   7.977 -0.4794 -0.3940 -0.2872
  940MOL0     C24007   1.208   0.537   7.912  0.8275  0.1141  0.8782
  940MOL0     C24008   1.329   0.509   8.010 -0.0562  0.3558  0.3076
  940MOL0     C24009   1.330   0.369   8.085 -1.2322 -1.3630  0.3316
  940MOL0     C24010   1.410   0.373   8.208  0.0687  0.6551 -0.3035
  940MOL0     C24011   1.550   0.348   8.183 -0.7827 -0.4689  0.0287
  940MOL0     C24012   1.673   0.340   8.172  0.7764  0.1891 -0.7701
  940MOL0     C24013   0.966   0.606   7.772 -0.2125  0.5985 -0.7452
  940MOL0     C24014   0.850   0.654   7.711 -0.5024 -0.1843 -0.2502
  940MOL0     H24015   0.470   0.681   7.388  3.6152 -1.0679  2.0557
  940MOL0     H24016   0.237   0.604   7.344  0.1785  0.7971 -0.5955
  940MOL0     H24017  -0.036   0.571   7.700 -0.6055 -1.8080  1.8990
  940MOL0     H24018   0.050   0.419   7.677  0.2030  0.2844 -0.1959
  940MOL0     H24019  -0.183   0.405   7.676  3.3034  3.2165  2.4755
  940MOL0     H24020  -0.125   0.350   7.511 -0.7031 -0.3550  1.4686
  940MOL0     H24021  -0.180   0.572   7.427  1.1297  2.0682  1.8523
  940MOL0     H24022  -0.265   0.599   7.571  1.0912 -1.1983  1.7163
  940MOL0     H24023  -0.424   0.532   7.422  0.5173  1.5907  1.8606
  940MOL0     H24024  -0.311   0.419   7.347 -0.8667 -0.3220 -0.3864
  940MOL0     H24025  -0.435   0.345   7.625 -1.9620  0.0678 -0.9101
  940MOL0     H24026  -0.325   0.254   7.522  0.5071 -0.0173 -1.0765
  940MOL0     H24027  -0.519   0.168   7.494  2.7268  0.5005  2.1678
  940MOL0     H24028  -0.504   0.274   7.350  1.0262 -5.7293  0.1414
  940MOL0     H24029  -0.649   0.318   7.613  1.4945 -1.2095 -0.2812
  940MOL0     H24030  -0.625   0.454   7.503  2.9384  0.6509  4.7048
  940MOL0     H24031  -0.778   0.189   7.462  2.1219 -0.3190  2.3804
  940MOL0     H24032  -0.735   0.311   7.334  0.8069 -0.4402  0.5829
  940MOL0     H24033  -1.041   0.222   7.375 -4.2799  0.2395 -0.2406
  940MOL0     H24034  -1.274   0.303   7.429 -0.4570 -0.8029 -0.7742
  940MOL0     H24035  -1.278   0.457   7.339 -3.2004 -2.2756  0.3230
  940MOL0     H24036  -1.337   0.588   7.543  1.4974  0.0843 -1.0552
  940MOL0     H24037  -1.340   0.429   7.631  1.7870  0.4160 -0.2362
  940MOL0     H24038  -1.542   0.511   7.432 -0.1520 -0.6375  0.1655
  940MOL0     H24039  -1.530   0.344   7.494 -1.0698  0.2041  0.9169
  940MOL0     H24040  -1.568   0.598   7.661  0.2463  0.3294 -3.6115
  940MOL0     H24041  -1.562   0.420   7.716  0.2139 -1.6914 -1.4286
  940MOL0     H24042  -1.693   0.618   7.827  2.1378 -1.2063 -1.0883
  940MOL0     H24043  -1.869   0.775   7.899  1.2340  0.1255 -0.7653
  940MOL0     H24044  -2.304   0.880   7.971 -1.1082  0.2805  2.2089
  940MOL0     H24045  -2.532   0.963   8.028 -0.6572 -2.0823  0.4259
  940MOL0     H24046  -2.855   0.830   7.907 -0.2932  1.6147  3.9901
  940MOL0     H24047  -2.851   0.924   7.752  1.5299 -2.7400 -0.3444
  940MOL0     H24048  -2.977   1.103   7.850  1.9395  1.4941  1.4520
  940MOL0     H24049  -2.951   1.070   8.015 -0.7990  3.7015 -1.8028
  940MOL0     H24050  -3.097   0.880   8.008 -0.9203  0.4093  0.6126
  940MOL0     H24051  -3.110   0.889   7.830 -0.1288 -0.9543  1.0771
  940MOL0     H24052  -3.221   1.091   8.031 -0.4029 -1.0122 -0.2919
  940MOL0     H24053  -3.242   1.098   7.847 -2.6580 -0.0341 -0.6684
  940MOL0     H24054  -3.348   0.880   8.017 -2.1408  2.2842  1.4707
  940MOL0     H24055  -3.348   0.890   7.830  2.0960 -2.5665  1.3775
  940MOL0     H24056  -3.484   1.043   8.047  1.2181 -0.3669 -0.0892
  940MOL0     H24057  -3.559   0.925   7.940  1.4756 -1.4243 -2.2358
  940MOL0     H24058  -3.451   1.207   7.853 -0.5141  2.3520 -2.7943
  940MOL0     H24059  -3.511   1.099   7.737 -0.9234  2.0691  0.1341
  940MOL0     H24060  -3.684   1.275   7.806 -0.7737  1.5135  1.7753
  940MOL0     H24061  -3.672   1.222   7.970  0.6778 -0.3562 -0.0986
  940MOL0     H24062  -2.656   0.938   7.629  1.2926  3.1687 -1.5269
  940MOL0     H24063  -2.436   0.855   7.562 -1.5201 -1.9329 -0.4676
  940MOL0     H24064  -2.135   0.624   7.596  1.3388 -2.1379 -2.8011
  940MOL0     H24065  -1.949   0.488   7.517 -0.2840  0.2311 -0.6611
  940MOL0     H24066   0.179   0.595   7.776 -1.1250  1.4310 -0.8344
  940MOL0     H24067   0.417   0.683   7.802  0.9859  3.2214 -0.3050
  940MOL0     H24068   0.764   0.889   7.948  4.2372 -0.1204  2.0658
  940MOL0     H24069   0.969   0.800   8.046  0.8661 -2.2638  0.2069
  940MOL0     H24070   1.240   0.606   7.833 -0.6581 -0.4008 -0.2288
  940MOL0     H24071   1.162   0.443   7.879 -1.3904  1.2599  0.5154
  940MOL0     H24072   1.426   0.507   7.959  0.2352  1.3027  0.8125
  940MOL0     H24073   1.333   0.590   8.083  3.4642  0.2982  0.3436
  940MOL0     H24074   1.374   0.300   8.013  0.0564 -1.1507  0.8813
  940MOL0     H24075   1.233   0.332   8.119 -2.0478 -0.0926 -0.5255
  940MOL0     H24076   1.391   0.458   8.274  1.3605 -1.0013  2.3937
  940MOL0     H24077   1.379   0.299   8.283  1.0310  1.4269  0.9015
  940MOL0     H24078   1.778   0.355   8.157  0.5726  2.6275 -0.2282
  940MOL0     H24079   1.030   0.527   7.732  0.5738  0.4271  0.7723
  940MOL0     H24080   0.811   0.608   7.621  0.2460 -0.8943 -0.2267
  941MOL0     O24081   5.338   4.009   4.480 -0.4531  0.4173 -0.5554
  941MOL0     C24082   5.328   3.921   4.397 -0.9478  0.5651 -0.5500
  941MOL0     O24083   5.270   3.924   4.282  0.8323 -0.4657  0.1103
  941MOL0     C24084   5.184   4.028   4.234  0.0140  0.7868  0.3248
  941MOL0     C24085   5.192   4.080   4.100 -0.5553  0.1329  0.0478
  941MOL0     C24086   5.109   4.183   4.052 -0.4380  0.2376 -0.5914
  941MOL0     C24087   5.013   4.235   4.145  0.3485 -0.3139  0.0376
  941MOL0     O24088   4.923   4.333   4.096  0.0474  0.0956 -0.2361
  941MOL0     C24089   4.890   4.340   3.954  0.8279  0.1759 -0.0780
  941MOL0     C24090   4.744   4.376   3.948  0.0374  0.1709  0.3098
  941MOL0     C24091   4.682   4.343   3.814 -0.3708  0.0027  1.0443
  941MOL0     C24092   4.541   4.400   3.812 -0.1424 -0.1245 -1.1639
  941MOL0     C24093   4.458   4.371   3.685 -0.7075 -0.2974  0.4277
  941MOL0     C24094   4.323   4.440   3.690 -0.8880  0.9306 -0.6088
  941MOL0     C24095   4.254   4.411   3.558  0.7710 -0.7945 -0.2083
  941MOL0     C24096   4.132   4.503   3.523  0.3786 -0.0066 -0.2523
  941MOL0     N24097   4.006   4.486   3.605 -0.4237 -0.5554  0.0103
  941MOL0     C24098   3.884   4.478   3.536 -0.6109  0.9074 -0.6538
  941MOL0     C24099   3.797   4.532   3.633 -0.1161  0.7958 -0.1967
  941MOL0     C24100   3.644   4.543   3.620  0.0778 -0.0995 -0.1179
  941MOL0     C24101   3.602   4.617   3.485 -0.9246  0.1110  0.9644
  941MOL0     C24102   3.455   4.610   3.474  0.0093 -0.2671 -0.4205
  941MOL0     C24103   3.377   4.728   3.528  0.0915  0.1369 -0.8587
  941MOL0     O24104   3.429   4.766   3.662 -0.3399  0.0314  0.6269
  941MOL0     C24105   3.354   4.731   3.771 -0.0931  0.0760 -0.1773
  941MOL0     C24106   3.292   4.600   3.786 -0.6337  0.4242  0.6068
  941MOL0     C24107   3.225   4.572   3.895 -1.1348  0.8075 -0.2433
  941MOL0     C24108   3.197   4.657   3.995  0.9138  0.0093  0.2232
  941MOL0     C24109   3.115   4.610   4.108  0.4444 -0.7223  0.5888
  941MOL0     O24110   3.175   4.613   4.222  0.5225  0.2709  0.2672
  941MOL0     C24111   3.113   4.572   4.338  1.1583 -0.1082 -0.2202
  941MOL0     C24112   2.977   4.605   4.373 -0.0367  0.0471 -0.2067
  941MOL0     C24113   2.912   4.541   4.476 -0.2894 -0.1544 -0.4518
  941MOL0     C24114   2.978   4.443   4.554  0.3118  0.6259  0.2940
  941MOL0     O24115   2.926   4.377   4.663 -0.3269  0.3356  0.6739
  941MOL0     C24116   2.790   4.344   4.657  0.1156  0.1721  0.3801
  941MOL0     C24117   2.782   4.215   4.753  0.4918  0.6220 -0.0631
  941MOL0     C24118   2.864   4.222   4.876 -0.8993  0.0149 -0.0569
  941MOL0     C24119   3.006   4.152   4.869  1.4456  0.0393  0.5403
  941MOL0     C24120   3.009   4.039   4.975 -0.3448  1.5531 -1.0037
  941MOL0     C24121   3.063   4.086   5.111  0.3405 -0.0699  0.8993
  941MOL0     C24122   2.986   4.017   5.224 -0.4384 -0.2588  0.0813
  941MOL0     C24123   3.016   4.073   5.357 -1.0587 -0.1159  0.0577
  941MOL0    Cl24124   2.977   4.250   5.360 -0.2464 -0.1573  0.1503
  941MOL0     C24125   3.113   4.417   4.521  0.0207 -0.5394 -0.4067
  941MOL0     C24126   3.175   4.481   4.415 -0.4208  0.4512 -0.0431
  941MOL0     O24127   3.004   4.571   4.080 -0.3251 -0.4308 -0.1116
  941MOL0     C24128   3.243   4.795   3.975  0.4712 -0.0064 -0.0562
  941MOL0     C24129   3.321   4.821   3.866  0.5266  0.1931  0.5743
  941MOL0     N24130   3.870   4.566   3.741 -0.7210  0.4431  1.0026
  941MOL0     N24131   3.994   4.537   3.726 -0.7279  0.2425  0.3062
  941MOL0     C24132   5.002   4.178   4.275  0.2246  0.2027  0.4263
  941MOL0     C24133   5.085   4.071   4.320 -0.0166  1.3653 -0.1571
  941MOL0     C24134   5.410   3.800   4.423 -0.4454 -0.1329  0.1101
  941MOL0     C24135   5.346   3.672   4.419  0.1072 -0.2784 -0.2968
  941MOL0     C24136   5.432   3.557   4.436 -0.8652 -0.7201  0.2410
  941MOL0     C24137   5.565   3.569   4.479 -0.1576 -0.0533 -0.3288
  941MOL0     O24138   5.633   3.450   4.485  0.0108 -0.2054  0.5231
  941MOL0     C24139   5.778   3.451   4.487 -0.1223  0.2687  0.0259
  941MOL0     C24140   5.830   3.312   4.513  0.1357  0.6892  0.3391
  941MOL0     C24141   5.778   3.202   4.415 -0.5641 -0.1484  0.6007
  941MOL0     C24142   5.819   3.072   4.448  0.1867 -1.4126  0.0725
  941MOL0     C24143   5.765   2.974   4.358 -1.2782 -0.4445 -0.0611
  941MOL0     C24144   5.736   2.886   4.285 -0.4051  0.8030 -0.1685
  941MOL0     C24145   5.627   3.697   4.482  0.3304 -0.1210 -0.3411
  941MOL0     C24146   5.552   3.811   4.450 -0.9459  0.1700  0.8634
  941MOL0     H24147   5.271   4.043   4.035  0.6499  2.0817  0.3456
  941MOL0     H24148   5.114   4.234   3.956  0.7758 -3.6390 -2.8462
  941MOL0     H24149   4.907   4.249   3.896  1.3629 -0.4982  1.1062
  941MOL0     H24150   4.947   4.424   3.912  1.1865  0.2129  0.4775
  941MOL0     H24151   4.723   4.480   3.975  1.6325  0.7226 -0.4369
  941MOL0     H24152   4.693   4.313   4.022 -0.5452  1.8520  1.3971
  941MOL0     H24153   4.692   4.238   3.785 -1.1960 -0.1905  1.4166
  941MOL0     H24154   4.741   4.388   3.734 -0.6552  0.1406  0.9089
  941MOL0     H24155   4.477   4.363   3.892  2.6621  0.8032  1.7134
  941MOL0     H24156   4.546   4.509   3.818  0.9521 -0.1576 -1.1929
  941MOL0     H24157   4.457   4.262   3.677  3.4267 -0.9759  4.6115
  941MOL0     H24158   4.512   4.392   3.593  2.4424 -1.4062  1.8804
  941MOL0     H24159   4.332   4.547   3.712  0.5722  1.0491 -1.6215
  941MOL0     H24160   4.263   4.415   3.777 -1.5218  2.5875 -0.5332
  941MOL0     H24161   4.325   4.423   3.475  2.3875 -0.1515  1.2138
  941MOL0     H24162   4.224   4.306   3.549  0.4224 -0.5401 -3.2748
  941MOL0     H24163   4.109   4.482   3.418 -0.2021 -0.9595  0.0571
  941MOL0     H24164   4.171   4.605   3.522  1.7283 -0.4730  0.8729
  941MOL0     H24165   3.859   4.454   3.433 -0.6298  0.0629 -0.4604
  941MOL0     H24166   3.598   4.588   3.708 -1.9079 -0.1276 -1.0938
  941MOL0     H24167   3.611   4.439   3.612  2.8331 -1.0548 -0.3239
  941MOL0     H24168   3.652   4.582   3.394 -0.0392  0.1682  1.4122
  941MOL0     H24169   3.634   4.720   3.502 -0.4355 -0.1279  1.5516
  941MOL0     H24170   3.437   4.618   3.366 -1.6110  3.9387 -0.0521
  941MOL0     H24171   3.429   4.514   3.519  2.4913  0.0045  1.8513
  941MOL0     H24172   3.269   4.708   3.523  0.1749 -0.2719 -1.0536
  941MOL0     H24173   3.394   4.818   3.469 -3.2318  3.0867  2.2100
  941MOL0     H24174   3.310   4.524   3.711  0.4926 -0.6938  1.9446
  941MOL0     H24175   3.198   4.467   3.899 -1.7273  0.9393 -0.6128
  941MOL0     H24176   2.921   4.679   4.317  0.1299 -0.7699 -1.4953
  941MOL0     H24177   2.818   4.578   4.516  0.7463 -0.3936  2.4282
  941MOL0     H24178   2.771   4.316   4.553 -0.9543 -2.7315  1.2569
  941MOL0     H24179   2.752   4.442   4.688  4.0606  1.7072  0.9942
  941MOL0     H24180   2.802   4.126   4.692 -1.3929  0.5305 -0.6227
  941MOL0     H24181   2.678   4.205   4.785  0.4134  0.2642 -0.4160
  941MOL0     H24182   2.804   4.194   4.963  1.7695  1.1604  2.3127
  941MOL0     H24183   2.894   4.326   4.888 -0.3234 -0.1597  0.0917
  941MOL0     H24184   3.038   4.119   4.770  0.4683  0.5777  0.0378
  941MOL0     H24185   3.089   4.219   4.894  0.7883  0.6765  1.0591
  941MOL0     H24186   3.066   3.950   4.947 -1.4809 -0.6575  2.8430
  941MOL0     H24187   2.910   3.995   4.991  1.0163 -1.9816 -1.4366
  941MOL0     H24188   3.030   4.190   5.125 -3.6841 -1.1050  0.1843
  941MOL0     H24189   3.173   4.079   5.114  0.4536  1.4831  1.7514
  941MOL0     H24190   2.881   4.047   5.219  0.3381  2.9684  0.4809
  941MOL0     H24191   2.999   3.909   5.228 -1.0198 -0.3522 -0.4482
  941MOL0     H24192   3.117   4.050   5.391 -0.9163  0.0298 -0.2667
  941MOL0     H24193   2.964   4.014   5.434  0.3451  0.9162  1.8973
  941MOL0     H24194   3.165   4.342   4.580 -1.4804 -2.7101 -1.7004
  941MOL0     H24195   3.276   4.470   4.380 -1.8306 -1.0207 -4.1635
  941MOL0     H24196   3.218   4.868   4.052 -1.6370 -0.9589  0.2343
  941MOL0     H24197   3.366   4.919   3.853  0.6011 -0.1419 -2.0842
  941MOL0     H24198   4.924   4.223   4.336  0.8838  1.1440  0.5901
  941MOL0     H24199   5.079   4.031   4.421  0.1057  1.0872 -0.2595
  941MOL0     H24200   5.249   3.653   4.376  1.3789 -3.8254 -1.9769
  941MOL0     H24201   5.394   3.459   4.411  2.0510 -2.4138  1.9216
  941MOL0     H24202   5.821   3.512   4.566  3.1486 -2.9373  1.0130
  941MOL0     H24203   5.814   3.499   4.396  0.1074 -2.3150 -1.3521
  941MOL0     H24204   5.939   3.301   4.513  0.1600 -0.3164  3.6840
  941MOL0     H24205   5.786   3.286   4.610  1.1402 -0.4394  0.5189
  941MOL0     H24206   5.815   3.216   4.313 -0.9522 -1.6423  0.2307
  941MOL0     H24207   5.670   3.213   4.404 -0.5747 -0.7555  0.0619
  941MOL0     H24208   5.927   3.056   4.454  0.4994 -1.4523 -3.4183
  941MOL0     H24209   5.775   3.058   4.547 -1.3571 -1.6710 -0.6089
  941MOL0     H24210   5.699   2.806   4.225  0.2780  1.5295 -1.6136
  941MOL0     H24211   5.732   3.717   4.501  0.5229 -0.7731 -0.6911
  941MOL0     H24212   5.591   3.910   4.471 -2.8777  0.8008  1.6235
  942MOL0     O24213   5.685   0.738   1.985 -0.5876 -0.0460  0.2718
  942MOL0     C24214   5.670   0.614   1.977  0.5656  0.3189 -0.8265
  942MOL0     O24215   5.561   0.551   1.928  0.5008  0.6612  0.4999
  942MOL0     C24216   5.444   0.608   1.896  0.3067 -0.3229  0.0857
  942MOL0     C24217   5.394   0.728   1.967 -0.2386 -0.3987  0.0527
  942MOL0     C24218   5.262   0.777   1.941 -1.2616  0.1250 -0.4661
  942MOL0     C24219   5.185   0.717   1.849  0.0918 -0.2915  0.2438
  942MOL0     O24220   5.071   0.782   1.814  0.8215  0.1020  0.7922
  942MOL0     C24221   4.952   0.717   1.831 -0.3112  0.2343  0.3943
  942MOL0     C24222   4.832   0.795   1.777  0.5332  0.3325 -0.3104
  942MOL0     C24223   4.708   0.707   1.798 -0.5335 -0.2812 -0.6511
  942MOL0     C24224   4.580   0.790   1.780 -0.5960  0.1662  0.3461
  942MOL0     C24225   4.456   0.703   1.789 -0.5258  0.0056  0.1806
  942MOL0     C24226   4.333   0.780   1.800 -0.3798  0.0031  0.4571
  942MOL0     C24227   4.212   0.689   1.783  0.6897  0.3793  0.0293
  942MOL0     C24228   4.090   0.778   1.824 -0.9671 -0.9342  0.4389
  942MOL0     N24229   3.969   0.713   1.764  0.3902  0.6505  0.2994
  942MOL0     C24230   3.874   0.628   1.834 -0.2905 -0.3233  0.0435
  942MOL0     C24231   3.786   0.610   1.741  0.1413 -0.0104 -0.1002
  942MOL0     C24232   3.668   0.508   1.740  0.0290 -0.2578 -0.5413
  942MOL0     C24233   3.694   0.399   1.630  0.8150 -0.4520 -0.9605
  942MOL0     C24234   3.630   0.270   1.669 -0.0710 -0.7170 -0.0623
  942MOL0     C24235   3.475   0.283   1.634 -0.2931 -0.0980  0.2665
  942MOL0     O24236   3.442   0.284   1.496  0.5601  0.9450 -0.5708
  942MOL0     C24237   3.339   0.361   1.447 -0.0448  0.2652 -0.9021
  942MOL0     C24238   3.340   0.393   1.316  0.7873  0.7012 -0.0588
  942MOL0     C24239   3.234   0.481   1.268  0.8340 -0.0810  0.5022
  942MOL0     C24240   3.128   0.529   1.342 -0.1671 -0.2511  0.3590
  942MOL0     C24241   3.024   0.626   1.299 -1.0035  0.9839 -0.6476
  942MOL0     O24242   2.900   0.631   1.365 -0.6893 -0.0168 -0.3163
  942MOL0     C24243   2.804   0.719   1.323 -0.8115  0.1871 -0.4357
  942MOL0     C24244   2.749   0.727   1.191 -0.2398 -0.3479 -1.0611
  942MOL0     C24245   2.650   0.819   1.158 -0.2997 -0.4721 -0.5486
  942MOL0     C24246   2.597   0.906   1.259 -0.8421 -0.6622 -0.0422
  942MOL0     O24247   2.494   0.992   1.232  0.5696 -0.1063  0.7951
  942MOL0     C24248   2.350   0.958   1.245 -0.1470  0.2838 -0.1392
  942MOL0     C24249   2.290   0.981   1.384 -1.0054  0.2733  0.3741
  942MOL0     C24250   2.164   1.074   1.390 -0.5192 -0.5007 -1.2611
  942MOL0     C24251   2.214   1.209   1.391 -0.6617 -0.4494  0.0724
  942MOL0     C24252   2.109   1.318   1.431  0.1219  0.0705  0.3178
  942MOL0     C24253   2.159   1.459   1.469  0.4623  0.5492  0.1060
  942MOL0     C24254   2.221   1.533   1.355 -0.6349 -0.5836 -0.3105
  942MOL0     C24255   2.207   1.686   1.360 -0.3902 -0.7401 -0.3241
  942MOL0    Cl24256   2.289   1.778   1.232 -0.2949  0.1076 -0.2635
  942MOL0     C24257   2.647   0.892   1.389 -0.3516  0.1214  0.4468
  942MOL0     C24258   2.754   0.810   1.418 -0.3980  0.1907 -0.6833
  942MOL0     O24259   3.072   0.709   1.218 -0.0698  1.0006  0.6665
  942MOL0     C24260   3.121   0.476   1.474 -0.0895 -0.0257  0.8838
  942MOL0     C24261   3.224   0.394   1.526 -0.7140 -0.5561 -0.2232
  942MOL0     N24262   3.822   0.681   1.623 -0.0319  0.0996 -0.4211
  942MOL0     N24263   3.929   0.736   1.644  0.6399 -0.2297  0.8743
  942MOL0     C24264   5.236   0.604   1.772  0.4893 -0.4832  0.5111
  942MOL0     C24265   5.362   0.545   1.808  0.6722  0.1091 -0.1136
  942MOL0     C24266   5.785   0.526   2.029  0.3162 -0.6925 -0.5759
  942MOL0     C24267   5.904   0.594   2.070 -0.0258  0.9226  0.6915
  942MOL0     C24268   6.002   0.520   2.123 -0.5757 -0.4345  0.4913
  942MOL0     C24269   6.002   0.387   2.126 -0.2904  0.4195  0.9881
  942MOL0     O24270   6.114   0.342   2.175 -0.2564  0.2538 -0.2188
  942MOL0     C24271   6.114   0.202   2.215 -0.3228  0.2226  0.1518
  942MOL0     C24272   6.226   0.184   2.320 -0.2141 -1.0235  0.2119
  942MOL0     C24273   6.367   0.182   2.247  0.1787  0.0898  0.2626
  942MOL0     C24274   6.478   0.162   2.338 -0.2846 -0.0480  0.4106
  942MOL0     C24275   6.607   0.154   2.280 -0.6466 -0.2920 -0.4362
  942MOL0     C24276   6.724   0.129   2.240  0.7827 -0.5623  0.0930
  942MOL0     C24277   5.891   0.312   2.084 -0.3213  0.0826 -0.5016
  942MOL0     C24278   5.782   0.388   2.026  0.6020  0.3378 -1.0988
  942MOL0     H24279   5.456   0.779   2.040 -1.2149  0.3712  0.3735
  942MOL0     H24280   5.227   0.860   2.001 -3.1387 -0.8846 -0.0886
  942MOL0     H24281   4.946   0.705   1.940  3.9596 -0.8162  0.6790
  942MOL0     H24282   4.962   0.618   1.787  0.6011  0.7135 -0.5017
  942MOL0     H24283   4.842   0.821   1.671 -1.1404 -0.0850 -0.6060
  942MOL0     H24284   4.825   0.888   1.833 -2.0588 -0.1150  0.2190
  942MOL0     H24285   4.722   0.663   1.898  0.5711  1.4563  0.0261
  942MOL0     H24286   4.705   0.623   1.728 -0.6986 -0.3753 -0.5311
  942MOL0     H24287   4.570   0.863   1.861  4.8837  0.6618  0.9821
  942MOL0     H24288   4.595   0.840   1.684  1.5708 -0.9890  0.0238
  942MOL0     H24289   4.465   0.641   1.879  1.1774 -2.4284 -1.5254
  942MOL0     H24290   4.462   0.636   1.703  0.7365 -1.5296  1.3821
  942MOL0     H24291   4.341   0.861   1.727 -0.0682  0.9193  1.4814
  942MOL0     H24292   4.321   0.822   1.900 -3.9601  1.5575 -0.4758
  942MOL0     H24293   4.208   0.651   1.681  2.8569  2.0168 -0.7253
  942MOL0     H24294   4.214   0.598   1.844 -4.5585  0.3456  0.6548
  942MOL0     H24295   4.099   0.881   1.786  0.5498 -1.0818  0.3169
  942MOL0     H24296   4.077   0.791   1.932 -0.6697 -1.2464  0.5125
  942MOL0     H24297   3.883   0.575   1.928 -4.6619  0.3036  1.0615
  942MOL0     H24298   3.572   0.561   1.736  0.8600  1.5041  1.2645
  942MOL0     H24299   3.681   0.465   1.840  3.5650 -1.1325 -1.2599
  942MOL0     H24300   3.803   0.386   1.625  0.9780  0.8892 -1.3658
  942MOL0     H24301   3.660   0.437   1.533 -1.4403  1.1599  0.3728
  942MOL0     H24302   3.673   0.176   1.633 -0.7607 -2.7152  3.7966
  942MOL0     H24303   3.621   0.261   1.777 -1.5752 -1.9144 -0.2575
  942MOL0     H24304   3.452   0.381   1.676 -1.3249 -1.8364  4.2858
  942MOL0     H24305   3.422   0.204   1.689  1.1251 -0.0292  1.8205
  942MOL0     H24306   3.409   0.337   1.254  1.6148 -0.2415  1.6558
  942MOL0     H24307   3.237   0.512   1.164  0.7841  0.8309  0.7660
  942MOL0     H24308   2.799   0.663   1.118  0.4219 -0.8198 -0.2064
  942MOL0     H24309   2.623   0.829   1.053 -1.8048  0.1453 -0.1267
  942MOL0     H24310   2.325   0.855   1.218  0.0228  0.7480 -2.2013
  942MOL0     H24311   2.282   1.014   1.180 -2.2174 -1.9621 -0.0731
  942MOL0     H24312   2.380   1.005   1.440  1.6324 -2.6757 -2.2073
  942MOL0     H24313   2.256   0.888   1.431 -1.8101  0.0841 -0.5397
  942MOL0     H24314   2.096   1.051   1.472  1.3170 -1.4900  0.0798
  942MOL0     H24315   2.094   1.060   1.307 -2.0080  1.1470 -0.3322
  942MOL0     H24316   2.303   1.231   1.451 -0.1367  3.9047 -1.8509
  942MOL0     H24317   2.249   1.232   1.290  0.2627  0.7218  0.6301
  942MOL0     H24318   2.039   1.286   1.509 -1.0915  1.4003 -0.1628
  942MOL0     H24319   2.053   1.333   1.338  2.7515  0.2376 -1.3468
  942MOL0     H24320   2.234   1.453   1.549  0.3482  1.2981  0.2828
  942MOL0     H24321   2.067   1.504   1.508  0.7189 -0.8355  2.4909
  942MOL0     H24322   2.328   1.514   1.338 -0.6499  0.3789 -1.6654
  942MOL0     H24323   2.170   1.496   1.265 -1.9352 -2.2749  1.0676
  942MOL0     H24324   2.238   1.727   1.456  1.9331  2.2181 -2.1525
  942MOL0     H24325   2.100   1.706   1.349 -0.2689  1.2951  1.4121
  942MOL0     H24326   2.605   0.950   1.471 -1.1733 -0.2101  0.2639
  942MOL0     H24327   2.804   0.793   1.512 -0.9194 -0.2970 -0.4872
  942MOL0     H24328   3.038   0.508   1.536 -1.0212 -1.2545  0.3251
  942MOL0     H24329   3.214   0.350   1.624  1.4795 -0.5569  0.0655
  942MOL0     H24330   5.175   0.551   1.700  2.0811  0.4444 -1.6514
  942MOL0     H24331   5.379   0.450   1.759 -0.1243  0.5081 -1.2232
  942MOL0     H24332   5.900   0.702   2.078  2.0539  1.1793 -0.9383
  942MOL0     H24333   6.090   0.567   2.166 -0.5675 -0.4289  0.4681
  942MOL0     H24334   6.140   0.129   2.137 -0.0267  0.5565 -0.0644
  942MOL0     H24335   6.026   0.162   2.267  1.6550 -0.0145  3.6165
  942MOL0     H24336   6.218   0.274   2.383 -0.1035 -3.2115  3.6337
  942MOL0     H24337   6.217   0.090   2.375 -3.3772 -0.5470  0.7224
  942MOL0     H24338   6.375   0.269   2.181 -1.1927  0.0570  0.0265
  942MOL0     H24339   6.369   0.097   2.178 -2.1225  0.0113  0.2157
  942MOL0     H24340   6.472   0.246   2.408  2.1123  0.9073 -0.4410
  942MOL0     H24341   6.467   0.075   2.404  0.9965 -2.0749 -1.9131
  942MOL0     H24342   6.820   0.110   2.198  1.0802  0.1324  0.4426
  942MOL0     H24343   5.899   0.204   2.080 -0.0110  0.0294  1.0324
  942MOL0     H24344   5.698   0.329   1.989  0.6498 -0.3761 -0.1242
  943MOL0     O24345   5.382   1.807   1.457  0.8242 -0.4711  0.4555
  943MOL0     C24346   5.488   1.783   1.519  0.3781  0.3588 -0.0900
  943MOL0     O24347   5.545   1.662   1.540  0.4629  0.3784  0.4087
  943MOL0     C24348   5.482   1.541   1.508 -1.0229  0.1672  0.3239
  943MOL0     C24349   5.349   1.506   1.480 -0.1433 -0.6524 -0.2697
  943MOL0     C24350   5.315   1.376   1.475  0.2595 -0.0635 -0.2733
  943MOL0     C24351   5.401   1.272   1.501  0.1123 -0.2823  0.1440
  943MOL0     O24352   5.357   1.150   1.507 -0.2194  0.3108 -0.3351
  943MOL0     C24353   5.403   1.069   1.391  0.4802  0.5998  0.4060
  943MOL0     C24354   5.335   0.935   1.403 -0.3583  0.2374 -0.1094
  943MOL0     C24355   5.345   0.866   1.535 -0.1913  0.6587  0.0027
  943MOL0     C24356   5.484   0.845   1.595 -0.4926  0.5129 -0.0759
  943MOL0     C24357   5.579   0.748   1.525  0.1158  0.2184  0.2231
  943MOL0     C24358   5.712   0.721   1.604  0.5093 -0.3379 -0.1916
  943MOL0     C24359   5.785   0.598   1.549  0.2296 -0.0905 -1.1813
  943MOL0     C24360   5.901   0.529   1.623 -0.3094 -0.1035  0.6846
  943MOL0     N24361   6.010   0.620   1.659 -0.1302  0.0387  1.0484
  943MOL0     C24362   6.096   0.583   1.761  0.3745 -0.2701 -0.7962
  943MOL0     C24363   6.176   0.694   1.775  0.0288 -0.1370  0.4786
  943MOL0     C24364   6.295   0.700   1.867  0.6261  0.0498  0.3351
  943MOL0     C24365   6.403   0.592   1.828  0.0009  0.6849 -0.6481
  943MOL0     C24366   6.392   0.474   1.921 -0.7201 -0.1934  0.5317
  943MOL0     C24367   6.505   0.372   1.889 -0.6204 -0.6988  0.5191
  943MOL0     O24368   6.634   0.448   1.889  0.6148  0.2052  0.0801
  943MOL0     C24369   6.736   0.391   1.815  0.3298 -0.1866  0.0550
  943MOL0     C24370   6.831   0.469   1.745  0.7403  0.5357 -0.3426
  943MOL0     C24371   6.944   0.410   1.695 -0.2990  0.4217  0.4152
  943MOL0     C24372   6.969   0.272   1.706  1.0334 -1.0995 -0.0823
  943MOL0     C24373   7.082   0.206   1.641 -0.4597  0.1846 -0.1942
  943MOL0     O24374   7.101   0.071   1.656  0.1792 -0.6023  0.1168
  943MOL0     C24375   7.214   0.017   1.626  0.4443  0.4028 -0.9296
  943MOL0     C24376   7.298   0.042   1.519 -0.9897 -1.1726  0.3445
  943MOL0     C24377   7.402  -0.044   1.496 -0.0834  0.7762  0.1184
  943MOL0     C24378   7.419  -0.161   1.575  0.4419 -0.7268  1.5386
  943MOL0     O24379   7.527  -0.249   1.552 -0.4572 -0.1876 -0.2339
  943MOL0     C24380   7.563  -0.270   1.418  0.0589  0.0119  0.3245
  943MOL0     C24381   7.686  -0.353   1.419 -0.1236  1.2633 -0.0309
  943MOL0     C24382   7.790  -0.271   1.490  0.6477 -0.0395  0.0710
  943MOL0     C24383   7.931  -0.313   1.461  0.2719  0.1495  0.0144
  943MOL0     C24384   7.978  -0.290   1.317  0.1796 -0.6517  0.0286
  943MOL0     C24385   8.031  -0.143   1.298  0.0836  0.0855  0.0054
  943MOL0     C24386   8.088  -0.129   1.156  0.7763 -0.6628  0.2390
  943MOL0     C24387   8.153   0.011   1.148  0.0957 -0.7408 -0.5989
  943MOL0    Cl24388   8.298   0.058   1.248 -0.2559 -0.0500  0.1452
  943MOL0     C24389   7.329  -0.186   1.667  1.0559 -0.1404  0.1825
  943MOL0     C24390   7.228  -0.098   1.702 -0.1349 -0.7357  0.0483
  943MOL0     O24391   7.173   0.281   1.600 -0.5439 -0.1579 -0.0127
  943MOL0     C24392   6.873   0.196   1.772  0.8185 -0.1492  0.4386
  943MOL0     C24393   6.759   0.256   1.827  0.3028 -0.0872  0.3538
  943MOL0     N24394   6.137   0.791   1.679  0.5666  0.2612 -0.2663
  943MOL0     N24395   6.038   0.742   1.609 -0.3289 -0.0737  0.1863
  943MOL0     C24396   5.534   1.309   1.535  0.4441  0.6768 -0.0489
  943MOL0     C24397   5.577   1.439   1.530 -0.8080  0.1311  0.0182
  943MOL0     C24398   5.557   1.913   1.560 -0.8670  0.4645 -0.6020
  943MOL0     C24399   5.497   2.033   1.551 -0.1821  0.3325 -0.6062
  943MOL0     C24400   5.557   2.154   1.594  0.7292  0.7838 -0.3190
  943MOL0     C24401   5.681   2.153   1.654  0.2116  0.0029  0.3557
  943MOL0     O24402   5.746   2.260   1.708 -0.4780  0.2709  0.0993
  943MOL0     C24403   5.676   2.384   1.715 -0.3652  0.6653  0.6800
  943MOL0     C24404   5.760   2.491   1.802 -0.5347 -0.0652  0.6023
  943MOL0     C24405   5.717   2.638   1.773 -0.1892  0.1064 -0.5574
  943MOL0     C24406   5.752   2.730   1.882 -0.8547 -0.7396 -0.2160
  943MOL0     C24407   5.901   2.746   1.868 -0.3317 -0.2131 -0.2193
  943MOL0     C24408   6.022   2.763   1.849 -0.1282 -1.2055  0.6747
  943MOL0     C24409   5.747   2.029   1.654  0.1766  0.5547  1.2689
  943MOL0     C24410   5.686   1.912   1.608  0.0556  1.2225 -0.0028
  943MOL0     H24411   5.271   1.579   1.461 -1.6983 -2.3456 -0.6574
  943MOL0     H24412   5.212   1.345   1.459 -0.2909  1.8432 -0.7516
  943MOL0     H24413   5.512   1.064   1.394  0.4851  0.6053  0.2250
  943MOL0     H24414   5.374   1.111   1.295  2.0014 -0.1841 -0.4436
  943MOL0     H24415   5.367   0.874   1.318 -1.8463 -0.6941 -0.0254
  943MOL0     H24416   5.227   0.937   1.390 -0.4062  2.2807  0.3842
  943MOL0     H24417   5.292   0.771   1.527  0.3564  0.3883 -0.5520
  943MOL0     H24418   5.282   0.919   1.607 -0.6580  1.6722 -1.0994
  943MOL0     H24419   5.536   0.940   1.607  1.3084 -0.6927  2.7723
  943MOL0     H24420   5.474   0.795   1.692  0.6033  0.4512  0.0081
  943MOL0     H24421   5.600   0.788   1.425 -0.6132 -1.0355 -0.4541
  943MOL0     H24422   5.530   0.652   1.507  1.1160 -0.1075 -0.9250
  943MOL0     H24423   5.685   0.697   1.707 -1.2043  0.0889 -0.5019
  943MOL0     H24424   5.775   0.810   1.601 -1.1049  0.9672  1.9548
  943MOL0     H24425   5.709   0.520   1.536 -1.3634  0.4427  3.3330
  943MOL0     H24426   5.821   0.625   1.449 -0.6208 -1.1537 -1.7953
  943MOL0     H24427   5.940   0.451   1.557 -0.6978 -0.7287  1.1884
  943MOL0     H24428   5.867   0.476   1.712  0.0968 -0.9807  0.3269
  943MOL0     H24429   6.087   0.491   1.818  0.5464  0.4048  0.3512
  943MOL0     H24430   6.251   0.694   1.967 -0.6726 -0.5903 -0.2442
  943MOL0     H24431   6.345   0.796   1.856 -1.5018  1.4007  1.7104
  943MOL0     H24432   6.502   0.638   1.829  0.1316  0.3993 -0.2095
  943MOL0     H24433   6.383   0.564   1.724  0.7544 -1.2071 -0.3226
  943MOL0     H24434   6.409   0.506   2.024  2.2212 -0.4315  0.2172
  943MOL0     H24435   6.297   0.422   1.909 -0.7831 -0.1203  0.7096
  943MOL0     H24436   6.492   0.322   1.793  1.0204 -0.2437  0.0140
  943MOL0     H24437   6.506   0.291   1.962  0.5955 -0.2410  1.0405
  943MOL0     H24438   6.817   0.577   1.736  3.3420  1.0276  0.6770
  943MOL0     H24439   7.032   0.463   1.657  1.0098 -1.3623  0.8512
  943MOL0     H24440   7.289   0.131   1.458 -0.4308  0.1739  2.1501
  943MOL0     H24441   7.481  -0.013   1.428 -1.1713 -1.0667 -2.1222
  943MOL0     H24442   7.585  -0.176   1.367 -1.0462  2.2712  3.6819
  943MOL0     H24443   7.481  -0.328   1.376 -1.0852  2.4241 -0.9453
  943MOL0     H24444   7.710  -0.377   1.315  0.3460  3.5501 -0.4979
  943MOL0     H24445   7.672  -0.450   1.468 -1.2175  1.2745 -0.2907
  943MOL0     H24446   7.768  -0.274   1.597 -1.1079  0.6489 -0.2342
  943MOL0     H24447   7.789  -0.163   1.472 -0.3876 -0.0510  0.0143
  943MOL0     H24448   7.987  -0.252   1.533 -0.1689  0.0659  0.4313
  943MOL0     H24449   7.946  -0.420   1.478  0.6233 -0.2834 -2.5940
  943MOL0     H24450   7.900  -0.324   1.248 -0.3118 -1.8802  1.1393
  943MOL0     H24451   8.058  -0.363   1.303  1.3556  0.1599  2.0895
  943MOL0     H24452   8.095  -0.114   1.381 -0.5258 -1.8882  1.2425
  943MOL0     H24453   7.951  -0.069   1.307  0.0661 -0.2150  5.1938
  943MOL0     H24454   8.151  -0.212   1.124 -0.0643 -1.8735  1.5989
  943MOL0     H24455   8.010  -0.130   1.080  1.0739  4.0701 -0.4539
  943MOL0     H24456   8.074   0.086   1.159  0.0643 -0.9025  0.4239
  943MOL0     H24457   8.183   0.026   1.044 -2.7109  1.6318 -1.2305
  943MOL0     H24458   7.340  -0.283   1.715  1.0482 -0.2660 -0.0705
  943MOL0     H24459   7.152  -0.114   1.778 -0.3729 -0.8327 -0.2118
  943MOL0     H24460   6.891   0.089   1.784 -3.3423 -1.7746 -4.3315
  943MOL0     H24461   6.686   0.199   1.884 -0.9202 -0.2639 -1.3075
  943MOL0     H24462   5.607   1.232   1.559  0.2376  0.4353 -0.1822
  943MOL0     H24463   5.678   1.468   1.555  0.2490 -2.7031 -0.6677
  943MOL0     H24464   5.394   2.041   1.516  0.5975 -0.6777 -3.4176
  943MOL0     H24465   5.496   2.244   1.593 -0.6088 -0.0476  1.5311
  943MOL0     H24466   5.589   2.376   1.781  2.6512 -1.5142  4.8449
  943MOL0     H24467   5.664   2.437   1.620  2.3384 -3.5695 -2.4015
  943MOL0     H24468   5.748   2.466   1.908  1.6714 -2.8521  0.3120
  943MOL0     H24469   5.862   2.460   1.778 -1.3850 -2.5665 -0.1392
  943MOL0     H24470   5.608   2.637   1.776 -0.1696 -0.6820  1.6935
  943MOL0     H24471   5.757   2.653   1.672 -3.1651 -3.6047 -2.5408
  943MOL0     H24472   5.702   2.827   1.878 -3.6087 -1.9374  1.9422
  943MOL0     H24473   5.720   2.698   1.982 -2.2702  5.0661  1.5928
  943MOL0     H24474   6.124   2.788   1.826  0.1437 -3.0299 -0.2772
  943MOL0     H24475   5.848   2.024   1.694  0.0746  1.5955  1.6882
  943MOL0     H24476   5.743   1.820   1.597  0.0094  1.2496 -0.4878
  944MOL0     O24477   9.960   2.038   8.723  0.3988 -0.2487  0.1235
  944MOL0     C24478   9.965   1.940   8.650 -0.4533 -0.2671  0.3475
  944MOL0     O24479   9.867   1.858   8.612  0.3923  0.1595 -0.7564
  944MOL0     C24480   9.744   1.901   8.657 -0.1070  0.0498  0.3874
  944MOL0     C24481   9.704   1.883   8.788  0.5957  0.1809 -0.6682
  944MOL0     C24482   9.575   1.933   8.832 -0.3480 -0.1413 -0.1506
  944MOL0     C24483   9.487   1.987   8.738  0.8065  0.4737  0.8145
  944MOL0     O24484   9.357   2.023   8.778 -0.4887 -0.0541  0.0800
  944MOL0     C24485   9.267   2.082   8.692  0.6512 -0.0465  0.9336
  944MOL0     C24486   9.149   2.104   8.776 -0.4290 -0.3910  0.1764
  944MOL0     C24487   9.020   2.163   8.721 -0.4700  0.8687  0.0545
  944MOL0     C24488   9.045   2.304   8.671 -0.3622  0.2054  0.6384
  944MOL0     C24489   8.902   2.353   8.610  0.3028  1.3228 -0.6119
  944MOL0     C24490   8.799   2.386   8.721  0.5730 -0.2937  0.1706
  944MOL0     C24491   8.834   2.527   8.781  0.6975  0.5538 -0.8699
  944MOL0     C24492   8.831   2.648   8.686 -0.8319 -0.1515  0.1215
  944MOL0     N24493   8.705   2.706   8.644 -0.2994 -0.4244 -0.1080
  944MOL0     C24494   8.656   2.745   8.522  0.0543 -0.3496 -0.5228
  944MOL0     C24495   8.529   2.766   8.532  0.2598 -0.0692  0.2867
  944MOL0     C24496   8.449   2.810   8.415 -0.3304  0.3678 -0.2443
  944MOL0     C24497   8.312   2.751   8.399  1.0134  1.0666  0.2879
  944MOL0     C24498   8.223   2.836   8.300  0.0739  0.3436  0.1805
  944MOL0     C24499   8.124   2.739   8.242  0.5040  0.5073 -0.6977
  944MOL0     O24500   8.046   2.787   8.130 -1.1530 -0.1983  0.0422
  944MOL0     C24501   7.919   2.749   8.142 -0.3421  0.5423  0.8691
  944MOL0     C24502   7.830   2.828   8.207  0.1851  0.3665  0.0054
  944MOL0     C24503   7.691   2.807   8.205 -0.3128  0.5351 -0.3325
  944MOL0     C24504   7.645   2.695   8.136  0.0525 -0.5164 -0.1122
  944MOL0     C24505   7.502   2.669   8.128 -0.8683  0.5814  1.1540
  944MOL0     O24506   7.430   2.749   8.206  0.3818  0.1897  0.2577
  944MOL0     C24507   7.294   2.749   8.183  0.4338  0.1550  0.0468
  944MOL0     C24508   7.224   2.864   8.227 -0.1345  0.8926  0.6830
  944MOL0     C24509   7.088   2.878   8.213  0.2893  0.5467 -0.8419
  944MOL0     C24510   7.009   2.768   8.173  0.2601  0.6713 -0.8305
  944MOL0     O24511   6.872   2.785   8.166 -0.6191  0.4241  0.0175
  944MOL0     C24512   6.797   2.674   8.121  0.5077 -0.5009 -0.4261
  944MOL0     C24513   6.658   2.729   8.112  0.0534  0.1633 -0.4011
  944MOL0     C24514   6.646   2.827   7.992  0.5890  0.0294  0.1402
  944MOL0     C24515   6.502   2.879   7.972 -0.2097  0.5803  0.1387
  944MOL0     C24516   6.469   2.987   8.088  0.0489 -0.6092  0.8568
  944MOL0     C24517   6.319   3.026   8.078  0.6905  0.9381  0.9648
  944MOL0     C24518   6.281   3.117   7.951  0.6962  0.9007 -0.7425
  944MOL0     C24519   6.132   3.146   7.973  0.3018  0.2158  0.5491
  944MOL0    Cl24520   6.057   3.222   7.827  0.5036  0.1008  0.1026
  944MOL0     C24521   7.075   2.647   8.161  0.1739 -0.2418 -0.2311
  944MOL0     C24522   7.213   2.643   8.147  0.3255  0.0009  0.7124
  944MOL0     O24523   7.467   2.579   8.050  0.2242  0.6726 -0.6043
  944MOL0     C24524   7.741   2.599   8.081 -0.9600  0.8761  0.2219
  944MOL0     C24525   7.881   2.634   8.077 -0.3305 -0.3238  0.3829
  944MOL0     N24526   8.501   2.781   8.662  0.7130 -0.2071 -0.3199
  944MOL0     N24527   8.610   2.752   8.727 -0.2844  0.9743 -0.3687
  944MOL0     C24528   9.522   2.006   8.607  0.3991 -0.6575 -0.5421
  944MOL0     C24529   9.651   1.955   8.564 -0.2842  0.2692 -0.0557
  944MOL0     C24530  10.101   1.879   8.599  0.2221 -1.0971 -0.4592
  944MOL0     C24531  10.124   1.737   8.587 -0.7916  0.4897  0.8523
  944MOL0     C24532  10.237   1.691   8.517 -0.3549  0.8058 -0.7940
  944MOL0     C24533  10.343   1.777   8.479  0.4015 -0.1414 -0.6645
  944MOL0     O24534  10.451   1.729   8.407 -0.2156 -0.6474 -1.2496
  944MOL0     C24535  10.416   1.696   8.267 -0.2549  0.5097 -0.4208
  944MOL0     C24536  10.365   1.826   8.194  0.1058 -0.0567 -0.5650
  944MOL0     C24537  10.468   1.939   8.173  0.2419  0.2971 -0.5406
  944MOL0     C24538  10.400   2.066   8.188  0.5064  0.0659 -0.8185
  944MOL0     C24539  10.481   2.175   8.139 -0.4543  0.2324  1.0906
  944MOL0     C24540  10.536   2.274   8.093  0.7672  0.5636  0.0395
  944MOL0     C24541  10.323   1.914   8.510 -0.8180  0.0082  0.7538
  944MOL0     C24542  10.208   1.970   8.565 -0.2924  0.1291 -0.5246
  944MOL0     H24543   9.772   1.831   8.854  0.3120 -2.0853 -2.0739
  944MOL0     H24544   9.533   1.914   8.930 -0.9230  0.7212 -0.2228
  944MOL0     H24545   9.234   2.016   8.611 -4.2264  1.2554  1.5082
  944MOL0     H24546   9.311   2.174   8.653  2.8923 -1.5037 -0.1606
  944MOL0     H24547   9.181   2.176   8.852  1.8589 -0.3649 -0.7228
  944MOL0     H24548   9.130   2.010   8.829 -1.1949  0.5891  1.7008
  944MOL0     H24549   8.949   2.168   8.805  0.8166  0.7759  1.1871
  944MOL0     H24550   8.975   2.099   8.644 -0.8716  0.9947  0.1771
  944MOL0     H24551   9.081   2.364   8.756 -1.2943 -1.5713  2.3701
  944MOL0     H24552   9.116   2.304   8.588  0.5334  1.5943  1.3578
  944MOL0     H24553   8.861   2.271   8.550 -0.3586  0.7435  0.5787
  944MOL0     H24554   8.921   2.430   8.535  3.2598 -0.4549 -1.8582
  944MOL0     H24555   8.808   2.315   8.804 -1.5470 -0.7554  0.0699
  944MOL0     H24556   8.699   2.379   8.676  0.8881 -1.9722 -0.3548
  944MOL0     H24557   8.759   2.553   8.856  1.1900  3.4415 -1.2924
  944MOL0     H24558   8.931   2.517   8.831  0.5200 -0.5606 -0.7071
  944MOL0     H24559   8.905   2.632   8.607  0.9724  0.5758  1.5717
  944MOL0     H24560   8.885   2.731   8.733 -2.4236  1.0025 -0.0123
  944MOL0     H24561   8.707   2.740   8.427  0.7135  0.7195 -0.2441
  944MOL0     H24562   8.499   2.779   8.323  2.2372  0.4870  0.9890
  944MOL0     H24563   8.437   2.919   8.413 -3.4178  0.1508  1.2616
  944MOL0     H24564   8.263   2.749   8.497  0.0839 -2.1929 -0.1290
  944MOL0     H24565   8.326   2.650   8.361 -1.5987  1.2797 -1.5004
  944MOL0     H24566   8.164   2.920   8.339 -1.9260 -0.8205 -0.2063
  944MOL0     H24567   8.287   2.882   8.224 -0.5711  0.8515 -0.0632
  944MOL0     H24568   8.056   2.698   8.317  1.7892  2.4776  1.6936
  944MOL0     H24569   8.182   2.654   8.206 -0.0531 -1.0519  1.8239
  944MOL0     H24570   7.862   2.925   8.245  0.7818  0.8268 -1.5679
  944MOL0     H24571   7.625   2.877   8.257 -3.8177 -3.9486  1.9225
  944MOL0     H24572   7.277   2.949   8.270 -0.2233  1.2136  0.1712
  944MOL0     H24573   7.039   2.973   8.232 -0.2933  0.1331 -0.2403
  944MOL0     H24574   6.800   2.592   8.193 -2.1553  0.9804  1.5276
  944MOL0     H24575   6.823   2.651   8.017 -2.1240 -2.1196 -0.8301
  944MOL0     H24576   6.634   2.784   8.203 -1.0423 -1.8522  0.5942
  944MOL0     H24577   6.585   2.648   8.105  0.5786 -0.2782 -0.8053
  944MOL0     H24578   6.684   2.782   7.900 -0.5526  0.7383 -0.6926
  944MOL0     H24579   6.714   2.911   8.004  0.2757  1.0273 -3.7705
  944MOL0     H24580   6.487   2.923   7.873 -2.4675  2.5128  1.2380
  944MOL0     H24581   6.433   2.794   7.974  0.9968 -0.5795 -2.4215
  944MOL0     H24582   6.522   3.082   8.078  0.7726 -1.2687 -2.5994
  944MOL0     H24583   6.488   2.947   8.188 -0.8870 -1.6689  0.6304
  944MOL0     H24584   6.294   3.094   8.160 -1.6109  2.2607 -0.7365
  944MOL0     H24585   6.260   2.934   8.088  0.4470  1.1080  1.1018
  944MOL0     H24586   6.333   3.213   7.947  0.2191  1.2048  0.2784
  944MOL0     H24587   6.291   3.062   7.856 -1.5548  0.4531 -0.7665
  944MOL0     H24588   6.117   3.211   8.060 -1.9082 -1.4478  1.4998
  944MOL0     H24589   6.085   3.051   7.999  2.0853 -2.2343 -3.9784
  944MOL0     H24590   7.021   2.553   8.154 -1.3736  0.3078  2.7200
  944MOL0     H24591   7.259   2.545   8.134  1.1477 -0.0801  3.5057
  944MOL0     H24592   7.711   2.509   8.028  1.0713  0.7856 -0.8560
  944MOL0     H24593   7.958   2.573   8.032  0.5899  0.3954  0.9543
  944MOL0     H24594   9.474   2.044   8.518  3.3768  0.3867 -1.8434
  944MOL0     H24595   9.674   1.953   8.458 -0.9913  1.2626 -0.2445
  944MOL0     H24596  10.047   1.665   8.614 -2.1968  1.1410 -1.1931
  944MOL0     H24597  10.256   1.587   8.495 -0.2222  0.6997 -0.2005
  944MOL0     H24598  10.333   1.626   8.283 -1.7634  2.8307  3.3203
  944MOL0     H24599  10.490   1.645   8.205 -2.6765 -1.1779 -2.1325
  944MOL0     H24600  10.327   1.805   8.093 -2.3058 -0.1039  0.2783
  944MOL0     H24601  10.273   1.850   8.249  0.3963 -3.0869  1.4558
  944MOL0     H24602  10.518   1.935   8.076  1.8939 -1.7618  0.3073
  944MOL0     H24603  10.543   1.918   8.251 -0.1633  0.5805 -0.0663
  944MOL0     H24604  10.310   2.066   8.127  0.3190  0.9923 -0.5468
  944MOL0     H24605  10.387   2.091   8.294  1.6915 -1.0578 -0.3687
  944MOL0     H24606  10.591   2.362   8.068  1.0920 -0.0851 -1.7442
  944MOL0     H24607  10.408   1.973   8.478 -0.8969  0.9133  2.1171
  944MOL0     H24608  10.194   2.075   8.585  1.8809  0.5433 -0.9952
  945MOL0     O24609   4.469   7.245   7.025  0.1808  0.1160  0.0256
  945MOL0     C24610   4.363   7.289   7.079  0.3884  0.2241  0.3395
  945MOL0     O24611   4.232   7.232   7.054 -0.0064 -0.1847 -0.5482
  945MOL0     C24612   4.205   7.129   6.967 -0.7523  0.1919  0.8238
  945MOL0     C24613   4.278   7.014   6.951  0.0876  0.7367 -0.2989
  945MOL0     C24614   4.247   6.915   6.868 -0.7524 -0.0909  0.0249
  945MOL0     C24615   4.127   6.914   6.799 -0.0973  0.1027  1.0552
  945MOL0     O24616   4.106   6.807   6.723 -0.5839 -0.1752 -0.4626
  945MOL0     C24617   3.976   6.781   6.673  0.6968  0.9338  0.7543
  945MOL0     C24618   3.928   6.851   6.547 -0.5807 -0.6079  0.4840
  945MOL0     C24619   3.979   6.786   6.415  0.4437 -0.3708 -0.2362
  945MOL0     C24620   4.131   6.810   6.400  1.1338  0.0201  0.1992
  945MOL0     C24621   4.190   6.779   6.261 -0.1088 -0.6174  0.5866
  945MOL0     C24622   4.139   6.640   6.217 -0.7380  0.8882 -0.2937
  945MOL0     C24623   4.162   6.622   6.072 -0.5295 -0.3987  0.2538
  945MOL0     C24624   4.112   6.733   5.972 -0.2978 -0.4115 -0.2359
  945MOL0     N24625   4.047   6.687   5.849  0.0954  0.3807  0.3094
  945MOL0     C24626   4.116   6.649   5.735  0.8991 -0.0252  1.3657
  945MOL0     C24627   4.021   6.604   5.653 -0.0668  0.1382 -0.9472
  945MOL0     C24628   4.048   6.549   5.518 -0.0271 -0.0186 -0.1011
  945MOL0     C24629   4.016   6.397   5.515  0.5932  0.5396  1.1030
  945MOL0     C24630   4.055   6.340   5.369  0.5742 -0.1670 -0.7107
  945MOL0     C24631   3.962   6.380   5.246  0.5514  0.0633  0.3987
  945MOL0     O24632   3.969   6.288   5.138 -0.1967 -0.1721  0.1673
  945MOL0     C24633   4.093   6.265   5.079 -0.2955  0.6281 -0.7307
  945MOL0     C24634   4.125   6.150   5.010 -0.4308  0.4875 -0.2387
  945MOL0     C24635   4.255   6.119   4.963  0.8824  0.0651 -0.4516
  945MOL0     C24636   4.356   6.204   4.989  0.0280 -1.1917 -0.3015
  945MOL0     C24637   4.493   6.174   4.940  0.2819 -0.3905 -0.2993
  945MOL0     O24638   4.532   6.036   4.949  0.1335 -0.8370 -0.2779
  945MOL0     C24639   4.662   6.003   4.938  0.6847  0.4666 -1.0565
  945MOL0     C24640   4.769   6.081   4.985 -0.7386  0.3022  0.8333
  945MOL0     C24641   4.901   6.036   4.953  0.6647 -0.6791 -0.0536
  945MOL0     C24642   4.922   5.910   4.894  0.1238 -0.7181  0.6310
  945MOL0     O24643   5.041   5.844   4.867 -0.0150 -0.1624 -0.3257
  945MOL0     C24644   5.161   5.921   4.850 -0.1769 -0.8262 -0.2054
  945MOL0     C24645   5.288   5.847   4.855 -0.6188  0.4514 -0.8734
  945MOL0     C24646   5.267   5.712   4.782  0.3381  0.2670 -0.0072
  945MOL0     C24647   5.402   5.641   4.761  0.6900 -0.0832 -0.1797
  945MOL0     C24648   5.384   5.532   4.656  0.4918  0.0177 -0.0788
  945MOL0     C24649   5.486   5.413   4.656  0.2402 -0.0169 -0.0910
  945MOL0     C24650   5.628   5.464   4.619  0.2425  0.2747  0.1925
  945MOL0     C24651   5.710   5.339   4.648 -0.9656  0.4367  0.4151
  945MOL0    Cl24652   5.877   5.359   4.587  0.1142  0.1510  0.3577
  945MOL0     C24653   4.807   5.831   4.861 -0.2357  0.7387 -0.1734
  945MOL0     C24654   4.679   5.880   4.873  0.0368  0.6118  0.2541
  945MOL0     O24655   4.564   6.270   4.900 -0.0033 -0.3992  0.6070
  945MOL0     C24656   4.336   6.323   5.062  0.1153  0.3976 -0.5361
  945MOL0     C24657   4.203   6.350   5.100 -0.0329 -0.3895 -0.6324
  945MOL0     N24658   3.898   6.624   5.718 -0.1051 -0.5542 -0.0798
  945MOL0     N24659   3.913   6.670   5.843 -0.0208 -0.4714 -0.1946
  945MOL0     C24660   4.038   7.028   6.812  0.1003  0.5183 -0.0046
  945MOL0     C24661   4.079   7.128   6.894  0.2730 -1.1985  0.5435
  945MOL0     C24662   4.370   7.397   7.184  0.4465  0.5911  0.0589
  945MOL0     C24663   4.260   7.421   7.272 -0.7293  0.0459  0.1836
  945MOL0     C24664   4.278   7.512   7.379 -0.6931  0.0349  0.0008
  945MOL0     C24665   4.411   7.564   7.404 -0.4177  0.2310 -0.7378
  945MOL0     O24666   4.417   7.650   7.508  0.1092  0.4453 -0.7256
  945MOL0     C24667   4.546   7.685   7.544 -0.4088 -1.0424 -0.9041
  945MOL0     C24668   4.554   7.727   7.694 -0.6370  0.1814  0.5657
  945MOL0     C24669   4.466   7.834   7.745  0.6133  0.0054 -0.4584
  945MOL0     C24670   4.501   7.867   7.897 -1.2431  0.3250 -1.2259
  945MOL0     C24671   4.391   7.940   7.959 -0.1657 -0.1535 -0.1102
  945MOL0     C24672   4.294   8.002   8.000  0.4120  0.2780  0.7815
  945MOL0     C24673   4.517   7.520   7.321  0.1641  0.1925 -0.2560
  945MOL0     C24674   4.497   7.447   7.206  0.4448  0.1526 -0.1038
  945MOL0     H24675   4.367   6.997   7.011  0.8605  0.2787 -1.5371
  945MOL0     H24676   4.327   6.842   6.860 -0.4574  0.2161  0.1625
  945MOL0     H24677   3.911   6.790   6.761 -0.0828 -1.0504  0.4233
  945MOL0     H24678   3.975   6.675   6.648 -1.5865  1.6010 -2.7461
  945MOL0     H24679   3.951   6.958   6.549  0.4462 -0.7552 -1.6109
  945MOL0     H24680   3.818   6.849   6.545 -1.1968  6.3430  1.6839
  945MOL0     H24681   3.932   6.849   6.339 -0.8754 -0.5427  0.4063
  945MOL0     H24682   3.944   6.682   6.413 -1.5167  0.2188  0.7711
  945MOL0     H24683   4.159   6.912   6.428  3.6090 -0.1283 -1.3911
  945MOL0     H24684   4.186   6.749   6.473  2.1829 -0.8375 -1.2628
  945MOL0     H24685   4.298   6.776   6.278 -0.6025 -1.0353  4.5846
  945MOL0     H24686   4.164   6.863   6.195 -0.3703 -1.7037 -0.7506
  945MOL0     H24687   4.033   6.627   6.240 -0.0321  0.4002  3.2327
  945MOL0     H24688   4.181   6.560   6.279 -1.1605  1.1262  0.3043
  945MOL0     H24689   4.263   6.595   6.040 -0.8053  1.2600 -2.2906
  945MOL0     H24690   4.097   6.543   6.035 -2.6089  0.9166  0.9088
  945MOL0     H24691   4.197   6.800   5.953 -0.8543  0.3684 -0.0412
  945MOL0     H24692   4.033   6.783   6.029 -0.0763 -2.2409  1.8051
  945MOL0     H24693   4.224   6.663   5.737  0.9917 -0.7067  1.3547
  945MOL0     H24694   4.153   6.570   5.496  0.4305  2.6357  3.6727
  945MOL0     H24695   3.976   6.601   5.454  1.3503  4.3344  1.5261
  945MOL0     H24696   3.908   6.380   5.528  0.4784 -0.6533 -1.0014
  945MOL0     H24697   4.068   6.348   5.598  0.0619 -0.0112  1.1235
  945MOL0     H24698   4.157   6.379   5.365  0.8292 -0.1726  2.6708
  945MOL0     H24699   4.065   6.231   5.382  0.0870  0.0627  2.1556
  945MOL0     H24700   3.993   6.477   5.206 -0.9606  0.1529 -0.6170
  945MOL0     H24701   3.857   6.373   5.274  1.2174 -2.3061  2.7212
  945MOL0     H24702   4.041   6.085   4.991  0.3488 -0.5283 -0.3069
  945MOL0     H24703   4.266   6.021   4.918  0.3570 -1.3164  2.2544
  945MOL0     H24704   4.758   6.178   5.032  0.9066 -0.0295  2.0069
  945MOL0     H24705   4.978   6.112   4.961 -3.3449  4.1231 -1.8272
  945MOL0     H24706   5.164   6.009   4.915 -1.1118  1.9916 -3.6549
  945MOL0     H24707   5.156   5.969   4.751 -3.1765 -0.4755  0.0127
  945MOL0     H24708   5.329   5.843   4.956  0.5185  1.4886 -1.2649
  945MOL0     H24709   5.367   5.896   4.797 -0.7586  1.1429 -0.4864
  945MOL0     H24710   5.216   5.736   4.688 -4.4179  0.2232  2.2193
  945MOL0     H24711   5.202   5.654   4.848 -0.1537  0.8212  0.0082
  945MOL0     H24712   5.494   5.697   4.740  1.7212 -1.7672 -0.2593
  945MOL0     H24713   5.417   5.605   4.863 -0.3238  2.2971  0.8989
  945MOL0     H24714   5.384   5.567   4.552  0.3560  1.0789  0.2700
  945MOL0     H24715   5.286   5.485   4.674  0.9958 -0.5868  1.1852
  945MOL0     H24716   5.446   5.340   4.585 -1.0245 -1.1169  1.6745
  945MOL0     H24717   5.484   5.379   4.760 -2.3456  0.9022  0.2278
  945MOL0     H24718   5.615   5.475   4.511 -1.3936 -3.0550 -0.0927
  945MOL0     H24719   5.646   5.548   4.687 -2.2364  0.2955  0.9622
  945MOL0     H24720   5.667   5.253   4.596 -0.3508  1.4375 -1.8807
  945MOL0     H24721   5.721   5.317   4.754 -0.8490  0.5679  0.4309
  945MOL0     H24722   4.820   5.733   4.818  1.8283 -1.2088  4.2992
  945MOL0     H24723   4.593   5.829   4.831  0.4638  0.2527 -0.1958
  945MOL0     H24724   4.410   6.399   5.085  0.3189  0.4921 -1.4752
  945MOL0     H24725   4.196   6.437   5.164  1.6997  1.3238 -2.6330
  945MOL0     H24726   3.933   7.039   6.785 -0.3203  1.4363  1.8304
  945MOL0     H24727   4.006   7.208   6.907 -0.3825 -1.5891 -0.5806
  945MOL0     H24728   4.164   7.372   7.257 -0.7097 -0.4407  1.5467
  945MOL0     H24729   4.195   7.537   7.444  1.0001 -0.5087  2.5130
  945MOL0     H24730   4.577   7.772   7.486 -2.8550  0.5305 -0.0196
  945MOL0     H24731   4.617   7.606   7.522 -1.0988 -1.5417 -1.3705
  945MOL0     H24732   4.551   7.639   7.759  1.2674 -1.9774 -2.0356
  945MOL0     H24733   4.661   7.748   7.702 -0.7213  0.2993  1.5802
  945MOL0     H24734   4.361   7.811   7.725 -0.2241  3.1285 -0.2014
  945MOL0     H24735   4.488   7.926   7.690  0.2677  2.3892  3.0828
  945MOL0     H24736   4.520   7.770   7.944 -3.5784 -1.7074 -4.1019
  945MOL0     H24737   4.594   7.925   7.903  0.9566 -3.0170 -0.2628
  945MOL0     H24738   4.201   8.048   8.028  0.1284  2.1829 -2.6708
  945MOL0     H24739   4.622   7.543   7.336 -0.4137  2.1101  1.2688
  945MOL0     H24740   4.576   7.415   7.140  0.5448 -1.8870  0.9285
  946MOL0     O24741   2.438   8.110   9.900 -0.7038 -0.7661 -0.2412
  946MOL0     C24742   2.493   8.005   9.921 -1.1087 -0.4813 -0.7843
  946MOL0     O24743   2.439   7.881   9.906 -0.6247  0.1545 -0.3617
  946MOL0     C24744   2.314   7.866   9.854 -0.4859  0.0463 -0.7016
  946MOL0     C24745   2.289   7.889   9.718 -0.0093  0.4187 -0.7206
  946MOL0     C24746   2.163   7.897   9.666 -0.3206 -0.4286 -0.0506
  946MOL0     C24747   2.051   7.872   9.745 -0.5850 -0.0439 -0.2691
  946MOL0     O24748   1.921   7.851   9.693 -0.3115 -0.2706 -0.5448
  946MOL0     C24749   1.890   7.887   9.553 -0.0374 -0.0216  0.1337
  946MOL0     C24750   1.743   7.913   9.527 -0.1122 -0.8805 -0.6621
  946MOL0     C24751   1.667   7.785   9.563 -0.2156  0.0649 -0.4830
  946MOL0     C24752   1.525   7.832   9.578 -0.2536  0.2544  0.4150
  946MOL0     C24753   1.409   7.733   9.590  0.7646  0.3720  0.1534
  946MOL0     C24754   1.370   7.675   9.459 -0.6582  0.6273 -0.3877
  946MOL0     C24755   1.250   7.576   9.466 -0.8336 -0.4326  0.1763
  946MOL0     C24756   1.112   7.637   9.495 -0.2986 -0.1146  0.4696
  946MOL0     N24757   1.017   7.533   9.529  0.6703  0.3796 -0.2051
  946MOL0     C24758   0.981   7.409   9.461 -0.1843 -0.0603 -0.3619
  946MOL0     C24759   0.857   7.371   9.522 -0.3513 -0.1507 -0.0176
  946MOL0     C24760   0.782   7.237   9.522  0.1992  0.2176  0.1918
  946MOL0     C24761   0.681   7.225   9.414 -0.1181  0.3547 -0.0472
  946MOL0     C24762   0.581   7.332   9.390  0.4847 -0.2644  1.0880
  946MOL0     C24763   0.450   7.308   9.455 -0.3589  0.7184 -0.6255
  946MOL0     O24764   0.347   7.397   9.403  0.7200 -0.0178 -0.1669
  946MOL0     C24765   0.221   7.352   9.370  0.1831  0.3807 -0.1237
  946MOL0     C24766   0.159   7.420   9.263  0.2636  0.6100  0.6032
  946MOL0     C24767   0.025   7.391   9.234 -0.0944 -1.2607  0.0292
  946MOL0     C24768  -0.049   7.301   9.305 -0.0673  0.8562 -0.6753
  946MOL0     C24769  -0.188   7.261   9.272 -0.5722  0.9827  0.2471
  946MOL0     O24770  -0.251   7.182   9.359 -0.0346 -0.8708  0.3409
  946MOL0     C24771  -0.386   7.160   9.345 -0.3604  0.0000  1.0342
  946MOL0     C24772  -0.441   7.034   9.352  0.6418  0.5299  0.2324
  946MOL0     C24773  -0.582   7.030   9.362  0.5072  0.8001  0.0900
  946MOL0     C24774  -0.659   7.138   9.368  0.1777 -0.4020  0.1204
  946MOL0     O24775  -0.786   7.138   9.380  0.2937 -0.3941  0.0916
  946MOL0     C24776  -0.861   7.067   9.280 -0.2922  0.3955  0.4959
  946MOL0     C24777  -0.990   7.004   9.352 -0.2649 -0.0871  0.0439
  946MOL0     C24778  -0.965   6.883   9.434 -0.7886  0.3396  0.5290
  946MOL0     C24779  -1.059   6.832   9.548 -0.1295  0.9468  0.5519
  946MOL0     C24780  -1.174   6.767   9.489 -0.0247  0.7399 -0.4828
  946MOL0     C24781  -1.256   6.691   9.601  0.4547 -0.3059  0.3915
  946MOL0     C24782  -1.373   6.632   9.525  0.7614 -0.6688 -0.6878
  946MOL0     C24783  -1.495   6.614   9.625 -0.0008  0.4388 -0.3885
  946MOL0    Cl24784  -1.618   6.493   9.565  0.1628  0.2281  0.1907
  946MOL0     C24785  -0.606   7.260   9.364  0.2775  0.0331 -0.3814
  946MOL0     C24786  -0.471   7.272   9.353  1.1726  0.2505 -0.0093
  946MOL0     O24787  -0.241   7.303   9.172 -0.1702  0.6683 -0.3402
  946MOL0     C24788   0.006   7.247   9.419  0.2431 -1.2906 -0.9726
  946MOL0     C24789   0.142   7.269   9.449  0.4731 -0.3121  0.4599
  946MOL0     N24790   0.823   7.466   9.619  0.7920 -0.0875  0.3880
  946MOL0     N24791   0.922   7.553   9.624 -0.2533 -0.6000 -0.4553
  946MOL0     C24792   2.069   7.841   9.884 -0.1359 -0.7489 -1.1506
  946MOL0     C24793   2.200   7.838   9.941 -0.6727 -0.9529 -0.0017
  946MOL0     C24794   2.633   8.001   9.977 -0.1087  0.1573 -0.0173
  946MOL0     C24795   2.720   8.115   9.969 -0.3031  0.3969 -0.7210
  946MOL0     C24796   2.849   8.112  10.021  0.0168  0.3358  0.2090
  946MOL0     C24797   2.899   7.993  10.079  0.2375  0.7218 -0.4579
  946MOL0     O24798   3.025   7.996  10.135  0.2774  0.6850 -0.5423
  946MOL0     C24799   3.081   7.872  10.202  0.1639  0.1996 -0.8292
  946MOL0     C24800   3.228   7.902  10.218 -0.4358  0.6081  0.2251
  946MOL0     C24801   3.322   7.812  10.137  0.9411 -0.6920  0.8069
  946MOL0     C24802   3.472   7.858  10.160  0.0044 -0.7370  0.0592
  946MOL0     C24803   3.572   7.747  10.154 -0.0805 -0.4541  0.1459
  946MOL0     C24804   3.639   7.643  10.152 -0.3492  0.1530 -0.1086
  946MOL0     C24805   2.814   7.882  10.092  0.2094 -0.4568 -0.8555
  946MOL0     C24806   2.686   7.884  10.037 -0.3381 -0.4889 -0.2257
  946MOL0     H24807   2.364   7.921   9.646  2.1642 -2.2584  0.1611
  946MOL0     H24808   2.149   7.926   9.562  0.1042  0.2147  0.0653
  946MOL0     H24809   1.904   7.804   9.483 -2.7566 -1.0635  0.6693
  946MOL0     H24810   1.931   7.983   9.522 -0.5791 -0.8323 -3.5605
  946MOL0     H24811   1.722   7.932   9.422 -3.3725  3.1143  0.4292
  946MOL0     H24812   1.701   7.994   9.588 -2.2038 -1.0794 -1.7452
  946MOL0     H24813   1.707   7.740   9.654  2.9654 -0.4208 -1.9728
  946MOL0     H24814   1.677   7.710   9.484 -0.3329  0.9281 -1.3368
  946MOL0     H24815   1.517   7.879   9.677 -1.3801  0.7126  0.1202
  946MOL0     H24816   1.503   7.908   9.503 -2.9900  1.9817  2.7296
  946MOL0     H24817   1.322   7.773   9.641  1.3163  2.0531 -0.1511
  946MOL0     H24818   1.448   7.655   9.656  0.4639  1.1413  1.2614
  946MOL0     H24819   1.455   7.610   9.441 -1.5387 -1.1681  1.5614
  946MOL0     H24820   1.347   7.753   9.385 -4.2731  0.3735  0.2935
  946MOL0     H24821   1.254   7.514   9.376 -0.8049 -1.0071  0.5673
  946MOL0     H24822   1.277   7.516   9.553 -2.5994 -0.1538  0.9548
  946MOL0     H24823   1.072   7.690   9.408 -2.0228  1.1903  1.9941
  946MOL0     H24824   1.115   7.705   9.581 -1.1262 -2.2788  2.3195
  946MOL0     H24825   1.036   7.352   9.386  0.7716 -0.7332  0.8173
  946MOL0     H24826   0.735   7.215   9.618 -1.4191 -1.2417 -0.8740
  946MOL0     H24827   0.854   7.159   9.495 -0.0900  0.3913 -1.1590
  946MOL0     H24828   0.625   7.132   9.426 -2.0205  0.9244 -3.1113
  946MOL0     H24829   0.730   7.228   9.316 -0.1509  0.6866 -0.0554
  946MOL0     H24830   0.626   7.427   9.420 -0.2561 -0.3691  2.6058
  946MOL0     H24831   0.559   7.323   9.283  4.5643  0.4732  0.0028
  946MOL0     H24832   0.459   7.321   9.564  0.2998 -1.1162 -0.4282
  946MOL0     H24833   0.412   7.207   9.435 -1.1748 -0.0099  3.5187
  946MOL0     H24834   0.201   7.503   9.208  0.6582 -1.4719 -2.5509
  946MOL0     H24835  -0.041   7.440   9.163 -3.5785 -2.5790  2.0663
  946MOL0     H24836  -0.370   6.952   9.360 -1.3478 -1.1765  1.5549
  946MOL0     H24837  -0.629   6.933   9.374 -0.0823  0.4506 -3.7354
  946MOL0     H24838  -0.809   6.986   9.228 -0.3844 -0.6721  2.0132
  946MOL0     H24839  -0.897   7.138   9.205 -0.4174  1.6709  1.7245
  946MOL0     H24840  -1.059   6.968   9.274 -1.8762  1.5606  0.6521
  946MOL0     H24841  -1.043   7.081   9.409 -0.1286 -0.5700  0.8402
  946MOL0     H24842  -0.871   6.897   9.488  1.1964 -2.9614 -1.6870
  946MOL0     H24843  -0.928   6.806   9.365 -0.3046  1.8813 -1.0281
  946MOL0     H24844  -1.017   6.756   9.614 -0.1656 -0.7785 -1.3247
  946MOL0     H24845  -1.093   6.915   9.613 -2.0807  1.8040 -1.4206
  946MOL0     H24846  -1.136   6.699   9.412  0.2998 -1.7111  1.7217
  946MOL0     H24847  -1.226   6.858   9.458 -0.8039  1.4646  2.6075
  946MOL0     H24848  -1.293   6.777   9.657  1.7563  1.5819 -1.4822
  946MOL0     H24849  -1.206   6.624   9.671  0.3262  0.0048  0.7861
  946MOL0     H24850  -1.419   6.703   9.456 -4.3024 -2.5776  0.2318
  946MOL0     H24851  -1.349   6.537   9.477  0.6261 -2.2417  2.1165
  946MOL0     H24852  -1.554   6.704   9.643 -3.3739 -1.7753  0.5854
  946MOL0     H24853  -1.466   6.585   9.726 -1.5831  1.0437  0.2751
  946MOL0     H24854  -0.668   7.348   9.367 -1.2922 -0.9688 -1.5706
  946MOL0     H24855  -0.418   7.367   9.348  3.9054 -1.2204 -1.6301
  946MOL0     H24856  -0.056   7.176   9.473 -0.2385 -0.5679 -0.5536
  946MOL0     H24857   0.190   7.216   9.530  0.8898 -2.3695 -1.0514
  946MOL0     H24858   1.983   7.829   9.949 -0.0683  1.2343 -0.6348
  946MOL0     H24859   2.221   7.825  10.046  2.1035 -1.0594 -0.4971
  946MOL0     H24860   2.688   8.198   9.908 -2.7729 -0.9787 -1.4449
  946MOL0     H24861   2.911   8.200  10.032 -1.7299  1.4017  2.2093
  946MOL0     H24862   3.071   7.776  10.151 -0.2674 -1.5533  2.3329
  946MOL0     H24863   3.034   7.842  10.295 -2.7423 -0.9295 -2.5368
  946MOL0     H24864   3.257   7.999  10.176  1.1396 -1.5346 -4.2480
  946MOL0     H24865   3.249   7.907  10.326 -0.7775  5.7122  0.2966
  946MOL0     H24866   3.305   7.798  10.030  1.4684 -0.4044  0.6788
  946MOL0     H24867   3.306   7.713  10.182 -1.4219 -1.6080 -1.7822
  946MOL0     H24868   3.490   7.932  10.082  1.0845 -0.2933  0.7036
  946MOL0     H24869   3.491   7.904  10.257  2.3240  0.4510 -0.8830
  946MOL0     H24870   3.699   7.554  10.157  1.4156  1.3669  2.3507
  946MOL0     H24871   2.862   7.793  10.131  0.2744 -0.2136 -0.3664
  946MOL0     H24872   2.618   7.799  10.041 -1.9168  0.7706  2.4090
  947MOL0     O24873   9.712   3.988   9.055 -0.9102 -0.0413 -0.2660
  947MOL0     C24874   9.812   3.929   9.016  0.6264 -0.1554 -0.2185
  947MOL0     O24875   9.815   3.807   8.965 -0.1251 -0.7374 -0.5388
  947MOL0     C24876   9.702   3.726   8.956  0.1813  0.8702  0.0148
  947MOL0     C24877   9.585   3.771   8.884 -0.1006  0.2580  0.3120
  947MOL0     C24878   9.489   3.682   8.840  0.4617  0.0063  0.4052
  947MOL0     C24879   9.499   3.548   8.865  0.8764  0.4908  0.1781
  947MOL0     O24880   9.407   3.452   8.838  0.3454  0.2519 -0.4313
  947MOL0     C24881   9.279   3.503   8.797 -0.6873 -1.8657  0.4332
  947MOL0     C24882   9.175   3.389   8.765 -0.1489 -0.0811  0.1264
  947MOL0     C24883   9.151   3.301   8.892 -0.0907 -0.3800 -0.2083
  947MOL0     C24884   9.070   3.173   8.859  0.0209 -0.3618  0.1504
  947MOL0     C24885   8.926   3.207   8.829 -0.8463 -0.5599 -0.2926
  947MOL0     C24886   8.854   3.076   8.799  0.0634  0.5940 -0.4697
  947MOL0     C24887   8.718   3.082   8.738 -0.3946 -0.4303  0.2199
  947MOL0     C24888   8.610   3.112   8.844  1.1014 -0.3273  0.3193
  947MOL0     N24889   8.487   3.134   8.771  0.3474  0.2277  0.4233
  947MOL0     C24890   8.380   3.046   8.748  0.5944  0.4017 -0.5925
  947MOL0     C24891   8.287   3.106   8.661 -0.1608  0.4445 -0.2057
  947MOL0     C24892   8.161   3.051   8.604 -0.2559 -0.4485 -0.1174
  947MOL0     C24893   8.036   3.065   8.699 -0.2874  0.2440 -1.2187
  947MOL0     C24894   7.894   3.057   8.638 -0.4684 -0.1041  0.6330
  947MOL0     C24895   7.772   3.063   8.735  0.4551 -0.0385 -0.3397
  947MOL0     O24896   7.756   3.195   8.777 -0.1539 -0.3507  0.0723
  947MOL0     C24897   7.634   3.253   8.802  0.1506  1.1731  0.9962
  947MOL0     C24898   7.622   3.389   8.785  0.7953 -0.6216  1.2959
  947MOL0     C24899   7.505   3.456   8.822 -0.2854 -0.6218  0.6585
  947MOL0     C24900   7.404   3.383   8.884 -0.6734  0.2271 -0.5753
  947MOL0     C24901   7.287   3.453   8.934  0.3099  0.0925  0.5918
  947MOL0     O24902   7.285   3.593   8.929  0.4666 -0.0157 -0.2682
  947MOL0     C24903   7.178   3.663   8.989 -0.7834 -0.3589  0.0616
  947MOL0     C24904   7.059   3.662   8.910 -0.4201 -0.0898 -0.3292
  947MOL0     C24905   6.958   3.754   8.927 -0.1079 -0.8247 -0.5569
  947MOL0     C24906   6.973   3.857   9.027  0.2661  0.8000 -0.1337
  947MOL0     O24907   6.881   3.949   9.035  0.4887 -0.1571  0.8111
  947MOL0     C24908   6.748   3.902   9.063 -0.4933 -0.3772 -0.1313
  947MOL0     C24909   6.654   3.987   9.151  0.0863 -0.8638 -0.5134
  947MOL0     C24910   6.544   4.065   9.080  0.0782 -0.5211  0.5119
  947MOL0     C24911   6.607   4.185   8.995  1.3123 -0.4595 -0.1655
  947MOL0     C24912   6.496   4.266   8.935  0.8461 -1.0739 -0.6647
  947MOL0     C24913   6.410   4.194   8.831 -0.1138  0.6137  0.3718
  947MOL0     C24914   6.338   4.295   8.744  0.0727 -0.4717  1.3006
  947MOL0     C24915   6.317   4.241   8.604 -0.3841  0.1723  0.4269
  947MOL0    Cl24916   6.469   4.259   8.508 -0.0653  0.2140 -0.1065
  947MOL0     C24917   7.088   3.859   9.103  0.0521 -0.4180 -0.3483
  947MOL0     C24918   7.201   3.770   9.085 -0.0623  0.0998 -1.2561
  947MOL0     O24919   7.200   3.381   8.979  0.1316  0.6713  0.5257
  947MOL0     C24920   7.419   3.240   8.895 -0.3251 -0.6172  0.1710
  947MOL0     C24921   7.528   3.177   8.857 -0.1345  0.0846  0.4749
  947MOL0     N24922   8.346   3.238   8.639  0.1986 -0.8373  0.4042
  947MOL0     N24923   8.446   3.250   8.719  0.0872 -0.2204  0.1766
  947MOL0     C24924   9.595   3.505   8.960  0.4862  0.1729 -0.0362
  947MOL0     C24925   9.703   3.589   8.993  0.2534 -0.6678  0.0647
  947MOL0     C24926   9.941   3.991   9.040  0.6701 -0.2420 -0.3763
  947MOL0     C24927   9.952   4.086   9.149 -0.4835  0.0495  0.6363
  947MOL0     C24928  10.079   4.145   9.162  0.0969  0.1168  0.1400
  947MOL0     C24929  10.188   4.110   9.089  0.1646  0.6014 -0.6669
  947MOL0     O24930  10.313   4.161   9.109 -0.8141  0.2021 -0.7966
  947MOL0     C24931  10.333   4.297   9.158 -0.5358 -0.5126  0.1850
  947MOL0     C24932  10.456   4.307   9.254 -0.0778  0.9026  0.1960
  947MOL0     C24933  10.575   4.374   9.195  0.4621  0.3899  0.2190
  947MOL0     C24934  10.653   4.272   9.112 -0.2029 -0.2533 -0.2248
  947MOL0     C24935  10.776   4.341   9.069  0.0294  0.7013  0.0716
  947MOL0     C24936  10.881   4.378   9.019  0.0632  0.0542 -0.0930
  947MOL0     C24937  10.167   4.025   8.980  0.5300  0.4219 -0.1592
  947MOL0     C24938  10.047   3.968   8.961  0.4553  0.2414  0.5472
  947MOL0     H24939   9.584   3.875   8.851 -2.5151 -0.9804 -4.5029
  947MOL0     H24940   9.409   3.727   8.782  0.8696  2.4679  1.6255
  947MOL0     H24941   9.285   3.563   8.706 -1.5484 -0.5968  1.1938
  947MOL0     H24942   9.232   3.558   8.879 -1.3235 -2.3008  0.3712
  947MOL0     H24943   9.221   3.335   8.682  1.8859  1.6374  0.0446
  947MOL0     H24944   9.080   3.426   8.726  0.0390 -0.9467 -1.2215
  947MOL0     H24945   9.105   3.375   8.957 -1.1055 -1.4502  0.3216
  947MOL0     H24946   9.247   3.279   8.939 -0.0013  3.0544  1.5046
  947MOL0     H24947   9.117   3.125   8.773  0.5233  0.5959 -0.1221
  947MOL0     H24948   9.072   3.109   8.948 -0.4421  1.4475  1.5391
  947MOL0     H24949   8.915   3.277   8.746 -0.7097 -0.9871 -0.6770
  947MOL0     H24950   8.879   3.254   8.916 -1.5130  0.4435 -1.1794
  947MOL0     H24951   8.834   3.030   8.896  1.2457 -0.5930 -0.7570
  947MOL0     H24952   8.921   3.009   8.744 -1.7884 -2.6141  0.9331
  947MOL0     H24953   8.717   3.165   8.666  1.7770 -1.3345 -0.9436
  947MOL0     H24954   8.706   2.984   8.691  1.9569  0.5165 -2.7049
  947MOL0     H24955   8.643   3.206   8.890  2.5696 -0.9248  0.5289
  947MOL0     H24956   8.601   3.029   8.916  0.0173  0.5679  1.2583
  947MOL0     H24957   8.384   2.944   8.786 -1.2685  0.5676  0.1448
  947MOL0     H24958   8.167   2.949   8.566  0.0463 -0.6553  0.4668
  947MOL0     H24959   8.154   3.118   8.518 -0.5120  1.4171  1.2617
  947MOL0     H24960   8.045   3.151   8.766 -1.8454 -3.8393  5.1733
  947MOL0     H24961   8.034   2.970   8.754 -1.6624  0.6235 -0.5560
  947MOL0     H24962   7.898   3.146   8.575 -0.3909 -0.8505 -0.4421
  947MOL0     H24963   7.883   2.974   8.567 -0.0147 -0.8861  1.4552
  947MOL0     H24964   7.792   2.982   8.806 -0.4213  0.8477  0.9708
  947MOL0     H24965   7.688   3.040   8.670 -1.3965  1.4674  1.4019
  947MOL0     H24966   7.700   3.436   8.728 -0.9465 -0.9594 -1.5541
  947MOL0     H24967   7.505   3.564   8.811 -0.5506 -0.5711  1.1166
  947MOL0     H24968   7.043   3.584   8.836 -2.2592 -0.9015  0.8569
  947MOL0     H24969   6.866   3.756   8.869 -0.6129  0.0595  0.2441
  947MOL0     H24970   6.746   3.803   9.108 -0.6653  1.3385  4.0932
  947MOL0     H24971   6.693   3.874   8.973 -2.4286  0.7131  0.6536
  947MOL0     H24972   6.712   4.054   9.216  0.4013 -0.3852 -1.2753
  947MOL0     H24973   6.612   3.917   9.224  1.2303  1.3415  2.5230
  947MOL0     H24974   6.479   4.092   9.164  0.5553  1.2136  0.3730
  947MOL0     H24975   6.483   4.001   9.016  1.3690  0.8496 -2.2926
  947MOL0     H24976   6.673   4.253   9.049  0.6669  0.1498 -0.1245
  947MOL0     H24977   6.683   4.146   8.926  0.8014  1.9822 -2.2313
  947MOL0     H24978   6.553   4.345   8.886  2.4006 -2.1965 -0.7398
  947MOL0     H24979   6.446   4.315   9.020  3.3414 -0.7504  0.7327
  947MOL0     H24980   6.340   4.128   8.884 -0.2545  0.4563 -0.0066
  947MOL0     H24981   6.475   4.124   8.777 -1.3184 -0.9941  0.9052
  947MOL0     H24982   6.236   4.312   8.781  0.0119 -1.5087  1.6473
  947MOL0     H24983   6.386   4.393   8.753  2.3937 -1.6170  2.3737
  947MOL0     H24984   6.234   4.285   8.547 -1.7220 -1.7189  0.8327
  947MOL0     H24985   6.305   4.133   8.612 -0.8544  0.2995  1.7913
  947MOL0     H24986   7.087   3.942   9.173 -1.3279  0.8201 -1.7529
  947MOL0     H24987   7.295   3.788   9.135 -0.1292  1.2426 -1.5034
  947MOL0     H24988   7.340   3.189   8.948 -0.0770  0.2343  1.4097
  947MOL0     H24989   7.535   3.071   8.876 -2.1316  0.1461  1.8784
  947MOL0     H24990   9.602   3.401   8.989  1.9588  1.1197  3.5105
  947MOL0     H24991   9.785   3.555   9.056  1.2778  0.1191 -0.8138
  947MOL0     H24992   9.874   4.120   9.218  0.0999  1.7444  0.5222
  947MOL0     H24993  10.083   4.214   9.245 -1.9575  2.7901 -1.7979
  947MOL0     H24994  10.252   4.335   9.220  0.1977 -1.0646  1.5344
  947MOL0     H24995  10.348   4.360   9.070  1.4044 -1.4652 -0.2086
  947MOL0     H24996  10.421   4.368   9.338  0.2185 -1.1141  1.8564
  947MOL0     H24997  10.480   4.208   9.294 -1.2967 -0.2428 -1.7777
  947MOL0     H24998  10.640   4.404   9.277 -0.0685 -0.2207  0.8729
  947MOL0     H24999  10.544   4.463   9.139 -1.5356  0.2384  0.9934
  947MOL0     H25000  10.689   4.192   9.178  1.6480  0.5554 -0.1875
  947MOL0     H25001  10.591   4.235   9.031 -1.4685  1.7808 -0.2430
  947MOL0     H25002  10.978   4.411   8.987  0.2646 -0.9513 -0.5527
  947MOL0     H25003  10.253   3.998   8.920 -1.0501 -3.2278 -1.0511
  947MOL0     H25004  10.037   3.902   8.874 -0.6976 -0.2672  1.0505
  948MOL0     O25005  10.552   9.126   9.815 -0.9817 -0.2022  0.1977
  948MOL0     C25006  10.665   9.085   9.787 -0.6272  0.5494 -0.0347
  948MOL0     O25007  10.695   8.955   9.776 -0.1104 -0.3094 -0.6486
  948MOL0     C25008  10.607   8.858   9.814 -0.4112  0.2065  0.3994
  948MOL0     C25009  10.544   8.867   9.941  0.0364  0.0824  0.5863
  948MOL0     C25010  10.429   8.790   9.974 -0.7008  0.3139 -0.5655
  948MOL0     C25011  10.379   8.698   9.880 -0.7431 -0.2230 -1.1187
  948MOL0     O25012  10.259   8.641   9.911  0.0819  0.5846 -0.3861
  948MOL0     C25013  10.185   8.614   9.793  0.3625  0.3833 -0.1674
  948MOL0     C25014  10.042   8.596   9.833 -1.4953 -0.1981 -0.7870
  948MOL0     C25015   9.980   8.721   9.896 -0.0955 -0.0643 -0.4428
  948MOL0     C25016   9.830   8.716   9.917 -0.1144 -0.5418  0.5780
  948MOL0     C25017   9.783   8.613  10.013 -0.1386  0.1768 -0.8721
  948MOL0     C25018   9.632   8.590  10.021 -0.8946  0.5907 -0.6573
  948MOL0     C25019   9.551   8.707   9.966 -0.3524 -0.4404  0.2320
  948MOL0     C25020   9.408   8.715  10.021 -0.2032  0.9842  0.5397
  948MOL0     N25021   9.334   8.603   9.963 -0.6122 -0.7594 -0.7000
  948MOL0     C25022   9.312   8.475  10.003 -0.3665 -0.3302  0.1420
  948MOL0     C25023   9.223   8.423   9.911  1.3089  0.6577 -0.6895
  948MOL0     C25024   9.158   8.282   9.898  0.2360  0.7250 -0.3923
  948MOL0     C25025   9.013   8.287   9.918 -0.5499 -0.1747 -0.7555
  948MOL0     C25026   8.962   8.145   9.966 -1.5778 -0.6567  1.4418
  948MOL0     C25027   8.812   8.125   9.941 -1.0407 -0.5171  0.1605
  948MOL0     O25028   8.768   7.992   9.988  0.1347  0.1001  0.0757
  948MOL0     C25029   8.645   8.005  10.040  0.0992 -0.2772  0.0752
  948MOL0     C25030   8.617   7.964  10.168  0.2624 -0.8007  0.0337
  948MOL0     C25031   8.483   7.957  10.213  0.4064 -0.2661  0.5705
  948MOL0     C25032   8.371   7.983  10.122 -0.9212 -0.7102 -0.5514
  948MOL0     C25033   8.228   7.962  10.163 -0.4891 -0.4415  0.5164
  948MOL0     O25034   8.143   7.953  10.063  0.4887 -0.0072 -0.6224
  948MOL0     C25035   8.013   7.916  10.098 -0.4303  0.4520 -0.0580
  948MOL0     C25036   7.910   8.016  10.090 -0.2992 -0.6667  0.4043
  948MOL0     C25037   7.778   7.976  10.132 -0.2719 -0.5511  0.5382
  948MOL0     C25038   7.746   7.851  10.152  0.6685 -0.6504  0.3317
  948MOL0     O25039   7.613   7.821  10.172 -0.3882  0.3764  1.2856
  948MOL0     C25040   7.510   7.892  10.100  0.1743  0.1725 -0.3311
  948MOL0     C25041   7.365   7.864  10.143 -0.5858 -0.4103  0.1972
  948MOL0     C25042   7.270   7.942  10.053  0.5850  0.0652 -0.1229
  948MOL0     C25043   7.128   7.904  10.072  0.8410  0.0949 -0.1595
  948MOL0     C25044   7.027   7.983   9.989  1.0054  0.4279 -0.0210
  948MOL0     C25045   6.885   7.943  10.041  0.2112 -0.3113  0.6106
  948MOL0     C25046   6.768   7.996   9.963 -1.3749  0.3024  0.4042
  948MOL0     C25047   6.648   8.024  10.047  0.0375 -0.8069  0.2974
  948MOL0    Cl25048   6.502   8.025   9.935  0.1918  0.2964 -0.3831
  948MOL0     C25049   7.851   7.755  10.147  0.2154 -0.0447 -0.1844
  948MOL0     C25050   7.988   7.781  10.124 -0.5729 -0.6187  0.3516
  948MOL0     O25051   8.209   7.945  10.281  0.0440 -0.5927  0.1129
  948MOL0     C25052   8.405   8.017   9.987  0.2968  0.3208  0.1102
  948MOL0     C25053   8.544   8.028   9.947  0.6709  0.3028 -0.1938
  948MOL0     N25054   9.182   8.530   9.825  0.4365  0.3581 -0.3647
  948MOL0     N25055   9.257   8.631   9.859 -0.0078 -0.5782 -0.2118
  948MOL0     C25056  10.458   8.674   9.760 -0.3635  0.3407  0.0625
  948MOL0     C25057  10.575   8.750   9.727  0.1030  0.0863  0.1766
  948MOL0     C25058  10.790   9.171   9.752 -0.3129  0.7069 -0.5030
  948MOL0     C25059  10.776   9.307   9.739 -0.7824  0.4543  0.0990
  948MOL0     C25060  10.888   9.390   9.728 -0.2186 -0.3813 -0.1891
  948MOL0     C25061  11.012   9.335   9.706 -0.3510  0.1726  0.0780
  948MOL0     O25062  11.115   9.429   9.703 -0.8752 -0.3647 -0.9754
  948MOL0     C25063  11.250   9.377   9.704  0.8274 -0.6575  0.0811
  948MOL0     C25064  11.348   9.492   9.699  0.7042  0.8532  0.1289
  948MOL0     C25065  11.378   9.545   9.830  1.2847  0.7227  0.2831
  948MOL0     C25066  11.288   9.652   9.887 -0.0604  0.4508 -1.2721
  948MOL0     C25067  11.348   9.692  10.016  0.2197 -1.4181  0.4964
  948MOL0     C25068  11.409   9.724  10.119 -0.7602 -0.5393  0.7373
  948MOL0     C25069  11.038   9.193   9.714  0.0359  0.6209 -0.4987
  948MOL0     C25070  10.920   9.111   9.738  0.0979  0.2697 -0.4422
  948MOL0     H25071  10.564   8.943  10.016 -0.7049  1.4045 -0.5208
  948MOL0     H25072  10.377   8.824  10.064 -1.0552 -0.4104 -0.4927
  948MOL0     H25073  10.223   8.520   9.752 -2.3930 -2.2473  2.7713
  948MOL0     H25074  10.186   8.698   9.722  1.0009  0.6909  0.2019
  948MOL0     H25075  10.030   8.509   9.898  0.8223 -0.9911 -1.3134
  948MOL0     H25076   9.984   8.574   9.742 -0.5184 -0.1847 -1.4326
  948MOL0     H25077  10.017   8.805   9.837  6.4498 -1.1346  1.4010
  948MOL0     H25078  10.029   8.746   9.991 -2.7310 -0.4276  1.1146
  948MOL0     H25079   9.798   8.816   9.948 -1.2102 -0.5856 -0.3524
  948MOL0     H25080   9.789   8.705   9.816  0.6877  1.6278 -0.0435
  948MOL0     H25081   9.824   8.647  10.109  1.6292  0.4673 -1.6896
  948MOL0     H25082   9.829   8.515  10.003  0.6383  0.6594 -2.1880
  948MOL0     H25083   9.607   8.569  10.126  0.9652  3.2276  0.4273
  948MOL0     H25084   9.614   8.506   9.953 -1.9822  1.6772 -1.7496
  948MOL0     H25085   9.590   8.799  10.010  0.6480 -0.6170 -0.2770
  948MOL0     H25086   9.543   8.718   9.858  0.2440 -0.1241  0.2149
  948MOL0     H25087   9.352   8.803   9.987  0.7835  1.4159 -0.0312
  948MOL0     H25088   9.417   8.699  10.129  3.4725 -0.2712  0.1926
  948MOL0     H25089   9.376   8.421  10.071 -0.1696 -0.5225 -0.1916
  948MOL0     H25090   9.211   8.214   9.966 -2.7854  2.1284  3.7995
  948MOL0     H25091   9.188   8.247   9.799  2.9413 -0.1148  0.6177
  948MOL0     H25092   8.965   8.321   9.826  1.2140  1.1484 -1.2620
  948MOL0     H25093   8.999   8.361   9.998  0.9082 -0.8553  0.1682
  948MOL0     H25094   9.010   8.069   9.903  1.6356  0.8859  1.8075
  948MOL0     H25095   8.983   8.125  10.071 -0.6252  0.0685  1.4052
  948MOL0     H25096   8.795   8.129   9.833 -0.7081  1.4563  0.1608
  948MOL0     H25097   8.756   8.211   9.979  0.4705  0.2649  0.6947
  948MOL0     H25098   8.695   7.953  10.242 -2.1603  1.9724  3.3072
  948MOL0     H25099   8.461   7.916  10.311 -1.9375 -2.5920 -0.7924
  948MOL0     H25100   7.940   8.115  10.058  0.0450 -1.2833 -1.3281
  948MOL0     H25101   7.704   8.054  10.146  1.4896  0.7790  3.1523
  948MOL0     H25102   7.519   7.879   9.992 -0.9762 -1.5962 -0.2578
  948MOL0     H25103   7.521   8.001  10.102  0.8408  0.1021  0.2512
  948MOL0     H25104   7.346   7.889  10.248  1.5569  1.2258  0.2723
  948MOL0     H25105   7.334   7.760  10.134 -1.8438  0.0808 -1.6969
  948MOL0     H25106   7.296   7.915   9.950  0.2755 -2.9791  0.4976
  948MOL0     H25107   7.287   8.049  10.063  0.3633  0.2336 -1.4347
  948MOL0     H25108   7.114   7.801  10.038  1.1893 -0.7099  1.9902
  948MOL0     H25109   7.110   7.907  10.180  2.6284  2.2616  0.1359
  948MOL0     H25110   7.052   7.966   9.884 -0.3830  1.1778 -0.4980
  948MOL0     H25111   7.045   8.089  10.013  0.5726  0.5969 -0.4262
  948MOL0     H25112   6.880   7.997  10.136  0.1514 -0.9634  0.9887
  948MOL0     H25113   6.869   7.835  10.048 -0.5123 -0.2921 -0.4851
  948MOL0     H25114   6.805   8.088   9.915  0.0325  0.6172  1.9964
  948MOL0     H25115   6.737   7.922   9.889 -0.9018  0.9114 -0.4260
  948MOL0     H25116   6.656   8.121  10.097  0.1427 -0.2741 -0.7246
  948MOL0     H25117   6.623   7.950  10.124  0.3911  1.3169  2.5797
  948MOL0     H25118   7.822   7.653  10.169  1.2465 -0.1144  0.9502
  948MOL0     H25119   8.053   7.694  10.129  2.4443  1.4025 -0.9082
  948MOL0     H25120   8.326   8.023   9.913  0.9533 -1.1689 -0.7541
  948MOL0     H25121   8.558   8.036   9.840 -0.3706 -1.3121 -0.4823
  948MOL0     H25122  10.424   8.597   9.692 -0.2624  2.9281 -3.1523
  948MOL0     H25123  10.619   8.730   9.630 -0.4651  0.7299 -0.2345
  948MOL0     H25124  10.676   9.349   9.744 -1.3883 -1.0263  1.4484
  948MOL0     H25125  10.879   9.498   9.723  0.3929 -0.3510 -0.7441
  948MOL0     H25126  11.263   9.317   9.614 -5.2730  4.2011 -5.0253
  948MOL0     H25127  11.268   9.322   9.796 -0.7228 -1.2280  0.0738
  948MOL0     H25128  11.428   9.429   9.659 -1.2783 -2.5915  1.1890
  948MOL0     H25129  11.324   9.575   9.631  2.4340  2.0597  0.9266
  948MOL0     H25130  11.474   9.595   9.815  0.3148  2.3879 -0.6650
  948MOL0     H25131  11.385   9.465   9.904 -2.0919  1.1139  1.1796
  948MOL0     H25132  11.313   9.740   9.827 -0.2337  1.9293  0.7164
  948MOL0     H25133  11.183   9.628   9.903 -0.0156  1.6828  1.4355
  948MOL0     H25134  11.470   9.754  10.201  0.5834 -1.5529  0.1656
  948MOL0     H25135  11.134   9.143   9.702 -0.8591 -1.0708 -0.8682
  948MOL0     H25136  10.924   9.006   9.767 -0.0030  0.4079  0.0865
  949MOL0     O25137   9.109   9.952   5.497 -0.5104  0.0389 -0.3181
  949MOL0     C25138   9.028   9.918   5.406  0.6859  0.5847  0.9300
  949MOL0     O25139   9.059   9.874   5.282  0.1615  0.9562  0.0446
  949MOL0     C25140   9.187   9.857   5.247 -0.1531  0.0137 -0.4149
  949MOL0     C25141   9.209   9.888   5.113  0.2352 -0.1726 -0.3984
  949MOL0     C25142   9.339   9.888   5.058  0.6922 -0.6767 -0.2306
  949MOL0     C25143   9.448   9.846   5.138 -0.8666  0.8029 -1.3108
  949MOL0     O25144   9.573   9.843   5.082 -0.5107  0.3219 -0.8405
  949MOL0     C25145   9.684   9.870   5.170 -0.0816 -0.8917 -0.9429
  949MOL0     C25146   9.809   9.807   5.102 -0.8027 -0.7699 -0.4247
  949MOL0     C25147   9.919   9.761   5.204 -0.3004 -0.4351 -0.9837
  949MOL0     C25148   9.993   9.886   5.274  0.2783 -0.1975 -1.5665
  949MOL0     C25149  10.145   9.856   5.300 -0.4169 -0.6680  0.4894
  949MOL0     C25150  10.206   9.947   5.399  0.1868  0.4056  1.3262
  949MOL0     C25151  10.204  10.098   5.356  0.0872  0.0029  0.0937
  949MOL0     C25152  10.348  10.147   5.331 -0.7251 -0.1582 -0.1577
  949MOL0     N25153  10.343  10.278   5.262 -0.8963 -0.4694  1.2924
  949MOL0     C25154  10.292  10.300   5.135  0.3286 -0.5780 -0.5235
  949MOL0     C25155  10.274  10.432   5.118  0.5562 -0.0847  0.4595
  949MOL0     C25156  10.242  10.500   4.988 -0.3253  0.5075  0.7553
  949MOL0     C25157  10.090  10.504   4.939 -0.1744  0.2048 -0.3052
  949MOL0     C25158  10.019  10.372   4.945 -0.1945 -0.1003 -0.1288
  949MOL0     C25159   9.875  10.387   4.903 -0.7509 -0.0293  0.0659
  949MOL0     O25160   9.816  10.261   4.905 -0.1490 -1.0262  0.6350
  949MOL0     C25161   9.685  10.255   4.872  1.1700 -0.4117  0.0933
  949MOL0     C25162   9.602  10.377   4.864 -0.1965  0.3049  0.1023
  949MOL0     C25163   9.467  10.355   4.840  1.0729  0.3148 -0.5346
  949MOL0     C25164   9.420  10.220   4.816  0.0334  0.1340 -0.0605
  949MOL0     C25165   9.284  10.196   4.792  1.4655  0.3976 -0.0953
  949MOL0     O25166   9.186  10.283   4.858  0.5360  0.0180 -0.2035
  949MOL0     C25167   9.061  10.276   4.810  0.1751 -0.2342 -1.0092
  949MOL0     C25168   8.967  10.275   4.912 -0.3884 -0.0932  0.1449
  949MOL0     C25169   8.834  10.274   4.881 -0.8277 -0.7493 -0.1424
  949MOL0     C25170   8.788  10.282   4.753  1.2851  0.3923  0.0187
  949MOL0     O25171   8.651  10.288   4.731  0.7050  1.2402  0.9161
  949MOL0     C25172   8.581  10.346   4.619  0.1516  0.0822 -0.5410
  949MOL0     C25173   8.430  10.333   4.654 -0.2684  0.2808 -0.0159
  949MOL0     C25174   8.352  10.452   4.589 -0.4690  0.0107  0.5164
  949MOL0     C25175   8.196  10.426   4.574  0.1188  0.1692 -0.4230
  949MOL0     C25176   8.151  10.359   4.704  0.1678 -0.2359 -1.0073
  949MOL0     C25177   7.993  10.369   4.711 -0.1428 -0.4919 -0.9323
  949MOL0     C25178   7.940  10.286   4.826  0.1200  0.1298 -0.1976
  949MOL0     C25179   7.792  10.284   4.836  0.1992  0.4449 -0.1151
  949MOL0    Cl25180   7.704  10.195   4.700 -0.2353 -0.2958 -0.0210
  949MOL0     C25181   8.879  10.277   4.650 -0.6265 -0.2254 -0.1232
  949MOL0     C25182   9.021  10.273   4.671  0.0655  0.7346 -0.6145
  949MOL0     O25183   9.248  10.092   4.734  0.2878 -0.4833  0.0070
  949MOL0     C25184   9.502  10.111   4.817 -0.4081 -0.5497  0.7393
  949MOL0     C25185   9.638  10.124   4.860  0.4725  0.8564  0.5048
  949MOL0     N25186  10.298  10.485   5.241 -1.1209  0.0244  0.2317
  949MOL0     N25187  10.335  10.397   5.324  0.0115 -0.5678  0.2021
  949MOL0     C25188   9.411   9.806   5.272  0.6082 -0.3676 -0.4691
  949MOL0     C25189   9.289   9.801   5.327 -0.2706  0.2255  0.4695
  949MOL0     C25190   8.877   9.938   5.441 -0.4744 -0.7150  0.6814
  949MOL0     C25191   8.780   9.885   5.342  0.2552 -0.2753  0.0844
  949MOL0     C25192   8.646   9.884   5.364  1.0747 -0.4703  0.7188
  949MOL0     C25193   8.594   9.936   5.480  0.3911  0.1908  0.0085
  949MOL0     O25194   8.459   9.907   5.497  0.0527  0.0263 -0.5930
  949MOL0     C25195   8.410   9.923   5.633 -1.0115 -0.2176 -0.5269
  949MOL0     C25196   8.261   9.922   5.630  0.1656  0.4255  0.0303
  949MOL0     C25197   8.196  10.053   5.596 -0.7117  0.5165 -0.0721
  949MOL0     C25198   8.154  10.139   5.714 -0.1959  0.3432 -0.3589
  949MOL0     C25199   8.271  10.195   5.787  0.0741  0.0689 -0.0839
  949MOL0     C25200   8.361  10.246   5.842  0.2446 -0.5467  0.0499
  949MOL0     C25201   8.686  10.006   5.570 -1.1660  0.2422  0.1433
  949MOL0     C25202   8.826   9.984   5.565 -0.2296  0.0219  0.9943
  949MOL0     H25203   9.123   9.908   5.050  0.0945  0.1647 -0.1038
  949MOL0     H25204   9.337   9.919   4.954 -0.3021  1.5394  0.3888
  949MOL0     H25205   9.685   9.827   5.271 -4.0662 -3.0925 -1.6521
  949MOL0     H25206   9.700   9.977   5.181  4.6165 -1.4166 -0.7874
  949MOL0     H25207   9.855   9.876   5.030  0.7582 -0.1771  1.0873
  949MOL0     H25208   9.773   9.719   5.048 -1.8674  0.1528 -1.2960
  949MOL0     H25209   9.991   9.697   5.152  1.2430 -0.4408  1.0188
  949MOL0     H25210   9.866   9.696   5.274  0.4481  0.8053  0.8511
  949MOL0     H25211   9.987   9.973   5.209 -1.5969  1.4079  0.6167
  949MOL0     H25212   9.945   9.906   5.370 -1.9099  1.0805 -2.8310
  949MOL0     H25213  10.195   9.852   5.203  0.1856  1.7596  0.6552
  949MOL0     H25214  10.160   9.757   5.345 -0.2811 -0.5662  0.6655
  949MOL0     H25215  10.302   9.899   5.421 -1.2702 -1.9992  3.0008
  949MOL0     H25216  10.144   9.936   5.489 -0.3172  0.7932  1.0290
  949MOL0     H25217  10.158  10.103   5.257  0.9802 -0.5998 -0.3578
  949MOL0     H25218  10.154  10.173   5.418 -0.5664 -0.4809  0.1644
  949MOL0     H25219  10.405  10.078   5.269 -1.1437 -2.4630  1.8916
  949MOL0     H25220  10.410  10.160   5.420 -0.1616 -0.9809 -0.4189
  949MOL0     H25221  10.294  10.243   5.043  0.8046 -1.5055  0.0451
  949MOL0     H25222  10.296  10.471   4.898  0.8949  1.4154  1.1612
  949MOL0     H25223  10.276  10.603   5.005 -1.9967  1.7476 -2.5414
  949MOL0     H25224  10.079  10.536   4.835 -0.4736 -1.4619 -0.8199
  949MOL0     H25225  10.044  10.579   5.005  0.3766 -2.3715  3.3029
  949MOL0     H25226  10.085  10.295   4.906 -0.5020 -0.0404 -0.7838
  949MOL0     H25227  10.011  10.353   5.052 -1.8099 -1.2416 -0.4227
  949MOL0     H25228   9.876  10.424   4.800 -2.2922  1.6194  0.5849
  949MOL0     H25229   9.834  10.470   4.961 -0.5647  1.1904 -1.4891
  949MOL0     H25230   9.628  10.476   4.898 -2.1020  0.0626  2.5570
  949MOL0     H25231   9.396  10.437   4.841  0.8474  0.1287 -1.0911
  949MOL0     H25232   8.991  10.284   5.018  0.6996 -0.6663 -0.0401
  949MOL0     H25233   8.763  10.286   4.962  0.6548 -0.0920  1.1312
  949MOL0     H25234   8.602  10.294   4.525  0.2880 -2.8721  0.9931
  949MOL0     H25235   8.608  10.451   4.612  1.4149 -0.3056 -2.0631
  949MOL0     H25236   8.421  10.349   4.762  1.3531  0.9984  0.0440
  949MOL0     H25237   8.402  10.237   4.610  1.4074  0.6301 -1.9784
  949MOL0     H25238   8.386  10.459   4.485 -3.0109  0.6571 -0.3375
  949MOL0     H25239   8.371  10.548   4.636  1.1351 -0.5846  1.1765
  949MOL0     H25240   8.152  10.525   4.562 -2.5441 -1.2134 -3.5463
  949MOL0     H25241   8.161  10.370   4.487  1.1332 -3.1772  1.1656
  949MOL0     H25242   8.187  10.422   4.786 -6.3764  1.6045  1.0556
  949MOL0     H25243   8.188  10.256   4.713  2.4434  0.5335 -0.9493
  949MOL0     H25244   7.952  10.326   4.620 -0.1489  0.0995 -1.2103
  949MOL0     H25245   7.956  10.471   4.728  0.5050 -0.5005  0.7292
  949MOL0     H25246   7.982  10.187   4.805 -1.2297 -0.5907  0.3907
  949MOL0     H25247   7.974  10.326   4.922 -1.3523  0.4999  0.1991
  949MOL0     H25248   7.746  10.383   4.841  0.1004  0.4315 -0.7166
  949MOL0     H25249   7.767  10.230   4.928  0.8033  2.4750  1.3099
  949MOL0     H25250   8.843  10.292   4.549 -0.4222 -0.8273 -0.2899
  949MOL0     H25251   9.084  10.286   4.584 -2.6711  3.6356 -2.3926
  949MOL0     H25252   9.480  10.009   4.788  2.0644 -0.8233 -0.4743
  949MOL0     H25253   9.706  10.040   4.859  0.9716  1.2150  1.6681
  949MOL0     H25254   9.490   9.773   5.339  1.0112  0.5117 -0.5060
  949MOL0     H25255   9.272   9.774   5.430 -0.8626  0.5394  0.4606
  949MOL0     H25256   8.807   9.843   5.246  0.8067 -0.3782  0.2842
  949MOL0     H25257   8.578   9.823   5.306 -1.1393  0.7478  1.8941
  949MOL0     H25258   8.445  10.018   5.675 -1.6121  0.3714 -1.3384
  949MOL0     H25259   8.444   9.844   5.701 -0.4266  1.9736  1.9051
  949MOL0     H25260   8.238   9.852   5.550  3.0342  0.9592 -1.3803
  949MOL0     H25261   8.219   9.896   5.728 -0.8611  0.4028 -0.3973
  949MOL0     H25262   8.118  10.023   5.524  1.0313 -0.9255 -1.4444
  949MOL0     H25263   8.268  10.113   5.539 -1.6062  1.6121 -0.0953
  949MOL0     H25264   8.093  10.225   5.687 -2.6523 -0.6875  1.5298
  949MOL0     H25265   8.090  10.075   5.775 -1.2444  1.8781  0.2138
  949MOL0     H25266   8.431  10.282   5.914  0.1701  0.0297 -0.1558
  949MOL0     H25267   8.635  10.051   5.654 -0.2216 -1.8465  1.9545
  949MOL0     H25268   8.886  10.019   5.649  3.2921 -3.6969  0.3269
  950MOL0     O25269   8.487  10.869   2.680 -0.4411  0.0444  0.0368
  950MOL0     C25270   8.515  10.985   2.644 -0.1638 -0.1118 -0.2470
  950MOL0     O25271   8.423  11.065   2.570 -1.0367  0.8973  0.2126
  950MOL0     C25272   8.329  10.994   2.488  0.2441 -1.0411 -0.1875
  950MOL0     C25273   8.212  10.941   2.543  0.4107 -0.5505  0.1766
  950MOL0     C25274   8.120  10.876   2.462 -0.4966  0.4441  0.7370
  950MOL0     C25275   8.142  10.869   2.323  0.0217  0.3089  0.0060
  950MOL0     O25276   8.057  10.793   2.245 -0.8896 -0.1858  0.3888
  950MOL0     C25277   7.951  10.860   2.183 -0.1307 -0.8005  0.1258
  950MOL0     C25278   7.831  10.765   2.167  0.1352  0.5307 -0.3587
  950MOL0     C25279   7.741  10.769   2.283 -0.7156 -0.2405 -0.4237
  950MOL0     C25280   7.632  10.661   2.282  0.8939 -0.3746  0.0112
  950MOL0     C25281   7.513  10.717   2.205  0.2049  0.4079 -0.7779
  950MOL0     C25282   7.399  10.614   2.184  0.5169 -0.9867 -0.5533
  950MOL0     C25283   7.289  10.692   2.115 -0.3469 -0.9410  0.4881
  950MOL0     C25284   7.163  10.604   2.099  0.0466  0.0365 -0.1927
  950MOL0     N25285   7.053  10.684   2.034 -0.5227  0.2824 -0.0815
  950MOL0     C25286   7.056  10.747   1.910  0.9295 -0.2098  0.1742
  950MOL0     C25287   6.938  10.809   1.901 -0.0331 -0.5839 -0.1999
  950MOL0     C25288   6.898  10.883   1.777 -0.1787  0.3306 -0.7158
  950MOL0     C25289   6.780  10.979   1.792 -0.6201  0.2833  0.5938
  950MOL0     C25290   6.710  11.019   1.663 -0.3305  0.5258  0.7402
  950MOL0     C25291   6.594  11.115   1.679 -0.0957  0.7081  0.8124
  950MOL0     O25292   6.481  11.056   1.752  0.9710  0.0122  0.1742
  950MOL0     C25293   6.366  11.134   1.745 -0.7540 -0.5461 -0.0135
  950MOL0     C25294   6.375  11.252   1.814 -0.3341 -0.3409  0.1905
  950MOL0     C25295   6.265  11.332   1.825  0.9905  0.3252  0.1874
  950MOL0     C25296   6.145  11.301   1.757 -0.1178  0.2616  0.4499
  950MOL0     C25297   6.025  11.391   1.762  0.4433 -0.7118 -0.2293
  950MOL0     O25298   5.942  11.397   1.651  0.1676 -0.2620  0.4112
  950MOL0     C25299   5.814  11.435   1.673 -0.3931  0.3045  0.7108
  950MOL0     C25300   5.760  11.527   1.587 -0.7180 -0.7338 -0.5163
  950MOL0     C25301   5.627  11.578   1.602 -0.2273 -0.1005  0.4332
  950MOL0     C25302   5.543  11.518   1.693  0.0150 -0.5503  0.5639
  950MOL0     O25303   5.416  11.567   1.705  0.1961  0.1046  0.5019
  950MOL0     C25304   5.316  11.515   1.620  0.2027 -0.7910 -0.0456
  950MOL0     C25305   5.285  11.374   1.661 -0.2969  0.1592  0.1108
  950MOL0     C25306   5.157  11.320   1.584  1.1710 -0.4063 -0.3606
  950MOL0     C25307   5.027  11.379   1.637  0.6040  0.3378  0.3658
  950MOL0     C25308   4.906  11.313   1.558  0.2032 -0.6341 -1.2712
  950MOL0     C25309   4.775  11.323   1.642 -0.4650 -0.7974  0.4788
  950MOL0     C25310   4.780  11.236   1.771 -0.9388  0.2172  0.5462
  950MOL0     C25311   4.636  11.203   1.830 -0.8986  0.2346  0.2677
  950MOL0    Cl25312   4.559  11.361   1.872 -0.3320  0.4867 -0.3209
  950MOL0     C25313   5.598  11.419   1.777  0.1206  0.4555 -0.4038
  950MOL0     C25314   5.731  11.368   1.760 -0.0855  0.0232 -0.0193
  950MOL0     O25315   6.002  11.437   1.876  0.1009  0.5041 -0.5545
  950MOL0     C25316   6.150  11.184   1.675  0.4024 -0.3798  0.5362
  950MOL0     C25317   6.259  11.100   1.673  0.3165 -0.6356  0.2807
  950MOL0     N25318   6.858  10.785   2.012 -0.0505 -0.4576 -0.5289
  950MOL0     N25319   6.924  10.704   2.084 -0.2662  1.4785 -0.2180
  950MOL0     C25320   8.257  10.922   2.269 -0.4688  0.2955 -0.6955
  950MOL0     C25321   8.349  10.984   2.350  0.4177 -0.2123 -0.5714
  950MOL0     C25322   8.646  11.040   2.679 -0.0703  0.2825  0.5753
  950MOL0     C25323   8.726  10.973   2.775  0.5632  0.3323  0.5937
  950MOL0     C25324   8.836  11.038   2.826  0.2229 -0.8533 -0.6053
  950MOL0     C25325   8.891  11.154   2.768  0.7042 -0.4186 -0.0477
  950MOL0     O25326   9.017  11.191   2.803 -0.7157  0.3382  0.0548
  950MOL0     C25327   9.103  11.295   2.747  0.8452 -0.3162  0.1801
  950MOL0     C25328   9.213  11.319   2.843  0.0354 -0.5680  0.0410
  950MOL0     C25329   9.337  11.226   2.835 -0.5614 -0.0821  0.4127
  950MOL0     C25330   9.455  11.263   2.922  0.0584  0.7940  0.5768
  950MOL0     C25331   9.525  11.384   2.879 -0.8437 -0.8719 -0.1340
  950MOL0     C25332   9.567  11.493   2.843  0.2306 -0.0545  0.3440
  950MOL0     C25333   8.822  11.211   2.655 -0.7097  0.3281 -0.9453
  950MOL0     C25334   8.694  11.158   2.617 -0.0620 -0.0739  0.8594
  950MOL0     H25335   8.201  10.941   2.651  0.2808 -0.7240  0.1631
  950MOL0     H25336   8.020  10.848   2.493 -0.6016  0.1175  0.1101
  950MOL0     H25337   7.980  10.902   2.087 -1.4751  0.6786  0.3121
  950MOL0     H25338   7.918  10.949   2.239 -0.8098 -0.6061 -0.5672
  950MOL0     H25339   7.863  10.660   2.164  2.0267  1.0995 -1.1288
  950MOL0     H25340   7.769  10.802   2.085  1.6182 -0.0743 -1.7906
  950MOL0     H25341   7.689  10.865   2.284 -1.2671 -0.3291 -4.2714
  950MOL0     H25342   7.806  10.751   2.369  2.6655  1.1987 -2.4609
  950MOL0     H25343   7.665  10.562   2.250 -1.6908 -0.4511 -2.8654
  950MOL0     H25344   7.600  10.653   2.386  2.3734 -1.0481  0.4425
  950MOL0     H25345   7.550  10.738   2.104  0.5412  3.4438 -0.1290
  950MOL0     H25346   7.470  10.805   2.253  4.3691  0.8928  2.6660
  950MOL0     H25347   7.375  10.582   2.285  2.2838  1.2108  0.6524
  950MOL0     H25348   7.435  10.529   2.125  0.0515 -1.9433  0.5219
  950MOL0     H25349   7.271  10.780   2.177  1.9513 -1.3198  1.8105
  950MOL0     H25350   7.317  10.725   2.014 -4.2407  0.8450 -0.1734
  950MOL0     H25351   7.121  10.576   2.196  1.6585 -3.6455 -0.4087
  950MOL0     H25352   7.177  10.514   2.038  2.6495  1.1121 -1.3464
  950MOL0     H25353   7.134  10.756   1.835  1.0242  2.5173  0.4885
  950MOL0     H25354   6.883  10.819   1.689 -2.8905 -0.1857  0.0387
  950MOL0     H25355   6.986  10.944   1.751 -1.8975  1.3186 -5.2245
  950MOL0     H25356   6.817  11.055   1.861 -0.8632 -0.7118  1.8751
  950MOL0     H25357   6.706  10.924   1.852 -2.0036  4.4941  3.1483
  950MOL0     H25358   6.789  11.054   1.597  2.5394 -1.2368  2.9936
  950MOL0     H25359   6.658  10.931   1.622 -0.5038  0.7558  0.4579
  950MOL0     H25360   6.561  11.134   1.576  3.7667 -2.5824 -1.3601
  950MOL0     H25361   6.618  11.214   1.718 -0.2965  1.8771 -1.8128
  950MOL0     H25362   6.471  11.275   1.858 -0.6694  1.9621 -0.1236
  950MOL0     H25363   6.277  11.420   1.888  0.9794  0.4302  0.0433
  950MOL0     H25364   5.834  11.574   1.523  2.8594 -1.2945  2.8552
  950MOL0     H25365   5.588  11.651   1.532 -0.8244  0.9576  1.8231
  950MOL0     H25366   5.355  11.510   1.518 -0.0446  0.7651 -0.2405
  950MOL0     H25367   5.226  11.578   1.626 -0.2633 -1.5215  0.8628
  950MOL0     H25368   5.269  11.350   1.766  0.8838 -2.4423 -0.2276
  950MOL0     H25369   5.365  11.307   1.629  0.9291  1.1486  1.0175
  950MOL0     H25370   5.150  11.212   1.593 -0.1871 -0.2774  0.4286
  950MOL0     H25371   5.173  11.333   1.477  2.5457 -4.5077 -0.8154
  950MOL0     H25372   5.020  11.351   1.742  3.0269 -1.6692  0.0856
  950MOL0     H25373   5.023  11.486   1.613  0.1645 -0.0694 -1.5324
  950MOL0     H25374   4.934  11.207   1.551  2.0179 -0.1744 -1.6099
  950MOL0     H25375   4.896  11.361   1.460 -1.1342  2.4051  0.2301
  950MOL0     H25376   4.688  11.293   1.582 -1.4745  1.3115  0.8100
  950MOL0     H25377   4.754  11.427   1.667 -0.0584 -1.2885  3.1309
  950MOL0     H25378   4.827  11.140   1.748 -0.9253 -0.3052  2.6251
  950MOL0     H25379   4.849  11.297   1.830  3.1688  0.8630 -4.1995
  950MOL0     H25380   4.640  11.138   1.917  0.1985  1.4201  1.1258
  950MOL0     H25381   4.577  11.147   1.756  0.9198 -1.8478  0.2978
  950MOL0     H25382   5.525  11.369   1.841 -1.1016  0.1047 -2.0248
  950MOL0     H25383   5.754  11.288   1.829 -2.1728 -0.7718 -0.1780
  950MOL0     H25384   6.068  11.161   1.608  1.5877 -1.7711 -0.4963
  950MOL0     H25385   6.256  11.021   1.598  1.0764  1.9404 -2.6919
  950MOL0     H25386   8.268  10.910   2.162  0.6261  0.9682 -0.6706
  950MOL0     H25387   8.442  11.014   2.302  1.3335 -1.9354  0.0182
  950MOL0     H25388   8.696  10.874   2.807  0.2640 -1.5731 -4.6819
  950MOL0     H25389   8.898  10.989   2.901  0.1670 -0.6119 -0.4039
  950MOL0     H25390   9.047  11.389   2.741  1.6562  0.4794  3.3414
  950MOL0     H25391   9.137  11.259   2.650 -0.9347  0.5509 -0.8231
  950MOL0     H25392   9.244  11.419   2.812 -0.9106 -0.4898 -0.6915
  950MOL0     H25393   9.180  11.325   2.947  1.7303 -0.7495  0.6189
  950MOL0     H25394   9.365  11.209   2.730 -0.3515 -1.8666  0.7182
  950MOL0     H25395   9.308  11.124   2.861 -1.9107 -1.2146 -4.3779
  950MOL0     H25396   9.422  11.275   3.026 -2.1627 -2.5513  0.4381
  950MOL0     H25397   9.517  11.173   2.919  1.4953  1.7150  1.3232
  950MOL0     H25398   9.594  11.592   2.812 -0.4078  0.8761  2.5153
  950MOL0     H25399   8.865  11.299   2.607 -2.0306  0.5272 -1.8235
  950MOL0     H25400   8.639  11.223   2.550  0.7325  1.7286  1.8698
  951MOL0     O25401   0.061   2.075   5.697  0.1266 -0.3620 -0.6638
  951MOL0     C25402   0.083   2.154   5.603 -0.6914  0.2857 -0.3922
  951MOL0     O25403   0.025   2.157   5.481  0.8220  1.0276  0.3826
  951MOL0     C25404  -0.086   2.083   5.465  0.5534  0.4273  0.7695
  951MOL0     C25405  -0.081   1.960   5.404 -0.0317 -0.3815  0.0203
  951MOL0     C25406  -0.192   1.878   5.387  0.3641 -0.1404 -0.2118
  951MOL0     C25407  -0.314   1.922   5.430 -0.2507  0.1955  0.0077
  951MOL0     O25408  -0.423   1.835   5.417 -1.0396 -0.4744 -0.0649
  951MOL0     C25409  -0.505   1.846   5.295  0.0068 -0.3524  0.6083
  951MOL0     C25410  -0.631   1.944   5.324 -0.5723  0.1168  0.3232
  951MOL0     C25411  -0.734   1.897   5.434  0.6269  0.6403  0.3021
  951MOL0     C25412  -0.698   1.956   5.565  0.2550 -0.6792 -0.3045
  951MOL0     C25413  -0.762   2.095   5.569 -0.2020  1.0764 -0.7045
  951MOL0     C25414  -0.706   2.169   5.699  0.0161  0.6405  0.2104
  951MOL0     C25415  -0.803   2.289   5.732  0.3098  0.9787 -0.7064
  951MOL0     C25416  -0.802   2.411   5.650 -0.2942  1.1035  0.1107
  951MOL0     N25417  -0.916   2.502   5.657  0.0889 -0.2359 -0.7902
  951MOL0     C25418  -0.895   2.634   5.680  0.7786 -0.3090 -0.0274
  951MOL0     C25419  -1.006   2.692   5.640 -0.2486 -0.3079 -0.0353
  951MOL0     C25420  -1.016   2.837   5.646 -0.5403  0.2245 -0.2471
  951MOL0     C25421  -1.152   2.890   5.686 -0.6921 -0.0047 -0.2394
  951MOL0     C25422  -1.244   2.900   5.559  0.5796  0.0157 -0.2655
  951MOL0     C25423  -1.372   2.957   5.602  0.5111 -0.9469 -0.3082
  951MOL0     O25424  -1.471   2.958   5.500 -0.1365  0.2799 -0.0997
  951MOL0     C25425  -1.601   2.927   5.530 -0.1389  0.1984 -1.1817
  951MOL0     C25426  -1.646   2.848   5.641  1.3560 -0.0818  0.6136
  951MOL0     C25427  -1.784   2.843   5.659 -0.2003  0.6055  0.4536
  951MOL0     C25428  -1.873   2.908   5.569  0.6562 -0.0961  0.2106
  951MOL0     C25429  -2.018   2.913   5.605 -0.6810  0.1393  0.9413
  951MOL0     O25430  -2.052   2.870   5.729 -0.4545 -0.1853  0.5039
  951MOL0     C25431  -2.172   2.853   5.777 -0.4431  0.4125 -0.3048
  951MOL0     C25432  -2.279   2.935   5.742 -0.1624 -0.1910 -0.2828
  951MOL0     C25433  -2.408   2.894   5.775 -0.2933  0.1466  0.8388
  951MOL0     C25434  -2.427   2.777   5.852  0.5711  0.2555  0.2906
  951MOL0     O25435  -2.551   2.722   5.875 -0.0938  0.0172  0.2661
  951MOL0     C25436  -2.673   2.793   5.839  0.2174 -0.1696 -0.6352
  951MOL0     C25437  -2.800   2.696   5.859 -0.7700  0.2984 -0.2018
  951MOL0     C25438  -2.914   2.739   5.765  0.0340  0.1095 -0.0375
  951MOL0     C25439  -3.014   2.621   5.735 -0.7153 -0.7539  0.1305
  951MOL0     C25440  -3.131   2.678   5.649  0.7532  0.1835  0.0649
  951MOL0     C25441  -3.206   2.569   5.576  0.1736 -0.2749  0.2821
  951MOL0     C25442  -3.348   2.609   5.517 -0.5481  0.1282 -0.0509
  951MOL0     C25443  -3.420   2.491   5.453 -0.0981  0.0417 -0.4035
  951MOL0    Cl25444  -3.480   2.374   5.577 -0.0050  0.0614  0.2758
  951MOL0     C25445  -2.318   2.709   5.912 -0.5552 -0.0184  0.5961
  951MOL0     C25446  -2.189   2.758   5.871  0.2226  0.2109 -1.1043
  951MOL0     O25447  -2.090   2.966   5.520  0.2661  0.3604  0.1919
  951MOL0     C25448  -1.821   2.986   5.464 -0.5600 -0.6384 -0.3773
  951MOL0     C25449  -1.681   2.999   5.443  0.3443 -0.1809 -1.3055
  951MOL0     N25450  -1.088   2.596   5.587  0.0617  0.9969 -0.6090
  951MOL0     N25451  -1.039   2.480   5.598 -0.3467 -0.1774 -0.0168
  951MOL0     C25452  -0.330   2.045   5.491 -0.2722 -0.2865 -0.3528
  951MOL0     C25453  -0.212   2.131   5.512  0.2614  0.6691 -0.5123
  951MOL0     C25454   0.179   2.266   5.622  0.4254 -0.6275  0.6993
  951MOL0     C25455   0.187   2.365   5.532 -0.9808 -0.6161  0.7972
  951MOL0     C25456   0.289   2.466   5.535 -0.3530  0.4785  0.0741
  951MOL0     C25457   0.378   2.478   5.644  0.3453  0.9893  1.1785
  951MOL0     O25458   0.472   2.577   5.633  0.2282 -0.4382 -0.0639
  951MOL0     C25459   0.581   2.587   5.722  0.0594  0.5908  0.1980
  951MOL0     C25460   0.706   2.634   5.655  0.2382  0.5134  0.1249
  951MOL0     C25461   0.743   2.544   5.544  0.1659  1.1736  0.2063
  951MOL0     C25462   0.855   2.594   5.451 -0.7015  0.1120 -0.1069
  951MOL0     C25463   0.869   2.500   5.342 -0.4026 -1.2813 -0.5556
  951MOL0     C25464   0.903   2.423   5.248  1.0416 -0.4944 -0.6094
  951MOL0     C25465   0.366   2.381   5.745  0.6283 -0.8846  0.3553
  951MOL0     C25466   0.265   2.276   5.736  0.0428  0.3716  0.0415
  951MOL0     H25467   0.008   1.922   5.355 -0.4644  1.5254 -2.5160
  951MOL0     H25468  -0.181   1.779   5.344 -2.4727  0.5421 -2.9269
  951MOL0     H25469  -0.543   1.746   5.274  0.3976 -0.3748 -0.0236
  951MOL0     H25470  -0.449   1.881   5.208 -0.4815 -0.9240  0.0521
  951MOL0     H25471  -0.691   1.957   5.234  1.6734  1.0906 -1.1092
  951MOL0     H25472  -0.593   2.043   5.351  0.7171 -0.7795  2.0498
  951MOL0     H25473  -0.719   1.790   5.452  0.9755  0.7863  0.9459
  951MOL0     H25474  -0.837   1.924   5.408  0.1343 -2.1117 -0.9201
  951MOL0     H25475  -0.746   1.896   5.644 -2.4791 -1.4954 -2.4480
  951MOL0     H25476  -0.589   1.960   5.581  0.5455 -3.0981 -1.3210
  951MOL0     H25477  -0.870   2.084   5.575 -0.0494 -0.2106  0.2242
  951MOL0     H25478  -0.748   2.154   5.478  1.0769  1.4765 -0.2767
  951MOL0     H25479  -0.618   2.227   5.671 -1.0064  2.3524  0.4388
  951MOL0     H25480  -0.704   2.102   5.786 -0.6772  0.9784  0.4939
  951MOL0     H25481  -0.905   2.251   5.732  0.2750  0.5873  3.3876
  951MOL0     H25482  -0.793   2.331   5.833  4.7323  2.4624 -1.5183
  951MOL0     H25483  -0.774   2.387   5.547  2.1049  0.7585  0.7844
  951MOL0     H25484  -0.716   2.461   5.694  1.1949  0.5252 -2.0007
  951MOL0     H25485  -0.804   2.684   5.711  1.5852 -1.5820 -0.2810
  951MOL0     H25486  -0.984   2.887   5.554 -0.5885  2.2488  0.7792
  951MOL0     H25487  -0.950   2.868   5.728 -1.4674 -2.2986  1.5643
  951MOL0     H25488  -1.136   2.989   5.729 -2.0410 -0.7789  2.2574
  951MOL0     H25489  -1.192   2.826   5.765  0.0638  1.5434  1.4649
  951MOL0     H25490  -1.197   2.960   5.480  0.2144  1.0454  0.2809
  951MOL0     H25491  -1.265   2.797   5.527  1.0637  0.2450 -1.3983
  951MOL0     H25492  -1.367   3.063   5.631  1.0214 -0.8441 -0.7637
  951MOL0     H25493  -1.404   2.895   5.686 -3.2668 -0.8752 -1.4973
  951MOL0     H25494  -1.580   2.812   5.720 -0.2796  0.7087  2.4311
  951MOL0     H25495  -1.833   2.775   5.729  2.0402 -1.2189  0.3784
  951MOL0     H25496  -2.265   3.032   5.696  4.5443 -2.0601 -3.4943
  951MOL0     H25497  -2.476   2.952   5.714  1.7031  0.3608 -1.3397
  951MOL0     H25498  -2.670   2.826   5.734  0.8110  1.9908  0.0096
  951MOL0     H25499  -2.680   2.884   5.900  1.0675 -0.1708 -0.5284
  951MOL0     H25500  -2.815   2.680   5.966 -0.8129 -1.1401 -0.3999
  951MOL0     H25501  -2.754   2.605   5.820  0.1488 -0.4537  2.4425
  951MOL0     H25502  -2.858   2.776   5.678  2.4354  1.6285  1.9951
  951MOL0     H25503  -2.956   2.828   5.814  0.0493  0.4004 -0.5489
  951MOL0     H25504  -2.957   2.552   5.672 -0.3620  1.5538 -2.2362
  951MOL0     H25505  -3.044   2.568   5.826  2.2617  0.8386  2.2209
  951MOL0     H25506  -3.094   2.764   5.592  0.6928 -0.3751 -0.8215
  951MOL0     H25507  -3.205   2.722   5.717 -0.6325 -1.5390 -0.2511
  951MOL0     H25508  -3.231   2.480   5.635 -3.9557 -0.1484 -0.9582
  951MOL0     H25509  -3.136   2.551   5.494 -0.3380 -0.5466 -0.1020
  951MOL0     H25510  -3.416   2.652   5.591 -1.7839  0.2317 -1.2187
  951MOL0     H25511  -3.327   2.690   5.446 -1.4007 -0.7686 -1.3477
  951MOL0     H25512  -3.351   2.442   5.384  1.1125 -0.4340  1.0767
  951MOL0     H25513  -3.499   2.537   5.393 -3.1078  2.6261  4.7853
  951MOL0     H25514  -2.314   2.622   5.977  0.5441 -0.3710  0.0784
  951MOL0     H25515  -2.098   2.711   5.909  0.0044  0.8040  0.2033
  951MOL0     H25516  -1.889   3.043   5.401 -2.1988 -1.0315  0.9416
  951MOL0     H25517  -1.649   3.055   5.356  0.3268  1.8358 -0.0784
  951MOL0     H25518  -0.425   2.081   5.530 -0.2555  1.0300 -1.4257
  951MOL0     H25519  -0.210   2.217   5.577  0.7960 -1.7480  2.9672
  951MOL0     H25520   0.122   2.360   5.445  1.6160  2.0073 -1.5201
  951MOL0     H25521   0.301   2.533   5.451 -0.7444  1.4866  0.8111
  951MOL0     H25522   0.608   2.491   5.768  1.2662 -1.2829 -3.9486
  951MOL0     H25523   0.548   2.663   5.793 -1.7172 -1.2604  1.4773
  951MOL0     H25524   0.678   2.729   5.607 -1.5397 -1.4235 -3.0473
  951MOL0     H25525   0.786   2.662   5.725  0.2461 -0.3243  0.4627
  951MOL0     H25526   0.660   2.553   5.474  0.0228  4.4693  0.6302
  951MOL0     H25527   0.749   2.442   5.583  0.3413  1.7957  1.9151
  951MOL0     H25528   0.826   2.695   5.418 -1.7829 -0.2798 -0.4125
  951MOL0     H25529   0.950   2.611   5.502 -0.3555 -1.8883 -0.0172
  951MOL0     H25530   0.939   2.371   5.162  1.5266  1.0424 -1.3873
  951MOL0     H25531   0.422   2.386   5.838 -0.3808 -1.7398  1.0273
  951MOL0     H25532   0.261   2.216   5.826  1.8248 -0.1547 -0.1734
  952MOL0     O25533   8.016   5.287   2.560  0.5319 -0.3167 -0.1006
  952MOL0     C25534   7.945   5.319   2.465  1.1590  0.4407 -0.0876
  952MOL0     O25535   7.992   5.365   2.345 -0.5741 -0.0797 -0.2440
  952MOL0     C25536   8.129   5.399   2.325 -0.4333  0.7344  0.8345
  952MOL0     C25537   8.225   5.303   2.316  0.3918 -0.1252  1.0771
  952MOL0     C25538   8.359   5.332   2.297 -0.2847 -0.2613 -0.7947
  952MOL0     C25539   8.405   5.466   2.293 -0.3770 -0.0937 -0.1634
  952MOL0     O25540   8.540   5.501   2.282  0.1617 -0.0475  0.8532
  952MOL0     C25541   8.625   5.419   2.197  0.9300  1.0522  0.4632
  952MOL0     C25542   8.746   5.472   2.148 -0.0893  0.3610 -0.6494
  952MOL0     C25543   8.827   5.543   2.248 -0.5209 -0.2461  0.2353
  952MOL0     C25544   8.977   5.581   2.192 -0.3175  0.7194  0.5611
  952MOL0     C25545   9.066   5.619   2.310 -0.4437 -0.1390 -1.0167
  952MOL0     C25546   9.219   5.649   2.274 -0.8380 -0.1792 -0.1662
  952MOL0     C25547   9.291   5.695   2.410 -0.1925 -0.1697 -0.1609
  952MOL0     C25548   9.234   5.824   2.469 -0.1609  0.5880  0.1875
  952MOL0     N25549   9.306   5.876   2.580  0.1781  0.2124 -0.0287
  952MOL0     C25550   9.324   5.789   2.684 -0.3038 -0.3745  0.0405
  952MOL0     C25551   9.433   5.840   2.751  0.0432 -0.0612 -0.4596
  952MOL0     C25552   9.477   5.786   2.889 -0.0713  1.1572 -0.2234
  952MOL0     C25553   9.395   5.855   2.999  0.6405 -0.6289 -0.6672
  952MOL0     C25554   9.248   5.801   3.005  0.6621  0.5158  0.2358
  952MOL0     C25555   9.182   5.803   3.151 -1.1573  0.0288  0.1369
  952MOL0     O25556   9.089   5.694   3.156  0.2464  0.5978  0.2843
  952MOL0     C25557   8.973   5.713   3.221  0.6429 -0.6543  0.4211
  952MOL0     C25558   8.969   5.743   3.357 -0.2417  0.3251  0.5598
  952MOL0     C25559   8.848   5.773   3.422 -0.2235 -0.0554  0.4950
  952MOL0     C25560   8.731   5.778   3.344  0.8594 -0.1227 -0.0642
  952MOL0     C25561   8.603   5.804   3.409  0.0933 -0.0450 -0.9597
  952MOL0     O25562   8.598   5.833   3.540 -0.1511 -0.0379  0.2028
  952MOL0     C25563   8.477   5.889   3.586 -0.8668 -0.1027 -0.3087
  952MOL0     C25564   8.381   5.809   3.649 -0.8243  0.2493  0.8184
  952MOL0     C25565   8.272   5.867   3.707 -0.8997  0.1424 -0.3266
  952MOL0     C25566   8.246   6.005   3.693  0.9142  0.3946 -0.6670
  952MOL0     O25567   8.136   6.055   3.759  0.0789  0.0329 -0.3080
  952MOL0     C25568   8.014   5.976   3.759 -0.2142  0.3746  0.7533
  952MOL0     C25569   7.994   5.924   3.906 -0.4074 -0.1030 -0.1238
  952MOL0     C25570   7.858   5.962   3.970 -0.1246 -0.2991 -0.4650
  952MOL0     C25571   7.842   6.109   4.000 -0.3553  0.1883  0.1549
  952MOL0     C25572   7.722   6.143   4.093 -0.5099 -0.2127 -0.0235
  952MOL0     C25573   7.587   6.079   4.061  0.1035 -1.4056 -0.6111
  952MOL0     C25574   7.562   5.973   4.169  0.7227 -0.9537 -0.3492
  952MOL0     C25575   7.419   5.920   4.187  0.1726 -0.4767 -0.4614
  952MOL0    Cl25576   7.343   5.997   4.334  0.3800 -0.0303  0.1965
  952MOL0     C25577   8.340   6.087   3.632 -0.0613  0.6374  0.7985
  952MOL0     C25578   8.455   6.026   3.576 -0.3022  0.4571  0.3540
  952MOL0     O25579   8.507   5.797   3.334  0.1996 -0.5610 -0.6604
  952MOL0     C25580   8.739   5.736   3.218  0.3384 -0.1827 -0.0615
  952MOL0     C25581   8.857   5.703   3.156 -0.8934 -0.4404 -0.5469
  952MOL0     N25582   9.478   5.957   2.680 -0.2787 -0.3252  0.3681
  952MOL0     N25583   9.397   5.977   2.583 -0.0705 -0.1926 -0.5926
  952MOL0     C25584   8.304   5.564   2.305 -0.0651  0.6465  0.6226
  952MOL0     C25585   8.163   5.530   2.312  0.1102 -0.2401 -0.2482
  952MOL0     C25586   7.801   5.301   2.484 -0.7372  0.1692  0.5578
  952MOL0     C25587   7.751   5.208   2.571 -0.5886  0.2787  0.5373
  952MOL0     C25588   7.618   5.181   2.571 -0.4196 -0.4521  0.6130
  952MOL0     C25589   7.533   5.239   2.474  0.0360 -0.2431 -0.7971
  952MOL0     O25590   7.405   5.204   2.492  0.5376 -0.1315 -0.9920
  952MOL0     C25591   7.305   5.262   2.407  0.3888 -0.0319 -1.1458
  952MOL0     C25592   7.169   5.195   2.428 -0.7275  0.0822  0.0162
  952MOL0     C25593   7.076   5.206   2.300 -0.0694 -0.5003  0.2158
  952MOL0     C25594   6.937   5.150   2.314 -0.5338 -0.5617  0.2337
  952MOL0     C25595   6.867   5.201   2.440 -0.0597  0.3434  0.1334
  952MOL0     C25596   6.801   5.220   2.539 -1.3853 -0.9394  0.7337
  952MOL0     C25597   7.586   5.339   2.392  0.2431  0.3582 -0.5056
  952MOL0     C25598   7.717   5.379   2.403 -0.5402  0.4045  0.4167
  952MOL0     H25599   8.194   5.199   2.319 -2.8227  0.7463  1.4018
  952MOL0     H25600   8.432   5.253   2.310  2.0078  2.1731  3.0866
  952MOL0     H25601   8.575   5.367   2.114  0.8906  0.3096  0.9388
  952MOL0     H25602   8.658   5.340   2.265 -1.1330  0.4435  0.8464
  952MOL0     H25603   8.732   5.550   2.072  1.2279  1.8417  0.5618
  952MOL0     H25604   8.807   5.391   2.107  1.9958  0.2898  2.3066
  952MOL0     H25605   8.839   5.472   2.330  1.7844 -1.6984 -1.2447
  952MOL0     H25606   8.770   5.635   2.265 -2.9578 -0.4942 -4.7389
  952MOL0     H25607   9.014   5.492   2.140  0.3501  1.2365  0.1279
  952MOL0     H25608   8.969   5.657   2.114  0.3258 -1.3494 -1.6144
  952MOL0     H25609   9.053   5.544   2.388 -1.1528  0.6253 -0.3803
  952MOL0     H25610   9.032   5.716   2.347 -1.2941 -0.9251  0.3799
  952MOL0     H25611   9.215   5.713   2.186  0.3146 -2.5050 -2.0030
  952MOL0     H25612   9.286   5.571   2.238  3.9779  1.4631  4.0469
  952MOL0     H25613   9.289   5.611   2.480 -1.4589 -0.2956 -0.3203
  952MOL0     H25614   9.389   5.727   2.373 -0.6507 -1.8586 -3.1668
  952MOL0     H25615   9.136   5.800   2.512  1.1413  0.4747  3.2844
  952MOL0     H25616   9.231   5.900   2.391 -3.7526  0.0769 -0.3569
  952MOL0     H25617   9.259   5.704   2.703 -1.5532  0.5240 -0.1183
  952MOL0     H25618   9.583   5.806   2.907  0.1044 -1.6421  2.6156
  952MOL0     H25619   9.453   5.680   2.897  0.6551  0.7122 -2.9231
  952MOL0     H25620   9.395   5.962   2.979 -1.9780  0.0770  2.3055
  952MOL0     H25621   9.438   5.834   3.097 -1.0028 -0.3108  0.1544
  952MOL0     H25622   9.178   5.851   2.938 -2.3069 -0.0370  2.6957
  952MOL0     H25623   9.252   5.695   2.977  1.8383 -0.1188  2.5481
  952MOL0     H25624   9.137   5.898   3.180  0.8238  0.4096  2.2473
  952MOL0     H25625   9.256   5.787   3.230 -4.6600 -0.8881  3.5194
  952MOL0     H25626   9.060   5.761   3.413  0.1710  1.4279 -0.4339
  952MOL0     H25627   8.849   5.806   3.525 -3.1572  0.1214  0.5459
  952MOL0     H25628   8.395   5.702   3.659 -0.3927  0.2318  0.0955
  952MOL0     H25629   8.216   5.787   3.755 -0.0409  0.8361  1.9532
  952MOL0     H25630   8.011   5.893   3.688 -0.3851  3.0325 -2.5482
  952MOL0     H25631   7.936   6.047   3.734  1.9613  2.4745 -0.4408
  952MOL0     H25632   8.069   5.965   3.975 -0.9801 -1.2593  1.2615
  952MOL0     H25633   8.021   5.818   3.899  2.8266  0.6902 -1.2614
  952MOL0     H25634   7.842   5.904   4.061 -0.7858 -0.2325 -0.5328
  952MOL0     H25635   7.777   5.930   3.904  0.1530 -1.9205 -0.0635
  952MOL0     H25636   7.935   6.157   4.034  0.0220 -1.6482  1.9010
  952MOL0     H25637   7.823   6.164   3.907 -0.4885 -0.3112 -0.1138
  952MOL0     H25638   7.720   6.253   4.099  0.0518 -0.1089 -1.2594
  952MOL0     H25639   7.749   6.112   4.194 -4.0802  1.3988  1.5961
  952MOL0     H25640   7.594   6.041   3.958 -1.3379  0.6652 -1.5501
  952MOL0     H25641   7.511   6.158   4.060  1.8127  0.3146 -1.3872
  952MOL0     H25642   7.625   5.884   4.159  1.1746 -0.9589  2.0450
  952MOL0     H25643   7.586   6.013   4.267  0.3344  0.1059 -0.6725
  952MOL0     H25644   7.442   5.813   4.194  2.6197  0.0511  0.3228
  952MOL0     H25645   7.362   5.938   4.095 -3.1761  0.0096  1.5279
  952MOL0     H25646   8.337   6.196   3.636  2.4434  0.7205  2.6095
  952MOL0     H25647   8.531   6.084   3.524  1.2074 -2.9582 -1.5638
  952MOL0     H25648   8.655   5.717   3.151  0.8335 -0.1761 -0.6881
  952MOL0     H25649   8.865   5.664   3.055 -1.2374  0.1236 -0.7938
  952MOL0     H25650   8.335   5.667   2.294  0.7690  0.3097 -0.3158
  952MOL0     H25651   8.081   5.602   2.319 -0.1307 -0.2938 -1.9755
  952MOL0     H25652   7.813   5.153   2.641 -0.5708  1.7838  1.7407
  952MOL0     H25653   7.582   5.097   2.630 -2.5634 -0.7013 -0.8936
  952MOL0     H25654   7.320   5.243   2.300  0.2549 -2.1534 -0.8226
  952MOL0     H25655   7.308   5.371   2.416 -3.2203  0.2033 -1.2425
  952MOL0     H25656   7.177   5.090   2.455  0.4934  0.6625  2.2445
  952MOL0     H25657   7.129   5.246   2.516 -2.4759  0.8645 -1.1846
  952MOL0     H25658   7.116   5.153   2.213 -2.0103 -1.4999 -0.1429
  952MOL0     H25659   7.066   5.309   2.266 -0.4157 -1.0936 -1.6100
  952MOL0     H25660   6.877   5.178   2.227  0.5046  2.3988  0.3649
  952MOL0     H25661   6.950   5.042   2.304  1.0025 -0.3641 -0.2034
  952MOL0     H25662   6.746   5.241   2.629  1.2405  1.5037  1.9282
  952MOL0     H25663   7.523   5.389   2.320 -0.9063  0.9203  0.8475
  952MOL0     H25664   7.751   5.460   2.340  1.2852  0.5025  1.4478
  953MOL0     O25665   0.059   5.276   6.419 -0.8343  0.1132 -0.1293
  953MOL0     C25666   0.068   5.256   6.541  0.6642 -0.2034 -0.5157
  953MOL0     O25667  -0.043   5.229   6.621 -0.7120  0.5236  0.7211
  953MOL0     C25668  -0.173   5.246   6.582 -0.0310  0.7822 -0.4430
  953MOL0     C25669  -0.267   5.190   6.681  0.5283 -0.0303  0.3145
  953MOL0     C25670  -0.405   5.194   6.646  0.4349 -0.3703 -0.3194
  953MOL0     C25671  -0.453   5.260   6.535 -0.5177 -0.5448 -0.4025
  953MOL0     O25672  -0.584   5.283   6.516  0.8404 -0.3922 -0.4446
  953MOL0     C25673  -0.648   5.367   6.622 -0.1141  0.2144  0.1286
  953MOL0     C25674  -0.756   5.279   6.684 -0.0669  0.1959  0.4130
  953MOL0     C25675  -0.844   5.360   6.761 -0.2066 -0.1162 -0.6332
  953MOL0     C25676  -0.945   5.275   6.835 -0.3228  0.4855  1.1926
  953MOL0     C25677  -1.078   5.352   6.860 -0.2542 -0.4500 -0.4535
  953MOL0     C25678  -1.186   5.259   6.922  0.1931  0.4628 -1.0666
  953MOL0     C25679  -1.306   5.328   6.975 -0.5047 -0.1130  0.1095
  953MOL0     C25680  -1.417   5.226   6.981 -0.0811  0.6422 -0.2985
  953MOL0     N25681  -1.553   5.276   6.995  0.8031  0.0963 -0.7665
  953MOL0     C25682  -1.653   5.290   6.900 -0.3067 -0.0496 -0.3964
  953MOL0     C25683  -1.729   5.388   6.953 -0.3803 -0.0717  0.3194
  953MOL0     C25684  -1.831   5.468   6.876  0.6158 -0.7685 -1.3328
  953MOL0     C25685  -1.974   5.426   6.910  0.1306  0.7846 -0.3429
  953MOL0     C25686  -2.016   5.278   6.871 -0.4928 -0.6803  0.9172
  953MOL0     C25687  -2.023   5.251   6.715 -0.2036  0.1864 -0.3656
  953MOL0     O25688  -2.119   5.314   6.634 -0.2104  0.4328 -0.4330
  953MOL0     C25689  -2.258   5.293   6.654  0.8390 -0.6212  0.2114
  953MOL0     C25690  -2.317   5.192   6.731  0.2102  0.1182 -0.6490
  953MOL0     C25691  -2.452   5.188   6.766  0.0021 -0.5347  0.0910
  953MOL0     C25692  -2.537   5.295   6.713 -0.2082  0.2964  0.7847
  953MOL0     C25693  -2.676   5.293   6.756  0.2261 -0.7703 -0.2967
  953MOL0     O25694  -2.767   5.381   6.707  0.5375  0.1646  0.2609
  953MOL0     C25695  -2.901   5.375   6.738  0.7216 -0.0716 -0.4802
  953MOL0     C25696  -2.969   5.437   6.848 -0.8750 -0.4160  0.1872
  953MOL0     C25697  -3.100   5.424   6.876 -0.1917  0.0992 -1.3114
  953MOL0     C25698  -3.186   5.342   6.800  0.3149 -0.1061 -0.0532
  953MOL0     O25699  -3.321   5.326   6.819 -0.0311 -0.5491 -1.0830
  953MOL0     C25700  -3.406   5.263   6.723  0.6526  0.2627  0.2939
  953MOL0     C25701  -3.544   5.253   6.788 -0.4333 -0.0420  0.0708
  953MOL0     C25702  -3.647   5.200   6.689 -0.8784 -0.0004 -0.2805
  953MOL0     C25703  -3.768   5.181   6.767 -0.0467 -1.0748 -0.6780
  953MOL0     C25704  -3.882   5.169   6.674  0.8428 -0.6546  0.4423
  953MOL0     C25705  -3.965   5.042   6.702 -0.7706 -0.5043  0.8423
  953MOL0     C25706  -4.050   5.010   6.578 -0.4467  0.2161 -0.4990
  953MOL0     C25707  -4.189   5.071   6.568 -0.9528  0.3826 -0.5615
  953MOL0    Cl25708  -4.190   5.252   6.601  0.1117 -0.0452 -0.1050
  953MOL0     C25709  -3.123   5.274   6.693 -0.0475  1.0635  0.9881
  953MOL0     C25710  -2.986   5.296   6.662  0.9024 -0.1207  0.1939
  953MOL0     O25711  -2.707   5.209   6.842  0.2105 -0.4374 -0.1747
  953MOL0     C25712  -2.476   5.394   6.632 -0.1642 -0.3140 -0.2587
  953MOL0     C25713  -2.341   5.387   6.599 -0.3696 -0.0431 -0.4463
  953MOL0     N25714  -1.690   5.431   7.078 -0.2356  0.0886  0.5867
  953MOL0     N25715  -1.584   5.355   7.108  0.7512  0.6042 -0.8839
  953MOL0     C25716  -0.366   5.311   6.442 -0.1031  0.3291  0.1908
  953MOL0     C25717  -0.222   5.295   6.458  0.4275 -0.8408 -0.3637
  953MOL0     C25718   0.207   5.241   6.602 -0.3557 -0.1264  1.3857
  953MOL0     C25719   0.221   5.245   6.734 -0.1930  0.4125 -0.2605
  953MOL0     C25720   0.348   5.245   6.789  0.4958  0.7237 -0.0590
  953MOL0     C25721   0.462   5.232   6.710 -1.0541  0.2610  0.3307
  953MOL0     O25722   0.587   5.236   6.763 -0.1936  0.3607 -0.3347
  953MOL0     C25723   0.591   5.232   6.907 -1.1074 -0.2909  0.4839
  953MOL0     C25724   0.739   5.225   6.949  0.2411  0.3685  0.0424
  953MOL0     C25725   0.742   5.262   7.098  0.7257  0.9242  0.5620
  953MOL0     C25726   0.885   5.265   7.165 -1.2624  0.2277  0.0286
  953MOL0     C25727   0.872   5.320   7.299 -0.0644  0.1847 -0.4768
  953MOL0     C25728   0.877   5.333   7.417 -0.7629 -0.9117  0.5250
  953MOL0     C25729   0.446   5.231   6.578 -0.0446  0.0011  0.0051
  953MOL0     C25730   0.320   5.245   6.525  0.5497 -0.5520 -0.3450
  953MOL0     H25731  -0.236   5.129   6.766 -0.3300  0.3656  0.9317
  953MOL0     H25732  -0.479   5.145   6.709 -0.9251 -2.3253 -3.2097
  953MOL0     H25733  -0.693   5.457   6.579 -3.9172 -0.8216  1.5137
  953MOL0     H25734  -0.578   5.401   6.699 -0.9225 -1.0806  1.4949
  953MOL0     H25735  -0.720   5.190   6.737  0.7511  0.2150 -0.0969
  953MOL0     H25736  -0.795   5.238   6.591 -0.4025 -3.3413  1.9596
  953MOL0     H25737  -0.900   5.430   6.698 -1.5416 -2.1096 -1.7633
  953MOL0     H25738  -0.788   5.417   6.835  2.3934 -3.6249  0.3722
  953MOL0     H25739  -0.965   5.182   6.781 -0.2594 -0.3448  2.5295
  953MOL0     H25740  -0.900   5.242   6.929  2.0812 -0.4723 -0.2177
  953MOL0     H25741  -1.120   5.382   6.764 -0.6271 -1.9793 -0.8030
  953MOL0     H25742  -1.056   5.432   6.931  2.4225 -2.5682  1.3467
  953MOL0     H25743  -1.139   5.219   7.012 -0.0795  3.2119  0.3747
  953MOL0     H25744  -1.207   5.178   6.850  2.4103 -2.9751  1.8059
  953MOL0     H25745  -1.292   5.371   7.074  0.1328  1.2002 -0.5147
  953MOL0     H25746  -1.329   5.405   6.900 -0.1070 -1.4957 -1.5178
  953MOL0     H25747  -1.410   5.166   7.072  3.0112  1.6685  0.2593
  953MOL0     H25748  -1.414   5.155   6.898 -3.1932  0.8511 -0.7327
  953MOL0     H25749  -1.664   5.255   6.798 -1.0495 -0.6431 -0.1197
  953MOL0     H25750  -1.818   5.461   6.767  1.4777 -3.2032 -1.1352
  953MOL0     H25751  -1.812   5.564   6.923  2.9402 -1.8971  0.2168
  953MOL0     H25752  -2.037   5.497   6.856 -0.5572  0.0715 -0.4904
  953MOL0     H25753  -1.993   5.433   7.017  0.8423 -0.6115 -0.0978
  953MOL0     H25754  -1.958   5.192   6.905 -1.6363 -0.9933  2.1550
  953MOL0     H25755  -2.119   5.263   6.905 -0.9055 -0.8798 -0.3738
  953MOL0     H25756  -2.031   5.143   6.704  2.2906 -0.2030  0.9174
  953MOL0     H25757  -1.927   5.266   6.665  2.5930 -3.7962  3.1538
  953MOL0     H25758  -2.247   5.126   6.781  2.7952  2.0058 -1.5402
  953MOL0     H25759  -2.497   5.114   6.830  1.5908  0.2312  2.2058
  953MOL0     H25760  -2.908   5.499   6.914 -1.1580  1.2108 -1.0075
  953MOL0     H25761  -3.135   5.471   6.967 -1.8606 -2.6876 -0.3953
  953MOL0     H25762  -3.367   5.164   6.698  3.7209  1.9019 -2.1633
  953MOL0     H25763  -3.404   5.322   6.631  1.4224  0.3825  0.3813
  953MOL0     H25764  -3.568   5.359   6.802  3.7546  1.1021 -0.0843
  953MOL0     H25765  -3.541   5.186   6.874 -1.1051 -2.9455 -2.0036
  953MOL0     H25766  -3.634   5.097   6.654 -3.9910 -0.8680  0.6974
  953MOL0     H25767  -3.665   5.259   6.599  2.0234  1.3852 -0.0628
  953MOL0     H25768  -3.751   5.099   6.838  1.4819  0.1833  0.4662
  953MOL0     H25769  -3.792   5.266   6.830 -0.6867 -1.1841 -0.7690
  953MOL0     H25770  -3.848   5.177   6.570  1.8229  4.7681  0.8991
  953MOL0     H25771  -3.942   5.261   6.676  0.6346 -0.8017  1.2313
  953MOL0     H25772  -4.022   5.040   6.795  2.6245 -0.5627  3.0718
  953MOL0     H25773  -3.895   4.960   6.720  0.4270  0.8367  2.5169
  953MOL0     H25774  -4.008   5.049   6.485  2.3614  1.1441  1.0398
  953MOL0     H25775  -4.055   4.901   6.574 -1.9726  0.2782 -0.7499
  953MOL0     H25776  -4.254   5.022   6.640  0.1657 -0.9476 -0.4234
  953MOL0     H25777  -4.227   5.042   6.470 -0.1820  2.4298 -1.5395
  953MOL0     H25778  -3.178   5.214   6.622  3.6533  1.0634 -2.2319
  953MOL0     H25779  -2.950   5.237   6.579  2.5682  1.3517 -0.1902
  953MOL0     H25780  -2.529   5.485   6.605  2.1504  1.8283  1.8039
  953MOL0     H25781  -2.299   5.466   6.537 -0.1635  0.3803  0.2267
  953MOL0     H25782  -0.402   5.353   6.349  1.6675  3.0810  0.6550
  953MOL0     H25783  -0.162   5.322   6.372  2.0889 -2.0439  0.3532
  953MOL0     H25784   0.124   5.248   6.782 -2.4473 -2.7299 -3.9992
  953MOL0     H25785   0.351   5.253   6.897  0.0586  0.7291 -0.0466
  953MOL0     H25786   0.536   5.144   6.944 -0.3408 -1.1599 -0.3903
  953MOL0     H25787   0.549   5.325   6.947 -1.8510 -0.6523  0.5685
  953MOL0     H25788   0.769   5.121   6.937  0.7736  0.3491  1.3659
  953MOL0     H25789   0.798   5.292   6.885 -2.0887  0.8349 -1.7585
  953MOL0     H25790   0.684   5.184   7.148  0.4891  0.2388 -0.7376
  953MOL0     H25791   0.682   5.349   7.124  0.3996  0.9199 -0.1725
  953MOL0     H25792   0.934   5.167   7.162  0.1870  0.7843  2.4046
  953MOL0     H25793   0.957   5.322   7.106  0.2944 -1.9940 -0.3513
  953MOL0     H25794   0.903   5.360   7.517  1.1378  0.9756 -0.3810
  953MOL0     H25795   0.537   5.219   6.519  0.3097 -1.6026  0.8045
  953MOL0     H25796   0.308   5.271   6.421  1.3566 -1.8309 -0.7786
  954MOL0     O25797   8.852   2.521   8.272 -1.0017 -0.7391 -0.4146
  954MOL0     C25798   8.873   2.406   8.245 -0.7533 -0.3287  0.2508
  954MOL0     O25799   8.773   2.313   8.211 -0.3523  0.3656  0.5566
  954MOL0     C25800   8.646   2.332   8.222  1.4128 -0.4329 -1.1401
  954MOL0     C25801   8.584   2.436   8.171  0.6417 -1.2510  0.0445
  954MOL0     C25802   8.445   2.450   8.163  0.0800 -0.5383  0.1316
  954MOL0     C25803   8.362   2.357   8.227 -0.2482 -0.7165 -0.5349
  954MOL0     O25804   8.225   2.377   8.225 -1.0958  0.0954 -0.9379
  954MOL0     C25805   8.157   2.254   8.214  0.6414 -0.4508 -0.0267
  954MOL0     C25806   8.011   2.285   8.171  0.2472  0.5375  0.2038
  954MOL0     C25807   7.923   2.166   8.130 -0.3149  1.3934  0.0739
  954MOL0     C25808   7.792   2.215   8.064  0.1461 -0.2750  0.3850
  954MOL0     C25809   7.710   2.105   7.985  0.1072  0.2025 -0.1615
  954MOL0     C25810   7.588   2.164   7.901 -0.2707  0.3328  0.5197
  954MOL0     C25811   7.474   2.205   7.984 -0.2393 -1.0630 -0.0621
  954MOL0     C25812   7.355   2.262   7.905 -0.4755  0.1465 -0.3753
  954MOL0     N25813   7.260   2.161   7.860 -0.1998 -0.8976  0.3386
  954MOL0     C25814   7.192   2.074   7.947 -0.7778  0.0886  0.3083
  954MOL0     C25815   7.184   1.956   7.882  0.0014 -0.1699 -0.4153
  954MOL0     C25816   7.130   1.819   7.920  0.3808  0.3200 -0.2537
  954MOL0     C25817   7.238   1.717   7.958 -0.0886 -0.2411 -0.8863
  954MOL0     C25818   7.301   1.748   8.091 -0.0647  0.5357  0.1686
  954MOL0     C25819   7.419   1.651   8.125  0.0493  0.0042 -0.4208
  954MOL0     O25820   7.511   1.632   8.018  0.3834  0.0718 -0.4190
  954MOL0     C25821   7.491   1.539   7.920 -0.1795  0.7264 -0.6548
  954MOL0     C25822   7.557   1.551   7.801  0.2862  0.5713  0.2137
  954MOL0     C25823   7.537   1.476   7.689  0.3334  0.1298  0.0758
  954MOL0     C25824   7.444   1.367   7.693 -1.2958 -0.4047 -0.1164
  954MOL0     C25825   7.410   1.286   7.572  0.4463  0.5273 -0.4283
  954MOL0     O25826   7.460   1.340   7.450  0.6106  0.3415  0.1613
  954MOL0     C25827   7.434   1.281   7.326 -0.2423 -1.1485 -0.4309
  954MOL0     C25828   7.395   1.374   7.226 -0.0705 -0.3676 -0.2359
  954MOL0     C25829   7.364   1.325   7.096  0.0131  0.6932  0.4346
  954MOL0     C25830   7.376   1.189   7.067  0.6607  0.6750  0.3603
  954MOL0     O25831   7.347   1.115   6.949  0.1352  1.1979  0.2908
  954MOL0     C25832   7.282   1.173   6.835 -0.2240  0.1878 -0.2605
  954MOL0     C25833   7.203   1.059   6.766 -0.5661 -0.8382  1.3954
  954MOL0     C25834   7.095   0.980   6.845 -0.6118  0.2331 -0.5323
  954MOL0     C25835   6.960   1.043   6.877 -0.5003 -0.8241  0.1246
  954MOL0     C25836   6.887   1.077   6.744  0.5009 -0.1676 -0.0097
  954MOL0     C25837   6.746   1.147   6.770 -0.4489  0.0818  0.1005
  954MOL0     C25838   6.641   1.042   6.811  1.0548  0.1491 -0.7719
  954MOL0     C25839   6.516   1.104   6.843  0.1595 -0.4167  0.2223
  954MOL0    Cl25840   6.424   1.124   6.688  0.2123 -0.0809 -0.1128
  954MOL0     C25841   7.413   1.097   7.166  0.3289  1.2907 -0.1277
  954MOL0     C25842   7.431   1.143   7.299  0.1067 -0.1536 -1.0823
  954MOL0     O25843   7.329   1.192   7.573 -0.1803 -0.5681 -0.0490
  954MOL0     C25844   7.392   1.344   7.820  0.2826  0.1634  0.7636
  954MOL0     C25845   7.406   1.425   7.927 -0.5310 -0.2058  0.4614
  954MOL0     N25846   7.233   1.975   7.755  0.7018  0.3110 -0.6080
  954MOL0     N25847   7.270   2.100   7.742 -0.1206 -0.5890 -0.8561
  954MOL0     C25848   8.423   2.250   8.283 -0.6190 -0.4361  0.1148
  954MOL0     C25849   8.558   2.238   8.293 -0.0800 -0.1072 -0.3628
  954MOL0     C25850   9.009   2.366   8.207  1.0094 -0.1788 -0.0407
  954MOL0     C25851   9.037   2.230   8.184 -0.6912  0.7461 -0.4027
  954MOL0     C25852   9.171   2.192   8.150 -1.3415  0.8748 -0.2850
  954MOL0     C25853   9.275   2.286   8.157  0.4093  0.7654 -0.2568
  954MOL0     O25854   9.409   2.259   8.167 -0.3376 -0.2910  0.3258
  954MOL0     C25855   9.448   2.125   8.168 -0.1239  0.0525 -0.0115
  954MOL0     C25856   9.574   2.108   8.085  0.4811 -0.3507 -0.4535
  954MOL0     C25857   9.664   1.980   8.095 -0.8292  0.3985  0.2666
  954MOL0     C25858   9.772   1.980   7.983 -1.2918 -0.3402  0.0129
  954MOL0     C25859   9.907   1.960   8.035  0.1426 -0.6974  0.5934
  954MOL0     C25860  10.015   1.949   8.087  0.3208 -0.4472 -0.1402
  954MOL0     C25861   9.244   2.422   8.160 -0.5955 -0.1307 -0.6018
  954MOL0     C25862   9.110   2.460   8.200 -0.7245  0.4209  0.8999
  954MOL0     H25863   8.641   2.520   8.132 -0.4658  1.0119  2.9455
  954MOL0     H25864   8.399   2.535   8.113  0.7710  0.9868  1.9385
  954MOL0     H25865   8.162   2.187   8.301  0.2108 -0.1472  0.2333
  954MOL0     H25866   8.200   2.200   8.129 -0.1964 -1.2159  0.0188
  954MOL0     H25867   8.013   2.354   8.085  1.6891  2.9437  2.0403
  954MOL0     H25868   7.949   2.330   8.249  0.6427 -1.2839  1.6168
  954MOL0     H25869   7.917   2.101   8.218  0.7612 -0.4916 -1.1603
  954MOL0     H25870   7.981   2.097   8.067 -0.5342 -0.3984  1.7187
  954MOL0     H25871   7.734   2.259   8.145 -0.8875  4.1725 -2.3955
  954MOL0     H25872   7.810   2.299   7.996 -2.7059  0.7589  0.7894
  954MOL0     H25873   7.672   2.027   8.051  1.0536 -0.1076  0.0285
  954MOL0     H25874   7.786   2.063   7.918  0.8243  0.7879  0.2808
  954MOL0     H25875   7.563   2.096   7.819  1.0183  0.6387 -0.1594
  954MOL0     H25876   7.614   2.255   7.846 -0.4477  0.4802  0.6815
  954MOL0     H25877   7.426   2.133   8.052 -0.6502 -1.0243 -0.3066
  954MOL0     H25878   7.507   2.291   8.043  1.9542 -0.9405 -1.3950
  954MOL0     H25879   7.384   2.307   7.809  0.6367 -2.1973 -1.2171
  954MOL0     H25880   7.301   2.331   7.970 -1.2286 -0.9448  0.1770
  954MOL0     H25881   7.166   2.075   8.052 -0.6217 -1.6069  0.3913
  954MOL0     H25882   7.081   1.794   7.825 -0.8405  2.4561 -0.2788
  954MOL0     H25883   7.056   1.817   8.000  1.3522 -3.2310  0.7117
  954MOL0     H25884   7.317   1.707   7.883  1.7844  1.0312  0.8199
  954MOL0     H25885   7.197   1.616   7.971 -0.2893 -0.0810 -0.2263
  954MOL0     H25886   7.345   1.848   8.080 -0.3042  0.4994 -1.3341
  954MOL0     H25887   7.218   1.754   8.163  1.1606  3.3986  1.5479
  954MOL0     H25888   7.396   1.551   8.163 -0.0301  0.4204  0.6803
  954MOL0     H25889   7.464   1.703   8.210 -0.9537 -0.9053  0.7157
  954MOL0     H25890   7.634   1.628   7.795 -0.3440  1.3927  2.0362
  954MOL0     H25891   7.579   1.502   7.592 -0.2767 -0.6881 -0.4237
  954MOL0     H25892   7.392   1.481   7.245  0.5394 -0.4117  0.1212
  954MOL0     H25893   7.329   1.400   7.025 -0.6987  2.4777  2.5347
  954MOL0     H25894   7.359   1.212   6.767  0.7709 -2.7308 -0.9443
  954MOL0     H25895   7.207   1.249   6.860  1.1080  1.4966 -0.1179
  954MOL0     H25896   7.279   0.991   6.726  3.4554  4.1489 -0.5834
  954MOL0     H25897   7.154   1.103   6.678  0.4450 -0.1114  1.1800
  954MOL0     H25898   7.137   0.946   6.940 -1.7864  3.4168  1.2604
  954MOL0     H25899   7.079   0.892   6.781  0.0054  0.1280 -0.5526
  954MOL0     H25900   6.890   0.990   6.942 -1.5054 -0.0686 -0.3099
  954MOL0     H25901   6.980   1.144   6.915  1.2386 -0.6689 -1.0703
  954MOL0     H25902   6.884   0.987   6.681 -0.6459 -0.3273  0.2660
  954MOL0     H25903   6.942   1.152   6.686  0.9552 -0.9801 -0.6703
  954MOL0     H25904   6.717   1.199   6.679 -1.7535  2.1661  1.6159
  954MOL0     H25905   6.745   1.228   6.843  0.0445 -1.6823  2.1831
  954MOL0     H25906   6.624   0.968   6.732 -2.6458  1.6249 -1.5817
  954MOL0     H25907   6.684   0.991   6.898  1.7754  1.1634 -0.5027
  954MOL0     H25908   6.541   1.197   6.894 -0.9408  2.0472 -3.3244
  954MOL0     H25909   6.466   1.027   6.903 -2.8182  1.0103 -0.2351
  954MOL0     H25910   7.409   0.989   7.160  0.0764  1.3227 -0.5799
  954MOL0     H25911   7.462   1.078   7.380  2.8832 -0.1006 -2.0230
  954MOL0     H25912   7.314   1.269   7.834 -0.3913  1.0488  1.8501
  954MOL0     H25913   7.356   1.396   8.019 -1.5353 -0.0867 -0.0333
  954MOL0     H25914   8.361   2.177   8.334 -0.6200  1.7741  3.6251
  954MOL0     H25915   8.605   2.157   8.347 -1.2323  0.3814  1.4481
  954MOL0     H25916   8.960   2.156   8.171 -0.1180  0.3756 -1.9729
  954MOL0     H25917   9.198   2.087   8.140 -0.2597  0.7155  3.0457
  954MOL0     H25918   9.386   2.040   8.139  1.7133 -2.5587  2.9644
  954MOL0     H25919   9.459   2.104   8.275 -1.4891 -1.7926 -0.1902
  954MOL0     H25920   9.530   2.119   7.986 -4.6157  1.1963  1.6666
  954MOL0     H25921   9.639   2.195   8.102 -2.6968  2.6553 -2.4649
  954MOL0     H25922   9.605   1.888   8.107  1.7483 -1.0583  3.4433
  954MOL0     H25923   9.722   1.977   8.188  1.5630  2.2861 -1.0283
  954MOL0     H25924   9.744   1.898   7.917  0.4045  0.0061 -1.2037
  954MOL0     H25925   9.762   2.055   7.904 -0.2854 -0.6952 -0.4630
  954MOL0     H25926  10.110   1.940   8.135 -0.2792 -0.4825  1.0904
  954MOL0     H25927   9.318   2.502   8.158  0.9208 -1.4202  0.6461
  954MOL0     H25928   9.080   2.564   8.206 -0.1876  0.5786  0.9643
  955MOL0     O25929   1.793   7.408   9.466  0.0297  0.3951 -0.9392
  955MOL0     C25930   1.828   7.323   9.547  0.3383 -0.1708 -0.0518
  955MOL0     O25931   1.782   7.189   9.552  0.2188 -0.2388 -1.1207
  955MOL0     C25932   1.646   7.163   9.522 -0.4647 -0.5042  0.0999
  955MOL0     C25933   1.541   7.261   9.535 -0.1340  0.8465 -0.1178
  955MOL0     C25934   1.408   7.232   9.515  0.3444  0.1205  0.8643
  955MOL0     C25935   1.378   7.106   9.469  0.7846  0.4367 -0.8043
  955MOL0     O25936   1.245   7.075   9.452 -0.2037  0.1547  0.7535
  955MOL0     C25937   1.211   6.944   9.404  0.9636 -0.5416  0.1803
  955MOL0     C25938   1.073   6.942   9.362 -0.5620  0.2137 -0.6283
  955MOL0     C25939   1.045   6.820   9.278  0.0352  0.9784  0.3252
  955MOL0     C25940   0.905   6.799   9.235 -0.6029  0.6913  0.4827
  955MOL0     C25941   0.888   6.654   9.186 -0.6669  0.2811  0.1634
  955MOL0     C25942   0.758   6.642   9.106  0.5091 -0.2058  0.9788
  955MOL0     C25943   0.633   6.652   9.196  0.5137  0.1431  0.5286
  955MOL0     C25944   0.529   6.762   9.156  0.4805 -0.9356 -0.6096
  955MOL0     N25945   0.397   6.705   9.173 -0.1437 -0.1561 -1.0848
  955MOL0     C25946   0.342   6.629   9.076  0.4482  0.1586  0.4801
  955MOL0     C25947   0.212   6.601   9.123 -0.9578 -0.3934 -0.7242
  955MOL0     C25948   0.111   6.523   9.053  0.3093  0.1495 -0.5523
  955MOL0     C25949   0.067   6.410   9.149  0.2200 -0.6020 -0.4436
  955MOL0     C25950  -0.017   6.304   9.073  0.1290 -0.1573 -0.0236
  955MOL0     C25951  -0.123   6.358   8.981  0.1566 -0.3778 -0.4242
  955MOL0     O25952  -0.191   6.254   8.910 -0.0775 -0.4432  1.0701
  955MOL0     C25953  -0.320   6.221   8.941  0.7970 -0.7136  0.8927
  955MOL0     C25954  -0.402   6.274   9.040 -0.2471  0.7819 -0.4432
  955MOL0     C25955  -0.518   6.204   9.072  0.8124  0.4656  0.2112
  955MOL0     C25956  -0.563   6.094   9.001  0.9088  0.8589 -0.2585
  955MOL0     C25957  -0.695   6.025   9.039  0.3574 -0.7268 -0.0107
  955MOL0     O25958  -0.739   5.932   8.945 -0.4670 -0.6676 -0.0085
  955MOL0     C25959  -0.844   5.858   8.983  0.3138  0.2751  0.6547
  955MOL0     C25960  -0.827   5.722   9.012  0.7335  0.2737  1.7165
  955MOL0     C25961  -0.936   5.638   9.037  0.1434  0.3324 -0.0387
  955MOL0     C25962  -1.054   5.694   9.076  0.3537  0.0094 -1.5812
  955MOL0     O25963  -1.148   5.606   9.125 -0.1045  0.3710  0.2415
  955MOL0     C25964  -1.287   5.644   9.109  0.3819  0.1694 -0.0715
  955MOL0     C25965  -1.377   5.525   9.133  0.8166  0.2654  0.3677
  955MOL0     C25966  -1.515   5.559   9.092  0.8114  0.1493  0.0712
  955MOL0     C25967  -1.618   5.478   9.177 -0.5018 -1.0116 -0.0959
  955MOL0     C25968  -1.748   5.556   9.203 -1.8684 -0.1605  0.2651
  955MOL0     C25969  -1.816   5.586   9.070  0.4532  0.5554 -0.4035
  955MOL0     C25970  -1.919   5.703   9.092  0.0831 -0.0429 -0.7338
  955MOL0     C25971  -2.035   5.675   9.186 -0.2910 -0.0230  0.2761
  955MOL0    Cl25972  -2.160   5.817   9.167  0.1305 -0.1024 -0.0276
  955MOL0     C25973  -1.075   5.834   9.052  0.4821  1.2314 -0.4790
  955MOL0     C25974  -0.970   5.912   9.009  1.6373  0.3581  0.6307
  955MOL0     O25975  -0.741   6.049   9.150  0.0602  0.1632 -0.8184
  955MOL0     C25976  -0.489   6.049   8.887 -1.1314  0.1107 -0.7477
  955MOL0     C25977  -0.373   6.117   8.857 -0.3407 -0.1459 -0.0033
  955MOL0     N25978   0.215   6.654   9.253  0.1018  0.0411 -0.6828
  955MOL0     N25979   0.324   6.709   9.286  0.0009 -0.2129 -0.1581
  955MOL0     C25980   1.478   7.007   9.458 -0.5000  0.2541 -0.2379
  955MOL0     C25981   1.613   7.028   9.485 -0.1393  0.1668  0.5812
  955MOL0     C25982   1.950   7.347   9.619 -0.2870  0.7469 -0.2012
  955MOL0     C25983   2.017   7.245   9.693  0.5857  1.1702 -0.0358
  955MOL0     C25984   2.145   7.266   9.741 -0.8301 -0.1222 -0.3839
  955MOL0     C25985   2.211   7.387   9.740  0.4200  0.3124  0.0151
  955MOL0     O25986   2.332   7.396   9.795  0.5940  0.5188 -0.3730
  955MOL0     C25987   2.334   7.472   9.912  0.2585 -0.4514 -0.9298
  955MOL0     C25988   2.471   7.463   9.974 -0.4678  0.3277 -0.4531
  955MOL0     C25989   2.571   7.541   9.883 -0.1799  0.4069 -0.3983
  955MOL0     C25990   2.715   7.530   9.931  0.1612  0.0862  0.6502
  955MOL0     C25991   2.793   7.623   9.854 -0.7209 -0.6483 -0.2252
  955MOL0     C25992   2.872   7.700   9.796 -0.2709 -0.3496  0.0508
  955MOL0     C25993   2.145   7.497   9.666  0.3114  0.4697  0.7828
  955MOL0     C25994   2.014   7.469   9.609 -0.6538 -0.1173 -1.4111
  955MOL0     H25995   1.572   7.359   9.569 -1.8867  0.9544  1.2922
  955MOL0     H25996   1.320   7.291   9.539 -0.5108  0.1792 -2.0180
  955MOL0     H25997   1.235   6.877   9.487  1.3070  2.3684  2.5691
  955MOL0     H25998   1.265   6.924   9.311 -2.3307  1.8547 -2.5193
  955MOL0     H25999   1.058   7.023   9.291 -0.5234 -0.9012 -1.9690
  955MOL0     H26000   1.010   6.941   9.452  1.6213  1.0296  1.0026
  955MOL0     H26001   1.074   6.730   9.333 -2.8060 -0.7621 -0.7860
  955MOL0     H26002   1.112   6.827   9.192 -1.0381 -0.9597 -0.7466
  955MOL0     H26003   0.831   6.809   9.316 -1.0016 -2.3969  0.6458
  955MOL0     H26004   0.878   6.869   9.156 -1.0694 -0.2794 -0.2408
  955MOL0     H26005   0.896   6.579   9.265 -2.1265  0.5698  0.6218
  955MOL0     H26006   0.966   6.632   9.113 -1.6904 -1.0301 -0.5746
  955MOL0     H26007   0.768   6.545   9.056  1.3700  1.0509 -1.4074
  955MOL0     H26008   0.751   6.702   9.016  0.2560 -1.9622 -0.2301
  955MOL0     H26009   0.583   6.557   9.179  1.5471 -0.1121 -1.3557
  955MOL0     H26010   0.639   6.638   9.305  0.3657 -2.5063  0.2475
  955MOL0     H26011   0.546   6.808   9.058  5.5229 -0.1076  0.3371
  955MOL0     H26012   0.547   6.842   9.228 -0.1573 -1.9862  0.7649
  955MOL0     H26013   0.379   6.582   8.986 -3.1512 -1.3119 -0.4197
  955MOL0     H26014   0.158   6.472   8.968  1.3728  0.4882 -0.1905
  955MOL0     H26015   0.030   6.584   9.013  0.0564 -1.3516 -2.4908
  955MOL0     H26016  -0.000   6.448   9.226 -0.2940  1.5751 -1.8465
  955MOL0     H26017   0.151   6.359   9.196 -1.4187 -2.8399  0.2443
  955MOL0     H26018   0.054   6.239   9.021  0.3733  0.0168  0.0909
  955MOL0     H26019  -0.058   6.237   9.149  0.4690 -1.8534 -1.2811
  955MOL0     H26020  -0.084   6.424   8.903  1.5936  2.4193  2.4282
  955MOL0     H26021  -0.187   6.422   9.043  2.4688  0.2235  1.5019
  955MOL0     H26022  -0.363   6.346   9.110 -0.1085 -0.6290  0.9799
  955MOL0     H26023  -0.587   6.241   9.148 -0.4668  0.6608 -1.0024
  955MOL0     H26024  -0.730   5.682   8.984 -1.8336 -4.4549 -1.7979
  955MOL0     H26025  -0.901   5.536   9.041  2.8902  1.0796 -1.9917
  955MOL0     H26026  -1.308   5.684   9.010 -1.8509  2.9416  1.3902
  955MOL0     H26027  -1.310   5.726   9.177  1.2405 -1.2811  2.0688
  955MOL0     H26028  -1.377   5.504   9.240  1.3153  1.2453  0.5759
  955MOL0     H26029  -1.345   5.439   9.073 -1.1778 -1.7004  1.9836
  955MOL0     H26030  -1.521   5.546   8.984  3.2820  1.8663 -0.3529
  955MOL0     H26031  -1.520   5.666   9.114 -1.3929 -0.0011  0.5272
  955MOL0     H26032  -1.648   5.383   9.133  1.4943 -0.9431 -1.7565
  955MOL0     H26033  -1.572   5.462   9.276  3.5553  0.1774 -1.5892
  955MOL0     H26034  -1.725   5.638   9.272  1.8873 -0.4843 -0.3667
  955MOL0     H26035  -1.806   5.485   9.262 -1.1531 -1.6664 -0.8003
  955MOL0     H26036  -1.853   5.489   9.035 -1.2330  0.3695  1.6995
  955MOL0     H26037  -1.747   5.618   8.990  1.3803 -0.1541  0.0882
  955MOL0     H26038  -1.861   5.790   9.125  3.2224 -2.7595  1.4261
  955MOL0     H26039  -1.965   5.735   8.998  1.6514  5.3309 -0.0533
  955MOL0     H26040  -2.000   5.676   9.289 -3.8327 -1.8754  1.6469
  955MOL0     H26041  -2.077   5.576   9.164  0.5582  0.0609 -2.0725
  955MOL0     H26042  -1.175   5.877   9.054 -0.8347 -1.4297 -2.5969
  955MOL0     H26043  -0.987   6.018   8.997  0.8880  0.5953  3.2782
  955MOL0     H26044  -0.522   5.965   8.828 -0.7252 -1.4243  1.1129
  955MOL0     H26045  -0.321   6.081   8.769 -4.3249 -2.5163 -1.6533
  955MOL0     H26046   1.461   6.902   9.439  2.0408 -0.2727  0.0143
  955MOL0     H26047   1.682   6.946   9.476 -0.2371  0.0481  0.8711
  955MOL0     H26048   1.981   7.143   9.693  1.3638  0.8837  0.4935
  955MOL0     H26049   2.194   7.179   9.786  1.2419  0.5185 -1.2679
  955MOL0     H26050   2.261   7.435   9.985  3.6590 -3.0937  1.4948
  955MOL0     H26051   2.317   7.577   9.888  1.2015 -0.4079 -1.4611
  955MOL0     H26052   2.459   7.519  10.067 -1.3093  3.2741 -2.2080
  955MOL0     H26053   2.489   7.359  10.005  2.8544  0.8815 -0.2173
  955MOL0     H26054   2.538   7.646   9.887 -0.0753  0.4090  0.7382
  955MOL0     H26055   2.560   7.489   9.787 -0.7727 -2.1792  0.9864
  955MOL0     H26056   2.720   7.553  10.038  1.8156  1.0040  0.4185
  955MOL0     H26057   2.761   7.431   9.920  2.0143  0.9198  0.5260
  955MOL0     H26058   2.931   7.772   9.743 -1.8734  2.0333  1.3544
  955MOL0     H26059   2.193   7.594   9.656  3.6832 -1.0228  1.1606
  955MOL0     H26060   1.966   7.556   9.566  0.5606  1.0693 -0.4115
  956MOL0     O26061   9.004   4.280  10.354 -0.1691 -0.0930 -0.2939
  956MOL0     C26062   9.066   4.315  10.456 -0.7165  0.3555 -1.1487
  956MOL0     O26063   9.074   4.444  10.514  0.0088  0.1742  0.0708
  956MOL0     C26064   9.003   4.545  10.444 -0.3794  0.4892  1.4129
  956MOL0     C26065   8.867   4.534  10.418 -0.1771 -0.1849 -1.3606
  956MOL0     C26066   8.800   4.641  10.362  0.2257 -0.2179 -0.3513
  956MOL0     C26067   8.862   4.772  10.333  0.8978  0.7649 -0.0069
  956MOL0     O26068   8.807   4.887  10.273  0.7505  0.1135  0.0039
  956MOL0     C26069   8.682   4.860  10.211 -0.7936 -0.2865 -0.4503
  956MOL0     C26070   8.653   4.970  10.122  0.2884  0.3395 -0.4761
  956MOL0     C26071   8.752   5.000  10.007  0.3246  0.2704 -0.3186
  956MOL0     C26072   8.869   5.089  10.039  0.7707  0.0774 -0.0325
  956MOL0     C26073   8.828   5.234  10.041  1.0099  0.0642 -0.9780
  956MOL0     C26074   8.926   5.323  10.113  0.1691 -0.0024 -0.4076
  956MOL0     C26075   8.937   5.463  10.046 -0.8629  1.0302  0.9987
  956MOL0     C26076   9.018   5.460   9.913  0.3658  0.7984 -0.4072
  956MOL0     N26077   9.062   5.591   9.859  0.3332 -0.2505 -0.1110
  956MOL0     C26078   9.113   5.610   9.732  0.0996 -0.0283  0.5751
  956MOL0     C26079   9.121   5.750   9.717  0.2414  0.4187  0.3598
  956MOL0     C26080   9.152   5.817   9.585 -0.1985 -0.0007 -0.5067
  956MOL0     C26081   9.261   5.925   9.602 -0.1496  0.5979  0.2848
  956MOL0     C26082   9.307   6.002   9.473  0.3551  0.5544  0.3267
  956MOL0     C26083   9.455   6.044   9.471 -0.3293 -0.5760  0.0850
  956MOL0     O26084   9.507   6.055   9.346 -0.0222  0.8274 -0.7175
  956MOL0     C26085   9.639   6.089   9.330  0.4745 -0.2116  1.3497
  956MOL0     C26086   9.728   5.988   9.290 -0.8706 -0.4229 -0.4140
  956MOL0     C26087   9.863   6.024   9.250  0.0357 -0.0848  0.0861
  956MOL0     C26088   9.906   6.166   9.266 -0.7282  0.1894  0.5656
  956MOL0     C26089  10.049   6.203   9.229  0.5298  0.3277  0.1628
  956MOL0     O26090  10.096   6.323   9.279  0.2230  0.1214  0.6080
  956MOL0     C26091  10.222   6.357   9.243 -0.3723  1.2496 -0.2378
  956MOL0     C26092  10.231   6.488   9.213  0.4079  0.4782 -0.0728
  956MOL0     C26093  10.361   6.555   9.192  0.4993  0.4447  0.4182
  956MOL0     C26094  10.478   6.471   9.188  0.6508 -0.4410  0.1054
  956MOL0     O26095  10.594   6.523   9.174 -0.7091  0.0359  0.0666
  956MOL0     C26096  10.628   6.640   9.099  0.0809 -0.0025 -0.6465
  956MOL0     C26097  10.780   6.644   9.080  0.4168 -0.6455 -0.1844
  956MOL0     C26098  10.831   6.779   9.027 -0.6224  1.1542 -0.7258
  956MOL0     C26099  10.981   6.784   9.027 -0.0748  0.1974  0.0036
  956MOL0     C26100  11.034   6.917   8.982 -0.8296 -0.1407 -0.6318
  956MOL0     C26101  11.191   6.907   8.966  0.1822 -0.3100 -0.6167
  956MOL0     C26102  11.247   6.883   9.109 -0.0944 -0.2255 -0.0352
  956MOL0     C26103  11.381   6.960   9.136  0.0874  0.0016  0.1083
  956MOL0    Cl26104  11.499   6.897   9.021 -0.1500 -0.2712 -0.1786
  956MOL0     C26105  10.462   6.337   9.226 -0.1112 -0.2244 -0.2960
  956MOL0     C26106  10.336   6.284   9.253 -0.0392  0.2553  0.0789
  956MOL0     O26107  10.118   6.121   9.164 -0.1180  0.4322 -0.4022
  956MOL0     C26108   9.820   6.257   9.321 -0.1351  0.0729  0.0703
  956MOL0     C26109   9.690   6.221   9.347  0.8565  0.7139 -0.0469
  956MOL0     N26110   9.076   5.802   9.832 -0.9975  0.0025 -0.3562
  956MOL0     N26111   9.052   5.718   9.915 -0.5338  0.5788 -0.1505
  956MOL0     C26112   8.997   4.780  10.368  0.0435 -1.3659 -0.1124
  956MOL0     C26113   9.062   4.675  10.425  0.3653  0.2211  0.6217
  956MOL0     C26114   9.139   4.213  10.530 -1.1782  0.4149 -0.9001
  956MOL0     C26115   9.139   4.087  10.492  0.3499  0.0813  0.4240
  956MOL0     C26116   9.199   3.975  10.556 -1.1754 -0.4773  0.8692
  956MOL0     C26117   9.272   4.007  10.668 -0.3365  0.2189  0.5160
  956MOL0     O26118   9.326   3.900  10.731  0.9383 -0.0797 -0.3427
  956MOL0     C26119   9.467   3.905  10.748 -0.0864 -0.5342  0.5775
  956MOL0     C26120   9.520   3.765  10.748 -1.1862 -0.7716 -0.2372
  956MOL0     C26121   9.516   3.689  10.618  0.8803 -0.4873 -0.4414
  956MOL0     C26122   9.622   3.587  10.602  0.2593 -0.2580 -0.2901
  956MOL0     C26123   9.767   3.630  10.613  0.3282 -0.0708  0.0333
  956MOL0     C26124   9.886   3.653  10.609 -0.2558  1.0591 -1.0242
  956MOL0     C26125   9.276   4.135  10.710 -0.5095 -0.6196 -0.0329
  956MOL0     C26126   9.214   4.242  10.645  0.7056 -0.5468  0.0894
  956MOL0     H26127   8.819   4.443  10.455 -0.1957  0.0540 -0.7909
  956MOL0     H26128   8.694   4.626  10.343  0.3224 -1.6141  0.1486
  956MOL0     H26129   8.595   4.835  10.272  0.2033 -4.1706 -0.3722
  956MOL0     H26130   8.699   4.769  10.152  0.7457 -0.7753  0.6862
  956MOL0     H26131   8.659   5.066  10.175  2.2317  0.1648 -0.3032
  956MOL0     H26132   8.548   4.966  10.092 -0.2411 -1.0448  1.4354
  956MOL0     H26133   8.694   5.055   9.931  1.2677  1.1197 -0.4498
  956MOL0     H26134   8.779   4.907   9.958  4.1855  1.8914 -1.6253
  956MOL0     H26135   8.907   5.061  10.138 -1.3176 -2.0377  0.2661
  956MOL0     H26136   8.950   5.069   9.968  1.5017 -1.6183  1.2108
  956MOL0     H26137   8.730   5.257  10.085  1.4845  2.8000 -1.1182
  956MOL0     H26138   8.815   5.264   9.936 -3.0312 -1.7997 -1.2009
  956MOL0     H26139   9.021   5.270  10.121  0.1093 -0.3504 -1.7193
  956MOL0     H26140   8.891   5.341  10.215  2.2087 -2.0830  0.7554
  956MOL0     H26141   8.833   5.495  10.036 -1.1503  0.0531  0.8293
  956MOL0     H26142   8.990   5.533  10.112 -0.4361  1.2031  0.4790
  956MOL0     H26143   8.949   5.425   9.835  0.0432  1.8708 -0.6231
  956MOL0     H26144   9.104   5.394   9.922 -0.5734 -0.2200  2.1797
  956MOL0     H26145   9.161   5.534   9.670  1.2044 -0.1713  1.5598
  956MOL0     H26146   9.067   5.873   9.547 -0.9791  0.5274  1.8482
  956MOL0     H26147   9.185   5.741   9.513  1.4859  1.1147 -0.9630
  956MOL0     H26148   9.349   5.864   9.624  1.7219  3.3993  1.0485
  956MOL0     H26149   9.220   5.987   9.682 -0.5294 -0.7688  1.1732
  956MOL0     H26150   9.279   5.937   9.390  1.0984  0.2246  0.3285
  956MOL0     H26151   9.239   6.087   9.465  0.1131  0.3619  0.3163
  956MOL0     H26152   9.524   5.974   9.520  1.7052  0.5568 -1.0188
  956MOL0     H26153   9.458   6.132   9.536  4.3583 -0.3378 -0.1535
  956MOL0     H26154   9.702   5.883   9.282 -3.2756  0.1810 -1.3686
  956MOL0     H26155   9.923   5.943   9.211 -1.4494 -1.8527  1.2527
  956MOL0     H26156  10.143   6.543   9.243 -2.1214 -3.4538  0.4449
  956MOL0     H26157  10.355   6.661   9.170 -1.5285  0.3015  0.1016
  956MOL0     H26158  10.602   6.736   9.146  0.0325 -0.6986  0.7874
  956MOL0     H26159  10.582   6.661   9.001  1.4191  2.7038 -0.7807
  956MOL0     H26160  10.802   6.568   9.005  2.9307  2.2913 -2.6803
  956MOL0     H26161  10.827   6.627   9.178  1.3729 -0.0144 -0.5177
  956MOL0     H26162  10.783   6.850   9.095 -3.4072 -2.8795  1.9263
  956MOL0     H26163  10.795   6.799   8.925 -2.4751  2.3707  0.1223
  956MOL0     H26164  11.013   6.783   9.132  0.0421 -0.3422 -0.0349
  956MOL0     H26165  11.023   6.700   8.971 -0.1011  0.4102 -0.3380
  956MOL0     H26166  11.010   6.993   9.056  1.7513  0.7055 -0.5654
  956MOL0     H26167  10.996   6.950   8.885  1.3901  0.1478 -1.4725
  956MOL0     H26168  11.232   7.006   8.943  1.0387 -0.9093 -1.7725
  956MOL0     H26169  11.231   6.835   8.894  0.2640  0.3738 -1.2736
  956MOL0     H26170  11.174   6.908   9.187  1.5374 -0.8374  1.7933
  956MOL0     H26171  11.257   6.777   9.137 -0.0785  0.1993  1.7231
  956MOL0     H26172  11.422   6.939   9.236  2.9750  3.8261 -0.0376
  956MOL0     H26173  11.379   7.069   9.131  0.8969  0.0247  0.1284
  956MOL0     H26174  10.551   6.280   9.249  0.0108 -2.1961 -4.7040
  956MOL0     H26175  10.325   6.186   9.299 -2.2176  0.5002  0.2029
  956MOL0     H26176   9.853   6.358   9.341  0.8978 -0.3144  0.3451
  956MOL0     H26177   9.616   6.290   9.384 -2.7035 -1.8094 -1.8889
  956MOL0     H26178   9.044   4.876  10.349 -2.2614 -0.3761 -1.3164
  956MOL0     H26179   9.167   4.689  10.449  1.3482  1.0349 -3.3391
  956MOL0     H26180   9.096   4.049  10.399 -0.1132 -0.0611  0.6929
  956MOL0     H26181   9.195   3.872  10.521 -1.2838 -0.4072  0.6724
  956MOL0     H26182   9.501   3.968  10.831 -1.9142 -0.3517  1.2464
  956MOL0     H26183   9.503   3.955  10.658 -0.8062  0.2659  0.7207
  956MOL0     H26184   9.627   3.773  10.772 -1.3004 -3.8606  1.8947
  956MOL0     H26185   9.473   3.719  10.836 -1.4239  2.6798  1.6061
  956MOL0     H26186   9.524   3.758  10.533  0.6072  0.2464  0.1117
  956MOL0     H26187   9.415   3.649  10.605  1.3614 -3.0343  2.5829
  956MOL0     H26188   9.608   3.502  10.669  0.8841  0.1325  0.3428
  956MOL0     H26189   9.608   3.547  10.501 -0.6600 -0.3721 -0.1321
  956MOL0     H26190   9.992   3.646  10.626 -0.1422  2.3438 -1.1428
  956MOL0     H26191   9.346   4.146  10.792 -0.8425  0.0984  0.1617
  956MOL0     H26192   9.221   4.342  10.687  0.4410 -0.6073  0.2805
  957MOL0     O26193  10.440   5.121   6.179  0.5052 -0.2854 -0.2905
  957MOL0     C26194  10.420   5.086   6.068  0.2046  0.5521  0.7431
  957MOL0     O26195  10.302   5.100   5.997 -0.4837 -0.1809 -0.3545
  957MOL0     C26196  10.187   5.149   6.054  0.4191  0.1947 -0.5494
  957MOL0     C26197  10.087   5.169   5.956 -0.2712  0.6095  0.7132
  957MOL0     C26198   9.967   5.216   5.996  0.4043 -0.2787  0.3336
  957MOL0     C26199   9.928   5.241   6.125  0.4990 -0.9526 -1.2465
  957MOL0     O26200   9.794   5.270   6.164 -1.0474 -0.0327 -0.0755
  957MOL0     C26201   9.713   5.191   6.250 -0.4427 -0.2447 -0.4337
  957MOL0     C26202   9.595   5.252   6.294 -0.4368 -0.9287 -0.0412
  957MOL0     C26203   9.605   5.404   6.295  0.4476  0.4117  0.5500
  957MOL0     C26204   9.496   5.477   6.381  0.4032  0.3949 -0.5242
  957MOL0     C26205   9.529   5.624   6.411 -0.2586  0.6316 -0.3613
  957MOL0     C26206   9.449   5.675   6.529  0.2239  1.1934  0.1963
  957MOL0     C26207   9.296   5.647   6.530 -0.0497 -0.1543  0.1067
  957MOL0     C26208   9.227   5.718   6.413 -0.5034  0.6884  0.3291
  957MOL0     N26209   9.080   5.712   6.424  0.3751  0.3139 -0.0048
  957MOL0     C26210   9.003   5.781   6.509 -0.0540 -0.1638  0.4015
  957MOL0     C26211   8.873   5.750   6.483  0.4675  0.2572  0.3306
  957MOL0     C26212   8.753   5.813   6.551 -0.2210  0.1164 -0.5804
  957MOL0     C26213   8.620   5.732   6.543  0.0932  0.4405 -0.0334
  957MOL0     C26214   8.500   5.823   6.583 -0.8870 -0.2097 -0.2692
  957MOL0     C26215   8.376   5.748   6.606 -0.6903  0.5770 -0.7604
  957MOL0     O26216   8.282   5.851   6.629  0.1478  0.0490 -0.1802
  957MOL0     C26217   8.160   5.826   6.688 -0.1897 -0.6124 -0.8594
  957MOL0     C26218   8.112   5.693   6.697  0.6359  0.5532 -0.5934
  957MOL0     C26219   7.982   5.688   6.759  0.0466 -0.1112 -0.2138
  957MOL0     C26220   7.909   5.805   6.800 -0.2263  0.7328 -0.2192
  957MOL0     C26221   7.771   5.790   6.824  0.7082  0.4180 -0.3750
  957MOL0     O26222   7.709   5.665   6.806 -0.5118  0.3076 -0.6553
  957MOL0     C26223   7.587   5.628   6.860 -0.4341  0.0607 -0.8688
  957MOL0     C26224   7.555   5.652   6.996  0.4915 -0.3428  0.1434
  957MOL0     C26225   7.426   5.606   7.042 -0.0379 -0.3507 -0.7315
  957MOL0     C26226   7.338   5.544   6.958  0.3576 -0.0332 -0.4767
  957MOL0     O26227   7.212   5.507   7.003  0.3693 -0.1260  0.5817
  957MOL0     C26228   7.167   5.581   7.117 -0.0911 -0.2070  0.8890
  957MOL0     C26229   7.020   5.534   7.141 -0.5174  0.3312  1.1392
  957MOL0     C26230   6.930   5.545   7.016  1.2057 -0.1633 -0.6454
  957MOL0     C26231   6.796   5.471   7.045 -0.3100 -0.2411  0.5583
  957MOL0     C26232   6.699   5.476   6.932  0.1173 -0.2388 -0.2728
  957MOL0     C26233   6.582   5.377   6.947 -0.8097 -0.0451 -0.4358
  957MOL0     C26234   6.486   5.390   6.831 -0.5815  0.4344  0.3477
  957MOL0     C26235   6.372   5.295   6.858  0.7912  0.5359  0.9618
  957MOL0    Cl26236   6.243   5.329   6.730 -0.1128  0.0444 -0.0361
  957MOL0     C26237   7.380   5.517   6.828  1.1422 -0.2120 -0.1871
  957MOL0     C26238   7.512   5.556   6.781  0.1377  0.1511  1.4643
  957MOL0     O26239   7.714   5.881   6.879 -0.4551  0.2236 -0.1366
  957MOL0     C26240   7.967   5.933   6.793  0.2790 -0.7063  0.6819
  957MOL0     C26241   8.100   5.942   6.738 -0.1829 -0.7916  1.1965
  957MOL0     N26242   8.876   5.657   6.378 -0.2199 -0.2649  0.2029
  957MOL0     N26243   8.997   5.626   6.354 -0.1428  0.2499  0.7626
  957MOL0     C26244  10.023   5.218   6.224 -0.8597  0.1373 -0.2497
  957MOL0     C26245  10.155   5.171   6.192 -0.2109  0.5358 -0.4396
  957MOL0     C26246  10.544   5.029   6.010  0.4217  0.3359 -1.0588
  957MOL0     C26247  10.638   4.967   6.100 -0.6561 -0.8494  0.6470
  957MOL0     C26248  10.753   4.916   6.046 -0.5618 -0.1240  0.1143
  957MOL0     C26249  10.779   4.923   5.904  0.1946 -0.3429  0.6081
  957MOL0     O26250  10.880   4.862   5.838  0.9254 -1.2832 -0.8357
  957MOL0     C26251  11.009   4.885   5.904  0.1713  0.7184  0.3793
  957MOL0     C26252  11.118   4.779   5.856  0.3097 -0.0090  0.2332
  957MOL0     C26253  11.137   4.770   5.709 -0.0160 -0.5218 -0.3655
  957MOL0     C26254  11.121   4.908   5.625  0.5568  0.7554 -0.0799
  957MOL0     C26255  11.132   4.884   5.478 -1.0383  0.6803 -0.3935
  957MOL0     C26256  11.147   4.851   5.364  0.3214  0.3730  0.0692
  957MOL0     C26257  10.680   4.984   5.820  0.7092  0.9237 -0.5618
  957MOL0     C26258  10.564   5.037   5.870 -0.4815  0.5957  0.3956
  957MOL0     H26259  10.113   5.142   5.855  1.3134  0.1858  1.2028
  957MOL0     H26260   9.883   5.220   5.928  0.8047  0.3513 -0.1348
  957MOL0     H26261   9.771   5.156   6.336 -0.0474  0.0907 -0.5564
  957MOL0     H26262   9.696   5.094   6.202  2.3308 -1.8447  1.5037
  957MOL0     H26263   9.577   5.208   6.393 -1.0094 -2.1228 -0.6619
  957MOL0     H26264   9.504   5.226   6.240 -1.7871 -0.0924  1.7363
  957MOL0     H26265   9.611   5.450   6.196 -0.0459 -0.4285  0.1177
  957MOL0     H26266   9.700   5.437   6.339  0.3936  0.7802  0.3977
  957MOL0     H26267   9.399   5.478   6.330 -0.4222 -0.3292  0.9750
  957MOL0     H26268   9.470   5.429   6.475 -1.0493  2.0530 -0.0307
  957MOL0     H26269   9.505   5.687   6.325  0.4495  1.0297 -0.2793
  957MOL0     H26270   9.636   5.645   6.427  0.4221 -1.8865 -1.1645
  957MOL0     H26271   9.472   5.782   6.540  0.5233  1.3762 -1.8021
  957MOL0     H26272   9.476   5.631   6.625  0.5124 -0.3450 -0.5643
  957MOL0     H26273   9.275   5.540   6.530 -3.8782  0.3823  2.5047
  957MOL0     H26274   9.266   5.689   6.627  0.0432  0.9479 -0.3193
  957MOL0     H26275   9.253   5.668   6.319  3.3657 -0.1426  1.6498
  957MOL0     H26276   9.263   5.821   6.411 -2.6304  1.4838  0.3238
  957MOL0     H26277   9.045   5.865   6.563 -1.3327  0.2050  0.8709
  957MOL0     H26278   8.730   5.908   6.502  0.0663 -0.5008 -1.9645
  957MOL0     H26279   8.778   5.829   6.656  1.3253 -0.7839 -0.7757
  957MOL0     H26280   8.626   5.636   6.596 -0.6221  0.1743 -0.4215
  957MOL0     H26281   8.612   5.706   6.437  2.1122  0.5402 -0.2596
  957MOL0     H26282   8.522   5.881   6.674 -0.2093 -0.1628 -0.4580
  957MOL0     H26283   8.481   5.884   6.494 -0.8235 -0.1725 -0.2579
  957MOL0     H26284   8.371   5.676   6.689 -0.3578  1.0982 -0.2782
  957MOL0     H26285   8.344   5.691   6.518 -0.0169 -0.7477 -0.1778
  957MOL0     H26286   8.137   5.597   6.654  1.7968  1.0052 -0.9424
  957MOL0     H26287   7.931   5.591   6.759  0.9943 -0.7215  2.5547
  957MOL0     H26288   7.628   5.692   7.066  0.4758 -2.0583  1.2069
  957MOL0     H26289   7.397   5.616   7.146 -1.7803  1.3832 -1.3318
  957MOL0     H26290   7.171   5.689   7.101 -0.1225 -0.2690  0.4221
  957MOL0     H26291   7.219   5.566   7.212  1.6079 -0.4232 -0.0304
  957MOL0     H26292   6.979   5.591   7.225 -1.5950  1.1977  0.0581
  957MOL0     H26293   7.030   5.426   7.156  2.7425 -0.0191 -2.1594
  957MOL0     H26294   6.981   5.496   6.932  1.3994 -1.5572  0.2399
  957MOL0     H26295   6.924   5.653   7.002  3.8999  1.2206  5.6180
  957MOL0     H26296   6.811   5.365   7.065  0.6549 -0.2071  0.0565
  957MOL0     H26297   6.753   5.515   7.136  2.4143  2.0649  0.8614
  957MOL0     H26298   6.752   5.434   6.846 -0.2887 -0.1173 -0.5906
  957MOL0     H26299   6.668   5.580   6.916 -0.0410 -0.2887 -0.2971
  957MOL0     H26300   6.529   5.411   7.037 -1.0170 -0.3948 -0.4248
  957MOL0     H26301   6.616   5.274   6.954  0.7871  0.4945  0.3243
  957MOL0     H26302   6.444   5.490   6.818  1.3468  1.6605  2.7541
  957MOL0     H26303   6.547   5.368   6.743 -1.4770  0.0302 -0.1809
  957MOL0     H26304   6.324   5.309   6.956 -2.2713 -1.1657 -0.1511
  957MOL0     H26305   6.402   5.190   6.852 -0.6741  0.0946  0.8478
  957MOL0     H26306   7.315   5.455   6.766 -1.4993  1.8629  0.3342
  957MOL0     H26307   7.559   5.527   6.687  1.1807 -2.0069  2.5966
  957MOL0     H26308   7.916   6.019   6.835  1.0041 -1.0027  2.2500
  957MOL0     H26309   8.144   6.041   6.732  0.4536 -1.0973  0.6811
  957MOL0     H26310  10.008   5.251   6.327 -0.9717 -0.7548  0.0337
  957MOL0     H26311  10.226   5.147   6.271 -0.8829 -5.0896 -1.1147
  957MOL0     H26312  10.629   4.958   6.207  2.2748  1.5149  1.2092
  957MOL0     H26313  10.824   4.873   6.116  0.4527  1.7440  0.3063
  957MOL0     H26314  11.000   4.875   6.013 -1.2606  3.0803  0.5531
  957MOL0     H26315  11.043   4.987   5.882 -0.3817  0.4360 -1.9740
  957MOL0     H26316  11.207   4.793   5.919 -0.3904  1.2924  0.9905
  957MOL0     H26317  11.077   4.684   5.889 -2.0955  1.5453  2.0813
  957MOL0     H26318  11.076   4.693   5.661 -2.2014 -3.3992  5.9830
  957MOL0     H26319  11.241   4.739   5.692  0.8756  0.9848  1.8176
  957MOL0     H26320  11.020   4.949   5.636 -1.0957 -3.4249  3.5137
  957MOL0     H26321  11.195   4.983   5.653  0.3567  1.4002 -1.2494
  957MOL0     H26322  11.166   4.822   5.263 -0.9861 -3.0103  0.6759
  957MOL0     H26323  10.706   4.991   5.715 -0.2093 -0.7417 -0.9433
  957MOL0     H26324  10.494   5.083   5.801 -2.0571 -3.0494 -0.6763
  958MOL0     O26325   0.714   4.663   4.307 -0.6972  0.6324  0.1166
  958MOL0     C26326   0.674   4.780   4.303  0.7543 -0.1147  0.1470
  958MOL0     O26327   0.734   4.893   4.363  0.1381  0.0682 -1.1262
  958MOL0     C26328   0.854   4.869   4.432  0.8245  0.3532  0.6022
  958MOL0     C26329   0.864   4.778   4.539  0.4354 -0.8637 -0.7080
  958MOL0     C26330   0.975   4.762   4.616  0.0160 -0.5323  0.1522
  958MOL0     C26331   1.095   4.815   4.565 -0.1149 -0.1852  1.0915
  958MOL0     O26332   1.202   4.783   4.646 -0.1252 -0.8787 -0.5224
  958MOL0     C26333   1.336   4.833   4.602 -0.6521 -0.0615  0.3559
  958MOL0     C26334   1.432   4.738   4.673  0.6951 -0.5178 -0.2050
  958MOL0     C26335   1.572   4.791   4.664  0.0296 -0.0622 -0.2421
  958MOL0     C26336   1.665   4.666   4.713  0.3405 -0.0313 -0.3664
  958MOL0     C26337   1.797   4.717   4.737 -0.0171  0.0365 -0.8087
  958MOL0     C26338   1.895   4.601   4.779  0.2750 -0.2168 -0.0150
  958MOL0     C26339   1.895   4.564   4.935  0.0965  0.1332  0.6609
  958MOL0     C26340   1.898   4.410   4.966  0.1836  0.4172 -0.2004
  958MOL0     N26341   1.760   4.365   4.977 -0.1759 -0.7396  0.0489
  958MOL0     C26342   1.673   4.375   4.877  0.7001 -0.1809 -0.5057
  958MOL0     C26343   1.550   4.362   4.939 -0.0510 -0.7154  1.4028
  958MOL0     C26344   1.419   4.362   4.866  0.0817  0.2730  0.5822
  958MOL0     C26345   1.300   4.405   4.944 -0.0835 -0.8090 -0.5663
  958MOL0     C26346   1.173   4.428   4.863 -0.1465  0.5257 -0.2271
  958MOL0     C26347   1.049   4.416   4.941  0.4030 -0.1453 -0.1325
  958MOL0     O26348   0.930   4.440   4.863 -0.6576 -0.0902 -0.0856
  958MOL0     C26349   0.809   4.442   4.926  0.5954  0.1501 -0.6440
  958MOL0     C26350   0.790   4.442   5.064  0.2503  0.5544 -0.1709
  958MOL0     C26351   0.664   4.448   5.121  0.7618 -0.5977 -0.3527
  958MOL0     C26352   0.544   4.457   5.038 -0.1280 -0.2140 -0.1479
  958MOL0     C26353   0.416   4.480   5.106 -0.2514 -0.2567 -0.1116
  958MOL0     O26354   0.306   4.497   5.027  0.6787  0.1331 -0.1353
  958MOL0     C26355   0.181   4.501   5.087 -0.6079 -0.5689 -0.1699
  958MOL0     C26356   0.096   4.398   5.049 -0.1816  0.2071  0.4886
  958MOL0     C26357  -0.035   4.392   5.083 -0.2844  0.0920 -0.2379
  958MOL0     C26358  -0.081   4.471   5.185 -0.5043  0.2746  0.0555
  958MOL0     O26359  -0.209   4.470   5.238  0.8273 -0.5384 -0.4182
  958MOL0     C26360  -0.302   4.376   5.171  0.4687  0.3405  0.7787
  958MOL0     C26361  -0.445   4.417   5.198 -0.0026 -0.3828  0.7232
  958MOL0     C26362  -0.540   4.305   5.230 -0.5431 -0.1066 -0.7219
  958MOL0     C26363  -0.684   4.347   5.210  0.7836  0.0166 -0.1997
  958MOL0     C26364  -0.777   4.219   5.207 -0.6971 -0.2402  0.4783
  958MOL0     C26365  -0.912   4.283   5.186  0.0273 -0.3882 -0.5951
  958MOL0     C26366  -1.030   4.199   5.137 -0.4097  0.2445 -0.2217
  958MOL0     C26367  -1.163   4.278   5.143  0.2521  0.0692  1.2719
  958MOL0    Cl26368  -1.289   4.153   5.164 -0.1088  0.0865  0.1811
  958MOL0     C26369   0.003   4.569   5.239  0.4228 -0.8524 -0.1634
  958MOL0     C26370   0.128   4.594   5.189 -0.5649  0.3728  0.0296
  958MOL0     O26371   0.413   4.477   5.230 -0.2441  0.9352  0.6026
  958MOL0     C26372   0.571   4.472   4.900  0.3003 -0.8087  0.7564
  958MOL0     C26373   0.694   4.454   4.845  0.2052  0.1193 -0.2336
  958MOL0     N26374   1.561   4.340   5.069  0.3415  0.1063 -0.7139
  958MOL0     N26375   1.686   4.344   5.094  0.2298  0.0209  0.0302
  958MOL0     C26376   1.092   4.890   4.445 -0.0861  0.3828  0.5748
  958MOL0     C26377   0.977   4.899   4.369  0.2334  0.0281 -0.2902
  958MOL0     C26378   0.537   4.792   4.246 -0.3669  0.4499  0.0749
  958MOL0     C26379   0.467   4.914   4.256 -0.9828 -0.0556 -0.1225
  958MOL0     C26380   0.334   4.924   4.221 -0.2929 -0.0619 -0.0304
  958MOL0     C26381   0.271   4.812   4.157 -0.9061 -0.1977 -0.3010
  958MOL0     O26382   0.155   4.824   4.086  0.5841  0.7002  0.6100
  958MOL0     C26383   0.057   4.932   4.115 -0.2550 -0.6143  0.5737
  958MOL0     C26384   0.009   4.944   4.271 -0.1404  0.4345  0.1173
  958MOL0     C26385  -0.083   4.830   4.310 -0.2895  0.0142 -0.2403
  958MOL0     C26386  -0.216   4.809   4.233  0.3608 -0.7435  0.3993
  958MOL0     C26387  -0.281   4.949   4.232  1.2687 -0.1286  0.4716
  958MOL0     C26388  -0.346   5.052   4.242 -0.1942 -0.0141  0.4216
  958MOL0     C26389   0.339   4.692   4.149 -0.3745 -0.3778  0.5173
  958MOL0     C26390   0.474   4.682   4.194  1.4451 -0.2920  0.0373
  958MOL0     H26391   0.773   4.732   4.576  0.3336 -0.3235 -0.2732
  958MOL0     H26392   0.978   4.700   4.705 -1.1238 -0.5104  0.2144
  958MOL0     H26393   1.347   4.934   4.644  3.2273 -0.8153  1.5733
  958MOL0     H26394   1.347   4.839   4.493  0.0150  2.9458  0.5036
  958MOL0     H26395   1.430   4.645   4.615 -1.6044 -0.2945 -0.5493
  958MOL0     H26396   1.403   4.724   4.777  0.3129  2.7857  0.2118
  958MOL0     H26397   1.586   4.882   4.724  0.6595  1.6475 -2.8016
  958MOL0     H26398   1.597   4.827   4.564 -0.9961  0.4579 -0.3299
  958MOL0     H26399   1.612   4.636   4.804 -5.0056 -0.1494 -3.1545
  958MOL0     H26400   1.660   4.586   4.639 -1.0101  0.2605 -0.6163
  958MOL0     H26401   1.789   4.789   4.820 -3.1884 -1.8080  0.6687
  958MOL0     H26402   1.833   4.768   4.647  2.6693 -0.6377 -0.2146
  958MOL0     H26403   1.993   4.641   4.753  0.6611 -0.2232  1.3161
  958MOL0     H26404   1.885   4.514   4.714  0.0204 -1.6035  1.7873
  958MOL0     H26405   1.995   4.605   4.953  0.7074  0.5967 -2.9449
  958MOL0     H26406   1.818   4.616   4.993 -1.4560 -0.2498 -0.9565
  958MOL0     H26407   1.952   4.413   5.061  0.1719  0.2530 -0.1885
  958MOL0     H26408   1.955   4.351   4.893 -0.6060 -0.3838 -0.1872
  958MOL0     H26409   1.709   4.387   4.776  2.0235 -0.7825 -0.1192
  958MOL0     H26410   1.413   4.260   4.828  0.1924  0.3195  0.4400
  958MOL0     H26411   1.424   4.435   4.784 -3.7237  0.7252  0.5656
  958MOL0     H26412   1.323   4.498   4.997 -0.9222 -0.9668  0.1008
  958MOL0     H26413   1.282   4.327   5.018 -0.1313 -1.4782 -1.2674
  958MOL0     H26414   1.175   4.532   4.829 -0.3901  0.5899 -0.0533
  958MOL0     H26415   1.162   4.360   4.779  1.8347 -1.1266  0.7720
  958MOL0     H26416   1.063   4.497   5.014 -0.0925  0.8944 -1.1586
  958MOL0     H26417   1.047   4.326   5.003  2.2448 -1.2015 -1.4958
  958MOL0     H26418   0.879   4.451   5.125 -0.2053  1.5502  0.3610
  958MOL0     H26419   0.651   4.458   5.229  1.3470  0.9338 -0.4001
  958MOL0     H26420   0.137   4.328   4.977  2.9585  4.0512 -1.8785
  958MOL0     H26421  -0.091   4.317   5.029  1.2773 -1.5820  0.3794
  958MOL0     H26422  -0.268   4.278   5.208 -2.2953 -0.6897  0.7840
  958MOL0     H26423  -0.292   4.382   5.062 -4.0209 -1.0187  0.1076
  958MOL0     H26424  -0.474   4.478   5.113 -0.4837  2.3460  2.7275
  958MOL0     H26425  -0.449   4.487   5.282 -0.3491  2.1396 -1.3071
  958MOL0     H26426  -0.512   4.275   5.331  2.3204  1.2832 -1.0246
  958MOL0     H26427  -0.505   4.221   5.169  4.4506  0.8484  0.4332
  958MOL0     H26428  -0.705   4.416   5.293 -0.8144 -0.6166 -0.0471
  958MOL0     H26429  -0.686   4.399   5.113 -2.2184  4.2429  1.7885
  958MOL0     H26430  -0.768   4.160   5.299  3.0274 -0.9721 -0.1974
  958MOL0     H26431  -0.753   4.159   5.119  0.7052 -0.8148  1.2135
  958MOL0     H26432  -0.900   4.355   5.105  2.4206 -0.4953 -0.4060
  958MOL0     H26433  -0.931   4.330   5.282 -2.6003 -1.3602 -0.5650
  958MOL0     H26434  -1.007   4.127   5.059  2.3141  0.0199  0.6897
  958MOL0     H26435  -1.046   4.133   5.223 -2.3333 -2.2888 -2.3668
  958MOL0     H26436  -1.185   4.329   5.049  0.0629 -0.7440  0.8657
  958MOL0     H26437  -1.171   4.334   5.236  0.9186 -1.0386  2.0168
  958MOL0     H26438  -0.030   4.636   5.318  0.5857 -2.5015  1.3596
  958MOL0     H26439   0.192   4.674   5.225 -3.2782  1.5560  2.6459
  958MOL0     H26440   0.494   4.503   4.830 -0.5129  0.9340  2.3527
  958MOL0     H26441   0.701   4.447   4.737 -0.7547  0.5354 -0.3299
  958MOL0     H26442   1.185   4.922   4.400  0.3431  0.7230  1.6658
  958MOL0     H26443   0.983   4.933   4.266  2.1769  0.3162 -0.1187
  958MOL0     H26444   0.532   4.988   4.301 -0.4311 -2.1420  2.8534
  958MOL0     H26445   0.291   5.020   4.246  0.8919 -0.3008  3.5693
  958MOL0     H26446  -0.028   4.913   4.050 -0.6166 -1.6113  1.3219
  958MOL0     H26447   0.104   5.029   4.095 -0.9846 -0.1443  1.1001
  958MOL0     H26448   0.092   4.954   4.341  1.6772  2.2983 -2.1513
  958MOL0     H26449  -0.044   5.040   4.272 -2.1063 -0.5146 -2.2080
  958MOL0     H26450  -0.107   4.849   4.415 -0.6556  3.4624 -0.8258
  958MOL0     H26451  -0.024   4.738   4.317 -1.5826 -0.9020 -0.8710
  958MOL0     H26452  -0.209   4.770   4.131  0.5342 -1.9155  0.8452
  958MOL0     H26453  -0.283   4.743   4.288 -2.6864  1.4779 -0.4068
  958MOL0     H26454  -0.392   5.147   4.259  0.2072  0.2939 -0.1727
  958MOL0     H26455   0.305   4.600   4.101 -0.0176  0.8185 -2.2563
  958MOL0     H26456   0.524   4.591   4.163  0.9425 -0.6797  0.3445
  959MOL0     O26457   6.822   9.181   4.365 -0.0775 -0.6689 -0.2850
  959MOL0     C26458   6.837   9.262   4.282  0.2199 -0.5699 -0.3289
  959MOL0     O26459   6.738   9.308   4.197 -0.3828  0.1814 -0.1139
  959MOL0     C26460   6.607   9.294   4.221 -0.0289 -0.1162 -1.0084
  959MOL0     C26461   6.535   9.287   4.346  0.2945 -0.1010 -0.2960
  959MOL0     C26462   6.395   9.286   4.360  0.4171 -0.2423  0.0933
  959MOL0     C26463   6.310   9.296   4.245  1.0032 -0.0609  1.2070
  959MOL0     O26464   6.171   9.280   4.262 -1.1322 -0.6558  0.1820
  959MOL0     C26465   6.084   9.313   4.154 -0.4176  0.1749 -0.3166
  959MOL0     C26466   5.952   9.251   4.201  0.0475 -0.5931 -0.3879
  959MOL0     C26467   5.962   9.116   4.186 -0.5912  0.5629  0.4148
  959MOL0     C26468   5.842   9.031   4.223  0.1985  0.6455  1.5300
  959MOL0     C26469   5.851   8.887   4.173  0.3154 -0.5692 -0.1537
  959MOL0     C26470   5.729   8.815   4.230 -0.0934  0.5910 -0.5466
  959MOL0     C26471   5.709   8.674   4.165 -0.1687 -0.1813 -0.7721
  959MOL0     C26472   5.835   8.584   4.173 -0.1637 -0.1348  0.7953
  959MOL0     N26473   5.896   8.592   4.302 -0.4848 -0.0504 -0.3560
  959MOL0     C26474   5.847   8.533   4.420 -0.4853  0.2608  0.7914
  959MOL0     C26475   5.935   8.565   4.513 -0.9544  0.6508  1.5859
  959MOL0     C26476   5.928   8.541   4.657  0.9614 -0.0736 -0.0390
  959MOL0     C26477   6.024   8.437   4.702  1.0276 -0.8081 -0.7941
  959MOL0     C26478   6.023   8.407   4.853  0.3367 -0.5666 -0.9555
  959MOL0     C26479   5.901   8.325   4.901 -0.9938 -0.4102  0.6426
  959MOL0     O26480   5.803   8.425   4.948  0.4507 -0.3452  0.5133
  959MOL0     C26481   5.675   8.361   4.967 -0.5323 -0.2884  0.6411
  959MOL0     C26482   5.650   8.223   4.988 -0.5692 -0.7705 -0.2315
  959MOL0     C26483   5.521   8.179   4.991 -0.0553 -0.6298  0.4885
  959MOL0     C26484   5.408   8.266   4.978 -0.1433 -0.8276 -0.4904
  959MOL0     C26485   5.268   8.219   4.986  0.3836 -0.2445 -0.5751
  959MOL0     O26486   5.257   8.091   5.038 -0.1336  0.2353 -0.0948
  959MOL0     C26487   5.138   8.035   5.063  0.3636 -0.1189  0.2649
  959MOL0     C26488   5.125   7.897   5.055 -0.2513  0.1551 -0.3853
  959MOL0     C26489   5.003   7.841   5.090  0.3080  0.8054  0.0682
  959MOL0     C26490   4.899   7.915   5.137  0.3737  0.6015 -0.9914
  959MOL0     O26491   4.768   7.863   5.170 -1.1987 -0.3201 -0.1661
  959MOL0     C26492   4.762   7.734   5.227 -0.2274 -0.2091 -0.6331
  959MOL0     C26493   4.614   7.691   5.231 -0.6100 -0.0870  0.3235
  959MOL0     C26494   4.513   7.787   5.304  0.0800  0.4632 -1.5446
  959MOL0     C26495   4.381   7.722   5.300  0.7104  0.2592  0.2067
  959MOL0     C26496   4.274   7.805   5.360  0.5113  0.1757  1.1812
  959MOL0     C26497   4.149   7.726   5.351  0.1749  0.5722  0.0906
  959MOL0     C26498   4.031   7.757   5.441 -0.1924  0.1955  0.6870
  959MOL0     C26499   3.944   7.878   5.395 -1.1075  0.2830 -0.6949
  959MOL0    Cl26500   3.844   7.841   5.252  0.0395 -0.0084 -0.4091
  959MOL0     C26501   4.908   8.047   5.143 -0.3095 -0.2936  0.2227
  959MOL0     C26502   5.031   8.114   5.113  0.2903  0.4902 -0.2114
  959MOL0     O26503   5.178   8.290   4.944  0.3382  0.4716  0.8338
  959MOL0     C26504   5.441   8.405   4.952  0.1782  0.4399 -0.1958
  959MOL0     C26505   5.567   8.440   4.938 -0.4526 -0.4302 -0.0107
  959MOL0     N26506   6.052   8.613   4.449 -0.0726 -0.0326 -0.8176
  959MOL0     N26507   6.027   8.632   4.330  0.5909 -0.4193  0.4409
  959MOL0     C26508   6.374   9.304   4.111 -0.7631  0.3766 -0.0272
  959MOL0     C26509   6.518   9.289   4.113 -0.4184  0.7133 -0.0925
  959MOL0     C26510   6.970   9.326   4.246 -0.3582  0.4473 -1.0784
  959MOL0     C26511   7.057   9.363   4.354  1.2045  0.8613  0.0293
  959MOL0     C26512   7.171   9.431   4.328  0.2859 -0.2487  0.1470
  959MOL0     C26513   7.218   9.450   4.201 -0.5125 -0.4334  0.5355
  959MOL0     O26514   7.348   9.490   4.185 -0.2344 -0.2776 -0.2101
  959MOL0     C26515   7.429   9.480   4.070 -0.2161 -0.0409 -0.3649
  959MOL0     C26516   7.421   9.603   3.986 -0.4934 -0.0797  0.7426
  959MOL0     C26517   7.490   9.596   3.849 -1.1167  0.1366 -1.2761
  959MOL0     C26518   7.647   9.583   3.864  0.2896 -0.3606 -0.3985
  959MOL0     C26519   7.731   9.693   3.811 -1.0165 -0.5821 -1.3274
  959MOL0     C26520   7.798   9.786   3.789 -0.6765 -0.1569 -0.3378
  959MOL0     C26521   7.131   9.426   4.094  0.5520 -0.2065 -0.1915
  959MOL0     C26522   7.013   9.363   4.112 -0.2775 -0.5562 -0.0443
  959MOL0     H26523   6.594   9.271   4.436 -0.9495 -1.2612  0.3407
  959MOL0     H26524   6.347   9.275   4.457 -1.2432  4.3558  0.0648
  959MOL0     H26525   6.112   9.262   4.061 -0.5581 -4.1109  1.7152
  959MOL0     H26526   6.070   9.421   4.148  1.8948  0.5766  0.4675
  959MOL0     H26527   5.864   9.286   4.146  1.1220  2.6795 -0.2418
  959MOL0     H26528   5.941   9.281   4.306  3.9629  3.9742 -0.9296
  959MOL0     H26529   6.044   9.080   4.249 -2.6670 -0.4903  2.6257
  959MOL0     H26530   5.987   9.099   4.081  2.4170 -1.0740  1.2796
  959MOL0     H26531   5.842   9.024   4.332 -2.4890 -2.5626  1.4910
  959MOL0     H26532   5.750   9.082   4.192  1.3082 -0.4103 -4.8512
  959MOL0     H26533   5.942   8.845   4.216 -0.0457 -0.0727  1.1426
  959MOL0     H26534   5.842   8.891   4.064 -1.4967 -2.9071 -0.1702
  959MOL0     H26535   5.644   8.881   4.210 -3.0298 -1.2273  4.2063
  959MOL0     H26536   5.739   8.810   4.339 -2.4834 -2.0803 -0.3242
  959MOL0     H26537   5.637   8.617   4.226 -0.1434 -0.9067 -1.4053
  959MOL0     H26538   5.668   8.679   4.064 -0.4833 -0.8056 -0.6812
  959MOL0     H26539   5.916   8.613   4.105 -0.3738 -1.9592 -0.2958
  959MOL0     H26540   5.801   8.484   4.145 -0.2984  0.6958 -2.4261
  959MOL0     H26541   5.758   8.473   4.430 -0.3882 -0.0108  0.0426
  959MOL0     H26542   5.829   8.499   4.675 -0.7392  0.3271 -6.2619
  959MOL0     H26543   5.950   8.634   4.710 -0.9559 -0.2247  1.0975
  959MOL0     H26544   6.127   8.471   4.686  0.2231  1.6552 -1.1884
  959MOL0     H26545   6.011   8.339   4.655  3.3369 -2.8328  2.3531
  959MOL0     H26546   6.108   8.340   4.868  0.8659 -0.0041 -1.3886
  959MOL0     H26547   6.041   8.494   4.916  0.2786  0.2248 -1.9933
  959MOL0     H26548   5.935   8.277   4.993  2.0834 -1.5570 -0.9480
  959MOL0     H26549   5.872   8.243   4.835  5.1764 -2.6137 -0.0623
  959MOL0     H26550   5.729   8.153   5.015  0.6901  1.2981  1.8194
  959MOL0     H26551   5.512   8.071   4.993  1.2998 -0.7570  0.7743
  959MOL0     H26552   5.211   7.845   5.013 -1.4757 -0.1402 -2.7064
  959MOL0     H26553   4.999   7.734   5.070 -1.2565  0.7819  0.3884
  959MOL0     H26554   4.816   7.740   5.322  0.1962 -1.8133 -0.7466
  959MOL0     H26555   4.812   7.658   5.168 -1.2603 -0.1991 -1.5617
  959MOL0     H26556   4.620   7.592   5.277  3.7250 -0.1788 -0.0298
  959MOL0     H26557   4.573   7.676   5.131  2.5738 -5.1853 -0.5926
  959MOL0     H26558   4.511   7.891   5.270 -2.1445  1.4441  1.2401
  959MOL0     H26559   4.550   7.805   5.406 -0.7788  4.2085 -1.7347
  959MOL0     H26560   4.350   7.694   5.199 -0.3983 -1.9257  1.0837
  959MOL0     H26561   4.391   7.630   5.358  0.7757 -0.2512 -0.5914
  959MOL0     H26562   4.254   7.900   5.309  2.3767 -1.5599 -3.2790
  959MOL0     H26563   4.285   7.837   5.464  0.7459  5.2209 -0.1327
  959MOL0     H26564   4.158   7.618   5.361 -1.5775  0.2938 -0.9052
  959MOL0     H26565   4.112   7.741   5.249  0.3080  0.5666  0.0415
  959MOL0     H26566   3.963   7.672   5.431  1.1522 -0.6700 -1.8171
  959MOL0     H26567   4.071   7.775   5.542  0.7009  0.1203  0.3533
  959MOL0     H26568   4.012   7.959   5.370 -0.2944  0.1742  1.0125
  959MOL0     H26569   3.881   7.908   5.479  0.7455  0.6177  0.6278
  959MOL0     H26570   4.824   8.103   5.184  0.1982  0.5655  0.0904
  959MOL0     H26571   5.053   8.219   5.125  0.1062  0.4261  0.7950
  959MOL0     H26572   5.365   8.483   4.948 -0.9984 -0.5726  1.3930
  959MOL0     H26573   5.581   8.544   4.910 -1.1238  0.2051  1.8970
  959MOL0     H26574   6.317   9.314   4.019 -1.5129 -0.9238  0.2711
  959MOL0     H26575   6.565   9.297   4.015  0.5835 -1.5870  0.1426
  959MOL0     H26576   7.044   9.348   4.461  0.4557  3.1463  0.3165
  959MOL0     H26577   7.217   9.465   4.420 -1.6037  0.9000  0.7253
  959MOL0     H26578   7.400   9.395   4.008  0.0989 -0.4776  0.0799
  959MOL0     H26579   7.532   9.457   4.097 -0.5391 -3.1826 -1.4166
  959MOL0     H26580   7.315   9.626   3.974 -0.1327  1.0291 -0.5221
  959MOL0     H26581   7.464   9.685   4.045 -0.5379 -1.2582  2.4971
  959MOL0     H26582   7.458   9.666   3.772 -0.7791 -0.1571 -1.6900
  959MOL0     H26583   7.456   9.504   3.800  2.5813 -1.6039 -0.9707
  959MOL0     H26584   7.675   9.589   3.969 -4.1712  1.4814  0.9200
  959MOL0     H26585   7.674   9.489   3.815 -1.1270 -0.0255 -1.9326
  959MOL0     H26586   7.862   9.864   3.752 -2.5098  1.0284 -1.1024
  959MOL0     H26587   7.160   9.443   3.991  2.8780 -2.3087  0.0129
  959MOL0     H26588   6.941   9.346   4.033 -3.2521 -1.4716  2.6643
  960MOL0     O26589   7.042   8.957   2.479  0.0028 -0.2576 -0.5544
  960MOL0     C26590   7.088   8.940   2.368 -0.3139  0.4525 -0.1111
  960MOL0     O26591   7.022   8.950   2.253  0.1630  0.0240 -0.0823
  960MOL0     C26592   6.888   8.964   2.255  0.7417  0.0344 -0.9683
  960MOL0     C26593   6.832   9.026   2.150 -0.1336  1.4537 -0.6022
  960MOL0     C26594   6.700   9.031   2.124 -0.0989 -0.1622 -0.2068
  960MOL0     C26595   6.606   8.964   2.202  0.2607  0.2160  0.2179
  960MOL0     O26596   6.477   8.968   2.159  0.1969 -0.3308  0.4865
  960MOL0     C26597   6.378   8.937   2.257 -0.2532 -0.3969  0.0508
  960MOL0     C26598   6.247   8.998   2.204  0.0859 -0.0158 -0.8982
  960MOL0     C26599   6.112   8.937   2.260  0.2048  0.1924 -0.0221
  960MOL0     C26600   5.986   9.000   2.203  0.4962  0.0257 -0.2281
  960MOL0     C26601   5.863   8.916   2.241  1.1917  0.9476 -0.4326
  960MOL0     C26602   5.752   9.016   2.281 -0.0253 -0.5658  0.6167
  960MOL0     C26603   5.629   8.936   2.321  0.3690 -0.8206 -0.1548
  960MOL0     C26604   5.530   9.041   2.377 -0.0426  0.2611  0.4218
  960MOL0     N26605   5.396   8.983   2.412 -0.0086  0.7763 -0.2382
  960MOL0     C26606   5.292   9.055   2.451  0.2799 -0.3679 -0.1692
  960MOL0     C26607   5.212   8.965   2.514 -0.1961  0.8326 -0.5614
  960MOL0     C26608   5.080   8.983   2.594  0.2607 -0.5323  0.3733
  960MOL0     C26609   4.958   8.950   2.518  0.0663  0.5457  0.1024
  960MOL0     C26610   4.905   9.049   2.418  0.3345  0.5255 -0.7670
  960MOL0     C26611   4.764   9.017   2.370 -0.5011  0.3070 -0.8506
  960MOL0     O26612   4.668   8.983   2.484  0.1903  0.1073 -0.9687
  960MOL0     C26613   4.530   9.007   2.463 -0.3792 -0.1916 -0.2933
  960MOL0     C26614   4.443   8.970   2.564 -0.4089 -0.3636 -0.4057
  960MOL0     C26615   4.309   9.005   2.570  0.7812  0.5405 -0.0159
  960MOL0     C26616   4.261   9.085   2.470  0.3055  0.3032 -0.3958
  960MOL0     C26617   4.116   9.110   2.470  0.0573  0.9606 -0.1155
  960MOL0     O26618   4.044   9.110   2.584  0.3553 -0.1196 -0.0955
  960MOL0     C26619   3.899   9.117   2.577  0.7965  0.1594 -0.6093
  960MOL0     C26620   3.837   9.166   2.694  0.1197  0.3983 -0.0473
  960MOL0     C26621   3.701   9.188   2.705  0.2667  0.8268  0.4704
  960MOL0     C26622   3.613   9.151   2.600 -1.1614  0.0286  1.0767
  960MOL0     O26623   3.477   9.169   2.600  0.2575  0.6098 -0.6264
  960MOL0     C26624   3.417   9.259   2.690 -0.1593 -0.0321 -0.2118
  960MOL0     C26625   3.278   9.305   2.649 -0.7959  0.2097 -0.1994
  960MOL0     C26626   3.178   9.197   2.671 -0.5120  0.8853  0.7174
  960MOL0     C26627   3.048   9.217   2.589  0.5067  0.6129 -0.4381
  960MOL0     C26628   2.921   9.157   2.653 -0.9222  0.0917 -0.6083
  960MOL0     C26629   2.924   9.003   2.671  0.3101 -0.7050 -0.5331
  960MOL0     C26630   2.945   8.932   2.540  0.5057  0.3023  0.0215
  960MOL0     C26631   2.920   8.780   2.565 -0.6458  0.6840 -0.6340
  960MOL0    Cl26632   2.929   8.693   2.406  0.7071  0.4610 -0.0622
  960MOL0     C26633   3.663   9.105   2.475 -0.9344  0.0815  0.0310
  960MOL0     C26634   3.803   9.092   2.469 -0.5039  0.5257 -0.2180
  960MOL0     O26635   4.076   9.128   2.357 -0.0480  0.3109  0.2769
  960MOL0     C26636   4.347   9.129   2.367  0.0220 -0.9142  0.3785
  960MOL0     C26637   4.480   9.083   2.359  0.4460 -0.0895  0.6164
  960MOL0     N26638   5.274   8.839   2.500 -0.1770  0.3292 -0.4445
  960MOL0     N26639   5.389   8.849   2.450  0.0355 -0.0474  0.0340
  960MOL0     C26640   6.658   8.897   2.316 -0.8634 -0.9026  0.5256
  960MOL0     C26641   6.792   8.898   2.341 -0.0664 -0.2894 -0.6611
  960MOL0     C26642   7.232   8.900   2.376  1.3360  0.2325 -0.1502
  960MOL0     C26643   7.295   8.862   2.258  0.2062  0.4160 -0.4963
  960MOL0     C26644   7.427   8.827   2.266 -0.2747 -0.3789  1.1154
  960MOL0     C26645   7.507   8.840   2.378  0.7948 -0.0590 -0.1460
  960MOL0     O26646   7.632   8.793   2.367  0.8566  0.0806 -0.5867
  960MOL0     C26647   7.720   8.803   2.482 -0.0400 -0.2441 -0.8799
  960MOL0     C26648   7.856   8.747   2.440  0.2274  0.0938  0.7500
  960MOL0     C26649   7.923   8.814   2.320  0.4448 -0.2204  0.5769
  960MOL0     C26650   8.033   8.731   2.259 -0.0996 -0.5205  0.3130
  960MOL0     C26651   8.132   8.710   2.369  0.4800 -0.2487  0.2899
  960MOL0     C26652   8.217   8.681   2.456  0.3831 -1.0501  0.2386
  960MOL0     C26653   7.448   8.894   2.495 -0.0900 -1.1295 -0.0634
  960MOL0     C26654   7.307   8.919   2.488 -0.8842 -0.0875  0.7775
  960MOL0     H26655   6.905   9.073   2.084  0.7625 -1.1593 -1.6069
  960MOL0     H26656   6.668   9.093   2.041  1.5206  2.4550  0.9847
  960MOL0     H26657   6.403   8.994   2.347 -2.8054  0.3789  0.3594
  960MOL0     H26658   6.370   8.830   2.279 -1.3300 -0.7424 -1.7736
  960MOL0     H26659   6.229   8.982   2.097 -2.2933 -0.9600 -0.4425
  960MOL0     H26660   6.245   9.106   2.225 -0.7487 -0.9455  6.1860
  960MOL0     H26661   6.102   8.951   2.368 -5.8425 -0.3822 -0.1951
  960MOL0     H26662   6.114   8.830   2.237  1.5948  0.0335  0.6981
  960MOL0     H26663   5.980   9.101   2.245  1.0620 -0.2251  0.4565
  960MOL0     H26664   5.984   9.018   2.095 -3.5972  0.8600 -0.1746
  960MOL0     H26665   5.897   8.841   2.313  2.0010 -1.6311 -3.2661
  960MOL0     H26666   5.844   8.860   2.149  1.3449  0.4683 -0.1734
  960MOL0     H26667   5.730   9.079   2.195  2.6974  1.3269  1.1822
  960MOL0     H26668   5.790   9.078   2.363  2.8283 -1.7801  0.3363
  960MOL0     H26669   5.578   8.889   2.236 -0.3529 -1.7896  0.7936
  960MOL0     H26670   5.655   8.869   2.403 -0.6195  0.3331  1.1609
  960MOL0     H26671   5.508   9.113   2.298  1.0486  0.0210 -0.1214
  960MOL0     H26672   5.568   9.088   2.468 -3.7518  0.3990  2.0623
  960MOL0     H26673   5.286   9.163   2.453  3.4681 -0.0715 -1.1396
  960MOL0     H26674   5.066   9.081   2.642 -2.0677  1.3707 -3.6831
  960MOL0     H26675   5.082   8.918   2.682  0.9558  0.1426  0.8799
  960MOL0     H26676   4.881   8.932   2.594  1.4966  1.7362  1.9369
  960MOL0     H26677   4.970   8.849   2.478  1.1545  0.0300  1.6175
  960MOL0     H26678   4.918   9.143   2.471 -0.6414  1.5294 -2.2380
  960MOL0     H26679   4.961   9.053   2.324  0.3497 -1.9315 -0.9455
  960MOL0     H26680   4.759   8.925   2.311 -3.7861  0.1577 -0.5150
  960MOL0     H26681   4.730   9.102   2.310  1.4126  0.8839 -1.1965
  960MOL0     H26682   4.479   8.904   2.641  5.1070  3.6343  1.0917
  960MOL0     H26683   4.245   8.960   2.644 -3.2957  1.6609 -2.5499
  960MOL0     H26684   3.894   9.179   2.785 -0.1439 -0.5718  0.2755
  960MOL0     H26685   3.663   9.227   2.799 -0.6963  0.7701  0.1104
  960MOL0     H26686   3.482   9.347   2.699  2.9427 -2.1987  0.3464
  960MOL0     H26687   3.404   9.217   2.790  0.3003  1.4345  0.5045
  960MOL0     H26688   3.276   9.332   2.543 -1.3228 -1.0641 -0.5314
  960MOL0     H26689   3.246   9.395   2.701 -2.4084 -0.3317 -0.1946
  960MOL0     H26690   3.148   9.203   2.776  1.5632  3.6495  1.2469
  960MOL0     H26691   3.226   9.101   2.650  1.2779  1.4886  1.8576
  960MOL0     H26692   3.027   9.324   2.573 -1.2092  0.5924  1.3582
  960MOL0     H26693   3.066   9.180   2.488 -2.4084  0.2568 -0.8996
  960MOL0     H26694   2.835   9.197   2.599 -0.6167  3.0310  0.8470
  960MOL0     H26695   2.908   9.194   2.755 -1.1716 -2.3612  0.3135
  960MOL0     H26696   2.832   8.956   2.706 -1.0775  2.0134 -0.2328
  960MOL0     H26697   2.997   8.976   2.748 -1.8824 -0.5734  1.7366
  960MOL0     H26698   2.862   8.954   2.473  2.0336  0.8147 -1.8062
  960MOL0     H26699   3.036   8.962   2.486  0.2258  4.0195  1.3732
  960MOL0     H26700   2.819   8.757   2.601 -0.0628  3.3053  3.2962
  960MOL0     H26701   3.001   8.746   2.630  0.9542  0.6100 -2.5534
  960MOL0     H26702   3.589   9.083   2.399 -1.5662  4.8278 -1.0177
  960MOL0     H26703   3.843   9.051   2.376  3.3632  2.1025  0.5426
  960MOL0     H26704   4.301   9.188   2.289  0.0483 -3.6566 -1.8825
  960MOL0     H26705   4.537   9.126   2.277 -1.4237 -0.4072 -0.9190
  960MOL0     H26706   6.583   8.855   2.383 -3.8722 -0.0282 -2.0798
  960MOL0     H26707   6.821   8.845   2.431  1.5207  1.7163  0.0905
  960MOL0     H26708   7.246   8.861   2.161  0.3455  0.0638 -0.5627
  960MOL0     H26709   7.470   8.794   2.172 -3.6828  0.7748 -1.0392
  960MOL0     H26710   7.689   8.742   2.567 -1.0150 -0.0459 -1.0865
  960MOL0     H26711   7.738   8.904   2.518  0.3163 -1.0248  1.3046
  960MOL0     H26712   7.920   8.755   2.529 -0.9831  3.6313  1.4433
  960MOL0     H26713   7.841   8.645   2.403 -2.8226  0.0806  1.7390
  960MOL0     H26714   7.978   8.904   2.348 -0.8615  0.7423  0.0995
  960MOL0     H26715   7.854   8.837   2.239 -0.2197 -2.1588  0.5310
  960MOL0     H26716   7.998   8.636   2.217 -3.3842  1.5793 -2.2066
  960MOL0     H26717   8.080   8.794   2.183 -0.5811  2.1822  2.1234
  960MOL0     H26718   8.296   8.661   2.526  0.0328 -1.0279  0.6474
  960MOL0     H26719   7.501   8.911   2.588  0.4374  1.6362 -0.7546
  960MOL0     H26720   7.268   8.955   2.583  1.1681 -0.2438  1.7325
  961MOL0     O26721   4.308   1.814   1.333  0.5570 -0.6947  0.3099
  961MOL0     C26722   4.337   1.914   1.265 -0.2804 -0.0703  0.4884
  961MOL0     O26723   4.249   2.005   1.213  0.6311  0.3111 -0.4351
  961MOL0     C26724   4.114   1.981   1.226  0.1354  0.3341 -0.6927
  961MOL0     C26725   4.033   1.945   1.127  0.1112  0.3636 -0.0138
  961MOL0     C26726   3.900   1.904   1.157 -0.4512 -0.2960  0.3302
  961MOL0     C26727   3.845   1.901   1.291  0.2257  0.6983  0.3158
  961MOL0     O26728   3.723   1.870   1.338 -0.6551  0.2939 -0.6605
  961MOL0     C26729   3.621   1.824   1.242 -0.5843  0.2700  0.3082
  961MOL0     C26730   3.505   1.763   1.324 -0.7681  0.2686  0.2679
  961MOL0     C26731   3.378   1.757   1.236 -0.0454 -0.3524 -0.8222
  961MOL0     C26732   3.270   1.694   1.322 -0.4737  0.8310  0.2563
  961MOL0     C26733   3.129   1.751   1.285  0.0468  0.3598  0.5410
  961MOL0     C26734   3.014   1.684   1.351  0.0993 -0.6129 -0.0848
  961MOL0     C26735   2.891   1.773   1.393  0.1893 -1.4493  0.1115
  961MOL0     C26736   2.911   1.862   1.515 -0.0958 -0.0181  0.6310
  961MOL0     N26737   2.789   1.945   1.537 -0.5732 -0.7045  0.7507
  961MOL0     C26738   2.701   1.926   1.637  0.3396 -0.2370 -0.1004
  961MOL0     C26739   2.609   2.025   1.618 -0.3710  0.1554 -0.3938
  961MOL0     C26740   2.481   2.038   1.684  0.6253  0.0659  0.3689
  961MOL0     C26741   2.358   1.973   1.615  0.1441 -0.2811 -0.2325
  961MOL0     C26742   2.227   2.005   1.697 -0.1663 -0.8104 -0.8958
  961MOL0     C26743   2.100   1.922   1.668 -0.6286  0.3968 -0.2648
  961MOL0     O26744   2.065   1.927   1.530 -0.4626  0.1138 -0.2937
  961MOL0     C26745   2.003   2.043   1.476 -0.3475 -0.0152 -0.4990
  961MOL0     C26746   1.958   2.152   1.548  0.6558 -0.5055 -0.0001
  961MOL0     C26747   1.879   2.250   1.486 -0.3940 -0.8304 -0.5792
  961MOL0     C26748   1.858   2.249   1.347  0.1842 -0.2463  0.6273
  961MOL0     C26749   1.781   2.355   1.274 -0.1402 -0.0782  0.2035
  961MOL0     O26750   1.710   2.441   1.346  0.2441  0.2486 -0.1096
  961MOL0     C26751   1.611   2.518   1.286 -0.7341 -0.8795  0.7189
  961MOL0     C26752   1.490   2.538   1.343  0.2794  0.5277 -0.2388
  961MOL0     C26753   1.392   2.620   1.288  0.4645  0.5723  0.7406
  961MOL0     C26754   1.421   2.683   1.172 -0.3474 -0.5332 -0.0113
  961MOL0     O26755   1.324   2.761   1.111  0.0700 -0.4362  0.1506
  961MOL0     C26756   1.354   2.899   1.086 -0.8772 -0.0845 -0.4642
  961MOL0     C26757   1.226   2.974   1.069 -0.6365 -0.6178 -0.1115
  961MOL0     C26758   1.253   3.125   1.096  0.6039  0.2620  0.5757
  961MOL0     C26759   1.136   3.211   1.047 -0.4304  0.1550  0.7977
  961MOL0     C26760   1.134   3.355   1.096  0.3047  0.4465  0.3872
  961MOL0     C26761   1.048   3.440   1.003 -0.5676 -0.4570 -0.3527
  961MOL0     C26762   0.904   3.412   1.015 -0.1287 -0.0650 -0.0493
  961MOL0     C26763   0.820   3.511   0.925 -0.0506  0.5836 -0.0151
  961MOL0    Cl26764   0.770   3.651   1.017 -0.1600  0.1565  0.4685
  961MOL0     C26765   1.544   2.676   1.112 -0.0676  0.0461 -0.0191
  961MOL0     C26766   1.645   2.599   1.179  0.3625  0.2280  0.2370
  961MOL0     O26767   1.778   2.340   1.149  0.0487 -0.6385 -0.5790
  961MOL0     C26768   1.912   2.140   1.273  0.3043 -0.1526 -0.7442
  961MOL0     C26769   1.990   2.040   1.340  0.9639  1.0369  0.4822
  961MOL0     N26770   2.645   2.106   1.519  0.5325 -0.2405  0.2271
  961MOL0     N26771   2.751   2.057   1.467  0.1222  0.7651 -0.4245
  961MOL0     C26772   3.930   1.950   1.400  0.3613 -0.4066  0.8035
  961MOL0     C26773   4.064   1.993   1.360  0.2488  0.4560 -0.0546
  961MOL0     C26774   4.481   1.944   1.258 -0.2743 -0.7859  0.5259
  961MOL0     C26775   4.579   1.843   1.281  0.6571  0.3496  0.0738
  961MOL0     C26776   4.718   1.877   1.272 -0.4227  0.2251  0.6440
  961MOL0     C26777   4.758   1.996   1.211 -0.2594  0.3633  0.1171
  961MOL0     O26778   4.888   1.993   1.180  0.4739 -0.1222  0.6062
  961MOL0     C26779   4.924   2.086   1.079  1.3233 -0.1256 -0.7806
  961MOL0     C26780   5.064   2.066   1.031 -0.8438  0.6063 -0.4995
  961MOL0     C26781   5.163   2.083   1.142 -0.0106  0.3066  0.1730
  961MOL0     C26782   5.300   2.027   1.091 -0.1170  0.2668 -0.0661
  961MOL0     C26783   5.407   2.086   1.166  0.1636 -1.1712  0.0160
  961MOL0     C26784   5.488   2.149   1.222 -1.0097 -0.9061 -0.1219
  961MOL0     C26785   4.668   2.092   1.179  0.4934  0.3033 -0.1238
  961MOL0     C26786   4.532   2.061   1.195 -0.2115 -0.3201 -0.2165
  961MOL0     H26787   4.071   1.941   1.025 -0.2720  0.3381 -0.1575
  961MOL0     H26788   3.844   1.864   1.074  2.3048  1.2734 -2.5098
  961MOL0     H26789   3.657   1.751   1.168 -0.4287  0.1983  0.4554
  961MOL0     H26790   3.595   1.906   1.175  0.5785 -1.2340 -2.1249
  961MOL0     H26791   3.485   1.822   1.414  0.6097 -2.4435  2.5224
  961MOL0     H26792   3.523   1.665   1.368 -1.6800  0.4287  1.0495
  961MOL0     H26793   3.392   1.679   1.161  3.1024  0.9880 -1.7954
  961MOL0     H26794   3.343   1.855   1.202 -0.5035 -0.2065  0.0469
  961MOL0     H26795   3.280   1.587   1.305 -0.5632  1.0157 -1.1194
  961MOL0     H26796   3.293   1.723   1.425  1.1143  0.8026 -0.0703
  961MOL0     H26797   3.121   1.766   1.177  0.4099  1.3460  0.6462
  961MOL0     H26798   3.130   1.857   1.311 -0.2936  0.4154  0.3377
  961MOL0     H26799   3.058   1.633   1.438  0.6722  0.6216  0.3778
  961MOL0     H26800   2.966   1.610   1.286 -0.5485  0.5866 -1.0047
  961MOL0     H26801   2.870   1.844   1.313  0.5250  1.7103  2.6011
  961MOL0     H26802   2.807   1.709   1.419 -0.5922  0.3486  2.3333
  961MOL0     H26803   2.985   1.937   1.487 -2.6319  2.3050 -0.2649
  961MOL0     H26804   2.946   1.801   1.599 -3.2671 -0.2739  1.8717
  961MOL0     H26805   2.695   1.845   1.709 -1.3943 -0.1370 -0.0975
  961MOL0     H26806   2.466   2.145   1.702 -2.8991 -0.1007 -0.8104
  961MOL0     H26807   2.488   1.984   1.779 -0.0147 -0.7982 -0.0582
  961MOL0     H26808   2.386   1.868   1.611  1.8726  0.0716 -5.7734
  961MOL0     H26809   2.361   1.997   1.509 -5.3619 -3.1187 -1.3536
  961MOL0     H26810   2.247   1.982   1.802 -1.3286 -0.9834 -0.7045
  961MOL0     H26811   2.206   2.112   1.689  0.5452 -0.4657  1.2510
  961MOL0     H26812   2.019   1.966   1.727 -0.9270  0.3741 -0.6507
  961MOL0     H26813   2.107   1.815   1.688 -0.7489  0.3630 -0.3971
  961MOL0     H26814   1.979   2.150   1.654 -0.2006 -2.4447  0.1785
  961MOL0     H26815   1.839   2.325   1.553 -1.6248  2.4407 -4.5376
  961MOL0     H26816   1.473   2.475   1.430  0.3808  0.9340  0.0774
  961MOL0     H26817   1.290   2.623   1.324  0.2577  0.1880  0.2117
  961MOL0     H26818   1.416   2.915   0.997 -1.5337 -1.6964 -1.2430
  961MOL0     H26819   1.419   2.939   1.165  0.9031 -1.2127 -1.2809
  961MOL0     H26820   1.153   2.942   1.144 -0.7445 -0.4278 -0.1369
  961MOL0     H26821   1.179   2.963   0.972 -0.4387  0.6517 -0.3657
  961MOL0     H26822   1.344   3.154   1.044  1.0796 -2.3163 -0.1479
  961MOL0     H26823   1.282   3.132   1.202  0.9899  0.0911  0.4815
  961MOL0     H26824   1.158   3.224   0.941  0.9653 -1.5043  0.8518
  961MOL0     H26825   1.038   3.162   1.057 -0.7365 -0.3318 -3.2233
  961MOL0     H26826   1.233   3.399   1.087  1.0661 -1.3654 -0.4854
  961MOL0     H26827   1.116   3.358   1.204 -0.9822  0.0696  0.2020
  961MOL0     H26828   1.070   3.432   0.896 -0.4375  2.8339 -0.6517
  961MOL0     H26829   1.077   3.543   1.026 -0.5236 -0.2389 -1.3559
  961MOL0     H26830   0.888   3.307   0.989  2.0430 -1.1471  2.4933
  961MOL0     H26831   0.878   3.410   1.122 -0.6970 -1.3951 -0.1907
  961MOL0     H26832   0.729   3.462   0.890 -1.3483  3.3115 -0.7816
  961MOL0     H26833   0.883   3.541   0.840 -1.9558  0.0683 -1.7068
  961MOL0     H26834   1.568   2.733   1.022 -0.3916 -1.2703 -0.9657
  961MOL0     H26835   1.743   2.601   1.132  0.2628  0.7810  0.0436
  961MOL0     H26836   1.907   2.135   1.165 -1.0000 -2.8785 -0.6382
  961MOL0     H26837   2.029   1.956   1.284 -2.6815  0.7712 -1.9899
  961MOL0     H26838   3.897   1.972   1.501  1.1183  1.3776  0.6862
  961MOL0     H26839   4.129   2.034   1.437  0.2194 -1.8400  1.2692
  961MOL0     H26840   4.557   1.739   1.306 -1.2791 -0.1767 -3.2750
  961MOL0     H26841   4.798   1.806   1.290 -1.3315 -1.7328 -2.2420
  961MOL0     H26842   4.915   2.191   1.109 -0.7482 -1.4270  4.2608
  961MOL0     H26843   4.859   2.056   0.997 -0.6384 -1.4473  1.1412
  961MOL0     H26844   5.075   1.963   0.997 -3.7550 -0.2502  0.7963
  961MOL0     H26845   5.086   2.139   0.953 -0.0115 -0.0775 -0.9126
  961MOL0     H26846   5.155   2.015   1.227 -1.7696  0.5823  0.2613
  961MOL0     H26847   5.164   2.185   1.183  0.1176  0.6332 -0.6155
  961MOL0     H26848   5.308   1.918   1.095  1.1139  0.1131 -3.3132
  961MOL0     H26849   5.305   2.043   0.983 -1.2031  0.0300 -0.1612
  961MOL0     H26850   5.562   2.209   1.271 -1.5698 -0.6885  0.4705
  961MOL0     H26851   4.700   2.191   1.147 -0.3488 -0.1133 -2.4063
  961MOL0     H26852   4.466   2.135   1.152  2.4512 -1.1379 -6.9825
  962MOL0     O26853   9.681   2.310   9.905 -0.4988  0.7366  0.2155
  962MOL0     C26854   9.793   2.293   9.864 -0.2018 -0.0916  0.1450
  962MOL0     O26855   9.884   2.203   9.913  0.0318  0.1070  0.1330
  962MOL0     C26856   9.867   2.116  10.014 -0.2551 -0.0718  0.6131
  962MOL0     C26857   9.970   2.024  10.028  0.5023  0.2060 -0.5101
  962MOL0     C26858   9.968   1.931  10.131  0.7020 -0.1486 -0.2044
  962MOL0     C26859   9.849   1.904  10.203  0.6692 -0.3463  0.0772
  962MOL0     O26860   9.843   1.796  10.291  0.8087  0.5130 -0.2964
  962MOL0     C26861   9.737   1.792  10.395  0.6468 -0.0435 -0.0150
  962MOL0     C26862   9.754   1.688  10.510 -0.2586 -0.2417 -0.1594
  962MOL0     C26863   9.875   1.716  10.586 -0.3150  0.4158 -0.3566
  962MOL0     C26864   9.896   1.628  10.716 -0.0822 -0.5049 -0.4176
  962MOL0     C26865  10.023   1.660  10.799 -0.4056  0.3188  0.3451
  962MOL0     C26866  10.019   1.793  10.873  0.2269 -0.0665 -0.4688
  962MOL0     C26867  10.166   1.828  10.912  0.6954 -0.5947 -0.2532
  962MOL0     C26868  10.192   1.982  10.904  0.5561 -0.8739 -0.6385
  962MOL0     N26869  10.178   2.029  10.767 -0.5387 -0.3979 -0.1575
  962MOL0     C26870  10.238   1.967  10.654  0.9350 -0.2847 -0.5386
  962MOL0     C26871  10.184   2.037  10.545  0.2064  0.1069 -0.7221
  962MOL0     C26872  10.194   2.012  10.398 -0.0554 -0.6459 -0.1776
  962MOL0     C26873  10.344   2.040  10.388 -0.5279  0.0218  0.4807
  962MOL0     C26874  10.366   2.013  10.243 -0.5404  0.0816 -1.2809
  962MOL0     C26875  10.514   2.001  10.199 -0.9045 -0.4558  0.0021
  962MOL0     O26876  10.584   2.120  10.234  0.2201 -0.2746  0.0571
  962MOL0     C26877  10.722   2.136  10.198 -0.3720  0.1090 -0.0392
  962MOL0     C26878  10.792   2.248  10.238  0.3197  0.6593 -0.8233
  962MOL0     C26879  10.922   2.282  10.188 -1.6475  0.6880 -0.8331
  962MOL0     C26880  10.997   2.191  10.099 -0.6324 -1.1978  0.9745
  962MOL0     C26881  11.137   2.216  10.060 -0.4081  0.8332  0.2709
  962MOL0     O26882  11.195   2.308  10.139  0.8880  0.3888 -0.2343
  962MOL0     C26883  11.330   2.337  10.146  0.2738 -0.1190 -0.0752
  962MOL0     C26884  11.382   2.342  10.276  0.1304 -0.2064  0.1652
  962MOL0     C26885  11.520   2.371  10.292  0.3049  0.5234 -0.0377
  962MOL0     C26886  11.608   2.404  10.183 -0.1131  0.4622 -0.9160
  962MOL0     O26887  11.743   2.421  10.185 -0.7617 -0.1927  0.0947
  962MOL0     C26888  11.805   2.448  10.309  0.7657  0.4409 -0.5443
  962MOL0     C26889  11.921   2.541  10.302  1.3383 -1.1998 -0.1736
  962MOL0     C26890  12.050   2.493  10.248  1.2011  0.1002  0.0715
  962MOL0     C26891  12.182   2.570  10.281  0.0954  0.7940  0.0977
  962MOL0     C26892  12.160   2.711  10.334 -0.4362 -0.4279  0.4618
  962MOL0     C26893  12.294   2.778  10.325 -0.5177 -0.4444  0.8175
  962MOL0     C26894  12.272   2.929  10.304  0.2459  0.2358 -0.2080
  962MOL0     C26895  12.381   3.017  10.348 -0.1461 -0.9706 -0.7612
  962MOL0    Cl26896  12.321   3.066  10.512  0.0458  0.2110 -0.5195
  962MOL0     C26897  11.544   2.422  10.061  0.7612 -0.7429 -0.1537
  962MOL0     C26898  11.407   2.385  10.038  0.2285  0.4424  0.3603
  962MOL0     O26899  11.194   2.138   9.985 -0.2127  0.7288  0.6377
  962MOL0     C26900  10.929   2.076  10.065 -0.3131  0.3901 -0.0970
  962MOL0     C26901  10.790   2.044  10.115 -0.9319  0.1630  1.0527
  962MOL0     N26902  10.093   2.124  10.599 -0.0724 -0.0374  0.7301
  962MOL0     N26903  10.085   2.121  10.727 -0.5607  0.1517 -1.2401
  962MOL0     C26904   9.741   1.987  10.180  0.2300 -0.3568  1.3967
  962MOL0     C26905   9.749   2.094  10.094 -0.1202 -0.1511  0.1369
  962MOL0     C26906   9.845   2.383   9.756  0.4059 -0.0536 -0.2241
  962MOL0     C26907   9.985   2.404   9.734 -0.4672 -0.2954  0.2109
  962MOL0     C26908  10.032   2.487   9.631  0.4962  0.1796  0.7542
  962MOL0     C26909   9.942   2.542   9.540 -0.7881  0.4871 -0.6957
  962MOL0     O26910   9.990   2.628   9.444  0.1003 -0.1038 -0.3689
  962MOL0     C26911   9.892   2.673   9.352  0.3841 -0.6701  1.2369
  962MOL0     C26912   9.940   2.782   9.257  0.5859  0.2124  0.6618
  962MOL0     C26913  10.014   2.720   9.137 -0.4786 -0.1437 -0.3661
  962MOL0     C26914  10.083   2.828   9.061  0.7164 -0.3650  0.4120
  962MOL0     C26915  10.003   2.894   8.960  1.0648 -0.2683  0.6411
  962MOL0     C26916   9.936   2.945   8.870 -0.3485 -0.5004 -1.3535
  962MOL0     C26917   9.807   2.502   9.550 -0.3942 -0.1753 -0.8153
  962MOL0     C26918   9.754   2.430   9.659  0.2959 -0.2943  0.9175
  962MOL0     H26919  10.058   2.031   9.964  1.7139 -0.8770  0.9818
  962MOL0     H26920  10.047   1.860  10.155  0.2880 -0.6806 -0.3844
  962MOL0     H26921   9.639   1.768  10.353  0.3517  0.8094  0.1655
  962MOL0     H26922   9.740   1.894  10.435  0.5312  0.7905 -2.0335
  962MOL0     H26923   9.757   1.586  10.470  0.0030  0.1712 -1.2323
  962MOL0     H26924   9.668   1.690  10.576  1.0335  0.1991  1.5783
  962MOL0     H26925   9.861   1.819  10.622  2.6805  0.7349  0.1427
  962MOL0     H26926   9.964   1.709  10.523 -0.8462 -0.1677 -1.0554
  962MOL0     H26927   9.812   1.648  10.783  0.3568 -0.8582  0.2427
  962MOL0     H26928   9.883   1.521  10.693  2.3533 -0.4098 -2.6687
  962MOL0     H26929  10.106   1.659  10.727 -0.7642  1.5329 -0.1101
  962MOL0     H26930  10.035   1.583  10.876  0.3640  0.5988  0.5186
  962MOL0     H26931   9.952   1.793  10.959 -1.0562 -0.5070 -1.4303
  962MOL0     H26932   9.978   1.870  10.808  2.7028  1.0741 -0.7723
  962MOL0     H26933  10.179   1.810  11.019 -1.4749  2.0526  0.5790
  962MOL0     H26934  10.234   1.771  10.848  1.9942  0.8646 -0.2326
  962MOL0     H26935  10.295   2.005  10.931  0.1162  0.8754 -0.3206
  962MOL0     H26936  10.125   2.042  10.966  1.3563  0.6294 -1.1802
  962MOL0     H26937  10.305   1.883  10.672  0.7231 -0.1039  1.2766
  962MOL0     H26938  10.125   2.081  10.350 -2.9029 -1.5049  2.4111
  962MOL0     H26939  10.171   1.910  10.366  1.2049 -0.0083 -3.5271
  962MOL0     H26940  10.411   1.967  10.433 -1.3319 -2.4976 -2.0757
  962MOL0     H26941  10.368   2.142  10.420 -1.5623 -0.0632  1.6104
  962MOL0     H26942  10.316   1.920  10.214 -1.7195  0.4886 -0.6232
  962MOL0     H26943  10.322   2.097  10.188 -0.7372  1.7110  1.2341
  962MOL0     H26944  10.519   1.991  10.091  0.6377  2.2141 -0.2638
  962MOL0     H26945  10.559   1.909  10.239  0.0622  0.8010  2.0427
  962MOL0     H26946  10.748   2.324  10.302 -1.5412 -0.8358 -0.2281
  962MOL0     H26947  10.973   2.373  10.216  1.6759 -1.9679  2.8738
  962MOL0     H26948  11.316   2.319  10.359  1.5006  1.4517  1.8041
  962MOL0     H26949  11.562   2.375  10.392  2.3917 -1.7393 -0.7330
  962MOL0     H26950  11.849   2.359  10.354  1.4326  1.2791  0.5099
  962MOL0     H26951  11.735   2.487  10.384 -1.2807 -1.4055 -1.3962
  962MOL0     H26952  11.943   2.555  10.408  0.8723  0.9104 -0.3099
  962MOL0     H26953  11.892   2.630  10.245  0.2781 -0.9181  0.7717
  962MOL0     H26954  12.037   2.490  10.139  0.7420 -1.3766  0.1522
  962MOL0     H26955  12.071   2.390  10.277  3.9021  0.9761  1.5595
  962MOL0     H26956  12.228   2.512  10.362 -0.8945  0.4354  0.4144
  962MOL0     H26957  12.236   2.561  10.186 -0.5792  0.2105 -0.2399
  962MOL0     H26958  12.108   2.716  10.429  2.3669  0.9965  2.0460
  962MOL0     H26959  12.097   2.766  10.263 -0.4825 -0.2695  0.6264
  962MOL0     H26960  12.356   2.741  10.242  2.2828  3.1452  1.0652
  962MOL0     H26961  12.364   2.751  10.404  1.9440  1.1906 -0.6564
  962MOL0     H26962  12.257   2.941  10.197 -4.5561  1.1275  0.3441
  962MOL0     H26963  12.178   2.949  10.356 -1.4373 -0.3975 -2.8421
  962MOL0     H26964  12.410   3.095  10.276 -1.0720 -0.4175 -0.5576
  962MOL0     H26965  12.479   2.969  10.355  0.4544 -0.1035 -2.5083
  962MOL0     H26966  11.619   2.443   9.985  2.7190 -0.2407  1.7828
  962MOL0     H26967  11.360   2.404   9.941  1.0107  2.8191  0.3765
  962MOL0     H26968  10.984   2.011   9.999  0.6508  2.3071 -1.2885
  962MOL0     H26969  10.734   1.956  10.083 -1.1438  0.9836 -0.9755
  962MOL0     H26970   9.643   1.969  10.224  0.7319 -2.4141  1.7802
  962MOL0     H26971   9.666   2.163  10.088  0.2853  0.4487  1.2091
  962MOL0     H26972  10.048   2.370   9.815 -1.9466 -1.2939  1.0118
  962MOL0     H26973  10.139   2.504   9.629  0.7801 -1.5458  0.0876
  962MOL0     H26974   9.800   2.706   9.400 -0.7709 -1.1586 -0.5483
  962MOL0     H26975   9.852   2.593   9.289  1.1623 -0.2074  0.1160
  962MOL0     H26976   9.850   2.834   9.223  2.0310  1.4694 -1.4197
  962MOL0     H26977  10.001   2.849   9.319 -0.4084  1.7647  0.0181
  962MOL0     H26978   9.941   2.668   9.074 -0.6350  1.2368 -1.3668
  962MOL0     H26979  10.085   2.644   9.169 -2.6418 -0.9406  3.0184
  962MOL0     H26980  10.112   2.912   9.125 -1.7606  2.4419 -1.8648
  962MOL0     H26981  10.168   2.787   9.005  1.2591 -0.3864  1.2337
  962MOL0     H26982   9.885   2.986   8.785 -0.0482  2.0103 -0.4005
  962MOL0     H26983   9.736   2.514   9.469 -2.2556 -1.0095  0.6228
  962MOL0     H26984   9.648   2.407   9.665  0.3735 -1.4261 -1.3017
  963MOL0     O26985   7.547   4.865   2.550  0.2796  0.4382 -0.1338
  963MOL0     C26986   7.572   4.825   2.432 -0.7266  0.1005 -0.1997
  963MOL0     O26987   7.482   4.767   2.342  0.0525 -0.7352  0.3143
  963MOL0     C26988   7.347   4.745   2.375 -0.2143  0.7830  0.6780
  963MOL0     C26989   7.252   4.792   2.294  0.5225 -0.3847 -0.1510
  963MOL0     C26990   7.120   4.756   2.307 -0.3741  0.1311 -1.0941
  963MOL0     C26991   7.078   4.672   2.406 -0.3291 -0.1898  0.8487
  963MOL0     O26992   6.945   4.646   2.408  0.9407  0.1456 -0.7835
  963MOL0     C26993   6.892   4.532   2.479 -0.2949 -0.0323  0.0418
  963MOL0     C26994   6.743   4.541   2.470 -0.9191 -0.2206 -0.0770
  963MOL0     C26995   6.656   4.431   2.528 -0.1143 -0.7989 -0.4922
  963MOL0     C26996   6.700   4.408   2.673  0.1467  0.3432  0.4498
  963MOL0     C26997   6.602   4.314   2.749 -0.1308  1.0404 -0.2226
  963MOL0     C26998   6.493   4.406   2.802 -0.6845  0.3742  0.1594
  963MOL0     C26999   6.398   4.331   2.902 -0.0586  0.1652  0.4029
  963MOL0     C27000   6.270   4.287   2.829  0.0078 -0.5722 -0.1346
  963MOL0     N27001   6.201   4.179   2.906  0.9382 -0.2553 -0.6400
  963MOL0     C27002   6.128   4.190   3.017 -0.1990 -0.1113 -0.1757
  963MOL0     C27003   6.106   4.060   3.061 -1.1766  0.1215  0.5534
  963MOL0     C27004   6.041   4.047   3.200 -0.0475  0.4312  0.3187
  963MOL0     C27005   5.895   4.026   3.187  0.2471 -0.0663 -0.4642
  963MOL0     C27006   5.852   3.906   3.110 -0.4096  0.2430 -0.5503
  963MOL0     C27007   5.702   3.882   3.120  0.1396 -0.4272 -0.5997
  963MOL0     O27008   5.646   3.990   3.045 -0.5294 -0.2133 -0.4790
  963MOL0     C27009   5.516   4.004   3.063  0.2867  0.3813 -0.2194
  963MOL0     C27010   5.443   3.988   3.186  0.2966  0.7272  0.4095
  963MOL0     C27011   5.307   3.994   3.193 -1.6176 -0.1777  0.5035
  963MOL0     C27012   5.230   4.009   3.073 -0.0519  0.0303 -0.9352
  963MOL0     C27013   5.087   4.020   3.068 -0.4334  0.5519 -1.2944
  963MOL0     O27014   5.035   4.047   2.941  0.8924 -0.0967  0.4577
  963MOL0     C27015   4.908   4.099   2.940  0.2291 -0.1856  0.4235
  963MOL0     C27016   4.900   4.240   2.918  0.5092  0.0431 -0.0810
  963MOL0     C27017   4.772   4.294   2.904 -0.0118  0.5003  0.7462
  963MOL0     C27018   4.658   4.220   2.906  0.0521  0.0684 -0.5592
  963MOL0     O27019   4.533   4.272   2.886  1.0391 -0.6308 -0.1535
  963MOL0     C27020   4.520   4.337   2.759 -0.4621  0.1725 -0.2902
  963MOL0     C27021   4.368   4.342   2.720 -0.1035  0.4440  0.0433
  963MOL0     C27022   4.346   4.422   2.590  0.6327  0.1160 -0.0761
  963MOL0     C27023   4.208   4.378   2.535  0.4918 -0.0683  0.2687
  963MOL0     C27024   4.160   4.431   2.397 -0.5175  0.0380 -0.2720
  963MOL0     C27025   4.166   4.577   2.372 -0.7728  0.4817 -0.1706
  963MOL0     C27026   4.068   4.645   2.457 -0.5274 -0.2171  0.6244
  963MOL0     C27027   3.913   4.631   2.425 -0.1310 -0.4936  0.5898
  963MOL0    Cl27028   3.866   4.683   2.257 -0.1544  0.1256 -0.4883
  963MOL0     C27029   4.665   4.082   2.940 -0.0374  0.3703  0.5374
  963MOL0     C27030   4.795   4.026   2.944 -0.3470  0.4180 -0.1912
  963MOL0     O27031   5.024   4.020   3.177  0.6396 -0.3473  0.3443
  963MOL0     C27032   5.307   4.032   2.956  0.0019  0.4938 -0.3742
  963MOL0     C27033   5.439   4.032   2.944 -0.0714 -0.4717 -0.3832
  963MOL0     N27034   6.168   3.973   2.968  0.1000  0.2359 -0.3214
  963MOL0     N27035   6.222   4.047   2.885  0.3829  0.1490  0.5652
  963MOL0     C27036   7.177   4.618   2.486 -0.1289  0.3619 -0.5804
  963MOL0     C27037   7.310   4.655   2.475  0.3167  0.2338 -0.0652
  963MOL0     C27038   7.715   4.833   2.386 -0.1747  0.0410 -0.3358
  963MOL0     C27039   7.814   4.897   2.465 -0.7097 -0.3192 -0.1929
  963MOL0     C27040   7.955   4.906   2.424  0.8486 -0.1605 -0.0286
  963MOL0     C27041   7.990   4.860   2.302  0.0093  0.1676  0.5828
  963MOL0     O27042   8.126   4.881   2.275 -0.0581 -0.1663 -0.2167
  963MOL0     C27043   8.178   4.781   2.191  0.1965 -0.1118  0.1584
  963MOL0     C27044   8.324   4.820   2.161 -0.6148  0.1760 -0.0075
  963MOL0     C27045   8.397   4.737   2.056  0.4899  0.8006 -0.0140
  963MOL0     C27046   8.536   4.783   2.030  0.0744 -0.7582 -0.1379
  963MOL0     C27047   8.527   4.908   1.956  0.0026 -0.1697  0.8938
  963MOL0     C27048   8.506   5.003   1.891 -0.3803 -0.0212 -0.0086
  963MOL0     C27049   7.881   4.796   2.221  0.0370 -0.4807  0.5233
  963MOL0     C27050   7.753   4.779   2.264  0.7032  0.2211 -0.4088
  963MOL0     H27051   7.279   4.856   2.211 -4.0568  0.9017 -0.9479
  963MOL0     H27052   7.043   4.802   2.246 -1.9391  0.4718  0.9926
  963MOL0     H27053   6.926   4.547   2.582  0.3452  2.9375 -0.4895
  963MOL0     H27054   6.934   4.438   2.443  0.2311 -0.6061  2.0213
  963MOL0     H27055   6.725   4.549   2.362  2.1323 -2.0893 -0.8611
  963MOL0     H27056   6.718   4.633   2.523 -1.1392  0.1106 -0.7385
  963MOL0     H27057   6.649   4.338   2.471 -3.0928 -0.4939 -0.7700
  963MOL0     H27058   6.558   4.479   2.537  1.0287  1.9756 -1.5601
  963MOL0     H27059   6.798   4.362   2.659  0.2971  0.3605  1.4050
  963MOL0     H27060   6.704   4.509   2.714 -0.4646  1.2072 -1.4710
  963MOL0     H27061   6.649   4.270   2.837  2.2551  2.0923 -0.8772
  963MOL0     H27062   6.552   4.234   2.694  1.8974 -0.2974 -0.2399
  963MOL0     H27063   6.433   4.440   2.718 -0.8083 -2.2644 -0.9251
  963MOL0     H27064   6.536   4.496   2.847  1.9030  0.2554 -1.8309
  963MOL0     H27065   6.446   4.245   2.951  0.0751 -0.3959 -0.6947
  963MOL0     H27066   6.360   4.388   2.988 -1.1171  0.2997 -0.1460
  963MOL0     H27067   6.289   4.240   2.732  1.5756 -0.1517 -0.0633
  963MOL0     H27068   6.195   4.366   2.824  0.9473  0.2798 -1.5229
  963MOL0     H27069   6.099   4.280   3.070  0.2119 -0.1426  0.1070
  963MOL0     H27070   6.048   4.141   3.256  2.2895 -1.7840  4.1599
  963MOL0     H27071   6.082   3.958   3.247  1.6829  0.9419 -0.1396
  963MOL0     H27072   5.857   4.119   3.144 -0.4546  1.1337  2.5319
  963MOL0     H27073   5.843   4.016   3.282 -3.2505 -2.2239 -2.3453
  963MOL0     H27074   5.879   3.923   3.005 -1.1842 -1.8156 -1.1502
  963MOL0     H27075   5.903   3.810   3.128  1.8050  0.8171 -3.0487
  963MOL0     H27076   5.678   3.883   3.227 -1.2778  1.4270 -0.8817
  963MOL0     H27077   5.666   3.785   3.084  0.7159 -1.0712  0.5238
  963MOL0     H27078   5.493   3.968   3.280  1.3165 -0.7133 -0.4102
  963MOL0     H27079   5.255   3.988   3.289 -0.8896 -1.2411  0.8496
  963MOL0     H27080   4.984   4.309   2.913 -0.9914  2.0625  1.0577
  963MOL0     H27081   4.758   4.398   2.875  3.3425  0.6145 -0.9346
  963MOL0     H27082   4.585   4.287   2.686 -1.1514 -0.6654 -0.3467
  963MOL0     H27083   4.540   4.442   2.778  2.0283 -0.2488 -0.2437
  963MOL0     H27084   4.310   4.388   2.801  0.6073  0.6030  0.4757
  963MOL0     H27085   4.335   4.239   2.708 -0.6512 -0.0358  4.2615
  963MOL0     H27086   4.421   4.395   2.515 -1.9794 -1.3058 -2.3293
  963MOL0     H27087   4.359   4.530   2.604  2.0882  0.2799 -2.1321
  963MOL0     H27088   4.238   4.273   2.523  1.9827  0.2803  0.8604
  963MOL0     H27089   4.120   4.394   2.598 -0.8324 -0.4069 -1.4083
  963MOL0     H27090   4.065   4.381   2.374 -0.6761  0.5887 -0.8559
  963MOL0     H27091   4.236   4.383   2.336 -0.0933  1.2855 -0.7565
  963MOL0     H27092   4.141   4.581   2.265  0.8210 -3.7811 -0.8909
  963MOL0     H27093   4.267   4.615   2.388 -1.2992  2.8909 -1.9333
  963MOL0     H27094   4.085   4.626   2.563  0.1213  0.2504  0.6051
  963MOL0     H27095   4.094   4.751   2.455  3.6731 -1.1027 -0.7357
  963MOL0     H27096   3.856   4.700   2.488  0.1387 -0.1681  0.4772
  963MOL0     H27097   3.873   4.530   2.441 -0.8822 -0.3926 -0.4996
  963MOL0     H27098   4.572   4.026   2.950 -0.7007  0.9350 -1.8299
  963MOL0     H27099   4.793   3.920   2.966 -0.7679  0.4970  0.1675
  963MOL0     H27100   5.264   4.048   2.857 -0.6192 -2.0965 -0.6035
  963MOL0     H27101   5.495   4.030   2.851 -0.7789  1.1555 -0.8803
  963MOL0     H27102   7.151   4.560   2.574  2.9764  0.7116  0.6828
  963MOL0     H27103   7.385   4.623   2.546 -0.6457 -1.4711  0.2410
  963MOL0     H27104   7.782   4.928   2.564  0.0474 -0.0504 -0.0259
  963MOL0     H27105   8.027   4.929   2.502 -0.1245  2.7518  0.1373
  963MOL0     H27106   8.120   4.763   2.100 -0.0820  2.8002 -0.3412
  963MOL0     H27107   8.180   4.681   2.235  0.0172 -1.8228 -3.4048
  963MOL0     H27108   8.330   4.925   2.130  1.7015  1.5997  4.4159
  963MOL0     H27109   8.386   4.819   2.251  0.4312  0.8922 -0.6996
  963MOL0     H27110   8.343   4.725   1.962  1.3434  3.6409 -0.9756
  963MOL0     H27111   8.394   4.632   2.086 -2.2529  0.4937 -1.0445
  963MOL0     H27112   8.595   4.794   2.121 -1.3342 -2.7044  1.0776
  963MOL0     H27113   8.595   4.715   1.967  3.7815  2.1794 -0.2095
  963MOL0     H27114   8.489   5.080   1.817  0.4245  1.6922  1.5244
  963MOL0     H27115   7.906   4.743   2.130  1.1975  1.7038 -0.5124
  963MOL0     H27116   7.673   4.725   2.215  1.6779 -0.6228 -1.1237
  964MOL0     O27117   0.172  11.109   0.153  0.7797  0.5670  0.3131
  964MOL0     C27118   0.137  11.201   0.231  0.2134 -0.2933 -0.3764
  964MOL0     O27119   0.012  11.264   0.234 -0.3461  0.4277 -0.0641
  964MOL0     C27120  -0.097  11.193   0.186  0.4366 -0.2885 -0.3869
  964MOL0     C27121  -0.213  11.264   0.146 -0.1208  0.2500  0.7315
  964MOL0     C27122  -0.324  11.193   0.097  0.6814  0.0333  0.3207
  964MOL0     C27123  -0.310  11.055   0.081  0.8476 -0.2534 -0.0429
  964MOL0     O27124  -0.416  10.985   0.018  0.3291  0.0660 -0.0279
  964MOL0     C27125  -0.494  11.041  -0.095  0.2157  0.0679 -1.1968
  964MOL0     C27126  -0.592  10.929  -0.117 -0.2410  0.6186  0.2531
  964MOL0     C27127  -0.693  10.968  -0.236  0.0533 -0.1068 -1.8828
  964MOL0     C27128  -0.817  10.877  -0.240  0.2545  0.3290  0.2794
  964MOL0     C27129  -0.931  10.933  -0.328  0.9737  0.5556 -0.1058
  964MOL0     C27130  -0.942  10.874  -0.473 -0.6805  0.0352  0.5852
  964MOL0     C27131  -1.030  10.942  -0.574  0.0121  0.2123 -0.6525
  964MOL0     C27132  -0.994  11.091  -0.608 -0.3699 -0.5673 -0.1978
  964MOL0     N27133  -0.869  11.101  -0.692 -0.0246 -0.5792 -0.9961
  964MOL0     C27134  -0.746  11.069  -0.657 -0.0228  0.2413  0.0879
  964MOL0     C27135  -0.680  11.053  -0.778  0.3253  0.4916  0.3686
  964MOL0     C27136  -0.541  11.000  -0.785 -0.9443 -0.2666 -0.0909
  964MOL0     C27137  -0.448  11.079  -0.887  1.1302 -1.1841 -0.0184
  964MOL0     C27138  -0.301  11.062  -0.882  0.1605  0.8885 -0.2685
  964MOL0     C27139  -0.221  11.119  -0.765 -0.3422  0.2559 -0.2889
  964MOL0     O27140  -0.083  11.076  -0.785  0.3312 -0.9280  0.4569
  964MOL0     C27141   0.031  11.139  -0.737  0.6466  0.2568 -0.7963
  964MOL0     C27142   0.015  11.264  -0.671 -0.4132 -0.6233  1.2308
  964MOL0     C27143   0.127  11.323  -0.609 -0.7937  0.4735  0.7818
  964MOL0     C27144   0.255  11.263  -0.620  0.5579 -0.2214 -0.1622
  964MOL0     C27145   0.367  11.337  -0.559 -0.2624 -0.4615  0.2870
  964MOL0     O27146   0.480  11.274  -0.533 -0.8326 -0.3064  0.2747
  964MOL0     C27147   0.594  11.342  -0.510  0.4053 -0.6737 -0.4970
  964MOL0     C27148   0.607  11.459  -0.432  0.0843 -0.6684 -0.2344
  964MOL0     C27149   0.727  11.526  -0.417  0.3621 -0.1264 -0.3761
  964MOL0     C27150   0.840  11.472  -0.482 -0.8274  0.9297 -0.0796
  964MOL0     O27151   0.966  11.525  -0.458 -0.0759  0.3794  0.7303
  964MOL0     C27152   0.971  11.663  -0.458 -0.4914 -0.7970  0.7864
  964MOL0     C27153   1.113  11.717  -0.455 -0.1301 -0.3377 -0.2379
  964MOL0     C27154   1.135  11.863  -0.469  0.1550 -0.1960  0.0204
  964MOL0     C27155   1.277  11.922  -0.435 -0.4862 -0.1034 -0.2812
  964MOL0     C27156   1.395  11.878  -0.528 -1.0344  0.2391 -0.1108
  964MOL0     C27157   1.471  11.747  -0.476  0.9690 -0.3054  0.9244
  964MOL0     C27158   1.544  11.744  -0.346 -0.1575  0.3795  0.2180
  964MOL0     C27159   1.674  11.835  -0.360  1.0624  0.4646 -0.0865
  964MOL0    Cl27160   1.790  11.753  -0.480  0.2919 -0.0123 -0.1794
  964MOL0     C27161   0.835  11.351  -0.549  0.3007  0.0884  1.3508
  964MOL0     C27162   0.709  11.290  -0.567  0.0498  1.0777  1.2563
  964MOL0     O27163   0.340  11.449  -0.517  0.5428  0.2176 -0.0010
  964MOL0     C27164   0.266  11.140  -0.691 -0.5015  0.0508  0.7555
  964MOL0     C27165   0.157  11.081  -0.754  0.5258  0.2140 -0.4079
  964MOL0     N27166  -0.764  11.080  -0.879  0.7073 -0.2918  0.6669
  964MOL0     N27167  -0.878  11.107  -0.825  0.3963  0.1136 -0.8325
  964MOL0     C27168  -0.200  10.982   0.125  0.5128 -0.8891  0.0430
  964MOL0     C27169  -0.092  11.054   0.176 -0.0931 -0.4336 -0.3042
  964MOL0     C27170   0.258  11.250   0.313  0.3990 -0.0523  1.2773
  964MOL0     C27171   0.255  11.371   0.380 -0.6805  0.4800 -0.5965
  964MOL0     C27172   0.362  11.414   0.462  0.1249 -0.2881  0.3645
  964MOL0     C27173   0.479  11.331   0.479  0.2584  0.0253 -0.0214
  964MOL0     O27174   0.583  11.371   0.550 -0.7104 -1.7083 -0.2766
  964MOL0     C27175   0.585  11.495   0.621 -0.1860  0.0511 -0.3958
  964MOL0     C27176   0.734  11.530   0.652  0.9806 -0.5102 -0.6440
  964MOL0     C27177   0.806  11.590   0.531 -0.7260 -0.0012  0.7146
  964MOL0     C27178   0.952  11.648   0.550  0.3953 -0.3560  0.1142
  964MOL0     C27179   0.985  11.757   0.456  1.2286  0.6473 -0.3737
  964MOL0     C27180   1.006  11.821   0.357  0.2325  0.0284  0.8010
  964MOL0     C27181   0.474  11.206   0.420 -0.4492  0.1211  0.6079
  964MOL0     C27182   0.370  11.164   0.333 -0.2356 -0.5761 -0.0884
  964MOL0     H27183  -0.210  11.371   0.163  2.5110  0.5199 -0.8178
  964MOL0     H27184  -0.411  11.251   0.070 -0.6736 -1.7934  0.5724
  964MOL0     H27185  -0.424  11.065  -0.176  1.7816  1.7127  0.5584
  964MOL0     H27186  -0.546  11.134  -0.073  1.8193  0.6652  0.2993
  964MOL0     H27187  -0.653  10.905  -0.030 -1.8203  2.1562 -0.3848
  964MOL0     H27188  -0.536  10.840  -0.149 -2.7332 -0.1335 -2.4260
  964MOL0     H27189  -0.654  10.970  -0.338 -1.3259  1.4397 -2.4254
  964MOL0     H27190  -0.729  11.067  -0.205  2.9921 -0.3245  3.5506
  964MOL0     H27191  -0.793  10.772  -0.261 -0.6910  0.1726 -0.0609
  964MOL0     H27192  -0.851  10.868  -0.137 -1.8337 -3.7287 -0.5396
  964MOL0     H27193  -0.919  11.042  -0.335  1.3715  0.4520 -1.4387
  964MOL0     H27194  -1.032  10.913  -0.293  1.0103  0.4704 -0.0490
  964MOL0     H27195  -0.972  10.769  -0.465 -0.9077  0.2494  4.6123
  964MOL0     H27196  -0.842  10.872  -0.517 -0.7713  2.0537  0.1977
  964MOL0     H27197  -1.047  10.879  -0.662  3.0456 -1.0884 -0.4204
  964MOL0     H27198  -1.130  10.948  -0.529  0.2835  2.1210 -0.2325
  964MOL0     H27199  -0.987  11.140  -0.511 -1.1596 -2.9562  1.1754
  964MOL0     H27200  -1.081  11.130  -0.662 -1.3122 -0.8640  1.0704
  964MOL0     H27201  -0.705  11.056  -0.557  0.9177 -0.9456 -0.4165
  964MOL0     H27202  -0.542  10.895  -0.816  1.3359  0.5813 -3.5558
  964MOL0     H27203  -0.495  11.013  -0.686 -2.2502  0.4813  0.4416
  964MOL0     H27204  -0.471  11.186  -0.874 -0.6234 -1.3722 -1.1990
  964MOL0     H27205  -0.485  11.054  -0.987  3.5593 -0.3435 -1.2038
  964MOL0     H27206  -0.282  10.954  -0.883  0.7288  0.9842 -1.3218
  964MOL0     H27207  -0.270  11.098  -0.980 -1.2641 -1.5985 -1.7670
  964MOL0     H27208  -0.260  11.083  -0.669 -0.1913 -1.1683 -0.7363
  964MOL0     H27209  -0.228  11.228  -0.772 -0.3685  0.1546 -3.2474
  964MOL0     H27210  -0.081  11.315  -0.672  0.4222  1.4911 -3.9955
  964MOL0     H27211   0.115  11.422  -0.566 -1.5165  0.8516 -0.2422
  964MOL0     H27212   0.529  11.488  -0.362 -1.4319 -1.5863 -1.4932
  964MOL0     H27213   0.744  11.612  -0.353 -0.0373  1.2395 -2.0323
  964MOL0     H27214   0.922  11.703  -0.368  1.5699  1.9501  0.8228
  964MOL0     H27215   0.914  11.701  -0.543 -0.1558 -1.6355  0.1806
  964MOL0     H27216   1.180  11.666  -0.525 -0.5022 -1.3001  0.0921
  964MOL0     H27217   1.157  11.683  -0.360  0.4807 -1.6610 -0.9714
  964MOL0     H27218   1.066  11.914  -0.401  1.1213  2.5389 -0.9096
  964MOL0     H27219   1.107  11.903  -0.568 -4.2775 -1.1242  0.6775
  964MOL0     H27220   1.263  12.030  -0.443 -1.4469 -0.1210  0.8790
  964MOL0     H27221   1.295  11.904  -0.328 -0.0467 -0.0345 -0.3433
  964MOL0     H27222   1.470  11.958  -0.524  0.2054 -0.7446 -2.1907
  964MOL0     H27223   1.371  11.873  -0.634 -0.7011 -0.4985 -0.1522
  964MOL0     H27224   1.532  11.724  -0.564  0.6410  2.0704 -0.0221
  964MOL0     H27225   1.396  11.668  -0.465  0.9593 -0.4633 -0.1365
  964MOL0     H27226   1.473  11.775  -0.269 -0.9511  0.5946 -0.5805
  964MOL0     H27227   1.575  11.640  -0.331 -1.4848 -0.2843 -1.2606
  964MOL0     H27228   1.727  11.850  -0.265  1.4924  0.0613 -0.2600
  964MOL0     H27229   1.646  11.934  -0.397  0.8997  0.6449  0.5032
  964MOL0     H27230   0.923  11.305  -0.593 -0.5343 -1.0790  0.8344
  964MOL0     H27231   0.693  11.202  -0.628 -1.2133  1.8730  0.3631
  964MOL0     H27232   0.363  11.093  -0.708 -0.1307  1.2626 -0.7012
  964MOL0     H27233   0.170  10.990  -0.812  0.6861  0.8501 -1.3955
  964MOL0     H27234  -0.182  10.876   0.112  1.7763 -0.6923 -0.0103
  964MOL0     H27235  -0.015  11.000   0.230 -0.3303  3.5451  4.7476
  964MOL0     H27236   0.167  11.434   0.371 -1.3117 -0.0383  1.3231
  964MOL0     H27237   0.349  11.504   0.520 -0.1743 -2.5884  4.2618
  964MOL0     H27238   0.534  11.491   0.717 -1.7847  2.4996 -1.0310
  964MOL0     H27239   0.533  11.579   0.574 -0.6725 -0.3537 -0.5866
  964MOL0     H27240   0.731  11.597   0.739 -2.8413 -0.1499 -0.8733
  964MOL0     H27241   0.800  11.448   0.681  3.9840  1.1352 -2.4477
  964MOL0     H27242   0.745  11.662   0.476  1.1332  0.1394 -1.3175
  964MOL0     H27243   0.820  11.509   0.458 -0.3510  0.4476  0.2806
  964MOL0     H27244   0.955  11.672   0.657  0.5494 -1.3818  0.3471
  964MOL0     H27245   1.033  11.578   0.531  0.4458 -0.1078 -0.6375
  964MOL0     H27246   1.048  11.885   0.282  1.6816 -0.8147  0.8479
  964MOL0     H27247   0.555  11.134   0.431  0.4184  0.9003 -0.4570
  964MOL0     H27248   0.376  11.072   0.276 -2.8112  1.3047 -3.8198
  965MOL0     O27249   2.539  11.256   9.056  0.0134  0.7969 -0.6431
  965MOL0     C27250   2.610  11.165   9.029  1.4091  0.0310 -0.2941
  965MOL0     O27251   2.585  11.038   9.064  1.0298  0.0537 -0.1773
  965MOL0     C27252   2.462  11.022   9.111  1.3738  0.4666 -0.3196
  965MOL0     C27253   2.423  11.037   9.246 -0.1398  0.4628  0.2330
  965MOL0     C27254   2.291  11.004   9.288 -0.0449  0.2575 -0.1383
  965MOL0     C27255   2.194  10.974   9.196  0.1287 -0.2211  0.9690
  965MOL0     O27256   2.064  10.956   9.244 -0.3032 -0.5362 -0.2497
  965MOL0     C27257   1.961  10.995   9.155  0.1817 -0.6780 -0.0917
  965MOL0     C27258   1.838  11.013   9.246  0.4421 -0.8997  0.1159
  965MOL0     C27259   1.713  11.075   9.184 -0.2199  0.0973 -1.0566
  965MOL0     C27260   1.617  10.975   9.119 -1.0067  0.0501  0.1915
  965MOL0     C27261   1.502  11.039   9.050 -0.1696 -0.2612  0.4058
  965MOL0     C27262   1.399  11.120   9.139  0.6573 -0.0171  0.4413
  965MOL0     C27263   1.303  11.206   9.065  0.3753 -0.2058 -0.3076
  965MOL0     C27264   1.189  11.124   8.981 -0.7004 -0.5144 -0.1768
  965MOL0     N27265   1.080  11.223   8.979  0.3681 -0.0929 -0.4222
  965MOL0     C27266   0.980  11.234   9.072 -0.6365 -0.6091  1.0852
  965MOL0     C27267   0.912  11.339   9.025 -0.0299 -0.2386  0.5260
  965MOL0     C27268   0.785  11.403   9.081  0.1196  0.9249  0.4903
  965MOL0     C27269   0.701  11.444   8.960 -0.3614 -0.4689  0.2537
  965MOL0     C27270   0.581  11.526   9.008  0.8425  0.4564 -0.3903
  965MOL0     C27271   0.463  11.514   8.906 -0.0331 -0.1074  0.6119
  965MOL0     O27272   0.352  11.599   8.939  0.3220  0.2170  0.3509
  965MOL0     C27273   0.232  11.539   8.954 -0.0787 -0.5500  0.2560
  965MOL0     C27274   0.167  11.492   8.845  0.1210  0.4281 -0.1480
  965MOL0     C27275   0.031  11.431   8.848 -0.9184  0.6821 -0.1207
  965MOL0     C27276  -0.038  11.442   8.977 -0.0670 -0.4797  0.3019
  965MOL0     C27277  -0.175  11.397   8.991  0.6389 -0.7009  0.4140
  965MOL0     O27278  -0.239  11.372   9.110  0.2615 -0.4254 -0.0059
  965MOL0     C27279  -0.361  11.311   9.113 -0.3627  0.2467 -0.5485
  965MOL0     C27280  -0.398  11.186   9.059  0.4514  0.0581 -0.2829
  965MOL0     C27281  -0.524  11.126   9.077  0.7648  0.0357 -0.9210
  965MOL0     C27282  -0.622  11.185   9.160  0.3898 -0.3191  0.9929
  965MOL0     O27283  -0.743  11.134   9.191  0.4729 -0.5319 -0.1218
  965MOL0     C27284  -0.795  11.023   9.126 -0.0799  0.3567 -0.4106
  965MOL0     C27285  -0.926  10.997   9.194 -0.1992  1.4795 -0.7542
  965MOL0     C27286  -0.911  10.886   9.303  0.3535  0.1541  0.6828
  965MOL0     C27287  -0.833  10.934   9.433  0.3088  0.8415  0.4652
  965MOL0     C27288  -0.865  10.832   9.546 -0.2982  0.0065  0.5679
  965MOL0     C27289  -0.744  10.813   9.643  0.0025 -0.4483  0.2381
  965MOL0     C27290  -0.708  10.952   9.712  0.3648 -0.0407  1.0049
  965MOL0     C27291  -0.572  10.933   9.784  0.2913  0.5517  1.0608
  965MOL0    Cl27292  -0.592  10.815   9.911 -0.1499 -0.1645 -0.0196
  965MOL0     C27293  -0.587  11.311   9.221  0.3475  0.1635 -0.2908
  965MOL0     C27294  -0.457  11.362   9.206 -0.5432 -1.0834  1.3929
  965MOL0     O27295  -0.242  11.408   8.882 -0.0338 -0.4378 -0.4828
  965MOL0     C27296   0.031  11.489   9.092  0.0251 -0.5197  0.3733
  965MOL0     C27297   0.170  11.530   9.080  0.8782 -0.2103 -0.7435
  965MOL0     N27298   0.973  11.384   8.911  0.7939  0.1318  0.0500
  965MOL0     N27299   1.074  11.315   8.877 -0.0579 -0.2200 -0.2126
  965MOL0     C27300   2.232  10.961   9.061  0.0477 -0.0383  0.7456
  965MOL0     C27301   2.365  10.984   9.019 -0.4262  0.0032  1.1453
  965MOL0     C27302   2.744  11.194   8.975 -0.5865 -0.3387 -0.5957
  965MOL0     C27303   2.761  11.320   8.912  0.7261  0.2011  0.1281
  965MOL0     C27304   2.890  11.350   8.866 -0.4419 -0.0366  0.8424
  965MOL0     C27305   2.990  11.258   8.859 -0.6413 -0.6721 -0.5312
  965MOL0     O27306   3.112  11.295   8.815 -0.2292 -0.3351  0.2492
  965MOL0     C27307   3.227  11.216   8.850 -0.1241 -0.6067 -0.1244
  965MOL0     C27308   3.346  11.313   8.830  0.2003 -0.2866 -0.1548
  965MOL0     C27309   3.344  11.434   8.935  0.9040  0.1201 -0.2979
  965MOL0     C27310   3.301  11.408   9.079 -0.3667 -0.4418  0.0419
  965MOL0     C27311   3.318  11.516   9.173 -0.0901 -1.1619 -0.1097
  965MOL0     C27312   3.318  11.585   9.275 -0.2914 -0.8001  0.6303
  965MOL0     C27313   2.976  11.142   8.938 -0.1006  0.7364  0.1628
  965MOL0     C27314   2.849  11.108   8.981  0.2521 -0.4460  0.6885
  965MOL0     H27315   2.491  11.075   9.322  0.9166 -1.6320  0.3974
  965MOL0     H27316   2.256  11.022   9.389 -1.1460  3.9266 -1.0085
  965MOL0     H27317   1.945  10.917   9.080 -0.7497 -0.5031 -0.0827
  965MOL0     H27318   1.992  11.085   9.103  0.8554 -1.9437 -1.9815
  965MOL0     H27319   1.861  11.085   9.325 -0.3158  0.1036 -0.5653
  965MOL0     H27320   1.811  10.919   9.296  1.1872 -0.4104  1.5018
  965MOL0     H27321   1.740  11.155   9.114  2.1512  0.8236  0.5578
  965MOL0     H27322   1.659  11.130   9.262 -3.4483  0.3974 -3.3068
  965MOL0     H27323   1.687  10.926   9.050 -3.5456 -2.7996 -0.5752
  965MOL0     H27324   1.581  10.920   9.206  0.7597 -1.5750 -0.0320
  965MOL0     H27325   1.454  10.956   8.999  1.0614  1.0869 -3.3095
  965MOL0     H27326   1.551  11.105   8.977  2.2645  0.0034  2.1318
  965MOL0     H27327   1.444  11.181   9.219 -3.4549 -0.6298  3.5789
  965MOL0     H27328   1.344  11.044   9.196 -0.3388  2.3340  2.7983
  965MOL0     H27329   1.249  11.257   9.145 -0.1595  0.4963 -1.1013
  965MOL0     H27330   1.353  11.282   9.004 -1.9813  1.0481 -0.7613
  965MOL0     H27331   1.151  11.035   9.031 -1.0563  1.1914  2.9013
  965MOL0     H27332   1.234  11.110   8.883 -0.8020  1.6591 -0.5940
  965MOL0     H27333   0.964  11.190   9.170 -4.6543 -0.4431  0.6420
  965MOL0     H27334   0.811  11.489   9.143  1.3127  0.4671  0.6485
  965MOL0     H27335   0.731  11.335   9.148  1.4298  2.5825  3.3727
  965MOL0     H27336   0.669  11.350   8.914  2.3048 -1.8085  1.0025
  965MOL0     H27337   0.755  11.505   8.887 -1.1378  0.3594  0.3578
  965MOL0     H27338   0.551  11.472   9.098 -0.2766 -1.2571 -1.7251
  965MOL0     H27339   0.599  11.628   9.044 -2.2619  0.3514  1.7973
  965MOL0     H27340   0.433  11.410   8.896 -0.2013 -0.1086  1.1291
  965MOL0     H27341   0.506  11.552   8.813 -1.2656  3.0435  1.1684
  965MOL0     H27342   0.219  11.508   8.751  1.4448  1.6874  0.7426
  965MOL0     H27343  -0.031  11.398   8.765 -1.6750 -1.3918  1.1822
  965MOL0     H27344  -0.319  11.140   8.999 -0.3369 -0.9373 -0.5909
  965MOL0     H27345  -0.536  11.034   9.020 -0.1770  0.4544 -1.4281
  965MOL0     H27346  -0.730  10.936   9.139  0.2884  0.1614 -3.0446
  965MOL0     H27347  -0.797  11.052   9.021 -1.5172 -0.0565 -0.5148
  965MOL0     H27348  -0.995  10.963   9.116  1.1582  1.2432 -1.8846
  965MOL0     H27349  -0.967  11.089   9.237 -2.6768 -0.1736  0.6562
  965MOL0     H27350  -0.870  10.791   9.269 -1.0426  0.1913 -1.2131
  965MOL0     H27351  -1.011  10.861   9.339  0.7862 -1.3612  0.9038
  965MOL0     H27352  -0.726  10.933   9.412 -0.3555  0.2935 -3.8274
  965MOL0     H27353  -0.852  11.038   9.463 -0.6317  0.5474  0.9198
  965MOL0     H27354  -0.887  10.731   9.513 -1.8261  0.7318 -0.7345
  965MOL0     H27355  -0.953  10.876   9.593 -0.7718  1.6482 -1.7218
  965MOL0     H27356  -0.662  10.770   9.586 -0.4890  0.2777 -1.0601
  965MOL0     H27357  -0.778  10.747   9.723  2.4384 -2.0364  0.0479
  965MOL0     H27358  -0.703  11.036   9.643 -0.9319 -0.0478  0.8919
  965MOL0     H27359  -0.785  10.983   9.783 -2.2172 -2.5008 -0.4733
  965MOL0     H27360  -0.540  11.029   9.826 -0.4306  0.5569  1.6168
  965MOL0     H27361  -0.498  10.890   9.716 -0.4922 -0.2070  0.6708
  965MOL0     H27362  -0.656  11.363   9.287 -1.0601  1.5019 -2.6521
  965MOL0     H27363  -0.432  11.463   9.239 -0.5125  0.3513 -2.5059
  965MOL0     H27364  -0.002  11.481   9.195  2.8796  2.2929  1.6897
  965MOL0     H27365   0.220  11.565   9.170  0.4834  1.3158 -1.0883
  965MOL0     H27366   2.162  10.935   8.982  1.0394 -1.7813  0.3780
  965MOL0     H27367   2.389  10.978   8.913 -1.1007  2.1783  0.8065
  965MOL0     H27368   2.690  11.401   8.923  1.5364  1.3575 -2.5058
  965MOL0     H27369   2.922  11.445   8.825  0.1129 -0.9763 -1.0214
  965MOL0     H27370   3.216  11.126   8.789  0.3436  0.3953 -1.7354
  965MOL0     H27371   3.233  11.178   8.952  1.3148 -0.0862  0.0153
  965MOL0     H27372   3.430  11.247   8.855  1.7914  2.5065  2.6330
  965MOL0     H27373   3.357  11.352   8.729  0.2761 -1.3642 -0.5828
  965MOL0     H27374   3.275  11.505   8.889  0.9638  0.2469 -0.1918
  965MOL0     H27375   3.446  11.472   8.951  1.7604 -2.4455  0.9143
  965MOL0     H27376   3.197  11.376   9.084  0.1698 -2.6801 -1.3017
  965MOL0     H27377   3.361  11.323   9.113  0.0920 -0.4432 -0.7561
  965MOL0     H27378   3.342  11.644   9.361  1.1670  1.6051 -1.2804
  965MOL0     H27379   3.055  11.069   8.952 -2.2067 -1.5596  0.8264
  965MOL0     H27380   2.831  11.009   9.021  3.5168 -1.6126 -0.4421
  966MOL0     O27381   9.441  10.851   6.501  0.0579  0.1171  0.5061
  966MOL0     C27382   9.447  10.954   6.571 -0.3480 -0.4457 -0.4607
  966MOL0     O27383   9.558  11.012   6.626  0.0865 -0.2866  0.3314
  966MOL0     C27384   9.680  10.966   6.614 -0.3611 -0.3643  0.2205
  966MOL0     C27385   9.776  11.056   6.574 -0.1161 -0.5276 -0.8372
  966MOL0     C27386   9.905  11.030   6.567  0.6888 -0.9813 -0.4081
  966MOL0     C27387   9.951  10.904   6.605 -0.0868  0.8131  0.4099
  966MOL0     O27388  10.085  10.899   6.592 -0.6138 -0.6300  0.4805
  966MOL0     C27389  10.161  10.787   6.648 -0.1238  0.5331 -0.1533
  966MOL0     C27390  10.164  10.662   6.553 -0.2220 -0.3704 -0.4977
  966MOL0     C27391  10.201  10.693   6.408 -0.2906  0.3293 -0.8421
  966MOL0     C27392  10.351  10.687   6.390  0.3938  0.2074 -0.4943
  966MOL0     C27393  10.391  10.718   6.252 -0.6573 -0.9235 -1.2827
  966MOL0     C27394  10.545  10.723   6.226  0.4526  0.0519 -0.2121
  966MOL0     C27395  10.581  10.736   6.080  0.2283 -0.0449 -0.1698
  966MOL0     C27396  10.556  10.872   6.026  0.9772  0.4849 -0.1367
  966MOL0     N27397  10.599  10.889   5.886  0.6618 -0.4490 -0.4972
  966MOL0     C27398  10.530  10.850   5.778  0.7277  0.1393 -0.3689
  966MOL0     C27399  10.609  10.888   5.677 -0.5170  0.9695  0.4546
  966MOL0     C27400  10.612  10.832   5.538  0.3882  0.2559  0.5195
  966MOL0     C27401  10.466  10.779   5.494  0.0112  0.0609  0.4734
  966MOL0     C27402  10.351  10.885   5.474  0.0142  0.4396  0.2527
  966MOL0     C27403  10.225  10.823   5.421  0.8922 -0.5063  0.0588
  966MOL0     O27404  10.141  10.928   5.385 -0.4680  0.0623 -0.5138
  966MOL0     C27405  10.029  10.901   5.311  0.0452 -0.3365  0.5741
  966MOL0     C27406   9.988  10.763   5.279 -0.7530 -0.0282 -0.7237
  966MOL0     C27407   9.889  10.749   5.186  1.0020  0.2562  0.1890
  966MOL0     C27408   9.817  10.859   5.127  0.1573 -0.1007 -0.3807
  966MOL0     C27409   9.696  10.822   5.039 -0.6569 -0.2732 -0.7987
  966MOL0     O27410   9.596  10.913   5.044  0.7800 -0.0867 -0.6674
  966MOL0     C27411   9.471  10.877   5.020  0.3031 -0.5515  0.8349
  966MOL0     C27412   9.439  10.810   4.901 -0.7341 -0.0824  0.7759
  966MOL0     C27413   9.304  10.784   4.872  0.8815  0.5591  0.8848
  966MOL0     C27414   9.193  10.835   4.945  0.0899 -0.2201  0.6405
  966MOL0     O27415   9.059  10.822   4.909 -0.1779 -0.1229  0.6553
  966MOL0     C27416   9.016  10.770   4.782  0.2667 -0.4276 -0.2408
  966MOL0     C27417   8.871  10.775   4.772  0.2219  0.5955  0.7190
  966MOL0     C27418   8.829  10.750   4.630  0.3153  0.3771 -0.6261
  966MOL0     C27419   8.694  10.813   4.598  0.5445  0.1013  0.8001
  966MOL0     C27420   8.670  10.830   4.443 -0.0747  0.3265 -0.3496
  966MOL0     C27421   8.533  10.770   4.411 -0.3012 -0.3775 -0.6653
  966MOL0     C27422   8.479  10.813   4.280 -0.0271 -0.3975  0.1336
  966MOL0     C27423   8.328  10.780   4.274 -0.2764  0.3861  0.5418
  966MOL0    Cl27424   8.311  10.607   4.254 -0.0826  0.8567 -0.1316
  966MOL0     C27425   9.230  10.915   5.055 -0.1413 -0.6832 -0.3189
  966MOL0     C27426   9.367  10.935   5.091 -0.2488 -0.5784 -0.8600
  966MOL0     O27427   9.698  10.709   4.986 -0.0676  0.7446 -0.5564
  966MOL0     C27428   9.859  10.982   5.160 -0.2519 -0.5991 -0.8054
  966MOL0     C27429   9.969  11.007   5.243  0.6434 -0.4341  0.0399
  966MOL0     N27430  10.716  10.949   5.722  0.3059 -0.2286 -0.6551
  966MOL0     N27431  10.709  10.944   5.850 -0.0936 -0.4733 -0.2199
  966MOL0     C27432   9.857  10.801   6.637  0.3003  0.2248 -0.6116
  966MOL0     C27433   9.722  10.836   6.641 -0.1178  0.2805  0.7454
  966MOL0     C27434   9.311  11.019   6.585  0.0428 -0.9703 -0.8320
  966MOL0     C27435   9.301  11.145   6.639  0.5296 -0.0007  0.1365
  966MOL0     C27436   9.180  11.216   6.650 -0.4287  0.5527 -0.9217
  966MOL0     C27437   9.058  11.155   6.610 -0.3194  0.0353  0.2691
  966MOL0     O27438   8.939  11.217   6.643 -0.7881  0.2203  0.0800
  966MOL0     C27439   8.828  11.134   6.663 -0.0951  0.0991  0.3647
  966MOL0     C27440   8.721  11.219   6.727 -0.0755 -0.2627  0.4060
  966MOL0     C27441   8.668  11.324   6.637  0.4658 -0.8308  0.0443
  966MOL0     C27442   8.535  11.397   6.679 -0.2118  0.8086  0.4048
  966MOL0     C27443   8.417  11.302   6.672 -0.9019 -0.4390 -0.0269
  966MOL0     C27444   8.335  11.233   6.656  0.4909 -0.3178 -0.3477
  966MOL0     C27445   9.067  11.020   6.560 -0.1210 -0.0712  0.2636
  966MOL0     C27446   9.190  10.956   6.541  0.0400  0.3886 -0.5502
  966MOL0     H27447   9.753  11.161   6.560 -2.4475 -0.6389  1.3053
  966MOL0     H27448   9.972  11.113   6.547  1.0027 -0.4373  2.5403
  966MOL0     H27449  10.128  10.756   6.748  0.5301  0.7869  0.1514
  966MOL0     H27450  10.266  10.817   6.648  0.6269 -1.8381 -1.6071
  966MOL0     H27451  10.066  10.615   6.539  0.9766 -3.1805 -0.1918
  966MOL0     H27452  10.230  10.590   6.602  1.8027  0.1626 -2.3181
  966MOL0     H27453  10.162  10.793   6.387 -2.9353  0.0210  1.8894
  966MOL0     H27454  10.142  10.621   6.351  0.1660 -0.5707 -0.1965
  966MOL0     H27455  10.407  10.749   6.461  3.3056 -3.9050  1.2598
  966MOL0     H27456  10.385  10.587   6.419 -0.7497 -0.1587 -0.3915
  966MOL0     H27457  10.358  10.821   6.237  0.4610 -0.6607 -2.0861
  966MOL0     H27458  10.340  10.655   6.179 -1.3362 -0.7766 -0.9403
  966MOL0     H27459  10.585  10.632   6.272  0.0056  1.1329  2.5222
  966MOL0     H27460  10.583  10.808   6.283 -0.7118  1.0899 -0.9397
  966MOL0     H27461  10.689  10.721   6.070  0.2896  1.6399 -3.6798
  966MOL0     H27462  10.537  10.652   6.027 -1.5450 -0.9569  2.5430
  966MOL0     H27463  10.623  10.935   6.086  0.9505 -0.0211  0.4363
  966MOL0     H27464  10.451  10.899   6.028  0.9338  0.2924  1.3330
  966MOL0     H27465  10.428  10.814   5.770  1.2215 -0.8418 -4.4135
  966MOL0     H27466  10.679  10.746   5.533 -1.1532 -0.9301 -3.0593
  966MOL0     H27467  10.657  10.910   5.476  0.5195 -1.0195 -1.0502
  966MOL0     H27468  10.437  10.706   5.571  0.2535  1.1189  1.6014
  966MOL0     H27469  10.475  10.729   5.397 -2.7267 -0.7851  0.5769
  966MOL0     H27470  10.323  10.927   5.571  2.7534 -0.6484  1.6203
  966MOL0     H27471  10.397  10.964   5.414  2.2174  0.3147  1.6730
  966MOL0     H27472  10.168  10.766   5.495 -2.2652 -0.1285 -1.8931
  966MOL0     H27473  10.240  10.749   5.341 -0.9194  0.1239 -0.9024
  966MOL0     H27474  10.022  10.678   5.337 -3.5471 -1.4842 -1.0184
  966MOL0     H27475   9.874  10.644   5.164  1.2880 -0.0946  1.5357
  966MOL0     H27476   9.519  10.774   4.836  0.4827  1.8910  1.0904
  966MOL0     H27477   9.284  10.716   4.791  1.7561  0.9935  0.2908
  966MOL0     H27478   9.051  10.670   4.755  0.6148  0.4886 -3.6006
  966MOL0     H27479   9.061  10.833   4.704  0.6405 -1.4975 -0.9067
  966MOL0     H27480   8.841  10.873   4.810  1.4220  0.3797  2.3224
  966MOL0     H27481   8.842  10.697   4.844 -4.1314 -1.1437 -2.4775
  966MOL0     H27482   8.825  10.642   4.613  0.2949  0.2471  0.1553
  966MOL0     H27483   8.903  10.797   4.564  0.8687  1.4167  0.6794
  966MOL0     H27484   8.620  10.743   4.638  1.3052 -0.7440  0.7592
  966MOL0     H27485   8.676  10.914   4.637 -1.2801  0.8948 -1.8606
  966MOL0     H27486   8.743  10.779   4.380 -1.8620  0.0811 -2.3424
  966MOL0     H27487   8.676  10.936   4.419 -3.8753  0.6221 -0.5993
  966MOL0     H27488   8.457  10.798   4.484 -0.2378  2.1125 -1.4436
  966MOL0     H27489   8.543  10.662   4.413  1.1543 -0.2694 -0.8340
  966MOL0     H27490   8.488  10.916   4.243 -1.4323 -1.5775 -4.1766
  966MOL0     H27491   8.539  10.763   4.203  0.0444 -2.0573  1.2200
  966MOL0     H27492   8.292  10.830   4.183 -1.0518 -0.6701  0.2497
  966MOL0     H27493   8.265  10.806   4.360 -0.7309 -0.4410  0.4746
  966MOL0     H27494   9.145  10.952   5.112 -1.0590 -4.1948  0.8507
  966MOL0     H27495   9.379  10.993   5.182 -2.7498 -0.7807 -0.3333
  966MOL0     H27496   9.803  11.064   5.116 -1.0371 -0.9488 -0.4841
  966MOL0     H27497   9.998  11.110   5.260  1.2709 -0.4460 -0.8928
  966MOL0     H27498   9.890  10.700   6.659  0.2672  0.3263 -0.1024
  966MOL0     H27499   9.646  10.763   6.668 -1.4397  1.1652 -0.4712
  966MOL0     H27500   9.393  11.192   6.672 -0.2687  1.6757  0.0809
  966MOL0     H27501   9.157  11.315   6.686 -2.8032 -0.8172  1.8004
  966MOL0     H27502   8.849  11.055   6.735 -1.7998 -1.4072 -0.6918
  966MOL0     H27503   8.786  11.085   6.574  1.1413 -1.2667  0.5052
  966MOL0     H27504   8.640  11.152   6.760 -2.1850  2.5212  1.3189
  966MOL0     H27505   8.742  11.266   6.823  2.3558 -0.7801  0.1829
  966MOL0     H27506   8.633  11.277   6.545 -1.0513 -0.3120  0.3178
  966MOL0     H27507   8.743  11.398   6.607 -1.3328  1.2896  0.4912
  966MOL0     H27508   8.539  11.429   6.784 -0.7268 -1.0458  1.0222
  966MOL0     H27509   8.517  11.488   6.620 -2.1305  0.6776  0.7335
  966MOL0     H27510   8.271  11.154   6.621 -0.9905 -0.7039  2.9055
  966MOL0     H27511   8.978  10.970   6.524 -0.4859  0.5397  0.3113
  966MOL0     H27512   9.201  10.862   6.489 -0.8031 -1.0108  1.6790
  967MOL0     O27513   4.276   6.164  10.348  0.0445  0.0124 -0.1417
  967MOL0     C27514   4.304   6.054  10.311 -0.2159  0.8568 -0.3816
  967MOL0     O27515   4.218   5.968  10.248  0.7238 -0.4083  0.5594
  967MOL0     C27516   4.081   5.969  10.224 -0.0972 -0.9394 -0.0509
  967MOL0     C27517   3.986   6.060  10.282 -0.7476 -0.5502 -0.2092
  967MOL0     C27518   3.848   6.061  10.248  0.2111  0.0360 -0.0573
  967MOL0     C27519   3.796   5.967  10.162  1.0596  0.0531  0.5078
  967MOL0     O27520   3.657   5.968  10.126 -0.3536  0.5701 -0.0124
  967MOL0     C27521   3.572   6.017  10.219 -0.1730  0.4846 -0.8492
  967MOL0     C27522   3.429   5.959  10.190 -0.1161  0.3041  0.5491
  967MOL0     C27523   3.334   6.020  10.292 -0.1426  0.0444  0.0149
  967MOL0     C27524   3.198   5.963  10.255  0.0742  0.8024 -0.2793
  967MOL0     C27525   3.085   6.041  10.334 -0.2902 -0.3753  0.6949
  967MOL0     C27526   2.944   6.021  10.269  0.1064 -0.7912 -0.2650
  967MOL0     C27527   2.842   6.070  10.377 -0.1963  0.6733 -1.0710
  967MOL0     C27528   2.813   5.959  10.486  0.1783  0.0827  0.1739
  967MOL0     N27529   2.701   6.003  10.579 -1.2156 -0.0453  0.0659
  967MOL0     C27530   2.573   5.954  10.562  0.1863 -1.3709 -0.3529
  967MOL0     C27531   2.490   6.029  10.641 -0.4365  0.3808  0.2309
  967MOL0     C27532   2.341   6.010  10.644 -0.5925 -0.2325  0.7412
  967MOL0     C27533   2.293   5.991  10.782 -0.2782  1.0775  0.5139
  967MOL0     C27534   2.155   5.939  10.791  0.0434 -0.2317  0.6996
  967MOL0     C27535   2.046   6.038  10.738  0.1886 -0.1063 -0.2109
  967MOL0     O27536   1.911   6.002  10.787  0.1124  0.7364 -0.4057
  967MOL0     C27537   1.795   6.058  10.738  0.2294 -0.2788  1.2886
  967MOL0     C27538   1.678   6.041  10.806 -0.8259  0.2787  0.1535
  967MOL0     C27539   1.552   6.092  10.754 -0.8433 -0.1086 -0.3290
  967MOL0     C27540   1.550   6.179  10.639 -0.8350 -0.3866 -0.4019
  967MOL0     C27541   1.428   6.231  10.588 -0.0769  0.1001  0.2076
  967MOL0     O27542   1.311   6.208  10.664 -0.2457  0.2393 -0.1749
  967MOL0     C27543   1.196   6.267  10.637 -0.2945  0.1019  0.2833
  967MOL0     C27544   1.083   6.204  10.680 -0.6939  0.3879  0.1194
  967MOL0     C27545   0.952   6.249  10.643 -0.5029 -0.5119 -0.5334
  967MOL0     C27546   0.946   6.375  10.582 -0.6678  0.7154 -0.2085
  967MOL0     O27547   0.818   6.419  10.568 -0.4383  0.5641  0.3221
  967MOL0     C27548   0.760   6.378  10.441 -0.8712 -0.1229 -1.3268
  967MOL0     C27549   0.618   6.337  10.463  0.0915  0.6065 -0.0826
  967MOL0     C27550   0.621   6.201  10.535 -0.3286 -0.7439 -0.3952
  967MOL0     C27551   0.495   6.128  10.530  0.3118  0.0715 -0.3484
  967MOL0     C27552   0.499   5.974  10.551  0.3050 -0.7766 -0.6643
  967MOL0     C27553   0.365   5.919  10.513 -0.6567  0.4850 -0.0130
  967MOL0     C27554   0.364   5.766  10.549  0.1836 -0.3878 -0.0550
  967MOL0     C27555   0.243   5.698  10.489 -1.0841 -0.5518 -0.3836
  967MOL0    Cl27556   0.267   5.700  10.321 -0.1225 -0.2511  0.1664
  967MOL0     C27557   1.062   6.446  10.548 -0.9548  0.2578  0.5623
  967MOL0     C27558   1.184   6.402  10.581  0.3154  0.1160  0.0067
  967MOL0     O27559   1.432   6.291  10.472 -0.6249  0.5982  0.0186
  967MOL0     C27560   1.676   6.202  10.573  0.2241  0.0490 -1.4790
  967MOL0     C27561   1.787   6.140  10.622  0.5161 -0.5009 -0.8541
  967MOL0     N27562   2.574   6.115  10.710 -0.1572  0.2556 -0.0288
  967MOL0     N27563   2.698   6.098  10.673 -0.0321 -0.6176  0.5860
  967MOL0     C27564   3.890   5.870  10.113  1.2058  0.6849  0.6408
  967MOL0     C27565   4.027   5.876  10.142 -0.0972  1.5810 -0.4137
  967MOL0     C27566   4.450   6.010  10.305  0.0569  0.4514 -0.3790
  967MOL0     C27567   4.544   6.076  10.377  0.2920  0.1934  0.3405
  967MOL0     C27568   4.678   6.036  10.396 -0.7387  0.0890 -0.1366
  967MOL0     C27569   4.723   5.926  10.322 -0.1850  0.0083 -0.0126
  967MOL0     O27570   4.859   5.903  10.324  0.0964 -0.0770 -0.5242
  967MOL0     C27571   4.909   5.797  10.260 -0.3515  0.9857  0.7147
  967MOL0     C27572   5.058   5.763  10.260  0.5576  1.1314  0.3334
  967MOL0     C27573   5.131   5.786  10.404 -0.2574 -0.0417 -0.3782
  967MOL0     C27574   5.109   5.670  10.493 -0.3729 -0.0164  0.2494
  967MOL0     C27575   5.195   5.680  10.607 -0.2042 -0.5499 -0.4370
  967MOL0     C27576   5.279   5.687  10.691 -0.1613  0.3354  0.1461
  967MOL0     C27577   4.627   5.866  10.237  0.0399 -0.0314 -0.3406
  967MOL0     C27578   4.489   5.887  10.246 -1.3825 -0.6408 -0.3841
  967MOL0     H27579   4.024   6.140  10.345 -0.6490 -0.6893 -0.0907
  967MOL0     H27580   3.788   6.148  10.275  1.2316 -0.3582  4.2782
  967MOL0     H27581   3.566   6.126  10.214  1.5358  0.6949  0.4596
  967MOL0     H27582   3.612   5.989  10.317  1.7853  0.4030 -1.6224
  967MOL0     H27583   3.425   5.849  10.196 -0.9411  0.2881 -0.1285
  967MOL0     H27584   3.387   5.976  10.091 -1.6917 -4.4190  0.1520
  967MOL0     H27585   3.332   6.128  10.276 -1.3872  0.0318 -0.0147
  967MOL0     H27586   3.371   5.999  10.393  1.4665 -1.8345 -0.8974
  967MOL0     H27587   3.179   5.969  10.147 -0.1156  1.3930 -0.2154
  967MOL0     H27588   3.189   5.860  10.292  1.4663  0.4153 -0.9598
  967MOL0     H27589   3.103   6.148  10.328 -0.3435 -0.3617  0.7810
  967MOL0     H27590   3.097   6.020  10.441  0.3244  3.1125  1.4346
  967MOL0     H27591   2.932   5.913  10.252 -0.3711 -0.8885  0.6095
  967MOL0     H27592   2.931   6.075  10.175 -0.2292 -1.7445 -0.7824
  967MOL0     H27593   2.874   6.165  10.423  0.5587  1.2133 -2.6519
  967MOL0     H27594   2.746   6.096  10.330 -2.0176 -1.4260  1.1777
  967MOL0     H27595   2.905   5.948  10.543  1.4090  0.2752 -1.6898
  967MOL0     H27596   2.789   5.864  10.436 -2.8317  1.0211 -0.3659
  967MOL0     H27597   2.541   5.888  10.482 -3.1296 -0.2964 -0.0339
  967MOL0     H27598   2.320   5.932  10.570  2.4325 -0.1152 -0.4048
  967MOL0     H27599   2.293   6.102  10.609  0.1801 -0.5567 -1.3205
  967MOL0     H27600   2.310   6.090  10.825  3.5456  0.5273  0.6857
  967MOL0     H27601   2.356   5.914  10.827  0.5852 -0.1258 -2.4920
  967MOL0     H27602   2.137   5.850  10.730 -1.9214  0.0960  0.7646
  967MOL0     H27603   2.128   5.919  10.895 -3.9525  0.6578 -0.0247
  967MOL0     H27604   2.035   6.035  10.630  3.2067  0.8276 -0.6463
  967MOL0     H27605   2.071   6.137  10.778  0.8288  0.1604 -1.2610
  967MOL0     H27606   1.659   5.971  10.887 -1.9442 -3.7587 -3.2637
  967MOL0     H27607   1.468   6.065  10.817 -1.3962  0.7661 -0.6779
  967MOL0     H27608   1.098   6.111  10.734 -1.8992 -0.6779 -1.3150
  967MOL0     H27609   0.859   6.204  10.676 -1.7818  2.5190  0.3771
  967MOL0     H27610   0.822   6.304  10.391  1.5631  0.3542  0.7836
  967MOL0     H27611   0.761   6.470  10.381  2.9086  2.2022  1.7703
  967MOL0     H27612   0.572   6.329  10.364 -1.5565  2.8522  0.4388
  967MOL0     H27613   0.562   6.407  10.525 -1.0907  0.0545 -0.4815
  967MOL0     H27614   0.641   6.216  10.641  0.9949  0.5748 -0.7875
  967MOL0     H27615   0.700   6.138  10.493 -1.4004  0.1708 -4.1667
  967MOL0     H27616   0.429   6.178  10.602  0.9976  1.2651 -0.5222
  967MOL0     H27617   0.463   6.136  10.426 -0.6160 -0.7982 -0.1487
  967MOL0     H27618   0.513   5.956  10.658 -2.2197  3.4080  0.5946
  967MOL0     H27619   0.584   5.931  10.496  1.2096 -1.3822  1.0978
  967MOL0     H27620   0.350   5.945  10.408  0.4038 -1.0799 -0.5878
  967MOL0     H27621   0.286   5.965  10.573  0.4613  1.1518  0.9899
  967MOL0     H27622   0.449   5.705  10.518 -1.4679 -1.4501 -2.9601
  967MOL0     H27623   0.367   5.772  10.658  1.4374  0.6490 -0.1235
  967MOL0     H27624   0.151   5.753  10.510 -0.5482 -0.1106  0.9486
  967MOL0     H27625   0.237   5.599  10.536 -0.8143 -0.8164 -0.8962
  967MOL0     H27626   1.033   6.541  10.506  0.9144  0.7100  0.1989
  967MOL0     H27627   1.265   6.473  10.568  1.3496 -1.1035 -0.4311
  967MOL0     H27628   1.685   6.256  10.479  2.3638 -0.7757 -1.7848
  967MOL0     H27629   1.874   6.178  10.569 -0.5760  1.2612 -1.4750
  967MOL0     H27630   3.847   5.782  10.064  0.2269  1.4660  0.0629
  967MOL0     H27631   4.091   5.799  10.101 -1.4743  0.9951 -1.5500
  967MOL0     H27632   4.516   6.163  10.435  0.8301  1.0131 -0.6157
  967MOL0     H27633   4.744   6.093  10.460 -0.4182 -1.9252  1.4101
  967MOL0     H27634   4.874   5.799  10.156 -3.0503  1.2285  1.5443
  967MOL0     H27635   4.858   5.712  10.308 -1.0330 -0.4415 -2.2727
  967MOL0     H27636   5.083   5.664  10.221 -0.4030  2.2596 -3.5859
  967MOL0     H27637   5.107   5.835  10.195 -0.7240  0.7380 -1.1252
  967MOL0     H27638   5.077   5.866  10.457 -0.5273 -0.9188  0.7179
  967MOL0     H27639   5.235   5.816  10.388 -0.7214  2.0063  0.1276
  967MOL0     H27640   5.004   5.664  10.525  0.3383 -2.4367  2.5476
  967MOL0     H27641   5.135   5.582  10.433  2.4231  1.4013 -0.7552
  967MOL0     H27642   5.348   5.712  10.768 -2.4378 -0.3510  2.5525
  967MOL0     H27643   4.661   5.785  10.175 -1.2748 -0.5009 -0.4642
  967MOL0     H27644   4.417   5.824  10.196 -3.5669  3.2146 -2.5507
  968MOL0     O27645  10.154   4.626   9.630  0.8729 -0.1439 -0.4476
  968MOL0     C27646  10.199   4.700   9.710 -0.9552 -0.2564  0.4758
  968MOL0     O27647  10.147   4.735   9.835 -0.2659  0.9931  0.0260
  968MOL0     C27648  10.007   4.726   9.843 -1.5512 -0.4240  0.3593
  968MOL0     C27649   9.931   4.614   9.809 -0.0867  0.5171  0.2811
  968MOL0     C27650   9.797   4.623   9.788 -1.1007 -0.0452  0.6969
  968MOL0     C27651   9.730   4.743   9.813  0.1245 -0.8535  1.3058
  968MOL0     O27652   9.594   4.763   9.812  0.3490 -0.0955 -0.0908
  968MOL0     C27653   9.518   4.672   9.734  0.5942  0.6035 -0.1958
  968MOL0     C27654   9.389   4.736   9.687  0.0462 -0.6272  0.4746
  968MOL0     C27655   9.294   4.770   9.810  0.1818 -0.3487 -0.5962
  968MOL0     C27656   9.151   4.787   9.772  0.8523 -0.7784  0.1321
  968MOL0     C27657   9.045   4.725   9.865 -0.2967  0.5369  0.1235
  968MOL0     C27658   8.912   4.682   9.792 -0.1205  0.3992  0.9436
  968MOL0     C27659   8.817   4.615   9.886 -0.7721  0.8236 -0.5037
  968MOL0     C27660   8.826   4.456   9.901  0.3924  0.2622  0.4892
  968MOL0     N27661   8.711   4.406   9.987  0.5869  0.2950  0.5332
  968MOL0     C27662   8.704   4.376  10.121 -0.3284  0.3869 -0.0794
  968MOL0     C27663   8.574   4.332  10.149  0.3554  0.6001 -0.1544
  968MOL0     C27664   8.510   4.310  10.287  0.2034  0.4849 -0.3166
  968MOL0     C27665   8.399   4.401  10.320 -0.7096  0.2598 -0.3141
  968MOL0     C27666   8.334   4.371  10.454 -0.2204 -0.0926 -0.7999
  968MOL0     C27667   8.267   4.231  10.459 -0.8574 -0.2401  0.9562
  968MOL0     O27668   8.171   4.220  10.360 -0.0744 -0.0642  0.9489
  968MOL0     C27669   8.045   4.278  10.379  0.1404 -0.2100  1.0758
  968MOL0     C27670   7.995   4.349  10.493  0.2826 -0.0413  0.7401
  968MOL0     C27671   7.864   4.393  10.495 -0.8904 -0.8536  0.2494
  968MOL0     C27672   7.778   4.367  10.387 -0.6523  0.6682  1.2688
  968MOL0     C27673   7.653   4.433  10.382  0.1870 -0.5250 -0.7630
  968MOL0     O27674   7.575   4.441  10.493  0.0975  0.1140  0.5691
  968MOL0     C27675   7.451   4.493  10.475  0.0093  0.0146 -0.4270
  968MOL0     C27676   7.338   4.416  10.523 -0.7989  0.4219 -0.2470
  968MOL0     C27677   7.204   4.476  10.523  0.1779 -0.4825  0.3678
  968MOL0     C27678   7.180   4.603  10.462  0.7601 -0.4890 -0.3710
  968MOL0     O27679   7.047   4.638  10.447 -0.4413 -0.1481 -0.4416
  968MOL0     C27680   7.012   4.773  10.479  0.2469 -0.5522 -0.3457
  968MOL0     C27681   6.871   4.806  10.436 -0.1267  0.5990 -0.0298
  968MOL0     C27682   6.829   4.951  10.476 -0.1531 -0.3934 -0.3535
  968MOL0     C27683   6.690   4.985  10.424 -0.9543 -0.3841 -0.2675
  968MOL0     C27684   6.669   5.139  10.450  0.5949  0.5278 -0.1430
  968MOL0     C27685   6.575   5.191  10.343 -0.0655  0.2108  0.9029
  968MOL0     C27686   6.638   5.207  10.207  0.3933 -0.2876 -1.0735
  968MOL0     C27687   6.530   5.267  10.115 -0.1759  1.6647 -0.6807
  968MOL0    Cl27688   6.613   5.281   9.954 -0.0061 -0.1214 -0.3887
  968MOL0     C27689   7.291   4.672  10.420 -0.6493 -0.5402 -0.6984
  968MOL0     C27690   7.416   4.616  10.426  0.4507  0.3863  0.4302
  968MOL0     O27691   7.631   4.478  10.269 -0.1607 -0.3517  0.1123
  968MOL0     C27692   7.821   4.294  10.270 -0.5957  0.4250 -0.0453
  968MOL0     C27693   7.956   4.252  10.271  0.0426 -1.1651 -0.0561
  968MOL0     N27694   8.503   4.338  10.026 -0.2820 -0.4598 -0.1630
  968MOL0     N27695   8.586   4.383   9.929  0.1801  0.3957 -0.1683
  968MOL0     C27696   9.800   4.847   9.867 -0.3554  0.3232 -0.2543
  968MOL0     C27697   9.939   4.843   9.883 -0.1810 -0.3311 -0.0808
  968MOL0     C27698  10.320   4.774   9.662 -0.6650  0.1220  0.6579
  968MOL0     C27699  10.375   4.750   9.529  0.5100 -0.2767 -0.0989
  968MOL0     C27700  10.501   4.806   9.492  0.0515  0.6783  0.0798
  968MOL0     C27701  10.559   4.899   9.581 -0.0898  1.3455  0.6196
  968MOL0     O27702  10.667   4.966   9.526  0.1040 -0.2658 -0.0219
  968MOL0     C27703  10.721   5.086   9.585 -0.4963  0.9262  0.3916
  968MOL0     C27704  10.877   5.086   9.555 -0.5979 -0.8274  0.2287
  968MOL0     C27705  10.913   5.239   9.519  0.3676  0.3817 -0.1221
  968MOL0     C27706  11.049   5.268   9.489 -0.6302  0.4618 -0.8380
  968MOL0     C27707  11.094   5.399   9.527  0.4588  0.3512 -1.1441
  968MOL0     C27708  11.126   5.513   9.551 -0.7052  0.0360  0.0542
  968MOL0     C27709  10.501   4.932   9.707 -0.1231 -0.1877 -0.4275
  968MOL0     C27710  10.391   4.863   9.747  0.0857  0.1424  0.8264
  968MOL0     H27711   9.988   4.523   9.792 -2.9921 -1.5321  0.7858
  968MOL0     H27712   9.747   4.539   9.741  1.0321 -1.0514  0.0911
  968MOL0     H27713   9.497   4.583   9.793  1.0178 -1.1403 -2.5350
  968MOL0     H27714   9.573   4.638   9.646 -0.6657 -0.2906 -0.6663
  968MOL0     H27715   9.334   4.666   9.623 -1.4696 -0.9677  2.0682
  968MOL0     H27716   9.405   4.816   9.616 -3.3035 -0.0594  0.1676
  968MOL0     H27717   9.330   4.864   9.853  0.0499 -1.0163  1.0422
  968MOL0     H27718   9.316   4.699   9.889  0.3372  0.4537  0.0968
  968MOL0     H27719   9.141   4.895   9.763  0.4318 -0.7217  1.2040
  968MOL0     H27720   9.138   4.746   9.671  1.7890 -0.2622 -0.2097
  968MOL0     H27721   9.015   4.802   9.937 -1.3434  0.7487 -0.5224
  968MOL0     H27722   9.087   4.649   9.932 -2.7110  1.8379  3.3429
  968MOL0     H27723   8.919   4.622   9.701 -0.9467  0.2936  0.9443
  968MOL0     H27724   8.877   4.778   9.751 -3.5632 -1.3662 -0.6353
  968MOL0     H27725   8.820   4.670   9.980 -2.6565 -0.8761  0.6335
  968MOL0     H27726   8.715   4.634   9.851 -1.7240  2.4371  2.7871
  968MOL0     H27727   8.919   4.419   9.945 -0.0802  2.1056  3.2775
  968MOL0     H27728   8.819   4.419   9.798 -2.2565  1.0362  0.3201
  968MOL0     H27729   8.787   4.390  10.189  1.7951 -1.4289 -2.1536
  968MOL0     H27730   8.591   4.318  10.360 -0.4650  0.0797  0.4859
  968MOL0     H27731   8.474   4.207  10.283  0.7774  0.2910 -0.5809
  968MOL0     H27732   8.322   4.382  10.245  2.0795 -3.6992 -2.5909
  968MOL0     H27733   8.449   4.498  10.317  0.6307 -0.2953  1.8178
  968MOL0     H27734   8.404   4.383  10.538 -2.2178 -0.7784  1.0664
  968MOL0     H27735   8.251   4.438  10.479 -0.9372 -1.7343  1.6197
  968MOL0     H27736   8.234   4.215  10.562  1.1806  1.7994  2.0157
  968MOL0     H27737   8.346   4.157  10.446 -1.7005 -1.1945  1.1727
  968MOL0     H27738   8.062   4.381  10.572 -0.6103 -0.5421  1.7161
  968MOL0     H27739   7.834   4.458  10.576  1.5400 -0.4767  0.9205
  968MOL0     H27740   7.360   4.326  10.579 -0.1447  1.1659  0.7269
  968MOL0     H27741   7.116   4.419  10.550 -1.2550  0.6370 -1.6679
  968MOL0     H27742   7.088   4.846  10.449  1.7591 -1.2510  1.5536
  968MOL0     H27743   7.013   4.774  10.588  1.8349 -2.2359 -0.2952
  968MOL0     H27744   6.793   4.732  10.458  0.7819 -1.3085 -2.7012
  968MOL0     H27745   6.868   4.800  10.327  0.3748 -5.2645 -0.0342
  968MOL0     H27746   6.899   5.021  10.431  2.6958 -1.7077  1.7195
  968MOL0     H27747   6.833   4.962  10.584 -2.5997 -0.7235 -0.1578
  968MOL0     H27748   6.700   4.976  10.315  0.5859 -2.4949 -0.0123
  968MOL0     H27749   6.613   4.920  10.467 -2.5914  3.1216  2.6417
  968MOL0     H27750   6.761   5.197  10.441 -0.2123  1.6420 -1.5079
  968MOL0     H27751   6.618   5.151  10.546 -0.0121 -2.7174  0.0666
  968MOL0     H27752   6.533   5.288  10.373 -4.7981 -1.3211  0.1317
  968MOL0     H27753   6.483   5.131  10.341 -0.1217  0.2815  1.2834
  968MOL0     H27754   6.713   5.285  10.224  1.4039 -1.5829  0.8390
  968MOL0     H27755   6.693   5.128  10.154 -0.3787 -0.1355 -2.1304
  968MOL0     H27756   6.507   5.364  10.161  0.5784  1.6502 -0.2569
  968MOL0     H27757   6.452   5.190  10.117  0.3297  1.1321  1.4262
  968MOL0     H27758   7.297   4.776  10.389  6.8284 -0.4153 -0.6427
  968MOL0     H27759   7.494   4.681  10.388 -2.4298  2.6331 -2.1808
  968MOL0     H27760   7.763   4.272  10.181  1.2712 -0.1170 -1.1737
  968MOL0     H27761   7.994   4.204  10.181  1.0267 -3.6049  1.5590
  968MOL0     H27762   9.747   4.937   9.900  2.7879  2.1717  0.1738
  968MOL0     H27763   9.989   4.934   9.913  0.9711 -0.5995 -1.1232
  968MOL0     H27764  10.329   4.671   9.472 -0.3501 -0.0385  0.2490
  968MOL0     H27765  10.551   4.793   9.397 -0.9929  1.1037 -0.5445
  968MOL0     H27766  10.714   5.089   9.694  0.7076 -2.0641  0.6579
  968MOL0     H27767  10.661   5.171   9.550 -2.2694  0.9601  3.2323
  968MOL0     H27768  10.941   5.043   9.632 -2.2056  1.2416  2.8807
  968MOL0     H27769  10.890   5.026   9.464  2.1156  1.2972 -0.9254
  968MOL0     H27770  10.892   5.295   9.610 -1.0421  0.7084 -0.6281
  968MOL0     H27771  10.846   5.273   9.440  1.5963  1.9971 -0.5241
  968MOL0     H27772  11.099   5.187   9.543 -2.2848  0.5452  0.9598
  968MOL0     H27773  11.067   5.259   9.382 -1.4582  0.3462 -0.9792
  968MOL0     H27774  11.134   5.612   9.591  1.2978 -0.4411  1.0164
  968MOL0     H27775  10.541   4.999   9.781 -1.4498  0.2420 -0.0637
  968MOL0     H27776  10.347   4.893   9.841  1.8161  3.1986  0.7896
  969MOL0     O27777   6.123   8.612   8.436  0.1499  0.2554 -0.2937
  969MOL0     C27778   6.091   8.691   8.523 -0.7107  1.1494  0.0971
  969MOL0     O27779   6.156   8.707   8.640 -0.4707 -0.3293 -0.7294
  969MOL0     C27780   6.285   8.668   8.653  0.1214 -0.8429 -0.3920
  969MOL0     C27781   6.380   8.684   8.546 -0.7313 -0.4077 -0.0682
  969MOL0     C27782   6.510   8.626   8.562 -0.2086 -0.6692  0.1439
  969MOL0     C27783   6.553   8.579   8.682  0.0796 -0.5104  1.1128
  969MOL0     O27784   6.680   8.549   8.700  0.4022  0.3833  0.0568
  969MOL0     C27785   6.736   8.602   8.816  0.2157 -0.3691 -0.4638
  969MOL0     C27786   6.886   8.630   8.794 -0.4072 -0.1190 -0.6101
  969MOL0     C27787   6.919   8.743   8.697  0.2323  0.1920  0.2856
  969MOL0     C27788   6.920   8.884   8.757 -0.1528  0.0283  0.4947
  969MOL0     C27789   7.031   8.918   8.861  0.0269 -1.1452  0.6968
  969MOL0     C27790   7.152   8.972   8.780  0.2854  0.1924  0.3347
  969MOL0     C27791   7.265   9.005   8.874  0.3310  0.0623  0.2303
  969MOL0     C27792   7.339   8.875   8.908 -0.0498 -0.3940 -0.3850
  969MOL0     N27793   7.462   8.910   8.980 -0.6035  0.0722 -0.6187
  969MOL0     C27794   7.490   9.011   9.073  0.2631 -0.3637  0.0028
  969MOL0     C27795   7.618   8.990   9.107  0.6816  0.1142 -0.2940
  969MOL0     C27796   7.698   9.055   9.208  0.5479  0.1914  0.2765
  969MOL0     C27797   7.723   8.957   9.322  0.0794  0.9569 -0.1630
  969MOL0     C27798   7.770   9.032   9.450 -0.0461  1.0345  0.3365
  969MOL0     C27799   7.894   9.113   9.414  0.5346  0.3490  0.3008
  969MOL0     O27800   7.966   9.166   9.522 -0.2172 -0.3378 -0.3096
  969MOL0     C27801   7.901   9.269   9.598 -0.2977  0.4110  0.2489
  969MOL0     C27802   7.945   9.304   9.728  0.0773  0.9423 -0.1810
  969MOL0     C27803   7.895   9.410   9.793  0.6148  0.3896 -0.2331
  969MOL0     C27804   7.786   9.483   9.743  0.1303 -0.4284  0.5300
  969MOL0     C27805   7.711   9.591   9.827  0.1715  1.2001  0.0395
  969MOL0     O27806   7.746   9.607   9.959 -0.2321 -0.2801 -0.2273
  969MOL0     C27807   7.673   9.701  10.030 -1.1007  0.4587  0.4544
  969MOL0     C27808   7.554   9.656  10.098 -0.4049 -0.4330  0.8044
  969MOL0     C27809   7.473   9.754  10.152  0.3669  0.1262 -0.1208
  969MOL0     C27810   7.502   9.891  10.163 -1.2926 -0.5733  0.3503
  969MOL0     O27811   7.430   9.991  10.217  0.4319  0.4894  0.4807
  969MOL0     C27812   7.325   9.962  10.308  0.4987 -0.2224  0.0088
  969MOL0     C27813   7.193   9.945  10.216 -0.0928  0.0608 -0.5792
  969MOL0     C27814   7.069   9.950  10.309  0.5525  0.2894 -1.0346
  969MOL0     C27815   7.053  10.105  10.346  0.3483  1.0236 -0.4755
  969MOL0     C27816   6.941  10.144  10.445  0.1618 -0.1795  0.4369
  969MOL0     C27817   6.940  10.301  10.477  0.6218 -0.1748  0.0684
  969MOL0     C27818   7.064  10.373  10.516 -0.2815 -0.6386 -0.1771
  969MOL0     C27819   7.109  10.346  10.655  0.4910 -0.0059 -0.2547
  969MOL0    Cl27820   7.020  10.433  10.781  0.1348  0.1717  0.1334
  969MOL0     C27821   7.631   9.930  10.115 -0.5399 -0.1574 -0.1044
  969MOL0     C27822   7.719   9.836  10.044 -0.1221 -1.1154  0.3499
  969MOL0     O27823   7.623   9.643   9.766  0.7677  0.2733  0.6109
  969MOL0     C27824   7.749   9.454   9.611 -0.8079 -0.3662 -0.0524
  969MOL0     C27825   7.790   9.344   9.541 -0.3815  0.1743  0.0304
  969MOL0     N27826   7.656   8.880   9.036 -0.0602  0.4442 -0.0700
  969MOL0     N27827   7.569   8.834   8.965 -0.1638  1.5749 -0.2202
  969MOL0     C27828   6.457   8.585   8.791  0.3079 -0.7619 -0.4249
  969MOL0     C27829   6.320   8.619   8.776 -0.4067 -0.3530  0.0746
  969MOL0     C27830   5.958   8.766   8.525 -0.0382 -0.0526  0.0610
  969MOL0     C27831   5.934   8.855   8.636  0.6704 -0.7849 -0.0081
  969MOL0     C27832   5.813   8.928   8.626  0.6352  0.1396  0.3761
  969MOL0     C27833   5.718   8.896   8.532  0.7922 -0.8546  1.6965
  969MOL0     O27834   5.595   8.955   8.502  0.1509 -0.1873  0.3494
  969MOL0     C27835   5.548   9.073   8.577  0.1678  0.3508 -0.3571
  969MOL0     C27836   5.595   9.208   8.520 -0.2409 -0.6816  0.0573
  969MOL0     C27837   5.594   9.229   8.370 -0.1856  0.0031  0.5436
  969MOL0     C27838   5.686   9.333   8.318 -0.6464 -0.4517  1.0050
  969MOL0     C27839   5.638   9.462   8.364 -0.5903 -0.4988  0.1329
  969MOL0     C27840   5.592   9.566   8.413 -0.6096  0.5561  0.0149
  969MOL0     C27841   5.742   8.810   8.426  0.4429 -0.4122  0.4569
  969MOL0     C27842   5.856   8.738   8.427 -0.3089 -0.2600 -0.4567
  969MOL0     H27843   6.353   8.739   8.457  2.3562 -0.4226 -1.1353
  969MOL0     H27844   6.579   8.638   8.479 -0.1932  1.3137  0.3756
  969MOL0     H27845   6.732   8.526   8.895  1.6140 -0.2801 -0.2959
  969MOL0     H27846   6.676   8.686   8.855 -0.7450 -1.5924  0.7995
  969MOL0     H27847   6.917   8.536   8.746 -0.9676 -0.9543  0.5969
  969MOL0     H27848   6.944   8.635   8.886  0.3864  1.6158 -1.1791
  969MOL0     H27849   6.849   8.736   8.614 -0.3753  0.3214  0.7785
  969MOL0     H27850   7.020   8.732   8.658  0.8660  2.3384  1.1894
  969MOL0     H27851   6.925   8.957   8.676 -0.7314  1.1788  1.4658
  969MOL0     H27852   6.828   8.912   8.810 -0.7335  1.0795 -1.0160
  969MOL0     H27853   7.053   8.830   8.921 -2.4851 -0.9180  2.1010
  969MOL0     H27854   7.004   9.008   8.918  0.4971  2.2378 -3.8454
  969MOL0     H27855   7.133   9.057   8.715  3.5448  3.1730  2.8624
  969MOL0     H27856   7.190   8.894   8.714  1.9814  1.5391 -0.3604
  969MOL0     H27857   7.330   9.077   8.824 -1.0279 -1.2529 -3.7892
  969MOL0     H27858   7.231   9.052   8.966  3.0040 -0.9738  1.8794
  969MOL0     H27859   7.368   8.815   8.821 -1.1282 -1.8473  0.2073
  969MOL0     H27860   7.281   8.796   8.958  3.1246 -1.3249  2.2165
  969MOL0     H27861   7.422   9.079   9.124  0.5066  0.4129 -0.6852
  969MOL0     H27862   7.656   9.142   9.260 -1.1511 -0.4721  0.0759
  969MOL0     H27863   7.795   9.077   9.161  0.9955 -2.2806 -0.0760
  969MOL0     H27864   7.794   8.880   9.290 -0.8348  1.2488 -3.1679
  969MOL0     H27865   7.632   8.900   9.343  0.7704 -0.2110 -0.2665
  969MOL0     H27866   7.688   9.095   9.485 -0.4457 -0.1265  1.5760
  969MOL0     H27867   7.790   8.959   9.529  0.2193  1.1471  0.3726
  969MOL0     H27868   7.882   9.188   9.335 -0.2472 -0.7724 -0.6774
  969MOL0     H27869   7.969   9.041   9.379 -0.3220 -0.0267 -0.7888
  969MOL0     H27870   8.028   9.243   9.762  2.8742  1.5473 -4.9289
  969MOL0     H27871   7.936   9.430   9.891 -2.9076  1.2550  1.1966
  969MOL0     H27872   7.528   9.551  10.097 -1.4012 -0.2089 -0.4071
  969MOL0     H27873   7.381   9.727  10.201 -1.1581  1.0364 -2.3429
  969MOL0     H27874   7.311  10.036  10.387 -4.1368 -1.3138  0.4845
  969MOL0     H27875   7.344   9.873  10.369 -1.7477 -0.5994  0.2340
  969MOL0     H27876   7.193   9.858  10.149  2.0453  0.2373 -0.8736
  969MOL0     H27877   7.194  10.029  10.145  0.5336 -0.2044 -0.8948
  969MOL0     H27878   7.066   9.889  10.399  0.6452  0.7203 -0.7363
  969MOL0     H27879   6.994   9.911  10.239  0.5088 -1.9076  0.1577
  969MOL0     H27880   7.147  10.134  10.395 -1.0849  2.0081  1.9008
  969MOL0     H27881   7.048  10.162  10.254  1.5618 -0.6688 -1.6560
  969MOL0     H27882   6.961  10.098  10.542  0.8581  1.8697  1.3245
  969MOL0     H27883   6.846  10.116  10.400  0.0407 -0.8647  1.1022
  969MOL0     H27884   6.859  10.315  10.549 -1.4022 -1.7514 -1.8063
  969MOL0     H27885   6.909  10.362  10.392  2.7546  1.4680  0.3618
  969MOL0     H27886   7.146  10.354  10.446  0.7942 -2.0632  1.3876
  969MOL0     H27887   7.044  10.480  10.510 -0.3446 -0.6624 -0.3919
  969MOL0     H27888   7.218  10.355  10.660  0.4327  2.1964 -1.8884
  969MOL0     H27889   7.091  10.238  10.666  2.7434 -0.4733 -0.7406
  969MOL0     H27890   7.657  10.035  10.116 -0.8035 -0.0922  0.5208
  969MOL0     H27891   7.804   9.874   9.988 -0.3543  1.2476  1.4663
  969MOL0     H27892   7.671   9.509   9.559 -1.4298 -0.8615  0.3347
  969MOL0     H27893   7.753   9.335   9.439 -2.0348  1.9382  0.4193
  969MOL0     H27894   6.490   8.559   8.891 -3.5699 -2.0855  0.7038
  969MOL0     H27895   6.246   8.620   8.856  1.7793 -2.2402  2.2770
  969MOL0     H27896   6.003   8.865   8.719  2.1069  2.4923 -1.3982
  969MOL0     H27897   5.782   9.001   8.700 -1.9547 -1.9666  1.5405
  969MOL0     H27898   5.574   9.065   8.683  0.2566 -2.6966 -0.5160
  969MOL0     H27899   5.439   9.067   8.570  0.1230 -0.1153  0.6463
  969MOL0     H27900   5.532   9.282   8.570 -1.1140 -0.9718 -0.5798
  969MOL0     H27901   5.700   9.225   8.546  0.4019 -2.3819 -1.2544
  969MOL0     H27902   5.496   9.258   8.330 -0.0451  0.5937  0.6198
  969MOL0     H27903   5.623   9.137   8.317 -0.0200  0.2157  0.2566
  969MOL0     H27904   5.791   9.311   8.342  0.1022  2.0015  0.2039
  969MOL0     H27905   5.685   9.325   8.209  0.3240 -0.0433  0.9591
  969MOL0     H27906   5.559   9.648   8.473 -2.2644 -1.0221  1.3705
  969MOL0     H27907   5.660   8.787   8.359  2.0080  1.9199 -2.5107
  969MOL0     H27908   5.900   8.676   8.349  2.8279  1.6262 -0.3471
  970MOL0     O27909   5.691   1.072   0.180  0.0621  0.0799 -0.0461
  970MOL0     C27910   5.689   1.164   0.265 -1.1907  0.4635 -0.1266
  970MOL0     O27911   5.788   1.191   0.358  0.4945  0.5015 -0.2869
  970MOL0     C27912   5.908   1.126   0.356 -0.4150  0.0748  0.0581
  970MOL0     C27913   5.929   0.992   0.391  0.6843 -0.5956  0.8803
  970MOL0     C27914   6.053   0.947   0.367  0.0163 -1.2332  1.4653
  970MOL0     C27915   6.161   1.009   0.305  0.8045 -0.3030 -0.3220
  970MOL0     O27916   6.285   0.940   0.292  0.9212  0.0065 -0.1429
  970MOL0     C27917   6.376   0.969   0.188 -0.1450  0.3204 -0.0641
  970MOL0     C27918   6.466   0.851   0.157  0.7294  0.1617  0.2853
  970MOL0     C27919   6.591   0.889   0.076 -0.3544  0.2570 -0.3359
  970MOL0     C27920   6.678   0.766   0.035  0.3850  0.4078  0.9176
  970MOL0     C27921   6.830   0.794   0.032  1.0600  0.5824 -0.7399
  970MOL0     C27922   6.908   0.690  -0.065 -0.0274  0.0012 -0.2732
  970MOL0     C27923   6.873   0.542  -0.035 -0.2364 -0.1249  0.9520
  970MOL0     C27924   6.950   0.431  -0.104 -0.9800 -0.3698 -0.4831
  970MOL0     N27925   7.083   0.419  -0.042  0.1421 -0.3264  0.3983
  970MOL0     C27926   7.112   0.407   0.098  0.8587  0.3552  0.8947
  970MOL0     C27927   7.241   0.409   0.104 -0.0558  0.6399 -1.9654
  970MOL0     C27928   7.329   0.417   0.239 -0.2839 -0.1970 -0.2139
  970MOL0     C27929   7.255   0.411   0.373 -0.2992 -0.1788  0.4423
  970MOL0     C27930   7.207   0.268   0.398 -0.2068  0.4258 -0.3202
  970MOL0     C27931   7.122   0.252   0.533 -0.1091  0.1369 -0.3629
  970MOL0     O27932   7.047   0.134   0.526  0.7397  0.4059  0.2466
  970MOL0     C27933   6.953   0.103   0.630  0.5331  0.9105 -0.5370
  970MOL0     C27934   6.873  -0.012   0.621 -0.0545 -0.7091 -0.0440
  970MOL0     C27935   6.776  -0.050   0.715 -0.2834  0.7069  0.6302
  970MOL0     C27936   6.752   0.036   0.826  0.4743 -0.2190  0.8134
  970MOL0     C27937   6.645   0.002   0.923  0.2749 -0.2386  0.0553
  970MOL0     O27938   6.581  -0.119   0.908  0.7509  0.5173 -0.0932
  970MOL0     C27939   6.476  -0.162   0.984 -0.0798  0.1888 -0.4032
  970MOL0     C27940   6.402  -0.090   1.077  0.6614 -0.2770 -0.5816
  970MOL0     C27941   6.312  -0.163   1.147 -0.0993  0.0439  0.0383
  970MOL0     C27942   6.276  -0.294   1.128  0.5425  0.0799 -0.6568
  970MOL0     O27943   6.205  -0.358   1.226  0.5868  0.6461 -0.5715
  970MOL0     C27944   6.142  -0.480   1.176 -1.0848  0.0702 -0.7114
  970MOL0     C27945   6.008  -0.512   1.255 -0.4723 -0.3118  0.8368
  970MOL0     C27946   6.040  -0.500   1.405  0.2363 -0.2544  0.1536
  970MOL0     C27947   5.939  -0.570   1.489  0.3518 -0.1196 -0.1165
  970MOL0     C27948   5.934  -0.503   1.625 -0.3387 -0.6612  0.3708
  970MOL0     C27949   5.819  -0.582   1.700  0.0819 -0.0668 -0.2996
  970MOL0     C27950   5.824  -0.549   1.849 -0.6474 -0.1746  0.5835
  970MOL0     C27951   5.734  -0.646   1.920  1.0169 -0.2660 -0.0289
  970MOL0    Cl27952   5.563  -0.625   1.869  0.1266  0.5161  0.1153
  970MOL0     C27953   6.340  -0.357   1.021 -1.3624  0.1611  0.3934
  970MOL0     C27954   6.436  -0.287   0.947  0.6257 -0.1763 -0.5227
  970MOL0     O27955   6.617   0.086   1.010 -0.4683 -1.6704 -0.3968
  970MOL0     C27956   6.830   0.155   0.833  0.0169  0.8130 -0.7420
  970MOL0     C27957   6.930   0.182   0.741  0.0260 -0.3203  0.1258
  970MOL0     N27958   7.291   0.408  -0.023 -0.1103 -0.0156  0.6385
  970MOL0     N27959   7.199   0.429  -0.111  0.4730  0.5444  0.4746
  970MOL0     C27960   6.130   1.138   0.254  0.9866 -0.9888 -0.6554
  970MOL0     C27961   6.000   1.198   0.285 -0.0559  0.6348  0.5991
  970MOL0     C27962   5.559   1.235   0.293  0.7343  0.6576  0.3285
  970MOL0     C27963   5.442   1.195   0.221 -0.4684  0.5917 -0.3642
  970MOL0     C27964   5.322   1.256   0.252 -1.3403  0.2816 -0.6395
  970MOL0     C27965   5.317   1.369   0.341 -0.9093 -0.0359 -0.7025
  970MOL0     O27966   5.205   1.435   0.389  1.2540  0.2225 -0.0688
  970MOL0     C27967   5.092   1.444   0.296 -0.0595 -0.3746  0.2900
  970MOL0     C27968   5.016   1.550   0.347  0.6994 -0.0710  0.6797
  970MOL0     C27969   4.922   1.617   0.240 -0.1455 -0.7540  0.6602
  970MOL0     C27970   4.848   1.738   0.292  0.0609 -0.5426  0.5241
  970MOL0     C27971   4.776   1.717   0.418 -0.0746 -0.3635 -0.0079
  970MOL0     C27972   4.702   1.696   0.512 -0.4592 -0.0559 -0.1921
  970MOL0     C27973   5.429   1.410   0.411 -0.4847  0.0979  0.5032
  970MOL0     C27974   5.552   1.339   0.388  0.1745  0.2661  0.1576
  970MOL0     H27975   5.848   0.941   0.443 -0.0196 -2.4053 -1.7392
  970MOL0     H27976   6.083   0.847   0.399  2.7503 -1.6947 -1.9363
  970MOL0     H27977   6.424   1.065   0.208 -2.0427  0.6539  3.7183
  970MOL0     H27978   6.310   0.981   0.101 -1.3698 -1.5696  0.5292
  970MOL0     H27979   6.400   0.774   0.116 -0.6980  2.0602 -1.1845
  970MOL0     H27980   6.499   0.818   0.257  0.8869 -0.6424 -0.0232
  970MOL0     H27981   6.651   0.960   0.135  2.2175 -3.8210  2.5288
  970MOL0     H27982   6.551   0.949  -0.005 -3.7073  1.7639  2.1768
  970MOL0     H27983   6.656   0.683   0.103 -3.2043  0.8778  0.5177
  970MOL0     H27984   6.647   0.727  -0.063 -0.1442 -1.5224  1.8042
  970MOL0     H27985   6.863   0.799   0.136  0.1291  0.8423 -0.4507
  970MOL0     H27986   6.854   0.896   0.002  0.5307  1.6081  2.0603
  970MOL0     H27987   7.017   0.694  -0.054  0.0272  3.3440 -1.0664
  970MOL0     H27988   6.891   0.717  -0.169 -0.5923  0.3648 -0.0940
  970MOL0     H27989   6.868   0.521   0.073 -3.2199 -1.0355  0.7501
  970MOL0     H27990   6.774   0.515  -0.074 -0.1078 -0.2888  0.7359
  970MOL0     H27991   6.959   0.453  -0.211 -2.4713 -0.1336 -0.5762
  970MOL0     H27992   6.889   0.340  -0.097 -2.9096  0.5046 -3.7182
  970MOL0     H27993   7.052   0.432   0.185  0.7698 -1.1231  1.2704
  970MOL0     H27994   7.382   0.513   0.243 -2.2378  0.9092  1.0261
  970MOL0     H27995   7.405   0.339   0.230 -1.6622 -2.3169  4.0294
  970MOL0     H27996   7.174   0.481   0.351 -1.1934 -2.2612 -4.2590
  970MOL0     H27997   7.322   0.441   0.454 -0.7673  1.4791  0.2517
  970MOL0     H27998   7.141   0.248   0.314  1.3964 -0.1345 -1.4770
  970MOL0     H27999   7.289   0.197   0.408  0.3039  1.2069  1.5884
  970MOL0     H28000   7.051   0.334   0.543  0.3905  1.0213 -3.2941
  970MOL0     H28001   7.188   0.250   0.620 -0.1172 -1.6875 -0.3626
  970MOL0     H28002   6.906  -0.058   0.528  0.9755 -1.7014  0.7760
  970MOL0     H28003   6.719  -0.142   0.706 -2.3439  1.6254  3.1189
  970MOL0     H28004   6.428   0.010   1.110 -0.0501 -0.3191  0.1541
  970MOL0     H28005   6.261  -0.102   1.221 -0.9500  0.3187 -0.7383
  970MOL0     H28006   6.212  -0.564   1.174  0.3837  0.9476  3.5650
  970MOL0     H28007   6.109  -0.453   1.075  1.9255  2.1158 -1.2891
  970MOL0     H28008   5.954  -0.603   1.228 -3.8282  1.6312  0.4927
  970MOL0     H28009   5.941  -0.433   1.220  2.2891  1.6050 -0.5291
  970MOL0     H28010   6.021  -0.394   1.426 -1.4374 -0.2447 -1.2043
  970MOL0     H28011   6.138  -0.534   1.439 -0.5224 -0.7017  2.0609
  970MOL0     H28012   5.841  -0.575   1.440  0.4538 -1.7355 -0.2017
  970MOL0     H28013   5.967  -0.674   1.504 -3.6066 -1.2556  0.5329
  970MOL0     H28014   5.914  -0.396   1.633 -0.0282 -0.5077 -0.7501
  970MOL0     H28015   6.032  -0.530   1.666  0.4416 -2.3836 -2.3872
  970MOL0     H28016   5.855  -0.685   1.689  0.8119  0.0474  0.7976
  970MOL0     H28017   5.720  -0.568   1.656  1.1231  0.2408 -2.6715
  970MOL0     H28018   5.925  -0.567   1.887 -1.4596 -0.4434  2.7650
  970MOL0     H28019   5.797  -0.445   1.868 -2.4442 -0.6098  0.6439
  970MOL0     H28020   5.728  -0.612   2.024  0.5637  3.3268 -1.1154
  970MOL0     H28021   5.762  -0.751   1.904 -0.8377 -0.4400 -2.9517
  970MOL0     H28022   6.335  -0.463   0.996 -1.1311 -0.3001  2.1259
  970MOL0     H28023   6.493  -0.344   0.874  0.6155 -0.6128 -0.1902
  970MOL0     H28024   6.805   0.225   0.913  0.6363  1.4485 -1.0897
  970MOL0     H28025   6.986   0.274   0.750 -0.8367  0.1347  0.9792
  970MOL0     H28026   6.209   1.203   0.217  0.8595  1.4224  2.8429
  970MOL0     H28027   5.968   1.301   0.273 -2.2218  0.3090  2.7768
  970MOL0     H28028   5.451   1.114   0.150 -1.5718 -1.0467  1.2880
  970MOL0     H28029   5.230   1.216   0.211 -0.2678 -4.1208  0.6640
  970MOL0     H28030   5.037   1.350   0.289  2.9182 -2.1422 -1.6244
  970MOL0     H28031   5.127   1.474   0.197 -2.2844  2.1217  0.1197
  970MOL0     H28032   4.965   1.500   0.431  0.4488  1.7944  1.6925
  970MOL0     H28033   5.081   1.627   0.388  1.4377 -0.8067  0.9325
  970MOL0     H28034   4.864   1.534   0.198 -1.9298  1.0545 -0.5952
  970MOL0     H28035   4.984   1.656   0.159 -3.0893  1.3083 -0.7510
  970MOL0     H28036   4.910   1.827   0.308 -1.5487  0.7966 -0.3792
  970MOL0     H28037   4.782   1.772   0.212 -0.1424 -0.6819  0.6313
  970MOL0     H28038   4.634   1.683   0.594 -2.2178 -3.1088 -1.9563
  970MOL0     H28039   5.427   1.495   0.477 -0.0581  2.4828 -2.3560
  970MOL0     H28040   5.631   1.370   0.455  0.4619  0.6699 -0.3575
  971MOL0     O28041   1.243   9.025   0.746 -0.3517 -0.2621  0.7997
  971MOL0     C28042   1.281   9.027   0.627  0.2495 -0.6077  0.3367
  971MOL0     O28043   1.205   8.993   0.519  0.6776  0.1869  0.3447
  971MOL0     C28044   1.069   8.980   0.525 -0.0020 -0.0315 -0.0820
  971MOL0     C28045   0.985   8.997   0.630 -1.0181 -0.2999  0.0581
  971MOL0     C28046   0.846   8.993   0.616  0.1803  0.4547  0.5468
  971MOL0     C28047   0.791   8.958   0.489 -0.0492  0.4188 -0.1053
  971MOL0     O28048   0.660   8.943   0.451  0.6434  0.1444 -0.1878
  971MOL0     C28049   0.575   9.029   0.520  0.3572 -0.1997  0.0387
  971MOL0     C28050   0.556   9.161   0.440 -0.2638  0.9145 -0.4029
  971MOL0     C28051   0.487   9.142   0.310 -0.6159 -0.5424  0.3237
  971MOL0     C28052   0.347   9.084   0.317  0.3189  0.0503  0.1209
  971MOL0     C28053   0.263   9.098   0.186  0.2252 -0.2883 -0.2677
  971MOL0     C28054   0.112   9.057   0.202 -0.1988 -1.2848 -0.0727
  971MOL0     C28055   0.031   9.142   0.303  0.3797 -0.4914  1.0454
  971MOL0     C28056  -0.003   9.277   0.246 -0.5844 -0.7326  0.0367
  971MOL0     N28057  -0.146   9.295   0.230  0.2595 -0.0597 -0.1253
  971MOL0     C28058  -0.230   9.242   0.128  0.6811 -0.1434 -1.0667
  971MOL0     C28059  -0.360   9.272   0.162 -0.8238  0.4857  0.0399
  971MOL0     C28060  -0.477   9.275   0.073  0.8842 -0.0117  0.5420
  971MOL0     C28061  -0.517   9.135   0.022 -0.1650  0.9565 -0.1257
  971MOL0     C28062  -0.569   9.059   0.141 -0.7858  0.0393  1.0007
  971MOL0     C28063  -0.643   8.940   0.086 -0.4322  0.0199  0.7680
  971MOL0     O28064  -0.784   8.972   0.062 -0.6129  0.2349 -0.1734
  971MOL0     C28065  -0.877   8.873   0.073 -1.3599 -0.8403 -0.0367
  971MOL0     C28066  -1.009   8.902   0.037 -0.4719  0.1585  0.9970
  971MOL0     C28067  -1.118   8.814   0.063  0.3727 -0.1424  0.3289
  971MOL0     C28068  -1.095   8.694   0.123  0.6393  0.3703  0.0769
  971MOL0     C28069  -1.212   8.599   0.152  0.0659  0.3316 -0.5046
  971MOL0     O28070  -1.335   8.631   0.103  0.3490  0.8886  0.0943
  971MOL0     C28071  -1.439   8.541   0.121 -0.5266  0.8220 -0.2778
  971MOL0     C28072  -1.431   8.408   0.094  0.1567  0.0097 -0.4507
  971MOL0     C28073  -1.540   8.323   0.109 -0.3992 -0.3808  0.2629
  971MOL0     C28074  -1.658   8.369   0.160  0.7668 -1.0219 -0.1538
  971MOL0     O28075  -1.771   8.282   0.163 -0.4211 -0.1053 -0.1017
  971MOL0     C28076  -1.818   8.263   0.297  0.3331 -0.2800  0.1448
  971MOL0     C28077  -1.954   8.189   0.291 -0.4434  0.4494  0.1579
  971MOL0     C28078  -2.069   8.266   0.229  0.0599  0.3158  0.8270
  971MOL0     C28079  -2.163   8.165   0.174 -0.2665 -0.7792  0.0556
  971MOL0     C28080  -2.298   8.228   0.159  0.9288  0.0608 -0.0831
  971MOL0     C28081  -2.402   8.118   0.122  0.0670  0.1839  0.5076
  971MOL0     C28082  -2.544   8.175   0.092 -0.3361  0.1815  0.4605
  971MOL0     C28083  -2.623   8.060   0.022 -0.2013 -0.1403 -0.7257
  971MOL0    Cl28084  -2.683   7.920   0.119  0.2423  0.2245  0.0353
  971MOL0     C28085  -1.670   8.503   0.187  0.2600  0.6048 -0.0681
  971MOL0     C28086  -1.562   8.589   0.174  0.3045  0.7852 -0.0654
  971MOL0     O28087  -1.190   8.501   0.222  0.4780  0.5004  0.3378
  971MOL0     C28088  -0.961   8.658   0.151 -0.8176 -0.8006  0.1940
  971MOL0     C28089  -0.860   8.758   0.139  0.7458 -0.1400  0.4245
  971MOL0     N28090  -0.348   9.325   0.290 -0.2518 -0.1070 -0.2242
  971MOL0     N28091  -0.223   9.330   0.332 -0.2673 -0.3431  0.1657
  971MOL0     C28092   0.880   8.941   0.385 -0.0914  0.5508  0.1180
  971MOL0     C28093   1.013   8.949   0.401  0.9825  0.0630 -0.4540
  971MOL0     C28094   1.422   9.048   0.597  0.5871 -0.1467 -0.0225
  971MOL0     C28095   1.513   9.064   0.703 -0.1595  1.1984 -0.1897
  971MOL0     C28096   1.650   9.081   0.676  1.1736  1.0251 -0.5055
  971MOL0     C28097   1.697   9.091   0.549  0.4554  0.5704 -0.0340
  971MOL0     O28098   1.830   9.116   0.525  0.4643  0.6791 -0.1330
  971MOL0     C28099   1.860   9.247   0.485 -0.2550 -0.9478  1.0505
  971MOL0     C28100   1.962   9.246   0.371 -0.3030  0.7713 -1.2351
  971MOL0     C28101   1.896   9.206   0.231 -0.4060  0.3601  0.8506
  971MOL0     C28102   1.988   9.223   0.107 -0.0256 -0.3099 -0.7785
  971MOL0     C28103   1.975   9.357   0.048 -0.2784 -0.2241 -1.1819
  971MOL0     C28104   1.946   9.471   0.012 -0.2059  0.5387  0.2375
  971MOL0     C28105   1.610   9.064   0.436  0.6449 -0.5617 -0.8353
  971MOL0     C28106   1.472   9.038   0.466  0.2028 -0.5083  1.2645
  971MOL0     H28107   1.012   8.998   0.735 -0.6279 -0.7008 -0.0360
  971MOL0     H28108   0.788   8.992   0.707  1.6976 -1.9444  1.5968
  971MOL0     H28109   0.600   9.068   0.620 -0.9224  2.3021 -0.5353
  971MOL0     H28110   0.478   8.980   0.531  0.1835 -0.0128 -0.6500
  971MOL0     H28111   0.658   9.199   0.425  0.6152 -1.2807 -0.2682
  971MOL0     H28112   0.497   9.232   0.499  1.0115  0.7958  1.0770
  971MOL0     H28113   0.544   9.080   0.240  1.7384  0.6915  1.0098
  971MOL0     H28114   0.490   9.243   0.270  1.0706 -0.6164  0.1895
  971MOL0     H28115   0.364   8.979   0.340  0.2867  0.3847  1.8331
  971MOL0     H28116   0.286   9.132   0.394 -1.8114  1.5525 -2.3519
  971MOL0     H28117   0.311   9.037   0.110 -0.6782 -1.3782  0.0102
  971MOL0     H28118   0.269   9.204   0.159  1.3048 -0.8509 -2.4072
  971MOL0     H28119   0.114   8.957   0.246 -1.4891 -1.6920 -0.8841
  971MOL0     H28120   0.058   9.041   0.108 -1.0304 -0.3836  0.2426
  971MOL0     H28121  -0.067   9.093   0.306  0.4146 -0.8783 -1.8961
  971MOL0     H28122   0.074   9.155   0.403 -2.1432 -2.7159  2.5965
  971MOL0     H28123   0.051   9.287   0.151 -1.5050 -0.4561 -0.4703
  971MOL0     H28124   0.023   9.363   0.308  0.3332  0.1263 -1.4662
  971MOL0     H28125  -0.194   9.195   0.037  4.5621 -5.2851  2.5271
  971MOL0     H28126  -0.448   9.342  -0.008 -1.2326  0.2920 -0.0150
  971MOL0     H28127  -0.561   9.317   0.130 -0.8364 -2.0537 -0.3839
  971MOL0     H28128  -0.432   9.075  -0.013 -2.2764 -2.0046 -0.5355
  971MOL0     H28129  -0.591   9.142  -0.058 -1.1562 -0.8042  0.5739
  971MOL0     H28130  -0.488   9.022   0.204 -2.0245 -3.2878  0.8488
  971MOL0     H28131  -0.626   9.114   0.215  0.9261  0.4758  2.0425
  971MOL0     H28132  -0.629   8.869   0.168  1.7888  1.5892  1.8729
  971MOL0     H28133  -0.590   8.907  -0.004 -0.0604 -0.4151  1.1411
  971MOL0     H28134  -1.019   8.985  -0.032  0.6245 -0.0301  0.5855
  971MOL0     H28135  -1.222   8.841   0.044  0.4929 -1.2182 -2.3117
  971MOL0     H28136  -1.338   8.362   0.063  0.1225  0.3289 -1.0533
  971MOL0     H28137  -1.524   8.220   0.080  1.3833 -0.0005 -0.2376
  971MOL0     H28138  -1.837   8.359   0.346 -1.0525 -0.3193 -0.2569
  971MOL0     H28139  -1.747   8.200   0.352 -0.2351  0.1207  1.3802
  971MOL0     H28140  -1.976   8.157   0.394  1.3630 -1.4087  0.0436
  971MOL0     H28141  -1.949   8.094   0.238  0.7558  1.6197 -1.9424
  971MOL0     H28142  -2.037   8.332   0.147 -1.2407 -1.6749 -1.4049
  971MOL0     H28143  -2.116   8.339   0.295  0.2719  3.2435 -1.9572
  971MOL0     H28144  -2.128   8.131   0.076 -2.4847  2.7428 -2.2219
  971MOL0     H28145  -2.166   8.087   0.251  2.9352 -0.3248  0.7704
  971MOL0     H28146  -2.280   8.299   0.078  1.0671 -0.4049 -0.4661
  971MOL0     H28147  -2.325   8.285   0.248 -2.2578  0.8338 -1.4064
  971MOL0     H28148  -2.405   8.048   0.206 -0.7782  1.8001  1.8981
  971MOL0     H28149  -2.364   8.058   0.039  4.8284 -0.0533  2.5174
  971MOL0     H28150  -2.600   8.196   0.184 -0.5075 -2.4394  1.0388
  971MOL0     H28151  -2.539   8.261   0.025  0.7698  1.0084  1.5507
  971MOL0     H28152  -2.563   8.012  -0.057  0.9370 -3.0257  1.7124
  971MOL0     H28153  -2.714   8.106  -0.019  0.7127  0.9744 -1.5965
  971MOL0     H28154  -1.755   8.556   0.228 -1.4006 -0.6519 -1.6969
  971MOL0     H28155  -1.582   8.693   0.199 -1.3739  1.9039 -4.8569
  971MOL0     H28156  -0.938   8.561   0.194  3.6339  0.6896  1.6870
  971MOL0     H28157  -0.762   8.723   0.170 -0.5094 -2.1258  2.4633
  971MOL0     H28158   0.831   8.901   0.297  0.1597 -0.8891  0.6120
  971MOL0     H28159   1.078   8.933   0.315  1.5808 -0.2222  0.0375
  971MOL0     H28160   1.477   9.042   0.803  0.9414 -1.6324 -0.3071
  971MOL0     H28161   1.717   9.099   0.758 -2.4738  0.9239  2.7712
  971MOL0     H28162   1.895   9.307   0.570  0.1947  1.4261 -0.6996
  971MOL0     H28163   1.770   9.301   0.454  0.1496 -0.6797  0.3177
  971MOL0     H28164   2.026   9.335   0.375  2.2673 -1.0169  2.2180
  971MOL0     H28165   2.030   9.162   0.390  1.2674  1.6957 -2.4980
  971MOL0     H28166   1.804   9.261   0.206 -0.0952  0.1729 -0.8408
  971MOL0     H28167   1.873   9.100   0.237  0.1908  0.1262 -0.6722
  971MOL0     H28168   2.090   9.216   0.146 -0.9644 -1.5527  1.6370
  971MOL0     H28169   1.962   9.150   0.030 -2.6221  1.2431 -1.4805
  971MOL0     H28170   1.922   9.567  -0.030  0.2924 -1.0403 -4.1335
  971MOL0     H28171   1.651   9.079   0.337  1.4794  1.8141 -0.2024
  971MOL0     H28172   1.401   9.024   0.385  2.1833  0.0200 -0.6658
  972MOL0     O28173   4.352   3.140   9.787 -0.6153 -0.0018 -0.5576
  972MOL0     C28174   4.280   3.071   9.861  0.2649 -0.4420 -0.3554
  972MOL0     O28175   4.326   2.977   9.948  0.3592  0.2810 -0.7407
  972MOL0     C28176   4.453   2.978   9.974 -0.1632 -1.7347 -0.0605
  972MOL0     C28177   4.484   2.993  10.106 -0.0935 -0.5437 -0.1922
  972MOL0     C28178   4.617   3.004  10.147 -0.4157 -0.5048 -0.8853
  972MOL0     C28179   4.721   2.997  10.054  0.4597  0.5390 -0.0507
  972MOL0     O28180   4.844   3.030  10.091  0.3501  0.2983 -0.3989
  972MOL0     C28181   4.932   2.917  10.117 -1.1179  0.2159  0.6074
  972MOL0     C28182   5.075   2.939  10.071 -0.5829 -0.0729 -0.5646
  972MOL0     C28183   5.187   2.900  10.181  0.9777 -0.3150  0.4592
  972MOL0     C28184   5.161   2.762  10.249 -0.0198 -0.5111 -0.3225
  972MOL0     C28185   5.247   2.750  10.376  0.2125 -0.1690  0.7572
  972MOL0     C28186   5.240   2.609  10.425 -0.6988 -0.6228 -0.4620
  972MOL0     C28187   5.327   2.600  10.564  0.5240  0.3125 -0.1621
  972MOL0     C28188   5.344   2.449  10.606  0.0716 -0.1163 -0.9141
  972MOL0     N28189   5.478   2.412  10.658 -0.0118 -0.1730 -0.4214
  972MOL0     C28190   5.540   2.290  10.673 -0.4999 -1.0380 -0.5933
  972MOL0     C28191   5.659   2.316  10.734  0.1259  0.0843  0.0787
  972MOL0     C28192   5.746   2.217  10.808  0.8394 -0.1268 -0.3505
  972MOL0     C28193   5.757   2.242  10.955 -0.0661 -0.0494  0.2240
  972MOL0     C28194   5.619   2.210  11.016  0.1832 -0.1895  0.0697
  972MOL0     C28195   5.581   2.298  11.140  1.1837  0.5129  1.2118
  972MOL0     O28196   5.443   2.285  11.180  0.2459  0.0742 -0.6190
  972MOL0     C28197   5.349   2.362  11.117  0.0424 -0.5710 -0.5827
  972MOL0     C28198   5.370   2.435  11.005  0.8594  0.1721  0.9561
  972MOL0     C28199   5.268   2.495  10.935  0.7750 -0.3715  0.5414
  972MOL0     C28200   5.139   2.498  10.990  0.3482 -0.0565 -0.6660
  972MOL0     C28201   5.029   2.584  10.944 -0.4218 -0.2007  0.6364
  972MOL0     O28202   5.046   2.616  10.816  0.0811 -0.3563  0.3706
  972MOL0     C28203   4.949   2.699  10.742 -0.3664 -0.2401 -1.0099
  972MOL0     C28204   4.899   2.817  10.797 -0.2982  0.1300  0.1265
  972MOL0     C28205   4.798   2.890  10.733 -0.0628  1.1661 -0.3076
  972MOL0     C28206   4.757   2.855  10.603 -0.6507 -0.0678 -0.8330
  972MOL0     O28207   4.673   2.931  10.531  0.2001  0.2024  0.4028
  972MOL0     C28208   4.597   3.032  10.595  0.3914  0.3553 -0.4100
  972MOL0     C28209   4.475   3.055  10.516  1.1646  0.0106  0.2195
  972MOL0     C28210   4.390   2.927  10.496 -0.1756 -0.1661 -0.0304
  972MOL0     C28211   4.237   2.950  10.498 -0.9327  0.5086  0.0839
  972MOL0     C28212   4.145   2.845  10.438 -0.3999 -0.3503 -0.4652
  972MOL0     C28213   4.153   2.701  10.495  0.4831  0.8695 -0.5700
  972MOL0     C28214   4.115   2.703  10.650  0.2965  1.3634 -0.2544
  972MOL0     C28215   4.173   2.573  10.717  0.2412  0.2022 -0.4499
  972MOL0    Cl28216   4.086   2.426  10.671  0.1325 -0.0270  0.7222
  972MOL0     C28217   4.820   2.737  10.543  0.0544 -0.4701  0.1100
  972MOL0     C28218   4.912   2.659  10.614 -0.1867 -0.4354  0.2269
  972MOL0     O28219   4.931   2.606  11.010  0.5673  0.0693 -0.1683
  972MOL0     C28220   5.114   2.428  11.113 -0.6151  0.6742 -0.4505
  972MOL0     C28221   5.221   2.355  11.169 -0.9019 -0.0678  0.8618
  972MOL0     N28222   5.682   2.451  10.735 -0.7261  0.0756 -0.6688
  972MOL0     N28223   5.571   2.503  10.692 -0.2578  0.1487  0.2539
  972MOL0     C28224   4.688   2.975   9.915 -0.4395 -0.4339 -0.6492
  972MOL0     C28225   4.554   2.957   9.883  0.1092 -0.8639  0.0526
  972MOL0     C28226   4.144   3.107   9.864  1.3565  0.2063  1.0027
  972MOL0     C28227   4.054   3.019   9.924 -0.7543  0.1909 -0.4171
  972MOL0     C28228   3.921   3.033   9.921 -0.3798  1.1613  0.0940
  972MOL0     C28229   3.859   3.143   9.862  0.0189 -0.6577  0.1022
  972MOL0     O28230   3.721   3.150   9.851 -0.2137  0.2490  0.1755
  972MOL0     C28231   3.680   3.076   9.732  0.1209  0.0161  0.0193
  972MOL0     C28232   3.644   3.176   9.618 -0.0877  0.6171  0.1118
  972MOL0     C28233   3.542   3.277   9.657 -0.3086  0.7363 -0.1983
  972MOL0     C28234   3.514   3.378   9.538  0.2824 -0.5358 -0.3860
  972MOL0     C28235   3.367   3.392   9.519 -0.4396  0.0318  0.3108
  972MOL0     C28236   3.246   3.387   9.514  0.4794  0.5946  0.5240
  972MOL0     C28237   3.948   3.240   9.800  1.2119  0.4750 -0.2233
  972MOL0     C28238   4.085   3.220   9.795 -0.6982 -0.2853 -0.2179
  972MOL0     H28239   4.400   3.018  10.170 -0.8421 -2.3891 -0.3841
  972MOL0     H28240   4.645   3.042  10.244  2.0776  1.7131 -2.3566
  972MOL0     H28241   4.902   2.822  10.072  2.0093  0.4632 -2.4509
  972MOL0     H28242   4.934   2.914  10.226 -3.1340  1.3305  0.7344
  972MOL0     H28243   5.080   3.046  10.050  1.4125 -0.2655 -1.3399
  972MOL0     H28244   5.101   2.886   9.979 -1.1771  0.8024 -1.2546
  972MOL0     H28245   5.197   2.987  10.245 -2.5590  1.3592 -0.9849
  972MOL0     H28246   5.283   2.888  10.129  0.8844 -0.1218  0.2418
  972MOL0     H28247   5.055   2.756  10.278 -0.5128  0.6503 -1.7363
  972MOL0     H28248   5.181   2.687  10.172 -0.8334 -0.7293 -0.3340
  972MOL0     H28249   5.213   2.814  10.458 -1.0690  0.2764 -0.1073
  972MOL0     H28250   5.350   2.779  10.354  0.3319  0.6696  2.2555
  972MOL0     H28251   5.282   2.545  10.348 -1.5217 -1.1210 -0.4998
  972MOL0     H28252   5.137   2.579  10.447 -1.2003  1.3262  0.1352
  972MOL0     H28253   5.427   2.643  10.553  0.7921  0.0388  1.0720
  972MOL0     H28254   5.270   2.651  10.641 -0.7556 -1.0777 -0.1342
  972MOL0     H28255   5.327   2.393  10.514 -1.2866 -3.7125  1.2998
  972MOL0     H28256   5.269   2.417  10.679 -0.5604  0.8757 -1.0998
  972MOL0     H28257   5.486   2.196  10.669 -2.6294 -0.0132  1.5331
  972MOL0     H28258   5.845   2.217  10.761  0.4769 -1.8216 -1.1821
  972MOL0     H28259   5.711   2.115  10.788 -1.4417  1.0977 -3.4029
  972MOL0     H28260   5.779   2.348  10.968 -1.6166  0.2312  0.7657
  972MOL0     H28261   5.834   2.176  10.996 -2.2380 -1.4843  2.2345
  972MOL0     H28262   5.537   2.217  10.945  1.4628  0.0584 -1.4207
  972MOL0     H28263   5.626   2.103  11.042  1.1496 -0.1925 -0.1754
  972MOL0     H28264   5.614   2.401  11.126  2.2188  0.0510  0.0645
  972MOL0     H28265   5.640   2.253  11.220  1.4656 -0.0603  0.6883
  972MOL0     H28266   5.465   2.441  10.954  1.9155 -3.0394  2.2734
  972MOL0     H28267   5.295   2.559  10.851 -0.4640  0.5884  0.8485
  972MOL0     H28268   4.934   2.855  10.893  4.0339 -1.4217 -0.6007
  972MOL0     H28269   4.747   2.969  10.786 -0.8267  0.3270  0.2306
  972MOL0     H28270   4.661   3.121  10.595 -0.8420  1.2646 -0.0604
  972MOL0     H28271   4.578   3.013  10.701  2.5795  2.2190  0.4150
  972MOL0     H28272   4.504   3.100  10.421  3.4910  2.0493  1.7746
  972MOL0     H28273   4.420   3.129  10.575  0.9140 -0.2966  0.3706
  972MOL0     H28274   4.429   2.849  10.562  2.0658  2.6783  2.2992
  972MOL0     H28275   4.414   2.890  10.396 -3.9452 -2.0435 -0.4399
  972MOL0     H28276   4.212   2.985  10.598 -0.4897 -0.9694  0.7420
  972MOL0     H28277   4.207   3.033  10.434  0.0476  1.5929  0.9773
  972MOL0     H28278   4.169   2.848  10.331 -1.4737 -1.7082 -0.7663
  972MOL0     H28279   4.042   2.881  10.440  0.1554  1.4411 -1.6226
  972MOL0     H28280   4.255   2.662  10.485 -0.8671 -3.2563 -0.4794
  972MOL0     H28281   4.088   2.641  10.430  0.6492  2.6486 -2.4741
  972MOL0     H28282   4.145   2.791  10.707 -1.6798 -0.2363  3.6265
  972MOL0     H28283   4.007   2.707  10.665  0.6059 -0.2376  3.4236
  972MOL0     H28284   4.156   2.579  10.825  1.5477 -2.5507  0.0047
  972MOL0     H28285   4.278   2.546  10.709  0.3018 -1.3358  3.2640
  972MOL0     H28286   4.788   2.719  10.441 -2.5613 -3.8149  1.3525
  972MOL0     H28287   4.961   2.576  10.566 -1.3831 -3.4741  3.7507
  972MOL0     H28288   5.021   2.434  11.168  0.4480 -0.2161  1.5384
  972MOL0     H28289   5.194   2.312  11.265  0.5126 -0.9670  0.8890
  972MOL0     H28290   4.749   2.964   9.826 -3.0741 -1.8050 -2.4359
  972MOL0     H28291   4.523   2.941   9.780 -1.8321 -1.3299  0.6699
  972MOL0     H28292   4.099   2.942   9.986  1.1512  1.6085  0.0248
  972MOL0     H28293   3.866   2.970   9.989  0.3949 -0.9006 -1.1005
  972MOL0     H28294   3.586   3.026   9.758  0.3896 -0.4504  0.0977
  972MOL0     H28295   3.751   3.000   9.699  0.6100 -0.2836  1.6433
  972MOL0     H28296   3.739   3.226   9.596  0.7853  0.0344  2.2921
  972MOL0     H28297   3.601   3.118   9.535  0.8570 -0.4966  0.3690
  972MOL0     H28298   3.564   3.335   9.747  2.0400 -2.9557  1.8976
  972MOL0     H28299   3.456   3.215   9.683  1.7060 -1.8376  0.9019
  972MOL0     H28300   3.547   3.478   9.569 -1.7098 -0.7365  2.8506
  972MOL0     H28301   3.552   3.348   9.440  1.1525 -3.7270  0.8054
  972MOL0     H28302   3.139   3.382   9.513  0.4092 -0.0725 -3.2855
  972MOL0     H28303   3.896   3.329   9.764 -2.1374 -1.6463 -1.1192
  972MOL0     H28304   4.147   3.295   9.748 -0.6305 -0.3259 -0.1928
  973MOL0     O28305   5.811  11.290   0.716 -0.1705 -0.7041 -0.1716
  973MOL0     C28306   5.832  11.245   0.606 -1.3579 -0.1121 -0.0591
  973MOL0     O28307   5.757  11.246   0.493 -0.3858  0.2050  0.3356
  973MOL0     C28308   5.653  11.333   0.506 -0.2664  0.3851 -0.3513
  973MOL0     C28309   5.647  11.430   0.410  0.2462 -0.8150  0.5235
  973MOL0     C28310   5.533  11.503   0.378  0.8107  0.7204 -0.3251
  973MOL0     C28311   5.416  11.480   0.452 -0.4382  0.5049  0.2122
  973MOL0     O28312   5.303  11.541   0.407 -0.5363 -0.4202 -0.1421
  973MOL0     C28313   5.180  11.487   0.405 -0.2021 -0.2337 -0.3230
  973MOL0     C28314   5.182  11.346   0.331  0.4970  0.9226  0.7118
  973MOL0     C28315   5.042  11.270   0.355 -0.4234 -0.2662 -0.1379
  973MOL0     C28316   5.048  11.124   0.298  1.0238 -0.0252 -0.2139
  973MOL0     C28317   4.908  11.054   0.302 -0.1209  0.4485  0.2218
  973MOL0     C28318   4.914  10.917   0.224  0.8205  0.6723 -0.5708
  973MOL0     C28319   4.818  10.812   0.281 -0.2328  0.0910  0.5344
  973MOL0     C28320   4.675  10.863   0.284 -0.2525 -0.5272  0.4042
  973MOL0     N28321   4.581  10.768   0.229  0.4620 -0.4209 -0.7842
  973MOL0     C28322   4.456  10.814   0.186 -0.1800  0.7584  0.1835
  973MOL0     C28323   4.374  10.712   0.204 -0.0484  0.8889  0.3565
  973MOL0     C28324   4.224  10.713   0.176 -0.0800  0.7561 -0.2811
  973MOL0     C28325   4.138  10.696   0.297  1.1236  0.0377  0.1593
  973MOL0     C28326   3.987  10.715   0.264 -0.1857 -0.2708  0.1400
  973MOL0     C28327   3.888  10.720   0.387 -0.7691  0.1632  0.0373
  973MOL0     O28328   3.750  10.685   0.357 -0.4109 -0.0132  0.1785
  973MOL0     C28329   3.663  10.777   0.316 -0.0200  0.3118  0.0606
  973MOL0     C28330   3.535  10.733   0.294  0.5974  0.4727 -0.3246
  973MOL0     C28331   3.425  10.824   0.277 -1.0077  0.6087  0.4685
  973MOL0     C28332   3.451  10.960   0.272  0.7001 -0.4436  0.8222
  973MOL0     C28333   3.335  11.060   0.264 -1.3111  0.3535  0.3188
  973MOL0     O28334   3.213  11.015   0.247  0.0180 -0.0728 -0.9338
  973MOL0     C28335   3.091  11.081   0.256  0.6259 -0.1367 -0.2314
  973MOL0     C28336   3.065  11.223   0.293 -0.1367  0.0252 -0.0336
  973MOL0     C28337   2.932  11.274   0.311  0.2166 -0.1061  0.6949
  973MOL0     C28338   2.822  11.194   0.289 -0.0045 -0.8022 -0.0008
  973MOL0     O28339   2.698  11.242   0.310  1.2871 -0.0854 -0.2118
  973MOL0     C28340   2.580  11.158   0.297  0.3646  0.4577  0.5023
  973MOL0     C28341   2.448  11.218   0.346 -1.0739 -0.2615  0.2896
  973MOL0     C28342   2.327  11.118   0.346 -0.3840 -0.1182  0.3990
  973MOL0     C28343   2.204  11.187   0.406 -0.8627 -0.4024 -0.3420
  973MOL0     C28344   2.111  11.086   0.456  0.7062  0.0424  0.1436
  973MOL0     C28345   1.988  11.163   0.504  0.6285  0.7926  0.0626
  973MOL0     C28346   1.876  11.192   0.414  0.2549 -0.2973 -0.3190
  973MOL0     C28347   1.802  11.072   0.353  0.8108  1.4648  0.1835
  973MOL0    Cl28348   1.773  10.929   0.463  0.1415 -0.5899 -0.1667
  973MOL0     C28349   2.844  11.066   0.237 -0.0297  0.2701 -0.0380
  973MOL0     C28350   2.974  11.006   0.232  0.1392  1.0330 -0.3009
  973MOL0     O28351   3.361  11.171   0.294  0.3643  0.2143 -0.5493
  973MOL0     C28352   3.581  11.003   0.283 -0.2599 -0.1222 -0.2712
  973MOL0     C28353   3.692  10.914   0.296  0.0032 -1.0446  0.3472
  973MOL0     N28354   4.441  10.604   0.263  0.6259 -0.2329 -0.0708
  973MOL0     N28355   4.559  10.641   0.282 -0.6001 -0.3995 -0.1708
  973MOL0     C28356   5.426  11.390   0.559 -0.1797 -0.0839  0.8972
  973MOL0     C28357   5.543  11.318   0.588 -0.1330  0.9786 -0.4914
  973MOL0     C28358   5.968  11.184   0.587  0.4301 -0.5211  1.1173
  973MOL0     C28359   6.020  11.149   0.463 -0.7534 -0.6692 -0.3805
  973MOL0     C28360   6.147  11.091   0.450 -0.5252 -0.3331 -0.4345
  973MOL0     C28361   6.217  11.056   0.569  0.2089  0.2402  0.1767
  973MOL0     O28362   6.342  10.999   0.567 -0.3203  0.2096  0.0135
  973MOL0     C28363   6.415  11.003   0.444  0.4567 -1.7820 -0.7975
  973MOL0     C28364   6.565  10.983   0.455 -0.3545  0.2002 -0.2022
  973MOL0     C28365   6.662  11.045   0.345  1.0487 -0.2113 -0.2731
  973MOL0     C28366   6.797  10.977   0.331 -0.3132 -0.1203  0.3472
  973MOL0     C28367   6.881  10.995   0.448 -0.4121 -0.4721  0.2441
  973MOL0     C28368   6.945  11.022   0.546  0.4050 -0.2746  0.1469
  973MOL0     C28369   6.158  11.084   0.693 -0.6680 -0.6782 -0.5765
  973MOL0     C28370   6.037  11.155   0.706 -0.1863  1.3954  0.0498
  973MOL0     H28371   5.734  11.446   0.348  0.6101 -3.1321  0.3719
  973MOL0     H28372   5.526  11.582   0.304  1.1952  0.1788 -0.9606
  973MOL0     H28373   5.111  11.554   0.353  1.9007  1.9585 -0.4671
  973MOL0     H28374   5.158  11.476   0.512  3.5996  0.7408  0.7475
  973MOL0     H28375   5.265  11.285   0.366 -0.7782  0.8472  3.9020
  973MOL0     H28376   5.190  11.371   0.225 -1.4277 -1.1126  0.0136
  973MOL0     H28377   4.961  11.317   0.298 -0.2231 -1.3490 -1.3677
  973MOL0     H28378   5.040  11.274   0.464  3.1837 -0.6289  0.0750
  973MOL0     H28379   5.071  11.127   0.191 -1.3085 -0.4658 -0.7808
  973MOL0     H28380   5.129  11.075   0.353 -0.0120  1.1069  2.5165
  973MOL0     H28381   4.846  11.122   0.243 -0.5271 -0.8287 -0.8749
  973MOL0     H28382   4.882  11.048   0.408  0.3341  0.6674  0.3466
  973MOL0     H28383   5.014  10.875   0.239  0.1542 -1.2429 -1.1455
  973MOL0     H28384   4.889  10.936   0.119 -3.0419  0.7781  0.2477
  973MOL0     H28385   4.816  10.722   0.218 -0.0592 -3.0933  4.6604
  973MOL0     H28386   4.845  10.792   0.385 -0.5656  2.1478  1.0649
  973MOL0     H28387   4.656  10.953   0.223  1.1973  0.0753  0.7976
  973MOL0     H28388   4.653  10.885   0.389  0.8606 -1.5062  0.8595
  973MOL0     H28389   4.418  10.906   0.142  0.0835 -1.5092 -5.8304
  973MOL0     H28390   4.200  10.631   0.108 -0.5795  0.6185  0.0499
  973MOL0     H28391   4.198  10.809   0.130 -0.8511  1.0890  0.7921
  973MOL0     H28392   4.154  10.767   0.378 -1.1924 -0.6255  1.2660
  973MOL0     H28393   4.163  10.599   0.341 -2.6897 -1.8186 -1.3101
  973MOL0     H28394   3.974  10.799   0.196  2.1137 -0.6446 -0.8683
  973MOL0     H28395   3.955  10.627   0.208 -0.2129  0.9455 -1.8413
  973MOL0     H28396   3.892  10.818   0.436 -3.4762  2.0451 -3.0852
  973MOL0     H28397   3.918  10.654   0.469 -0.0953  0.7233  0.2500
  973MOL0     H28398   3.507  10.630   0.309  1.3964 -0.2738 -3.3564
  973MOL0     H28399   3.327  10.783   0.257 -0.7068  0.8381 -1.7371
  973MOL0     H28400   3.153  11.283   0.312  0.6876 -1.0774 -0.2590
  973MOL0     H28401   2.909  11.378   0.330 -0.2741  0.1981 -1.3465
  973MOL0     H28402   2.611  11.077   0.364 -1.4071  0.5186  1.4720
  973MOL0     H28403   2.565  11.121   0.196 -0.8626 -3.5799  1.9677
  973MOL0     H28404   2.420  11.298   0.276  1.0560 -1.6383 -2.3219
  973MOL0     H28405   2.448  11.253   0.450 -1.0368  0.8329 -0.0621
  973MOL0     H28406   2.371  11.035   0.403  2.6444  0.5431 -0.7852
  973MOL0     H28407   2.286  11.091   0.248  1.0038  0.6922 -0.4267
  973MOL0     H28408   2.236  11.254   0.487  0.0544  0.8803 -1.7156
  973MOL0     H28409   2.155  11.254   0.335 -2.0244  1.0922  1.7543
  973MOL0     H28410   2.164  11.023   0.529  3.6371  0.7526 -1.2091
  973MOL0     H28411   2.079  11.016   0.378  2.1290  0.0536 -0.4876
  973MOL0     H28412   2.010  11.267   0.532  0.6875  0.6300  0.6260
  973MOL0     H28413   1.963  11.116   0.600  1.2600  4.6983  2.3898
  973MOL0     H28414   1.798  11.246   0.468 -1.9089 -2.9718 -0.5530
  973MOL0     H28415   1.895  11.257   0.328 -1.9094 -1.3648 -1.7216
  973MOL0     H28416   1.851  11.025   0.267 -1.7338 -0.4181 -0.3960
  973MOL0     H28417   1.698  11.101   0.334 -0.7932 -2.1642  2.2855
  973MOL0     H28418   2.761  10.999   0.217  0.8239 -0.2166 -2.2461
  973MOL0     H28419   2.982  10.898   0.219  4.2774  1.2396 -0.8518
  973MOL0     H28420   3.602  11.109   0.271 -2.1536  0.2469 -0.6665
  973MOL0     H28421   3.788  10.964   0.298 -1.0310  1.1727 -1.1594
  973MOL0     H28422   5.341  11.375   0.626 -0.4203  3.2190  1.4799
  973MOL0     H28423   5.534  11.242   0.665  1.1754  3.0390  1.8507
  973MOL0     H28424   5.956  11.179   0.381 -2.6820 -1.3111  0.8301
  973MOL0     H28425   6.174  11.087   0.345  0.6069  2.1444 -0.2877
  973MOL0     H28426   6.384  11.104   0.414 -0.8140 -1.7510  0.4673
  973MOL0     H28427   6.375  10.926   0.378  1.8977 -1.1976 -2.4336
  973MOL0     H28428   6.591  11.027   0.552  1.3756 -1.0810 -0.0444
  973MOL0     H28429   6.589  10.877   0.454 -0.4058  0.1901 -0.3680
  973MOL0     H28430   6.671  11.152   0.366 -0.7817 -0.6618  3.9082
  973MOL0     H28431   6.612  11.033   0.249 -0.1080 -0.5627  0.3468
  973MOL0     H28432   6.784  10.869   0.316 -0.2560  0.3117 -4.4378
  973MOL0     H28433   6.847  11.011   0.240  0.2679  3.4891  1.8746
  973MOL0     H28434   6.978  11.041   0.646 -1.4628 -1.6782  1.0863
  973MOL0     H28435   6.214  11.067   0.784  3.3474  0.1143 -2.6811
  973MOL0     H28436   5.998  11.184   0.803 -1.6045 -1.9686  0.6018
  974MOL0     O28437   3.173   1.610   5.174  0.8222  0.0224 -0.4136
  974MOL0     C28438   3.191   1.579   5.054 -0.0156 -0.1437 -1.1555
  974MOL0     O28439   3.085   1.568   4.958 -0.1310  0.7010 -0.2582
  974MOL0     C28440   2.947   1.585   4.987  0.9461  0.3779  0.0584
  974MOL0     C28441   2.864   1.574   4.878 -0.0086 -0.3917  0.0844
  974MOL0     C28442   2.727   1.566   4.898  0.6303 -0.4622 -0.8732
  974MOL0     C28443   2.669   1.608   5.021  0.7185  0.0092  0.4864
  974MOL0     O28444   2.533   1.622   5.013  0.4002  0.2473 -0.3256
  974MOL0     C28445   2.471   1.634   5.140 -0.2060  0.4019 -1.6615
  974MOL0     C28446   2.316   1.627   5.122  0.8292  0.5874 -0.4476
  974MOL0     C28447   2.240   1.713   5.230 -0.0494 -0.4672  0.5639
  974MOL0     C28448   2.089   1.701   5.209  0.1503 -0.9601 -0.0965
  974MOL0     C28449   2.017   1.786   5.308  0.3892 -0.4237 -0.0611
  974MOL0     C28450   1.866   1.791   5.288  0.2890  0.5436  0.2176
  974MOL0     C28451   1.799   1.890   5.373 -0.1173 -0.7760  0.7159
  974MOL0     C28452   1.686   1.960   5.295 -0.0300 -0.2488  0.1411
  974MOL0     N28453   1.592   1.851   5.285  0.7901 -0.1328  0.2044
  974MOL0     C28454   1.527   1.798   5.394 -0.3595 -0.8221 -0.4528
  974MOL0     C28455   1.466   1.686   5.358  0.5801  0.2356  0.6991
  974MOL0     C28456   1.395   1.581   5.432  0.2978  1.1549  0.4545
  974MOL0     C28457   1.246   1.562   5.380 -0.2911 -0.3968 -0.1350
  974MOL0     C28458   1.154   1.683   5.405 -0.1365 -0.7172  0.1860
  974MOL0     C28459   1.005   1.655   5.368 -0.4191  1.1749  0.5310
  974MOL0     O28460   0.991   1.627   5.228 -0.5215  0.0500  0.5538
  974MOL0     C28461   0.863   1.621   5.186 -0.0207 -0.9246 -0.3998
  974MOL0     C28462   0.762   1.565   5.261  0.0511  0.0776  0.5305
  974MOL0     C28463   0.630   1.544   5.212 -0.3829  0.2189 -0.3874
  974MOL0     C28464   0.603   1.584   5.076  0.3963 -0.3929 -0.4010
  974MOL0     C28465   0.463   1.572   5.013 -0.3498  1.2002 -0.3524
  974MOL0     O28466   0.440   1.668   4.917  0.4746 -0.6960 -0.1281
  974MOL0     C28467   0.330   1.664   4.832  1.0523  0.2048  0.2980
  974MOL0     C28468   0.341   1.750   4.731 -0.8430  0.9480 -0.5109
  974MOL0     C28469   0.230   1.786   4.654  0.2720 -0.1052 -0.1364
  974MOL0     C28470   0.101   1.733   4.676  0.2435  0.3179  0.1367
  974MOL0     O28471  -0.003   1.777   4.602 -0.0317  0.2885 -0.2027
  974MOL0     C28472  -0.140   1.756   4.647 -0.4376  0.6436  0.5631
  974MOL0     C28473  -0.228   1.837   4.554  0.9777 -0.2159  0.3482
  974MOL0     C28474  -0.198   1.988   4.568 -0.0033  0.9764  0.7309
  974MOL0     C28475  -0.302   2.074   4.495  0.0983 -0.3174 -0.1490
  974MOL0     C28476  -0.452   2.061   4.534 -0.1726  0.0399 -0.3441
  974MOL0     C28477  -0.469   2.089   4.686  0.1800  1.2988  0.5300
  974MOL0     C28478  -0.603   2.158   4.715 -0.1362 -0.0384 -0.5087
  974MOL0     C28479  -0.620   2.192   4.866 -0.0892  0.4857 -0.1660
  974MOL0    Cl28480  -0.609   2.050   4.974 -0.4463  0.2178  0.4684
  974MOL0     C28481   0.090   1.634   4.771 -0.4669  0.3813  0.6570
  974MOL0     C28482   0.206   1.602   4.846 -0.5398 -0.7203 -0.1774
  974MOL0     O28483   0.387   1.477   5.047  0.0687 -0.4524  0.2869
  974MOL0     C28484   0.710   1.639   5.008 -0.5175  0.3694  0.2141
  974MOL0     C28485   0.837   1.658   5.060  0.7408 -0.1384  0.0552
  974MOL0     N28486   1.479   1.673   5.222 -0.5046  0.1314 -0.2822
  974MOL0     N28487   1.564   1.768   5.177  0.8592  0.4492 -0.3768
  974MOL0     C28488   2.756   1.623   5.132 -0.0193  0.1065  0.4757
  974MOL0     C28489   2.888   1.600   5.113  0.1028  0.7766 -0.9435
  974MOL0     C28490   3.318   1.544   5.007  0.1545  0.4017  0.8241
  974MOL0     C28491   3.329   1.433   4.922 -0.1768  0.0179  0.1893
  974MOL0     C28492   3.455   1.388   4.870  0.0916 -0.4901 -0.9537
  974MOL0     C28493   3.565   1.468   4.895  0.3319  0.6946 -1.0585
  974MOL0     O28494   3.678   1.436   4.833 -0.6950  0.5755 -0.2157
  974MOL0     C28495   3.804   1.467   4.881 -0.4457 -0.2093 -0.8354
  974MOL0     C28496   3.857   1.353   4.971  0.1223 -0.3994 -0.0157
  974MOL0     C28497   3.802   1.365   5.113  0.2967 -0.5712 -0.4087
  974MOL0     C28498   3.891   1.279   5.200  0.2822  0.5117  0.6502
  974MOL0     C28499   3.855   1.139   5.185  0.0500  0.3854 -0.5822
  974MOL0     C28500   3.824   1.019   5.164 -0.9858 -0.0705  0.4497
  974MOL0     C28501   3.552   1.592   4.964 -0.2485  0.7924  0.9805
  974MOL0     C28502   3.432   1.619   5.029 -0.2215 -0.4710  0.9863
  974MOL0     H28503   2.905   1.561   4.778  0.8804  1.0474  0.2329
  974MOL0     H28504   2.659   1.552   4.815 -2.7223 -0.6178  1.6862
  974MOL0     H28505   2.490   1.730   5.189  0.6655 -0.4992 -0.1555
  974MOL0     H28506   2.495   1.553   5.209  2.1323  1.5616 -1.0241
  974MOL0     H28507   2.283   1.523   5.120 -0.0252  0.8531 -2.0357
  974MOL0     H28508   2.295   1.673   5.025 -1.0671  2.7792  0.8900
  974MOL0     H28509   2.263   1.816   5.201 -4.2392 -0.3264 -3.5999
  974MOL0     H28510   2.275   1.700   5.333 -1.3759  1.8402  1.3759
  974MOL0     H28511   2.062   1.742   5.111  0.4636  2.9541  1.2560
  974MOL0     H28512   2.060   1.596   5.221 -0.7672 -0.7364 -0.2322
  974MOL0     H28513   2.050   1.889   5.294 -0.0883  0.2881  3.1296
  974MOL0     H28514   2.042   1.754   5.410 -0.7197  1.0836  0.7366
  974MOL0     H28515   1.815   1.695   5.299  1.5185 -0.3226 -1.1903
  974MOL0     H28516   1.848   1.797   5.180  1.8713 -1.2805 -0.1899
  974MOL0     H28517   1.770   1.850   5.470 -0.5161  0.2912  1.0516
  974MOL0     H28518   1.869   1.973   5.389 -2.5382  1.8526 -1.1816
  974MOL0     H28519   1.712   1.994   5.195 -3.0747 -0.5366 -0.8491
  974MOL0     H28520   1.652   2.052   5.344  1.5765 -0.1279  1.0864
  974MOL0     H28521   1.543   1.831   5.497  0.3541  1.0494 -1.1114
  974MOL0     H28522   1.380   1.607   5.537  1.2369 -1.2060  1.2595
  974MOL0     H28523   1.453   1.488   5.432 -0.4259  0.6621 -1.3028
  974MOL0     H28524   1.205   1.471   5.424 -0.9543 -0.8136 -1.5429
  974MOL0     H28525   1.256   1.541   5.273 -1.0541 -0.9615 -0.1031
  974MOL0     H28526   1.164   1.695   5.514  1.4149  0.8542 -0.0957
  974MOL0     H28527   1.195   1.767   5.349  1.7505 -3.0115 -2.1467
  974MOL0     H28528   0.948   1.737   5.413 -1.8269 -0.5682  2.1085
  974MOL0     H28529   0.980   1.560   5.415  2.0841  1.1728  2.0529
  974MOL0     H28530   0.777   1.515   5.356 -0.5289 -0.6187  0.2713
  974MOL0     H28531   0.554   1.493   5.271  0.8610  1.1411  2.1552
  974MOL0     H28532   0.442   1.787   4.722 -0.3684  0.0770  0.9620
  974MOL0     H28533   0.233   1.875   4.593 -1.8928  0.3814  0.3817
  974MOL0     H28534  -0.149   1.784   4.752  0.7118  3.2526  0.0306
  974MOL0     H28535  -0.158   1.649   4.632  2.1206  0.5036 -2.4440
  974MOL0     H28536  -0.332   1.812   4.577  1.8508 -4.5612  0.4053
  974MOL0     H28537  -0.212   1.802   4.452 -1.4353  1.6332 -0.7935
  974MOL0     H28538  -0.102   2.010   4.521  1.4032 -4.3811  0.4835
  974MOL0     H28539  -0.186   2.003   4.675  0.9069 -1.8599  1.1007
  974MOL0     H28540  -0.266   2.177   4.501 -1.9851  0.5307 -1.2746
  974MOL0     H28541  -0.294   2.043   4.391  1.7207  3.4644 -1.3388
  974MOL0     H28542  -0.498   1.965   4.510 -1.7930  1.3916 -3.0666
  974MOL0     H28543  -0.511   2.136   4.481  0.9017  0.8029 -0.4981
  974MOL0     H28544  -0.393   2.163   4.717  0.5889  2.8148 -3.4593
  974MOL0     H28545  -0.459   1.996   4.741 -1.6902 -0.1208 -1.3771
  974MOL0     H28546  -0.626   2.247   4.655  2.2389 -0.5631 -2.3429
  974MOL0     H28547  -0.686   2.090   4.692 -0.5571 -0.0091  0.8225
  974MOL0     H28548  -0.718   2.237   4.882 -0.1233  0.2968  0.1740
  974MOL0     H28549  -0.541   2.259   4.901  1.8729 -1.7011 -0.1294
  974MOL0     H28550  -0.001   1.576   4.778  0.7649 -1.5675  1.5503
  974MOL0     H28551   0.187   1.532   4.927 -3.4458 -2.6468 -2.2804
  974MOL0     H28552   0.688   1.667   4.905  1.3375  2.4045  0.2835
  974MOL0     H28553   0.920   1.709   5.012 -0.2856  1.8445  0.2856
  974MOL0     H28554   2.706   1.663   5.221 -0.1547  4.1899 -1.2115
  974MOL0     H28555   2.953   1.595   5.200  2.0291 -0.4234 -2.3775
  974MOL0     H28556   3.238   1.381   4.894  0.8171 -0.6508 -2.0148
  974MOL0     H28557   3.464   1.305   4.800  3.1070  0.1331 -1.4366
  974MOL0     H28558   3.807   1.556   4.945 -0.8778 -0.5102 -0.3899
  974MOL0     H28559   3.870   1.489   4.797 -2.2003  0.4496 -2.0946
  974MOL0     H28560   3.817   1.257   4.936 -2.8817 -0.3314  2.6661
  974MOL0     H28561   3.965   1.341   4.964 -0.1748 -2.6918 -1.8058
  974MOL0     H28562   3.697   1.336   5.113  0.3702 -0.9768  1.4261
  974MOL0     H28563   3.814   1.464   5.157  2.3613  0.5595 -3.1934
  974MOL0     H28564   3.991   1.312   5.172  1.5405 -4.9196 -2.8197
  974MOL0     H28565   3.870   1.305   5.304 -1.1359  1.2938  0.2066
  974MOL0     H28566   3.793   0.920   5.138  0.8196 -1.7524  3.9808
  974MOL0     H28567   3.636   1.660   4.978 -2.1136  3.1058  1.5165
  974MOL0     H28568   3.420   1.704   5.095 -0.8808 -0.6283  1.0739
  975MOL0     O28569   6.901   5.280   7.918  0.3473  0.1280 -0.2440
  975MOL0     C28570   6.986   5.364   7.940  1.0404 -0.1822  0.5637
  975MOL0     O28571   7.121   5.341   7.923 -0.3259 -0.1301  0.2283
  975MOL0     C28572   7.161   5.214   7.908 -0.7805 -0.4790  0.6033
  975MOL0     C28573   7.252   5.198   7.801  0.1747  0.0631  0.4753
  975MOL0     C28574   7.297   5.060   7.762  1.3271 -0.4705 -0.1145
  975MOL0     C28575   7.266   4.950   7.836  0.1178 -0.7807 -0.1221
  975MOL0     O28576   7.298   4.826   7.794 -0.2367 -0.5253 -0.3858
  975MOL0     C28577   7.228   4.713   7.832  0.1858  0.5409  0.2906
  975MOL0     C28578   7.076   4.715   7.787 -1.2205 -0.3727 -0.0468
  975MOL0     C28579   7.032   4.578   7.758  1.6111  0.2036 -0.0406
  975MOL0     C28580   6.887   4.569   7.736 -0.4480 -0.0250  0.0445
  975MOL0     C28581   6.849   4.433   7.680 -0.2420 -0.2139 -0.3717
  975MOL0     C28582   6.700   4.436   7.651  0.9454  0.5431  0.1322
  975MOL0     C28583   6.655   4.301   7.606  1.0029 -0.1712 -0.1151
  975MOL0     C28584   6.520   4.303   7.529 -1.4863 -0.3056 -0.0120
  975MOL0     N28585   6.403   4.310   7.608 -0.4168  0.0517  0.3291
  975MOL0     C28586   6.302   4.409   7.621 -0.4795 -1.7153 -0.7123
  975MOL0     C28587   6.213   4.354   7.708 -0.8211  0.2856 -0.8723
  975MOL0     C28588   6.096   4.428   7.771 -0.3598  0.0304  0.9731
  975MOL0     C28589   5.976   4.426   7.676  0.2648 -0.2095 -0.3043
  975MOL0     C28590   5.846   4.360   7.733 -0.2519 -0.2880  0.2823
  975MOL0     C28591   5.742   4.343   7.619 -0.9101 -0.0375 -1.0858
  975MOL0     O28592   5.621   4.292   7.671  1.2149 -0.2913 -0.6854
  975MOL0     C28593   5.548   4.383   7.740  0.3154 -0.2057  0.1062
  975MOL0     C28594   5.468   4.478   7.672 -0.1336 -0.0488 -0.5266
  975MOL0     C28595   5.396   4.584   7.741 -0.4593  0.7423 -0.1767
  975MOL0     C28596   5.395   4.573   7.881  0.1065  0.8579 -0.3611
  975MOL0     C28597   5.325   4.667   7.973 -0.1711 -0.5351 -0.7717
  975MOL0     O28598   5.309   4.636   8.099  0.6827  0.4099 -0.4290
  975MOL0     C28599   5.241   4.727   8.181  0.8783  0.5686  0.1512
  975MOL0     C28600   5.107   4.695   8.215  0.6480  0.4135  0.6995
  975MOL0     C28601   5.029   4.778   8.299 -1.1548  0.2781 -0.0028
  975MOL0     C28602   5.091   4.888   8.363 -0.3232  0.2732  0.7579
  975MOL0     O28603   5.042   4.967   8.459 -0.4250 -0.6233  0.3030
  975MOL0     C28604   5.015   4.904   8.586 -0.6365 -0.1486  0.0857
  975MOL0     C28605   4.871   4.933   8.639 -0.3027 -0.4588  0.5248
  975MOL0     C28606   4.761   4.892   8.544 -0.4567 -0.3191  0.0194
  975MOL0     C28607   4.614   4.897   8.615  0.3677  0.1865  0.7348
  975MOL0     C28608   4.549   5.023   8.591 -0.0756 -0.9629 -0.9860
  975MOL0     C28609   4.404   5.031   8.612 -0.7557 -0.4316 -0.1314
  975MOL0     C28610   4.355   5.171   8.589 -0.2849 -0.2608  0.8833
  975MOL0     C28611   4.222   5.189   8.668  0.2086 -0.8754  0.2323
  975MOL0    Cl28612   4.075   5.095   8.619 -0.4053 -0.0230  0.4363
  975MOL0     C28613   5.233   4.912   8.332  0.8140 -0.5913  0.5446
  975MOL0     C28614   5.308   4.837   8.240  0.5751  0.3234 -0.3349
  975MOL0     O28615   5.284   4.766   7.924  1.0261 -0.5771  0.3804
  975MOL0     C28616   5.460   4.459   7.944 -0.2877  0.7681 -0.3856
  975MOL0     C28617   5.532   4.357   7.872  0.7484 -0.9216 -0.4254
  975MOL0     N28618   6.258   4.227   7.743 -0.4982 -0.7379 -0.8406
  975MOL0     N28619   6.365   4.202   7.676 -0.6672  0.3006  0.0047
  975MOL0     C28620   7.186   4.974   7.951  0.3984  0.2764  0.9351
  975MOL0     C28621   7.135   5.099   7.986 -0.0792 -0.6478  0.2840
  975MOL0     C28622   6.931   5.504   7.964 -0.3422 -0.1471 -0.1986
  975MOL0     C28623   6.791   5.534   7.977 -0.0985 -0.7666 -0.1489
  975MOL0     C28624   6.758   5.671   7.980  0.3647  0.4957  0.9380
  975MOL0     C28625   6.848   5.775   7.977 -0.6386 -0.2875 -0.3426
  975MOL0     O28626   6.826   5.914   7.997 -0.1003 -0.3782 -0.0576
  975MOL0     C28627   6.695   5.964   8.032  0.2734 -0.4901 -0.7400
  975MOL0     C28628   6.603   5.972   7.907  0.0537 -0.0599 -0.4387
  975MOL0     C28629   6.461   6.006   7.928  0.1824  0.0815 -0.0339
  975MOL0     C28630   6.393   5.991   7.788  0.3496  0.0662 -0.4359
  975MOL0     C28631   6.249   6.021   7.798 -0.0944  0.1769 -0.5227
  975MOL0     C28632   6.128   6.036   7.812 -0.7675  0.0574  0.7853
  975MOL0     C28633   6.985   5.740   7.966 -0.1261 -0.7474 -0.0434
  975MOL0     C28634   7.022   5.607   7.953 -1.0441  0.6824 -0.0606
  975MOL0     H28635   7.267   5.289   7.743  2.1668  0.9823  2.2814
  975MOL0     H28636   7.361   5.044   7.675  3.9694  1.5482  1.2759
  975MOL0     H28637   7.244   4.678   7.935  2.3202 -2.7926 -1.0044
  975MOL0     H28638   7.274   4.627   7.782  1.3982 -2.3289  5.5180
  975MOL0     H28639   7.069   4.772   7.694  0.3286  1.5057  0.9021
  975MOL0     H28640   7.012   4.764   7.861 -3.9964 -1.0045 -1.8737
  975MOL0     H28641   7.045   4.508   7.842 -1.7454 -1.9045 -1.0943
  975MOL0     H28642   7.097   4.535   7.682  1.1279  1.2099 -1.0436
  975MOL0     H28643   6.842   4.579   7.835  2.2853  0.0338  1.3746
  975MOL0     H28644   6.850   4.646   7.668  0.8630  0.8753  0.3027
  975MOL0     H28645   6.862   4.351   7.751  4.2715 -0.3298 -1.0172
  975MOL0     H28646   6.915   4.413   7.595  1.1189  3.8662 -0.4636
  975MOL0     H28647   6.684   4.511   7.573  0.3563 -0.7490 -1.0224
  975MOL0     H28648   6.641   4.458   7.740  1.0148  2.1903 -0.1892
  975MOL0     H28649   6.726   4.263   7.532  1.4464  3.3539 -1.6724
  975MOL0     H28650   6.638   4.236   7.692 -0.6614 -1.8402 -1.6194
  975MOL0     H28651   6.517   4.205   7.480 -1.8877 -1.4473  2.1788
  975MOL0     H28652   6.517   4.378   7.448  0.0255 -3.4951 -3.3144
  975MOL0     H28653   6.298   4.512   7.586 -1.1529 -1.8412 -1.0182
  975MOL0     H28654   6.113   4.533   7.795 -2.5454  1.5326 -3.0395
  975MOL0     H28655   6.065   4.363   7.854  0.0176 -4.1839 -1.8460
  975MOL0     H28656   6.016   4.380   7.586 -1.0100 -1.2560 -0.3718
  975MOL0     H28657   5.956   4.530   7.648  0.2880  0.8938  3.2105
  975MOL0     H28658   5.863   4.258   7.768 -2.2554 -0.7513  0.0630
  975MOL0     H28659   5.816   4.426   7.815  2.9676  2.1217 -0.2723
  975MOL0     H28660   5.776   4.272   7.543  2.0638  0.0116  0.0265
  975MOL0     H28661   5.741   4.438   7.565  1.7195  0.6016 -0.1785
  975MOL0     H28662   5.457   4.480   7.564  0.9875  2.8616 -0.6806
  975MOL0     H28663   5.345   4.661   7.683  3.4514  1.4246 -3.1389
  975MOL0     H28664   5.047   4.616   8.171 -0.8401  0.9455  1.7236
  975MOL0     H28665   4.928   4.755   8.331 -1.6328  0.6014 -1.2356
  975MOL0     H28666   5.080   4.941   8.665  2.0949 -0.3177 -1.9476
  975MOL0     H28667   5.031   4.796   8.576 -1.6393 -0.2219 -1.0119
  975MOL0     H28668   4.870   5.040   8.658 -0.2859 -0.2884 -0.3849
  975MOL0     H28669   4.847   4.885   8.735 -0.2281 -0.7760  0.3864
  975MOL0     H28670   4.783   4.787   8.520  0.5037 -0.3476  0.9358
  975MOL0     H28671   4.760   4.930   8.442 -1.2798 -2.3102 -0.7627
  975MOL0     H28672   4.541   4.828   8.571  2.2750 -0.3457 -1.8174
  975MOL0     H28673   4.615   4.883   8.724  0.0176 -3.7632  0.3697
  975MOL0     H28674   4.575   5.059   8.491  0.2924  1.2164 -0.1473
  975MOL0     H28675   4.596   5.093   8.661 -0.4214 -0.9146 -0.8015
  975MOL0     H28676   4.371   5.004   8.713  0.1274 -1.2867 -0.0566
  975MOL0     H28677   4.352   4.962   8.544 -2.0368  0.9666 -0.6186
  975MOL0     H28678   4.420   5.255   8.616 -2.4768  1.0728  2.3992
  975MOL0     H28679   4.326   5.181   8.484 -1.3237  1.2581  1.2747
  975MOL0     H28680   4.192   5.287   8.631 -0.2836 -1.6151 -1.4161
  975MOL0     H28681   4.236   5.194   8.777 -0.3326 -2.9604  0.4277
  975MOL0     H28682   5.281   4.984   8.398 -0.4116  1.9704 -1.2099
  975MOL0     H28683   5.412   4.860   8.218  0.5715 -1.2117 -2.2408
  975MOL0     H28684   5.456   4.441   8.051  1.0101 -1.2378 -0.6200
  975MOL0     H28685   5.574   4.274   7.928 -0.7106 -0.8416  0.8736
  975MOL0     H28686   7.182   4.882   8.009  1.5907 -2.4132 -2.8468
  975MOL0     H28687   7.083   5.101   8.081  0.3745 -0.0503  0.5290
  975MOL0     H28688   6.715   5.458   7.989 -2.9620  1.9694  0.3076
  975MOL0     H28689   6.655   5.702   7.999 -0.2995  1.1231 -2.8031
  975MOL0     H28690   6.711   6.061   8.080  0.6803 -0.5360 -0.7779
  975MOL0     H28691   6.651   5.902   8.111  0.3797  0.2647 -0.0869
  975MOL0     H28692   6.654   6.048   7.848 -1.3097  2.2232  1.1786
  975MOL0     H28693   6.614   5.878   7.852  0.2651 -3.0069  4.1174
  975MOL0     H28694   6.438   6.106   7.967 -1.5481 -0.3225  0.0948
  975MOL0     H28695   6.427   5.930   8.001  3.6665 -0.3179  1.3712
  975MOL0     H28696   6.438   6.065   7.722  1.1671 -0.2150 -0.2108
  975MOL0     H28697   6.410   5.890   7.750 -3.1143  0.0178 -2.2501
  975MOL0     H28698   6.022   6.042   7.830 -0.9452  1.6416 -0.5324
  975MOL0     H28699   7.061   5.817   7.970 -0.5019 -0.1987 -2.1954
  975MOL0     H28700   7.123   5.567   7.955 -2.9693 -5.1123 -0.4442
  976MOL0     O28701   9.069   8.846   9.414 -0.1257  0.5437 -0.1425
  976MOL0     C28702   9.111   8.738   9.366  0.1521 -0.6865 -0.9209
  976MOL0     O28703   9.048   8.672   9.273 -0.0564  0.2730  0.0379
  976MOL0     C28704   8.915   8.692   9.253  0.3668 -0.1055 -0.3608
  976MOL0     C28705   8.813   8.728   9.343 -1.0482 -0.0752 -0.1414
  976MOL0     C28706   8.682   8.728   9.309 -0.0164  0.3657 -0.7102
  976MOL0     C28707   8.634   8.685   9.188 -0.7787 -0.0672 -0.0781
  976MOL0     O28708   8.508   8.676   9.129 -0.1705 -0.5223 -0.6810
  976MOL0     C28709   8.395   8.748   9.193  0.0000 -0.4253  1.2755
  976MOL0     C28710   8.352   8.881   9.123 -0.4315 -0.0787 -0.9739
  976MOL0     C28711   8.210   8.921   9.155 -0.0491  0.8163  0.2987
  976MOL0     C28712   8.163   9.055   9.082 -0.2975 -0.0314 -0.3940
  976MOL0     C28713   8.109   9.031   8.939 -0.1681 -0.4078 -0.2861
  976MOL0     C28714   8.063   9.165   8.870 -0.1178 -0.1773  0.2383
  976MOL0     C28715   7.909   9.194   8.895  0.5533  0.5340  0.4657
  976MOL0     C28716   7.879   9.327   8.828  0.1087  0.0043  0.4364
  976MOL0     N28717   7.727   9.342   8.830 -0.1779 -0.4913  0.2329
  976MOL0     C28718   7.644   9.296   8.725 -1.3005 -0.3797 -0.7614
  976MOL0     C28719   7.521   9.317   8.769 -0.0181  0.3305  0.7024
  976MOL0     C28720   7.392   9.278   8.696 -0.8491 -0.1964 -0.6112
  976MOL0     C28721   7.356   9.367   8.578 -0.0545  0.1872  0.3880
  976MOL0     C28722   7.247   9.297   8.489  0.6197 -0.3723 -0.3531
  976MOL0     C28723   7.156   9.391   8.403  1.1469  0.2773 -0.7046
  976MOL0     O28724   7.104   9.484   8.499 -0.1123  0.2306  0.9891
  976MOL0     C28725   6.989   9.555   8.462  0.1882  0.1456 -0.5643
  976MOL0     C28726   6.970   9.598   8.327  0.3533 -0.4138  0.5352
  976MOL0     C28727   6.854   9.674   8.279  0.5818  0.1300 -0.0808
  976MOL0     C28728   6.756   9.691   8.379 -0.6385  0.5974 -0.6319
  976MOL0     C28729   6.635   9.773   8.340 -0.7384  0.6636  0.0833
  976MOL0     O28730   6.625   9.831   8.212  0.3773  0.3871  0.7425
  976MOL0     C28731   6.520   9.910   8.170  1.0678  0.9989  0.1514
  976MOL0     C28732   6.544   9.997   8.066 -0.2265 -0.8229  0.3696
  976MOL0     C28733   6.432  10.059   7.996  0.1500 -0.5694  0.8613
  976MOL0     C28734   6.299  10.037   8.034 -0.5922  0.0470  0.2502
  976MOL0     O28735   6.182  10.070   7.963  0.5131  0.1833 -0.2786
  976MOL0     C28736   6.190  10.140   7.835 -0.0722  0.1906  0.2948
  976MOL0     C28737   6.086  10.068   7.752  0.6127 -0.0505  0.4716
  976MOL0     C28738   6.057  10.118   7.606 -0.3555  0.2636  0.0878
  976MOL0     C28739   5.934  10.059   7.522 -0.3105  0.0700  0.3233
  976MOL0     C28740   5.890  10.160   7.419  1.1266 -0.1476 -0.0094
  976MOL0     C28741   5.761  10.132   7.343 -0.2382 -0.5054  0.1613
  976MOL0     C28742   5.716  10.255   7.258 -0.6219 -0.5571  0.6546
  976MOL0     C28743   5.585  10.250   7.199 -0.0668  0.2632  0.2965
  976MOL0    Cl28744   5.523  10.407   7.155 -0.0172  0.2094 -0.0079
  976MOL0     C28745   6.290   9.971   8.151  0.4118  0.4379 -0.1867
  976MOL0     C28746   6.390   9.903   8.213 -0.8706  0.0338  0.4554
  976MOL0     O28747   6.557   9.780   8.429  0.9499  0.2838 -0.0915
  976MOL0     C28748   6.774   9.647   8.516  0.3697 -0.4002 -1.0443
  976MOL0     C28749   6.889   9.578   8.555  0.1256  1.5428 -0.1975
  976MOL0     N28750   7.528   9.375   8.901 -0.1781  0.7359  0.8001
  976MOL0     N28751   7.651   9.381   8.937 -0.0811 -0.5298 -0.7545
  976MOL0     C28752   8.731   8.645   9.101 -0.4486 -0.2628 -1.3428
  976MOL0     C28753   8.874   8.645   9.129  1.1303  0.2757 -0.1778
  976MOL0     C28754   9.244   8.696   9.411 -0.1285 -0.1551  1.1247
  976MOL0     C28755   9.321   8.612   9.338 -0.5979  0.2444  0.0560
  976MOL0     C28756   9.460   8.598   9.367  0.2704  0.0226  0.3126
  976MOL0     C28757   9.518   8.676   9.467 -1.2175  0.2284  1.0003
  976MOL0     O28758   9.646   8.664   9.507  0.0985  0.1917 -0.0039
  976MOL0     C28759   9.735   8.713   9.405 -0.2966  0.0583  0.2987
  976MOL0     C28760   9.866   8.763   9.466 -0.5315  0.2043 -0.9807
  976MOL0     C28761   9.846   8.880   9.556  0.1055 -0.9484 -1.0294
  976MOL0     C28762   9.836   9.009   9.476 -0.3945 -1.5770 -0.6201
  976MOL0     C28763   9.807   9.131   9.561 -0.1079  0.0610  0.8247
  976MOL0     C28764   9.797   9.229   9.630 -0.5155  0.7061 -0.3314
  976MOL0     C28765   9.444   8.741   9.557  0.7482 -0.0703  0.5090
  976MOL0     C28766   9.306   8.755   9.527  0.5037 -0.4015  0.6044
  976MOL0     H28767   8.845   8.764   9.441 -0.0448  0.1832 -0.5523
  976MOL0     H28768   8.606   8.759   9.380  1.1710  0.5511  0.5210
  976MOL0     H28769   8.410   8.774   9.298  2.6131  2.0615  0.4029
  976MOL0     H28770   8.302   8.690   9.203  1.0862 -2.9739 -1.8301
  976MOL0     H28771   8.348   8.872   9.014 -2.6728  1.6586 -1.0978
  976MOL0     H28772   8.435   8.952   9.134 -1.1623  0.6532 -0.0098
  976MOL0     H28773   8.210   8.940   9.263  1.1198 -1.3793  0.7403
  976MOL0     H28774   8.146   8.834   9.143  1.1714 -1.0802  5.0703
  976MOL0     H28775   8.079   9.089   9.144 -0.9247 -0.8566 -0.7679
  976MOL0     H28776   8.239   9.133   9.091  0.0533 -0.4199  0.1061
  976MOL0     H28777   8.034   8.954   8.961 -0.8433 -1.2420 -4.5551
  976MOL0     H28778   8.185   8.981   8.879 -2.3075 -3.4470 -0.7050
  976MOL0     H28779   8.078   9.146   8.763 -2.3770  0.1211 -0.1930
  976MOL0     H28780   8.125   9.249   8.905 -0.8115 -0.4300  2.2210
  976MOL0     H28781   7.837   9.120   8.857 -2.4907  2.5604  1.9050
  976MOL0     H28782   7.888   9.196   9.002  0.1788  3.3169  0.3919
  976MOL0     H28783   7.916   9.324   8.725  2.5169  1.9230  1.1714
  976MOL0     H28784   7.922   9.412   8.882  2.0575 -0.7800  0.1909
  976MOL0     H28785   7.677   9.242   8.637 -0.4460 -0.6670 -0.2838
  976MOL0     H28786   7.311   9.296   8.768 -1.3532  0.5845 -1.3498
  976MOL0     H28787   7.408   9.174   8.666  0.7646 -0.4274  0.8563
  976MOL0     H28788   7.441   9.393   8.515  0.9031 -1.8778  0.7660
  976MOL0     H28789   7.310   9.458   8.617  1.4411  1.0867  0.1253
  976MOL0     H28790   7.297   9.228   8.420  0.0841 -2.6949  1.4427
  976MOL0     H28791   7.180   9.228   8.541 -0.5131  0.0659 -1.2011
  976MOL0     H28792   7.080   9.345   8.339  0.5088  1.3135 -0.7120
  976MOL0     H28793   7.220   9.450   8.337 -0.2767  2.0403 -0.5788
  976MOL0     H28794   7.041   9.587   8.246 -0.1136 -0.7199  0.1670
  976MOL0     H28795   6.841   9.709   8.177  0.9706 -0.5940 -0.3860
  976MOL0     H28796   6.645  10.011   8.031 -0.6623  1.8419 -0.0249
  976MOL0     H28797   6.465  10.125   7.916 -2.6430  1.0627  0.9632
  976MOL0     H28798   6.288  10.110   7.797 -0.8967 -0.5186 -1.3266
  976MOL0     H28799   6.179  10.248   7.850  1.0305  0.6034 -1.6092
  976MOL0     H28800   5.990  10.068   7.804 -0.4375  2.9405 -1.1782
  976MOL0     H28801   6.123   9.966   7.744  1.6388  0.4095 -1.0593
  976MOL0     H28802   6.148  10.096   7.548  0.0898  1.2600  0.3898
  976MOL0     H28803   6.044  10.226   7.619 -2.2259  0.0201  0.4185
  976MOL0     H28804   5.966   9.966   7.475  2.7254  0.4958  1.3273
  976MOL0     H28805   5.859  10.039   7.599  1.3038  0.3259  2.0360
  976MOL0     H28806   5.967  10.167   7.341 -0.0153  1.1922 -1.0729
  976MOL0     H28807   5.879  10.255   7.472 -0.9870 -0.8590  0.9443
  976MOL0     H28808   5.681  10.101   7.411 -0.4923 -2.5556 -0.9867
  976MOL0     H28809   5.775  10.045   7.278 -0.7619 -0.0660 -0.5622
  976MOL0     H28810   5.705  10.334   7.333  0.3878  1.1765 -0.9120
  976MOL0     H28811   5.788  10.287   7.181 -2.3718  2.0250 -0.0527
  976MOL0     H28812   5.520  10.189   7.262 -1.3436  1.6421  0.3534
  976MOL0     H28813   5.590  10.193   7.106 -1.2197 -0.6042  0.7453
  976MOL0     H28814   6.197   9.938   8.196  1.2279  1.7333  2.6980
  976MOL0     H28815   6.368   9.836   8.296  1.4861  0.4440  1.4822
  976MOL0     H28816   6.708   9.670   8.599  2.3475 -2.7822  1.3698
  976MOL0     H28817   6.905   9.555   8.660  1.4086 -0.8876 -0.8603
  976MOL0     H28818   8.700   8.626   8.999 -1.9702 -3.3051 -0.4527
  976MOL0     H28819   8.935   8.620   9.042  1.1787 -1.6318  0.3675
  976MOL0     H28820   9.278   8.573   9.246  1.3428 -0.3385 -0.6532
  976MOL0     H28821   9.521   8.538   9.299 -3.7835 -1.1303 -2.6993
  976MOL0     H28822   9.691   8.797   9.350 -1.4398 -0.7502 -0.0452
  976MOL0     H28823   9.754   8.634   9.332 -0.6752  0.0566  0.1993
  976MOL0     H28824   9.907   8.683   9.528 -2.5905 -1.0667 -1.1397
  976MOL0     H28825   9.940   8.795   9.392  1.1400 -1.0901  0.0598
  976MOL0     H28826   9.931   8.899   9.621 -1.9746 -0.7731  1.8645
  976MOL0     H28827   9.759   8.862   9.621  2.6551 -1.6155  2.4557
  976MOL0     H28828   9.924   9.025   9.414 -0.6627  1.1463 -0.4174
  976MOL0     H28829   9.749   9.012   9.409  0.9285 -0.9705 -2.3812
  976MOL0     H28830   9.783   9.307   9.701 -2.9341 -0.0498  0.1301
  976MOL0     H28831   9.493   8.784   9.644  1.0475 -0.5862  0.5962
  976MOL0     H28832   9.240   8.817   9.587 -1.6481 -4.1747  2.4589
  977MOL0     O28833   6.982   9.154   5.613  0.6039 -0.1773 -1.1174
  977MOL0     C28834   6.941   9.265   5.640  1.2522 -0.2594 -0.3619
  977MOL0     O28835   7.009   9.382   5.654 -0.5382  0.4517  0.5729
  977MOL0     C28836   7.139   9.380   5.677  0.8731  0.5437 -0.5650
  977MOL0     C28837   7.184   9.407   5.806  0.2460  0.2460  0.4380
  977MOL0     C28838   7.315   9.408   5.828  0.0546 -0.0031  0.7043
  977MOL0     C28839   7.423   9.400   5.739 -0.7774  0.3425 -0.0700
  977MOL0     O28840   7.548   9.424   5.787  0.0579 -1.2424 -0.1958
  977MOL0     C28841   7.655   9.442   5.688 -0.0644  0.3837 -0.1231
  977MOL0     C28842   7.745   9.321   5.707  0.6083  0.5047 -1.2310
  977MOL0     C28843   7.852   9.304   5.606  0.4434 -0.7700  0.0516
  977MOL0     C28844   7.963   9.414   5.626  0.5627  0.0595  0.0715
  977MOL0     C28845   8.085   9.395   5.532  0.6772  0.7648 -0.5441
  977MOL0     C28846   8.171   9.522   5.516  0.7364 -0.0041  0.1892
  977MOL0     C28847   8.293   9.482   5.432 -0.1330  0.4984 -0.3148
  977MOL0     C28848   8.374   9.610   5.391  0.0088 -0.4992  0.5238
  977MOL0     N28849   8.498   9.578   5.320  0.1799 -0.3618 -0.7049
  977MOL0     C28850   8.625   9.571   5.381 -0.1606 -0.1882 -0.2112
  977MOL0     C28851   8.708   9.563   5.282 -1.0050  0.1021  0.8079
  977MOL0     C28852   8.855   9.547   5.299  0.4963  0.3748  0.2235
  977MOL0     C28853   8.934   9.548   5.166 -0.8394  0.4052  0.4133
  977MOL0     C28854   9.001   9.414   5.138  0.7570 -0.1780  0.4627
  977MOL0     C28855   8.904   9.298   5.108 -1.1786  0.2084 -0.4330
  977MOL0     O28856   8.862   9.241   5.233  0.4689 -0.7832 -0.9680
  977MOL0     C28857   8.732   9.212   5.257  0.2085 -0.6591 -0.4724
  977MOL0     C28858   8.692   9.209   5.392  0.6205  0.4025  1.1061
  977MOL0     C28859   8.564   9.168   5.434  0.2515 -0.3875  0.5969
  977MOL0     C28860   8.465   9.164   5.339  0.3804 -0.0575 -0.2615
  977MOL0     C28861   8.330   9.126   5.375 -0.3005 -0.3622 -0.4974
  977MOL0     O28862   8.243   9.109   5.274  0.0854 -0.5179  0.7999
  977MOL0     C28863   8.105   9.095   5.296  0.2183  0.9688  0.6036
  977MOL0     C28864   8.009   9.153   5.209  0.0039  0.1859 -0.2561
  977MOL0     C28865   7.870   9.138   5.227 -1.1267 -0.4098 -0.0106
  977MOL0     C28866   7.820   9.051   5.321  0.3046  0.1949  0.2310
  977MOL0     O28867   7.692   9.040   5.356  1.1229  0.5383  0.1829
  977MOL0     C28868   7.587   9.135   5.324 -0.6325  0.6094 -0.2130
  977MOL0     C28869   7.450   9.108   5.390 -0.7696 -0.1578 -0.4987
  977MOL0     C28870   7.401   8.968   5.383 -0.2104  0.4325  0.2120
  977MOL0     C28871   7.249   8.951   5.441 -1.1683 -0.5367 -0.0204
  977MOL0     C28872   7.225   8.809   5.493  0.4787 -0.1436  1.2747
  977MOL0     C28873   7.116   8.804   5.598 -0.8216 -0.4400  0.0889
  977MOL0     C28874   6.978   8.811   5.528 -0.2626 -0.7942 -0.2845
  977MOL0     C28875   6.855   8.820   5.628  0.1328  0.1829 -0.1620
  977MOL0    Cl28876   6.832   8.671   5.727  0.0768  0.0712  0.1684
  977MOL0     C28877   7.914   8.964   5.382 -0.2136  0.0606 -0.6995
  977MOL0     C28878   8.048   8.993   5.384  0.2773 -0.0861 -0.8092
  977MOL0     O28879   8.299   9.133   5.496  0.7764  0.0179 -0.1526
  977MOL0     C28880   8.494   9.190   5.204  0.6544 -0.6398  0.4233
  977MOL0     C28881   8.629   9.207   5.162 -0.1042 -1.2626  0.2132
  977MOL0     N28882   8.646   9.570   5.164  0.3796  0.0234  0.6676
  977MOL0     N28883   8.521   9.588   5.184 -0.4634  0.2175  0.8256
  977MOL0     C28884   7.372   9.385   5.601 -0.2975 -0.1793 -0.4599
  977MOL0     C28885   7.232   9.382   5.576 -0.5117  0.5280  0.4220
  977MOL0     C28886   6.789   9.278   5.649  0.5884 -0.1098 -0.4425
  977MOL0     C28887   6.721   9.397   5.702 -0.8145  0.5007  0.3308
  977MOL0     C28888   6.589   9.417   5.713 -0.7548  1.1512 -0.3355
  977MOL0     C28889   6.509   9.308   5.682 -0.2786  0.1805  0.3294
  977MOL0     O28890   6.374   9.316   5.683  0.6838 -0.6252  0.6299
  977MOL0     C28891   6.316   9.446   5.686 -0.0303  0.0439  0.2993
  977MOL0     C28892   6.174   9.431   5.632 -0.2643  0.2268 -0.3417
  977MOL0     C28893   6.090   9.333   5.695  0.7442 -0.6158 -0.5251
  977MOL0     C28894   5.938   9.375   5.698 -1.1697  0.1618 -0.4791
  977MOL0     C28895   5.894   9.382   5.562  0.4702  0.4976 -0.1439
  977MOL0     C28896   5.866   9.359   5.445 -0.6976 -1.1581  0.0547
  977MOL0     C28897   6.558   9.191   5.626 -0.1390  0.4036  0.9480
  977MOL0     C28898   6.703   9.176   5.613  0.4580  0.9215 -0.2703
  977MOL0     H28899   7.109   9.432   5.880 -1.0605  5.0610 -2.0938
  977MOL0     H28900   7.339   9.418   5.934 -1.0500  1.8466  0.8194
  977MOL0     H28901   7.718   9.528   5.712 -0.8970  0.2759  2.8332
  977MOL0     H28902   7.626   9.441   5.583 -0.5452  2.6358 -0.0485
  977MOL0     H28903   7.689   9.227   5.708  1.3246  0.0566  0.7793
  977MOL0     H28904   7.784   9.319   5.809  1.3652  0.3408 -1.5146
  977MOL0     H28905   7.809   9.315   5.506  0.6159 -0.8319 -0.0310
  977MOL0     H28906   7.879   9.199   5.619 -1.7657 -1.3102  0.7084
  977MOL0     H28907   7.926   9.514   5.604  4.6822  1.4200 -1.6674
  977MOL0     H28908   7.987   9.399   5.732  1.2545 -1.8404 -0.3099
  977MOL0     H28909   8.044   9.369   5.434  1.5989  0.5097 -0.8722
  977MOL0     H28910   8.144   9.311   5.570 -0.4650 -0.1550 -0.7510
  977MOL0     H28911   8.205   9.571   5.607  2.0944  2.7590 -1.6645
  977MOL0     H28912   8.121   9.608   5.469  2.8470  1.3087  0.2281
  977MOL0     H28913   8.357   9.410   5.483  2.0380  0.4768 -2.8415
  977MOL0     H28914   8.261   9.440   5.336  0.7632  0.8463 -0.7756
  977MOL0     H28915   8.407   9.675   5.473  3.1470  0.9982 -1.7309
  977MOL0     H28916   8.312   9.665   5.320 -2.0773 -0.6924  2.0894
  977MOL0     H28917   8.648   9.579   5.487  3.0667 -2.4381 -0.6100
  977MOL0     H28918   8.868   9.453   5.355 -0.2217  1.0437  1.5721
  977MOL0     H28919   8.899   9.615   5.373 -0.5678 -2.1766  3.4319
  977MOL0     H28920   9.013   9.623   5.180 -0.5865  0.1164  0.5435
  977MOL0     H28921   8.877   9.584   5.080  1.2016  2.7813 -0.0795
  977MOL0     H28922   9.067   9.426   5.052  1.8648  1.0780  1.4387
  977MOL0     H28923   9.069   9.380   5.217 -0.1682 -2.4888  0.3608
  977MOL0     H28924   8.951   9.230   5.036  0.8834  2.2632 -1.1910
  977MOL0     H28925   8.824   9.343   5.049 -3.2088 -1.1833  1.1569
  977MOL0     H28926   8.770   9.222   5.466 -0.5767  1.8865  2.1804
  977MOL0     H28927   8.544   9.141   5.537  1.5313 -1.4248  0.6043
  977MOL0     H28928   8.050   9.217   5.131  0.9564  0.7651  0.7039
  977MOL0     H28929   7.807   9.195   5.159 -0.0944 -0.7963 -1.3200
  977MOL0     H28930   7.564   9.128   5.218  1.5745  0.3805 -0.7212
  977MOL0     H28931   7.624   9.232   5.358  0.1435  1.4906 -3.2971
  977MOL0     H28932   7.375   9.178   5.352 -0.9415  1.4596  2.4611
  977MOL0     H28933   7.466   9.122   5.498 -0.8900 -0.7557 -0.3991
  977MOL0     H28934   7.462   8.905   5.449 -0.4405  0.8904  0.8756
  977MOL0     H28935   7.395   8.927   5.282 -0.6832 -2.8796  1.4381
  977MOL0     H28936   7.230   9.027   5.518 -1.2572 -0.3563 -0.2194
  977MOL0     H28937   7.180   8.978   5.361 -0.5432 -0.0959 -0.4196
  977MOL0     H28938   7.316   8.786   5.548  1.1563 -0.5443  0.0228
  977MOL0     H28939   7.196   8.736   5.417 -2.5890  2.7980 -0.6994
  977MOL0     H28940   7.138   8.871   5.682 -1.4432  0.1690 -0.2160
  977MOL0     H28941   7.119   8.706   5.646 -3.0271 -1.6474 -1.9835
  977MOL0     H28942   6.967   8.893   5.457 -4.2432  1.6701  2.7598
  977MOL0     H28943   6.953   8.716   5.479 -2.0972 -0.8782  0.7217
  977MOL0     H28944   6.762   8.828   5.571 -1.1209  0.8886  1.8667
  977MOL0     H28945   6.864   8.909   5.691  2.7473  0.5734 -0.9816
  977MOL0     H28946   7.879   8.885   5.447  0.9301 -1.2347 -1.5874
  977MOL0     H28947   8.111   8.928   5.446  2.3459 -0.0427 -2.7181
  977MOL0     H28948   8.433   9.192   5.114  0.7624 -5.8435 -0.0487
  977MOL0     H28949   8.645   9.229   5.056 -2.2897  0.0947  0.1141
  977MOL0     H28950   7.441   9.376   5.517  0.3187  0.0523  0.0067
  977MOL0     H28951   7.199   9.368   5.474  0.4342 -0.4862  0.2368
  977MOL0     H28952   6.780   9.485   5.728  0.5701  0.3330 -2.0178
  977MOL0     H28953   6.557   9.503   5.770 -1.7585  0.3717  0.3286
  977MOL0     H28954   6.368   9.519   5.623  1.8259 -2.4523 -1.2606
  977MOL0     H28955   6.315   9.477   5.791 -1.7635  3.7933 -0.6614
  977MOL0     H28956   6.128   9.530   5.634  0.1027  0.5126  4.5488
  977MOL0     H28957   6.186   9.407   5.526  1.6773 -0.5310  0.0028
  977MOL0     H28958   6.134   9.290   5.786  1.7557 -3.6404 -2.2947
  977MOL0     H28959   6.097   9.242   5.634 -0.9376 -1.7811  0.9212
  977MOL0     H28960   5.881   9.298   5.751 -2.9904  1.3820 -0.5912
  977MOL0     H28961   5.921   9.464   5.758  1.1822 -0.1103  0.7085
  977MOL0     H28962   5.835   9.333   5.346 -1.0604 -0.4244 -0.0335
  977MOL0     H28963   6.486   9.114   5.601 -2.2729  2.5554  0.1375
  977MOL0     H28964   6.733   9.086   5.561  2.4258  0.6040  1.3156
  978MOL0     O28965   9.531  10.935   0.195  0.9174 -0.1201 -0.8027
  978MOL0     C28966   9.571  10.952   0.078 -0.2294 -1.0473  0.0484
  978MOL0     O28967   9.667  11.049   0.039  0.1013  0.3142  0.6636
  978MOL0     C28968   9.728  11.126   0.138  0.6672  0.1529  0.6795
  978MOL0     C28969   9.698  11.259   0.119 -0.1374  0.1826 -0.2048
  978MOL0     C28970   9.773  11.346   0.195 -0.4374 -0.6980  0.2767
  978MOL0     C28971   9.877  11.311   0.278  0.5180  0.3428 -0.1754
  978MOL0     O28972   9.954  11.411   0.339  0.2267  0.4441  0.5389
  978MOL0     C28973  10.091  11.392   0.365  0.7494 -0.1398 -0.3549
  978MOL0     C28974  10.116  11.431   0.508  0.5412  0.2896  0.1272
  978MOL0     C28975  10.267  11.427   0.539 -0.5678  0.7495  0.3537
  978MOL0     C28976  10.354  11.506   0.434 -0.4762 -0.0578 -0.3681
  978MOL0     C28977  10.485  11.553   0.493 -0.9715 -1.1411 -0.4430
  978MOL0     C28978  10.551  11.650   0.396  0.1185 -0.1202 -0.2969
  978MOL0     C28979  10.703  11.674   0.437  0.2423  0.9283  0.0072
  978MOL0     C28980  10.778  11.785   0.371  0.0187 -0.6008 -0.4197
  978MOL0     N28981  10.748  11.758   0.223 -0.5124 -0.0126 -0.3485
  978MOL0     C28982  10.667  11.828   0.144  0.4057 -0.9187  0.7599
  978MOL0     C28983  10.699  11.789   0.018 -0.4208 -0.6099  0.1830
  978MOL0     C28984  10.648  11.843  -0.110 -0.3071 -0.0839  0.1021
  978MOL0     C28985  10.734  11.966  -0.154  0.2206  0.7566 -0.0351
  978MOL0     C28986  10.722  11.992  -0.308  0.0787  0.6788 -0.5889
  978MOL0     C28987  10.782  11.890  -0.401  0.3070  0.4957  0.0515
  978MOL0     O28988  10.770  11.926  -0.533  0.4727  0.2520  0.8205
  978MOL0     C28989  10.845  11.863  -0.633  0.4062 -1.0771 -0.0713
  978MOL0     C28990  10.940  11.765  -0.611  0.2467  0.3845  0.0161
  978MOL0     C28991  11.016  11.714  -0.715  0.1213  0.2922  0.2446
  978MOL0     C28992  10.978  11.751  -0.847 -0.4253  0.6950 -0.1537
  978MOL0     C28993  11.033  11.670  -0.964  0.5018  0.8606 -0.3424
  978MOL0     O28994  11.101  11.552  -0.936 -0.3864 -0.4379 -0.0324
  978MOL0     C28995  11.138  11.459  -1.033  0.1695 -0.1071  0.8248
  978MOL0     C28996  11.243  11.377  -1.006 -0.5755  0.9415  0.0387
  978MOL0     C28997  11.306  11.290  -1.091 -0.1554  0.7667 -0.1991
  978MOL0     C28998  11.237  11.242  -1.199  0.0178 -0.1379 -0.8203
  978MOL0     O28999  11.289  11.138  -1.270 -0.4429 -0.1402  0.6647
  978MOL0     C29000  11.211  11.034  -1.328  0.8132 -0.1719  0.0433
  978MOL0     C29001  11.282  10.906  -1.354 -0.2182 -0.7010  0.1703
  978MOL0     C29002  11.186  10.789  -1.363 -0.2496  0.6999  0.1731
  978MOL0     C29003  11.143  10.731  -1.235 -0.0192  0.9592 -0.7413
  978MOL0     C29004  11.014  10.659  -1.243  0.4854 -0.9769  0.4645
  978MOL0     C29005  10.993  10.571  -1.126 -0.5781  0.3573  0.0340
  978MOL0     C29006  10.990  10.644  -0.988 -0.2895 -0.1601  0.7109
  978MOL0     C29007  10.997  10.546  -0.870 -0.1561  0.0779 -1.4544
  978MOL0    Cl29008  11.108  10.411  -0.897  0.1152 -0.0254  0.2423
  978MOL0     C29009  11.114  11.311  -1.233 -0.6438  0.0768 -0.3061
  978MOL0     C29010  11.066  11.420  -1.147 -0.8042 -0.5623  0.7023
  978MOL0     O29011  11.004  11.704  -1.081 -0.6755 -0.5009 -0.2186
  978MOL0     C29012  10.879  11.843  -0.869 -0.2329 -0.3457 -0.5087
  978MOL0     C29013  10.815  11.906  -0.763 -0.6847 -1.1946 -0.1594
  978MOL0     N29014  10.796  11.685   0.020 -0.3777 -0.1646 -1.7072
  978MOL0     N29015  10.818  11.665   0.143 -0.6059 -0.3282 -0.6395
  978MOL0     C29016   9.896  11.174   0.301 -0.2231  0.1450 -0.0172
  978MOL0     C29017   9.826  11.088   0.222 -0.7139  0.0970  0.0871
  978MOL0     C29018   9.494  10.868  -0.017 -0.4332 -0.4674 -0.0366
  978MOL0     C29019   9.552  10.852  -0.149  0.1139 -0.0843 -0.1670
  978MOL0     C29020   9.481  10.771  -0.243  0.4350 -0.0160 -0.8847
  978MOL0     C29021   9.359  10.716  -0.209  0.6605  0.0333 -0.0146
  978MOL0     O29022   9.299  10.630  -0.302  0.2393  0.2336  0.0078
  978MOL0     C29023   9.344  10.496  -0.277 -0.5359 -0.6256  0.2207
  978MOL0     C29024   9.376  10.423  -0.407  0.5377  0.2660  0.5030
  978MOL0     C29025   9.490  10.495  -0.469  0.3050  0.3524  0.7701
  978MOL0     C29026   9.565  10.422  -0.579  0.6851  0.2586 -0.1663
  978MOL0     C29027   9.484  10.387  -0.696  0.4960  0.0090 -0.1250
  978MOL0     C29028   9.422  10.356  -0.800 -0.2286 -0.2873 -0.3118
  978MOL0     C29029   9.299  10.746  -0.089  0.0804 -0.7236 -0.2368
  978MOL0     C29030   9.368  10.817   0.009 -0.4472 -0.3745  0.2931
  978MOL0     H29031   9.633  11.304   0.044  1.6781 -0.0493 -1.9990
  978MOL0     H29032   9.763  11.453   0.180  0.6546 -0.9000 -2.5019
  978MOL0     H29033  10.149  11.453   0.296  1.4370 -2.5997 -2.1220
  978MOL0     H29034  10.125  11.288   0.361  1.5563  0.1453 -1.3738
  978MOL0     H29035  10.062  11.365   0.576  0.7254 -1.4279 -1.3120
  978MOL0     H29036  10.083  11.534   0.524  0.1005  0.1341  0.2279
  978MOL0     H29037  10.286  11.319   0.538 -2.7555  0.2791 -2.1437
  978MOL0     H29038  10.282  11.462   0.641 -0.0832 -0.4866  0.7249
  978MOL0     H29039  10.381  11.441   0.350  0.4166 -1.3357  0.8621
  978MOL0     H29040  10.285  11.584   0.402 -0.8539 -0.4674 -0.5665
  978MOL0     H29041  10.549  11.464   0.504  3.2377  1.7880  1.4175
  978MOL0     H29042  10.477  11.591   0.595 -0.2688  2.6111 -1.6438
  978MOL0     H29043  10.501  11.747   0.391 -1.0885 -0.6782  0.4081
  978MOL0     H29044  10.541  11.599   0.300 -1.7634 -1.0443  0.3409
  978MOL0     H29045  10.712  11.701   0.542 -2.2446  1.0285  0.2459
  978MOL0     H29046  10.761  11.584   0.416 -1.6631 -0.1893 -0.7063
  978MOL0     H29047  10.881  11.805   0.403 -0.7162  2.6541  0.3031
  978MOL0     H29048  10.740  11.882   0.406  1.6626  0.1669 -0.6677
  978MOL0     H29049  10.601  11.908   0.176  1.5466 -0.9520  3.3962
  978MOL0     H29050  10.544  11.874  -0.093 -0.8822 -1.6901 -0.3566
  978MOL0     H29051  10.656  11.767  -0.188  1.1195  1.5918 -1.4841
  978MOL0     H29052  10.840  11.948  -0.136  0.6998  3.3730  0.0345
  978MOL0     H29053  10.701  12.049  -0.092  1.1508  0.0854  1.4081
  978MOL0     H29054  10.617  11.990  -0.337 -0.2098  1.3352  0.3521
  978MOL0     H29055  10.771  12.086  -0.334  0.1257  1.1017  0.9600
  978MOL0     H29056  10.729  11.796  -0.379  0.4464  0.5224  0.5349
  978MOL0     H29057  10.889  11.881  -0.385  0.4937 -1.3735 -1.8490
  978MOL0     H29058  10.948  11.721  -0.512 -2.9645 -0.7275 -0.0948
  978MOL0     H29059  11.080  11.628  -0.695 -2.4481 -1.9594 -0.5686
  978MOL0     H29060  11.298  11.400  -0.916 -0.6073 -2.4702  1.0747
  978MOL0     H29061  11.386  11.238  -1.039 -0.9753  0.8725  1.2188
  978MOL0     H29062  11.180  11.071  -1.425  0.5003 -2.8462 -0.9609
  978MOL0     H29063  11.126  11.011  -1.263 -0.0747  0.6077 -0.8193
  978MOL0     H29064  11.350  10.888  -1.270  0.1132 -0.2650  0.0041
  978MOL0     H29065  11.345  10.918  -1.443 -0.1527 -0.4504  0.2489
  978MOL0     H29066  11.234  10.709  -1.419 -1.3183 -1.1800  1.8277
  978MOL0     H29067  11.092  10.817  -1.412 -1.1740 -0.7588  1.0560
  978MOL0     H29068  11.221  10.664  -1.198 -1.0730  0.8099  1.3343
  978MOL0     H29069  11.139  10.817  -1.169  0.5830  1.0658 -0.8358
  978MOL0     H29070  10.992  10.603  -1.334  0.0510  0.7100 -0.5222
  978MOL0     H29071  10.941  10.741  -1.236 -0.2786 -1.5265 -0.7807
  978MOL0     H29072  11.061  10.485  -1.119  0.1243  1.0403  4.0647
  978MOL0     H29073  10.894  10.524  -1.135  0.2245 -1.3094 -0.5006
  978MOL0     H29074  11.072  10.715  -0.973 -1.2153  1.7509 -2.4638
  978MOL0     H29075  10.895  10.699  -0.984 -0.5583 -0.5754  0.2176
  978MOL0     H29076  10.897  10.502  -0.866 -0.2389  0.3046  2.2807
  978MOL0     H29077  11.016  10.593  -0.773 -2.2150  1.6139 -1.7147
  978MOL0     H29078  11.066  11.298  -1.329 -1.2914 -2.7930  0.3193
  978MOL0     H29079  10.981  11.483  -1.169  0.4579  1.7203  2.0011
  978MOL0     H29080  10.850  11.881  -0.967 -0.2894  0.8965 -0.0324
  978MOL0     H29081  10.745  11.987  -0.779 -0.5462 -1.1520 -0.5632
  978MOL0     H29082   9.956  11.141   0.384 -0.5728  0.7423  0.4833
  978MOL0     H29083   9.862  10.986   0.218  0.4821  0.4240  1.4829
  978MOL0     H29084   9.650  10.896  -0.162 -0.0720  1.8889  3.6420
  978MOL0     H29085   9.517  10.753  -0.344  1.6828  0.3582 -0.5266
  978MOL0     H29086   9.267  10.443  -0.220  0.8561 -0.8557  2.0129
  978MOL0     H29087   9.430  10.485  -0.209 -1.1846 -2.6084  0.8071
  978MOL0     H29088   9.389  10.315  -0.397 -1.1998 -0.0101  0.0786
  978MOL0     H29089   9.292  10.429  -0.477 -1.1269  1.0465  2.4581
  978MOL0     H29090   9.563  10.506  -0.388  2.3841 -0.7981 -0.8483
  978MOL0     H29091   9.460  10.597  -0.496 -2.1790 -0.5092  0.0681
  978MOL0     H29092   9.651  10.480  -0.613 -0.6541  3.5274  1.5337
  978MOL0     H29093   9.611  10.337  -0.528  1.2615  0.1947 -0.7782
  978MOL0     H29094   9.380  10.327  -0.894  0.0893  0.7813 -0.8074
  978MOL0     H29095   9.198  10.708  -0.074 -0.3281  0.9653  1.7162
  978MOL0     H29096   9.328  10.849   0.105  0.4474  3.1514 -0.3476
  979MOL0     O29097   3.934   6.097   5.653 -0.6970 -0.7479 -0.6739
  979MOL0     C29098   4.032   6.020   5.664  0.0813 -0.5271 -0.0118
  979MOL0     O29099   4.044   5.909   5.593 -0.0723 -0.1471  0.3291
  979MOL0     C29100   3.952   5.875   5.492  0.2692 -0.1332  0.9993
  979MOL0     C29101   3.953   5.743   5.443 -0.0731  0.8754 -0.5023
  979MOL0     C29102   3.881   5.693   5.333 -1.0595  0.0222 -0.3772
  979MOL0     C29103   3.807   5.788   5.263 -0.4971 -0.1296  0.0226
  979MOL0     O29104   3.742   5.759   5.138  0.8171  0.2572 -0.4200
  979MOL0     C29105   3.635   5.658   5.147 -0.7313 -0.0350 -0.3033
  979MOL0     C29106   3.514   5.691   5.244 -1.1106  0.1146  0.4691
  979MOL0     C29107   3.404   5.587   5.247 -1.2035  0.0712 -0.3559
  979MOL0     C29108   3.271   5.650   5.292  0.0038  0.4864 -0.4640
  979MOL0     C29109   3.154   5.556   5.256  0.1798  0.1879 -0.5951
  979MOL0     C29110   3.023   5.606   5.315 -0.4805  0.5237  0.7509
  979MOL0     C29111   2.905   5.521   5.267  0.5698 -0.4585  0.2796
  979MOL0     C29112   2.765   5.574   5.288 -0.6176  0.3839  0.8335
  979MOL0     N29113   2.664   5.474   5.261 -0.6474  0.5452 -0.7380
  979MOL0     C29114   2.627   5.393   5.363  0.5952  0.2872 -0.1782
  979MOL0     C29115   2.537   5.308   5.298  0.2704  0.6897  0.2591
  979MOL0     C29116   2.465   5.197   5.361  0.1148  1.0626  0.3842
  979MOL0     C29117   2.383   5.245   5.479 -0.4584 -0.3323 -0.3352
  979MOL0     C29118   2.291   5.139   5.535  0.0069  0.3782  0.8032
  979MOL0     C29119   2.191   5.190   5.633 -0.1135  0.9818  0.0067
  979MOL0     O29120   2.148   5.317   5.606  0.7782  0.7002  0.2362
  979MOL0     C29121   2.036   5.357   5.674 -0.0953  0.1692 -1.1732
  979MOL0     C29122   1.966   5.274   5.767 -0.5499  0.1056  0.7753
  979MOL0     C29123   1.845   5.316   5.821  0.0856  0.5015  0.0149
  979MOL0     C29124   1.792   5.442   5.786  0.3762  0.4012  0.5843
  979MOL0     C29125   1.668   5.487   5.831  0.4036 -0.0333 -0.3834
  979MOL0     O29126   1.612   5.600   5.771 -0.1735 -0.5164  0.5950
  979MOL0     C29127   1.480   5.617   5.786 -0.3414  0.3992  0.3682
  979MOL0     C29128   1.389   5.519   5.753 -0.0587  0.0532 -0.7160
  979MOL0     C29129   1.251   5.546   5.760 -0.7100 -1.8140  0.3086
  979MOL0     C29130   1.211   5.670   5.817  0.6781 -0.4644 -0.3488
  979MOL0     O29131   1.081   5.678   5.847  0.3851 -1.0222 -0.5174
  979MOL0     C29132   1.019   5.808   5.852  0.7818  0.2938 -0.3477
  979MOL0     C29133   0.871   5.772   5.896  0.0256 -0.3435  0.5655
  979MOL0     C29134   0.785   5.901   5.910 -0.4722 -0.8891 -0.3325
  979MOL0     C29135   0.743   5.967   5.775 -0.6575  0.7516  0.4712
  979MOL0     C29136   0.656   6.095   5.784 -0.2155 -0.8109 -0.6624
  979MOL0     C29137   0.718   6.217   5.846  0.1426 -0.4971  0.0232
  979MOL0     C29138   0.844   6.272   5.771 -0.5636  0.1760 -0.4839
  979MOL0     C29139   0.868   6.414   5.813 -1.7534  0.0800 -0.7565
  979MOL0    Cl29140   0.728   6.509   5.747  0.2980  0.3752 -0.0333
  979MOL0     C29141   1.302   5.770   5.850  0.2518  0.0058 -0.2714
  979MOL0     C29142   1.435   5.744   5.838  0.7922 -0.9237  0.0915
  979MOL0     O29143   1.621   5.425   5.923  0.2216 -0.4569 -0.1727
  979MOL0     C29144   1.862   5.524   5.699 -0.1480  1.1629 -0.1115
  979MOL0     C29145   1.986   5.482   5.653  0.4266 -0.2001  0.6323
  979MOL0     N29146   2.539   5.329   5.161  0.8109 -0.5788 -1.6178
  979MOL0     N29147   2.599   5.443   5.141  0.7868 -0.0826 -0.1437
  979MOL0     C29148   3.805   5.930   5.302  1.4937 -0.6651 -0.0855
  979MOL0     C29149   3.880   5.969   5.409  0.0695 -0.3227 -0.5525
  979MOL0     C29150   4.137   6.041   5.762  0.3435  0.6264 -0.3776
  979MOL0     C29151   4.103   6.118   5.883 -0.4759  0.1015  0.4170
  979MOL0     C29152   4.202   6.139   5.985 -0.1617  0.0345  0.0649
  979MOL0     C29153   4.331   6.093   5.969 -0.3396  0.3834  0.6434
  979MOL0     O29154   4.438   6.116   6.051  0.3161  0.0562  0.3474
  979MOL0     C29155   4.413   6.163   6.183 -0.3710 -0.5712  0.0664
  979MOL0     C29156   4.406   6.320   6.186  0.0324 -0.4210 -0.0854
  979MOL0     C29157   4.541   6.392   6.171 -0.8668  0.2346 -0.8983
  979MOL0     C29158   4.532   6.534   6.103 -0.4713  0.0933  0.5025
  979MOL0     C29159   4.497   6.524   5.956 -0.4113  0.4729  0.5784
  979MOL0     C29160   4.465   6.505   5.840 -0.1740 -1.1244 -0.3437
  979MOL0     C29161   4.356   6.009   5.864  0.4534  0.4395  0.1966
  979MOL0     C29162   4.267   5.983   5.753  0.8273 -0.4212  0.7934
  979MOL0     H29163   4.026   5.676   5.487  0.8233  2.4887  0.5943
  979MOL0     H29164   3.900   5.592   5.296  0.0365 -0.7578  2.1359
  979MOL0     H29165   3.688   5.569   5.182 -1.9984 -1.1018 -0.9853
  979MOL0     H29166   3.597   5.639   5.046  0.2122 -1.2959 -0.4491
  979MOL0     H29167   3.463   5.781   5.207  1.4814  0.7178 -1.9722
  979MOL0     H29168   3.558   5.712   5.341 -0.6618  2.6951 -0.2144
  979MOL0     H29169   3.438   5.500   5.304 -1.3765 -0.1461 -0.5838
  979MOL0     H29170   3.379   5.543   5.149  1.6737  0.7337 -1.4737
  979MOL0     H29171   3.288   5.684   5.395  0.3159  2.9186 -1.2425
  979MOL0     H29172   3.227   5.740   5.248 -0.5075  0.4052 -0.1265
  979MOL0     H29173   3.167   5.451   5.284 -2.5795 -0.4220 -1.3340
  979MOL0     H29174   3.153   5.561   5.147  0.1215 -1.1719 -0.6673
  979MOL0     H29175   2.995   5.709   5.294 -1.8198  0.6028  2.6777
  979MOL0     H29176   3.040   5.606   5.423 -0.8856  1.7968  0.8243
  979MOL0     H29177   2.904   5.512   5.157 -2.4889  1.1122  0.0928
  979MOL0     H29178   2.910   5.420   5.309 -1.4284  0.8790  4.1403
  979MOL0     H29179   2.749   5.668   5.234  1.6387  0.6690  0.5665
  979MOL0     H29180   2.750   5.608   5.390 -3.9438  1.5667  0.0749
  979MOL0     H29181   2.674   5.370   5.458 -1.3308  0.2638  0.8114
  979MOL0     H29182   2.532   5.114   5.388 -0.1213 -1.0139 -4.4621
  979MOL0     H29183   2.391   5.149   5.297 -1.4379 -0.6489  3.2220
  979MOL0     H29184   2.339   5.339   5.444  2.4147  1.7209  1.1830
  979MOL0     H29185   2.447   5.270   5.564 -0.3680 -4.3145  1.0085
  979MOL0     H29186   2.238   5.108   5.444  0.8553  2.9369 -0.6419
  979MOL0     H29187   2.354   5.060   5.577  3.4664  0.8560 -2.9468
  979MOL0     H29188   2.240   5.195   5.731 -0.6745  0.0661  0.3517
  979MOL0     H29189   2.113   5.113   5.634  0.0927  0.7334  2.4795
  979MOL0     H29190   2.000   5.179   5.805 -1.0610  0.0393  1.0702
  979MOL0     H29191   1.805   5.260   5.905 -0.6734 -1.1906 -1.4020
  979MOL0     H29192   1.427   5.427   5.709 -0.2860 -0.0978 -0.5963
  979MOL0     H29193   1.176   5.468   5.752 -1.8040 -0.7524  0.0187
  979MOL0     H29194   1.015   5.856   5.754  1.1999 -0.9660 -1.0152
  979MOL0     H29195   1.055   5.877   5.929 -1.4885 -0.8786  1.9130
  979MOL0     H29196   0.873   5.718   5.991  2.6809 -1.8257 -0.2034
  979MOL0     H29197   0.823   5.707   5.822 -0.6651 -0.3256  0.9974
  979MOL0     H29198   0.849   5.975   5.959 -1.0741 -0.6862  0.1616
  979MOL0     H29199   0.690   5.882   5.961 -0.3322 -2.6984 -0.6930
  979MOL0     H29200   0.827   5.998   5.713 -1.7211  0.2502 -1.2883
  979MOL0     H29201   0.696   5.887   5.718  0.0740  0.4324  0.3066
  979MOL0     H29202   0.568   6.062   5.840 -0.7449 -0.4653 -1.2869
  979MOL0     H29203   0.619   6.127   5.686  1.3743 -1.9266 -1.6839
  979MOL0     H29204   0.761   6.193   5.943 -2.7077  2.3439  2.2240
  979MOL0     H29205   0.642   6.296   5.851  0.6198 -0.0445  0.2961
  979MOL0     H29206   0.924   6.199   5.788 -2.0548 -1.3061  0.5083
  979MOL0     H29207   0.819   6.281   5.665  0.1048 -1.9667 -0.8754
  979MOL0     H29208   0.965   6.444   5.772 -0.4918 -0.3182  1.7506
  979MOL0     H29209   0.878   6.416   5.922  0.7007  1.5252 -0.9340
  979MOL0     H29210   1.266   5.864   5.892 -0.2729 -0.0081 -0.6832
  979MOL0     H29211   1.504   5.826   5.850 -0.4393 -0.0085  1.0943
  979MOL0     H29212   1.814   5.618   5.671 -3.3860  0.0011  1.0079
  979MOL0     H29213   2.029   5.552   5.582  0.5658  0.7723  1.6496
  979MOL0     H29214   3.752   6.006   5.246  0.6396 -1.1175  0.0857
  979MOL0     H29215   3.876   6.077   5.424  1.2584 -0.3126 -0.1934
  979MOL0     H29216   3.999   6.147   5.897 -1.0195 -1.6013  0.2305
  979MOL0     H29217   4.181   6.209   6.065  1.2385  3.6985 -2.5070
  979MOL0     H29218   4.499   6.133   6.244  0.4550  1.8173  0.1813
  979MOL0     H29219   4.324   6.124   6.232  0.0751  0.4168  1.7322
  979MOL0     H29220   4.340   6.349   6.104  0.7904 -1.1158 -0.9621
  979MOL0     H29221   4.341   6.350   6.269  1.0666  0.1116  0.5589
  979MOL0     H29222   4.598   6.318   6.114 -0.8179  1.5068 -2.5790
  979MOL0     H29223   4.579   6.397   6.273  0.3448 -3.6504 -1.0223
  979MOL0     H29224   4.454   6.593   6.151  1.4086  1.2314  2.3306
  979MOL0     H29225   4.622   6.592   6.125  0.3863 -1.1258  0.3401
  979MOL0     H29226   4.445   6.500   5.735 -1.3433  1.3846 -0.3139
  979MOL0     H29227   4.458   5.974   5.859  0.3760  0.3364 -0.9446
  979MOL0     H29228   4.295   5.923   5.667  1.5112 -1.0962  1.4654
  980MOL0     O29229   9.149   6.575   5.124 -0.4972 -0.4316  0.2029
  980MOL0     C29230   9.192   6.646   5.037  0.1103 -0.5101  0.1024
  980MOL0     O29231   9.122   6.748   4.990 -0.4220 -0.8497  0.6419
  980MOL0     C29232   9.001   6.783   5.041 -0.9596 -0.9776 -0.4211
  980MOL0     C29233   8.985   6.918   5.101  0.5317  0.0352  0.9021
  980MOL0     C29234   8.856   6.959   5.142  0.0911 -0.2695 -0.1217
  980MOL0     C29235   8.747   6.878   5.128  0.3685  1.6449  1.6183
  980MOL0     O29236   8.630   6.927   5.175  0.2142 -0.3228  0.9214
  980MOL0     C29237   8.560   6.840   5.264 -0.1232 -0.4110 -1.6048
  980MOL0     C29238   8.408   6.870   5.271  0.0016 -0.6091  0.7106
  980MOL0     C29239   8.341   6.801   5.164  0.2637  0.0920  0.2484
  980MOL0     C29240   8.191   6.846   5.164 -0.3166  0.2323  0.7999
  980MOL0     C29241   8.116   6.768   5.065  0.6370 -0.5658 -0.4526
  980MOL0     C29242   7.967   6.798   5.056  0.4783  0.2105  0.1515
  980MOL0     C29243   7.925   6.905   4.946 -0.0110 -0.1502 -0.4556
  980MOL0     C29244   7.782   6.883   4.901 -0.2421  0.4761  0.2287
  980MOL0     N29245   7.673   6.940   4.990 -0.7694 -0.0202 -0.1606
  980MOL0     C29246   7.615   7.057   4.959  0.7135  0.2477 -0.5214
  980MOL0     C29247   7.558   7.088   5.074  0.1453 -0.9786 -0.1831
  980MOL0     C29248   7.516   7.226   5.108  0.7773 -0.1349 -0.6098
  980MOL0     C29249   7.438   7.247   5.237 -0.6034  0.4415  0.3201
  980MOL0     C29250   7.312   7.160   5.232  0.2888  0.0139 -0.0606
  980MOL0     C29251   7.228   7.166   5.360 -0.3475 -0.3714  0.7456
  980MOL0     O29252   7.091   7.141   5.332  0.7722 -0.1477 -1.3231
  980MOL0     C29253   6.993   7.135   5.435 -0.7682  0.0483  0.3964
  980MOL0     C29254   6.870   7.075   5.397  0.9223 -0.4304 -0.4751
  980MOL0     C29255   6.766   7.064   5.494 -0.2661  0.2524  0.7404
  980MOL0     C29256   6.788   7.102   5.621 -0.4528 -1.3026  0.6461
  980MOL0     C29257   6.673   7.087   5.716 -0.2607 -0.3102  0.0577
  980MOL0     O29258   6.553   7.093   5.643  0.7652  0.1230 -0.5013
  980MOL0     C29259   6.422   7.085   5.690 -0.5085  1.1038 -0.5419
  980MOL0     C29260   6.319   7.100   5.598  0.5830 -0.1667 -0.1896
  980MOL0     C29261   6.190   7.101   5.640 -0.9996 -0.1721  0.1769
  980MOL0     C29262   6.154   7.076   5.772 -0.1620  0.0763  0.3265
  980MOL0     O29263   6.027   7.100   5.819  0.2103 -0.2096 -0.4102
  980MOL0     C29264   5.913   7.114   5.735 -0.6665 -0.2076  0.7643
  980MOL0     C29265   5.789   7.160   5.804  0.5501  0.1111 -0.3975
  980MOL0     C29266   5.819   7.285   5.886 -0.2453  0.4402 -0.2888
  980MOL0     C29267   5.686   7.358   5.929 -0.2113  0.5763  0.4323
  980MOL0     C29268   5.594   7.265   6.017 -0.3750  0.1474 -0.7201
  980MOL0     C29269   5.634   7.233   6.163 -0.8776  0.7169  0.9355
  980MOL0     C29270   5.538   7.134   6.233  0.5195 -0.6303  0.5063
  980MOL0     C29271   5.577   7.126   6.375  0.2171 -0.0888 -0.6040
  980MOL0    Cl29272   5.489   7.001   6.457  0.3018  0.3712 -0.1687
  980MOL0     C29273   6.262   7.055   5.872 -0.6028 -0.5923  0.0665
  980MOL0     C29274   6.393   7.045   5.828  0.0707  0.5876 -0.5048
  980MOL0     O29275   6.694   7.080   5.839  0.4305  0.1289 -0.5188
  980MOL0     C29276   6.903   7.155   5.667 -0.7683  0.5933 -0.2988
  980MOL0     C29277   7.001   7.181   5.567 -0.5384  0.0815  0.3147
  980MOL0     N29278   7.557   6.984   5.167 -0.6520  0.4757  0.1369
  980MOL0     N29279   7.649   6.902   5.120 -0.2807 -0.1292  0.3699
  980MOL0     C29280   8.757   6.756   5.066  0.3822 -0.0895  0.4965
  980MOL0     C29281   8.885   6.704   5.015  0.2941  0.8636 -0.2632
  980MOL0     C29282   9.328   6.610   4.980  0.0539  0.5324  0.0480
  980MOL0     C29283   9.395   6.698   4.905 -0.1017 -0.4981  0.2477
  980MOL0     C29284   9.515   6.660   4.839  0.0042 -0.6541 -0.2472
  980MOL0     C29285   9.577   6.549   4.869 -0.0900  0.0233 -0.0648
  980MOL0     O29286   9.706   6.535   4.818  0.8581 -0.6288 -0.4571
  980MOL0     C29287   9.783   6.437   4.882  0.1780  0.5722  0.8073
  980MOL0     C29288   9.903   6.424   4.778 -0.0007  0.4105 -1.1741
  980MOL0     C29289  10.019   6.346   4.830 -1.1241  0.6762  0.2744
  980MOL0     C29290  10.129   6.340   4.727  0.0954 -0.0141  0.2118
  980MOL0     C29291  10.233   6.239   4.765  0.3875  0.7543  0.7638
  980MOL0     C29292  10.321   6.164   4.800  0.2889  0.5296  0.2157
  980MOL0     C29293   9.509   6.459   4.961 -0.6877 -0.0270  0.1139
  980MOL0     C29294   9.383   6.484   5.003  0.3201 -0.6936  0.0414
  980MOL0     H29295   9.072   6.982   5.105 -0.4497  1.3639  1.9265
  980MOL0     H29296   8.848   7.060   5.182  1.8610 -0.0365 -0.2862
  980MOL0     H29297   8.595   6.837   5.368  0.6050  1.6909 -1.7430
  980MOL0     H29298   8.551   6.738   5.224  0.2048 -1.9157  1.7710
  980MOL0     H29299   8.387   6.977   5.276 -2.9335 -1.1740  2.2314
  980MOL0     H29300   8.375   6.832   5.368  0.8091 -0.4287  1.0688
  980MOL0     H29301   8.335   6.694   5.181 -1.2940 -0.0832 -1.1608
  980MOL0     H29302   8.380   6.810   5.061  5.0960  1.8266  1.9166
  980MOL0     H29303   8.146   6.839   5.264 -1.0034 -0.3784  0.4605
  980MOL0     H29304   8.183   6.951   5.135 -1.2662 -0.1213 -0.3214
  980MOL0     H29305   8.130   6.664   5.096 -1.5060 -0.7259  0.1176
  980MOL0     H29306   8.166   6.765   4.967  1.7794 -0.9083  0.1153
  980MOL0     H29307   7.934   6.830   5.156 -1.8892  0.7539 -0.7397
  980MOL0     H29308   7.916   6.704   5.033 -0.3471  1.4882 -4.0687
  980MOL0     H29309   7.943   7.007   4.983  3.2185 -0.7087 -0.2327
  980MOL0     H29310   7.999   6.899   4.866  1.5962  1.1775  0.8517
  980MOL0     H29311   7.778   6.774   4.899  0.5347  0.2935  3.4900
  980MOL0     H29312   7.756   6.935   4.808  1.4242  2.3139  0.7139
  980MOL0     H29313   7.640   7.122   4.876 -0.8272 -2.4593 -3.3159
  980MOL0     H29314   7.444   7.252   5.030 -0.9347 -3.7604 -0.4550
  980MOL0     H29315   7.606   7.289   5.114 -0.9670  2.4036  1.6917
  980MOL0     H29316   7.410   7.353   5.239 -2.2844  0.0022  1.4799
  980MOL0     H29317   7.501   7.223   5.323  2.3045 -1.9223 -2.1979
  980MOL0     H29318   7.255   7.194   5.146 -1.6586  0.4129  1.3356
  980MOL0     H29319   7.329   7.054   5.213 -3.5237 -0.7507 -0.0157
  980MOL0     H29320   7.249   7.262   5.407 -0.4023  0.2064 -0.3941
  980MOL0     H29321   7.269   7.088   5.426 -0.4064 -2.1494 -1.2091
  980MOL0     H29322   6.857   7.039   5.296 -2.0332  2.2315 -1.2185
  980MOL0     H29323   6.666   7.041   5.457  0.2843 -1.3512  0.1893
  980MOL0     H29324   6.356   7.123   5.498 -1.3913 -0.3470 -1.0053
  980MOL0     H29325   6.125   7.146   5.566 -1.1717  0.4970  0.7254
  980MOL0     H29326   5.897   7.020   5.682  3.3675 -0.5826 -0.0978
  980MOL0     H29327   5.930   7.180   5.650 -0.8722 -2.1583 -0.8778
  980MOL0     H29328   5.756   7.077   5.868 -1.4604  1.6795  0.7068
  980MOL0     H29329   5.706   7.166   5.732  0.2867 -0.3134 -0.1334
  980MOL0     H29330   5.861   7.371   5.834 -1.2666  1.1914  0.1054
  980MOL0     H29331   5.875   7.264   5.978  1.9183 -2.4134 -2.0880
  980MOL0     H29332   5.709   7.452   5.980  0.1749  0.1342  1.0925
  980MOL0     H29333   5.633   7.385   5.838 -2.4520  3.7946  2.4777
  980MOL0     H29334   5.593   7.165   5.971  2.8217 -0.7860  0.9939
  980MOL0     H29335   5.492   7.304   6.014  0.7263  3.3823  0.2517
  980MOL0     H29336   5.643   7.327   6.218 -4.7518  2.8032 -1.4942
  980MOL0     H29337   5.733   7.187   6.155 -0.8325  0.8790  0.5216
  980MOL0     H29338   5.431   7.155   6.223  0.5464 -1.2702 -1.9463
  980MOL0     H29339   5.555   7.035   6.190 -1.7467  0.5763 -3.8119
  980MOL0     H29340   5.555   7.220   6.426 -3.7968  0.8168 -3.4896
  980MOL0     H29341   5.680   7.096   6.393 -0.3833 -0.6684  2.2866
  980MOL0     H29342   6.222   7.032   5.971  3.1837 -3.2168  1.1850
  980MOL0     H29343   6.464   7.015   5.905 -1.4640 -1.1546  0.3082
  980MOL0     H29344   6.913   7.188   5.770  2.5506  1.7457 -0.8937
  980MOL0     H29345   7.090   7.240   5.589 -1.3180  1.4377 -0.1042
  980MOL0     H29346   8.664   6.706   5.041 -0.6110  2.6949 -2.0227
  980MOL0     H29347   8.902   6.606   4.973 -0.5575  1.1431 -1.2956
  980MOL0     H29348   9.349   6.794   4.881 -0.6804 -0.5382  1.1060
  980MOL0     H29349   9.554   6.730   4.765 -1.8235 -0.1026 -0.7437
  980MOL0     H29350   9.734   6.340   4.896 -0.7807  0.4529 -2.4401
  980MOL0     H29351   9.814   6.480   4.978 -1.5811 -2.7125  3.0323
  980MOL0     H29352   9.858   6.366   4.697  0.6574  0.2888 -1.4518
  980MOL0     H29353   9.941   6.514   4.730 -1.0099 -0.1636 -3.1419
  980MOL0     H29354   9.978   6.247   4.852 -3.8091  2.0013  1.7275
  980MOL0     H29355  10.050   6.379   4.930 -3.0896  0.1705  1.0956
  980MOL0     H29356  10.094   6.307   4.629 -0.6131 -0.7760  0.7009
  980MOL0     H29357  10.185   6.433   4.726  0.0179  0.1242  2.5278
  980MOL0     H29358  10.407   6.101   4.813 -1.4065 -1.6775  1.4278
  980MOL0     H29359   9.554   6.365   4.993  0.7692  0.0591 -1.5348
  980MOL0     H29360   9.325   6.416   5.065 -3.2335  0.0733 -2.1617
  981MOL0     O29361   4.229   7.146  10.479 -0.3470 -0.0759 -0.5123
  981MOL0     C29362   4.289   7.101  10.378  0.6735  0.4458 -0.0362
  981MOL0     O29363   4.229   7.076  10.264 -0.2703 -0.1228  0.1553
  981MOL0     C29364   4.120   7.132  10.213  0.2470  0.0391 -0.4131
  981MOL0     C29365   4.052   7.249  10.263 -0.5666  0.0933  0.3455
  981MOL0     C29366   3.931   7.296  10.199 -0.2373  0.3367 -0.1321
  981MOL0     C29367   3.869   7.237  10.084  0.0642  0.4338 -1.0149
  981MOL0     O29368   3.750   7.296  10.044 -0.2408  0.1047  1.3266
  981MOL0     C29369   3.729   7.260   9.904  0.2875  0.1190  0.6464
  981MOL0     C29370   3.629   7.344   9.823 -0.0116 -0.2065  1.0122
  981MOL0     C29371   3.567   7.272   9.705 -0.1188 -0.1055 -0.1476
  981MOL0     C29372   3.493   7.372   9.618 -0.2268  0.0164 -0.8708
  981MOL0     C29373   3.452   7.313   9.482  0.3284  0.2792 -0.3046
  981MOL0     C29374   3.357   7.194   9.495 -0.6499  0.5177  0.6156
  981MOL0     C29375   3.333   7.142   9.351  1.0788 -0.1246  0.5417
  981MOL0     C29376   3.226   7.037   9.359  0.4859 -0.0262  0.1906
  981MOL0     N29377   3.195   6.982   9.233 -0.5455  0.3466  0.3874
  981MOL0     C29378   3.228   6.853   9.201  0.6921 -0.5149 -0.1240
  981MOL0     C29379   3.161   6.821   9.088  0.8349  0.0513  0.2749
  981MOL0     C29380   3.170   6.691   9.012 -0.7967 -0.4854  0.4846
  981MOL0     C29381   3.085   6.686   8.878 -0.6964 -0.5347 -0.1288
  981MOL0     C29382   2.939   6.698   8.903 -0.5442 -0.6442 -0.2842
  981MOL0     C29383   2.851   6.703   8.781  0.1532  0.1548  0.4622
  981MOL0     O29384   2.756   6.595   8.781 -0.6709 -0.6015 -0.0669
  981MOL0     C29385   2.643   6.586   8.705  0.5455 -0.4730 -0.3130
  981MOL0     C29386   2.616   6.670   8.598 -1.0969 -0.5677  0.2344
  981MOL0     C29387   2.500   6.660   8.522  0.6872 -0.9934  0.1999
  981MOL0     C29388   2.395   6.568   8.560 -0.6503  0.7278  0.6625
  981MOL0     C29389   2.279   6.548   8.483 -0.3045 -0.4937  0.0994
  981MOL0     O29390   2.251   6.655   8.402 -0.2476  0.4305  0.0331
  981MOL0     C29391   2.147   6.632   8.316  0.3295  0.0967  0.5814
  981MOL0     C29392   2.031   6.699   8.346 -0.2966  0.3217 -0.1553
  981MOL0     C29393   1.922   6.687   8.270 -0.1347  0.2044  0.2269
  981MOL0     C29394   1.921   6.594   8.159 -0.1717 -0.9531  0.6681
  981MOL0     O29395   1.797   6.569   8.096 -0.0855 -0.0852 -0.4626
  981MOL0     C29396   1.805   6.504   7.971 -0.5690 -0.5799  0.6215
  981MOL0     C29397   1.689   6.543   7.878 -0.6661  0.0226  0.8254
  981MOL0     C29398   1.562   6.494   7.936 -0.7609 -0.6413 -0.7497
  981MOL0     C29399   1.437   6.486   7.842  0.4859  0.6412 -1.6661
  981MOL0     C29400   1.312   6.440   7.918  1.0648  0.5898  0.4017
  981MOL0     C29401   1.184   6.458   7.822 -0.3069  0.5660 -0.8434
  981MOL0     C29402   1.136   6.336   7.733  0.5473 -0.6034 -0.1688
  981MOL0     C29403   0.994   6.359   7.675  0.2933 -0.1673 -0.4039
  981MOL0    Cl29404   0.863   6.399   7.798 -0.2200  0.0305  0.0704
  981MOL0     C29405   2.043   6.526   8.134  0.5457 -0.4128  1.0069
  981MOL0     C29406   2.161   6.551   8.206  0.1067  0.3327 -0.4615
  981MOL0     O29407   2.210   6.448   8.489  1.0444  0.4801  1.1080
  981MOL0     C29408   2.428   6.473   8.660  0.4774  0.4631  0.4220
  981MOL0     C29409   2.539   6.491   8.737 -0.8480 -0.2320  0.0563
  981MOL0     N29410   3.093   6.936   9.051 -0.2683 -0.3798 -0.1419
  981MOL0     N29411   3.106   7.027   9.143  0.1297  0.8150 -0.0044
  981MOL0     C29412   3.937   7.114  10.044  0.6633  0.2302 -0.1418
  981MOL0     C29413   4.056   7.067  10.104 -1.0131 -0.4339  0.3184
  981MOL0     C29414   4.422   7.057  10.410 -1.1754  0.2821  0.8181
  981MOL0     C29415   4.491   6.973  10.313  0.3885  0.0472  0.5079
  981MOL0     C29416   4.627   6.945  10.334 -0.0068 -0.4276  0.4956
  981MOL0     C29417   4.685   6.989  10.458  0.0753  0.1300 -0.1827
  981MOL0     O29418   4.816   6.947  10.484 -0.2379 -0.1078  0.5445
  981MOL0     C29419   4.848   6.804  10.497  0.0478 -1.2149  0.6173
  981MOL0     C29420   4.939   6.778  10.617 -0.8677  0.2902 -0.4744
  981MOL0     C29421   5.082   6.816  10.586  0.9667  0.1141  0.2633
  981MOL0     C29422   5.098   6.968  10.600 -0.0215  0.5219 -1.1698
  981MOL0     C29423   5.196   7.023  10.515  0.2786 -0.9147 -0.0056
  981MOL0     C29424   5.268   7.090  10.443  0.0536  0.6671  0.2918
  981MOL0     C29425   4.613   7.057  10.552  0.1480  0.1972  0.8056
  981MOL0     C29426   4.486   7.094  10.526  0.5031 -0.0969 -0.3944
  981MOL0     H29427   4.097   7.300  10.347  2.5441 -3.0278  0.8020
  981MOL0     H29428   3.874   7.375  10.246 -0.0675  1.1949 -1.3141
  981MOL0     H29429   3.697   7.156   9.892 -1.1203  0.6000 -0.0206
  981MOL0     H29430   3.830   7.259   9.862  1.5602 -4.0876  3.2034
  981MOL0     H29431   3.690   7.429   9.794  1.9566 -1.4603  1.3237
  981MOL0     H29432   3.545   7.373   9.888 -0.5941  0.0485  0.1655
  981MOL0     H29433   3.514   7.184   9.744  2.0912 -0.4666  2.3065
  981MOL0     H29434   3.638   7.225   9.636 -1.8655 -1.7192 -0.9470
  981MOL0     H29435   3.408   7.407   9.677  1.2919  0.2794  1.2638
  981MOL0     H29436   3.559   7.458   9.603 -2.8167  2.1161 -1.0938
  981MOL0     H29437   3.545   7.285   9.432  0.5043 -2.0721  1.1638
  981MOL0     H29438   3.400   7.389   9.424 -0.8733  0.9486  1.5608
  981MOL0     H29439   3.261   7.200   9.548 -2.8204 -3.3162 -2.3449
  981MOL0     H29440   3.404   7.116   9.556  2.0594 -0.2017 -2.1578
  981MOL0     H29441   3.303   7.216   9.276  2.7525  0.1930  0.1480
  981MOL0     H29442   3.427   7.102   9.312  1.3199  0.5567  0.4050
  981MOL0     H29443   3.140   7.080   9.411  1.5585 -1.1187  3.1165
  981MOL0     H29444   3.263   6.960   9.428  3.2144  0.9245 -0.0724
  981MOL0     H29445   3.294   6.803   9.270 -1.3809 -0.2676  2.1825
  981MOL0     H29446   3.144   6.613   9.083  4.5128 -2.4713  0.6925
  981MOL0     H29447   3.274   6.672   8.981 -0.5315 -0.8801  1.5685
  981MOL0     H29448   3.104   6.590   8.829  1.7774 -1.4956  2.4160
  981MOL0     H29449   3.117   6.766   8.810 -1.1552  0.8430  1.2189
  981MOL0     H29450   2.933   6.606   8.963 -0.4457 -1.9320 -2.1639
  981MOL0     H29451   2.913   6.785   8.964 -2.8019  1.2138 -3.5775
  981MOL0     H29452   2.915   6.703   8.692  1.5793  0.7687  1.4408
  981MOL0     H29453   2.808   6.804   8.777 -2.1532 -0.7496  0.9966
  981MOL0     H29454   2.688   6.739   8.556 -1.8439 -0.8520 -1.6067
  981MOL0     H29455   2.486   6.736   8.446  1.6847 -0.9248  0.0737
  981MOL0     H29456   2.040   6.768   8.429 -0.3401 -2.2464  2.1333
  981MOL0     H29457   1.830   6.741   8.291 -0.8497 -0.9926  0.2285
  981MOL0     H29458   1.824   6.398   7.988 -0.4539 -0.8423 -0.9192
  981MOL0     H29459   1.899   6.531   7.922  1.1431 -1.2114  3.3467
  981MOL0     H29460   1.694   6.485   7.785 -0.4304 -3.1654  2.6873
  981MOL0     H29461   1.694   6.650   7.855 -1.8914 -0.1401 -0.3207
  981MOL0     H29462   1.537   6.558   8.022  2.1097  0.3433 -0.5477
  981MOL0     H29463   1.593   6.393   7.966  0.3726  0.1907  1.0939
  981MOL0     H29464   1.425   6.586   7.798 -0.5282  1.6765  0.7959
  981MOL0     H29465   1.464   6.418   7.761  1.7180 -1.7770  0.6371
  981MOL0     H29466   1.288   6.489   8.013  5.0148  0.9798  1.3616
  981MOL0     H29467   1.313   6.336   7.951  1.1731  1.2226  2.5072
  981MOL0     H29468   1.205   6.550   7.767 -0.3316  1.1443  0.0743
  981MOL0     H29469   1.095   6.484   7.880 -1.3646 -0.2053 -2.0644
  981MOL0     H29470   1.206   6.333   7.649  4.0718  1.6977  2.4222
  981MOL0     H29471   1.139   6.242   7.788  0.6992 -0.0544  0.7673
  981MOL0     H29472   0.962   6.269   7.622 -1.0807 -0.7670  1.3180
  981MOL0     H29473   0.991   6.440   7.602  1.7175  0.8921  0.6652
  981MOL0     H29474   2.039   6.451   8.056 -0.4491  2.7825 -2.2898
  981MOL0     H29475   2.251   6.490   8.208  0.2052  0.4832  0.1625
  981MOL0     H29476   2.363   6.387   8.671  0.8030 -0.1143 -1.6742
  981MOL0     H29477   2.571   6.419   8.812  2.9983 -0.7293 -1.7794
  981MOL0     H29478   3.899   7.063   9.956  0.1222  0.8973 -0.3060
  981MOL0     H29479   4.111   6.979  10.073  1.3641  1.9042 -2.7967
  981MOL0     H29480   4.439   6.935  10.225  3.1026  3.0190 -2.6938
  981MOL0     H29481   4.680   6.881  10.265 -0.4497  0.1782 -0.4276
  981MOL0     H29482   4.893   6.769  10.404  0.5817 -2.8529  1.4570
  981MOL0     H29483   4.746   6.764  10.503 -0.1457 -0.8123  0.0761
  981MOL0     H29484   4.897   6.840  10.696 -1.0410 -1.2870  0.7244
  981MOL0     H29485   4.942   6.673  10.648  1.8477  0.4389 -0.0349
  981MOL0     H29486   5.103   6.788  10.483 -3.8248  1.1831 -1.2103
  981MOL0     H29487   5.137   6.762  10.664 -1.8225 -3.2618  0.1169
  981MOL0     H29488   5.007   7.028  10.589 -0.4273  0.1468  0.0062
  981MOL0     H29489   5.125   6.980  10.706 -2.2318 -2.3390 -0.1636
  981MOL0     H29490   5.314   7.164  10.380  3.9622 -0.8887  1.0618
  981MOL0     H29491   4.650   7.079  10.652  1.9975 -3.3367  1.0782
  981MOL0     H29492   4.440   7.166  10.593  1.9059 -2.0509  2.9231
  982MOL0     O29493   4.433   5.880   3.939 -0.0969  0.4934 -0.4163
  982MOL0     C29494   4.492   5.921   3.838 -1.2632  0.1395  0.1007
  982MOL0     O29495   4.439   5.996   3.733 -0.1724 -0.2163  0.4248
  982MOL0     C29496   4.305   6.019   3.743 -0.4559  0.5847  0.9685
  982MOL0     C29497   4.214   5.918   3.774  0.8753 -0.0051  0.1791
  982MOL0     C29498   4.083   5.960   3.789 -0.1702  0.6268  0.1844
  982MOL0     C29499   4.039   6.096   3.781 -0.2389  0.8569  0.1065
  982MOL0     O29500   3.917   6.139   3.805  0.4510 -0.6995 -0.2511
  982MOL0     C29501   3.858   6.081   3.928  0.0317 -0.3605  0.7013
  982MOL0     C29502   3.711   6.119   3.921 -0.5243  0.7646  0.1141
  982MOL0     C29503   3.625   6.046   4.034  0.4840 -0.0436  0.1256
  982MOL0     C29504   3.589   5.906   3.984  0.2372 -0.4221  0.3466
  982MOL0     C29505   3.459   5.910   3.893 -0.9310 -0.9815 -0.0198
  982MOL0     C29506   3.319   5.934   3.970  0.1125 -0.4270  0.0480
  982MOL0     C29507   3.305   5.799   4.043 -0.4942 -0.0108  0.6855
  982MOL0     C29508   3.157   5.787   4.074  1.5538  0.2297  0.7579
  982MOL0     N29509   3.080   5.762   3.950 -0.1367  0.7497  0.0347
  982MOL0     C29510   2.948   5.800   3.938 -0.1105  0.0366  0.4100
  982MOL0     C29511   2.921   5.770   3.803  0.1798 -0.8289 -0.6353
  982MOL0     C29512   2.805   5.819   3.714 -0.0631  0.6283  0.4244
  982MOL0     C29513   2.791   5.974   3.695  0.9741  0.5395  0.1978
  982MOL0     C29514   2.641   6.021   3.680 -0.8229  0.8169 -0.3460
  982MOL0     C29515   2.573   5.993   3.540  0.2880 -0.3906 -0.0506
  982MOL0     O29516   2.433   6.012   3.551 -0.7696  0.6336  0.1227
  982MOL0     C29517   2.354   5.914   3.589  0.3576  1.4791 -1.0805
  982MOL0     C29518   2.220   5.932   3.548  0.2434  0.3193 -0.1702
  982MOL0     C29519   2.123   5.841   3.594 -0.4161 -0.2661  0.3035
  982MOL0     C29520   2.153   5.713   3.657 -0.3583  0.2348  0.5126
  982MOL0     C29521   2.056   5.620   3.690 -0.1572  0.0416  0.6488
  982MOL0     O29522   1.936   5.657   3.748  0.5843  0.6202 -1.0010
  982MOL0     C29523   1.817   5.593   3.717  0.2662  0.6459 -0.7773
  982MOL0     C29524   1.716   5.571   3.814 -0.3525  0.0502 -0.1370
  982MOL0     C29525   1.596   5.520   3.775  0.5089 -0.2203  0.2413
  982MOL0     C29526   1.564   5.498   3.640  0.3883 -0.1725 -0.7520
  982MOL0     O29527   1.433   5.455   3.623  0.1966 -0.2145  0.3332
  982MOL0     C29528   1.391   5.423   3.493  0.8651  0.4919  0.1114
  982MOL0     C29529   1.296   5.306   3.506  0.0158 -0.9930  0.1357
  982MOL0     C29530   1.146   5.338   3.524 -1.3230  0.6350 -0.2110
  982MOL0     C29531   1.066   5.211   3.490 -0.2420 -0.3518  0.5286
  982MOL0     C29532   1.038   5.116   3.603 -0.1555 -0.4255  0.6627
  982MOL0     C29533   0.921   5.023   3.569  0.0985 -0.2954  0.2077
  982MOL0     C29534   0.896   4.912   3.667 -0.6012 -0.2128 -1.4582
  982MOL0     C29535   0.755   4.847   3.651 -0.4044  0.3053  0.9935
  982MOL0    Cl29536   0.753   4.741   3.512 -0.2826 -0.0046 -0.4180
  982MOL0     C29537   1.653   5.534   3.546  0.3116  1.2623  0.3239
  982MOL0     C29538   1.780   5.564   3.585 -0.9546  0.1533 -0.7998
  982MOL0     O29539   2.078   5.509   3.652  0.0970 -0.0014  0.1074
  982MOL0     C29540   2.292   5.679   3.662  0.0339 -1.1333 -0.6189
  982MOL0     C29541   2.389   5.782   3.639 -0.3734 -0.8599 -0.2789
  982MOL0     N29542   3.024   5.695   3.758  0.4673 -0.0125 -0.1590
  982MOL0     N29543   3.121   5.699   3.844  0.0203  0.2059 -0.1920
  982MOL0     C29544   4.131   6.195   3.758  0.0449  0.0401 -0.1427
  982MOL0     C29545   4.265   6.150   3.745 -0.2631  0.3815 -1.2448
  982MOL0     C29546   4.635   5.887   3.819 -0.6308  0.3251  0.0542
  982MOL0     C29547   4.708   5.939   3.711 -0.4534 -0.4220  0.1640
  982MOL0     C29548   4.842   5.909   3.699 -0.4034  0.7029 -0.2065
  982MOL0     C29549   4.898   5.809   3.777 -0.0753  0.2006  0.2418
  982MOL0     O29550   5.029   5.791   3.745 -0.1800  0.8744 -0.3930
  982MOL0     C29551   5.102   5.674   3.792 -0.2392 -0.3657 -0.0484
  982MOL0     C29552   5.031   5.539   3.762 -0.2282  0.7567 -0.4038
  982MOL0     C29553   5.118   5.416   3.767 -0.6999  0.5491 -0.8410
  982MOL0     C29554   5.044   5.292   3.721 -0.5109  0.0641 -0.8879
  982MOL0     C29555   5.020   5.290   3.575  0.0670 -0.1513  0.4667
  982MOL0     C29556   5.021   5.311   3.454  0.5411 -0.1629 -0.3076
  982MOL0     C29557   4.827   5.743   3.873  0.6002  0.5434  0.1822
  982MOL0     C29558   4.697   5.788   3.898 -0.0220 -0.2785  0.1489
  982MOL0     H29559   4.243   5.814   3.779  0.8959  0.0473  1.8736
  982MOL0     H29560   3.996   5.897   3.807  0.5155 -0.4945 -0.3710
  982MOL0     H29561   3.889   6.137   4.017  1.5441  0.5456 -0.3519
  982MOL0     H29562   3.876   5.974   3.937  1.3078 -0.3332 -1.1872
  982MOL0     H29563   3.669   6.116   3.820 -2.0659 -2.9531  0.7078
  982MOL0     H29564   3.697   6.223   3.950  2.1809  0.7136  2.0280
  982MOL0     H29565   3.533   6.104   4.044  0.8021  1.1451 -2.7606
  982MOL0     H29566   3.684   6.032   4.125 -0.9301  0.1382  1.0983
  982MOL0     H29567   3.670   5.854   3.932 -0.3237  0.8438 -1.8823
  982MOL0     H29568   3.558   5.844   4.069  1.3992 -1.8021 -0.1913
  982MOL0     H29569   3.445   5.817   3.837  0.0414  0.7182 -3.3429
  982MOL0     H29570   3.483   5.994   3.828  0.3610  1.0286  2.8066
  982MOL0     H29571   3.234   5.955   3.904 -0.1388 -1.0346  0.1747
  982MOL0     H29572   3.328   6.010   4.048 -1.3763  3.1846 -2.9858
  982MOL0     H29573   3.346   5.710   3.993  1.9259  1.9123 -0.9413
  982MOL0     H29574   3.360   5.798   4.138  0.9894 -2.6086 -0.0970
  982MOL0     H29575   3.118   5.874   4.127  0.4674  0.1524  0.1116
  982MOL0     H29576   3.140   5.710   4.149 -2.3908 -0.2036 -0.3655
  982MOL0     H29577   2.887   5.857   4.008 -0.2181  2.4870 -1.5059
  982MOL0     H29578   2.707   5.784   3.751  0.0024 -1.1296 -0.9466
  982MOL0     H29579   2.805   5.775   3.614 -0.0912  1.6156 -0.0228
  982MOL0     H29580   2.838   6.002   3.600  2.1379 -0.4813  0.4603
  982MOL0     H29581   2.838   6.020   3.782  0.7824 -0.6473  0.9380
  982MOL0     H29582   2.574   5.984   3.758 -0.2402 -0.6127 -0.4898
  982MOL0     H29583   2.647   6.126   3.708  0.7666  0.7035 -0.1795
  982MOL0     H29584   2.610   5.893   3.517  1.9566  0.0164  0.6583
  982MOL0     H29585   2.609   6.061   3.462  0.0592  0.7354  0.7973
  982MOL0     H29586   2.192   6.024   3.498 -3.0835 -1.9315 -2.9085
  982MOL0     H29587   2.025   5.884   3.573  1.1822  2.0821 -3.4714
  982MOL0     H29588   1.742   5.602   3.914 -1.6920  0.3272  0.1481
  982MOL0     H29589   1.529   5.513   3.860  1.3593  1.3005  1.0694
  982MOL0     H29590   1.479   5.400   3.432 -0.6221 -0.2029 -1.8630
  982MOL0     H29591   1.342   5.507   3.443  2.3857  1.3600  0.0258
  982MOL0     H29592   1.334   5.252   3.593  1.8989  0.3847  0.2309
  982MOL0     H29593   1.307   5.246   3.416 -0.9143 -0.0338 -0.6469
  982MOL0     H29594   1.116   5.421   3.460 -3.5667  1.5791  1.9354
  982MOL0     H29595   1.127   5.371   3.626  0.8133  2.0919 -0.2060
  982MOL0     H29596   0.975   5.248   3.442  0.6880 -0.9102 -1.8202
  982MOL0     H29597   1.100   5.151   3.405  0.5488  1.2129 -0.3186
  982MOL0     H29598   1.025   5.182   3.689 -1.1336 -0.0785  0.2672
  982MOL0     H29599   1.128   5.058   3.622 -0.4096 -0.9679  0.2295
  982MOL0     H29600   0.938   4.977   3.471  2.3917 -0.3414  0.5654
  982MOL0     H29601   0.835   5.089   3.556 -0.1404 -0.6351  0.0459
  982MOL0     H29602   0.979   4.842   3.673 -0.3422  0.1881  0.0093
  982MOL0     H29603   0.897   4.957   3.766  2.5281 -1.9767 -0.5624
  982MOL0     H29604   0.694   4.933   3.622  1.0929  1.6481  1.6835
  982MOL0     H29605   0.724   4.800   3.744  0.0108 -1.3703  0.3207
  982MOL0     H29606   1.636   5.534   3.438 -1.6126  3.4799  0.5648
  982MOL0     H29607   1.847   5.585   3.502  0.8345 -1.8237  0.0534
  982MOL0     H29608   2.329   5.580   3.685  1.8780  0.0393  2.0150
  982MOL0     H29609   2.494   5.762   3.654 -0.1800  0.9551  1.1693
  982MOL0     H29610   4.096   6.297   3.751  2.0766  0.7228 -1.1671
  982MOL0     H29611   4.343   6.220   3.716  2.7130 -2.3819 -0.4617
  982MOL0     H29612   4.655   6.004   3.642 -3.2578  0.2675  2.7704
  982MOL0     H29613   4.905   5.945   3.618 -0.6097  0.5154 -0.4519
  982MOL0     H29614   5.105   5.672   3.901 -1.6621  0.0130  0.0167
  982MOL0     H29615   5.207   5.687   3.764  0.9241 -0.9544  3.4996
  982MOL0     H29616   4.947   5.527   3.830  1.9903  1.0565  2.5991
  982MOL0     H29617   5.011   5.547   3.655  0.5088 -1.4593 -0.7588
  982MOL0     H29618   5.151   5.401   3.871  0.1217  0.0221 -1.1619
  982MOL0     H29619   5.208   5.431   3.707 -1.2180 -2.3637 -2.5469
  982MOL0     H29620   5.099   5.201   3.745 -0.3196 -1.1731 -5.1621
  982MOL0     H29621   4.953   5.285   3.781 -0.3800 -2.4318 -0.8749
  982MOL0     H29622   5.022   5.331   3.349 -0.8913 -3.6082 -1.1395
  982MOL0     H29623   4.874   5.677   3.945 -1.9825 -1.5598  0.1184
  982MOL0     H29624   4.638   5.745   3.979 -1.0247  0.2348 -0.2866
  983MOL0     O29625   1.896   8.169   7.405 -0.0580 -0.4010 -0.4810
  983MOL0     C29626   1.983   8.240   7.350  0.1930  0.5683  0.8631
  983MOL0     O29627   1.972   8.315   7.231  0.3597 -0.3525  0.3114
  983MOL0     C29628   1.847   8.309   7.179  0.6979  0.1944 -0.0197
  983MOL0     C29629   1.740   8.384   7.235 -0.5288 -0.2638  0.0430
  983MOL0     C29630   1.610   8.362   7.197 -0.4708 -0.6590  0.9014
  983MOL0     C29631   1.591   8.259   7.098 -0.4523 -0.0715  0.5942
  983MOL0     O29632   1.466   8.221   7.060  0.2941 -0.3091  0.4311
  983MOL0     C29633   1.365   8.313   7.052 -0.3964 -0.6092  0.7205
  983MOL0     C29634   1.248   8.223   6.996 -0.4208 -0.2560  0.4544
  983MOL0     C29635   1.115   8.290   6.967 -0.5105  0.6113  0.1647
  983MOL0     C29636   1.028   8.211   6.866  0.8579 -0.1748  0.7207
  983MOL0     C29637   0.907   8.287   6.810 -0.1748  0.5761  0.3685
  983MOL0     C29638   0.815   8.319   6.931 -0.0623  0.0649 -0.0856
  983MOL0     C29639   0.666   8.346   6.893  0.0544 -0.2787  0.0288
  983MOL0     C29640   0.591   8.356   7.027  0.3488  0.0468 -0.6332
  983MOL0     N29641   0.449   8.395   7.005 -0.9395  0.1189 -0.2367
  983MOL0     C29642   0.384   8.477   7.094 -0.5162 -0.5060  0.9697
  983MOL0     C29643   0.271   8.520   7.039  1.0809  0.9351 -0.9528
  983MOL0     C29644   0.155   8.594   7.100 -0.2256 -0.2958 -0.0328
  983MOL0     C29645   0.059   8.641   6.992 -1.0650 -0.5055  0.5296
  983MOL0     C29646  -0.039   8.526   6.943 -0.6534  0.5487  0.1794
  983MOL0     C29647  -0.133   8.569   6.830  0.4172 -0.5492 -0.6605
  983MOL0     O29648  -0.235   8.657   6.846  0.1558 -0.6578  0.2378
  983MOL0     C29649  -0.358   8.613   6.829 -0.3878  0.0275 -0.6847
  983MOL0     C29650  -0.439   8.635   6.726  0.2267  0.3576  0.7451
  983MOL0     C29651  -0.568   8.578   6.706  0.1688 -0.6519  0.7700
  983MOL0     C29652  -0.614   8.490   6.803  0.1318 -0.4939 -0.0793
  983MOL0     C29653  -0.742   8.427   6.791 -0.5567  0.6669  0.3856
  983MOL0     O29654  -0.769   8.321   6.868 -0.4793 -0.1736 -0.5811
  983MOL0     C29655  -0.889   8.267   6.876 -0.4097 -0.8379  0.7092
  983MOL0     C29656  -0.994   8.335   6.940  0.0645 -0.3561  0.0075
  983MOL0     C29657  -1.125   8.277   6.949  0.7281  0.5954 -0.2975
  983MOL0     C29658  -1.140   8.140   6.923 -0.6693 -0.1004  0.2534
  983MOL0     O29659  -1.248   8.065   6.949 -0.1088 -0.4020 -0.4017
  983MOL0     C29660  -1.373   8.129   6.932  0.1374  0.7216  0.2334
  983MOL0     C29661  -1.399   8.143   6.781 -0.2334  0.1181 -0.1069
  983MOL0     C29662  -1.528   8.218   6.748  0.3985 -0.3267  0.3052
  983MOL0     C29663  -1.553   8.231   6.602 -0.3113  0.1901 -1.0354
  983MOL0     C29664  -1.707   8.217   6.567 -0.0003  0.2670  0.0831
  983MOL0     C29665  -1.794   8.340   6.601  0.6671 -0.3177  0.4872
  983MOL0     C29666  -1.732   8.455   6.506  1.8389  0.6436 -0.6055
  983MOL0     C29667  -1.839   8.570   6.477 -0.3059 -0.0436  0.1794
  983MOL0    Cl29668  -1.755   8.689   6.369  0.0156  0.3476 -0.3077
  983MOL0     C29669  -1.033   8.070   6.860  0.3559  0.8963 -0.4196
  983MOL0     C29670  -0.911   8.133   6.831  0.4229 -0.1089  0.4979
  983MOL0     O29671  -0.824   8.463   6.705 -0.3249 -0.8434  0.3446
  983MOL0     C29672  -0.527   8.454   6.907  0.6436  0.2063 -0.1020
  983MOL0     C29673  -0.413   8.527   6.931 -0.6718  0.5412  0.6816
  983MOL0     N29674   0.277   8.478   6.907 -0.2128 -0.7647 -0.2295
  983MOL0     N29675   0.387   8.407   6.886 -0.2376  0.1311 -1.2046
  983MOL0     C29676   1.698   8.200   7.031  0.0177  0.7146  0.9961
  983MOL0     C29677   1.829   8.227   7.069 -0.0297 -0.0415 -0.6218
  983MOL0     C29678   2.106   8.253   7.419  0.2819 -0.5326 -0.2166
  983MOL0     C29679   2.193   8.360   7.403  0.0597 -0.8561 -0.5930
  983MOL0     C29680   2.318   8.343   7.459  0.8453 -0.6603 -0.7956
  983MOL0     C29681   2.374   8.234   7.522  0.4919  0.0655 -0.0706
  983MOL0     O29682   2.497   8.231   7.580 -0.6874 -1.3086  0.2059
  983MOL0     C29683   2.578   8.105   7.579 -0.2148 -0.4358 -0.0459
  983MOL0     C29684   2.725   8.149   7.600  0.0145  0.6931  1.0423
  983MOL0     C29685   2.798   8.209   7.474 -0.3807  0.2265 -0.8523
  983MOL0     C29686   2.809   8.119   7.351 -0.3504 -0.3434  0.1067
  983MOL0     C29687   2.888   7.993   7.379 -0.1994 -0.6773  0.6541
  983MOL0     C29688   2.951   7.889   7.392 -0.1776  0.0516  0.3677
  983MOL0     C29689   2.286   8.130   7.542 -0.9761  0.6456  0.1000
  983MOL0     C29690   2.154   8.142   7.495  0.3032 -0.1982  0.5311
  983MOL0     H29691   1.770   8.458   7.308 -2.5634 -0.2037  0.8861
  983MOL0     H29692   1.531   8.428   7.230 -1.1408  0.4383 -2.5083
  983MOL0     H29693   1.378   8.398   6.985 -0.4304 -0.2544  1.1614
  983MOL0     H29694   1.336   8.351   7.151  0.9161 -2.9694  2.1266
  983MOL0     H29695   1.236   8.140   7.066 -1.1319 -0.6221 -0.0850
  983MOL0     H29696   1.297   8.186   6.905  0.9640 -0.1647  1.1349
  983MOL0     H29697   1.142   8.389   6.930  2.6916 -0.4034 -0.5445
  983MOL0     H29698   1.061   8.297   7.062  2.6539  2.1109  1.9905
  983MOL0     H29699   1.094   8.174   6.787  0.7099  0.4198  0.3169
  983MOL0     H29700   0.998   8.121   6.922  2.9706 -0.4883  1.4384
  983MOL0     H29701   0.855   8.218   6.743  3.2883 -0.6154 -1.3525
  983MOL0     H29702   0.942   8.378   6.759  0.3773 -0.1067 -0.5093
  983MOL0     H29703   0.852   8.413   6.971  0.6549 -0.2979  0.1097
  983MOL0     H29704   0.816   8.230   6.995 -2.2749 -2.5587 -3.3071
  983MOL0     H29705   0.646   8.441   6.843 -1.5505 -1.2257 -1.2259
  983MOL0     H29706   0.618   8.270   6.830 -0.8473  0.4212 -0.1476
  983MOL0     H29707   0.641   8.432   7.087  1.9812 -0.0262 -1.8457
  983MOL0     H29708   0.594   8.258   7.076  2.5291 -0.3389 -1.4304
  983MOL0     H29709   0.423   8.495   7.194  1.6650  1.1707 -0.1170
  983MOL0     H29710   0.201   8.674   7.159  0.3432  0.1373 -1.0329
  983MOL0     H29711   0.092   8.528   7.159 -2.1950  1.4275 -0.0823
  983MOL0     H29712   0.109   8.680   6.903 -1.4300 -2.8041 -0.7837
  983MOL0     H29713   0.000   8.719   7.041  0.5750  3.0583 -2.6896
  983MOL0     H29714   0.011   8.435   6.908 -0.9169  0.3286  0.3663
  983MOL0     H29715  -0.103   8.500   7.028 -0.4568  1.3922  0.5980
  983MOL0     H29716  -0.178   8.474   6.801  0.9010 -1.2264  0.7305
  983MOL0     H29717  -0.070   8.599   6.746 -1.4422  0.8613 -1.6336
  983MOL0     H29718  -0.403   8.694   6.643 -0.9096  0.4367  0.2921
  983MOL0     H29719  -0.610   8.619   6.615 -0.9694  0.4709  1.7564
  983MOL0     H29720  -0.979   8.436   6.978  1.3870 -0.8904  0.9983
  983MOL0     H29721  -1.198   8.338   7.002 -1.0801 -0.7230 -1.1745
  983MOL0     H29722  -1.377   8.227   6.981 -2.2341  1.8551 -1.9812
  983MOL0     H29723  -1.449   8.070   6.983 -2.4741  2.6789 -1.1531
  983MOL0     H29724  -1.394   8.041   6.740  2.9910  0.0578  0.1732
  983MOL0     H29725  -1.324   8.215   6.745 -3.1616  2.8151 -1.2594
  983MOL0     H29726  -1.533   8.322   6.780  1.9708  0.8735 -2.9218
  983MOL0     H29727  -1.613   8.162   6.789  0.1263 -0.9291 -1.0218
  983MOL0     H29728  -1.507   8.327   6.577 -0.8945  1.3691  1.9656
  983MOL0     H29729  -1.516   8.142   6.550  1.8462 -0.9740  2.1760
  983MOL0     H29730  -1.752   8.134   6.621 -3.0267  2.0672  0.5593
  983MOL0     H29731  -1.717   8.195   6.460 -4.9709 -0.0602  0.3735
  983MOL0     H29732  -1.792   8.369   6.707  3.4463 -0.7227  0.6122
  983MOL0     H29733  -1.898   8.319   6.576  0.8245  0.0815 -0.5559
  983MOL0     H29734  -1.644   8.491   6.561  1.3084  2.0139 -0.6265
  983MOL0     H29735  -1.702   8.423   6.406  3.1200  2.7874 -0.9628
  983MOL0     H29736  -1.866   8.616   6.572  0.0122  0.3707  0.0741
  983MOL0     H29737  -1.932   8.535   6.431 -1.3664 -1.4322  3.1304
  983MOL0     H29738  -1.047   7.971   6.817  0.5030 -2.2638  5.5917
  983MOL0     H29739  -0.834   8.075   6.781 -2.9466 -2.5129 -2.3982
  983MOL0     H29740  -0.563   8.395   6.991  1.4204 -0.5390 -0.2765
  983MOL0     H29741  -0.365   8.525   7.028 -2.0931  2.1803  1.4694
  983MOL0     H29742   1.678   8.136   6.946  1.1693  2.5045 -0.6952
  983MOL0     H29743   1.909   8.175   7.017  0.9032 -0.0845  0.8142
  983MOL0     H29744   2.159   8.458   7.370 -0.2574  1.3248  4.9981
  983MOL0     H29745   2.388   8.423   7.438  0.4002 -0.8982 -3.5673
  983MOL0     H29746   2.569   8.045   7.488  0.7649 -0.9115  0.1517
  983MOL0     H29747   2.544   8.051   7.668  3.1556  0.6655  2.1140
  983MOL0     H29748   2.735   8.205   7.694 -0.4046  1.2099  0.7865
  983MOL0     H29749   2.782   8.057   7.613  1.8533  1.2011 -2.2953
  983MOL0     H29750   2.891   8.253   7.511 -2.7697  3.4006  2.0168
  983MOL0     H29751   2.747   8.300   7.440  0.3174  0.0049 -2.6082
  983MOL0     H29752   2.709   8.090   7.316 -0.4036  2.7283 -2.8021
  983MOL0     H29753   2.849   8.181   7.270  1.9610  0.1581  1.5483
  983MOL0     H29754   3.011   7.802   7.410 -0.0579 -0.1953 -1.0888
  983MOL0     H29755   2.311   8.045   7.605 -0.5214 -0.3423 -1.3669
  983MOL0     H29756   2.077   8.069   7.519 -0.3313 -0.4867 -2.0484
  984MOL0     O29757   5.812   4.863   6.040  0.1182 -0.3987 -0.3445
  984MOL0     C29758   5.848   4.746   6.057 -0.6460 -0.9444  0.4832
  984MOL0     O29759   5.764   4.642   6.075  0.5578  0.3967 -0.3231
  984MOL0     C29760   5.624   4.664   6.090 -0.2389  1.0038  0.3387
  984MOL0     C29761   5.553   4.618   6.204  0.0473  0.2340 -0.2816
  984MOL0     C29762   5.415   4.649   6.204 -0.2432 -0.0999  0.1742
  984MOL0     C29763   5.351   4.716   6.104  0.6541 -0.9251  0.8149
  984MOL0     O29764   5.220   4.736   6.115  0.4484 -0.6162  0.7385
  984MOL0     C29765   5.127   4.689   6.020  0.1879 -0.2892  0.1071
  984MOL0     C29766   5.025   4.604   6.099  0.1747 -0.2970  0.9103
  984MOL0     C29767   4.909   4.696   6.133  0.7660  0.1460  1.1955
  984MOL0     C29768   4.792   4.611   6.178  0.0688 -0.0614  0.7430
  984MOL0     C29769   4.658   4.685   6.158 -0.2467  0.2381  0.5347
  984MOL0     C29770   4.537   4.597   6.178 -0.4448 -0.6053 -1.0069
  984MOL0     C29771   4.524   4.548   6.320  1.4687 -0.4861 -0.1409
  984MOL0     C29772   4.391   4.484   6.357  0.0839  0.2901  0.1785
  984MOL0     N29773   4.261   4.557   6.336 -0.0553  0.2037  0.5520
  984MOL0     C29774   4.145   4.490   6.313 -0.0592 -0.6281  0.6023
  984MOL0     C29775   4.056   4.588   6.269  0.0815  0.7384  0.5698
  984MOL0     C29776   3.925   4.564   6.215  0.2305  0.2050  0.1999
  984MOL0     C29777   3.933   4.546   6.061 -0.1716 -0.0769 -0.5602
  984MOL0     C29778   3.804   4.573   5.983  0.3387  0.1685  0.8750
  984MOL0     C29779   3.817   4.521   5.838 -0.3368  1.2744 -0.2728
  984MOL0     O29780   3.684   4.530   5.774  0.0141 -0.2471  0.0472
  984MOL0     C29781   3.653   4.420   5.696  0.0705 -0.0470  0.2707
  984MOL0     C29782   3.525   4.372   5.690 -0.1202 -0.0761 -0.6462
  984MOL0     C29783   3.487   4.260   5.612  0.7790 -0.6751  0.1579
  984MOL0     C29784   3.587   4.193   5.543 -0.0419  1.2685 -0.0303
  984MOL0     C29785   3.550   4.065   5.468 -0.4486  0.5111  0.4629
  984MOL0     O29786   3.423   4.055   5.417 -0.0559 -0.2764  0.1201
  984MOL0     C29787   3.380   3.933   5.368  0.4019  0.2655 -0.3130
  984MOL0     C29788   3.377   3.917   5.229 -0.1205  0.0718  1.1317
  984MOL0     C29789   3.308   3.805   5.177  0.7109  0.9530 -0.0986
  984MOL0     C29790   3.246   3.718   5.265  0.1424  0.4718  0.5599
  984MOL0     O29791   3.173   3.615   5.207  0.4464 -0.1306 -0.6691
  984MOL0     C29792   3.072   3.546   5.274 -0.4298 -0.1406 -0.0907
  984MOL0     C29793   2.990   3.456   5.169 -0.2731  0.3686 -0.5862
  984MOL0     C29794   2.907   3.540   5.077  0.4698  0.3466  0.1150
  984MOL0     C29795   2.788   3.613   5.152  0.4454  0.0940 -0.4918
  984MOL0     C29796   2.706   3.700   5.048 -0.5234 -0.9171  0.5447
  984MOL0     C29797   2.564   3.731   5.097 -0.4190 -1.5942 -0.7801
  984MOL0     C29798   2.561   3.856   5.186  0.7557 -0.2484 -0.7119
  984MOL0     C29799   2.605   3.984   5.112  0.1701  0.3468  0.5104
  984MOL0    Cl29800   2.618   4.131   5.204 -0.1929 -0.3093 -0.5615
  984MOL0     C29801   3.252   3.741   5.406  0.4706 -1.4123 -0.1753
  984MOL0     C29802   3.312   3.850   5.457  0.4119  0.4232 -0.6022
  984MOL0     O29803   3.635   3.975   5.450  0.5737 -0.3081  0.7910
  984MOL0     C29804   3.716   4.235   5.545  0.6236  0.4870 -0.3305
  984MOL0     C29805   3.749   4.351   5.620  0.3956 -0.9075  0.7555
  984MOL0     N29806   4.121   4.710   6.296 -0.2288  0.3570 -0.2607
  984MOL0     N29807   4.237   4.690   6.338  0.2612  0.5298 -0.2769
  984MOL0     C29808   5.428   4.756   5.991 -0.5800 -0.5531  0.3158
  984MOL0     C29809   5.560   4.724   5.981 -0.3640  0.2225 -0.4518
  984MOL0     C29810   5.991   4.722   6.071  0.7407 -0.2987  0.1454
  984MOL0     C29811   6.083   4.781   5.990 -0.5297  0.2703  0.2823
  984MOL0     C29812   6.226   4.759   6.002  0.7117  0.8614 -0.0245
  984MOL0     C29813   6.278   4.668   6.096 -0.9796  0.1302  0.7147
  984MOL0     O29814   6.413   4.648   6.097  0.1331  0.8028  0.3479
  984MOL0     C29815   6.464   4.675   6.224 -0.1106  0.2891  0.1464
  984MOL0     C29816   6.619   4.703   6.203 -0.2394  0.1962  0.0142
  984MOL0     C29817   6.697   4.742   6.328 -0.5258  0.4116 -0.4349
  984MOL0     C29818   6.805   4.847   6.294  1.5484 -0.6765 -0.3153
  984MOL0     C29819   6.902   4.804   6.185  0.6068 -0.3917 -0.4621
  984MOL0     C29820   6.983   4.767   6.102 -0.3803 -0.2478 -0.1277
  984MOL0     C29821   6.185   4.605   6.181 -0.0384 -0.3133  0.4834
  984MOL0     C29822   6.047   4.626   6.165  0.2024  0.0351 -0.6220
  984MOL0     H29823   5.597   4.583   6.297 -1.8055 -0.5705  0.3504
  984MOL0     H29824   5.363   4.615   6.294  2.7250 -2.0862  1.2957
  984MOL0     H29825   5.173   4.628   5.941  1.0947 -1.5110  1.5363
  984MOL0     H29826   5.075   4.773   5.972 -2.8366 -1.0805  1.7883
  984MOL0     H29827   5.055   4.570   6.199 -0.3906 -0.7295  0.9378
  984MOL0     H29828   4.985   4.526   6.034  1.3452  1.3942 -2.0111
  984MOL0     H29829   4.880   4.749   6.042  0.0667 -1.0168  0.7188
  984MOL0     H29830   4.945   4.763   6.211  3.7233 -0.7625  0.7057
  984MOL0     H29831   4.782   4.514   6.129 -2.6032  0.8073 -0.6677
  984MOL0     H29832   4.806   4.604   6.286  3.1343  0.2709  0.4466
  984MOL0     H29833   4.661   4.726   6.057 -0.8671 -0.6909  0.1204
  984MOL0     H29834   4.653   4.765   6.232 -2.9513 -0.1879  0.9019
  984MOL0     H29835   4.535   4.506   6.118  3.0679  0.3138 -2.8228
  984MOL0     H29836   4.456   4.657   6.136 -0.4772 -1.5170 -2.3217
  984MOL0     H29837   4.602   4.483   6.359  1.6360 -1.7202 -2.3624
  984MOL0     H29838   4.530   4.640   6.380  1.3734 -0.4590 -0.1734
  984MOL0     H29839   4.392   4.458   6.463 -4.5449 -0.5570  0.2120
  984MOL0     H29840   4.383   4.396   6.293  0.7016 -0.2524  0.8401
  984MOL0     H29841   4.127   4.384   6.298 -3.1899 -0.1588  0.5508
  984MOL0     H29842   3.861   4.645   6.249  2.0316  1.6373  0.2870
  984MOL0     H29843   3.891   4.472   6.263  2.5489 -1.4027 -1.0160
  984MOL0     H29844   3.962   4.442   6.044 -2.2434 -0.8833  0.4464
  984MOL0     H29845   4.006   4.615   6.018 -2.3623  2.6188 -0.2412
  984MOL0     H29846   3.721   4.523   6.034  2.3946 -5.1961 -0.3172
  984MOL0     H29847   3.784   4.680   5.987  2.4392  0.5731  2.4626
  984MOL0     H29848   3.855   4.419   5.836 -1.7139  0.7264 -2.3667
  984MOL0     H29849   3.886   4.585   5.781 -1.1395  0.0035 -2.8541
  984MOL0     H29850   3.446   4.407   5.756  0.4842  3.5593 -1.6047
  984MOL0     H29851   3.390   4.211   5.615  0.7155 -0.4999  2.5560
  984MOL0     H29852   3.408   4.001   5.168 -1.3298 -0.3772 -0.1805
  984MOL0     H29853   3.287   3.781   5.073 -1.0947 -0.1670  0.4778
  984MOL0     H29854   3.008   3.607   5.337  2.3637 -0.5019  3.4139
  984MOL0     H29855   3.121   3.476   5.342  0.6409  1.7470  1.1751
  984MOL0     H29856   2.936   3.382   5.229  0.9076  0.6161  0.8355
  984MOL0     H29857   3.063   3.404   5.106  2.2181 -0.0114  2.3901
  984MOL0     H29858   2.865   3.475   5.001 -1.3261 -1.6635  2.6328
  984MOL0     H29859   2.975   3.613   5.031  2.0471  0.8446  2.9654
  984MOL0     H29860   2.714   3.539   5.181 -1.9428  0.7511 -4.1864
  984MOL0     H29861   2.822   3.673   5.237  0.2478  3.3044 -2.5170
  984MOL0     H29862   2.701   3.649   4.951 -0.3349 -0.5601  0.3437
  984MOL0     H29863   2.765   3.789   5.026 -1.2119 -0.6184 -0.1343
  984MOL0     H29864   2.511   3.652   5.150 -1.0261 -0.5886  0.1466
  984MOL0     H29865   2.510   3.761   5.007  1.1342  1.0629 -0.9428
  984MOL0     H29866   2.455   3.878   5.202  0.6808 -1.3686  0.4548
  984MOL0     H29867   2.622   3.845   5.276  1.0622 -2.3052 -1.1310
  984MOL0     H29868   2.557   4.002   5.015  1.6651  0.2178 -0.2695
  984MOL0     H29869   2.708   3.963   5.082  0.5334  1.0556  1.2411
  984MOL0     H29870   3.191   3.679   5.471 -0.9495  2.6290  2.6940
  984MOL0     H29871   3.307   3.868   5.564 -2.2819 -0.3040 -0.5393
  984MOL0     H29872   3.787   4.167   5.500  0.2105 -0.5149  0.4922
  984MOL0     H29873   3.855   4.375   5.618  0.7077 -1.7396  3.3571
  984MOL0     H29874   5.388   4.808   5.905  0.8578  0.3118  0.1329
  984MOL0     H29875   5.620   4.748   5.894  1.0067  0.0682  0.4263
  984MOL0     H29876   6.036   4.843   5.915  0.1890  0.0517 -0.3590
  984MOL0     H29877   6.297   4.830   5.960  0.5686  1.7427  1.1661
  984MOL0     H29878   6.454   4.587   6.288 -1.0814 -1.5695 -2.4256
  984MOL0     H29879   6.412   4.759   6.271  1.5848  0.5948  1.5928
  984MOL0     H29880   6.670   4.620   6.155 -1.7369 -0.4035 -0.6046
  984MOL0     H29881   6.612   4.786   6.132  1.6647 -0.3036 -0.8150
  984MOL0     H29882   6.750   4.661   6.380  1.3231  3.0149  2.0968
  984MOL0     H29883   6.640   4.795   6.405  0.3040  2.3638 -1.0872
  984MOL0     H29884   6.769   4.946   6.263 -0.0688 -0.9184  0.6865
  984MOL0     H29885   6.863   4.873   6.383  1.4498  2.7075 -1.1003
  984MOL0     H29886   7.060   4.725   6.040  3.2968  2.0542  2.4418
  984MOL0     H29887   6.215   4.519   6.240 -1.4407 -0.3375  1.2083
  984MOL0     H29888   5.986   4.553   6.217  1.1823 -0.7939 -0.6235
  985MOL0     O29889  11.188   2.720   8.983 -0.3753  0.1471  0.3319
  985MOL0     C29890  11.225   2.758   9.099  1.1824  0.9001 -1.0204
  985MOL0     O29891  11.148   2.738   9.213 -0.0952  0.6255 -0.2647
  985MOL0     C29892  11.036   2.659   9.198  0.2244  0.6647  0.1493
  985MOL0     C29893  10.913   2.716   9.215 -0.6534  0.5953  0.4848
  985MOL0     C29894  10.796   2.636   9.215 -0.6117 -1.3747  0.3700
  985MOL0     C29895  10.811   2.503   9.191  0.1908 -0.2167 -0.6295
  985MOL0     O29896  10.689   2.429   9.188  1.4994  0.8424 -0.5674
  985MOL0     C29897  10.680   2.286   9.188  0.1796  0.7653 -0.1868
  985MOL0     C29898  10.682   2.223   9.330  0.5157 -0.5849 -0.2696
  985MOL0     C29899  10.603   2.303   9.434  0.5815  0.2983 -0.4508
  985MOL0     C29900  10.620   2.253   9.581 -0.4375  0.3814 -0.5720
  985MOL0     C29901  10.527   2.309   9.689  0.0274  0.2112 -0.4546
  985MOL0     C29902  10.537   2.241   9.830 -0.4463 -0.1376 -0.7180
  985MOL0     C29903  10.443   2.310   9.935  0.3613  0.5876  0.1575
  985MOL0     C29904  10.297   2.283   9.909 -0.1249  0.6527 -0.6062
  985MOL0     N29905  10.220   2.346  10.022 -0.2967  0.0293 -0.2403
  985MOL0     C29906  10.145   2.288  10.121  0.5256 -0.1921  0.6675
  985MOL0     C29907  10.107   2.399  10.187  0.1190 -0.0131  0.6088
  985MOL0     C29908  10.024   2.395  10.307  0.6180 -0.0366  0.3008
  985MOL0     C29909   9.886   2.340  10.297 -0.0340 -0.9364  0.7064
  985MOL0     C29910   9.811   2.351  10.426  0.0815 -0.4731 -0.1784
  985MOL0     C29911   9.662   2.326  10.401  0.2872 -0.4790  0.0584
  985MOL0     O29912   9.603   2.440  10.339  0.5961  0.6588  0.4164
  985MOL0     C29913   9.467   2.431  10.301  0.8056 -0.3258 -0.8612
  985MOL0     C29914   9.438   2.457  10.168  0.3758 -0.9114  0.4526
  985MOL0     C29915   9.308   2.429  10.116  0.2783 -1.4104 -0.6887
  985MOL0     C29916   9.200   2.394  10.191 -0.2569  0.4512  0.6928
  985MOL0     C29917   9.073   2.359  10.133  0.3445  0.5797  0.6598
  985MOL0     O29918   8.994   2.275  10.206  0.0323 -0.5058  0.0749
  985MOL0     C29919   8.859   2.269  10.185  0.5675 -0.5864  0.1867
  985MOL0     C29920   8.796   2.213  10.075 -0.8596  0.9531 -1.2153
  985MOL0     C29921   8.661   2.222  10.052  0.5017 -0.6341  0.0857
  985MOL0     C29922   8.596   2.311  10.131 -0.9544 -0.1801 -1.0152
  985MOL0     O29923   8.466   2.331  10.111 -0.7775  0.0548  0.4857
  985MOL0     C29924   8.382   2.213  10.115  0.2713 -0.6173  0.4845
  985MOL0     C29925   8.236   2.244  10.085 -1.0125 -0.1581 -1.3205
  985MOL0     C29926   8.177   2.332  10.193  0.2588  0.6456  0.0880
  985MOL0     C29927   8.026   2.364  10.177  0.4155 -0.3145 -0.1931
  985MOL0     C29928   7.943   2.242  10.174 -0.0927  0.0425 -0.0583
  985MOL0     C29929   7.789   2.280  10.152  0.5499  0.0764  0.8890
  985MOL0     C29930   7.714   2.151  10.133  0.2928 -0.0873 -0.4589
  985MOL0     C29931   7.562   2.158  10.169 -0.6387  0.4015  0.3917
  985MOL0    Cl29932   7.481   2.037  10.067  0.1904  0.2402 -0.2188
  985MOL0     C29933   8.654   2.374  10.243  0.1013 -1.0521 -0.0066
  985MOL0     C29934   8.788   2.360  10.272 -0.6473  0.7402  0.7188
  985MOL0     O29935   9.038   2.422  10.029 -0.1964  0.2028  0.2202
  985MOL0     C29936   9.226   2.367  10.325  0.1570  0.3763  0.0634
  985MOL0     C29937   9.356   2.382  10.380 -0.3722 -0.4253 -0.1077
  985MOL0     N29938  10.146   2.521  10.126  1.2565  0.3642 -0.4664
  985MOL0     N29939  10.211   2.484  10.024 -1.0363  0.3242  0.0138
  985MOL0     C29940  10.939   2.445   9.167 -0.6724 -0.3281  0.1509
  985MOL0     C29941  11.049   2.521   9.174 -0.3655  0.4129 -0.1427
  985MOL0     C29942  11.349   2.842   9.117 -0.1763 -0.5889  0.3853
  985MOL0     C29943  11.443   2.860   9.015 -0.8278 -0.3081 -0.3287
  985MOL0     C29944  11.551   2.951   9.026  0.0202  0.1570  0.9525
  985MOL0     C29945  11.563   3.026   9.144 -0.4406  0.3525  0.4674
  985MOL0     O29946  11.643   3.134   9.166 -0.0701  0.5985  1.2255
  985MOL0     C29947  11.729   3.175   9.060 -0.0265  1.1676 -1.0530
  985MOL0     C29948  11.769   3.317   9.070  0.4153  0.6174 -0.6403
  985MOL0     C29949  11.664   3.422   9.068  0.9768 -0.2103  0.7981
  985MOL0     C29950  11.582   3.401   8.932  0.1042  0.1952  0.0373
  985MOL0     C29951  11.482   3.507   8.926  0.3772 -1.1170  0.1363
  985MOL0     C29952  11.396   3.589   8.918  0.4631 -0.7753  0.2815
  985MOL0     C29953  11.475   3.009   9.247  0.1474  0.3957  0.3924
  985MOL0     C29954  11.364   2.918   9.234 -0.7444 -0.1187 -0.0012
  985MOL0     H29955  10.894   2.818   9.249 -0.4804  0.4026  1.1651
  985MOL0     H29956  10.692   2.670   9.216  0.4868  2.4309  1.5402
  985MOL0     H29957  10.770   2.260   9.132  0.1111  0.1265 -0.0060
  985MOL0     H29958  10.596   2.243   9.133  1.9288 -2.4722 -0.5541
  985MOL0     H29959  10.785   2.222   9.367 -0.1836 -2.8215  1.8989
  985MOL0     H29960  10.658   2.117   9.322 -1.4563 -0.2841  0.9658
  985MOL0     H29961  10.496   2.305   9.414  0.3920  2.4045  0.5210
  985MOL0     H29962  10.643   2.404   9.440 -0.3420  0.5940  1.1599
  985MOL0     H29963  10.603   2.145   9.582 -4.8620  0.9099 -0.8103
  985MOL0     H29964  10.724   2.271   9.611 -0.5848  1.4877 -0.7097
  985MOL0     H29965  10.424   2.290   9.655  0.7984 -1.2107 -2.1414
  985MOL0     H29966  10.558   2.414   9.688  0.9290 -0.0365  0.2321
  985MOL0     H29967  10.643   2.254   9.855 -0.5848 -0.7559  0.2499
  985MOL0     H29968  10.507   2.137   9.816  0.6068 -0.1506 -3.5656
  985MOL0     H29969  10.467   2.282  10.038  2.1214  1.9766  0.1695
  985MOL0     H29970  10.472   2.415   9.940  2.6273 -0.0081  1.0533
  985MOL0     H29971  10.266   2.179   9.898 -0.1799  0.8680 -3.0354
  985MOL0     H29972  10.275   2.328   9.812  1.0456  0.1944 -1.1026
  985MOL0     H29973  10.119   2.184  10.136 -1.6125 -0.1897 -2.2913
  985MOL0     H29974   9.995   2.498  10.327 -3.1360 -0.1719 -3.2446
  985MOL0     H29975  10.078   2.358  10.395 -0.0595  1.3141  1.3175
  985MOL0     H29976   9.888   2.234  10.268  0.8610 -0.9975  0.9671
  985MOL0     H29977   9.826   2.389  10.220  0.0952 -1.2226  0.4201
  985MOL0     H29978   9.852   2.291  10.509  0.0675  2.4511  2.1068
  985MOL0     H29979   9.819   2.452  10.466  1.8519 -0.7449  0.2846
  985MOL0     H29980   9.615   2.310  10.499  1.2224 -1.8341  0.3127
  985MOL0     H29981   9.651   2.233  10.343 -1.5118 -1.5292  1.9458
  985MOL0     H29982   9.528   2.482  10.114  0.0806  0.7953  0.7087
  985MOL0     H29983   9.291   2.453  10.012 -1.8023 -3.6589 -0.9607
  985MOL0     H29984   8.860   2.144  10.021 -1.1634  0.8858 -1.4938
  985MOL0     H29985   8.617   2.172   9.965  0.6361 -1.5714  0.5431
  985MOL0     H29986   8.390   2.153  10.206 -0.0424 -0.9599  0.2904
  985MOL0     H29987   8.426   2.134  10.052  1.7786  0.7688 -0.2826
  985MOL0     H29988   8.175   2.154  10.093 -0.6850 -0.5097 -2.4775
  985MOL0     H29989   8.213   2.292   9.989 -0.0918  0.5054 -1.2271
  985MOL0     H29990   8.231   2.427  10.192  1.7854 -0.1598 -2.4187
  985MOL0     H29991   8.197   2.293  10.294 -0.1371  1.6279  0.5589
  985MOL0     H29992   7.992   2.422  10.264 -0.9835 -2.2518  0.6268
  985MOL0     H29993   8.010   2.421  10.085  1.8464 -0.6405 -0.6760
  985MOL0     H29994   7.934   2.194  10.272  1.0879  0.5564  0.3253
  985MOL0     H29995   7.965   2.166  10.097 -2.8294  0.5366 -1.4431
  985MOL0     H29996   7.769   2.339  10.063 -2.9143 -0.9299  0.8522
  985MOL0     H29997   7.755   2.326  10.245  3.1322 -0.2694  2.1251
  985MOL0     H29998   7.714   2.114  10.030 -2.0351  0.7764 -0.8165
  985MOL0     H29999   7.756   2.069  10.192 -0.4830  0.4301  0.8675
  985MOL0     H30000   7.513   2.252  10.143 -1.2316 -0.4260 -1.7169
  985MOL0     H30001   7.543   2.151  10.276 -0.6153 -1.8613  0.3096
  985MOL0     H30002   8.591   2.435  10.307 -0.3757 -0.6208 -0.8700
  985MOL0     H30003   8.841   2.417  10.349 -1.0540  1.6923  0.3073
  985MOL0     H30004   9.148   2.343  10.396  0.4629 -1.7522 -0.2520
  985MOL0     H30005   9.387   2.372  10.484 -0.1546  1.4025  0.0304
  985MOL0     H30006  10.947   2.339   9.143 -1.4254 -0.6262  1.1584
  985MOL0     H30007  11.149   2.480   9.181 -1.2769 -1.5777  2.7799
  985MOL0     H30008  11.423   2.813   8.919  2.4222 -0.0244 -1.2577
  985MOL0     H30009  11.617   2.951   8.941  0.0830  0.2303  1.0011
  985MOL0     H30010  11.689   3.167   8.958  0.1683  0.6604 -1.0924
  985MOL0     H30011  11.819   3.114   9.076 -1.3038 -0.6062 -0.2889
  985MOL0     H30012  11.811   3.334   9.170  1.9609  1.6222 -1.4143
  985MOL0     H30013  11.854   3.336   9.004  3.4016  1.1655  3.0249
  985MOL0     H30014  11.708   3.521   9.054 -0.6933  0.1960 -2.7028
  985MOL0     H30015  11.599   3.419   9.156 -1.5480 -0.6933 -0.9625
  985MOL0     H30016  11.649   3.410   8.846  1.0992  5.9391  0.9791
  985MOL0     H30017  11.531   3.305   8.931  0.5599 -0.0782 -2.6821
  985MOL0     H30018  11.310   3.651   8.902  1.2896  0.6239  1.0584
  985MOL0     H30019  11.476   3.071   9.335  1.2272  0.5314  0.3076
  985MOL0     H30020  11.284   2.932   9.306 -2.3669  2.3622 -2.0770
  986MOL0     O30021   9.285   1.203   3.785  0.3898  0.3985  0.3535
  986MOL0     C30022   9.354   1.222   3.888 -0.4613 -0.3092  0.2379
  986MOL0     O30023   9.364   1.343   3.966  0.2118 -0.1672  0.6077
  986MOL0     C30024   9.291   1.456   3.906 -0.1003  0.1318 -0.1460
  986MOL0     C30025   9.158   1.485   3.931 -0.4309 -0.0765  0.7872
  986MOL0     C30026   9.080   1.576   3.857  0.5829 -0.1573  0.1893
  986MOL0     C30027   9.148   1.652   3.764 -0.2463  0.2906 -0.2348
  986MOL0     O30028   9.090   1.737   3.681 -0.2155  0.1464 -0.0374
  986MOL0     C30029   8.956   1.781   3.706 -0.1528  0.5512  0.5240
  986MOL0     C30030   8.901   1.838   3.568  0.1972  1.5596  0.2367
  986MOL0     C30031   8.846   1.726   3.480  0.4189 -1.2328  0.0450
  986MOL0     C30032   8.943   1.653   3.401 -0.1528  0.1921 -1.6494
  986MOL0     C30033   8.878   1.526   3.344  0.8972 -0.4520 -0.7666
  986MOL0     C30034   8.773   1.542   3.236  1.5824 -0.3812  0.1425
  986MOL0     C30035   8.736   1.404   3.180 -0.9836  0.0155 -0.4279
  986MOL0     C30036   8.630   1.408   3.065  0.5038  1.0010  0.2010
  986MOL0     N30037   8.598   1.264   3.041  0.4847 -0.0394  0.4500
  986MOL0     C30038   8.471   1.215   3.062 -0.0419 -0.2979  1.1290
  986MOL0     C30039   8.473   1.086   3.033  0.0685  0.7989 -0.2100
  986MOL0     C30040   8.357   0.987   3.040  0.1931 -0.0944 -0.0811
  986MOL0     C30041   8.324   0.934   2.907  0.1027 -0.7169  0.6401
  986MOL0     C30042   8.174   0.916   2.881  0.1010  0.6793 -1.2282
  986MOL0     C30043   8.082   1.041   2.886 -0.1649  0.1206 -0.8333
  986MOL0     O30044   7.953   1.003   2.838 -0.2461 -0.0460  0.5408
  986MOL0     C30045   7.834   1.063   2.852  0.1926 -0.0106  0.2554
  986MOL0     C30046   7.727   1.018   2.776 -0.8388  0.4229  1.0878
  986MOL0     C30047   7.597   1.048   2.807  0.0330 -0.4353 -0.6179
  986MOL0     C30048   7.573   1.152   2.905 -0.1071 -0.0185 -0.3846
  986MOL0     C30049   7.437   1.193   2.931 -0.1472 -0.1063 -0.3757
  986MOL0     O30050   7.354   1.183   2.827 -0.4592 -0.1576  0.0255
  986MOL0     C30051   7.235   1.251   2.824 -0.6666  0.2414 -0.6554
  986MOL0     C30052   7.157   1.293   2.935  0.2837  0.0035 -0.0991
  986MOL0     C30053   7.032   1.353   2.916  0.8723  0.0884  0.4558
  986MOL0     C30054   7.001   1.402   2.790  0.0559  0.2084 -0.5706
  986MOL0     O30055   6.903   1.491   2.784  0.3149  0.7726  0.3930
  986MOL0     C30056   6.780   1.427   2.825  0.8214 -0.5509  0.2882
  986MOL0     C30057   6.663   1.539   2.820  0.0203 -0.3433  0.6819
  986MOL0     C30058   6.530   1.475   2.828 -0.8257 -0.1693 -0.1456
  986MOL0     C30059   6.439   1.557   2.918  0.3982 -0.1925 -0.3223
  986MOL0     C30060   6.295   1.520   2.899 -0.1583 -0.8961  0.7146
  986MOL0     C30061   6.210   1.540   3.030  1.2287 -0.4479  0.0916
  986MOL0     C30062   6.058   1.519   3.011  0.6319  0.2273 -0.2991
  986MOL0     C30063   5.993   1.623   2.912 -0.3148  0.0719 -0.4826
  986MOL0    Cl30064   5.817   1.604   2.907 -0.4027 -0.0382  0.1492
  986MOL0     C30065   7.084   1.378   2.677 -0.2150 -0.0839 -0.1301
  986MOL0     C30066   7.199   1.295   2.696 -0.1367 -0.0683 -0.1805
  986MOL0     O30067   7.417   1.246   3.042  0.3209 -0.2142  0.3347
  986MOL0     C30068   7.680   1.207   2.977 -0.8977 -1.2332 -0.1537
  986MOL0     C30069   7.809   1.166   2.950  0.5814 -0.3490  0.0749
  986MOL0     N30070   8.606   1.061   2.987 -0.0623  0.3554 -0.9380
  986MOL0     N30071   8.679   1.165   3.003  0.8526 -1.2286 -0.1267
  986MOL0     C30072   9.288   1.632   3.742 -0.4727  0.0515  0.6298
  986MOL0     C30073   9.357   1.536   3.811  0.6365 -0.0401 -0.0041
  986MOL0     C30074   9.445   1.118   3.935  0.2211  0.0742  0.2091
  986MOL0     C30075   9.463   0.997   3.871  0.0816  0.4991 -0.2152
  986MOL0     C30076   9.543   0.896   3.933 -0.8843 -0.5626 -0.0597
  986MOL0     C30077   9.597   0.921   4.055 -0.7904  0.3193 -0.1711
  986MOL0     O30078   9.670   0.814   4.112 -0.0399 -0.4044  0.7972
  986MOL0     C30079   9.760   0.836   4.222 -0.2596 -0.4855  0.5939
  986MOL0     C30080   9.876   0.931   4.192  0.2271  0.3728  0.0865
  986MOL0     C30081   9.950   0.890   4.055  0.2533 -0.3490 -0.9009
  986MOL0     C30082  10.068   0.984   4.044  0.4165 -0.3190 -0.1538
  986MOL0     C30083  10.150   0.943   3.932  0.1147 -0.4970  0.1941
  986MOL0     C30084  10.208   0.900   3.828 -0.5889 -0.4207 -0.5273
  986MOL0     C30085   9.575   1.032   4.121  0.6231 -0.6177  1.1951
  986MOL0     C30086   9.506   1.134   4.065  0.8248 -1.8240  0.6393
  986MOL0     H30087   9.106   1.434   4.012 -1.1236  1.9379  1.6767
  986MOL0     H30088   8.973   1.574   3.878  0.2782 -2.9097 -1.1743
  986MOL0     H30089   8.955   1.853   3.788  0.2784 -0.6415  1.6045
  986MOL0     H30090   8.890   1.699   3.735  0.5753  0.1738  1.1439
  986MOL0     H30091   8.971   1.901   3.514  1.7409  1.3178  1.8840
  986MOL0     H30092   8.818   1.905   3.591  0.4570  2.2983 -0.9108
  986MOL0     H30093   8.771   1.773   3.416  0.5294 -0.6620  0.3305
  986MOL0     H30094   8.787   1.656   3.540  1.4626 -1.8106  0.4344
  986MOL0     H30095   8.992   1.715   3.325  1.0193 -0.3320 -1.3416
  986MOL0     H30096   9.022   1.624   3.471 -0.9856 -2.5043 -1.7419
  986MOL0     H30097   8.823   1.463   3.416  1.0660 -1.3708 -1.4223
  986MOL0     H30098   8.960   1.468   3.302  3.2064  2.5872 -0.7573
  986MOL0     H30099   8.824   1.601   3.159  1.6197 -0.8755 -0.2152
  986MOL0     H30100   8.682   1.588   3.277  2.2383 -0.4353  1.7184
  986MOL0     H30101   8.823   1.351   3.139 -1.4811 -2.1237  1.1014
  986MOL0     H30102   8.697   1.346   3.264 -4.0200 -1.1521 -2.4851
  986MOL0     H30103   8.666   1.460   2.976 -1.7257  0.9099 -0.8065
  986MOL0     H30104   8.546   1.461   3.110 -3.1470 -3.3237 -0.8025
  986MOL0     H30105   8.379   1.267   3.086 -0.6923 -0.5715 -0.6198
  986MOL0     H30106   8.269   1.044   3.072  0.3238 -0.5414  1.1456
  986MOL0     H30107   8.359   0.906   3.113 -3.5696 -0.7569 -0.5095
  986MOL0     H30108   8.362   0.831   2.908 -3.1522 -2.3455 -4.3116
  986MOL0     H30109   8.372   0.984   2.823  0.3689  0.4633  1.4684
  986MOL0     H30110   8.165   0.869   2.782 -1.2706 -1.7077 -0.0683
  986MOL0     H30111   8.136   0.845   2.956  1.6893 -0.4339 -1.4347
  986MOL0     H30112   8.121   1.109   2.810 -1.4915  0.0862 -1.5739
  986MOL0     H30113   8.061   1.093   2.980 -4.0525  1.0978 -2.0374
  986MOL0     H30114   7.764   0.950   2.700 -4.2382 -1.1773  0.6464
  986MOL0     H30115   7.515   1.004   2.751 -3.1996  1.9926  1.7533
  986MOL0     H30116   7.178   1.267   3.038 -1.4429 -0.3841  0.1820
  986MOL0     H30117   6.978   1.355   3.010  2.0844 -4.3545  1.5108
  986MOL0     H30118   6.765   1.388   2.926 -0.2677  1.4785  0.9740
  986MOL0     H30119   6.751   1.350   2.752  0.0606  0.8053 -0.8992
  986MOL0     H30120   6.655   1.581   2.719 -1.2466 -2.2302 -0.0646
  986MOL0     H30121   6.660   1.615   2.899 -3.0256 -2.2398  2.6019
  986MOL0     H30122   6.549   1.373   2.863 -2.0068 -0.2669  0.2876
  986MOL0     H30123   6.475   1.453   2.736  1.9291 -2.1438 -1.4440
  986MOL0     H30124   6.470   1.541   3.022 -0.1058  0.0439 -0.1297
  986MOL0     H30125   6.451   1.666   2.912  3.4890 -0.1473  3.0042
  986MOL0     H30126   6.290   1.416   2.865  5.3323 -1.0326 -0.5594
  986MOL0     H30127   6.248   1.570   2.814 -2.6191 -3.0248  0.6741
  986MOL0     H30128   6.231   1.628   3.091 -0.3779  0.5589 -0.7367
  986MOL0     H30129   6.239   1.463   3.101  1.2395 -2.5477 -2.0504
  986MOL0     H30130   6.048   1.425   2.956  0.8515  2.2438 -4.1340
  986MOL0     H30131   6.002   1.523   3.105  1.6434 -0.7807  0.3766
  986MOL0     H30132   6.036   1.601   2.814  1.2826 -0.3686  0.2777
  986MOL0     H30133   6.008   1.726   2.945  0.4663  0.4069 -1.7941
  986MOL0     H30134   7.039   1.416   2.586 -1.1630  1.1308  0.7915
  986MOL0     H30135   7.250   1.248   2.613  0.8981 -2.5216  1.7097
  986MOL0     H30136   7.676   1.270   3.065  2.0026 -0.7493 -0.2394
  986MOL0     H30137   7.892   1.193   3.016  1.5816  0.4461 -1.4607
  986MOL0     H30138   9.341   1.687   3.665 -1.8647 -0.0626 -0.4614
  986MOL0     H30139   9.463   1.519   3.797  0.1497 -1.8375 -1.9566
  986MOL0     H30140   9.406   0.976   3.782 -2.0258  0.4606  1.0830
  986MOL0     H30141   9.558   0.795   3.897 -1.3225 -1.1043  1.1898
  986MOL0     H30142   9.796   0.741   4.262 -0.2140 -1.0780 -0.7890
  986MOL0     H30143   9.707   0.861   4.314 -0.4776 -2.1327  0.9441
  986MOL0     H30144   9.837   1.032   4.178  0.9864  0.3132 -3.7436
  986MOL0     H30145   9.941   0.927   4.280 -1.7198 -1.9147  1.5491
  986MOL0     H30146   9.888   0.916   3.970 -0.3017  1.5077  0.0052
  986MOL0     H30147   9.973   0.783   4.047  0.5401 -0.2192 -1.9824
  986MOL0     H30148  10.029   1.084   4.026  1.6648 -0.0145 -1.2927
  986MOL0     H30149  10.125   0.983   4.138 -0.1948 -0.4268  0.2173
  986MOL0     H30150  10.258   0.866   3.740  0.4958 -1.7630  0.5448
  986MOL0     H30151   9.612   1.038   4.223  0.6455  4.8444  1.1332
  986MOL0     H30152   9.500   1.229   4.116 -0.8282  0.5770 -3.5101
  987MOL0     O30153   4.430  11.271   7.395 -0.1629  0.1695  0.1487
  987MOL0     C30154   4.413  11.320   7.504 -0.4896 -0.2780 -0.9339
  987MOL0     O30155   4.291  11.354   7.564 -1.1029  0.4150 -0.5043
  987MOL0     C30156   4.171  11.313   7.512 -0.1557 -0.1736 -0.3761
  987MOL0     C30157   4.079  11.412   7.470 -0.4091  0.0956 -0.4123
  987MOL0     C30158   3.947  11.367   7.431 -0.2017 -1.0592 -0.0440
  987MOL0     C30159   3.908  11.230   7.430 -0.1697 -0.7358  0.7583
  987MOL0     O30160   3.781  11.184   7.413  0.6758  0.7440 -0.2127
  987MOL0     C30161   3.682  11.268   7.362  0.2204 -1.1484 -0.3153
  987MOL0     C30162   3.561  11.187   7.332  0.7160  0.0378 -0.2494
  987MOL0     C30163   3.498  11.124   7.453 -0.0309 -0.1100 -0.0599
  987MOL0     C30164   3.373  11.044   7.410  0.3978  0.3956 -0.6247
  987MOL0     C30165   3.273  11.020   7.525 -0.2905 -0.1557  0.0507
  987MOL0     C30166   3.183  10.899   7.500  0.5994 -0.7206  0.6809
  987MOL0     C30167   3.114  10.889   7.361  0.1249 -0.5556  0.2485
  987MOL0     C30168   3.019  11.005   7.338 -0.9567 -0.3501 -0.2611
  987MOL0     N30169   2.912  10.998   7.434 -0.8575  0.2857  0.6016
  987MOL0     C30170   2.798  10.927   7.418 -0.2459  0.2277  0.0205
  987MOL0     C30171   2.715  10.957   7.517 -0.7660  0.4109  0.1089
  987MOL0     C30172   2.585  10.882   7.546  0.1593 -0.4381  0.0413
  987MOL0     C30173   2.476  10.928   7.440  0.6836  0.1203 -0.1416
  987MOL0     C30174   2.344  10.854   7.476 -0.0418 -0.2653  0.6639
  987MOL0     C30175   2.250  10.874   7.359  0.3042  0.1352  1.4163
  987MOL0     O30176   2.231  11.025   7.338 -0.0045 -0.0276 -0.1637
  987MOL0     C30177   2.109  11.072   7.296 -0.0592  0.0265  0.4672
  987MOL0     C30178   2.096  11.206   7.277 -0.5149  0.2308 -0.1474
  987MOL0     C30179   1.978  11.263   7.253  0.9944  0.4200 -0.2583
  987MOL0     C30180   1.857  11.193   7.246  0.2083  1.1215 -0.0053
  987MOL0     C30181   1.734  11.273   7.225  0.1503  1.0704  0.2856
  987MOL0     O30182   1.618  11.204   7.241  0.3832  0.1017  0.7375
  987MOL0     C30183   1.499  11.276   7.218  0.6599 -0.1514 -0.1648
  987MOL0     C30184   1.407  11.280   7.320 -0.8410  0.1741 -0.2946
  987MOL0     C30185   1.279  11.321   7.289  0.0892  0.3673  0.0291
  987MOL0     C30186   1.246  11.381   7.171  0.3146 -0.2055  0.3239
  987MOL0     O30187   1.113  11.435   7.166 -0.2365  0.5282 -0.3849
  987MOL0     C30188   1.095  11.539   7.075  0.4325 -0.1801  0.5758
  987MOL0     C30189   0.959  11.603   7.088  0.4765  0.5713 -0.1748
  987MOL0     C30190   0.847  11.492   7.076  0.6917 -1.3612  0.3340
  987MOL0     C30191   0.702  11.550   7.059 -0.0999  0.3964 -0.0162
  987MOL0     C30192   0.603  11.443   7.010  0.1385 -0.0578 -0.6427
  987MOL0     C30193   0.545  11.346   7.119  0.2471  0.1432 -0.6136
  987MOL0     C30194   0.426  11.264   7.077  0.5653 -0.0899  0.2679
  987MOL0     C30195   0.378  11.156   7.180  0.0063 -0.4082 -0.4029
  987MOL0    Cl30196   0.193  11.136   7.158 -0.4819 -0.6435  0.5964
  987MOL0     C30197   1.350  11.397   7.071  0.2649 -0.7404 -0.2661
  987MOL0     C30198   1.472  11.328   7.092 -0.4278 -0.4433  0.0485
  987MOL0     O30199   1.738  11.389   7.195 -1.0918 -0.4397  0.2635
  987MOL0     C30200   1.867  11.053   7.250  0.6836 -1.0843 -1.0469
  987MOL0     C30201   1.997  10.998   7.268  0.4393 -0.7604  0.3768
  987MOL0     N30202   2.776  11.050   7.597  0.0518 -0.0683  0.9375
  987MOL0     N30203   2.894  11.067   7.553 -0.6152  0.5784  0.9685
  987MOL0     C30204   4.008  11.138   7.459 -0.8902  1.2615  0.5416
  987MOL0     C30205   4.139  11.176   7.500  0.3141 -0.4783 -0.1241
  987MOL0     C30206   4.526  11.389   7.560  0.1899  0.7574 -0.8614
  987MOL0     C30207   4.652  11.352   7.514 -0.0219  0.1282  0.3229
  987MOL0     C30208   4.769  11.389   7.585 -0.3676 -0.1911 -0.0074
  987MOL0     C30209   4.752  11.468   7.699  0.5820  0.7884 -0.4555
  987MOL0     O30210   4.853  11.514   7.773  0.3417  0.0193 -0.5321
  987MOL0     C30211   4.990  11.509   7.722 -0.2647  0.3887  0.5734
  987MOL0     C30212   5.080  11.414   7.808 -0.0313  0.0515 -0.9970
  987MOL0     C30213   5.226  11.429   7.792 -0.7212  0.9635 -0.0737
  987MOL0     C30214   5.263  11.384   7.646  0.9923  0.1081  0.3004
  987MOL0     C30215   5.406  11.346   7.627 -0.0021 -0.0482 -1.1477
  987MOL0     C30216   5.521  11.309   7.619 -0.7760  0.3027 -0.5402
  987MOL0     C30217   4.625  11.518   7.734 -0.0989  0.1416  0.2765
  987MOL0     C30218   4.512  11.482   7.666  0.7287  0.5138  0.9148
  987MOL0     H30219   4.106  11.515   7.494 -5.3967  1.2374  1.3501
  987MOL0     H30220   3.877  11.450   7.433 -1.4014 -2.0520 -0.0739
  987MOL0     H30221   3.719  11.325   7.276 -3.3600  1.9482 -0.0386
  987MOL0     H30222   3.653  11.349   7.430 -3.7006 -1.3780 -1.4802
  987MOL0     H30223   3.589  11.114   7.256  1.9842  1.2510 -0.9865
  987MOL0     H30224   3.479  11.252   7.299 -0.2186 -0.7096  0.5401
  987MOL0     H30225   3.468  11.205   7.520 -1.2024  0.6084 -1.3969
  987MOL0     H30226   3.561  11.064   7.519 -1.0474  1.3747  2.3959
  987MOL0     H30227   3.318  11.099   7.334  0.4460 -0.7028 -1.4780
  987MOL0     H30228   3.406  10.948   7.368  0.0347  0.2581 -0.5996
  987MOL0     H30229   3.209  11.106   7.547  0.0617  0.2440 -0.4489
  987MOL0     H30230   3.331  10.994   7.614  0.9169 -1.8110 -1.1621
  987MOL0     H30231   3.104  10.887   7.575 -2.7747  1.1402 -2.2481
  987MOL0     H30232   3.241  10.806   7.497  0.2498 -0.9721  1.4296
  987MOL0     H30233   3.187  10.887   7.280 -0.8737 -1.8803 -0.6806
  987MOL0     H30234   3.066  10.790   7.364 -2.8455  0.5955 -2.8213
  987MOL0     H30235   2.981  11.001   7.235 -1.0329 -6.2088 -0.3403
  987MOL0     H30236   3.076  11.097   7.353  0.3923 -1.2740  0.4602
  987MOL0     H30237   2.789  10.853   7.339 -0.0034  1.2015 -0.9510
  987MOL0     H30238   2.546  10.913   7.643 -0.9892  1.9749 -1.1129
  987MOL0     H30239   2.590  10.772   7.550 -1.5715 -0.5151  1.6044
  987MOL0     H30240   2.495  10.902   7.336 -2.3427  1.9952 -1.2757
  987MOL0     H30241   2.477  11.037   7.437  2.9582  0.1209 -1.5751
  987MOL0     H30242   2.353  10.747   7.494 -2.1784 -0.1656  2.8650
  987MOL0     H30243   2.291  10.893   7.563  0.3958  1.2015  0.3059
  987MOL0     H30244   2.156  10.829   7.390  1.1335 -1.1582  2.1342
  987MOL0     H30245   2.289  10.830   7.266  0.3337  2.1711  0.3974
  987MOL0     H30246   2.179  11.273   7.293 -0.8889  1.0518 -1.4858
  987MOL0     H30247   1.979  11.371   7.252 -3.1513  0.6395  0.7256
  987MOL0     H30248   1.446  11.228   7.407 -0.0116  1.1131 -0.0816
  987MOL0     H30249   1.198  11.306   7.361  0.8725 -2.9858  0.3815
  987MOL0     H30250   1.096  11.515   6.969 -2.1769 -0.9848  0.6673
  987MOL0     H30251   1.172  11.617   7.077 -1.3695  1.7677 -0.9420
  987MOL0     H30252   0.949  11.680   7.011 -0.1258  0.3519 -0.3180
  987MOL0     H30253   0.943  11.649   7.186 -0.4937 -2.7284  1.3889
  987MOL0     H30254   0.854  11.427   7.163 -0.9101  1.4364  2.7523
  987MOL0     H30255   0.863  11.434   6.985 -0.0199 -2.7999  1.0889
  987MOL0     H30256   0.680  11.599   7.155 -0.7784  0.8560 -0.4052
  987MOL0     H30257   0.704  11.633   6.988  0.3695  0.3522 -0.0590
  987MOL0     H30258   0.636  11.375   6.930 -1.6413 -0.7591 -0.8426
  987MOL0     H30259   0.517  11.493   6.963  1.0262  1.1314 -1.0457
  987MOL0     H30260   0.524  11.408   7.206 -1.6908  0.2866 -1.1441
  987MOL0     H30261   0.618  11.272   7.155 -1.2211  0.1337  2.6898
  987MOL0     H30262   0.334  11.321   7.065 -0.0279 -1.3307 -1.6118
  987MOL0     H30263   0.434  11.222   6.976 -0.2021 -0.8096  0.4889
  987MOL0     H30264   0.391  11.187   7.284 -0.8595 -0.8321 -0.1620
  987MOL0     H30265   0.436  11.063   7.181 -0.1488 -0.7023  4.3616
  987MOL0     H30266   1.331  11.435   6.971 -1.7467 -2.9161 -0.7868
  987MOL0     H30267   1.544  11.317   7.012  3.1074  0.0036  2.9299
  987MOL0     H30268   1.784  10.984   7.236  1.5802 -1.6217 -4.9637
  987MOL0     H30269   2.004  10.889   7.267 -1.1827 -0.8951  0.7273
  987MOL0     H30270   3.989  11.032   7.447  1.9413  0.8475 -0.9721
  987MOL0     H30271   4.208  11.098   7.530 -0.5318 -1.0855  0.3017
  987MOL0     H30272   4.666  11.285   7.430  1.3267  0.7878 -0.0094
  987MOL0     H30273   4.861  11.355   7.539 -1.0239 -0.5294 -1.1035
  987MOL0     H30274   5.021  11.612   7.744  0.4401  1.0078 -2.7514
  987MOL0     H30275   5.017  11.494   7.617 -0.1294  2.1464  0.3239
  987MOL0     H30276   5.066  11.445   7.912  0.6678  1.1409 -1.2148
  987MOL0     H30277   5.041  11.312   7.801 -1.0256  0.3808 -0.4415
  987MOL0     H30278   5.272  11.360   7.864 -1.1563 -1.8799 -2.3484
  987MOL0     H30279   5.262  11.530   7.811  4.8057 -0.6072 -0.4475
  987MOL0     H30280   5.185  11.316   7.612 -0.2670  1.8559 -0.3807
  987MOL0     H30281   5.259  11.471   7.581 -0.0962 -0.9167 -1.0510
  987MOL0     H30282   5.624  11.281   7.621 -0.2440  2.1595 -0.0141
  987MOL0     H30283   4.606  11.575   7.824 -2.1901 -1.4260  0.9061
  987MOL0     H30284   4.413  11.510   7.699  0.4779  2.6563 -1.3603
  988MOL0     O30285   2.022  10.478   4.206 -0.4414 -0.4473 -0.3478
  988MOL0     C30286   2.071  10.500   4.095 -0.8533  0.3576  0.1652
  988MOL0     O30287   2.043  10.595   4.011 -0.2198 -0.1870  0.3614
  988MOL0     C30288   1.960  10.701   4.042  1.1517  0.2339  0.0841
  988MOL0     C30289   1.829  10.705   4.000  0.5764 -0.5843 -0.4366
  988MOL0     C30290   1.743  10.816   4.021  0.7798  0.5845 -0.2340
  988MOL0     C30291   1.792  10.922   4.100 -0.2024  0.0177  0.6538
  988MOL0     O30292   1.696  11.016   4.125 -0.2623 -0.7644  0.3954
  988MOL0     C30293   1.730  11.098   4.232  0.6486  0.1131  0.7453
  988MOL0     C30294   1.629  11.202   4.272 -0.5446  0.6538 -0.0928
  988MOL0     C30295   1.683  11.298   4.385 -0.0881 -0.0228  0.3908
  988MOL0     C30296   1.754  11.235   4.502  0.5367 -0.2274  0.7969
  988MOL0     C30297   1.660  11.142   4.578 -0.1373 -0.9278  0.2271
  988MOL0     C30298   1.731  11.107   4.714  0.2595  0.4273  0.6469
  988MOL0     C30299   1.656  10.990   4.789  0.7576  0.4043  0.8432
  988MOL0     C30300   1.735  10.937   4.912  0.5940 -0.5004  0.6936
  988MOL0     N30301   1.687  10.808   4.956 -0.3200 -0.2477  0.3484
  988MOL0     C30302   1.559  10.753   4.948  0.0237  0.9259  0.4546
  988MOL0     C30303   1.567  10.636   5.017 -0.7888  0.3540  0.9584
  988MOL0     C30304   1.461  10.536   5.038 -0.3906  0.5845 -0.2298
  988MOL0     C30305   1.327  10.555   4.954  0.6353 -0.5822 -0.2988
  988MOL0     C30306   1.201  10.497   5.024  0.2901 -0.9455  0.2126
  988MOL0     C30307   1.194  10.349   5.057  0.0071  0.9779  0.5309
  988MOL0     O30308   1.186  10.286   4.929 -0.4301  0.5211  0.0488
  988MOL0     C30309   1.071  10.260   4.860  0.0379 -0.2314 -0.4915
  988MOL0     C30310   0.943  10.322   4.898 -0.6250 -0.2250  0.4264
  988MOL0     C30311   0.831  10.303   4.826  0.6745  0.7371 -0.0691
  988MOL0     C30312   0.827  10.223   4.709 -0.0210  0.5168  0.1606
  988MOL0     C30313   0.700  10.182   4.641  0.6323 -0.6478 -0.5020
  988MOL0     O30314   0.708  10.077   4.562 -1.0622  0.1481  0.4904
  988MOL0     C30315   0.593  10.056   4.489 -0.1188 -0.2681 -0.1219
  988MOL0     C30316   0.477   9.996   4.534 -0.0590  0.1672  0.0854
  988MOL0     C30317   0.378   9.948   4.445  0.2625 -0.4171  0.0279
  988MOL0     C30318   0.390   9.961   4.300  0.4772  0.1243 -0.2878
  988MOL0     O30319   0.284   9.935   4.206  0.5850  0.8917 -0.5237
  988MOL0     C30320   0.159   9.977   4.261 -0.1764 -0.4529  0.8271
  988MOL0     C30321   0.051   9.914   4.171 -0.4083 -0.3742  0.2472
  988MOL0     C30322   0.079   9.940   4.019  0.2765  0.2590 -0.0495
  988MOL0     C30323  -0.039   9.890   3.926  0.5839  0.2817 -0.9105
  988MOL0     C30324  -0.004   9.894   3.774  0.1420 -0.1160 -0.0519
  988MOL0     C30325  -0.096   9.797   3.676 -0.9779 -1.4145  0.1543
  988MOL0     C30326  -0.245   9.825   3.695 -0.9252  0.2195 -0.1623
  988MOL0     C30327  -0.323   9.748   3.594  0.0060 -0.0767 -0.1541
  988MOL0    Cl30328  -0.371   9.825   3.450 -0.4865 -0.5456  0.0054
  988MOL0     C30329   0.502  10.030   4.255 -0.1074 -0.3781  0.6081
  988MOL0     C30330   0.600  10.077   4.349 -0.1111 -0.5407 -0.8801
  988MOL0     O30331   0.607  10.262   4.642  0.3271 -0.2452 -0.1434
  988MOL0     C30332   0.947  10.164   4.674 -0.4155  0.5162  0.2578
  988MOL0     C30333   1.065  10.180   4.747 -0.1377  0.5491 -0.8276
  988MOL0     N30334   1.699  10.620   5.057 -0.6323  1.5419  0.0434
  988MOL0     N30335   1.768  10.721   5.022 -0.5281 -0.1631 -0.0411
  988MOL0     C30336   1.922  10.919   4.155  1.7622  0.0588 -0.6897
  988MOL0     C30337   2.004  10.817   4.122  1.1931 -0.1959 -0.1991
  988MOL0     C30338   2.176  10.408   4.046  0.2230  0.9696  0.2934
  988MOL0     C30339   2.266  10.357   4.138  0.0718  0.2081 -1.3440
  988MOL0     C30340   2.361  10.266   4.093 -0.5098  0.7258 -0.0904
  988MOL0     C30341   2.363  10.227   3.956  0.1521  0.8076  0.1016
  988MOL0     O30342   2.448  10.126   3.908 -0.3056 -0.0735  0.2927
  988MOL0     C30343   2.418   9.992   3.950 -0.5022 -0.7541  0.4688
  988MOL0     C30344   2.490   9.896   3.855 -0.3360  1.0865 -0.7822
  988MOL0     C30345   2.411   9.868   3.728 -0.3694  0.0612  0.9308
  988MOL0     C30346   2.448   9.729   3.666 -0.1737 -0.4194 -0.6963
  988MOL0     C30347   2.569   9.738   3.590  0.0272 -0.2754  1.0564
  988MOL0     C30348   2.670   9.727   3.518  0.4926 -0.2758 -0.2875
  988MOL0     C30349   2.269  10.279   3.867  0.1570  0.6713 -0.3751
  988MOL0     C30350   2.169  10.363   3.914 -0.3785 -0.4747  0.2553
  988MOL0     H30351   1.780  10.626   3.944  1.6939 -2.6050  1.3198
  988MOL0     H30352   1.649  10.820   3.967  2.3069  4.1006 -3.0308
  988MOL0     H30353   1.821  11.154   4.208  1.0272 -0.1007  1.6349
  988MOL0     H30354   1.748  11.027   4.313 -2.0412  0.9359  2.1939
  988MOL0     H30355   1.542  11.147   4.309  0.0959 -0.0989  0.3009
  988MOL0     H30356   1.602  11.271   4.192  1.0824  4.4553  2.3329
  988MOL0     H30357   1.609  11.369   4.422 -0.0574 -0.4052  1.2102
  988MOL0     H30358   1.751  11.365   4.332  0.9334 -0.8030  0.6746
  988MOL0     H30359   1.836  11.173   4.463  0.6514  0.5439 -0.2227
  988MOL0     H30360   1.796  11.307   4.572 -0.0578  1.0418 -0.1158
  988MOL0     H30361   1.629  11.048   4.531 -4.4937  1.0924 -1.5236
  988MOL0     H30362   1.568  11.195   4.604 -1.1165 -2.7435  0.6333
  988MOL0     H30363   1.741  11.191   4.784  3.7420  1.3807 -0.7891
  988MOL0     H30364   1.833  11.076   4.691 -0.0667 -1.9112  2.0110
  988MOL0     H30365   1.563  11.029   4.830 -0.0048  1.2395 -1.4922
  988MOL0     H30366   1.642  10.912   4.713  1.2167  2.0723 -1.0570
  988MOL0     H30367   1.730  11.007   4.996 -3.3982  0.6929 -0.3122
  988MOL0     H30368   1.842  10.936   4.887  1.6122 -0.4441  4.4420
  988MOL0     H30369   1.470  10.790   4.897  0.0765  0.3430 -0.0661
  988MOL0     H30370   1.428  10.535   5.142  1.1084 -1.1509  0.2776
  988MOL0     H30371   1.505  10.435   5.037  5.3745  2.5875 -4.6727
  988MOL0     H30372   1.341  10.527   4.850  1.6441  0.3982 -0.4442
  988MOL0     H30373   1.304  10.661   4.966  0.0102 -0.9694  2.7625
  988MOL0     H30374   1.192  10.548   5.121 -1.4505 -1.9356  0.6070
  988MOL0     H30375   1.119  10.528   4.957  1.8167  0.2681 -1.1830
  988MOL0     H30376   1.103  10.314   5.105 -2.5133  3.5591 -1.9994
  988MOL0     H30377   1.282  10.328   5.119  0.4276 -2.1009 -0.8880
  988MOL0     H30378   0.925  10.390   4.981  0.5799  0.4140  0.2014
  988MOL0     H30379   0.746  10.363   4.859 -0.0625  1.2057 -2.6495
  988MOL0     H30380   0.471   9.983   4.641  2.1728  1.1697  0.3750
  988MOL0     H30381   0.292   9.892   4.482  0.8498 -0.4700  1.3698
  988MOL0     H30382   0.141  10.085   4.255 -0.3155 -0.4449  1.3273
  988MOL0     H30383   0.137   9.934   4.360 -0.8136  0.7504  1.2314
  988MOL0     H30384  -0.048   9.955   4.197  0.2156  0.1768  1.9207
  988MOL0     H30385   0.040   9.808   4.198  3.0482 -0.5133  1.6542
  988MOL0     H30386   0.178   9.904   3.989  0.3929  1.4196 -1.1217
  988MOL0     H30387   0.091  10.048   4.006 -0.8493  0.5325  0.9728
  988MOL0     H30388  -0.064   9.788   3.956  4.7432 -0.8687 -0.7318
  988MOL0     H30389  -0.125   9.956   3.941 -0.3543 -1.2219  0.7215
  988MOL0     H30390   0.103   9.881   3.757 -0.3533 -0.3215 -3.9069
  988MOL0     H30391  -0.010   9.997   3.738  3.3426 -1.2293 -4.4693
  988MOL0     H30392  -0.073   9.695   3.708 -0.9821 -1.4602  0.0073
  988MOL0     H30393  -0.069   9.825   3.574  0.5651 -5.0924 -0.5965
  988MOL0     H30394  -0.261   9.789   3.797 -0.8100  2.1048  0.5583
  988MOL0     H30395  -0.267   9.932   3.692  0.9807  0.7104  1.3534
  988MOL0     H30396  -0.412   9.715   3.649  0.1105  2.0917  1.4290
  988MOL0     H30397  -0.252   9.666   3.579  0.5281  0.3411  0.0313
  988MOL0     H30398   0.518  10.060   4.152 -1.4120 -0.8630  0.2451
  988MOL0     H30399   0.692  10.120   4.311 -0.2031 -0.4644 -1.0181
  988MOL0     H30400   0.951  10.096   4.590 -1.1868 -0.8414  1.2949
  988MOL0     H30401   1.161  10.132   4.729  1.0462  2.8634 -1.0804
  988MOL0     H30402   1.954  10.999   4.222  2.3635 -0.9399  0.2598
  988MOL0     H30403   2.103  10.837   4.161  1.2534  0.6595 -0.7641
  988MOL0     H30404   2.260  10.387   4.242  0.6138  0.8802 -1.4924
  988MOL0     H30405   2.423  10.199   4.151 -0.2846  0.7699 -0.2792
  988MOL0     H30406   2.311   9.970   3.951 -0.7375  0.0763 -1.5214
  988MOL0     H30407   2.467   9.977   4.047  1.2421  0.7894 -0.1331
  988MOL0     H30408   2.580   9.952   3.831  1.8224 -1.6644  0.3582
  988MOL0     H30409   2.516   9.811   3.919 -3.4417  1.3795  1.0734
  988MOL0     H30410   2.407   9.948   3.654  0.8228 -1.0253 -0.3574
  988MOL0     H30411   2.309   9.843   3.760 -0.8212 -1.0184 -1.1866
  988MOL0     H30412   2.447   9.656   3.746 -2.2833  1.1178  0.7994
  988MOL0     H30413   2.363   9.704   3.602 -1.0032  1.1399 -0.2664
  988MOL0     H30414   2.745   9.733   3.442 -2.5883  1.1861 -3.4562
  988MOL0     H30415   2.265  10.267   3.759  2.8060 -1.9011 -0.2945
  988MOL0     H30416   2.087  10.387   3.847 -0.8212  1.4262  1.3846
  989MOL0     O30417   1.437   5.329   0.415  0.0252  0.3325 -0.3816
  989MOL0     C30418   1.527   5.375   0.481 -0.0372  0.2013  0.7197
  989MOL0     O30419   1.559   5.507   0.494  0.7002 -0.6863 -0.4754
  989MOL0     C30420   1.472   5.589   0.432  0.5499  1.0130  0.7869
  989MOL0     C30421   1.467   5.608   0.287  0.3933  0.1884  0.0634
  989MOL0     C30422   1.394   5.705   0.216  0.7148 -0.0326  0.0475
  989MOL0     C30423   1.301   5.771   0.299  0.2961  0.8539  0.5361
  989MOL0     O30424   1.200   5.848   0.232  0.0821  0.2686  1.0353
  989MOL0     C30425   1.234   5.900   0.099 -0.0151 -0.2477 -1.2344
  989MOL0     C30426   1.126   5.992   0.049  0.3375 -0.1726  0.7749
  989MOL0     C30427   1.080   6.103   0.155 -0.0711 -0.3869  0.7460
  989MOL0     C30428   1.186   6.220   0.164  0.4421 -0.6542 -0.0788
  989MOL0     C30429   1.169   6.287   0.302 -0.2353 -0.5872  0.6775
  989MOL0     C30430   1.029   6.343   0.336  0.0471  0.9635 -0.7147
  989MOL0     C30431   0.999   6.467   0.248 -0.6980  0.6495 -1.2692
  989MOL0     C30432   0.844   6.492   0.254  0.2327 -1.1812 -0.0762
  989MOL0     N30433   0.809   6.628   0.193 -0.4213  0.1020 -0.8327
  989MOL0     C30434   0.759   6.649   0.069 -0.6351  0.8923  0.2789
  989MOL0     C30435   0.734   6.781   0.057 -1.2068 -0.0043  0.1735
  989MOL0     C30436   0.677   6.855  -0.061 -1.1695  0.6020 -0.2427
  989MOL0     C30437   0.649   7.007  -0.038  0.1826 -0.0772 -0.1933
  989MOL0     C30438   0.514   7.014   0.041 -0.5192  0.0295 -0.3396
  989MOL0     C30439   0.404   6.995  -0.060  1.1553 -0.1469  0.3766
  989MOL0     O30440   0.283   6.963   0.012  0.2369 -0.4099 -0.7243
  989MOL0     C30441   0.163   6.936  -0.047 -0.3747 -0.1312  0.7328
  989MOL0     C30442   0.154   6.921  -0.186 -0.6333 -0.7508  0.3948
  989MOL0     C30443   0.033   6.865  -0.242  0.3660 -0.2379 -1.1238
  989MOL0     C30444  -0.077   6.844  -0.151 -0.5472 -0.8995 -0.3139
  989MOL0     C30445  -0.199   6.773  -0.208 -1.4054 -0.2489  0.0354
  989MOL0     O30446  -0.301   6.745  -0.120  0.7848 -0.0767 -1.3546
  989MOL0     C30447  -0.417   6.678  -0.149 -0.3942  0.1145  0.1037
  989MOL0     C30448  -0.483   6.711  -0.275  0.5558  0.3231 -0.0108
  989MOL0     C30449  -0.599   6.632  -0.301  0.2522 -1.1101 -0.3212
  989MOL0     C30450  -0.649   6.539  -0.221  0.4152  0.2360 -1.0477
  989MOL0     O30451  -0.754   6.462  -0.263 -0.2776 -0.7047  0.1669
  989MOL0     C30452  -0.725   6.361  -0.362 -0.5451 -1.1201 -0.1146
  989MOL0     C30453  -0.800   6.240  -0.324 -0.4951 -0.0079 -0.6410
  989MOL0     C30454  -0.952   6.258  -0.322 -0.7447 -0.4762 -0.2787
  989MOL0     C30455  -1.008   6.270  -0.461  0.5159 -0.2985  0.0438
  989MOL0     C30456  -1.165   6.301  -0.459 -0.0997 -0.3308  0.1421
  989MOL0     C30457  -1.186   6.447  -0.432 -0.3235  1.3821 -0.6544
  989MOL0     C30458  -1.320   6.506  -0.480 -0.7552  0.4907  0.4375
  989MOL0     C30459  -1.320   6.515  -0.635  0.3190 -0.6255 -0.0952
  989MOL0    Cl30460  -1.501   6.504  -0.680 -0.1516 -0.0262 -0.3718
  989MOL0     C30461  -0.580   6.500  -0.109  0.1555  0.3177 -0.6367
  989MOL0     C30462  -0.468   6.570  -0.073 -1.0560 -0.9798  0.8013
  989MOL0     O30463  -0.191   6.735  -0.324 -0.4878 -0.2199 -0.3367
  989MOL0     C30464  -0.066   6.890  -0.013  0.3126 -0.3571 -0.3409
  989MOL0     C30465   0.053   6.935   0.036 -0.8180 -0.7325 -0.1701
  989MOL0     N30466   0.764   6.833   0.179 -0.1303  0.1341 -0.3164
  989MOL0     N30467   0.802   6.746   0.263 -0.9941  0.0276  0.0073
  989MOL0     C30468   1.297   5.749   0.433  0.3788 -0.4880 -0.6043
  989MOL0     C30469   1.381   5.666   0.500 -0.4057  0.5991 -0.2540
  989MOL0     C30470   1.633   5.279   0.525 -0.2695 -0.1281 -0.4315
  989MOL0     C30471   1.773   5.308   0.533 -0.3185  0.3505 -0.1996
  989MOL0     C30472   1.871   5.219   0.587 -0.0431  1.4597 -0.9094
  989MOL0     C30473   1.821   5.105   0.654 -0.2504  0.2761  0.4939
  989MOL0     O30474   1.892   5.006   0.718  0.3301  0.2240 -0.8601
  989MOL0     C30475   2.038   5.020   0.739  0.7130 -0.3213 -0.8257
  989MOL0     C30476   2.095   4.987   0.875 -0.5417 -0.3892  0.0346
  989MOL0     C30477   2.050   4.842   0.917 -0.7173 -0.2459 -0.0692
  989MOL0     C30478   2.062   4.736   0.810  0.0499 -0.5091 -0.0364
  989MOL0     C30479   1.929   4.699   0.744 -1.1687 -0.5950 -0.3366
  989MOL0     C30480   1.817   4.678   0.699 -0.8779  0.0399  0.2343
  989MOL0     C30481   1.684   5.078   0.652 -0.2440  0.4052 -0.2846
  989MOL0     C30482   1.594   5.162   0.585 -0.4075 -0.1106 -0.4337
  989MOL0     H30483   1.533   5.543   0.230 -0.6564 -2.1595  1.4055
  989MOL0     H30484   1.401   5.724   0.110 -1.2783 -0.2801 -0.1692
  989MOL0     H30485   1.237   5.816   0.030  0.9211 -0.7098 -0.6508
  989MOL0     H30486   1.332   5.948   0.104 -0.7188  1.1139  0.5120
  989MOL0     H30487   1.039   5.926   0.049 -0.0173  0.2451  2.7687
  989MOL0     H30488   1.147   6.039  -0.048 -0.9439  0.6625  0.8751
  989MOL0     H30489   1.059   6.060   0.254  2.2991 -0.4354  1.2797
  989MOL0     H30490   0.985   6.142   0.118 -0.6136 -0.6371  1.8181
  989MOL0     H30491   1.291   6.190   0.160  0.6083  0.0553 -1.4240
  989MOL0     H30492   1.165   6.294   0.086  2.0861  2.8681  2.5571
  989MOL0     H30493   1.239   6.371   0.312 -0.6504 -0.2205  0.5384
  989MOL0     H30494   1.198   6.210   0.374  5.0180 -2.2210 -2.6502
  989MOL0     H30495   1.033   6.362   0.444 -0.6592 -0.8219 -0.3406
  989MOL0     H30496   0.952   6.269   0.317  2.6404 -1.6551 -1.8857
  989MOL0     H30497   1.037   6.558   0.295  0.9543 -2.1527  3.4947
  989MOL0     H30498   1.035   6.466   0.145 -1.1308 -2.0281 -1.4524
  989MOL0     H30499   0.806   6.489   0.357  2.9418  1.8834  1.1949
  989MOL0     H30500   0.801   6.410   0.196 -0.6194 -0.5312 -0.3823
  989MOL0     H30501   0.746   6.571  -0.005  3.0627  0.9662 -0.6678
  989MOL0     H30502   0.591   6.795  -0.092 -0.1927 -0.8522 -0.2185
  989MOL0     H30503   0.755   6.844  -0.137 -1.6231  1.6872 -0.9019
  989MOL0     H30504   0.644   7.064  -0.132 -2.2451 -0.3790 -0.3110
  989MOL0     H30505   0.723   7.056   0.026 -3.5338  2.7578  2.3898
  989MOL0     H30506   0.509   6.947   0.127 -1.6347 -2.3944 -2.1747
  989MOL0     H30507   0.513   7.116   0.080  1.4660 -0.1018  0.1347
  989MOL0     H30508   0.435   6.915  -0.128  0.9924  0.2543 -0.1666
  989MOL0     H30509   0.397   7.084  -0.123  0.6525 -0.4547 -0.0108
  989MOL0     H30510   0.237   6.939  -0.253  0.5294  0.6910  2.1474
  989MOL0     H30511   0.022   6.844  -0.348  0.4390 -0.7138 -1.0408
  989MOL0     H30512  -0.444   6.787  -0.342 -0.4640 -1.3898 -2.7274
  989MOL0     H30513  -0.666   6.669  -0.378  0.0976 -0.4605  0.1193
  989MOL0     H30514  -0.616   6.355  -0.365 -0.3264  1.8088 -1.6017
  989MOL0     H30515  -0.751   6.389  -0.465  0.9182  0.3784 -0.1273
  989MOL0     H30516  -0.771   6.201  -0.225  0.4781  0.0011 -0.9089
  989MOL0     H30517  -0.785   6.153  -0.389 -1.1367 -1.6194  1.2534
  989MOL0     H30518  -0.976   6.350  -0.269 -2.2253 -0.9640 -0.0596
  989MOL0     H30519  -1.008   6.176  -0.276 -1.7976 -0.0761 -0.8231
  989MOL0     H30520  -0.956   6.353  -0.510  1.5928 -1.1755 -0.3389
  989MOL0     H30521  -0.992   6.178  -0.518  2.7489  0.9082 -1.4437
  989MOL0     H30522  -1.208   6.229  -0.389  1.1510  0.0837  1.3723
  989MOL0     H30523  -1.204   6.263  -0.554 -1.0186 -0.4165  0.5359
  989MOL0     H30524  -1.112   6.515  -0.476 -0.9734  2.0146 -0.7992
  989MOL0     H30525  -1.175   6.461  -0.324  2.0582 -0.0970 -0.6390
  989MOL0     H30526  -1.391   6.431  -0.447 -0.0611 -1.0960 -1.4676
  989MOL0     H30527  -1.345   6.610  -0.456 -1.7175  0.4197 -0.1776
  989MOL0     H30528  -1.262   6.435  -0.683 -0.8395 -0.9324 -1.0220
  989MOL0     H30529  -1.292   6.616  -0.668 -5.5900  1.0372 -1.2300
  989MOL0     H30530  -0.627   6.423  -0.049 -0.1408  0.1391 -1.0958
  989MOL0     H30531  -0.416   6.525   0.011  0.1222 -1.4243 -0.1356
  989MOL0     H30532  -0.144   6.889   0.063  1.0211 -1.7055  0.4032
  989MOL0     H30533   0.048   6.965   0.140 -4.2920  1.7627 -0.8645
  989MOL0     H30534   1.226   5.816   0.481 -1.1982 -0.7060 -2.4657
  989MOL0     H30535   1.376   5.665   0.608 -1.0184  2.4140 -0.2309
  989MOL0     H30536   1.817   5.395   0.484  3.1160 -0.6240  0.9016
  989MOL0     H30537   1.976   5.235   0.565 -0.4673  3.0220 -2.0190
  989MOL0     H30538   2.067   5.124   0.719  2.5845  0.6252  4.7788
  989MOL0     H30539   2.088   4.968   0.657 -2.2341  0.6626 -3.4590
  989MOL0     H30540   2.203   4.996   0.865 -0.2551 -1.4955  1.8342
  989MOL0     H30541   2.057   5.059   0.949 -1.8345 -1.9470  0.9432
  989MOL0     H30542   1.953   4.848   0.966 -0.1399 -1.5581  1.3260
  989MOL0     H30543   2.121   4.815   0.997  3.5873  3.7883 -2.0336
  989MOL0     H30544   2.136   4.762   0.734  1.6611  0.8789  1.9023
  989MOL0     H30545   2.104   4.653   0.867  0.9770  1.1324  1.7967
  989MOL0     H30546   1.724   4.636   0.664 -1.4080 -1.6363  3.2715
  989MOL0     H30547   1.643   4.986   0.691  0.9025 -0.2902 -0.6637
  989MOL0     H30548   1.487   5.146   0.584 -0.4832  0.3168 -1.6831
  990MOL0     O30549   1.392  11.252   4.018 -0.2004 -0.0096  0.4997
  990MOL0     C30550   1.352  11.136   4.035 -0.3044  0.0781 -0.3583
  990MOL0     O30551   1.414  11.027   4.002  0.3720 -0.5775  0.4216
  990MOL0     C30552   1.468  11.027   3.878 -0.9173 -0.1216 -0.1029
  990MOL0     C30553   1.412  10.943   3.785 -0.7653  0.2807 -0.5294
  990MOL0     C30554   1.467  10.941   3.661 -0.2053 -0.2985  0.4990
  990MOL0     C30555   1.585  11.013   3.621 -0.5940 -0.3065  0.6975
  990MOL0     O30556   1.628  11.017   3.491  0.0777 -0.4287 -0.8733
  990MOL0     C30557   1.543  10.974   3.382  0.2128 -0.4240 -0.2233
  990MOL0     C30558   1.603  11.008   3.236  0.0644 -1.4210 -0.1563
  990MOL0     C30559   1.648  11.151   3.225 -0.3510 -0.1931 -0.6676
  990MOL0     C30560   1.790  11.181   3.281  0.0893  0.6857 -0.1493
  990MOL0     C30561   1.850  11.302   3.220  0.1018  0.1092  0.4555
  990MOL0     C30562   1.996  11.328   3.256  0.4539 -0.3789 -0.4375
  990MOL0     C30563   2.090  11.215   3.217 -0.1225  0.5257 -0.8026
  990MOL0     C30564   2.092  11.192   3.062  0.7123 -0.1300  0.7643
  990MOL0     N30565   2.148  11.306   2.996  0.2789 -0.8982  0.0038
  990MOL0     C30566   2.280  11.351   3.003 -0.6917 -0.2538 -0.6154
  990MOL0     C30567   2.306  11.432   2.891  0.6829 -0.1479 -1.2530
  990MOL0     C30568   2.428  11.500   2.849 -0.5112 -0.2981 -0.3472
  990MOL0     C30569   2.406  11.654   2.821  0.1958 -0.4015 -0.2080
  990MOL0     C30570   2.543  11.718   2.808 -0.6601  0.3286  0.4094
  990MOL0     C30571   2.544  11.875   2.815  0.6362  0.6106 -1.0539
  990MOL0     O30572   2.667  11.936   2.774  0.1534 -0.1279 -0.1167
  990MOL0     C30573   2.774  11.894   2.845 -0.9790  1.0113  0.7917
  990MOL0     C30574   2.801  11.921   2.977 -0.2733  0.2010  0.1536
  990MOL0     C30575   2.922  11.882   3.040  0.1314  0.0177 -0.2731
  990MOL0     C30576   3.017  11.804   2.971  0.5412  0.2042  0.0989
  990MOL0     C30577   3.146  11.770   3.031 -1.4382 -0.7638  0.7138
  990MOL0     O30578   3.245  11.718   2.949 -0.3357  1.3765 -0.1103
  990MOL0     C30579   3.372  11.706   3.009  0.5904  1.2873  0.2126
  990MOL0     C30580   3.404  11.589   3.071  1.1632 -0.4756 -0.2203
  990MOL0     C30581   3.532  11.576   3.110 -0.9138 -0.0948 -0.3168
  990MOL0     C30582   3.628  11.682   3.112  0.6346 -0.3246 -0.1751
  990MOL0     O30583   3.747  11.658   3.175  0.0592  0.1916 -0.6783
  990MOL0     C30584   3.854  11.753   3.152  0.3874 -0.5020 -0.6705
  990MOL0     C30585   3.983  11.690   3.187 -0.4680 -0.0337  0.5879
  990MOL0     C30586   4.055  11.606   3.079 -0.5750  0.7523  0.5747
  990MOL0     C30587   4.055  11.654   2.930  0.3126 -0.7320  0.2257
  990MOL0     C30588   4.134  11.563   2.842 -0.4797  0.3177 -0.3228
  990MOL0     C30589   4.175  11.636   2.711  0.1809 -0.1526  0.8184
  990MOL0     C30590   4.278  11.565   2.630 -0.5656 -0.4518  0.5577
  990MOL0     C30591   4.422  11.557   2.685 -0.1430  0.4090  0.5712
  990MOL0    Cl30592   4.499  11.720   2.679  0.2128  0.0189  0.3976
  990MOL0     C30593   3.588  11.809   3.071 -0.1798 -0.1079  0.3956
  990MOL0     C30594   3.463  11.818   3.007  0.2785 -0.4119  0.2950
  990MOL0     O30595   3.161  11.790   3.153  1.0760  0.6961  0.4901
  990MOL0     C30596   2.994  11.787   2.831  0.2108 -0.0802  1.2791
  990MOL0     C30597   2.871  11.828   2.777  1.1097 -0.0184 -0.6125
  990MOL0     N30598   2.183  11.431   2.830 -0.5854  0.5507  0.2574
  990MOL0     N30599   2.097  11.351   2.880  0.2675 -0.2739  0.3130
  990MOL0     C30600   1.642  11.097   3.715  0.0444 -0.0673 -0.5740
  990MOL0     C30601   1.583  11.104   3.841  0.1551 -0.4428  0.5586
  990MOL0     C30602   1.221  11.133   4.099 -0.5816  0.1740 -0.4924
  990MOL0     C30603   1.170  11.234   4.185 -0.2484 -0.0475 -0.4325
  990MOL0     C30604   1.042  11.228   4.245  0.1363 -1.0650  0.1028
  990MOL0     C30605   0.970  11.104   4.231  0.8971  0.2658  0.5966
  990MOL0     O30606   0.845  11.083   4.281 -0.5520  0.2056 -0.5381
  990MOL0     C30607   0.827  11.068   4.416 -1.0822  0.6515  0.9604
  990MOL0     C30608   0.708  10.986   4.454 -0.2465 -0.1427 -0.5324
  990MOL0     C30609   0.708  10.947   4.603  0.6768 -0.3020  0.5169
  990MOL0     C30610   0.642  10.800   4.614  0.0607 -0.8373 -0.1389
  990MOL0     C30611   0.654  10.752   4.748  0.1544 -0.1586 -0.6977
  990MOL0     C30612   0.662  10.713   4.862  0.0138  0.8450  0.0287
  990MOL0     C30613   1.021  10.999   4.161 -0.1033 -0.0310  0.9991
  990MOL0     C30614   1.142  11.021   4.091  0.1910 -0.7306  1.3309
  990MOL0     H30615   1.335  10.869   3.803  1.9113 -3.0471 -1.7477
  990MOL0     H30616   1.422  10.874   3.589 -0.7108  1.0306 -0.4721
  990MOL0     H30617   1.445  11.021   3.389 -0.0566 -1.1964  2.0604
  990MOL0     H30618   1.514  10.870   3.391  1.7918 -0.9262 -0.5444
  990MOL0     H30619   1.521  10.993   3.165 -1.5723  0.1199  1.2977
  990MOL0     H30620   1.685  10.942   3.205 -0.0672 -1.4554 -0.4340
  990MOL0     H30621   1.570  11.213   3.269 -1.9847 -1.9011 -1.0312
  990MOL0     H30622   1.644  11.178   3.119 -1.2526  1.1781 -0.3155
  990MOL0     H30623   1.787  11.200   3.389  2.0840 -3.0434  0.7258
  990MOL0     H30624   1.859  11.100   3.256  0.4079  1.7181 -2.9006
  990MOL0     H30625   1.794  11.393   3.240  1.7340  1.6129 -1.3272
  990MOL0     H30626   1.850  11.286   3.111 -1.7325 -1.8281  0.6784
  990MOL0     H30627   2.001  11.345   3.364 -0.8059  1.5845 -0.6269
  990MOL0     H30628   2.036  11.417   3.206  3.1859 -1.4743 -0.3760
  990MOL0     H30629   2.191  11.248   3.244  0.7663 -1.5378 -1.4397
  990MOL0     H30630   2.065  11.124   3.273 -2.1828  2.0182  0.8880
  990MOL0     H30631   1.992  11.159   3.030 -0.0795  2.9566 -0.3052
  990MOL0     H30632   2.155  11.107   3.033 -0.4193 -0.3724 -1.2029
  990MOL0     H30633   2.360  11.330   3.073  2.1916  0.8133 -3.3450
  990MOL0     H30634   2.489  11.455   2.770 -0.3183 -1.0715  0.2356
  990MOL0     H30635   2.497  11.490   2.933 -0.2343  1.3282 -0.3425
  990MOL0     H30636   2.355  11.709   2.901  2.3534  1.7925 -0.2074
  990MOL0     H30637   2.358  11.670   2.724 -1.1977  1.3310  0.7080
  990MOL0     H30638   2.623  11.679   2.873  3.2386  0.5652 -3.7467
  990MOL0     H30639   2.585  11.690   2.711 -4.3625 -1.7407 -0.8142
  990MOL0     H30640   2.526  11.917   2.914 -1.7661 -1.7460 -0.3609
  990MOL0     H30641   2.455  11.913   2.762 -0.7661  0.0276  0.7698
  990MOL0     H30642   2.726  11.974   3.034 -2.7984 -2.3946 -0.4686
  990MOL0     H30643   2.928  11.906   3.146 -3.4754  0.8815 -0.1169
  990MOL0     H30644   3.337  11.505   3.056 -1.2160  1.4477 -0.9642
  990MOL0     H30645   3.558  11.480   3.155 -1.6626  0.8303  2.2758
  990MOL0     H30646   3.841  11.839   3.218  0.1466  1.2949 -2.9619
  990MOL0     H30647   3.858  11.784   3.048  0.7962  0.6265 -0.3362
  990MOL0     H30648   3.971  11.634   3.280 -0.8797  0.6296  0.9439
  990MOL0     H30649   4.046  11.779   3.195 -0.1113 -0.1192 -0.8962
  990MOL0     H30650   3.999  11.513   3.087 -0.9034  0.7128 -1.4684
  990MOL0     H30651   4.161  11.591   3.102  0.4947  2.1445 -2.7717
  990MOL0     H30652   3.956  11.659   2.884  0.8135  2.4959 -0.7525
  990MOL0     H30653   4.086  11.759   2.937 -0.3342 -0.6216  2.0513
  990MOL0     H30654   4.073  11.478   2.811  0.5235 -0.4581 -0.2334
  990MOL0     H30655   4.215  11.532   2.909 -0.6711  4.1424  1.9772
  990MOL0     H30656   4.215  11.733   2.739 -1.2597  0.6489  0.1846
  990MOL0     H30657   4.077  11.649   2.664 -0.9556  0.9357  3.3134
  990MOL0     H30658   4.238  11.464   2.631  3.8521 -2.4223  0.8005
  990MOL0     H30659   4.284  11.592   2.524 -2.9908  1.6642  0.8558
  990MOL0     H30660   4.479  11.484   2.627 -0.0799 -0.8919  2.2047
  990MOL0     H30661   4.411  11.531   2.791  2.3079  1.5920  1.1838
  990MOL0     H30662   3.645  11.900   3.089  1.1200 -0.1642 -2.7746
  990MOL0     H30663   3.430  11.917   2.978  0.8512  0.1297  1.4446
  990MOL0     H30664   3.064  11.732   2.768 -0.0170  0.9759  0.0625
  990MOL0     H30665   2.854  11.806   2.672 -0.1083  0.4309 -0.5194
  990MOL0     H30666   1.736  11.151   3.711 -0.4376  1.2459  2.7638
  990MOL0     H30667   1.631  11.169   3.913  1.7661  0.6978 -1.4551
  990MOL0     H30668   1.240  11.317   4.193  1.1237 -0.7234 -3.6957
  990MOL0     H30669   1.009  11.306   4.313 -1.0788 -1.4648 -0.0193
  990MOL0     H30670   0.809  11.169   4.454 -0.6435  1.8083 -1.7097
  990MOL0     H30671   0.920  11.042   4.468  1.4876  4.5341 -1.2577
  990MOL0     H30672   0.624  11.055   4.440 -0.7885 -1.0739 -2.2042
  990MOL0     H30673   0.708  10.897   4.390  3.1280 -0.2535 -0.5462
  990MOL0     H30674   0.648  11.019   4.658  0.6546 -0.3856  0.6014
  990MOL0     H30675   0.809  10.957   4.645  0.7698  0.2932  0.1590
  990MOL0     H30676   0.540  10.798   4.574  1.5246  1.5716 -4.5999
  990MOL0     H30677   0.702  10.730   4.555  0.1660 -0.2341 -0.7629
  990MOL0     H30678   0.670  10.700   4.968 -2.9677  1.2876  0.3922
  990MOL0     H30679   0.962  10.908   4.167 -0.0652 -0.1497 -0.2779
  990MOL0     H30680   1.192  10.942   4.036 -1.4769 -1.9980  1.5644
  991MOL0     O30681   7.941   9.602   2.178  0.2772  0.5527  0.6918
  991MOL0     C30682   8.032   9.574   2.094  1.0173  0.2740 -0.8850
  991MOL0     O30683   8.013   9.543   1.962 -0.3747 -0.6401  0.1350
  991MOL0     C30684   7.887   9.555   1.906 -0.0876 -0.1377  0.1942
  991MOL0     C30685   7.846   9.470   1.808  0.7599 -0.3026 -0.0847
  991MOL0     C30686   7.731   9.504   1.730 -0.0857  1.0773  0.2867
  991MOL0     C30687   7.645   9.605   1.757 -0.7261 -1.1467  0.1813
  991MOL0     O30688   7.517   9.618   1.691 -0.4618 -0.8709 -0.4252
  991MOL0     C30689   7.437   9.731   1.734  0.1307 -0.7110  0.3807
  991MOL0     C30690   7.308   9.713   1.667 -1.1391 -0.2202  0.1522
  991MOL0     C30691   7.224   9.599   1.715  0.9105  0.0173  0.0522
  991MOL0     C30692   7.128   9.550   1.615  0.2445 -0.0069  0.1654
  991MOL0     C30693   7.024   9.659   1.578 -1.3191  0.6279 -0.1488
  991MOL0     C30694   6.900   9.600   1.515  0.3001 -0.8384  0.9255
  991MOL0     C30695   6.794   9.709   1.496 -0.9926  1.3252  0.8939
  991MOL0     C30696   6.742   9.780   1.613 -0.1192 -0.0191 -0.3083
  991MOL0     N30697   6.622   9.861   1.596 -0.0616  0.5922  0.4518
  991MOL0     C30698   6.628   9.995   1.573  0.1091  0.3402 -0.1757
  991MOL0     C30699   6.504  10.041   1.572  0.1086  1.1628  0.5364
  991MOL0     C30700   6.457  10.185   1.565 -1.1516 -0.0613  0.0542
  991MOL0     C30701   6.335  10.201   1.647  0.3350 -0.8847 -1.0347
  991MOL0     C30702   6.272  10.343   1.627  0.4742  0.4749  0.3670
  991MOL0     C30703   6.139  10.350   1.713 -0.8845  0.4134 -0.0611
  991MOL0     O30704   6.029  10.293   1.631 -0.4328 -0.0544  0.1560
  991MOL0     C30705   5.901  10.312   1.678  0.3517  0.2266 -0.0417
  991MOL0     C30706   5.860  10.274   1.809  1.5943 -0.9894 -0.2596
  991MOL0     C30707   5.727  10.299   1.850 -0.2631  0.4922  1.0315
  991MOL0     C30708   5.635  10.350   1.765  0.8375 -0.3640 -0.0476
  991MOL0     C30709   5.495  10.380   1.818  0.3946 -0.3409 -0.0271
  991MOL0     O30710   5.405  10.413   1.722  0.1608 -0.9974 -0.5792
  991MOL0     C30711   5.275  10.428   1.760 -0.4226 -0.1762 -0.0255
  991MOL0     C30712   5.180  10.318   1.762 -0.6051  0.4768 -0.2662
  991MOL0     C30713   5.069  10.342   1.833  0.4566 -0.7399 -0.4376
  991MOL0     C30714   5.030  10.464   1.893  1.1013 -0.7042  0.8032
  991MOL0     O30715   4.915  10.460   1.965  0.5489 -0.4997  0.2865
  991MOL0     C30716   4.798  10.519   1.896 -0.1811  0.6627 -0.7755
  991MOL0     C30717   4.679  10.429   1.912 -0.3480  0.4885 -0.0820
  991MOL0     C30718   4.620  10.447   2.057 -0.7135  0.0591  0.0169
  991MOL0     C30719   4.481  10.386   2.056 -0.7866 -0.0605 -0.0964
  991MOL0     C30720   4.392  10.431   2.169  0.7211 -0.5169 -0.0957
  991MOL0     C30721   4.308  10.554   2.122 -0.0466 -0.6080  1.2220
  991MOL0     C30722   4.202  10.583   2.233 -0.3273  0.0697  0.1286
  991MOL0     C30723   4.142  10.716   2.197 -1.2346  0.1196  0.1107
  991MOL0    Cl30724   4.015  10.758   2.314  0.0162 -0.0681 -0.8215
  991MOL0     C30725   5.114  10.575   1.879  0.8646 -0.2530 -0.4923
  991MOL0     C30726   5.235  10.555   1.813 -0.8134  0.0011  0.4388
  991MOL0     O30727   5.468  10.346   1.935 -0.0966 -0.0405 -0.3681
  991MOL0     C30728   5.680  10.386   1.634 -0.5333 -0.2344 -0.6162
  991MOL0     C30729   5.816  10.369   1.591 -0.6701  1.2181 -0.2088
  991MOL0     N30730   6.425   9.932   1.599 -0.7312  0.3113 -1.4621
  991MOL0     N30731   6.495   9.820   1.624  0.0302  0.5656  0.5464
  991MOL0     C30732   7.692   9.698   1.853  0.2556  0.7222  0.3699
  991MOL0     C30733   7.812   9.669   1.927 -0.4195 -0.3713  0.4765
  991MOL0     C30734   8.164   9.565   2.150 -0.2737 -0.1088  0.3930
  991MOL0     C30735   8.192   9.595   2.283  0.9532  1.3469 -0.0224
  991MOL0     C30736   8.322   9.595   2.341 -0.4254 -0.2094  0.0465
  991MOL0     C30737   8.427   9.570   2.252 -0.3103 -1.0424 -0.4813
  991MOL0     O30738   8.546   9.580   2.311 -0.1245 -0.2798  0.8552
  991MOL0     C30739   8.620   9.702   2.273  0.8929  0.8935  1.0605
  991MOL0     C30740   8.690   9.773   2.388 -1.0974 -0.2503 -0.1526
  991MOL0     C30741   8.779   9.696   2.480 -1.0627 -0.1791  1.0239
  991MOL0     C30742   8.831   9.781   2.596  0.4203  0.2140 -0.7387
  991MOL0     C30743   8.933   9.881   2.558  0.4212  0.2585 -0.1687
  991MOL0     C30744   9.027   9.951   2.527  0.0429  0.1884  0.3095
  991MOL0     C30745   8.401   9.536   2.123 -0.2679  1.3294  0.0112
  991MOL0     C30746   8.275   9.529   2.069  0.4683 -0.6172 -0.2323
  991MOL0     H30747   7.908   9.389   1.772  2.2426  1.0195 -0.5840
  991MOL0     H30748   7.709   9.435   1.649 -3.0313  0.5621  1.4170
  991MOL0     H30749   7.481   9.826   1.702 -0.0976 -0.5020  0.6742
  991MOL0     H30750   7.404   9.737   1.839 -1.7608  2.5722 -0.2503
  991MOL0     H30751   7.344   9.704   1.564 -0.7739 -0.7480  0.3177
  991MOL0     H30752   7.251   9.804   1.684 -0.2509  0.6088 -1.1425
  991MOL0     H30753   7.177   9.630   1.810 -1.8053 -3.2356 -0.0495
  991MOL0     H30754   7.284   9.511   1.739 -2.0952 -2.3963 -0.6829
  991MOL0     H30755   7.184   9.519   1.526  2.2851  3.1487  0.1859
  991MOL0     H30756   7.078   9.456   1.640  0.4081  0.1665  1.1905
  991MOL0     H30757   7.068   9.721   1.500  0.8744 -2.0645 -1.2375
  991MOL0     H30758   7.003   9.701   1.677 -0.7838 -1.5791  0.9876
  991MOL0     H30759   6.864   9.519   1.579  0.1646 -0.6620  1.0741
  991MOL0     H30760   6.912   9.554   1.417 -2.2873 -2.5902  1.3371
  991MOL0     H30761   6.846   9.789   1.443  0.8669  0.3275  1.1081
  991MOL0     H30762   6.713   9.664   1.437  0.0361 -0.1073  0.5045
  991MOL0     H30763   6.826   9.830   1.661  0.3885 -0.6334 -0.5313
  991MOL0     H30764   6.711   9.711   1.692  1.1246 -0.2270  0.0139
  991MOL0     H30765   6.714  10.057   1.548 -0.7914  0.9503 -1.9685
  991MOL0     H30766   6.439  10.204   1.459  1.2917 -2.0324 -0.8211
  991MOL0     H30767   6.527  10.255   1.611 -0.4867 -2.1542  2.4666
  991MOL0     H30768   6.335  10.184   1.754 -3.7242 -3.0721 -1.1794
  991MOL0     H30769   6.259  10.133   1.608  0.5344 -0.2542 -2.6400
  991MOL0     H30770   6.347  10.409   1.671  2.3958 -1.4910  0.1888
  991MOL0     H30771   6.244  10.360   1.523 -3.4772 -1.5887  0.8953
  991MOL0     H30772   6.118  10.453   1.743 -1.2380  1.0278 -2.2576
  991MOL0     H30773   6.146  10.302   1.811  2.0953  2.0373  0.6398
  991MOL0     H30774   5.928  10.211   1.865  1.6040 -0.1019  0.7673
  991MOL0     H30775   5.701  10.271   1.952  0.0195  0.3783  1.0736
  991MOL0     H30776   5.202  10.220   1.721  2.9692  0.6294  0.8995
  991MOL0     H30777   4.996  10.262   1.841  2.3896 -2.6251 -0.8597
  991MOL0     H30778   4.819  10.541   1.791 -0.1155  0.9697 -0.6978
  991MOL0     H30779   4.771  10.616   1.939 -3.8741 -1.4580  2.3477
  991MOL0     H30780   4.700  10.323   1.898 -2.2942 -0.2169  1.8193
  991MOL0     H30781   4.600  10.454   1.841 -2.6701 -0.3958  2.0457
  991MOL0     H30782   4.608  10.554   2.079  2.5031  0.8760 -1.5760
  991MOL0     H30783   4.680  10.394   2.132  0.2336 -1.8798 -1.9903
  991MOL0     H30784   4.430  10.395   1.959 -0.0211  3.6376 -0.2984
  991MOL0     H30785   4.502  10.279   2.062 -1.9545 -0.4991 -2.4371
  991MOL0     H30786   4.440  10.446   2.266  0.3929  2.8987 -0.3536
  991MOL0     H30787   4.321  10.353   2.197  3.0876 -1.9321  2.3456
  991MOL0     H30788   4.260  10.544   2.024 -0.3387  0.7630  1.2153
  991MOL0     H30789   4.375  10.639   2.111 -1.4840  0.1838 -3.5313
  991MOL0     H30790   4.125  10.507   2.217 -0.1016  0.0649 -1.0554
  991MOL0     H30791   4.246  10.588   2.333  0.0060 -2.3593  0.1724
  991MOL0     H30792   4.100  10.725   2.097 -0.3860  3.3451 -0.0671
  991MOL0     H30793   4.227  10.785   2.200 -0.9601  0.1362 -3.6386
  991MOL0     H30794   5.078  10.672   1.912 -2.3553 -1.3858 -0.3093
  991MOL0     H30795   5.305  10.638   1.811 -0.7386  0.0255 -3.0019
  991MOL0     H30796   5.619  10.432   1.558 -0.5166  2.5122  0.9075
  991MOL0     H30797   5.847  10.404   1.493  2.2023  0.0810  0.2156
  991MOL0     H30798   7.638   9.784   1.889  1.6330  1.6537  0.2607
  991MOL0     H30799   7.841   9.744   2.000  3.1380 -2.1793  1.1252
  991MOL0     H30800   8.110   9.628   2.347 -0.0880  0.3156 -0.7694
  991MOL0     H30801   8.336   9.623   2.446 -0.1883 -2.7112  0.7375
  991MOL0     H30802   8.553   9.768   2.219 -0.2390 -1.0075  0.0545
  991MOL0     H30803   8.694   9.663   2.202  1.6127  1.5233  1.4399
  991MOL0     H30804   8.741   9.860   2.347  2.2557 -0.5695  2.8565
  991MOL0     H30805   8.602   9.799   2.448 -2.4251  0.2707 -2.2456
  991MOL0     H30806   8.871   9.661   2.431 -0.8009  2.8875 -0.9605
  991MOL0     H30807   8.733   9.606   2.522 -1.8068  0.8582  2.5256
  991MOL0     H30808   8.744   9.837   2.633 -0.8546 -1.4996 -1.0398
  991MOL0     H30809   8.860   9.717   2.680 -0.9449 -0.1621 -0.5311
  991MOL0     H30810   9.108  10.013   2.494 -0.9224  1.1865 -0.2519
  991MOL0     H30811   8.488   9.521   2.060  0.5659  1.4143  1.1245
  991MOL0     H30812   8.248   9.512   1.965  2.1298  2.8953 -1.3863
  992MOL0     O30813   1.624   1.117   5.990 -0.3311 -0.5928  0.4371
  992MOL0     C30814   1.730   1.079   5.940  0.1768  0.1663 -0.5618
  992MOL0     O30815   1.754   1.054   5.809 -0.0722 -0.0805  0.3232
  992MOL0     C30816   1.652   1.048   5.711  0.3993  0.8671 -0.6315
  992MOL0     C30817   1.625   1.153   5.627 -0.1941  0.1603 -0.3134
  992MOL0     C30818   1.530   1.135   5.529  0.4257  0.1011 -0.4475
  992MOL0     C30819   1.443   1.024   5.534  0.5335 -0.8667 -0.2222
  992MOL0     O30820   1.326   1.015   5.461 -0.5579 -0.1023 -0.0924
  992MOL0     C30821   1.295   1.116   5.364 -0.7794 -0.2540  0.2686
  992MOL0     C30822   1.176   1.064   5.289 -0.9910 -0.3901 -0.1037
  992MOL0     C30823   1.153   1.117   5.147  0.3597 -0.3138  0.0646
  992MOL0     C30824   1.112   1.263   5.150 -0.3753 -0.3431  0.1721
  992MOL0     C30825   1.035   1.307   5.023 -0.0427  0.0612  0.3824
  992MOL0     C30826   0.886   1.250   5.034  0.5021 -0.7986  0.1699
  992MOL0     C30827   0.806   1.274   4.907  1.2229  1.0226  0.4810
  992MOL0     C30828   0.664   1.232   4.925 -0.1085 -0.3238 -0.9980
  992MOL0     N30829   0.650   1.081   4.923 -0.7392  0.7683  1.1163
  992MOL0     C30830   0.658   1.005   4.814  0.0812  0.5375 -0.0833
  992MOL0     C30831   0.637   0.878   4.852  0.4446  0.6662  0.8201
  992MOL0     C30832   0.616   0.750   4.775  1.0182 -0.1241 -0.0270
  992MOL0     C30833   0.468   0.726   4.755  0.2104  0.5587 -0.0014
  992MOL0     C30834   0.386   0.666   4.868  0.7572 -0.6492 -1.2368
  992MOL0     C30835   0.238   0.690   4.838 -0.3610 -1.0497  0.8626
  992MOL0     O30836   0.217   0.620   4.715 -0.0492 -0.4382 -0.0171
  992MOL0     C30837   0.123   0.671   4.630  0.2851  0.4870  1.2128
  992MOL0     C30838   0.002   0.733   4.663  0.2880 -0.6723 -1.4253
  992MOL0     C30839  -0.099   0.778   4.575 -0.5765  0.5246 -0.0681
  992MOL0     C30840  -0.073   0.759   4.439 -0.0752  0.2818 -0.4990
  992MOL0     C30841  -0.178   0.785   4.343 -0.1608 -0.6918  0.2758
  992MOL0     O30842  -0.297   0.838   4.383  0.0762 -0.4029  0.8292
  992MOL0     C30843  -0.403   0.888   4.313  0.2607 -1.1881  0.8779
  992MOL0     C30844  -0.411   0.910   4.171  0.6157  0.0117 -0.0964
  992MOL0     C30845  -0.506   0.994   4.107  0.4937 -0.2720 -0.4421
  992MOL0     C30846  -0.592   1.065   4.189  0.1114 -0.5397  0.5649
  992MOL0     O30847  -0.682   1.149   4.135 -0.8221 -0.3854 -0.3281
  992MOL0     C30848  -0.650   1.285   4.088 -0.0948  0.0626  0.2518
  992MOL0     C30849  -0.678   1.367   4.209 -0.1363 -0.1842 -0.7474
  992MOL0     C30850  -0.662   1.502   4.155 -0.6719 -0.5679 -0.3427
  992MOL0     C30851  -0.671   1.604   4.265  0.3202 -0.3671  0.8510
  992MOL0     C30852  -0.636   1.748   4.218 -0.1029  0.3962  0.8752
  992MOL0     C30853  -0.491   1.757   4.156  1.2731  0.8500 -0.3885
  992MOL0     C30854  -0.487   1.903   4.119 -0.0419  0.2278 -0.4856
  992MOL0     C30855  -0.345   1.957   4.078 -0.7662  0.9647  0.4323
  992MOL0    Cl30856  -0.220   1.910   4.192  0.3351 -0.0617  0.2255
  992MOL0     C30857  -0.592   1.041   4.324 -0.1712 -0.6059  0.2607
  992MOL0     C30858  -0.500   0.956   4.386 -0.4233  0.0743 -0.4115
  992MOL0     O30859  -0.158   0.754   4.229  0.6491  0.6647 -0.0558
  992MOL0     C30860   0.057   0.710   4.397  0.7413  1.2900 -0.2761
  992MOL0     C30861   0.146   0.658   4.492 -0.8942 -0.7814  0.2167
  992MOL0     N30862   0.614   0.880   4.989 -0.6592  0.1071  0.5906
  992MOL0     N30863   0.630   1.002   5.030  0.6158 -0.4633  0.4459
  992MOL0     C30864   1.468   0.917   5.623 -0.3182  0.2105 -0.0944
  992MOL0     C30865   1.572   0.930   5.715 -0.5524  0.0433  0.0631
  992MOL0     C30866   1.854   1.076   6.020  0.3513  0.3205 -0.1021
  992MOL0     C30867   1.981   1.053   5.959 -0.1406 -0.6058 -0.1799
  992MOL0     C30868   2.099   1.101   6.023 -0.5480  0.1812  0.2495
  992MOL0     C30869   2.097   1.141   6.156 -0.6466  0.1041  0.3287
  992MOL0     O30870   2.217   1.198   6.212 -0.1444  0.7021  0.4326
  992MOL0     C30871   2.211   1.247   6.346 -1.3963 -0.6316 -0.0282
  992MOL0     C30872   2.138   1.371   6.381 -0.6694 -0.0864  0.2998
  992MOL0     C30873   2.177   1.404   6.525  0.6541  0.2910  0.3416
  992MOL0     C30874   2.125   1.541   6.564  0.6076 -0.1839  0.2037
  992MOL0     C30875   2.179   1.564   6.693 -1.2662 -0.5789  0.1636
  992MOL0     C30876   2.244   1.575   6.787 -0.5551 -0.2646 -0.3215
  992MOL0     C30877   1.980   1.131   6.222  0.5727 -0.2518 -0.1192
  992MOL0     C30878   1.856   1.099   6.157  0.1135 -0.1821 -0.4759
  992MOL0     H30879   1.677   1.247   5.616 -0.4916  0.0762 -3.0258
  992MOL0     H30880   1.502   1.209   5.456 -0.0428 -2.4846 -3.0550
  992MOL0     H30881   1.380   1.125   5.296  0.8498 -2.4844  1.8703
  992MOL0     H30882   1.255   1.209   5.405 -0.5834  0.4130 -0.9959
  992MOL0     H30883   1.088   1.086   5.351 -1.3269 -2.2595  0.1429
  992MOL0     H30884   1.178   0.954   5.289 -0.0298 -0.3797  0.1586
  992MOL0     H30885   1.083   1.045   5.103  2.2375 -1.5658 -0.9858
  992MOL0     H30886   1.240   1.101   5.084 -0.5516  0.6560 -1.5124
  992MOL0     H30887   1.054   1.283   5.241 -2.4436 -0.3358 -1.0787
  992MOL0     H30888   1.203   1.323   5.151 -1.8136  2.1166 -2.0006
  992MOL0     H30889   1.081   1.283   4.927 -2.9203  0.5722 -1.2335
  992MOL0     H30890   1.038   1.415   5.042  0.5055  0.0025  0.6625
  992MOL0     H30891   0.838   1.286   5.125  0.7271  0.7118 -0.2653
  992MOL0     H30892   0.896   1.142   5.041 -0.1441 -0.7710  1.8985
  992MOL0     H30893   0.794   1.380   4.882 -0.4741  1.1402  1.5867
  992MOL0     H30894   0.845   1.226   4.817  3.1455  0.9864  1.2892
  992MOL0     H30895   0.611   1.275   4.840  0.6168  1.0705 -0.7761
  992MOL0     H30896   0.619   1.282   5.012  0.6686  0.0708 -0.8068
  992MOL0     H30897   0.670   1.040   4.712  1.7699 -2.9910 -1.2565
  992MOL0     H30898   0.641   0.674   4.850 -2.8935  2.6166  4.6529
  992MOL0     H30899   0.677   0.740   4.685 -1.4618 -2.8309 -1.5595
  992MOL0     H30900   0.455   0.655   4.673 -2.8616 -1.6781  2.1721
  992MOL0     H30901   0.425   0.826   4.745 -0.1672  0.6746  2.2365
  992MOL0     H30902   0.414   0.566   4.902  2.8601  1.0040  2.4829
  992MOL0     H30903   0.403   0.721   4.962 -0.9808  1.1307 -1.8770
  992MOL0     H30904   0.218   0.797   4.829 -1.2582 -1.4017 -4.8090
  992MOL0     H30905   0.182   0.647   4.922  0.3692  0.1933  2.0327
  992MOL0     H30906  -0.026   0.745   4.767  0.0073 -3.0303 -1.1668
  992MOL0     H30907  -0.197   0.804   4.613  0.3998  1.4141  2.0077
  992MOL0     H30908  -0.329   0.866   4.115  1.0695 -2.8043  2.5306
  992MOL0     H30909  -0.512   1.020   4.002  0.8523 -0.4687 -0.5118
  992MOL0     H30910  -0.719   1.311   4.007 -3.5321  2.1981  3.5425
  992MOL0     H30911  -0.545   1.283   4.057 -1.0010 -2.3246 -3.2977
  992MOL0     H30912  -0.599   1.344   4.282 -0.8884  0.0539  0.1655
  992MOL0     H30913  -0.776   1.369   4.257  0.6205 -2.9430  1.1762
  992MOL0     H30914  -0.729   1.526   4.072 -0.3578 -0.6166 -0.6114
  992MOL0     H30915  -0.558   1.504   4.121 -1.2679  5.0086 -2.9112
  992MOL0     H30916  -0.776   1.600   4.294 -0.5228 -0.6987 -1.9198
  992MOL0     H30917  -0.614   1.580   4.355  1.5755 -1.4272 -0.1934
  992MOL0     H30918  -0.653   1.826   4.294 -0.0841  2.0290 -0.7282
  992MOL0     H30919  -0.705   1.780   4.139 -0.5019 -1.0975  0.6005
  992MOL0     H30920  -0.481   1.693   4.068 -0.3210 -3.1154  2.0403
  992MOL0     H30921  -0.420   1.723   4.232  0.4057  0.2144  0.1516
  992MOL0     H30922  -0.557   1.923   4.037  1.3796 -1.2936 -2.1489
  992MOL0     H30923  -0.518   1.966   4.203 -3.6471  0.5578 -1.8919
  992MOL0     H30924  -0.322   2.062   4.060  1.6897  0.4597  0.3714
  992MOL0     H30925  -0.320   1.913   3.981  3.5422  2.8619  0.4873
  992MOL0     H30926  -0.667   1.088   4.387 -1.4692 -2.3028  0.0682
  992MOL0     H30927  -0.502   0.962   4.495  1.4246 -2.5847 -0.1437
  992MOL0     H30928   0.079   0.690   4.292 -0.5299 -0.2705 -0.2872
  992MOL0     H30929   0.234   0.622   4.439 -2.2997 -2.8829 -0.7973
  992MOL0     H30930   1.410   0.826   5.630  1.8028 -1.0956  3.0709
  992MOL0     H30931   1.594   0.846   5.779  2.1049  0.0223 -0.7184
  992MOL0     H30932   1.981   1.006   5.861  0.2648 -0.5396 -0.2135
  992MOL0     H30933   2.194   1.097   5.971 -1.2195 -0.5849 -0.9830
  992MOL0     H30934   2.315   1.261   6.377 -1.2875  0.3493 -0.7840
  992MOL0     H30935   2.179   1.169   6.416  0.0741 -1.6998 -0.5109
  992MOL0     H30936   2.170   1.454   6.317  2.1058 -1.1105  0.2002
  992MOL0     H30937   2.029   1.362   6.378 -0.5157 -3.1745  0.8808
  992MOL0     H30938   2.283   1.385   6.546  1.0947 -1.5761 -2.8419
  992MOL0     H30939   2.117   1.344   6.593 -0.7523 -0.4342 -1.4583
  992MOL0     H30940   2.160   1.622   6.499 -0.7476 -1.4261 -2.2117
  992MOL0     H30941   2.016   1.546   6.559  0.5754  2.6499  1.8045
  992MOL0     H30942   2.293   1.610   6.875 -0.0503  3.4414 -1.8604
  992MOL0     H30943   1.967   1.151   6.328 -0.9197 -0.3045 -0.2809
  992MOL0     H30944   1.762   1.097   6.211  0.6543  0.1506  0.4934
  993MOL0     O30945   7.009  11.256   6.617  0.4605  0.3011  0.5585
  993MOL0     C30946   6.993  11.145   6.682  0.8326 -0.1391  1.0319
  993MOL0     O30947   6.868  11.085   6.716  0.2157  0.9869  0.6966
  993MOL0     C30948   6.756  11.150   6.678  0.6157 -0.9213  0.3294
  993MOL0     C30949   6.677  11.213   6.780  0.4833 -0.7314  0.3471
  993MOL0     C30950   6.569  11.288   6.745 -0.2189 -0.3612 -0.0675
  993MOL0     C30951   6.530  11.318   6.615 -0.9858  0.4173 -0.0333
  993MOL0     O30952   6.414  11.393   6.606  0.2802  0.7280 -0.2937
  993MOL0     C30953   6.363  11.434   6.477 -0.2106  0.7241  0.0325
  993MOL0     C30954   6.230  11.507   6.480  0.9030 -0.8114  1.0674
  993MOL0     C30955   6.113  11.429   6.539  0.7668 -0.1841 -0.3638
  993MOL0     C30956   5.991  11.526   6.577 -0.6909  0.0645 -0.2987
  993MOL0     C30957   5.881  11.451   6.663 -0.9221 -1.2926 -0.1544
  993MOL0     C30958   5.790  11.360   6.589  0.2367  0.3902  0.2247
  993MOL0     C30959   5.727  11.257   6.682  0.1496  0.3165  0.4961
  993MOL0     C30960   5.584  11.224   6.637 -1.0463 -0.3527 -0.1453
  993MOL0     N30961   5.493  11.335   6.644  0.6050 -0.1197  0.6528
  993MOL0     C30962   5.454  11.396   6.759 -0.0016 -0.0741  0.3414
  993MOL0     C30963   5.365  11.492   6.717 -0.0868 -0.1873 -1.4053
  993MOL0     C30964   5.284  11.578   6.811  0.9007 -0.4341  0.9556
  993MOL0     C30965   5.288  11.725   6.751 -0.7018  0.1463 -0.2333
  993MOL0     C30966   5.223  11.820   6.854 -0.6370  0.2546  0.6680
  993MOL0     C30967   5.066  11.820   6.855  0.6823 -0.7404 -0.4224
  993MOL0     O30968   5.002  11.892   6.748  0.1670  0.2696  0.5706
  993MOL0     C30969   4.867  11.927   6.752  0.7227  0.5530 -0.0001
  993MOL0     C30970   4.820  12.013   6.651 -0.5925  0.2819 -0.4501
  993MOL0     C30971   4.681  12.044   6.662 -0.3736 -0.6407 -0.9534
  993MOL0     C30972   4.589  11.971   6.742 -0.4511  0.1334 -0.1350
  993MOL0     C30973   4.452  12.011   6.748 -0.3374 -0.2899  0.7154
  993MOL0     O30974   4.411  12.110   6.672  0.1639  0.1379 -0.2043
  993MOL0     C30975   4.276  12.145   6.675 -0.1241 -0.2308  0.2566
  993MOL0     C30976   4.203  12.153   6.795 -0.2989 -0.2890 -0.1842
  993MOL0     C30977   4.066  12.172   6.796 -0.4125  0.2362  0.4161
  993MOL0     C30978   4.002  12.173   6.670  0.0112 -1.1860  0.6321
  993MOL0     O30979   3.863  12.181   6.656 -0.2671 -0.1584 -0.3421
  993MOL0     C30980   3.786  12.215   6.781  0.1291  0.2608  0.8542
  993MOL0     C30981   3.637  12.257   6.756 -0.5696 -0.9761 -0.5501
  993MOL0     C30982   3.534  12.191   6.841  0.5803 -0.1369 -0.4049
  993MOL0     C30983   3.403  12.159   6.771 -0.3752 -0.0689  1.2162
  993MOL0     C30984   3.308  12.078   6.865 -0.4495 -0.5436 -0.2985
  993MOL0     C30985   3.170  12.077   6.799  0.1492 -0.6585  0.4167
  993MOL0     C30986   3.079  11.984   6.878 -0.0147  0.4841  0.0224
  993MOL0     C30987   2.953  11.941   6.807  0.4409  0.1439 -0.0640
  993MOL0    Cl30988   2.894  11.796   6.886  0.2037 -0.3049  0.6962
  993MOL0     C30989   4.083  12.175   6.558  0.3400 -0.1340  0.4016
  993MOL0     C30990   4.217  12.169   6.556  0.8840 -0.3963 -0.4144
  993MOL0     O30991   4.385  11.952   6.835 -0.4358  0.2471  0.7977
  993MOL0     C30992   4.645  11.879   6.836  0.3282  0.2552  0.7007
  993MOL0     C30993   4.778  11.850   6.838  0.2781  0.2516  0.0942
  993MOL0     N30994   5.369  11.495   6.581 -0.5362 -1.3153  0.2480
  993MOL0     N30995   5.442  11.399   6.535 -0.2062  0.7697  0.3088
  993MOL0     C30996   6.610  11.259   6.513  0.2034  0.4330 -0.2678
  993MOL0     C30997   6.730  11.187   6.544  0.1987 -0.7702 -0.3803
  993MOL0     C30998   7.110  11.060   6.707  0.0931 -0.7900 -0.0557
  993MOL0     C30999   7.101  10.950   6.797  0.9626  1.1031  0.3722
  993MOL0     C31000   7.218  10.872   6.801  0.1571 -0.5477  0.6679
  993MOL0     C31001   7.341  10.905   6.735  0.4896 -0.1374 -0.7491
  993MOL0     O31002   7.446  10.823   6.748  0.1162 -0.7414  0.5738
  993MOL0     C31003   7.497  10.807   6.882  0.7257 -0.0662  0.7826
  993MOL0     C31004   7.601  10.696   6.901  0.4545  0.7989 -0.1302
  993MOL0     C31005   7.732  10.731   6.838  0.0335  0.5177 -0.2091
  993MOL0     C31006   7.852  10.663   6.921  0.9628  0.0496  0.0911
  993MOL0     C31007   7.882  10.740   7.041  0.6045 -0.6102  0.1170
  993MOL0     C31008   7.916  10.801   7.137  0.6738 -0.6092 -0.2055
  993MOL0     C31009   7.351  11.023   6.657 -1.0956  0.0535  0.6907
  993MOL0     C31010   7.230  11.090   6.635 -0.2224 -0.0528 -1.3637
  993MOL0     H31011   6.690  11.187   6.884 -0.0721 -4.7304 -0.3891
  993MOL0     H31012   6.523  11.336   6.831 -2.7484 -0.7162 -1.1530
  993MOL0     H31013   6.353  11.336   6.430  2.9586 -0.4618  1.5500
  993MOL0     H31014   6.434  11.492   6.417  2.5027 -2.0322  0.3782
  993MOL0     H31015   6.197  11.534   6.380  1.9719  1.2758  1.2356
  993MOL0     H31016   6.249  11.603   6.528  0.2639 -0.2055  0.1215
  993MOL0     H31017   6.157  11.386   6.630  0.1917  0.7568  0.3861
  993MOL0     H31018   6.073  11.354   6.471  1.3782  1.2527 -2.3998
  993MOL0     H31019   6.012  11.626   6.616 -1.2431  0.9357 -2.1194
  993MOL0     H31020   5.936  11.567   6.492 -4.4491 -0.0637  1.8152
  993MOL0     H31021   5.828  11.525   6.724  1.8728 -1.8324  3.2430
  993MOL0     H31022   5.939  11.393   6.735 -0.5961 -0.3750  0.3471
  993MOL0     H31023   5.834  11.304   6.506 -1.9609 -3.5915  1.4972
  993MOL0     H31024   5.713  11.427   6.548  0.7330  1.2195  0.6113
  993MOL0     H31025   5.787  11.168   6.703 -0.2889  0.0619  0.6745
  993MOL0     H31026   5.702  11.301   6.779  0.1718 -0.9298  1.0829
  993MOL0     H31027   5.555  11.143   6.703  1.2355 -1.3324 -0.2342
  993MOL0     H31028   5.590  11.172   6.540  3.5454  1.1417 -0.9116
  993MOL0     H31029   5.484  11.381   6.862 -0.9362 -1.5490  0.4364
  993MOL0     H31030   5.316  11.575   6.915  1.3710 -1.0627  0.8034
  993MOL0     H31031   5.180  11.544   6.806  0.4833  0.8424  0.5934
  993MOL0     H31032   5.240  11.721   6.653 -1.4446 -1.1837  0.1398
  993MOL0     H31033   5.387  11.767   6.739 -0.6293 -0.5916 -2.6760
  993MOL0     H31034   5.276  11.805   6.948  0.2795 -0.4617  0.0669
  993MOL0     H31035   5.257  11.919   6.821  0.8030 -1.0904 -2.2789
  993MOL0     H31036   5.040  11.885   6.939  0.1586 -1.7505  0.2170
  993MOL0     H31037   5.035  11.715   6.860  1.0678 -0.8223  0.3167
  993MOL0     H31038   4.896  12.050   6.584 -0.4864  0.3774 -0.2787
  993MOL0     H31039   4.634  12.119   6.600  1.6716  2.2659  0.7984
  993MOL0     H31040   4.247  12.152   6.894  3.1109  3.7138 -1.3659
  993MOL0     H31041   4.009  12.159   6.888  1.2036  1.7720  1.7077
  993MOL0     H31042   3.834  12.303   6.825 -1.7253  0.9405  1.6405
  993MOL0     H31043   3.802  12.143   6.861  0.8859  0.8660  1.2646
  993MOL0     H31044   3.619  12.231   6.651 -1.2555  1.8348 -1.2097
  993MOL0     H31045   3.631  12.366   6.760 -2.0104 -1.0740  2.8274
  993MOL0     H31046   3.495  12.253   6.922 -3.8886 -0.8468 -1.7308
  993MOL0     H31047   3.572  12.099   6.886 -0.0724 -0.1686  0.1110
  993MOL0     H31048   3.354  12.250   6.736 -0.2588  1.3415  4.3499
  993MOL0     H31049   3.419  12.090   6.688  0.2394  5.0769 -3.5247
  993MOL0     H31050   3.306  12.119   6.966 -1.1694 -4.3474  1.3866
  993MOL0     H31051   3.344  11.975   6.875 -0.1880 -0.2175  3.3739
  993MOL0     H31052   3.175  12.059   6.691  3.0268  1.4193  0.1012
  993MOL0     H31053   3.135  12.181   6.801 -1.4546 -1.1730  1.0700
  993MOL0     H31054   3.144  11.896   6.877  1.4492  1.4795  1.3359
  993MOL0     H31055   3.058  12.017   6.980  1.8733  1.0592  0.2554
  993MOL0     H31056   2.983  11.924   6.703  2.6254  3.6219 -0.1673
  993MOL0     H31057   2.883  12.024   6.810  0.3810  0.0920  3.0008
  993MOL0     H31058   4.040  12.156   6.460 -0.0870 -1.7475  0.8663
  993MOL0     H31059   4.279  12.172   6.468  0.0737 -1.0823 -1.0192
  993MOL0     H31060   4.582  11.834   6.912  0.3789  2.2320  1.9904
  993MOL0     H31061   4.820  11.784   6.912  2.2416  0.8459 -0.4306
  993MOL0     H31062   6.585  11.283   6.410  0.0479  1.7759  0.0559
  993MOL0     H31063   6.809  11.166   6.474  3.5401 -1.1197  3.1633
  993MOL0     H31064   7.016  10.927   6.859  2.4124 -0.3889  1.9154
  993MOL0     H31065   7.218  10.795   6.878 -2.7624  0.6320  2.0120
  993MOL0     H31066   7.419  10.793   6.958  0.8572 -1.2648  0.7175
  993MOL0     H31067   7.539  10.906   6.902  0.9801 -0.1083  0.4573
  993MOL0     H31068   7.625  10.700   7.008  2.7856  1.2165 -0.6029
  993MOL0     H31069   7.567  10.594   6.881  0.2968  0.6730  0.7571
  993MOL0     H31070   7.740  10.839   6.823  0.3420  0.8856  2.2171
  993MOL0     H31071   7.728  10.696   6.735  0.7303 -0.1199 -0.0222
  993MOL0     H31072   7.818  10.567   6.962  0.0456  0.5659  0.5750
  993MOL0     H31073   7.936  10.653   6.852  1.4412  0.4146  0.6059
  993MOL0     H31074   7.952  10.850   7.225  1.0434 -3.2884  1.2132
  993MOL0     H31075   7.441  11.044   6.599 -1.5441  0.3430  0.0875
  993MOL0     H31076   7.239  11.160   6.552 -1.1870 -0.2906 -1.6856
  994MOL0     O31077   8.300   0.224   4.877  0.1342  0.7044  0.3119
  994MOL0     C31078   8.385   0.182   4.961  0.1988  0.0785  0.2098
  994MOL0     O31079   8.361   0.094   5.068  0.7201  0.0412 -0.0212
  994MOL0     C31080   8.237   0.030   5.066  0.7729  0.2028 -0.1748
  994MOL0     C31081   8.121   0.095   5.094 -0.1743  1.2059  0.0384
  994MOL0     C31082   7.999   0.032   5.109  0.0723  0.2724  0.2896
  994MOL0     C31083   7.998  -0.112   5.080  0.6120 -0.6163 -0.9243
  994MOL0     O31084   7.882  -0.169   5.107  0.0385  0.0563  0.6996
  994MOL0     C31085   7.814  -0.236   4.992  0.4557 -0.4284 -0.6010
  994MOL0     C31086   7.768  -0.123   4.888  0.3580  1.0810  0.5899
  994MOL0     C31087   7.670  -0.013   4.925  0.5924 -0.5584 -0.0047
  994MOL0     C31088   7.521  -0.045   4.966 -0.5655 -1.4071  0.6016
  994MOL0     C31089   7.431  -0.077   4.851 -0.4346  0.8330 -0.4215
  994MOL0     C31090   7.294  -0.120   4.907  0.3978  0.6775 -0.4741
  994MOL0     C31091   7.307  -0.245   5.002 -0.2275  0.1474  0.2836
  994MOL0     C31092   7.171  -0.321   5.034  0.3718  1.5454 -0.6121
  994MOL0     N31093   7.107  -0.395   4.921 -0.2686  0.6177  0.6463
  994MOL0     C31094   6.992  -0.360   4.854  0.5404  0.4421 -0.4595
  994MOL0     C31095   6.984  -0.444   4.748 -0.0233  0.3670  0.4961
  994MOL0     C31096   6.885  -0.416   4.630  0.1024  0.8093 -0.2567
  994MOL0     C31097   6.957  -0.374   4.506 -0.1589 -0.3305  0.3761
  994MOL0     C31098   6.950  -0.221   4.469  0.1506  0.1068 -0.4160
  994MOL0     C31099   7.066  -0.143   4.517  0.0523  0.6376 -0.3615
  994MOL0     O31100   7.180  -0.191   4.434  0.2219 -0.0535 -0.1448
  994MOL0     C31101   7.300  -0.122   4.435  0.2486  0.2151  0.2477
  994MOL0     C31102   7.394  -0.160   4.520 -1.4755  0.3944  0.5777
  994MOL0     C31103   7.521  -0.092   4.521 -0.4012  0.0339 -0.1289
  994MOL0     C31104   7.558  -0.011   4.413  0.5556 -0.0547  0.0959
  994MOL0     C31105   7.695   0.049   4.412 -0.8005  0.2269 -0.8270
  994MOL0     O31106   7.779   0.027   4.518 -1.0650  0.5510 -1.0963
  994MOL0     C31107   7.911   0.082   4.520  0.0646 -0.1611 -0.3798
  994MOL0     C31108   8.001   0.047   4.418  0.9505  0.0950  0.3325
  994MOL0     C31109   8.131   0.106   4.413  0.0518 -0.1966  0.4292
  994MOL0     C31110   8.165   0.200   4.510 -0.1922  0.5434 -0.6244
  994MOL0     O31111   8.285   0.254   4.490  0.4025 -0.0038  0.1528
  994MOL0     C31112   8.289   0.388   4.519 -0.9620  0.5730 -0.4941
  994MOL0     C31113   8.416   0.432   4.451 -0.0869  0.6700  0.0222
  994MOL0     C31114   8.448   0.585   4.477  0.1230 -0.1411  0.3677
  994MOL0     C31115   8.570   0.639   4.398  0.4199  0.1569  0.6342
  994MOL0     C31116   8.592   0.786   4.420  0.3451  0.3114 -0.5408
  994MOL0     C31117   8.730   0.827   4.362 -0.0321  0.1545  0.1685
  994MOL0     C31118   8.858   0.782   4.427 -0.1602 -0.3761  0.2716
  994MOL0     C31119   8.868   0.846   4.556 -0.0452 -0.1017 -0.0116
  994MOL0    Cl31120   9.028   0.801   4.636 -0.2695 -0.5378  0.3061
  994MOL0     C31121   8.084   0.230   4.619  0.4983 -0.3023  0.8833
  994MOL0     C31122   7.952   0.172   4.615  0.2387  0.3340  0.0302
  994MOL0     O31123   7.732   0.093   4.309 -0.2218 -0.4561  1.0541
  994MOL0     C31124   7.456   0.007   4.315 -0.1320 -0.6703  0.1277
  994MOL0     C31125   7.334  -0.036   4.333 -0.4686  0.1304 -0.0487
  994MOL0     N31126   7.082  -0.542   4.755 -0.0507 -0.1752 -0.3639
  994MOL0     N31127   7.155  -0.509   4.858 -0.2273 -0.2382 -0.2098
  994MOL0     C31128   8.112  -0.178   5.029 -0.8812 -0.0014 -0.0744
  994MOL0     C31129   8.234  -0.102   5.025 -0.5389  0.2637 -0.5764
  994MOL0     C31130   8.516   0.241   4.952  0.2753 -0.1971  0.6617
  994MOL0     C31131   8.609   0.238   5.062  1.0328  0.0906 -0.4188
  994MOL0     C31132   8.733   0.296   5.048 -0.2826 -0.9755  0.7800
  994MOL0     C31133   8.771   0.372   4.933 -0.7255  0.9374  0.1136
  994MOL0     O31134   8.891   0.439   4.911 -0.1967 -1.1846  0.5465
  994MOL0     C31135   8.988   0.436   5.016 -0.2648  0.2906 -0.3447
  994MOL0     C31136   9.125   0.493   4.965 -0.5607 -0.4463 -1.2908
  994MOL0     C31137   9.253   0.451   5.039  0.4524 -0.4745  0.2456
  994MOL0     C31138   9.271   0.295   5.047 -0.3297  0.9364  0.1284
  994MOL0     C31139   9.420   0.277   5.071 -0.1510  0.1498  0.2843
  994MOL0     C31140   9.536   0.263   5.090  0.0566  0.4730  0.1002
  994MOL0     C31141   8.688   0.366   4.829  0.5263 -0.6096  1.0539
  994MOL0     C31142   8.557   0.301   4.832 -0.4128 -0.3102  0.4586
  994MOL0     H31143   8.126   0.204   5.093  0.2256  1.3458 -4.6498
  994MOL0     H31144   7.912   0.091   5.136 -0.1607 -0.0682  0.2824
  994MOL0     H31145   7.723  -0.289   5.020  0.4089 -0.7019 -1.2548
  994MOL0     H31146   7.869  -0.320   4.948 -0.2927 -2.0619  1.4480
  994MOL0     H31147   7.725  -0.172   4.801 -0.7845  0.3213  1.5536
  994MOL0     H31148   7.862  -0.077   4.854  0.2558  0.7212 -0.2049
  994MOL0     H31149   7.673   0.075   4.860 -0.9765  1.0963  1.9773
  994MOL0     H31150   7.724   0.033   5.009  1.0784 -0.4183 -0.3930
  994MOL0     H31151   7.538  -0.134   5.027 -3.5177 -3.3388 -1.1596
  994MOL0     H31152   7.483   0.042   5.020 -2.4450 -1.2929 -0.7949
  994MOL0     H31153   7.484  -0.156   4.797 -0.7247  0.8096 -0.6740
  994MOL0     H31154   7.424   0.008   4.782  0.4583  0.5444 -0.8765
  994MOL0     H31155   7.220  -0.138   4.828  0.4013  2.3266 -0.8787
  994MOL0     H31156   7.245  -0.041   4.965  0.1231 -0.9367  1.6129
  994MOL0     H31157   7.369  -0.314   4.944  1.9604  0.4167  2.1782
  994MOL0     H31158   7.365  -0.220   5.091  0.2847 -1.9867  0.6108
  994MOL0     H31159   7.100  -0.247   5.069 -2.1171 -0.7167 -0.5358
  994MOL0     H31160   7.191  -0.384   5.122 -2.8289  0.0539 -0.8114
  994MOL0     H31161   6.917  -0.282   4.866  0.5830  0.6423 -1.3958
  994MOL0     H31162   6.815  -0.334   4.651 -1.5450 -0.8939  1.2913
  994MOL0     H31163   6.827  -0.507   4.611 -0.0520  0.5816  1.1823
  994MOL0     H31164   6.916  -0.433   4.423  1.4663 -4.9944  2.5918
  994MOL0     H31165   7.059  -0.410   4.511 -0.6854 -1.9171  0.1655
  994MOL0     H31166   6.940  -0.212   4.361 -0.5953 -1.1421 -0.4717
  994MOL0     H31167   6.858  -0.173   4.503  0.3807  0.8483 -0.8251
  994MOL0     H31168   7.088  -0.153   4.624  0.0802  2.5049 -0.1649
  994MOL0     H31169   7.052  -0.040   4.486 -0.8768 -0.3501 -3.5688
  994MOL0     H31170   7.352  -0.222   4.598  0.4002 -0.6697  0.7868
  994MOL0     H31171   7.587  -0.111   4.604 -1.2117 -0.5362  0.4069
  994MOL0     H31172   7.965  -0.020   4.341 -3.2184  1.3268  0.9800
  994MOL0     H31173   8.196   0.086   4.329 -1.3541  0.7336 -0.9384
  994MOL0     H31174   8.305   0.390   4.627  1.2709  1.2830 -0.7945
  994MOL0     H31175   8.195   0.443   4.502 -2.2688 -0.6605  2.0737
  994MOL0     H31176   8.403   0.404   4.346 -1.5705 -2.3950  0.8907
  994MOL0     H31177   8.501   0.372   4.482  1.3231  2.1335 -0.8586
  994MOL0     H31178   8.464   0.598   4.585 -2.9034 -2.4076  1.2247
  994MOL0     H31179   8.355   0.638   4.459 -0.6849 -1.7794 -0.4697
  994MOL0     H31180   8.656   0.580   4.432 -0.2791 -1.1624  0.1968
  994MOL0     H31181   8.551   0.632   4.291 -2.7932 -0.3810  1.1487
  994MOL0     H31182   8.588   0.807   4.527 -1.0306  3.8129 -1.1398
  994MOL0     H31183   8.515   0.850   4.377  0.5782  1.1800  0.3024
  994MOL0     H31184   8.734   0.934   4.343 -1.3585 -0.1405 -2.1874
  994MOL0     H31185   8.724   0.804   4.256 -3.3979  1.1431  0.0244
  994MOL0     H31186   8.863   0.673   4.435 -0.3807 -0.6234 -2.1692
  994MOL0     H31187   8.933   0.821   4.359 -0.1814 -1.9747 -0.7224
  994MOL0     H31188   8.783   0.816   4.617 -2.7391  0.0747 -3.4089
  994MOL0     H31189   8.859   0.954   4.543 -1.0527 -0.1411  0.2891
  994MOL0     H31190   8.105   0.301   4.698  0.8535  1.8374 -1.0345
  994MOL0     H31191   7.871   0.191   4.685 -0.1255 -2.6556  0.5603
  994MOL0     H31192   7.479   0.052   4.219 -1.1500 -0.9834 -0.2768
  994MOL0     H31193   7.258  -0.008   4.261 -0.0796 -2.5945 -1.6538
  994MOL0     H31194   8.113  -0.286   5.020  1.5436 -0.0175 -0.2862
  994MOL0     H31195   8.323  -0.143   4.979 -0.1248 -0.7194  1.0241
  994MOL0     H31196   8.569   0.198   5.155  0.0304  1.0502 -0.4192
  994MOL0     H31197   8.791   0.308   5.139 -2.3462  2.3079  1.8422
  994MOL0     H31198   9.004   0.331   5.041  3.8627  0.8807  0.1809
  994MOL0     H31199   8.956   0.485   5.109  0.2062  0.2035 -0.1331
  994MOL0     H31200   9.126   0.479   4.857 -1.1594  0.2824 -1.3958
  994MOL0     H31201   9.126   0.603   4.968 -1.4174 -0.4518  1.1434
  994MOL0     H31202   9.247   0.489   5.142  1.0605  1.2632 -0.3292
  994MOL0     H31203   9.335   0.502   4.987 -0.2003 -0.8722 -1.1884
  994MOL0     H31204   9.213   0.250   5.129  1.7084 -1.6776  0.3048
  994MOL0     H31205   9.247   0.251   4.950  2.5778  0.5489 -0.5112
  994MOL0     H31206   9.638   0.247   5.120  0.0995 -1.1246 -0.7846
  994MOL0     H31207   8.736   0.412   4.744  1.2577  3.8590  3.5631
  994MOL0     H31208   8.495   0.304   4.744  1.1205 -1.2459 -0.7061
  995MOL0     O31209   0.567   8.195   0.360  0.1151 -0.3607 -0.9944
  995MOL0     C31210   0.581   8.308   0.316  0.2032 -0.9796 -0.1473
  995MOL0     O31211   0.478   8.392   0.278  0.9692 -0.4849  0.3045
  995MOL0     C31212   0.348   8.351   0.312 -0.0507  0.0936 -0.1108
  995MOL0     C31213   0.288   8.306   0.432  0.3552 -0.2844 -0.1620
  995MOL0     C31214   0.156   8.264   0.437 -0.4430  0.5485 -0.4852
  995MOL0     C31215   0.073   8.269   0.332 -0.6623  0.2287  0.2929
  995MOL0     O31216  -0.060   8.245   0.328 -0.4914 -0.9150  0.4920
  995MOL0     C31217  -0.134   8.240   0.455 -0.1174 -0.2590 -0.4103
  995MOL0     C31218  -0.253   8.340   0.444 -0.0880  0.2379  0.6443
  995MOL0     C31219  -0.340   8.320   0.562  0.2605  1.2830  0.4702
  995MOL0     C31220  -0.435   8.194   0.558 -0.0398  0.4614 -0.3910
  995MOL0     C31221  -0.496   8.194   0.694 -0.1538 -0.6381 -0.4912
  995MOL0     C31222  -0.647   8.205   0.651  0.7215 -0.7788 -0.1965
  995MOL0     C31223  -0.736   8.193   0.777  0.5696  0.8726  0.0512
  995MOL0     C31224  -0.780   8.051   0.802 -0.4381 -0.0694 -0.3234
  995MOL0     N31225  -0.906   8.049   0.874  0.7320 -0.4156  0.3605
  995MOL0     C31226  -0.916   8.079   1.006 -0.3459  0.0791 -0.9913
  995MOL0     C31227  -1.053   8.104   1.016  0.0451 -1.5739 -0.2173
  995MOL0     C31228  -1.124   8.147   1.144 -0.9396  0.2298  1.1573
  995MOL0     C31229  -1.267   8.152   1.126 -0.3520 -1.1599 -0.1363
  995MOL0     C31230  -1.332   8.014   1.122  0.0736 -0.3893  1.0383
  995MOL0     C31231  -1.492   8.025   1.127 -0.9186  0.1136 -0.7211
  995MOL0     O31232  -1.526   8.031   1.267  0.2173  0.3619  0.3380
  995MOL0     C31233  -1.659   7.992   1.315 -0.2404 -0.5414  1.6149
  995MOL0     C31234  -1.685   7.989   1.453 -0.8638  0.0622 -0.9411
  995MOL0     C31235  -1.812   7.963   1.499  0.0390  0.1514 -0.7079
  995MOL0     C31236  -1.911   7.903   1.415  0.8247 -0.6722  0.4859
  995MOL0     C31237  -2.043   7.871   1.469  0.1280  0.8831  0.8429
  995MOL0     O31238  -2.125   7.796   1.376 -0.9309  0.5923  0.0394
  995MOL0     C31239  -2.239   7.752   1.422  0.6466  1.1928  0.1652
  995MOL0     C31240  -2.349   7.835   1.439 -0.9143  0.0645  0.3411
  995MOL0     C31241  -2.469   7.793   1.479 -0.6972 -0.1667  0.1002
  995MOL0     C31242  -2.492   7.657   1.514  0.2701 -0.4854  1.3771
  995MOL0     O31243  -2.617   7.601   1.541  0.4093 -0.2191 -0.4625
  995MOL0     C31244  -2.722   7.670   1.617 -0.3502  0.3997 -0.4101
  995MOL0     C31245  -2.804   7.566   1.704 -0.1959 -0.0597 -0.3974
  995MOL0     C31246  -2.894   7.473   1.618 -0.1229  0.5296 -0.5200
  995MOL0     C31247  -2.980   7.404   1.720 -0.0021 -0.5848 -0.1989
  995MOL0     C31248  -3.093   7.313   1.665 -0.1715 -0.1121 -0.0690
  995MOL0     C31249  -3.200   7.396   1.603  0.4014  0.7700 -0.5124
  995MOL0     C31250  -3.300   7.459   1.701  0.3965 -0.8343 -0.4035
  995MOL0     C31251  -3.406   7.537   1.631  0.5604 -0.5160 -0.2444
  995MOL0    Cl31252  -3.540   7.601   1.731  0.6522  0.0807  0.2364
  995MOL0     C31253  -2.380   7.566   1.504  1.3781  0.0714 -0.0439
  995MOL0     C31254  -2.256   7.615   1.464 -0.5185 -1.0501  1.1777
  995MOL0     O31255  -2.081   7.912   1.575  0.2615 -0.4093  0.3613
  995MOL0     C31256  -1.878   7.892   1.274 -0.7402 -0.0737  0.3292
  995MOL0     C31257  -1.762   7.951   1.224 -0.0429 -0.4407 -0.2694
  995MOL0     N31258  -1.121   8.089   0.900  0.2984 -0.1440 -0.7029
  995MOL0     N31259  -1.029   8.049   0.814  0.6335 -0.6807 -0.5580
  995MOL0     C31260   0.133   8.312   0.205  0.3419 -0.6319 -0.1726
  995MOL0     C31261   0.269   8.348   0.194  0.3565 -0.1830  0.5510
  995MOL0     C31262   0.715   8.363   0.302 -0.2175 -0.4711 -0.5565
  995MOL0     C31263   0.830   8.278   0.326 -1.0137 -0.4673  0.1757
  995MOL0     C31264   0.960   8.338   0.336  0.0282  0.1601  0.0972
  995MOL0     C31265   0.978   8.479   0.311 -0.0398 -0.2867  0.7821
  995MOL0     O31266   1.096   8.541   0.320 -0.7386 -0.6481 -0.0070
  995MOL0     C31267   1.193   8.484   0.408  0.1348 -0.5174 -0.8938
  995MOL0     C31268   1.306   8.583   0.430 -0.2983 -1.0190 -0.0106
  995MOL0     C31269   1.373   8.635   0.306  0.0107 -0.2861  0.6412
  995MOL0     C31270   1.510   8.697   0.329 -0.1143 -0.5443 -0.8888
  995MOL0     C31271   1.573   8.763   0.204  0.0198  0.0956 -0.3806
  995MOL0     C31272   1.628   8.822   0.105  0.7774  0.2380  0.5483
  995MOL0     C31273   0.865   8.567   0.289 -0.1786 -0.3553  0.9501
  995MOL0     C31274   0.735   8.504   0.274 -0.4734  0.3749 -0.1040
  995MOL0     H31275   0.349   8.286   0.520 -0.0510  2.4178  0.8003
  995MOL0     H31276   0.117   8.228   0.532 -0.2479 -1.2177 -1.0491
  995MOL0     H31277  -0.074   8.268   0.542 -0.9655 -0.1822  0.1598
  995MOL0     H31278  -0.172   8.141   0.481  3.9468 -2.5209 -2.1655
  995MOL0     H31279  -0.314   8.334   0.354  1.7593  1.1555 -0.7442
  995MOL0     H31280  -0.218   8.444   0.448  1.4624 -0.2808  1.5104
  995MOL0     H31281  -0.407   8.406   0.578  0.2739  1.3628  0.1023
  995MOL0     H31282  -0.267   8.321   0.644  0.9871 -0.4148 -0.1141
  995MOL0     H31283  -0.501   8.205   0.471  2.0050 -0.8576 -2.1943
  995MOL0     H31284  -0.376   8.103   0.541  1.0597  1.3067 -1.1726
  995MOL0     H31285  -0.468   8.289   0.742 -0.1663  0.5333 -2.6591
  995MOL0     H31286  -0.464   8.105   0.749 -2.9217 -1.8563 -0.6884
  995MOL0     H31287  -0.672   8.127   0.580  0.4474 -2.9050  2.1045
  995MOL0     H31288  -0.671   8.304   0.611  2.3479 -1.1890 -2.3711
  995MOL0     H31289  -0.697   8.258   0.856  2.4611  0.7850 -0.7339
  995MOL0     H31290  -0.824   8.247   0.742 -0.5574  0.9900  2.8621
  995MOL0     H31291  -0.698   8.002   0.856 -1.5075 -0.9454  0.5398
  995MOL0     H31292  -0.802   8.007   0.705 -1.1243 -0.7033  0.1086
  995MOL0     H31293  -0.831   8.082   1.073  0.7547 -1.3941 -2.2476
  995MOL0     H31294  -1.093   8.247   1.176 -1.1337  0.8203 -0.3984
  995MOL0     H31295  -1.106   8.071   1.221 -0.4357 -0.9841 -0.1137
  995MOL0     H31296  -1.295   8.222   1.046 -0.9097 -0.1625  0.9024
  995MOL0     H31297  -1.306   8.206   1.213 -0.2137 -0.3586 -0.5594
  995MOL0     H31298  -1.308   7.956   1.032  0.1544 -0.8523  1.3494
  995MOL0     H31299  -1.297   7.949   1.203  0.4176 -2.1191 -0.4357
  995MOL0     H31300  -1.531   7.951   1.056  2.5448 -0.4802 -2.2160
  995MOL0     H31301  -1.528   8.121   1.089 -0.3881 -0.3931 -2.6089
  995MOL0     H31302  -1.601   8.024   1.512  0.5719  0.5525 -3.1728
  995MOL0     H31303  -1.828   7.968   1.606 -0.0906  2.3612 -0.7981
  995MOL0     H31304  -2.325   7.941   1.426  1.7153 -0.1646  2.5798
  995MOL0     H31305  -2.549   7.867   1.478 -0.6382  0.0785 -4.0786
  995MOL0     H31306  -2.786   7.728   1.550  0.2240 -1.5549 -2.7921
  995MOL0     H31307  -2.671   7.741   1.683  1.9629  1.3244 -3.0089
  995MOL0     H31308  -2.869   7.626   1.768 -3.5050  0.9059 -4.2899
  995MOL0     H31309  -2.740   7.496   1.758  3.3082  0.0409 -3.9267
  995MOL0     H31310  -2.845   7.391   1.563  0.0185 -1.8563  2.8431
  995MOL0     H31311  -2.952   7.534   1.548  2.3970  1.7250 -1.6808
  995MOL0     H31312  -2.916   7.355   1.795 -3.0386 -2.1427  1.5949
  995MOL0     H31313  -3.024   7.488   1.775  0.2464 -0.8626  0.4378
  995MOL0     H31314  -3.139   7.258   1.748  0.1111  2.9256  2.2878
  995MOL0     H31315  -3.060   7.243   1.588  0.7822  1.0123 -0.7191
  995MOL0     H31316  -3.256   7.341   1.527  1.2336  1.3547 -1.5852
  995MOL0     H31317  -3.155   7.479   1.547  2.5499 -0.0283 -0.0929
  995MOL0     H31318  -3.343   7.368   1.744 -0.9289 -0.1568 -0.2653
  995MOL0     H31319  -3.251   7.515   1.782 -0.7932  1.0868 -0.9568
  995MOL0     H31320  -3.462   7.482   1.555 -1.0310 -0.6192  0.9376
  995MOL0     H31321  -3.365   7.631   1.592  1.0088 -0.5831  0.0584
  995MOL0     H31322  -2.396   7.461   1.527 -0.7746  0.0599 -1.3042
  995MOL0     H31323  -2.177   7.548   1.431 -0.8167  0.1385 -2.4136
  995MOL0     H31324  -1.950   7.850   1.204 -2.7804 -1.7240  3.2224
  995MOL0     H31325  -1.741   7.940   1.118 -2.0585  0.7806 -0.8593
  995MOL0     H31326   0.069   8.336   0.120 -1.1762  2.1149  1.5883
  995MOL0     H31327   0.303   8.385   0.098  0.5988  0.0207  0.7162
  995MOL0     H31328   0.823   8.171   0.341  1.1416 -0.4491  1.8403
  995MOL0     H31329   1.046   8.272   0.336 -1.6914 -2.3382 -2.7329
  995MOL0     H31330   1.219   8.385   0.370 -1.4976 -2.2456  2.1550
  995MOL0     H31331   1.141   8.475   0.503  1.1404 -1.0562 -0.3797
  995MOL0     H31332   1.277   8.674   0.483  1.8107  1.4967 -2.8466
  995MOL0     H31333   1.383   8.535   0.491 -1.1692  1.1670  3.0652
  995MOL0     H31334   1.309   8.717   0.273  1.3820  1.3171  1.7666
  995MOL0     H31335   1.373   8.562   0.224 -0.8608 -2.6392  2.6238
  995MOL0     H31336   1.498   8.774   0.405  0.1170 -2.0262  0.6937
  995MOL0     H31337   1.576   8.621   0.372 -0.6200  0.4788  1.8899
  995MOL0     H31338   1.683   8.870   0.027  1.9896 -2.7930 -0.6240
  995MOL0     H31339   0.874   8.672   0.259  0.5768 -0.9367 -1.0404
  995MOL0     H31340   0.649   8.565   0.249 -1.2729 -0.6644 -0.0097
  996MOL0     O31341   6.148   2.135   5.408  0.2214  0.7389 -0.3409
  996MOL0     C31342   6.253   2.177   5.462 -0.3304  0.6434  0.8104
  996MOL0     O31343   6.266   2.289   5.531  0.2830  0.3720  0.2038
  996MOL0     C31344   6.156   2.353   5.571 -0.2947 -0.5351  0.7617
  996MOL0     C31345   6.065   2.298   5.657  0.6452  0.8353  0.1248
  996MOL0     C31346   5.937   2.356   5.679  0.3020  0.2888  0.0374
  996MOL0     C31347   5.917   2.491   5.649  0.4923  0.2052 -0.8445
  996MOL0     O31348   5.803   2.562   5.686  0.3661 -0.4109 -0.1684
  996MOL0     C31349   5.780   2.541   5.830  0.5845  0.1307 -0.4104
  996MOL0     C31350   5.708   2.654   5.899  0.2544 -0.6236 -0.5125
  996MOL0     C31351   5.564   2.671   5.846 -0.9906  0.3697  0.3471
  996MOL0     C31352   5.462   2.646   5.966  1.0997 -0.3405 -0.2807
  996MOL0     C31353   5.316   2.671   5.918 -0.4356 -0.6790  0.7463
  996MOL0     C31354   5.228   2.697   6.040  0.1128  0.2344 -0.7237
  996MOL0     C31355   5.081   2.728   6.030  0.4666 -0.7610 -0.3704
  996MOL0     C31356   5.019   2.660   5.905 -0.0986 -0.2714 -0.1309
  996MOL0     N31357   4.872   2.661   5.908  0.5558 -0.2298 -0.3566
  996MOL0     C31358   4.783   2.772   5.925  0.7744  0.3939 -0.4546
  996MOL0     C31359   4.661   2.741   5.881  0.3111  0.0452  0.1155
  996MOL0     C31360   4.563   2.849   5.848  0.4205  0.9735 -0.0333
  996MOL0     C31361   4.431   2.828   5.933  0.3442 -0.4613  0.0270
  996MOL0     C31362   4.325   2.904   5.870 -0.0655  0.2465  0.5560
  996MOL0     C31363   4.201   2.892   5.951  1.1849 -0.9365  0.5652
  996MOL0     O31364   4.112   2.792   5.905 -0.6068  0.2393 -0.0794
  996MOL0     C31365   3.985   2.781   5.962 -0.2065  0.0825 -0.0549
  996MOL0     C31366   3.931   2.866   6.064  0.3698  0.3247 -0.1664
  996MOL0     C31367   3.805   2.861   6.113  0.4716  0.3925 -0.4759
  996MOL0     C31368   3.714   2.768   6.061  0.3684 -0.5914  1.0735
  996MOL0     C31369   3.572   2.768   6.108 -1.1115 -0.1931  0.3743
  996MOL0     O31370   3.527   2.856   6.208 -0.0283 -0.4912  0.1827
  996MOL0     C31371   3.397   2.891   6.230 -0.3575 -0.2578  0.8116
  996MOL0     C31372   3.372   2.979   6.343  0.2189 -0.5006 -0.1106
  996MOL0     C31373   3.238   3.015   6.376 -0.2445  0.7977 -0.4815
  996MOL0     C31374   3.134   2.989   6.290  0.0144  0.2799 -0.5521
  996MOL0     O31375   3.005   3.040   6.300 -0.1276  0.1312 -0.2158
  996MOL0     C31376   2.951   3.136   6.398 -0.2267  0.8270 -0.7007
  996MOL0     C31377   2.907   3.058   6.519 -0.2451  0.4293  0.2978
  996MOL0     C31378   2.777   2.988   6.483  0.6451  0.0027  0.1129
  996MOL0     C31379   2.744   2.896   6.599 -0.5999 -0.6545  0.3965
  996MOL0     C31380   2.621   2.806   6.575  0.3762 -0.3148  0.0799
  996MOL0     C31381   2.494   2.883   6.588  0.4958 -1.0641  0.0175
  996MOL0     C31382   2.380   2.797   6.533  0.5240  0.7772 -0.0933
  996MOL0     C31383   2.246   2.867   6.540  0.0941  0.3630  0.1865
  996MOL0    Cl31384   2.182   2.910   6.702 -0.4471  0.1102  0.0610
  996MOL0     C31385   3.153   2.911   6.176 -0.1844  0.7189  0.3743
  996MOL0     C31386   3.290   2.873   6.143  0.5391  0.3564 -0.4036
  996MOL0     O31387   3.495   2.704   6.037  0.0137 -0.3009  0.3755
  996MOL0     C31388   3.758   2.678   5.956  0.3112 -0.6055 -0.5291
  996MOL0     C31389   3.897   2.684   5.919  0.2008  0.4510  0.2089
  996MOL0     N31390   4.668   2.604   5.840  1.2452 -0.3789  0.2755
  996MOL0     N31391   4.784   2.560   5.871 -0.5817 -0.2912 -0.1426
  996MOL0     C31392   6.020   2.550   5.582  0.9911  0.3672 -0.3167
  996MOL0     C31393   6.135   2.483   5.537  0.8844 -1.2548 -0.2453
  996MOL0     C31394   6.376   2.094   5.436 -0.3402  0.0432 -0.0233
  996MOL0     C31395   6.366   1.986   5.342 -0.3458 -0.6538 -0.9959
  996MOL0     C31396   6.477   1.907   5.310 -0.8620  0.3271 -0.1693
  996MOL0     C31397   6.602   1.933   5.363 -0.3164 -0.5973 -0.4923
  996MOL0     O31398   6.708   1.853   5.333  0.6105 -0.1544  0.2138
  996MOL0     C31399   6.845   1.879   5.377 -0.4285 -0.0174  0.8544
  996MOL0     C31400   6.932   1.767   5.319 -0.1696 -0.2536  0.2949
  996MOL0     C31401   6.880   1.633   5.346 -0.2127  1.0462  0.3471
  996MOL0     C31402   6.983   1.529   5.298 -0.1441 -0.0265 -0.6182
  996MOL0     C31403   7.088   1.547   5.395  0.0379 -0.9785  0.5341
  996MOL0     C31404   7.181   1.554   5.469 -0.2846 -0.3536  1.3129
  996MOL0     C31405   6.615   2.037   5.460  0.3736 -0.1191 -0.5517
  996MOL0     C31406   6.503   2.114   5.499 -0.7900  0.6570  0.0096
  996MOL0     H31407   6.087   2.204   5.706  2.9933 -0.3848 -2.9042
  996MOL0     H31408   5.859   2.295   5.724  0.0227  0.1732 -0.5939
  996MOL0     H31409   5.877   2.530   5.879  0.1066 -3.8593  0.0228
  996MOL0     H31410   5.715   2.455   5.850  0.6756  0.7110  2.8879
  996MOL0     H31411   5.762   2.747   5.878 -3.7257  2.4678  1.5040
  996MOL0     H31412   5.708   2.635   6.007  0.8744 -0.5527 -0.4933
  996MOL0     H31413   5.544   2.598   5.767 -0.6159  0.2416  0.3663
  996MOL0     H31414   5.556   2.770   5.801  0.1419  1.8035  3.0774
  996MOL0     H31415   5.471   2.541   5.995  1.6747  0.0299  0.9494
  996MOL0     H31416   5.474   2.718   6.047 -0.2907 -0.2382 -0.1443
  996MOL0     H31417   5.286   2.582   5.863  0.6368 -1.6321  1.6475
  996MOL0     H31418   5.305   2.756   5.851 -1.6544 -0.7133  0.8863
  996MOL0     H31419   5.281   2.767   6.106  1.1569  0.4844 -1.7744
  996MOL0     H31420   5.227   2.602   6.093  0.2078 -0.3033 -1.6681
  996MOL0     H31421   5.027   2.710   6.123  3.6512 -0.0883  1.7559
  996MOL0     H31422   5.082   2.837   6.020 -0.7242 -0.8241 -1.4096
  996MOL0     H31423   5.038   2.552   5.907 -1.0848 -0.4402  1.6340
  996MOL0     H31424   5.066   2.701   5.815  2.8646 -5.7808 -1.5391
  996MOL0     H31425   4.813   2.873   5.951 -1.6074  1.2154 -0.6583
  996MOL0     H31426   4.543   2.843   5.741 -2.1070  0.1897  0.4088
  996MOL0     H31427   4.612   2.945   5.868  1.1496  0.5410  0.3406
  996MOL0     H31428   4.435   2.862   6.037 -2.4164  2.4414 -0.6464
  996MOL0     H31429   4.410   2.721   5.927 -0.4642 -0.2823 -0.4274
  996MOL0     H31430   4.355   3.008   5.854  5.8001 -1.3186 -0.7964
  996MOL0     H31431   4.318   2.875   5.765  3.0373 -1.1186  0.6232
  996MOL0     H31432   4.152   2.989   5.943  1.6946 -0.4788  2.5419
  996MOL0     H31433   4.219   2.871   6.057 -2.8419 -3.2805  1.0174
  996MOL0     H31434   3.999   2.944   6.098 -0.0752  0.2235  1.0134
  996MOL0     H31435   3.764   2.917   6.196 -3.0488 -1.7562 -0.5765
  996MOL0     H31436   3.447   3.004   6.417 -0.7204  0.4328  0.5482
  996MOL0     H31437   3.225   3.078   6.464 -0.9536  0.5393 -0.3987
  996MOL0     H31438   2.869   3.200   6.363 -3.2617 -0.1314  3.8890
  996MOL0     H31439   3.041   3.192   6.425  0.1078 -0.1195  0.2444
  996MOL0     H31440   2.897   3.128   6.602 -2.9473  0.8773 -0.3286
  996MOL0     H31441   2.981   2.980   6.543 -0.3324  0.2691  0.0447
  996MOL0     H31442   2.784   2.933   6.389  0.7467  0.0280  0.1062
  996MOL0     H31443   2.698   3.064   6.477  1.3751  0.6891 -1.4943
  996MOL0     H31444   2.829   2.833   6.626  0.3796  0.3152 -0.3497
  996MOL0     H31445   2.727   2.960   6.686 -2.2257  0.0762 -0.4080
  996MOL0     H31446   2.610   2.733   6.656 -3.0242  2.4930  2.4713
  996MOL0     H31447   2.627   2.754   6.479  0.3908  0.6409 -0.4574
  996MOL0     H31448   2.495   2.979   6.535  0.8786 -0.6631  0.7315
  996MOL0     H31449   2.472   2.896   6.695 -1.3154  2.0679 -0.6105
  996MOL0     H31450   2.411   2.767   6.433  0.5296 -1.9466  0.6452
  996MOL0     H31451   2.361   2.710   6.596 -0.2272  1.7925  1.1234
  996MOL0     H31452   2.173   2.806   6.487 -0.7044  1.2292  0.2544
  996MOL0     H31453   2.245   2.959   6.480 -4.3651 -0.3962 -1.2945
  996MOL0     H31454   3.074   2.886   6.107 -1.9386  4.3226  0.8722
  996MOL0     H31455   3.289   2.807   6.057  0.5302 -0.5818  0.2897
  996MOL0     H31456   3.687   2.609   5.911  1.1388 -4.5999  3.6170
  996MOL0     H31457   3.916   2.615   5.838  0.6811  0.0073  0.6952
  996MOL0     H31458   5.995   2.655   5.573 -0.6059  0.2491  1.8231
  996MOL0     H31459   6.201   2.547   5.478 -1.2218  1.8969  0.5970
  996MOL0     H31460   6.272   1.950   5.302 -1.6445 -1.0979  2.1748
  996MOL0     H31461   6.465   1.825   5.239 -3.5836 -0.2128  0.8089
  996MOL0     H31462   6.853   1.875   5.486  1.8963 -0.9960  0.7020
  996MOL0     H31463   6.882   1.973   5.336 -1.6423 -1.4205 -4.1035
  996MOL0     H31464   6.959   1.793   5.217 -0.2895 -1.4499 -0.0538
  996MOL0     H31465   7.029   1.793   5.362 -0.2557  1.3280 -0.4030
  996MOL0     H31466   6.783   1.623   5.296 -1.4886  1.9295  2.5071
  996MOL0     H31467   6.857   1.629   5.453 -0.1677  5.2667  0.6969
  996MOL0     H31468   6.944   1.427   5.296  1.1354 -0.5437 -0.4086
  996MOL0     H31469   7.021   1.527   5.195  3.3506 -0.0856  0.5386
  996MOL0     H31470   7.260   1.564   5.539 -2.0643  2.1989  3.1000
  996MOL0     H31471   6.709   2.061   5.509 -0.1838  0.5468  0.2307
  996MOL0     H31472   6.519   2.187   5.578  0.9902 -2.3783  2.6780
  997MOL0     O31473   9.870   2.864   3.135 -0.8594  0.1000  0.3276
  997MOL0     C31474   9.927   2.955   3.199  0.4923  0.0485  0.1089
  997MOL0     O31475   9.898   3.092   3.193  0.1840 -0.6420  0.2128
  997MOL0     C31476   9.778   3.131   3.136  0.2978  0.0439 -0.1051
  997MOL0     C31477   9.790   3.227   3.036 -0.0025 -0.5775 -0.3946
  997MOL0     C31478   9.670   3.286   2.971  0.2730 -0.0572 -0.3840
  997MOL0     C31479   9.541   3.249   3.018  0.0659 -0.0395 -0.6474
  997MOL0     O31480   9.427   3.294   2.960 -0.2468  0.1308  0.4200
  997MOL0     C31481   9.423   3.260   2.814 -0.0087 -0.4228 -0.6575
  997MOL0     C31482   9.285   3.301   2.759  0.8442  0.4634  0.4676
  997MOL0     C31483   9.196   3.186   2.809  0.2033  0.2226 -0.5929
  997MOL0     C31484   9.053   3.245   2.810 -1.0981 -0.0907  1.2543
  997MOL0     C31485   9.011   3.339   2.930  0.0271  0.8647 -0.1326
  997MOL0     C31486   8.863   3.379   2.924 -0.4570 -0.5625 -0.4002
  997MOL0     C31487   8.770   3.279   2.989 -0.2722  0.1450  0.6101
  997MOL0     C31488   8.621   3.309   2.965  0.0218 -0.4254  0.2747
  997MOL0     N31489   8.567   3.274   2.836 -0.0520  0.6377  0.2721
  997MOL0     C31490   8.549   3.372   2.736  0.7979 -0.1440 -0.3215
  997MOL0     C31491   8.490   3.299   2.645 -0.5170  0.3355  0.9684
  997MOL0     C31492   8.449   3.358   2.518 -0.3332  0.5772 -0.1469
  997MOL0     C31493   8.553   3.349   2.397  0.6790  0.0630  0.8311
  997MOL0     C31494   8.596   3.207   2.349 -0.1872 -0.0241 -0.9167
  997MOL0     C31495   8.476   3.144   2.275 -0.7754 -0.1119  0.3442
  997MOL0     O31496   8.509   3.061   2.171  0.5342  0.1288  0.2668
  997MOL0     C31497   8.531   2.932   2.210 -0.6862 -1.1425  0.3271
  997MOL0     C31498   8.623   2.895   2.301 -0.8809 -0.1588 -0.7350
  997MOL0     C31499   8.640   2.765   2.334 -0.1472  0.9458  0.1237
  997MOL0     C31500   8.562   2.660   2.274  1.0416 -0.1133 -0.2439
  997MOL0     C31501   8.572   2.515   2.306  0.4091 -0.1180 -0.1143
  997MOL0     O31502   8.652   2.482   2.414 -0.3934  0.5095 -0.3975
  997MOL0     C31503   8.655   2.370   2.489 -1.4395  0.8031 -0.2322
  997MOL0     C31504   8.573   2.257   2.472  0.1018 -0.3793  1.0273
  997MOL0     C31505   8.587   2.145   2.551  0.3497 -0.3136  0.2049
  997MOL0     C31506   8.696   2.141   2.644  0.4871 -0.0731  0.8130
  997MOL0     O31507   8.747   2.029   2.716 -0.3344 -0.4459  0.1826
  997MOL0     C31508   8.679   1.901   2.701 -1.2615  0.6174  0.1810
  997MOL0     C31509   8.756   1.798   2.790 -0.7303 -0.2497 -0.2045
  997MOL0     C31510   8.803   1.854   2.924  0.3224 -0.0988  0.6477
  997MOL0     C31511   8.692   1.888   3.014  0.7964 -0.1194 -0.0235
  997MOL0     C31512   8.748   1.939   3.152 -0.2426 -0.4626  0.2617
  997MOL0     C31513   8.776   2.093   3.143  0.2508  0.5475  0.8084
  997MOL0     C31514   8.784   2.164   3.279 -0.4912  0.1611 -0.4537
  997MOL0     C31515   8.868   2.295   3.265  0.7368 -0.1071 -0.9984
  997MOL0    Cl31516   8.810   2.406   3.139 -0.0451  0.0470 -0.3298
  997MOL0     C31517   8.776   2.255   2.659  0.3495 -0.3300  0.1272
  997MOL0     C31518   8.754   2.371   2.585  0.2800  0.1364  0.2402
  997MOL0     O31519   8.517   2.434   2.232  0.5170  0.1344 -1.2407
  997MOL0     C31520   8.462   2.703   2.177 -0.2641  0.2197  0.0314
  997MOL0     C31521   8.449   2.839   2.146  0.8623 -0.4007 -0.4589
  997MOL0     N31522   8.480   3.161   2.674 -0.0379 -0.0919 -0.8114
  997MOL0     N31523   8.529   3.151   2.796  0.2375  0.7412  0.1211
  997MOL0     C31524   9.530   3.143   3.111 -0.2314 -0.3601  0.5169
  997MOL0     C31525   9.646   3.088   3.173  0.4228  0.0667  0.7287
  997MOL0     C31526  10.037   2.912   3.294  0.4815 -0.3911  0.0039
  997MOL0     C31527  10.091   3.002   3.385  0.6085 -0.9610 -0.7773
  997MOL0     C31528  10.192   2.959   3.469  0.6178 -0.2150 -0.7996
  997MOL0     C31529  10.241   2.827   3.451 -0.0388 -0.6660 -0.5966
  997MOL0     O31530  10.334   2.791   3.541 -0.3313  0.1041 -0.0879
  997MOL0     C31531  10.435   2.700   3.496 -0.2046 -0.3977 -0.0353
  997MOL0     C31532  10.545   2.722   3.602  1.3221 -0.3113 -0.1908
  997MOL0     C31533  10.579   2.877   3.606 -0.3501  0.0306  0.0348
  997MOL0     C31534  10.716   2.922   3.684  0.7003 -1.1120 -0.3557
  997MOL0     C31535  10.687   3.047   3.750 -0.2584  0.1897 -0.1160
  997MOL0     C31536  10.654   3.132   3.827 -0.3715  0.7013 -0.4230
  997MOL0     C31537  10.186   2.743   3.367 -0.2172  0.2476  0.0079
  997MOL0     C31538  10.078   2.774   3.284  0.2734 -0.0250 -0.4672
  997MOL0     H31539   9.883   3.262   2.993  0.0617  1.6199  1.3393
  997MOL0     H31540   9.680   3.346   2.881  0.0618  0.2696 -0.1915
  997MOL0     H31541   9.445   3.157   2.787  1.6569 -0.1915 -0.2913
  997MOL0     H31542   9.505   3.314   2.765 -1.5712  0.6507 -2.2094
  997MOL0     H31543   9.279   3.298   2.650 -2.7658  1.6847  0.5245
  997MOL0     H31544   9.263   3.401   2.796  2.2799  1.0735 -0.2369
  997MOL0     H31545   9.217   3.150   2.910 -0.2027  1.0503 -0.2081
  997MOL0     H31546   9.210   3.111   2.731  0.0115 -1.0731  0.5836
  997MOL0     H31547   9.049   3.315   2.726 -2.2492 -0.3995  1.0438
  997MOL0     H31548   8.977   3.167   2.813  0.3307 -1.5376  1.3149
  997MOL0     H31549   9.074   3.428   2.938 -0.1795  1.5005 -3.8733
  997MOL0     H31550   9.020   3.277   3.020  0.8118 -0.3653 -1.0318
  997MOL0     H31551   8.836   3.406   2.822  2.8128  2.8785 -0.5779
  997MOL0     H31552   8.845   3.460   2.996  0.1516 -4.0314  4.1475
  997MOL0     H31553   8.780   3.179   2.946 -1.2951  0.3780 -0.2097
  997MOL0     H31554   8.786   3.272   3.097 -4.7628  1.7058  1.5849
  997MOL0     H31555   8.590   3.414   2.975 -0.8015 -0.6373 -0.0099
  997MOL0     H31556   8.560   3.263   3.043  1.3885 -2.1838  0.3512
  997MOL0     H31557   8.566   3.479   2.737 -0.9120  0.2005  2.3098
  997MOL0     H31558   8.423   3.463   2.530 -1.5752  0.5761 -2.2175
  997MOL0     H31559   8.359   3.305   2.485  0.2492 -0.4683 -0.1106
  997MOL0     H31560   8.642   3.409   2.416  0.6553  0.0978  0.8329
  997MOL0     H31561   8.497   3.400   2.318  0.0669  2.3260  2.6120
  997MOL0     H31562   8.683   3.201   2.284 -0.6995 -4.4101 -1.5536
  997MOL0     H31563   8.623   3.143   2.434 -0.6596  1.5148  0.4483
  997MOL0     H31564   8.411   3.222   2.235  0.2310  2.6835  3.6599
  997MOL0     H31565   8.404   3.101   2.345 -2.7423  1.7957 -0.3946
  997MOL0     H31566   8.692   2.966   2.347  0.7415 -0.9345 -1.8831
  997MOL0     H31567   8.717   2.750   2.409  2.4628 -0.1433 -2.5516
  997MOL0     H31568   8.497   2.257   2.395 -0.4720  1.0641  1.5642
  997MOL0     H31569   8.534   2.051   2.537  1.5722 -0.8798 -0.8512
  997MOL0     H31570   8.685   1.864   2.599  2.2848  1.2314  0.0255
  997MOL0     H31571   8.578   1.902   2.744  0.2357 -0.0027  4.1563
  997MOL0     H31572   8.850   1.765   2.747 -0.3501  1.2138 -0.5549
  997MOL0     H31573   8.692   1.711   2.806 -0.0386 -0.7545 -0.1618
  997MOL0     H31574   8.867   1.938   2.896  0.4618 -0.3211  0.2858
  997MOL0     H31575   8.856   1.769   2.968 -0.7029  0.0171  2.1817
  997MOL0     H31576   8.619   1.960   2.974 -0.1333 -0.7281  0.5271
  997MOL0     H31577   8.641   1.797   3.046  1.7950 -0.4185  0.7604
  997MOL0     H31578   8.842   1.893   3.183  2.1335  2.3388 -2.1247
  997MOL0     H31579   8.673   1.914   3.228 -1.7095 -2.1463 -1.6279
  997MOL0     H31580   8.698   2.150   3.091  2.2388  2.4582 -0.2662
  997MOL0     H31581   8.871   2.117   3.095  1.7396 -1.3667  2.6159
  997MOL0     H31582   8.686   2.194   3.316  0.6484 -0.8743  3.9912
  997MOL0     H31583   8.807   2.096   3.361 -3.5467 -2.6402 -1.7019
  997MOL0     H31584   8.970   2.274   3.233  1.5499  1.9290  0.0778
  997MOL0     H31585   8.859   2.344   3.362 -0.1220 -0.8535 -0.6885
  997MOL0     H31586   8.856   2.269   2.731  0.3968 -3.2201  0.7520
  997MOL0     H31587   8.809   2.464   2.597 -1.9614  1.4230  1.1551
  997MOL0     H31588   8.382   2.639   2.143  0.4879  0.0711 -1.5385
  997MOL0     H31589   8.363   2.865   2.084  1.0508  1.9217  0.1716
  997MOL0     H31590   9.426   3.119   3.131  0.0524 -0.1910  2.3917
  997MOL0     H31591   9.628   3.015   3.250 -0.2542  0.4709  0.9597
  997MOL0     H31592  10.057   3.105   3.395 -2.4634 -1.7317 -1.9832
  997MOL0     H31593  10.240   3.024   3.541  1.6634 -1.1303 -0.6511
  997MOL0     H31594  10.471   2.731   3.398  2.0745 -0.2613  0.7813
  997MOL0     H31595  10.397   2.599   3.482 -0.4230 -0.2825 -0.2668
  997MOL0     H31596  10.507   2.693   3.701  2.9825 -1.6342  0.1183
  997MOL0     H31597  10.633   2.659   3.585  0.3759 -1.7565  0.0338
  997MOL0     H31598  10.495   2.935   3.645 -0.4005 -0.9548  1.4740
  997MOL0     H31599  10.601   2.894   3.500 -0.6784 -1.1705 -0.2455
  997MOL0     H31600  10.751   2.853   3.761 -0.4546 -0.1889  1.0455
  997MOL0     H31601  10.791   2.940   3.606 -2.0342  2.8821 -2.4477
  997MOL0     H31602  10.612   3.209   3.889  0.1149  0.7808 -0.1924
  997MOL0     H31603  10.222   2.640   3.360 -0.1465  0.3287 -1.0401
  997MOL0     H31604  10.037   2.700   3.216 -0.4619  2.7987 -3.3352
  998MOL0     O31605   8.906  11.157   6.123 -0.6169  0.1510  1.4891
  998MOL0     C31606   8.963  11.112   6.017 -0.1339 -0.5390 -0.2785
  998MOL0     O31607   8.902  11.087   5.891  0.2102 -0.9151 -0.0063
  998MOL0     C31608   8.769  11.115   5.879 -0.4624 -0.3511 -0.1567
  998MOL0     C31609   8.685  11.039   5.958 -1.2105  0.1216 -0.4034
  998MOL0     C31610   8.548  11.045   5.924 -0.1709 -0.8588 -1.5384
  998MOL0     C31611   8.501  11.122   5.814  0.5017  0.2582 -0.0331
  998MOL0     O31612   8.363  11.124   5.807 -0.0578 -0.1434 -0.7214
  998MOL0     C31613   8.313  11.216   5.707 -0.4121 -0.0160  0.9978
  998MOL0     C31614   8.166  11.224   5.698  0.8870 -0.1384  0.1410
  998MOL0     C31615   8.091  11.093   5.712  0.4037  0.3321 -0.9753
  998MOL0     C31616   7.943  11.108   5.697  0.3401 -0.4452 -0.1308
  998MOL0     C31617   7.868  10.974   5.694 -0.6149 -0.1468  0.1550
  998MOL0     C31618   7.712  11.002   5.693 -0.7255  0.0026  0.3246
  998MOL0     C31619   7.613  10.886   5.705 -0.0332 -0.4440 -0.5189
  998MOL0     C31620   7.480  10.946   5.755 -0.2551  0.2398 -0.4013
  998MOL0     N31621   7.376  10.851   5.738  0.5215 -0.4053  0.0899
  998MOL0     C31622   7.267  10.854   5.658  0.8005  0.0332  0.9720
  998MOL0     C31623   7.187  10.757   5.704  0.2731 -0.4552 -0.7251
  998MOL0     C31624   7.067  10.708   5.636 -1.3892  0.2807 -0.3029
  998MOL0     C31625   6.952  10.816   5.618 -0.3430 -0.1043  0.1556
  998MOL0     C31626   6.928  10.877   5.753  0.2467 -0.6548 -0.3978
  998MOL0     C31627   6.792  10.949   5.763 -0.8682 -0.7298  0.4407
  998MOL0     O31628   6.773  10.988   5.900  0.0359  0.3405 -0.7147
  998MOL0     C31629   6.651  11.023   5.952  0.1982 -0.2721 -0.2709
  998MOL0     C31630   6.648  11.078   6.079  0.0791  0.0870 -0.2907
  998MOL0     C31631   6.530  11.097   6.152  0.4042  0.1677 -0.1885
  998MOL0     C31632   6.408  11.059   6.092  0.6198 -0.8320 -1.0331
  998MOL0     C31633   6.279  11.057   6.167 -0.0062 -0.0366 -1.7693
  998MOL0     O31634   6.165  11.008   6.108 -0.0618  0.3517 -0.6761
  998MOL0     C31635   6.049  11.012   6.172  0.3284 -0.1215 -0.0164
  998MOL0     C31636   6.027  10.981   6.309  0.1751 -0.0945  0.9195
  998MOL0     C31637   5.897  10.997   6.354 -0.2577 -0.6468  0.1688
  998MOL0     C31638   5.785  11.034   6.272 -0.1814 -0.6072 -1.2443
  998MOL0     O31639   5.657  11.040   6.324  0.7320 -0.4294  0.4439
  998MOL0     C31640   5.545  11.029   6.237  0.9821 -0.1291  0.3373
  998MOL0     C31641   5.489  11.168   6.200  0.4744 -0.3083  0.0705
  998MOL0     C31642   5.375  11.168   6.093 -0.4312 -0.5675  0.5960
  998MOL0     C31643   5.349  11.316   6.056 -1.1359 -0.0349 -0.4198
  998MOL0     C31644   5.309  11.342   5.912  0.0047  0.4805  0.4845
  998MOL0     C31645   5.185  11.252   5.894  0.4966 -0.1657  1.1029
  998MOL0     C31646   5.112  11.297   5.761  0.2942  0.2618  0.2609
  998MOL0     C31647   4.986  11.222   5.722 -0.0153  0.2832  0.1304
  998MOL0    Cl31648   4.971  11.267   5.551  0.0793 -0.3613 -0.2887
  998MOL0     C31649   5.814  11.070   6.147 -0.0610  1.1151  0.5893
  998MOL0     C31650   5.940  11.051   6.102  0.6363  0.4189  1.4403
  998MOL0     O31651   6.288  11.112   6.276  0.1671 -0.3619 -0.3596
  998MOL0     C31652   6.408  10.990   5.969 -0.3353 -0.8301 -0.6153
  998MOL0     C31653   6.529  10.974   5.895 -0.0709 -0.8718  0.6221
  998MOL0     N31654   7.264  10.689   5.801  0.8709 -0.3012 -0.1726
  998MOL0     N31655   7.374  10.742   5.818  0.1193 -0.5309  0.3178
  998MOL0     C31656   8.590  11.193   5.736  0.5338  0.2378  0.6071
  998MOL0     C31657   8.725  11.194   5.766  0.2659  1.5453 -1.1104
  998MOL0     C31658   9.103  11.068   6.027 -0.7602  0.1709  0.0874
  998MOL0     C31659   9.168  11.004   5.921  1.3928  0.6534 -0.2068
  998MOL0     C31660   9.290  10.937   5.934 -1.3532  0.4993  1.4288
  998MOL0     C31661   9.360  10.947   6.059 -0.1707  0.4917 -0.8108
  998MOL0     O31662   9.484  10.889   6.057 -0.4228  0.7358 -0.3977
  998MOL0     C31663   9.575  10.906   6.164 -1.0126 -0.3278  0.2872
  998MOL0     C31664   9.668  11.032   6.150  0.0634  0.5759 -0.5899
  998MOL0     C31665   9.732  11.058   6.010 -0.3442 -0.0338 -0.7656
  998MOL0     C31666   9.818  10.942   5.950  0.1019  0.1011 -0.3953
  998MOL0     C31667   9.940  10.901   6.024  0.3193  0.2750  0.6792
  998MOL0     C31668  10.039  10.851   6.067 -0.7669 -0.6176 -0.2930
  998MOL0     C31669   9.298  11.024   6.161  0.5236  0.0686 -0.1484
  998MOL0     C31670   9.177  11.080   6.149  0.3557 -0.2551  0.2465
  998MOL0     H31671   8.715  10.961   6.027 -3.1239 -0.0230  0.3149
  998MOL0     H31672   8.491  10.970   5.978  1.0291 -0.6336  0.1220
  998MOL0     H31673   8.351  11.177   5.612 -2.9112 -1.1593  0.3605
  998MOL0     H31674   8.358  11.316   5.710  3.1796 -1.5175  2.4255
  998MOL0     H31675   8.136  11.250   5.596  2.4955  0.2577 -0.2637
  998MOL0     H31676   8.124  11.294   5.771  1.4273  0.8787 -0.5001
  998MOL0     H31677   8.120  11.049   5.808  1.6904  4.4730  0.7697
  998MOL0     H31678   8.127  11.020   5.639  0.6377 -1.4474  0.8212
  998MOL0     H31679   7.905  11.169   5.780  2.3134 -0.0082  0.4854
  998MOL0     H31680   7.922  11.160   5.603  0.9068  1.7375  0.8857
  998MOL0     H31681   7.899  10.929   5.789  2.0081  1.9269  0.3779
  998MOL0     H31682   7.906  10.912   5.613  1.8376 -0.6076  1.5603
  998MOL0     H31683   7.681  11.057   5.604 -0.8869  2.7286  1.9321
  998MOL0     H31684   7.696  11.066   5.781 -0.1630 -0.1632  0.5491
  998MOL0     H31685   7.604  10.831   5.611  1.3743  0.9867 -1.5589
  998MOL0     H31686   7.652  10.817   5.781  0.9095  1.0379  0.3992
  998MOL0     H31687   7.461  11.043   5.709  0.9815  0.1856 -1.0525
  998MOL0     H31688   7.478  10.970   5.862 -4.1011  1.7946 -0.6794
  998MOL0     H31689   7.245  10.904   5.565 -0.6175 -0.9865  0.7312
  998MOL0     H31690   7.035  10.631   5.707  0.5920  1.9921  2.6439
  998MOL0     H31691   7.090  10.656   5.542 -1.8792 -0.3603 -0.0776
  998MOL0     H31692   6.865  10.752   5.597 -0.1875 -0.5836  0.9221
  998MOL0     H31693   6.972  10.894   5.544  2.2543 -2.6173 -2.0372
  998MOL0     H31694   6.942  10.809   5.837  4.0376  0.1197 -0.2142
  998MOL0     H31695   7.000  10.959   5.764 -1.8814  1.8034 -3.2280
  998MOL0     H31696   6.721  10.867   5.755  0.4735 -1.9530  0.6346
  998MOL0     H31697   6.776  11.030   5.691  0.4241 -0.0031  0.9164
  998MOL0     H31698   6.744  11.119   6.110 -0.1850  1.5643 -1.2881
  998MOL0     H31699   6.526  11.144   6.250 -1.1349  1.7343 -0.9534
  998MOL0     H31700   6.103  10.932   6.368  0.0682  0.3293  1.4163
  998MOL0     H31701   5.881  10.947   6.450 -0.5491 -1.5297 -0.3278
  998MOL0     H31702   5.468  10.966   6.281 -0.2679  0.9032 -0.3153
  998MOL0     H31703   5.573  10.979   6.144  1.7699  2.7041 -1.0638
  998MOL0     H31704   5.569  11.230   6.158 -2.3703  1.6488 -2.9124
  998MOL0     H31705   5.442  11.211   6.289 -2.6602 -1.0706 -1.0955
  998MOL0     H31706   5.287  11.119   6.137 -0.5832 -0.8074  0.0335
  998MOL0     H31707   5.415  11.108   6.011 -1.1548 -1.4387  0.8664
  998MOL0     H31708   5.288  11.364   6.133  2.6363  1.0388  2.2046
  998MOL0     H31709   5.442  11.373   6.054 -0.9761 -0.2978 -0.5376
  998MOL0     H31710   5.394  11.319   5.847 -0.4635  0.6844 -0.2070
  998MOL0     H31711   5.272  11.443   5.893 -0.2921  0.2253 -0.3150
  998MOL0     H31712   5.113  11.263   5.975 -0.3388  4.4481 -0.0213
  998MOL0     H31713   5.219  11.150   5.871 -1.3553 -0.0205 -3.2696
  998MOL0     H31714   5.085  11.403   5.762 -0.0057  0.2220  2.8267
  998MOL0     H31715   5.197  11.276   5.695  2.0927  0.0326  2.5317
  998MOL0     H31716   4.895  11.258   5.771 -0.2611  2.1377 -1.5938
  998MOL0     H31717   4.994  11.114   5.739 -1.2863 -0.0394 -1.1784
  998MOL0     H31718   5.761  11.143   6.086  1.2109  0.5965 -1.1900
  998MOL0     H31719   5.958  11.074   5.997 -0.5259  1.6947  1.4940
  998MOL0     H31720   6.318  10.950   5.924 -0.4703 -0.9621 -0.2292
  998MOL0     H31721   6.517  10.916   5.804  0.4743 -2.2905  1.4196
  998MOL0     H31722   8.556  11.255   5.653 -2.2725 -3.4172 -1.2339
  998MOL0     H31723   8.790  11.245   5.696  1.7253 -0.3841 -1.2361
  998MOL0     H31724   9.116  10.998   5.825 -0.1780  1.0691  0.5816
  998MOL0     H31725   9.336  10.890   5.848 -1.1385  1.4806  1.0062
  998MOL0     H31726   9.631  10.813   6.172 -1.2420 -0.3843  1.3378
  998MOL0     H31727   9.530  10.927   6.261  1.1285  1.1582  1.0306
  998MOL0     H31728   9.603  11.118   6.170 -1.1778 -0.7019  1.1900
  998MOL0     H31729   9.747  11.040   6.225  0.3783  1.4686 -1.0022
  998MOL0     H31730   9.793  11.148   5.997 -0.3438  0.2881  1.1668
  998MOL0     H31731   9.649  11.079   5.942  0.2759  1.4174 -1.0988
  998MOL0     H31732   9.752  10.856   5.938 -1.2021  1.1326 -0.9240
  998MOL0     H31733   9.860  10.966   5.852  2.8098 -1.2792  0.3409
  998MOL0     H31734  10.121  10.800   6.114 -1.3231  2.6293  5.0341
  998MOL0     H31735   9.354  11.033   6.254  1.0929  1.9435 -0.6336
  998MOL0     H31736   9.131  11.123   6.238  1.1943  2.8385 -0.7356
  999MOL0     O31737   2.933   4.081  11.327 -0.5163  0.2284  0.3584
  999MOL0     C31738   2.934   4.187  11.369 -0.3076 -0.7952  0.1582
  999MOL0     O31739   2.828   4.272  11.373  0.3263 -0.0929 -0.0218
  999MOL0     C31740   2.697   4.216  11.365 -0.6836 -0.1826  0.3240
  999MOL0     C31741   2.625   4.176  11.477  0.4844  0.2012 -0.2956
  999MOL0     C31742   2.481   4.143  11.469 -0.9079 -0.7976  0.0618
  999MOL0     C31743   2.425   4.140  11.345  0.6828  0.6831 -1.2716
  999MOL0     O31744   2.288   4.124  11.335 -0.5891 -0.3470 -0.4299
  999MOL0     C31745   2.243   4.018  11.253 -0.2250  0.4243 -0.2344
  999MOL0     C31746   2.134   4.058  11.156  0.6293 -0.2542  0.4453
  999MOL0     C31747   2.100   3.965  11.039  0.0190  0.6675 -0.4943
  999MOL0     C31748   1.970   4.024  10.985  0.5119 -0.1044  0.0361
  999MOL0     C31749   1.940   3.976  10.844  1.0418  0.3654 -0.3179
  999MOL0     C31750   2.029   4.047  10.738 -1.3049 -0.2312 -0.9814
  999MOL0     C31751   1.966   4.014  10.600  0.0129 -0.1930  0.2597
  999MOL0     C31752   2.011   4.099  10.479  0.0128  1.0325  0.6552
  999MOL0     N31753   2.141   4.057  10.415 -0.2730  0.0159  0.3711
  999MOL0     C31754   2.190   3.934  10.386  0.0208  0.3958  0.0272
  999MOL0     C31755   2.307   3.944  10.314  0.1970 -1.1128  0.4396
  999MOL0     C31756   2.407   3.841  10.275 -0.3681  0.5439  0.0028
  999MOL0     C31757   2.417   3.797  10.135 -0.2784  0.0283  0.0268
  999MOL0     C31758   2.439   3.900  10.021 -0.2237 -0.3445  0.9172
  999MOL0     C31759   2.307   3.929   9.943  0.6984 -0.7212 -0.3656
  999MOL0     O31760   2.232   3.809   9.907 -0.2490 -0.0978  0.2064
  999MOL0     C31761   2.093   3.818   9.893 -0.7564 -0.0719  0.2521
  999MOL0     C31762   2.028   3.945   9.885  0.1819  0.1711  0.2710
  999MOL0     C31763   1.885   3.954   9.901 -0.4222 -0.2763  0.7824
  999MOL0     C31764   1.816   3.837   9.918  0.4932 -0.0746 -0.2316
  999MOL0     C31765   1.669   3.840   9.955 -0.1005 -0.5139  0.2892
  999MOL0     O31766   1.603   3.727   9.926  0.1113 -0.4860  0.8439
  999MOL0     C31767   1.471   3.708   9.958 -0.0918 -0.3257  0.4964
  999MOL0     C31768   1.445   3.592  10.028 -0.5480  0.6626 -0.9058
  999MOL0     C31769   1.319   3.540  10.040 -0.0017 -0.6374 -0.2219
  999MOL0     C31770   1.209   3.623  10.000 -0.7128 -0.2511  0.5562
  999MOL0     O31771   1.074   3.599  10.021  0.2895 -0.1263 -0.2794
  999MOL0     C31772   1.048   3.474  10.094 -0.0303  0.0821 -0.3432
  999MOL0     C31773   0.896   3.442  10.079  0.7934  0.1142  0.9711
  999MOL0     C31774   0.806   3.537  10.161 -0.2243 -0.0927  0.2206
  999MOL0     C31775   0.659   3.510  10.138  0.4152  0.0849 -0.2470
  999MOL0     C31776   0.578   3.610  10.229 -0.8971 -0.0776 -0.7043
  999MOL0     C31777   0.429   3.572  10.235 -1.0030  0.2876 -0.1515
  999MOL0     C31778   0.399   3.465  10.339  0.0828  0.4950 -0.2298
  999MOL0     C31779   0.260   3.399  10.319  0.8286  0.4054  0.4753
  999MOL0    Cl31780   0.117   3.513  10.334 -0.1494 -0.0385  0.1219
  999MOL0     C31781   1.234   3.757   9.937 -0.4814  1.8302  0.3951
  999MOL0     C31782   1.364   3.792   9.913 -0.2741 -1.0199  0.3316
  999MOL0     O31783   1.610   3.941   9.994  0.0930 -0.6469  0.3195
  999MOL0     C31784   1.881   3.709   9.910 -0.4934  0.2290 -0.1249
  999MOL0     C31785   2.020   3.703   9.906  0.1715 -0.4621 -0.6447
  999MOL0     N31786   2.329   4.078  10.301  0.3907 -0.2256 -0.2687
  999MOL0     N31787   2.232   4.141  10.361 -0.2351 -0.0101 -0.2344
  999MOL0     C31788   2.503   4.175  11.229  0.4690  0.0425  0.0610
  999MOL0     C31789   2.634   4.208  11.245 -1.1648 -0.2813  0.0332
  999MOL0     C31790   3.060   4.239  11.411 -1.4204 -0.1856  0.2915
  999MOL0     C31791   3.159   4.159  11.465 -0.2240  0.5772 -0.3592
  999MOL0     C31792   3.279   4.203  11.522 -0.2400  0.5483 -0.0867
  999MOL0     C31793   3.298   4.345  11.530  0.7156  0.1638  0.1805
  999MOL0     O31794   3.408   4.413  11.572  1.1104  0.2701 -0.1278
  999MOL0     C31795   3.539   4.348  11.573  0.1945 -0.1573 -0.5040
  999MOL0     C31796   3.587   4.336  11.424 -0.7821 -0.3780 -0.2676
  999MOL0     C31797   3.610   4.470  11.358 -0.1504 -0.3964  0.5652
  999MOL0     C31798   3.618   4.471  11.206  0.2582  0.7176 -0.2818
  999MOL0     C31799   3.726   4.382  11.156 -0.6510 -0.5155  0.5154
  999MOL0     C31800   3.825   4.310  11.139 -0.9093 -0.7881 -0.5199
  999MOL0     C31801   3.195   4.434  11.481 -0.2792  0.5467  0.5467
  999MOL0     C31802   3.084   4.375  11.416 -0.2005 -1.1980 -0.1424
  999MOL0     H31803   2.668   4.187  11.576 -0.5561  0.7357  0.1167
  999MOL0     H31804   2.424   4.130  11.560 -2.6553  2.9755 -0.2895
  999MOL0     H31805   2.192   3.947  11.319 -3.1520  1.5426 -1.1378
  999MOL0     H31806   2.325   3.964  11.204 -1.8514  0.2827 -3.0024
  999MOL0     H31807   2.159   4.156  11.115  0.8082 -0.9153 -1.0973
  999MOL0     H31808   2.050   4.076  11.224  0.9685  1.1722  0.5161
  999MOL0     H31809   2.083   3.861  11.069 -0.6158  1.4394  2.0077
  999MOL0     H31810   2.185   3.975  10.971  1.6476  2.0734  1.6136
  999MOL0     H31811   1.888   4.007  11.055  0.0874  1.0835 -0.1507
  999MOL0     H31812   1.972   4.133  10.984 -0.0653 -0.0803  0.6489
  999MOL0     H31813   1.833   3.975  10.822  1.0904  2.7783 -0.9711
  999MOL0     H31814   1.958   3.868  10.837  0.0397  0.1642  0.0728
  999MOL0     H31815   2.130   4.008  10.749 -1.0236  0.8528  0.6858
  999MOL0     H31816   2.035   4.154  10.759  0.8005 -0.8028  1.8928
  999MOL0     H31817   1.989   3.910  10.577  3.0501  0.5208 -0.2663
  999MOL0     H31818   1.857   4.023  10.601  0.0072 -0.1314 -0.4770
  999MOL0     H31819   2.022   4.197  10.526  2.9051  0.1550  2.0372
  999MOL0     H31820   1.934   4.096  10.401  1.6704 -2.6534 -1.1086
  999MOL0     H31821   2.148   3.844  10.429 -4.7674  1.5746 -1.5265
  999MOL0     H31822   2.394   3.754  10.340  3.2311 -0.5669 -0.5588
  999MOL0     H31823   2.503   3.877  10.313  0.2801 -1.6425  0.5347
  999MOL0     H31824   2.326   3.739  10.119  0.0663 -0.3133 -0.7367
  999MOL0     H31825   2.493   3.718  10.140  0.7036  1.0278  1.9282
  999MOL0     H31826   2.489   3.987  10.065 -0.2552 -1.3809  3.1614
  999MOL0     H31827   2.515   3.854   9.959  0.8894  1.5934  0.7675
  999MOL0     H31828   2.327   3.991   9.855 -3.1439 -0.4456 -1.2390
  999MOL0     H31829   2.244   3.996  10.002  0.9056 -0.5963 -0.2848
  999MOL0     H31830   2.084   4.037   9.868 -3.2477  2.2177 -0.9309
  999MOL0     H31831   1.832   4.048   9.895 -0.8723 -0.4004  2.3282
  999MOL0     H31832   1.533   3.535  10.053 -1.2100 -0.4884 -1.1174
  999MOL0     H31833   1.299   3.438  10.073 -1.4663 -0.3720 -0.2243
  999MOL0     H31834   1.073   3.494  10.199 -0.4566 -0.0297 -0.2158
  999MOL0     H31835   1.095   3.386  10.050 -4.2578 -2.1072 -1.0606
  999MOL0     H31836   0.881   3.345  10.127  1.3175  0.6697  2.3004
  999MOL0     H31837   0.863   3.447   9.975 -3.5211 -3.0877  1.8882
  999MOL0     H31838   0.826   3.641  10.134  2.4761 -1.2361 -2.7995
  999MOL0     H31839   0.823   3.526  10.269  0.0033  2.4245  0.4962
  999MOL0     H31840   0.636   3.518  10.031  0.3016  1.7138 -0.1210
  999MOL0     H31841   0.634   3.406  10.161 -0.3712  0.9197  3.2323
  999MOL0     H31842   0.589   3.709  10.183  0.7815 -0.2599 -0.7571
  999MOL0     H31843   0.627   3.605  10.327 -0.1462 -1.6687 -1.1330
  999MOL0     H31844   0.388   3.533  10.141 -2.1913  1.1484 -0.0079
  999MOL0     H31845   0.369   3.658  10.266  0.0499  0.9965 -0.0117
  999MOL0     H31846   0.468   3.381  10.323  0.5349  0.7624  0.3123
  999MOL0     H31847   0.407   3.515  10.435 -0.2656  1.3101 -0.6141
  999MOL0     H31848   0.238   3.309  10.377 -2.2709 -0.0880 -1.2240
  999MOL0     H31849   0.250   3.360  10.218 -0.6839  1.3092  0.2317
  999MOL0     H31850   1.139   3.807   9.919 -1.5848 -0.2579  0.1487
  999MOL0     H31851   1.386   3.880   9.853  0.6705 -2.9500 -2.3289
  999MOL0     H31852   1.833   3.613   9.924 -2.4819  1.4196  2.0014
  999MOL0     H31853   2.078   3.612   9.919 -0.5755 -0.7710  0.6340
  999MOL0     H31854   2.470   4.173  11.126 -4.0028 -2.2932  1.2820
  999MOL0     H31855   2.691   4.252  11.163  2.3983  0.4002  2.6276
  999MOL0     H31856   3.144   4.052  11.457  3.1944 -0.1305  0.7185
  999MOL0     H31857   3.350   4.129  11.557 -1.9565 -1.5551 -0.8569
  999MOL0     H31858   3.532   4.252  11.625  1.1028  1.3195  2.6607
  999MOL0     H31859   3.598   4.421  11.630  0.3417  0.4194 -1.3737
  999MOL0     H31860   3.673   4.271  11.442 -2.3131 -2.3884  0.1683
  999MOL0     H31861   3.513   4.284  11.363  0.1782 -1.9233 -0.1580
  999MOL0     H31862   3.696   4.518  11.405 -2.1508  0.6614  3.4481
  999MOL0     H31863   3.533   4.544  11.382  1.1029  0.4077  2.3233
  999MOL0     H31864   3.528   4.439  11.152 -0.5621  3.6113 -0.7776
  999MOL0     H31865   3.642   4.574  11.180 -2.2729  1.1682 -1.1010
  999MOL0     H31866   3.897   4.236  11.108 -2.3910 -2.4171 -0.2332
  999MOL0     H31867   3.203   4.541  11.493 -3.2975  1.4852 -3.6010
  999MOL0     H31868   3.002   4.437  11.382 -1.2394 -1.7133  1.3013
 1000MOL0     O31869   4.521   4.519   1.313  0.5088  0.9803  0.3608
 1000MOL0     C31870   4.556   4.405   1.306 -0.1325 -0.1240 -0.4932
 1000MOL0     O31871   4.483   4.292   1.338 -0.2130 -0.2491  0.7634
 1000MOL0     C31872   4.354   4.303   1.386 -0.8511 -0.0220  0.7823
 1000MOL0     C31873   4.257   4.253   1.301  0.3051 -0.2992 -0.6393
 1000MOL0     C31874   4.118   4.253   1.340  1.2636  0.1007 -0.6880
 1000MOL0     C31875   4.081   4.310   1.461  0.1726 -0.0887  0.8141
 1000MOL0     O31876   3.956   4.310   1.515  0.9274 -0.2640 -1.3798
 1000MOL0     C31877   3.847   4.350   1.431 -0.0119  0.7662 -0.1919
 1000MOL0     C31878   3.854   4.497   1.382 -0.2401 -0.0982 -0.4120
 1000MOL0     C31879   3.710   4.543   1.348  0.1378  0.5725 -1.2460
 1000MOL0     C31880   3.701   4.690   1.317  0.2913  0.5437  0.4983
 1000MOL0     C31881   3.564   4.733   1.240 -0.1424  0.6467  0.3327
 1000MOL0     C31882   3.553   4.697   1.091  0.4250  0.1765 -0.1842
 1000MOL0     C31883   3.646   4.763   0.991 -0.1392 -0.7922  0.3572
 1000MOL0     C31884   3.623   4.911   0.970 -0.2342  0.8045 -0.4969
 1000MOL0     N31885   3.498   4.939   0.910  0.7045  0.9822 -0.0719
 1000MOL0     C31886   3.385   4.945   0.982 -0.3858  0.2746 -0.9495
 1000MOL0     C31887   3.281   4.945   0.883  0.3228  0.8530 -0.4094
 1000MOL0     C31888   3.133   4.960   0.907 -0.3363  0.3643 -0.1911
 1000MOL0     C31889   3.056   4.871   0.811  0.4823  0.2348  0.3186
 1000MOL0     C31890   2.915   4.858   0.870 -0.2867 -0.4408  0.7187
 1000MOL0     C31891   2.882   4.746   0.979  0.1760 -1.2827  0.6949
 1000MOL0     O31892   2.740   4.734   1.012 -0.3847 -0.7382  0.8950
 1000MOL0     C31893   2.645   4.678   0.929  0.2419  1.3983 -0.4298
 1000MOL0     C31894   2.669   4.635   0.800  0.2226 -0.2310  0.5994
 1000MOL0     C31895   2.563   4.580   0.724 -0.8346 -0.1307  0.1308
 1000MOL0     C31896   2.434   4.552   0.779  0.9062 -0.3400  0.0638
 1000MOL0     C31897   2.333   4.482   0.703  0.7510  0.5505  0.7611
 1000MOL0     O31898   2.340   4.477   0.561  0.1508  0.0693 -0.5436
 1000MOL0     C31899   2.234   4.405   0.502 -0.0096  0.6862 -0.0058
 1000MOL0     C31900   2.110   4.453   0.473  0.6342 -0.1462  0.4992
 1000MOL0     C31901   2.008   4.372   0.411 -0.8443 -0.1876  0.1627
 1000MOL0     C31902   2.049   4.250   0.361 -0.2444 -0.4590 -0.3278
 1000MOL0     O31903   1.959   4.177   0.292  0.2943 -0.2872 -1.1396
 1000MOL0     C31904   2.012   4.102   0.180  0.1310 -0.2860 -0.8707
 1000MOL0     C31905   1.887   4.033   0.130 -0.5536  0.1379  0.9920
 1000MOL0     C31906   1.797   4.124   0.047  0.4611 -0.2492 -0.1508
 1000MOL0     C31907   1.654   4.073   0.031  0.7598  0.6555 -0.4778
 1000MOL0     C31908   1.638   3.928   0.017  0.5776  0.6758  0.4456
 1000MOL0     C31909   1.492   3.878  -0.002  1.1799  0.4151  0.1779
 1000MOL0     C31910   1.420   3.941  -0.124  0.0429 -0.5451 -1.1133
 1000MOL0     C31911   1.270   3.903  -0.129 -0.1452  0.4594 -0.1966
 1000MOL0    Cl31912   1.248   3.725  -0.173 -0.2079 -0.1478  0.1282
 1000MOL0     C31913   2.182   4.200   0.399 -0.8058 -0.0082  0.6760
 1000MOL0     C31914   2.269   4.276   0.473 -0.6345  0.7956 -0.4032
 1000MOL0     O31915   2.239   4.435   0.770 -0.4181  0.4431  0.2516
 1000MOL0     C31916   2.412   4.592   0.911  0.3329 -0.2056  0.5905
 1000MOL0     C31917   2.514   4.659   0.981 -0.0092  0.3240 -0.0908
 1000MOL0     N31918   3.343   4.934   0.757  0.4055 -0.8132  0.1579
 1000MOL0     N31919   3.465   4.924   0.776  0.4396 -0.7006 -0.7540
 1000MOL0     C31920   4.185   4.359   1.545  0.2651 -0.8536 -0.3820
 1000MOL0     C31921   4.320   4.364   1.508 -0.1844 -0.4811  1.0187
 1000MOL0     C31922   4.689   4.383   1.257  0.5891 -1.1760 -0.4345
 1000MOL0     C31923   4.776   4.489   1.248 -0.1469 -0.0725  0.1494
 1000MOL0     C31924   4.914   4.471   1.221  0.8613  0.2515  0.0966
 1000MOL0     C31925   4.970   4.346   1.198  0.4154  0.3281  0.2426
 1000MOL0     O31926   5.109   4.339   1.183  0.1004 -0.0023  0.1455
 1000MOL0     C31927   5.180   4.325   1.308 -0.2175  0.1996  1.1800
 1000MOL0     C31928   5.277   4.203   1.316  0.0319  0.1353 -0.7885
 1000MOL0     C31929   5.371   4.169   1.193  0.1031 -0.3834 -0.5736
 1000MOL0     C31930   5.483   4.073   1.229  0.6352  0.7705 -0.2180
 1000MOL0     C31931   5.561   4.055   1.114 -0.1838 -0.1979  0.2436
 1000MOL0     C31932   5.610   4.029   1.014 -0.3001 -0.9336  1.6714
 1000MOL0     C31933   4.883   4.234   1.203  0.9488 -0.0500 -0.4509
 1000MOL0     C31934   4.741   4.253   1.231  0.0937  0.1006  0.4944
 1000MOL0     H31935   4.284   4.220   1.201  2.4667  2.4900 -1.1216
 1000MOL0     H31936   4.055   4.203   1.268  1.2404  0.9863 -1.2989
 1000MOL0     H31937   3.763   4.337   1.500 -0.6174 -3.1731 -1.4324
 1000MOL0     H31938   3.836   4.282   1.346  3.0298  0.7860 -0.7188
 1000MOL0     H31939   3.920   4.514   1.297  2.1833 -0.0713  1.3344
 1000MOL0     H31940   3.893   4.563   1.460 -0.1720 -1.7103  0.9888
 1000MOL0     H31941   3.652   4.528   1.440  0.9569  0.0000 -0.8051
 1000MOL0     H31942   3.665   4.489   1.265 -0.7439  1.6850 -1.5135
 1000MOL0     H31943   3.710   4.733   1.417 -0.0600 -3.7046  2.5975
 1000MOL0     H31944   3.787   4.709   1.251  0.4106 -1.2866  0.0751
 1000MOL0     H31945   3.560   4.842   1.252  1.3058  0.5812  1.9386
 1000MOL0     H31946   3.485   4.698   1.306  1.5326  0.2385  2.2467
 1000MOL0     H31947   3.449   4.708   1.061  0.3776 -0.5969 -0.3037
 1000MOL0     H31948   3.563   4.590   1.072  1.1657  0.5183 -1.9843
 1000MOL0     H31949   3.750   4.742   1.017  0.6766  1.0756 -1.1533
 1000MOL0     H31950   3.640   4.725   0.888  4.1036 -0.4698 -0.2240
 1000MOL0     H31951   3.715   4.942   0.919  1.4983 -1.7041  0.8480
 1000MOL0     H31952   3.631   4.947   1.073 -1.0283  0.4019 -0.2900
 1000MOL0     H31953   3.364   4.955   1.088 -3.7435  4.3090 -1.7320
 1000MOL0     H31954   3.104   5.066   0.900 -1.7912 -0.0519 -0.9739
 1000MOL0     H31955   3.093   4.950   1.008 -4.4622  1.6438 -1.4648
 1000MOL0     H31956   3.092   4.770   0.790 -2.1712 -0.5599 -0.9272
 1000MOL0     H31957   3.048   4.927   0.717  0.4226  2.0530  1.3494
 1000MOL0     H31958   2.895   4.954   0.919  1.1137 -0.0706  0.6170
 1000MOL0     H31959   2.846   4.839   0.788  0.0115  0.2296  0.3002
 1000MOL0     H31960   2.926   4.791   1.069  1.5119 -1.5551  0.1950
 1000MOL0     H31961   2.918   4.647   0.952 -0.4237 -1.1447 -0.7028
 1000MOL0     H31962   2.769   4.642   0.759  0.8428 -0.4321  2.0357
 1000MOL0     H31963   2.589   4.546   0.624  0.0825  2.7805 -0.7175
 1000MOL0     H31964   2.087   4.557   0.496  1.0439  0.6514 -2.2690
 1000MOL0     H31965   1.907   4.403   0.387 -0.9590 -1.3184 -0.9272
 1000MOL0     H31966   2.072   4.016   0.213  2.0379  0.7848 -1.3967
 1000MOL0     H31967   2.071   4.166   0.113  2.6916 -1.3221  0.2425
 1000MOL0     H31968   1.823   3.998   0.212  0.8882  0.1109  2.1472
 1000MOL0     H31969   1.915   3.946   0.069 -1.6845  0.8006 -0.5233
 1000MOL0     H31970   1.840   4.147  -0.051 -0.7029  2.0719 -0.1889
 1000MOL0     H31971   1.803   4.222   0.095  0.8919 -1.2688  1.9990
 1000MOL0     H31972   1.597   4.087   0.124  0.7355 -3.3154  0.2911
 1000MOL0     H31973   1.596   4.131  -0.041 -1.3789 -1.0112 -0.2266
 1000MOL0     H31974   1.671   3.878   0.108 -0.3382  2.2570  1.7010
 1000MOL0     H31975   1.703   3.888  -0.061  0.4572 -2.7819  1.9313
 1000MOL0     H31976   1.426   3.902   0.082  0.8066  0.1052 -0.0190
 1000MOL0     H31977   1.492   3.769  -0.014 -0.0578  0.3438  0.6136
 1000MOL0     H31978   1.418   4.049  -0.111  1.8868 -0.6224  0.2090
 1000MOL0     H31979   1.473   3.919  -0.217  0.8638  1.1334 -1.0814
 1000MOL0     H31980   1.227   3.967  -0.207  1.5168 -0.8456 -2.2851
 1000MOL0     H31981   1.232   3.923  -0.028  0.4953  2.1564 -0.2612
 1000MOL0     H31982   2.217   4.103   0.368 -1.8438  0.1942 -1.2920
 1000MOL0     H31983   2.372   4.243   0.487 -0.7664  1.2561  2.1426
 1000MOL0     H31984   2.319   4.573   0.963  1.0793  0.6255  2.2879
 1000MOL0     H31985   2.494   4.693   1.082 -1.2830 -0.6080 -0.0029
 1000MOL0     H31986   4.163   4.393   1.646  1.6172 -1.4095  0.1223
 1000MOL0     H31987   4.399   4.407   1.567 -0.8896  3.1185 -0.3840
 1000MOL0     H31988   4.756   4.595   1.238 -0.7133 -0.3058 -1.6000
 1000MOL0     H31989   4.961   4.568   1.229 -1.0823  1.0999  2.8053
 1000MOL0     H31990   5.109   4.314   1.390 -0.5000 -2.2180  0.6977
 1000MOL0     H31991   5.243   4.413   1.317  0.0265  0.1791 -0.1365
 1000MOL0     H31992   5.351   4.231   1.391 -0.1191 -2.7837  0.6121
 1000MOL0     H31993   5.230   4.110   1.349  2.4747 -2.1145 -3.1246
 1000MOL0     H31994   5.404   4.264   1.149 -1.6135 -0.8896 -3.1746
 1000MOL0     H31995   5.306   4.129   1.115 -1.3162 -0.4490  0.5944
 1000MOL0     H31996   5.550   4.102   1.310  0.3225 -0.6783  0.5882
 1000MOL0     H31997   5.450   3.975   1.264  1.4587  0.3970 -0.4644
 1000MOL0     H31998   5.666   3.998   0.928 -3.6194  0.8622 -1.4043
 1000MOL0     H31999   4.914   4.131   1.190 -0.0137 -0.5049  0.7515
 1000MOL0     H32000   4.673   4.168   1.239 -0.7348  0.6537 -0.4988
 1001MOL0     O32001   1.096   7.603   9.194  0.2466  0.5686  0.7326
 1001MOL0     C32002   1.057   7.691   9.118 -0.2597  0.8524  0.3722
 1001MOL0     O32003   1.144   7.771   9.054 -0.7049  0.0664  0.9352
 1001MOL0     C32004   1.280   7.766   9.082  0.1117 -0.7169  0.1638
 1001MOL0     C32005   1.346   7.882   9.122  0.5678  0.0199  0.7747
 1001MOL0     C32006   1.481   7.889   9.149  1.1411  1.2880 -0.1150
 1001MOL0     C32007   1.563   7.775   9.151 -0.0089  0.0294  0.9353
 1001MOL0     O32008   1.702   7.783   9.179 -0.0628 -0.6884 -0.1057
 1001MOL0     C32009   1.786   7.671   9.153  0.3544  0.7667  0.8429
 1001MOL0     C32010   1.928   7.708   9.170 -0.1231 -0.0423 -0.2879
 1001MOL0     C32011   1.956   7.827   9.074  0.0829 -0.4776 -0.6718
 1001MOL0     C32012   2.100   7.865   9.112  0.2002  0.1801 -0.3038
 1001MOL0     C32013   2.168   7.954   9.009 -0.5974 -0.5759  0.4917
 1001MOL0     C32014   2.315   7.972   9.063  0.4719  0.1559  0.4966
 1001MOL0     C32015   2.384   8.089   8.978 -0.2897  0.2829  0.2185
 1001MOL0     C32016   2.519   8.124   9.037  0.0911 -0.2594  0.4947
 1001MOL0     N32017   2.548   8.267   9.011 -0.5887 -0.1324 -0.1847
 1001MOL0     C32018   2.501   8.364   9.097  0.0551 -0.4758  1.0274
 1001MOL0     C32019   2.546   8.479   9.042  0.9621  0.0386  0.8329
 1001MOL0     C32020   2.493   8.616   9.090 -0.8678  0.2652 -0.6401
 1001MOL0     C32021   2.342   8.621   9.107 -0.4033 -0.2545  0.5662
 1001MOL0     C32022   2.273   8.609   8.970 -0.1304  0.2255  0.8651
 1001MOL0     C32023   2.232   8.751   8.919  0.0133  0.6665 -1.0520
 1001MOL0     O32024   2.210   8.766   8.780 -0.2749  0.0356  0.1310
 1001MOL0     C32025   2.134   8.875   8.747  0.3246 -0.0821 -0.0178
 1001MOL0     C32026   2.153   9.002   8.807 -0.3879 -0.0415  0.2062
 1001MOL0     C32027   2.072   9.110   8.765  0.2949  0.4342  0.0706
 1001MOL0     C32028   1.965   9.096   8.670  0.3385  0.0293 -0.3381
 1001MOL0     C32029   1.887   9.214   8.633 -0.3231  0.5194 -0.5140
 1001MOL0     O32030   1.796   9.202   8.531  0.5093  0.0636 -0.0294
 1001MOL0     C32031   1.681   9.272   8.500 -0.0189 -0.3939  0.3717
 1001MOL0     C32032   1.618   9.258   8.375  0.0957  0.0837  0.8857
 1001MOL0     C32033   1.496   9.311   8.336  0.8413 -0.1128  0.5892
 1001MOL0     C32034   1.432   9.396   8.429 -0.3500 -0.1314  1.1118
 1001MOL0     O32035   1.322   9.465   8.387 -0.0093  0.8421  0.4319
 1001MOL0     C32036   1.233   9.516   8.484 -0.0890  0.1183  0.0328
 1001MOL0     C32037   1.108   9.575   8.417  0.9171  0.0083 -0.8502
 1001MOL0     C32038   1.124   9.720   8.364 -0.5678 -0.8003 -0.0129
 1001MOL0     C32039   1.199   9.718   8.230 -0.0314 -0.1089  0.2867
 1001MOL0     C32040   1.247   9.863   8.191  0.7512 -1.1367  0.2587
 1001MOL0     C32041   1.364   9.875   8.091  0.3231  0.0799  0.4642
 1001MOL0     C32042   1.421  10.023   8.071 -0.4362  0.5995  0.3682
 1001MOL0     C32043   1.314  10.113   8.026 -0.0671 -0.4955 -0.0159
 1001MOL0    Cl32044   1.389  10.278   8.025  0.0389  0.2746  0.0708
 1001MOL0     C32045   1.497   9.414   8.553  0.0354 -0.9432 -0.4287
 1001MOL0     C32046   1.622   9.358   8.593  1.1536 -0.1098 -0.0015
 1001MOL0     O32047   1.912   9.325   8.681 -0.3579  0.5774 -0.2270
 1001MOL0     C32048   1.962   8.972   8.601  0.0172 -1.1377 -0.7017
 1001MOL0     C32049   2.050   8.868   8.638 -0.5724 -0.5274 -0.3724
 1001MOL0     N32050   2.629   8.460   8.936  0.6933  1.2867  0.1020
 1001MOL0     N32051   2.625   8.326   8.917  0.7065  0.6275 -0.3825
 1001MOL0     C32052   1.494   7.649   9.119 -0.6782  0.6198  0.1679
 1001MOL0     C32053   1.355   7.648   9.081  0.3017 -0.8588 -0.0641
 1001MOL0     C32054   0.913   7.712   9.100 -0.0856  1.5298 -0.1305
 1001MOL0     C32055   0.819   7.642   9.179  0.3026 -0.3800 -0.0948
 1001MOL0     C32056   0.685   7.676   9.174 -1.2351 -0.6536  0.4039
 1001MOL0     C32057   0.637   7.772   9.074  0.0010  0.6805  0.4647
 1001MOL0     O32058   0.510   7.811   9.054  0.6805  0.7774 -0.9995
 1001MOL0     C32059   0.408   7.737   9.124  0.0503 -1.2297  1.0980
 1001MOL0     C32060   0.265   7.788   9.108  0.4537 -0.1414  0.4336
 1001MOL0     C32061   0.218   7.785   8.962 -1.1411  0.4872 -0.1119
 1001MOL0     C32062   0.067   7.800   8.939  0.1796  0.0299 -0.1305
 1001MOL0     C32063   0.034   7.939   8.977 -0.1385  0.0967  1.4707
 1001MOL0     C32064   0.029   8.044   9.020  0.4565 -0.3762 -0.2832
 1001MOL0     C32065   0.728   7.840   8.993  0.9315  0.0687  0.4449
 1001MOL0     C32066   0.866   7.802   9.002 -1.1568  0.3229 -0.6868
 1001MOL0     H32067   1.282   7.969   9.117  1.7441  0.8557  0.0380
 1001MOL0     H32068   1.522   7.989   9.164 -0.1925  2.1618 -1.8990
 1001MOL0     H32069   1.778   7.632   9.051 -1.7118  1.5887  0.6473
 1001MOL0     H32070   1.768   7.586   9.219  2.2654  0.1890  0.6953
 1001MOL0     H32071   1.991   7.626   9.134  0.4015  0.9698 -1.8350
 1001MOL0     H32072   1.945   7.741   9.273 -1.4410 -0.0289 -0.0636
 1001MOL0     H32073   1.895   7.912   9.107 -1.4345 -2.2950  1.5769
 1001MOL0     H32074   1.928   7.811   8.970  0.2537 -1.0146 -0.6338
 1001MOL0     H32075   2.099   7.915   9.209 -2.3097  2.2863 -1.3213
 1001MOL0     H32076   2.155   7.770   9.113 -1.8956 -1.1146 -0.8044
 1001MOL0     H32077   2.119   8.052   9.010 -2.7293 -1.5262 -1.0263
 1001MOL0     H32078   2.178   7.919   8.906 -3.3950 -3.3162  0.9982
 1001MOL0     H32079   2.380   7.884   9.055 -0.1062 -0.0876 -4.6477
 1001MOL0     H32080   2.314   8.002   9.168 -0.5249  1.1260  0.2335
 1001MOL0     H32081   2.397   8.059   8.873 -0.4817  1.4269 -0.1470
 1001MOL0     H32082   2.328   8.182   8.972 -1.9938 -0.8051 -2.0756
 1001MOL0     H32083   2.590   8.056   8.989  0.1856  1.2681 -1.7541
 1001MOL0     H32084   2.519   8.110   9.145 -2.5995 -0.8287  0.5001
 1001MOL0     H32085   2.436   8.363   9.183  0.5217 -1.3514  1.3794
 1001MOL0     H32086   2.528   8.692   9.019 -0.9179  0.4617 -0.4537
 1001MOL0     H32087   2.527   8.623   9.194  0.0296  0.2547 -0.9195
 1001MOL0     H32088   2.318   8.715   9.158 -1.3279 -0.3135  0.2610
 1001MOL0     H32089   2.306   8.549   9.180 -2.1449 -0.0556 -0.0463
 1001MOL0     H32090   2.349   8.555   8.914  1.5423  2.5734  0.7238
 1001MOL0     H32091   2.183   8.547   8.983 -0.4305  0.1665 -1.1845
 1001MOL0     H32092   2.311   8.820   8.949  0.9490 -0.6882 -0.2817
 1001MOL0     H32093   2.139   8.783   8.966  0.2471 -1.1010  0.7534
 1001MOL0     H32094   2.236   9.024   8.873 -0.5735  2.0297 -0.1668
 1001MOL0     H32095   2.095   9.207   8.807 -1.5324  1.2280 -0.6580
 1001MOL0     H32096   1.662   9.187   8.305 -0.0813  1.1515 -0.3429
 1001MOL0     H32097   1.455   9.301   8.236  0.7486  4.2797 -0.0142
 1001MOL0     H32098   1.284   9.603   8.527  2.8170 -1.1052 -0.6834
 1001MOL0     H32099   1.199   9.445   8.560  0.9836  1.1546  1.5388
 1001MOL0     H32100   1.038   9.582   8.500  2.2757  2.8119  0.2036
 1001MOL0     H32101   1.083   9.503   8.339  3.0182 -0.2989 -1.3090
 1001MOL0     H32102   1.162   9.788   8.441  2.0022  2.5528 -3.8218
 1001MOL0     H32103   1.027   9.764   8.341 -1.4524 -1.8366  1.5443
 1001MOL0     H32104   1.289   9.656   8.238  2.0740  2.3593 -2.1852
 1001MOL0     H32105   1.137   9.685   8.146  0.1259  3.6693 -1.5622
 1001MOL0     H32106   1.276   9.920   8.280 -1.4851 -1.1138  1.0321
 1001MOL0     H32107   1.161   9.902   8.136  1.2771 -0.6757 -0.2530
 1001MOL0     H32108   1.332   9.817   8.003 -3.0533  1.0140  0.9230
 1001MOL0     H32109   1.446   9.824   8.143  0.5865 -1.7313 -1.5537
 1001MOL0     H32110   1.479  10.051   8.158 -2.2891 -0.1323  1.9263
 1001MOL0     H32111   1.489  10.017   7.985 -2.2123  1.5435 -1.1856
 1001MOL0     H32112   1.230  10.111   8.097  0.3893 -0.0506  0.5560
 1001MOL0     H32113   1.281  10.086   7.926 -1.2570  2.8935 -0.6744
 1001MOL0     H32114   1.447   9.472   8.630 -1.9291  1.1681 -3.1101
 1001MOL0     H32115   1.658   9.373   8.694 -0.1716  1.3722  0.3026
 1001MOL0     H32116   1.895   8.960   8.517 -0.4936  0.0704 -0.4865
 1001MOL0     H32117   2.047   8.769   8.593 -1.0080 -0.9224  0.5007
 1001MOL0     H32118   1.534   7.548   9.118  0.5339  1.0279 -2.4210
 1001MOL0     H32119   1.309   7.555   9.048 -1.6747  0.9192 -2.8337
 1001MOL0     H32120   0.839   7.568   9.256 -1.5007 -1.6622 -0.7989
 1001MOL0     H32121   0.618   7.638   9.251 -2.0841  3.3433  1.8410
 1001MOL0     H32122   0.431   7.738   9.232  0.1901 -0.8020  1.0675
 1001MOL0     H32123   0.414   7.632   9.093  0.9178 -0.1564 -2.8869
 1001MOL0     H32124   0.209   7.728   9.181 -0.6207  3.6250  3.0069
 1001MOL0     H32125   0.259   7.892   9.140  3.7796  0.4145 -0.3097
 1001MOL0     H32126   0.231   7.683   8.925 -2.8857  0.3592 -0.4397
 1001MOL0     H32127   0.275   7.852   8.896  1.8077 -1.7459 -0.0433
 1001MOL0     H32128   0.039   7.790   8.834  2.3341 -1.5127 -0.6374
 1001MOL0     H32129   0.000   7.741   9.002 -0.1398  1.0238  0.4853
 1001MOL0     H32130   0.018   8.132   9.080  0.1222  0.4752 -1.5625
 1001MOL0     H32131   0.688   7.929   8.945  0.1390 -0.5484 -0.0734
 1001MOL0     H32132   0.939   7.842   8.931 -0.1106 -2.0571 -1.0407
 1002MOL0     O32133   9.545   7.413   1.111  0.3941 -0.0452  0.0596
 1002MOL0     C32134   9.505   7.384   0.998 -0.4848 -0.0943  0.4465
 1002MOL0     O32135   9.394   7.301   0.974  0.2888 -0.5491  0.4123
 1002MOL0     C32136   9.287   7.303   1.052  0.4136 -1.0491 -0.5116
 1002MOL0     C32137   9.299   7.281   1.186  0.0239  0.5620 -0.5595
 1002MOL0     C32138   9.184   7.271   1.270 -1.2244  0.7062  0.4038
 1002MOL0     C32139   9.060   7.292   1.216  0.8439  0.0096 -0.3767
 1002MOL0     O32140   8.939   7.269   1.289  0.4814 -0.0353  0.7688
 1002MOL0     C32141   8.807   7.265   1.233  0.5631  0.1665 -0.3159
 1002MOL0     C32142   8.713   7.230   1.357  1.0067  0.2528 -0.4804
 1002MOL0     C32143   8.572   7.197   1.311 -0.2617  0.0284 -0.0675
 1002MOL0     C32144   8.500   7.320   1.239  0.1236 -0.2592 -0.1774
 1002MOL0     C32145   8.357   7.294   1.200 -0.1530 -0.1797 -0.4245
 1002MOL0     C32146   8.295   7.395   1.118  0.6661  0.3759  0.0662
 1002MOL0     C32147   8.298   7.544   1.160  0.1811 -0.5983 -0.1631
 1002MOL0     C32148   8.185   7.565   1.261 -0.7025  0.7641  0.3393
 1002MOL0     N32149   8.186   7.697   1.318 -0.2449 -0.0191 -0.0672
 1002MOL0     C32150   8.087   7.791   1.301 -0.6404  1.1167 -0.9452
 1002MOL0     C32151   8.123   7.895   1.377 -1.1186  0.3462 -0.8749
 1002MOL0     C32152   8.049   8.019   1.389  0.0256  0.0749  0.0424
 1002MOL0     C32153   7.929   7.996   1.480 -0.3993  0.2494  0.1199
 1002MOL0     C32154   7.809   7.938   1.409  0.6762  0.5033  0.2103
 1002MOL0     C32155   7.675   7.974   1.480 -0.3653  1.0404  0.2565
 1002MOL0     O32156   7.658   7.911   1.610 -0.3773  0.4222 -0.1186
 1002MOL0     C32157   7.535   7.910   1.666 -0.2829 -0.1862  0.3039
 1002MOL0     C32158   7.514   7.838   1.787  0.5547 -1.0932 -0.1108
 1002MOL0     C32159   7.385   7.842   1.853  0.8431  0.8581  0.6671
 1002MOL0     C32160   7.272   7.907   1.798  0.4662  0.2890  1.2212
 1002MOL0     C32161   7.139   7.880   1.848 -0.2738  0.7104  0.0918
 1002MOL0     O32162   7.132   7.800   1.961  0.3610  0.1603  0.0372
 1002MOL0     C32163   7.011   7.742   1.994  0.1942 -1.5518  0.0829
 1002MOL0     C32164   6.961   7.750   2.134 -0.0769  0.5660  0.4410
 1002MOL0     C32165   6.836   7.689   2.172 -0.2388 -0.1127 -0.0807
 1002MOL0     C32166   6.766   7.625   2.068  0.1206  0.0393 -1.4665
 1002MOL0     O32167   6.639   7.572   2.102 -0.3357  0.5297 -0.1835
 1002MOL0     C32168   6.545   7.661   2.135 -0.1131 -0.3991  0.3309
 1002MOL0     C32169   6.408   7.582   2.163 -0.8935 -0.9508  0.1479
 1002MOL0     C32170   6.326   7.532   2.044 -0.3876  0.1598  0.1893
 1002MOL0     C32171   6.216   7.452   2.104 -0.1645  0.1649  0.2619
 1002MOL0     C32172   6.138   7.393   1.986 -0.5773 -0.0257  0.4702
 1002MOL0     C32173   6.025   7.313   2.019 -0.0601  0.7214  1.2861
 1002MOL0     C32174   5.947   7.278   1.892 -0.1057  0.4061  0.4774
 1002MOL0     C32175   5.895   7.137   1.909  1.1695 -0.0163  0.3950
 1002MOL0    Cl32176   6.028   7.020   1.902 -0.1395  0.2910  0.2720
 1002MOL0     C32177   6.814   7.614   1.940 -0.4688 -0.2718 -0.0772
 1002MOL0     C32178   6.927   7.683   1.897  1.1100 -0.9375 -0.7098
 1002MOL0     O32179   7.043   7.930   1.798  0.4559 -0.0554 -0.3937
 1002MOL0     C32180   7.300   7.992   1.685  0.2266  0.5960 -0.2913
 1002MOL0     C32181   7.428   7.987   1.623  0.4914  0.1132  0.1511
 1002MOL0     N32182   8.241   7.864   1.453 -0.1354  0.2384  0.5220
 1002MOL0     N32183   8.272   7.742   1.415  0.0541 -0.4802  0.2974
 1002MOL0     C32184   9.051   7.318   1.081 -0.5731  0.3212  0.5171
 1002MOL0     C32185   9.163   7.329   0.999  0.7001 -0.1124  0.3165
 1002MOL0     C32186   9.580   7.425   0.873  0.1376 -0.0447 -0.3257
 1002MOL0     C32187   9.544   7.367   0.751 -0.7095  0.4937 -0.6937
 1002MOL0     C32188   9.617   7.385   0.640 -0.3940  0.3397 -0.2871
 1002MOL0     C32189   9.722   7.477   0.636  0.2468  0.3135 -0.9558
 1002MOL0     O32190   9.785   7.508   0.516  0.0128  0.6685  0.1244
 1002MOL0     C32191   9.912   7.581   0.516 -0.2294  1.0881  0.0392
 1002MOL0     C32192  10.013   7.491   0.440  0.2411 -0.1127 -0.6899
 1002MOL0     C32193  10.021   7.342   0.495 -0.0068 -0.3398  0.7636
 1002MOL0     C32194  10.161   7.279   0.494 -0.7107 -0.2845  0.1721
 1002MOL0     C32195  10.174   7.199   0.366  0.2559 -0.0702 -0.4102
 1002MOL0     C32196  10.194   7.130   0.267 -0.4958  0.3658  0.5901
 1002MOL0     C32197   9.755   7.545   0.758 -0.0999 -0.6878 -0.9668
 1002MOL0     C32198   9.688   7.518   0.874  0.6240 -0.8756  0.4556
 1002MOL0     H32199   9.398   7.256   1.225  0.7376  0.0578 -2.5679
 1002MOL0     H32200   9.188   7.240   1.374  0.3335 -1.5729 -0.2606
 1002MOL0     H32201   8.798   7.181   1.164  2.6134  0.2518 -0.7488
 1002MOL0     H32202   8.784   7.358   1.180 -0.3482  0.7529  1.0250
 1002MOL0     H32203   8.713   7.312   1.429 -0.2051  2.0728 -2.4321
 1002MOL0     H32204   8.737   7.141   1.416 -0.9610  0.9421  1.4556
 1002MOL0     H32205   8.511   7.170   1.398  0.2318  0.3969  0.3987
 1002MOL0     H32206   8.574   7.108   1.246  2.6596  0.5329 -0.8234
 1002MOL0     H32207   8.519   7.413   1.294 -1.4415  0.0051 -0.0194
 1002MOL0     H32208   8.559   7.315   1.148  1.8048  0.8211  0.8101
 1002MOL0     H32209   8.305   7.265   1.292  0.0644 -2.3735 -0.9400
 1002MOL0     H32210   8.359   7.204   1.138  0.8891 -0.2574 -0.3023
 1002MOL0     H32211   8.188   7.375   1.102  0.0673  2.9293  0.4002
 1002MOL0     H32212   8.346   7.390   1.022 -3.7985 -1.4568 -2.5502
 1002MOL0     H32213   8.394   7.570   1.205  0.0817 -0.5893  0.0412
 1002MOL0     H32214   8.290   7.604   1.068 -0.6635 -1.4864 -0.6992
 1002MOL0     H32215   8.212   7.497   1.343 -1.9799 -3.4682 -2.4251
 1002MOL0     H32216   8.099   7.534   1.201  1.9533  2.4726 -4.9689
 1002MOL0     H32217   8.007   7.775   1.229  0.5097 -1.8838 -1.7284
 1002MOL0     H32218   8.028   8.060   1.290  3.4371  0.2911 -0.7067
 1002MOL0     H32219   8.124   8.083   1.437  3.4446 -3.8410  0.4950
 1002MOL0     H32220   7.904   8.093   1.524 -1.3944 -0.7407  1.8553
 1002MOL0     H32221   7.962   7.928   1.558 -2.4371 -0.7599  0.1619
 1002MOL0     H32222   7.810   7.972   1.305  2.6694 -1.3667 -0.4464
 1002MOL0     H32223   7.822   7.830   1.413  1.7041  0.6306  4.5606
 1002MOL0     H32224   7.602   7.923   1.417 -0.6528 -1.7897  2.6528
 1002MOL0     H32225   7.656   8.081   1.492  2.8716  1.6992  0.5028
 1002MOL0     H32226   7.598   7.794   1.841 -1.1430 -1.1370  2.6603
 1002MOL0     H32227   7.373   7.786   1.945  1.5333 -0.1895  0.1462
 1002MOL0     H32228   7.030   7.790   2.208  0.8605  0.1631 -0.2142
 1002MOL0     H32229   6.795   7.708   2.271 -1.9451 -2.0580 -0.3388
 1002MOL0     H32230   6.529   7.718   2.043  2.4928  3.5668  2.0735
 1002MOL0     H32231   6.574   7.727   2.217 -1.4571 -1.1710  1.4580
 1002MOL0     H32232   6.341   7.636   2.231 -4.6895 -0.6318 -3.4426
 1002MOL0     H32233   6.435   7.497   2.226 -0.9650 -2.0377 -1.2354
 1002MOL0     H32234   6.392   7.473   1.979 -0.8270  0.1313 -0.2420
 1002MOL0     H32235   6.280   7.617   1.994  1.3310 -0.0771 -1.9649
 1002MOL0     H32236   6.259   7.375   2.168  1.6906  1.9032  1.2298
 1002MOL0     H32237   6.150   7.522   2.155 -1.7283  0.2958 -1.8112
 1002MOL0     H32238   6.208   7.336   1.924 -2.0485  0.4765 -1.7491
 1002MOL0     H32239   6.112   7.474   1.917  1.9213  0.1872 -0.3387
 1002MOL0     H32240   5.956   7.374   2.079 -1.5962 -0.2904  0.5985
 1002MOL0     H32241   6.045   7.227   2.084 -2.0167  0.3172  1.4081
 1002MOL0     H32242   5.863   7.347   1.882  1.3847  2.2503  0.1842
 1002MOL0     H32243   6.019   7.290   1.810  0.5006  3.2872  1.3224
 1002MOL0     H32244   5.828   7.128   1.824 -0.3589 -1.7007  1.6983
 1002MOL0     H32245   5.837   7.126   2.001  1.2765 -1.9542  0.2835
 1002MOL0     H32246   6.755   7.553   1.872 -0.3293 -0.0443 -0.4052
 1002MOL0     H32247   6.965   7.670   1.796 -0.3410  1.6498 -1.6949
 1002MOL0     H32248   7.221   8.057   1.650 -2.3226 -2.2637 -0.2994
 1002MOL0     H32249   7.437   8.058   1.541  1.2735 -1.9295 -1.6098
 1002MOL0     H32250   8.956   7.320   1.027  0.0989 -1.4702 -0.8565
 1002MOL0     H32251   9.149   7.343   0.892 -0.7047 -1.6985  0.2494
 1002MOL0     H32252   9.462   7.297   0.763  0.6622 -1.0443  0.0808
 1002MOL0     H32253   9.588   7.324   0.554 -2.2996  1.5204 -0.5232
 1002MOL0     H32254   9.952   7.616   0.612  1.9569 -1.5310  0.1959
 1002MOL0     H32255   9.906   7.677   0.464  2.1950  1.0208 -0.5046
 1002MOL0     H32256   9.961   7.486   0.343 -0.6310  2.1892 -0.3931
 1002MOL0     H32257  10.107   7.546   0.429  0.9863 -0.0352  4.0504
 1002MOL0     H32258   9.943   7.286   0.442 -1.0688  0.4284  1.4790
 1002MOL0     H32259   9.975   7.359   0.593 -1.4975  0.3180 -0.0125
 1002MOL0     H32260  10.235   7.360   0.500 -3.2530  2.2767 -0.6019
 1002MOL0     H32261  10.164   7.214   0.582 -2.0743  1.3032  1.4652
 1002MOL0     H32262  10.221   7.080   0.176  1.3350  0.9705  0.7430
 1002MOL0     H32263   9.836   7.615   0.775 -1.7933  1.3194 -0.7492
 1002MOL0     H32264   9.713   7.559   0.972  1.4831 -0.7167  0.1776
 1003MOL0     O32265   4.506   5.918  11.294 -0.4798 -0.3280 -0.1570
 1003MOL0     C32266   4.490   5.848  11.192 -0.2720 -1.1621 -0.0362
 1003MOL0     O32267   4.580   5.773  11.130 -0.1140 -0.2105 -0.3247
 1003MOL0     C32268   4.709   5.774  11.175  0.2152  0.0962 -0.0289
 1003MOL0     C32269   4.791   5.881  11.197  0.2967  0.7745  0.0686
 1003MOL0     C32270   4.928   5.862  11.235  0.6017  0.1233 -0.6663
 1003MOL0     C32271   4.987   5.733  11.237  0.2349  0.2491 -0.3101
 1003MOL0     O32272   5.120   5.694  11.254 -0.1464  0.2640  0.5118
 1003MOL0     C32273   5.208   5.801  11.227  0.3414 -0.3122  0.1395
 1003MOL0     C32274   5.349   5.747  11.263  0.2083 -0.2470  0.4767
 1003MOL0     C32275   5.460   5.859  11.241 -0.0414 -0.2144  0.8808
 1003MOL0     C32276   5.464   5.972  11.347 -0.1549  0.7262 -0.4333
 1003MOL0     C32277   5.596   6.037  11.355 -0.4421 -0.1955  0.5844
 1003MOL0     C32278   5.616   6.117  11.491  0.6364  1.5196  0.9195
 1003MOL0     C32279   5.761   6.100  11.542 -0.2032  0.3295 -0.1685
 1003MOL0     C32280   5.800   6.208  11.643 -0.0248  1.0627 -0.7797
 1003MOL0     N32281   5.845   6.331  11.566  0.0884 -0.1925 -0.7368
 1003MOL0     C32282   5.971   6.366  11.531 -0.0219  0.5886 -0.1458
 1003MOL0     C32283   5.947   6.477  11.456  0.5034 -1.0049 -0.1405
 1003MOL0     C32284   6.050   6.560  11.397 -0.7303 -0.6740  0.5040
 1003MOL0     C32285   6.001   6.669  11.301  1.4650 -0.1263  0.5345
 1003MOL0     C32286   6.106   6.749  11.224  0.2026  0.4474  0.1591
 1003MOL0     C32287   6.213   6.815  11.303  0.8473  0.1493  0.4126
 1003MOL0     O32288   6.310   6.881  11.208 -0.3637  0.5523  0.3174
 1003MOL0     C32289   6.431   6.825  11.184  0.2190 -0.0194 -0.7101
 1003MOL0     C32290   6.520   6.768  11.282  0.3715 -0.5841  0.7659
 1003MOL0     C32291   6.637   6.705  11.249 -0.8270  0.4961  1.2059
 1003MOL0     C32292   6.669   6.676  11.116 -0.0389  0.7832 -0.0308
 1003MOL0     C32293   6.790   6.601  11.082 -0.6547  0.5495  0.3845
 1003MOL0     O32294   6.841   6.518  11.177  0.6630 -0.3295  0.1303
 1003MOL0     C32295   6.943   6.429  11.166  0.1094 -0.1277 -0.6559
 1003MOL0     C32296   6.978   6.365  11.044  0.0954 -1.1252  0.0615
 1003MOL0     C32297   7.093   6.289  11.039 -0.6060  0.9306 -0.8721
 1003MOL0     C32298   7.168   6.263  11.153 -0.0215 -0.5506 -0.1219
 1003MOL0     O32299   7.276   6.175  11.153  0.6427 -0.6236 -0.4465
 1003MOL0     C32300   7.254   6.042  11.111 -1.0125 -0.6958  0.0702
 1003MOL0     C32301   7.283   5.950  11.228 -0.7114 -0.9042  0.3327
 1003MOL0     C32302   7.332   5.816  11.178 -0.4347 -0.0385  0.5499
 1003MOL0     C32303   7.485   5.822  11.137 -1.3273  0.1734 -0.2855
 1003MOL0     C32304   7.544   5.683  11.107 -0.9198  0.7415 -0.2766
 1003MOL0     C32305   7.694   5.688  11.096  0.5798  0.9630  1.0191
 1003MOL0     C32306   7.747   5.545  11.055  0.5480 -0.3256 -0.2451
 1003MOL0     C32307   7.897   5.553  11.029 -0.2214  0.5869  0.2989
 1003MOL0    Cl32308   7.976   5.607  11.178  0.1329  0.4387  0.6535
 1003MOL0     C32309   7.117   6.317  11.282 -0.5382 -0.4579 -0.0161
 1003MOL0     C32310   7.005   6.405  11.284 -0.5124  0.6116 -0.3812
 1003MOL0     O32311   6.842   6.625  10.975 -0.4083  0.7508 -0.1152
 1003MOL0     C32312   6.586   6.738  11.019 -0.9419  0.1985 -0.1205
 1003MOL0     C32313   6.477   6.822  11.050 -0.1274  0.4314  0.3873
 1003MOL0     N32314   5.813   6.501  11.445 -0.2260 -0.3086 -0.6713
 1003MOL0     N32315   5.747   6.412  11.511 -0.3585 -0.1780  0.0352
 1003MOL0     C32316   4.899   5.625  11.215 -0.1393  0.3794  0.8641
 1003MOL0     C32317   4.760   5.644  11.179 -0.1401  0.3283  0.4849
 1003MOL0     C32318   4.367   5.865  11.114 -0.3998  0.0054  0.3346
 1003MOL0     C32319   4.286   5.960  11.159  0.6891 -0.7255  0.2566
 1003MOL0     C32320   4.162   5.984  11.103 -0.7611 -0.7091 -0.4829
 1003MOL0     C32321   4.112   5.898  11.005 -0.0228 -0.5423 -0.2908
 1003MOL0     O32322   3.986   5.906  10.944  0.8593  0.5792  0.0245
 1003MOL0     C32323   3.873   5.915  11.038 -0.5419 -0.5630 -0.3630
 1003MOL0     C32324   3.734   5.912  10.975 -0.2729  0.9722  0.4300
 1003MOL0     C32325   3.668   6.050  10.946  0.2852  0.0145  0.6924
 1003MOL0     C32326   3.526   6.042  10.905 -0.3937  0.3115 -0.7452
 1003MOL0     C32327   3.443   6.007  11.014  0.6987 -0.0143  0.0015
 1003MOL0     C32328   3.362   5.956  11.094 -0.5470 -0.7615 -0.1894
 1003MOL0     C32329   4.200   5.814  10.939 -0.6425 -0.7193 -0.0278
 1003MOL0     C32330   4.327   5.798  10.994  0.0769 -0.2008  0.4502
 1003MOL0     H32331   4.740   5.976  11.195  1.0101  1.2032 -3.1470
 1003MOL0     H32332   4.987   5.947  11.268 -0.0955 -0.3998  2.2097
 1003MOL0     H32333   5.184   5.886  11.291  2.4439  2.0536 -1.9857
 1003MOL0     H32334   5.206   5.838  11.124 -0.7186  0.2529  0.3510
 1003MOL0     H32335   5.375   5.664  11.197  2.1385  1.7483 -1.4923
 1003MOL0     H32336   5.353   5.717  11.368 -1.0264  2.4330  1.3768
 1003MOL0     H32337   5.449   5.913  11.146 -0.9390 -1.9411 -0.0402
 1003MOL0     H32338   5.554   5.805  11.229  1.4565  2.7099 -2.6114
 1003MOL0     H32339   5.383   6.044  11.333 -1.6264 -0.1934  2.6157
 1003MOL0     H32340   5.441   5.927  11.444  0.0292  1.6557  0.0546
 1003MOL0     H32341   5.611   6.109  11.275  1.8655 -0.4833  0.6844
 1003MOL0     H32342   5.682   5.969  11.348 -0.3662  0.0572 -1.7456
 1003MOL0     H32343   5.551   6.063  11.560  1.0748 -3.7337 -2.2788
 1003MOL0     H32344   5.574   6.218  11.483  1.4527  1.9107  1.4241
 1003MOL0     H32345   5.774   6.000  11.585  1.5606 -0.0357 -1.4146
 1003MOL0     H32346   5.829   6.104  11.456 -0.3616 -0.5704 -0.3464
 1003MOL0     H32347   5.876   6.180  11.716  0.1483 -0.0426 -1.3583
 1003MOL0     H32348   5.709   6.231  11.701  0.0373  0.4946 -0.4452
 1003MOL0     H32349   6.060   6.310  11.558 -0.1145 -0.1513 -1.3094
 1003MOL0     H32350   6.134   6.499  11.364  0.2438  1.3863 -1.0357
 1003MOL0     H32351   6.104   6.606  11.480 -2.0720  2.6848 -0.2921
 1003MOL0     H32352   5.930   6.739  11.346  4.1994  3.7773 -0.6685
 1003MOL0     H32353   5.951   6.611  11.223 -1.5235  0.0521  2.1631
 1003MOL0     H32354   6.153   6.671  11.163 -1.1802 -0.8398  0.6650
 1003MOL0     H32355   6.046   6.823  11.171 -1.7746 -0.0111  1.6287
 1003MOL0     H32356   6.266   6.742  11.365  1.6552  0.5444  0.2020
 1003MOL0     H32357   6.167   6.892  11.365 -0.7084  0.8548 -1.5344
 1003MOL0     H32358   6.496   6.793  11.385 -0.0173  2.1126  0.1035
 1003MOL0     H32359   6.695   6.654  11.325  1.2684  0.7635 -0.1299
 1003MOL0     H32360   6.907   6.385  10.965 -1.2324  0.9011  1.7088
 1003MOL0     H32361   7.119   6.249  10.942  1.2352  3.9977 -1.7717
 1003MOL0     H32362   7.329   6.019  11.035  0.5090 -1.9344  1.8357
 1003MOL0     H32363   7.154   6.022  11.073  0.1182 -0.2710 -3.5151
 1003MOL0     H32364   7.200   5.934  11.297  1.1972 -1.9264  2.5253
 1003MOL0     H32365   7.368   5.989  11.284  2.0805 -5.1979 -0.4588
 1003MOL0     H32366   7.291   5.789  11.080  5.6933 -1.7950 -2.0446
 1003MOL0     H32367   7.316   5.740  11.255  1.1738  1.9914  3.0775
 1003MOL0     H32368   7.495   5.877  11.043 -1.3368  2.1536  0.8209
 1003MOL0     H32369   7.548   5.869  11.213  0.9296 -3.3764  0.2855
 1003MOL0     H32370   7.499   5.642  11.016 -0.9538  1.4953 -0.5995
 1003MOL0     H32371   7.524   5.609  11.186  4.1364 -0.6477  0.0009
 1003MOL0     H32372   7.742   5.707  11.192  2.8560 -2.8172  0.8290
 1003MOL0     H32373   7.728   5.765  11.026  3.8726 -1.6402 -0.5753
 1003MOL0     H32374   7.726   5.484  11.144  0.2826  1.4251  0.9525
 1003MOL0     H32375   7.697   5.507  10.965 -1.0097 -0.9165  0.8226
 1003MOL0     H32376   7.915   5.620  10.945 -0.6707  2.8790  1.9340
 1003MOL0     H32377   7.945   5.460  10.997 -1.1905 -0.2460  1.1915
 1003MOL0     H32378   7.159   6.278  11.375 -0.5616  0.5542  0.4343
 1003MOL0     H32379   6.972   6.439  11.381  0.4532  0.1081  0.1415
 1003MOL0     H32380   6.600   6.704  10.916  0.6269  1.6784 -0.4536
 1003MOL0     H32381   6.400   6.850  10.979  0.0434  2.6445  1.0047
 1003MOL0     H32382   4.937   5.524  11.209  0.5860  0.6710  0.4635
 1003MOL0     H32383   4.694   5.572  11.133  1.7846 -0.3256 -1.4459
 1003MOL0     H32384   4.311   6.027  11.240 -3.3055 -0.6248  1.6109
 1003MOL0     H32385   4.086   6.054  11.136 -1.5781 -0.9420 -1.7750
 1003MOL0     H32386   3.874   6.016  11.079  0.4239 -0.0800 -1.4890
 1003MOL0     H32387   3.882   5.835  11.112  0.3060 -1.4882 -1.4347
 1003MOL0     H32388   3.740   5.868  10.875 -4.1399  2.3628 -0.5887
 1003MOL0     H32389   3.668   5.842  11.028  2.1886 -1.4898  0.4502
 1003MOL0     H32390   3.722   6.095  10.862 -1.5611 -1.5976 -1.5092
 1003MOL0     H32391   3.673   6.116  11.033  1.6611  3.1336 -1.5562
 1003MOL0     H32392   3.500   6.138  10.858 -0.9425  0.6699  0.2665
 1003MOL0     H32393   3.517   5.979  10.816  1.4871 -0.3460 -0.5218
 1003MOL0     H32394   3.302   5.909  11.170  1.8314  1.5811  3.4914
 1003MOL0     H32395   4.174   5.759  10.849  0.8898  0.6364 -1.3452
 1003MOL0     H32396   4.407   5.730  10.967  2.4760  1.8577  1.9169
 1004MOL0     O32397   1.848   1.116  10.406 -0.2497 -0.9674 -0.3096
 1004MOL0     C32398   1.886   1.162  10.294  1.3680 -0.2435  0.5107
 1004MOL0     O32399   1.858   1.108  10.168  0.2559 -0.1877 -0.2518
 1004MOL0     C32400   1.824   0.977  10.183  0.5793 -0.4681 -0.5562
 1004MOL0     C32401   1.923   0.880  10.162  0.0302 -0.4066 -0.1615
 1004MOL0     C32402   1.890   0.741  10.149  0.4748  0.5887 -0.2014
 1004MOL0     C32403   1.757   0.699  10.172 -0.0557 -0.1530 -0.2152
 1004MOL0     O32404   1.705   0.578  10.132  0.2712 -0.1288 -0.7717
 1004MOL0     C32405   1.631   0.601  10.009 -0.9284  0.3092 -0.5411
 1004MOL0     C32406   1.592   0.470   9.952  0.1260 -0.0649 -0.4886
 1004MOL0     C32407   1.453   0.463   9.894 -0.3257  0.0370  0.2743
 1004MOL0     C32408   1.424   0.321   9.825  0.2526  0.2720  0.2909
 1004MOL0     C32409   1.281   0.292   9.766  0.7453 -1.7525  0.8410
 1004MOL0     C32410   1.176   0.327   9.877 -0.0539  0.2130  0.4025
 1004MOL0     C32411   1.038   0.272   9.846  0.9714 -0.4271 -0.8681
 1004MOL0     C32412   1.001   0.296   9.701  0.3196 -0.2962  0.3119
 1004MOL0     N32413   0.856   0.314   9.677  0.1138  0.4893  0.3143
 1004MOL0     C32414   0.774   0.207   9.666 -0.3447  0.2274 -0.1820
 1004MOL0     C32415   0.648   0.253   9.641  0.6967 -0.5270 -0.1079
 1004MOL0     C32416   0.538   0.163   9.612  0.1152 -0.7424  0.2051
 1004MOL0     C32417   0.514   0.161   9.456  0.2570 -0.2848  0.0781
 1004MOL0     C32418   0.400   0.064   9.412 -0.2818 -0.1676  1.0579
 1004MOL0     C32419   0.269   0.117   9.454 -0.0866 -0.8894  0.5042
 1004MOL0     O32420   0.168   0.024   9.408  0.0526  0.3288  0.1229
 1004MOL0     C32421   0.057   0.024   9.489 -0.2385  0.5435  0.1066
 1004MOL0     C32422   0.019  -0.094   9.555 -0.6928 -1.0881 -0.1487
 1004MOL0     C32423  -0.112  -0.094   9.608  0.1613 -0.1926 -0.1494
 1004MOL0     C32424  -0.198   0.007   9.597 -0.4063 -0.1444  0.9705
 1004MOL0     C32425  -0.333   0.014   9.659  0.1250  0.0779  0.2288
 1004MOL0     O32426  -0.430   0.102   9.611 -0.0647 -0.6252  0.8526
 1004MOL0     C32427  -0.559   0.104   9.659 -0.3720  1.2531 -0.5081
 1004MOL0     C32428  -0.638  -0.006   9.652  0.3057  0.3267  0.6386
 1004MOL0     C32429  -0.761  -0.014   9.709 -0.0746  0.6629 -0.5479
 1004MOL0     C32430  -0.809   0.091   9.797  0.0048  0.0587 -0.1761
 1004MOL0     O32431  -0.927   0.092   9.862  0.3120  0.2122 -0.0368
 1004MOL0     C32432  -1.029   0.003   9.802  0.9498  0.5097 -0.0114
 1004MOL0     C32433  -1.158   0.038   9.879  1.0295 -0.8349 -0.0774
 1004MOL0     C32434  -1.226   0.162   9.829 -0.3770  0.7069  0.6660
 1004MOL0     C32435  -1.301   0.133   9.700  0.4526  0.4201  0.2793
 1004MOL0     C32436  -1.415   0.033   9.718 -0.2111  0.0779 -0.0401
 1004MOL0     C32437  -1.496   0.038   9.590 -0.0497  0.0804  0.0384
 1004MOL0     C32438  -1.630  -0.041   9.608  0.1969 -0.5708  0.5943
 1004MOL0     C32439  -1.688  -0.109   9.488 -0.2847  1.4848  0.6538
 1004MOL0    Cl32440  -1.826  -0.225   9.527 -0.2661 -0.1596  0.0529
 1004MOL0     C32441  -0.718   0.191   9.824  0.1583  0.3895  0.3106
 1004MOL0     C32442  -0.599   0.206   9.755 -0.5251  0.7566  0.2240
 1004MOL0     O32443  -0.356  -0.058   9.758 -0.0618 -0.4656  0.4988
 1004MOL0     C32444  -0.165   0.112   9.515  0.2173 -0.1650 -0.3011
 1004MOL0     C32445  -0.034   0.125   9.466 -0.2163  0.3067  0.7332
 1004MOL0     N32446   0.656   0.392   9.628  0.0123 -0.3866  0.3536
 1004MOL0     N32447   0.782   0.429   9.657  0.1535  0.1435 -0.2268
 1004MOL0     C32448   1.668   0.797  10.211  1.3155  0.6800 -0.8884
 1004MOL0     C32449   1.688   0.937  10.217 -0.2907 -0.7725 -1.0279
 1004MOL0     C32450   1.942   1.294  10.295 -0.5452  0.4521 -0.5512
 1004MOL0     C32451   1.961   1.368  10.417 -0.1619  1.3004  0.5386
 1004MOL0     C32452   2.000   1.505  10.416 -0.7639  1.3584  1.0648
 1004MOL0     C32453   2.053   1.558  10.297  0.6379  0.2971 -0.2346
 1004MOL0     O32454   2.112   1.680  10.309  0.1522 -0.0132 -0.4869
 1004MOL0     C32455   2.206   1.724  10.210 -0.1983 -0.6171 -0.4061
 1004MOL0     C32456   2.301   1.807  10.278  0.2650 -1.1759 -0.0718
 1004MOL0     C32457   2.395   1.732  10.373 -0.2163 -0.1106  0.5916
 1004MOL0     C32458   2.338   1.749  10.515  0.6956 -1.0424 -0.0908
 1004MOL0     C32459   2.420   1.701  10.619 -0.3515 -0.1914 -0.5280
 1004MOL0     C32460   2.493   1.671  10.714  0.8415  0.9304 -0.2371
 1004MOL0     C32461   2.037   1.489  10.180  0.5779  0.2214 -1.4019
 1004MOL0     C32462   1.983   1.362  10.179  0.5136  0.1316 -0.2664
 1004MOL0     H32463   2.027   0.910  10.167  0.3756 -1.7090  3.3829
 1004MOL0     H32464   1.980   0.686  10.122  2.5075  3.3635  0.4097
 1004MOL0     H32465   1.684   0.656   9.930  2.1315 -0.8481  0.5568
 1004MOL0     H32466   1.541   0.659  10.032 -2.0247 -1.3466 -0.5414
 1004MOL0     H32467   1.582   0.399  10.034 -1.2790  1.5980  0.8626
 1004MOL0     H32468   1.667   0.433   9.881 -1.3360  0.3652 -2.3466
 1004MOL0     H32469   1.435   0.540   9.818 -0.8117 -1.4571 -1.1828
 1004MOL0     H32470   1.386   0.468   9.981  2.2929  0.2520  2.3961
 1004MOL0     H32471   1.498   0.299   9.748 -1.6799  1.3590 -2.0389
 1004MOL0     H32472   1.437   0.242   9.899 -3.6919 -0.2711  0.6306
 1004MOL0     H32473   1.271   0.188   9.733 -0.8870 -1.1697 -0.6675
 1004MOL0     H32474   1.270   0.363   9.684 -1.5872 -1.0742  1.6687
 1004MOL0     H32475   1.173   0.436   9.891  1.0381  0.5641 -1.6095
 1004MOL0     H32476   1.205   0.284   9.973  1.5461 -0.0403 -0.1613
 1004MOL0     H32477   1.020   0.164   9.855 -1.8908  0.1114  1.3268
 1004MOL0     H32478   0.963   0.315   9.913  0.6878 -4.7126  1.9606
 1004MOL0     H32479   1.058   0.220   9.647  0.7285  1.9077 -2.6185
 1004MOL0     H32480   1.036   0.392   9.663  0.1207 -0.6626 -0.8327
 1004MOL0     H32481   0.798   0.102   9.675 -0.1027  0.2760 -0.2364
 1004MOL0     H32482   0.445   0.199   9.658  0.5670  0.6940  0.0379
 1004MOL0     H32483   0.565   0.063   9.646  3.2145 -1.1415 -2.8509
 1004MOL0     H32484   0.609   0.137   9.407 -0.4599  0.9382 -2.0315
 1004MOL0     H32485   0.481   0.259   9.422  1.5455 -0.2708 -1.2566
 1004MOL0     H32486   0.398   0.058   9.303 -1.2249 -0.2207  1.0727
 1004MOL0     H32487   0.421  -0.034   9.455 -0.2788 -0.1408  1.1178
 1004MOL0     H32488   0.237   0.215   9.418 -3.9735 -2.0916  0.2174
 1004MOL0     H32489   0.266   0.121   9.563  1.1879  0.3902  0.5215
 1004MOL0     H32490   0.081  -0.183   9.555  1.7540  0.4804  2.0407
 1004MOL0     H32491  -0.153  -0.183   9.655  0.4283 -0.2427 -0.0082
 1004MOL0     H32492  -0.609  -0.090   9.589 -1.9774  0.4009 -0.6079
 1004MOL0     H32493  -0.817  -0.105   9.689  0.6212  0.2215 -0.5154
 1004MOL0     H32494  -1.010  -0.105   9.799 -1.0260  0.1157 -0.1472
 1004MOL0     H32495  -1.041   0.019   9.694 -1.2476 -2.2413 -0.3035
 1004MOL0     H32496  -1.127   0.041   9.984  0.3935 -1.6693  0.1442
 1004MOL0     H32497  -1.222  -0.048   9.858 -0.0687  0.0225 -0.3063
 1004MOL0     H32498  -1.149   0.239   9.815  1.2856 -0.8732  0.6989
 1004MOL0     H32499  -1.285   0.207   9.908 -1.3484  1.0661 -0.2416
 1004MOL0     H32500  -1.349   0.224   9.664 -0.8583  0.1951  1.3755
 1004MOL0     H32501  -1.238   0.095   9.619 -1.1011 -0.4940 -0.5581
 1004MOL0     H32502  -1.486   0.056   9.797 -0.4260 -3.4487  0.9765
 1004MOL0     H32503  -1.383  -0.071   9.734 -0.5312 -0.2818 -1.5360
 1004MOL0     H32504  -1.432   0.001   9.509 -0.2107  1.7399 -0.8907
 1004MOL0     H32505  -1.521   0.142   9.569 -2.2573 -0.5248 -0.5618
 1004MOL0     H32506  -1.622  -0.117   9.686 -0.7357 -0.4800  0.7899
 1004MOL0     H32507  -1.702   0.038   9.631 -2.1761 -1.3797 -3.2657
 1004MOL0     H32508  -1.605  -0.173   9.457  1.0213  1.5711  3.6332
 1004MOL0     H32509  -1.708  -0.040   9.405 -0.2081 -2.0752 -2.6074
 1004MOL0     H32510  -0.732   0.265   9.903 -3.7022 -0.6206  0.8034
 1004MOL0     H32511  -0.536   0.287   9.792  0.4083 -0.5426  1.6052
 1004MOL0     H32512  -0.238   0.187   9.486  0.6938  0.8531  1.0514
 1004MOL0     H32513  -0.022   0.208   9.396 -0.5082  0.6198  1.0548
 1004MOL0     H32514   1.565   0.767  10.228  1.8254 -0.0008  1.4955
 1004MOL0     H32515   1.614   1.016  10.223 -0.3878 -0.8720 -0.9011
 1004MOL0     H32516   1.949   1.318  10.512  1.8951  1.1448  0.7542
 1004MOL0     H32517   2.006   1.561  10.510 -1.1599  2.3594  0.5101
 1004MOL0     H32518   2.148   1.783  10.139  2.5920  4.2274  0.8808
 1004MOL0     H32519   2.265   1.644  10.164  3.7609  1.4448  0.5686
 1004MOL0     H32520   2.349   1.871  10.203 -1.2194  0.4549  0.2750
 1004MOL0     H32521   2.247   1.880  10.339 -0.1765 -1.5099 -0.0595
 1004MOL0     H32522   2.489   1.788  10.370 -0.2929 -0.0069 -0.9799
 1004MOL0     H32523   2.413   1.627  10.348  0.7446 -0.2601  1.8274
 1004MOL0     H32524   2.318   1.853  10.542 -4.6578 -2.0313  0.9055
 1004MOL0     H32525   2.241   1.700  10.501 -1.2098  2.7151 -1.3066
 1004MOL0     H32526   2.558   1.659  10.799 -1.2461  1.5863  1.5520
 1004MOL0     H32527   2.076   1.535  10.090  1.5947 -0.3385 -1.2555
 1004MOL0     H32528   1.984   1.309  10.084  1.9343 -1.0093  0.3484
 1005MOL0     O32529   4.448   2.310   0.132  1.1412  0.4826 -0.1224
 1005MOL0     C32530   4.474   2.256   0.027  0.5714  0.2266 -0.1261
 1005MOL0     O32531   4.398   2.255  -0.083  0.8200  0.7994 -0.4016
 1005MOL0     C32532   4.276   2.309  -0.077  0.4506  0.1733 -0.2888
 1005MOL0     C32533   4.261   2.427  -0.146  0.5080 -1.0010 -0.4806
 1005MOL0     C32534   4.136   2.485  -0.155 -0.3459 -0.3317  0.1958
 1005MOL0     C32535   4.035   2.449  -0.080 -0.1240  0.9344 -0.4832
 1005MOL0     O32536   3.939   2.543  -0.094  0.3879  0.5996  0.2411
 1005MOL0     C32537   3.805   2.505  -0.049  0.4060  0.1148  0.3855
 1005MOL0     C32538   3.698   2.612  -0.078 -0.3546 -0.3188 -0.7165
 1005MOL0     C32539   3.725   2.712  -0.194  0.2930 -0.7948 -1.1554
 1005MOL0     C32540   3.600   2.805  -0.207 -0.6804  0.9216  0.5866
 1005MOL0     C32541   3.471   2.735  -0.249 -1.1143  0.1576 -0.3861
 1005MOL0     C32542   3.494   2.632  -0.350 -0.1458 -0.8191 -0.0410
 1005MOL0     C32543   3.362   2.620  -0.429  0.2457 -0.2364 -0.2779
 1005MOL0     C32544   3.240   2.594  -0.357  1.0643  0.5338  0.5340
 1005MOL0     N32545   3.132   2.538  -0.436 -0.2340  0.3000 -0.4944
 1005MOL0     C32546   3.058   2.608  -0.531  0.4520  0.2961 -0.5272
 1005MOL0     C32547   2.979   2.510  -0.573  0.3084 -0.0681  0.1760
 1005MOL0     C32548   2.859   2.536  -0.654  0.1852 -0.6185 -0.6284
 1005MOL0     C32549   2.741   2.440  -0.621  0.3990 -0.2652 -0.1003
 1005MOL0     C32550   2.674   2.451  -0.490 -0.6720 -0.7401 -0.1376
 1005MOL0     C32551   2.578   2.342  -0.466 -0.6036 -0.8375  0.0783
 1005MOL0     O32552   2.474   2.350  -0.559  0.9309  0.3644  0.3682
 1005MOL0     C32553   2.382   2.246  -0.603 -0.0818 -0.4769  0.2030
 1005MOL0     C32554   2.286   2.270  -0.706  0.5055 -0.2614 -0.0309
 1005MOL0     C32555   2.189   2.163  -0.736 -0.4405 -0.5346  0.7206
 1005MOL0     C32556   2.190   2.045  -0.668 -0.6985 -0.0497  0.4516
 1005MOL0     C32557   2.094   1.938  -0.696 -0.0109 -0.2463  0.7185
 1005MOL0     O32558   2.095   1.834  -0.612 -0.5226  0.3641 -0.0969
 1005MOL0     C32559   1.989   1.742  -0.602  1.3230  0.4805  0.8302
 1005MOL0     C32560   1.867   1.787  -0.596 -0.3751  0.4316 -0.6224
 1005MOL0     C32561   1.755   1.696  -0.585  0.1565  0.5222  0.3053
 1005MOL0     C32562   1.778   1.561  -0.605  0.0359  0.1867 -0.1571
 1005MOL0     O32563   1.673   1.473  -0.613 -0.2381  0.6943 -0.5567
 1005MOL0     C32564   1.703   1.339  -0.668 -1.2565  0.1927  0.9871
 1005MOL0     C32565   1.572   1.280  -0.720  0.3180 -0.4107  1.5122
 1005MOL0     C32566   1.495   1.359  -0.845 -0.7324  0.5222  0.2842
 1005MOL0     C32567   1.395   1.258  -0.914 -0.0267  0.4395 -0.6672
 1005MOL0     C32568   1.342   1.308  -1.052 -0.0552  0.4751 -0.2524
 1005MOL0     C32569   1.211   1.235  -1.067 -0.0638 -0.3459  0.2264
 1005MOL0     C32570   1.121   1.306  -1.167  0.2030  0.0326  0.0707
 1005MOL0     C32571   1.016   1.210  -1.203 -0.9238  0.6190 -0.1557
 1005MOL0    Cl32572   0.942   1.267  -1.357 -0.6087 -0.1542  0.6009
 1005MOL0     C32573   1.912   1.517  -0.605  0.4317  0.5240 -0.2641
 1005MOL0     C32574   2.017   1.604  -0.607 -0.2451  0.2838  0.1217
 1005MOL0     O32575   1.995   1.953  -0.783 -0.6903  0.1500 -0.2895
 1005MOL0     C32576   2.292   2.018  -0.581 -0.1670 -0.3193  0.4956
 1005MOL0     C32577   2.380   2.115  -0.549  0.1777  0.2025 -0.3160
 1005MOL0     N32578   3.014   2.383  -0.522 -0.4256 -0.3265  0.1865
 1005MOL0     N32579   3.104   2.406  -0.430  0.1628 -0.1736 -0.1824
 1005MOL0     C32580   4.038   2.330  -0.009  0.3299 -0.6796 -0.7208
 1005MOL0     C32581   4.163   2.264  -0.003  0.6329  0.7476  1.0329
 1005MOL0     C32582   4.606   2.191   0.013 -0.2229 -0.1006 -0.1184
 1005MOL0     C32583   4.699   2.188   0.118  0.9271 -0.3228 -0.5807
 1005MOL0     C32584   4.815   2.108   0.103 -0.4004 -0.5614  1.0598
 1005MOL0     C32585   4.844   2.045  -0.017  0.4821 -0.3972 -0.1970
 1005MOL0     O32586   4.965   1.979  -0.034  0.2574 -1.0353 -0.4317
 1005MOL0     C32587   5.024   1.957  -0.156  0.4399  1.0182 -0.2202
 1005MOL0     C32588   5.174   1.925  -0.145 -0.4132 -0.9574 -0.0456
 1005MOL0     C32589   5.214   1.805  -0.068  0.3387  0.0275 -0.1050
 1005MOL0     C32590   5.360   1.764  -0.091 -1.4352 -0.5579  0.1185
 1005MOL0     C32591   5.395   1.640  -0.022  0.1014 -0.2162 -0.4429
 1005MOL0     C32592   5.421   1.540   0.039  0.5194  1.1622  0.8317
 1005MOL0     C32593   4.756   2.052  -0.125 -0.2442 -0.5986 -0.3419
 1005MOL0     C32594   4.632   2.117  -0.103  0.3673 -0.4536  0.4378
 1005MOL0     H32595   4.342   2.468  -0.206  0.0473  1.1835  0.3228
 1005MOL0     H32596   4.132   2.579  -0.211 -2.3131 -0.3999  0.1294
 1005MOL0     H32597   3.792   2.480   0.057  1.1570  0.9152  0.6783
 1005MOL0     H32598   3.772   2.423  -0.113  0.2320 -2.0293  3.0833
 1005MOL0     H32599   3.681   2.660   0.019  0.2973 -3.1129  0.8988
 1005MOL0     H32600   3.604   2.557  -0.091 -0.1924 -0.4667 -1.3086
 1005MOL0     H32601   3.752   2.655  -0.283 -0.5281 -1.0645 -1.2426
 1005MOL0     H32602   3.797   2.783  -0.153 -0.9601 -0.8629  1.3740
 1005MOL0     H32603   3.578   2.853  -0.111  3.4511  2.3292  1.0451
 1005MOL0     H32604   3.622   2.878  -0.285 -1.3322  0.7510  0.2433
 1005MOL0     H32605   3.389   2.803  -0.272 -0.4842  1.7539  1.6924
 1005MOL0     H32606   3.433   2.689  -0.157  4.3534 -0.5299  1.9667
 1005MOL0     H32607   3.519   2.533  -0.310  1.3590 -0.4309  0.0496
 1005MOL0     H32608   3.573   2.664  -0.419  0.3429  0.1449  0.9341
 1005MOL0     H32609   3.344   2.714  -0.483  1.0994 -0.6733 -1.3641
 1005MOL0     H32610   3.363   2.544  -0.507 -1.7782 -2.0124  1.2964
 1005MOL0     H32611   3.201   2.684  -0.309 -1.7056  0.2543 -0.9665
 1005MOL0     H32612   3.254   2.517  -0.280 -2.1672 -2.6398 -1.7222
 1005MOL0     H32613   3.048   2.711  -0.563  1.0551 -0.2468 -2.6201
 1005MOL0     H32614   2.892   2.526  -0.757 -2.5478 -1.8946 -1.4797
 1005MOL0     H32615   2.817   2.637  -0.644 -0.3023 -0.8393 -0.3791
 1005MOL0     H32616   2.764   2.333  -0.629  1.6053  0.0201 -0.6529
 1005MOL0     H32617   2.659   2.473  -0.686  0.2951 -0.0535  0.1359
 1005MOL0     H32618   2.751   2.436  -0.414 -1.2018 -0.3753  0.4774
 1005MOL0     H32619   2.636   2.553  -0.482  0.4474 -0.2374 -0.8570
 1005MOL0     H32620   2.533   2.353  -0.367  2.7702  2.8402  1.4609
 1005MOL0     H32621   2.620   2.241  -0.480 -0.9166 -0.6013 -3.4145
 1005MOL0     H32622   2.269   2.369  -0.746  3.0740  0.1212 -0.3534
 1005MOL0     H32623   2.114   2.174  -0.813 -0.1332 -2.0141  0.1881
 1005MOL0     H32624   1.853   1.893  -0.583  1.9027  1.2994 -3.9477
 1005MOL0     H32625   1.655   1.733  -0.565  1.0431  2.9420  0.5432
 1005MOL0     H32626   1.754   1.268  -0.603 -0.3829 -1.0742 -1.0066
 1005MOL0     H32627   1.762   1.351  -0.759  0.3164 -5.3642  0.9422
 1005MOL0     H32628   1.501   1.251  -0.642 -0.0188 -3.2066  0.2887
 1005MOL0     H32629   1.597   1.188  -0.773  2.7821  2.2787 -2.5649
 1005MOL0     H32630   1.565   1.395  -0.921 -2.3684  0.2392 -1.4040
 1005MOL0     H32631   1.429   1.433  -0.800 -3.0458 -2.3251  1.9242
 1005MOL0     H32632   1.449   1.167  -0.941  2.1334  1.8162 -1.2340
 1005MOL0     H32633   1.318   1.251  -0.837  0.7461  3.2037  0.4798
 1005MOL0     H32634   1.420   1.296  -1.127  2.6724 -1.7547  2.6230
 1005MOL0     H32635   1.340   1.418  -1.053  4.2507  0.7210 -1.8515
 1005MOL0     H32636   1.163   1.220  -0.970  1.9214 -0.6040  1.2157
 1005MOL0     H32637   1.235   1.136  -1.105 -3.3766 -0.8308 -0.9208
 1005MOL0     H32638   1.076   1.392  -1.117  1.8467  2.9631 -3.0903
 1005MOL0     H32639   1.182   1.336  -1.252 -1.3478  1.6322 -0.5213
 1005MOL0     H32640   0.936   1.201  -1.128 -1.0419 -0.3366 -0.3769
 1005MOL0     H32641   1.051   1.107  -1.209  0.4715  1.1138 -0.9382
 1005MOL0     H32642   1.938   1.414  -0.626 -2.2265 -0.3396  0.2873
 1005MOL0     H32643   2.116   1.563  -0.629 -0.8454 -1.6178  0.7707
 1005MOL0     H32644   2.319   1.928  -0.528  2.8548  0.5820  0.6896
 1005MOL0     H32645   2.463   2.088  -0.484  0.0971 -2.0220 -1.0629
 1005MOL0     H32646   3.950   2.307   0.050 -0.2926 -0.5645 -1.5903
 1005MOL0     H32647   4.192   2.180   0.059 -0.7220 -1.2975 -0.9584
 1005MOL0     H32648   4.675   2.234   0.213 -1.3535 -1.3518 -0.6070
 1005MOL0     H32649   4.880   2.092   0.188  0.1585 -0.7652  0.5992
 1005MOL0     H32650   5.001   2.043  -0.220 -2.5436  1.3127  1.0564
 1005MOL0     H32651   4.981   1.865  -0.197 -1.7250 -0.3495  4.4678
 1005MOL0     H32652   5.216   1.902  -0.244  0.6318 -0.0446  0.1664
 1005MOL0     H32653   5.227   2.014  -0.110 -0.3378 -1.0613  0.1031
 1005MOL0     H32654   5.157   1.717  -0.101  0.4217 -0.0780  0.0325
 1005MOL0     H32655   5.192   1.825   0.037  0.6409  0.5534 -0.1396
 1005MOL0     H32656   5.369   1.748  -0.199  1.6415  0.0821  0.2061
 1005MOL0     H32657   5.443   1.832  -0.069 -2.0751 -0.5195  2.7706
 1005MOL0     H32658   5.454   1.453   0.091  1.2737  0.3985 -0.8692
 1005MOL0     H32659   4.779   2.005  -0.220 -0.3959  0.7268 -1.0593
 1005MOL0     H32660   4.560   2.114  -0.184 -0.6041  0.9045  1.2195
 1006MOL0     O32661   0.786   8.253   3.325 -0.4334 -0.2706 -0.1467
 1006MOL0     C32662   0.800   8.131   3.337 -0.4775  0.1142 -0.2351
 1006MOL0     O32663   0.711   8.043   3.363  0.4471  0.6511  0.2484
 1006MOL0     C32664   0.579   8.069   3.341 -0.1752 -0.3228  0.3236
 1006MOL0     C32665   0.497   8.030   3.450 -0.4926 -0.4764  0.0031
 1006MOL0     C32666   0.359   8.046   3.434  0.5086 -0.4503  0.5483
 1006MOL0     C32667   0.299   8.113   3.324  0.1056 -0.0804 -0.2968
 1006MOL0     O32668   0.164   8.129   3.310 -0.4154  0.2813 -0.2285
 1006MOL0     C32669   0.079   8.108   3.424  0.7319 -0.2744 -0.8596
 1006MOL0     C32670  -0.045   8.180   3.411  0.4030  0.3715 -0.0061
 1006MOL0     C32671  -0.117   8.216   3.546  0.0603 -0.6515  0.0457
 1006MOL0     C32672  -0.049   8.350   3.604 -1.6083 -0.5236 -0.3710
 1006MOL0     C32673  -0.095   8.390   3.742  1.1021  0.6969  0.0320
 1006MOL0     C32674  -0.250   8.414   3.741  0.4582  1.0688 -0.9309
 1006MOL0     C32675  -0.284   8.437   3.891  0.1375 -0.5114 -0.1475
 1006MOL0     C32676  -0.409   8.528   3.895  0.0093 -0.3748  0.1866
 1006MOL0     N32677  -0.527   8.482   3.815  0.1003  0.5617  0.0295
 1006MOL0     C32678  -0.579   8.348   3.811 -0.5335 -0.4353 -0.1584
 1006MOL0     C32679  -0.647   8.341   3.694  0.0939 -0.4875 -0.7766
 1006MOL0     C32680  -0.713   8.218   3.644 -0.3256  0.9369 -0.5295
 1006MOL0     C32681  -0.768   8.245   3.501 -0.7348 -0.1509 -0.8962
 1006MOL0     C32682  -0.899   8.337   3.496 -0.2976  0.0479 -0.0399
 1006MOL0     C32683  -1.013   8.313   3.598  0.2867  0.4885 -0.4912
 1006MOL0     O32684  -1.038   8.167   3.608  0.0962  0.9218  0.3203
 1006MOL0     C32685  -1.131   8.116   3.693  1.2097  0.0318 -0.0473
 1006MOL0     C32686  -1.162   7.978   3.686 -0.4449  0.2327 -0.7228
 1006MOL0     C32687  -1.258   7.923   3.767 -0.8806 -0.1655  0.4871
 1006MOL0     C32688  -1.325   8.004   3.862  0.2653  0.1286  0.0599
 1006MOL0     C32689  -1.418   7.950   3.960 -0.7537 -0.1418 -0.8072
 1006MOL0     O32690  -1.458   8.022   4.078 -0.5078  0.2436 -0.2566
 1006MOL0     C32691  -1.555   7.970   4.168  0.2006  1.1181  0.1822
 1006MOL0     C32692  -1.564   8.007   4.304  0.8238 -0.4521  0.9304
 1006MOL0     C32693  -1.655   7.954   4.395  0.2007 -0.5992  0.1994
 1006MOL0     C32694  -1.750   7.857   4.353 -1.0679 -0.4135  0.5312
 1006MOL0     O32695  -1.844   7.825   4.438  0.1513 -0.5639  0.2256
 1006MOL0     C32696  -1.866   7.685   4.452  0.5113  0.6068  0.0908
 1006MOL0     C32697  -2.015   7.661   4.504 -0.1831 -0.0652 -0.2325
 1006MOL0     C32698  -2.027   7.522   4.561  0.6190  0.4903 -0.6567
 1006MOL0     C32699  -2.161   7.494   4.610  0.9758  1.4144  1.0747
 1006MOL0     C32700  -2.179   7.347   4.647 -1.0340  1.2261 -0.8581
 1006MOL0     C32701  -2.324   7.287   4.639  0.0828  0.4812  0.2107
 1006MOL0     C32702  -2.418   7.363   4.723 -0.9118  0.6389  0.2147
 1006MOL0     C32703  -2.557   7.349   4.668 -0.7239 -0.1639 -0.4027
 1006MOL0    Cl32704  -2.666   7.417   4.800 -0.2916 -0.0936  0.5671
 1006MOL0     C32705  -1.749   7.823   4.212 -0.0716 -0.7789  0.5226
 1006MOL0     C32706  -1.659   7.892   4.124  0.3089  0.1609  0.1571
 1006MOL0     O32707  -1.461   7.835   3.934 -0.1378  0.3133  0.6836
 1006MOL0     C32708  -1.297   8.144   3.867  0.1639 -0.7689  0.6970
 1006MOL0     C32709  -1.209   8.200   3.776  1.4145 -0.5528 -0.8930
 1006MOL0     N32710  -0.626   8.461   3.631  0.3851  0.2808  0.4921
 1006MOL0     N32711  -0.564   8.543   3.702 -0.5209 -0.4195  0.7437
 1006MOL0     C32712   0.388   8.165   3.221 -0.1085 -0.4675 -0.2752
 1006MOL0     C32713   0.526   8.150   3.234  0.9765  0.0097  0.4406
 1006MOL0     C32714   0.933   8.078   3.318 -0.7306  0.3527 -0.1194
 1006MOL0     C32715   1.035   8.150   3.245  0.2823  0.5290  0.1057
 1006MOL0     C32716   1.164   8.105   3.225 -0.6200  0.4213 -0.0590
 1006MOL0     C32717   1.190   7.977   3.275  0.2255 -0.7421 -0.4670
 1006MOL0     O32718   1.314   7.912   3.264  1.0057  0.2159  0.3522
 1006MOL0     C32719   1.422   7.981   3.202 -0.5988 -0.1254 -0.1335
 1006MOL0     C32720   1.533   7.871   3.167  0.2659  0.4393 -0.5457
 1006MOL0     C32721   1.670   7.940   3.140 -0.3367  0.2464 -0.1938
 1006MOL0     C32722   1.773   7.839   3.086 -0.4333 -0.3331 -0.8100
 1006MOL0     C32723   1.898   7.902   3.086 -0.4827  0.1969  0.3180
 1006MOL0     C32724   1.994   7.980   3.093  0.9530  0.6022 -0.0692
 1006MOL0     C32725   1.094   7.900   3.341 -0.4753  0.3387  0.3800
 1006MOL0     C32726   0.974   7.949   3.367 -0.0085 -0.2398  0.3503
 1006MOL0     H32727   0.549   7.969   3.524  3.4938  1.6252 -0.7717
 1006MOL0     H32728   0.293   8.001   3.509  0.5909  0.3145  1.0913
 1006MOL0     H32729   0.125   8.140   3.518 -0.4037  0.7474 -0.6325
 1006MOL0     H32730   0.058   8.000   3.428  0.6398 -0.3344 -2.4972
 1006MOL0     H32731  -0.108   8.117   3.348  2.9076 -1.3052 -0.9996
 1006MOL0     H32732  -0.026   8.278   3.367 -2.5203  1.3862  0.7312
 1006MOL0     H32733  -0.114   8.127   3.610  1.1839 -1.0655 -0.5374
 1006MOL0     H32734  -0.218   8.238   3.511 -0.3325  0.7664  1.9239
 1006MOL0     H32735   0.058   8.332   3.619 -1.4528  2.0363  2.8683
 1006MOL0     H32736  -0.056   8.440   3.541 -1.1131 -0.7376 -0.7398
 1006MOL0     H32737  -0.038   8.479   3.768 -0.0951  0.9911  1.8081
 1006MOL0     H32738  -0.056   8.310   3.805  1.3424 -1.7571 -3.0013
 1006MOL0     H32739  -0.311   8.333   3.701 -0.4171  2.4568 -2.4859
 1006MOL0     H32740  -0.261   8.504   3.680  0.7304  0.6709 -1.5677
 1006MOL0     H32741  -0.303   8.342   3.942 -3.1397  0.1894  0.2073
 1006MOL0     H32742  -0.202   8.485   3.945 -0.2138 -0.5121  0.3968
 1006MOL0     H32743  -0.388   8.629   3.860  0.1048 -0.3289  0.3694
 1006MOL0     H32744  -0.453   8.543   3.994 -2.4373  1.1189 -1.0610
 1006MOL0     H32745  -0.573   8.266   3.882  0.1999 -0.7935 -0.6289
 1006MOL0     H32746  -0.799   8.175   3.696 -0.5610  1.0302 -0.8421
 1006MOL0     H32747  -0.643   8.134   3.632 -0.9704  0.4711 -1.1698
 1006MOL0     H32748  -0.792   8.145   3.464 -3.0516  0.3807 -0.9826
 1006MOL0     H32749  -0.693   8.298   3.442  0.1659 -1.0371 -0.5880
 1006MOL0     H32750  -0.868   8.441   3.512  0.3596  0.5096 -3.4166
 1006MOL0     H32751  -0.937   8.330   3.394 -0.6488  1.2066 -0.0040
 1006MOL0     H32752  -1.097   8.369   3.555 -0.0685  0.6851  0.4269
 1006MOL0     H32753  -0.992   8.344   3.701 -0.4700 -3.3961  1.0100
 1006MOL0     H32754  -1.113   7.918   3.609 -2.0879 -2.1854  0.0199
 1006MOL0     H32755  -1.253   7.815   3.763  3.3026 -0.1223  0.1259
 1006MOL0     H32756  -1.486   8.078   4.329  0.9766  0.4401 -1.7532
 1006MOL0     H32757  -1.670   7.991   4.496  1.9032  1.3035 -0.1734
 1006MOL0     H32758  -1.793   7.642   4.521  0.7097 -2.9033 -2.0265
 1006MOL0     H32759  -1.853   7.622   4.364  1.5839  0.4817  0.3251
 1006MOL0     H32760  -2.085   7.665   4.420 -0.0727 -0.6070 -0.3598
 1006MOL0     H32761  -2.033   7.735   4.582  2.4139 -1.3509  1.7622
 1006MOL0     H32762  -1.965   7.494   4.646  0.1096 -4.3202 -1.5463
 1006MOL0     H32763  -2.001   7.453   4.479 -0.3825  1.0508 -1.4674
 1006MOL0     H32764  -2.192   7.561   4.690  0.5063 -0.7204  2.7534
 1006MOL0     H32765  -2.242   7.502   4.537  0.9055  3.0897  1.2946
 1006MOL0     H32766  -2.145   7.342   4.750 -3.3073 -3.9360 -0.0469
 1006MOL0     H32767  -2.111   7.289   4.583 -0.3319 -0.4006  1.2456
 1006MOL0     H32768  -2.328   7.183   4.673 -0.4483  0.6023  0.5463
 1006MOL0     H32769  -2.353   7.273   4.535  3.2262  1.6224 -0.9260
 1006MOL0     H32770  -2.416   7.326   4.826 -0.6290  2.0758  0.7454
 1006MOL0     H32771  -2.390   7.469   4.727  4.0828 -0.3024 -1.8870
 1006MOL0     H32772  -2.581   7.246   4.638 -3.7931  0.6997 -1.2591
 1006MOL0     H32773  -2.573   7.401   4.574  1.0464 -0.5675 -0.9499
 1006MOL0     H32774  -1.822   7.752   4.174  0.5692 -1.3438  0.3007
 1006MOL0     H32775  -1.673   7.889   4.016  0.1342  1.6092  0.1136
 1006MOL0     H32776  -1.340   8.215   3.937 -0.9117  0.1704 -0.8467
 1006MOL0     H32777  -1.193   8.306   3.794  1.3116 -0.7250  0.2918
 1006MOL0     H32778   0.354   8.227   3.139  3.8002 -1.7555 -3.2179
 1006MOL0     H32779   0.592   8.193   3.158 -0.8066 -0.7675 -1.6526
 1006MOL0     H32780   1.006   8.245   3.200  1.4238  1.5823  1.5207
 1006MOL0     H32781   1.232   8.166   3.166 -3.1677  0.2466 -3.4511
 1006MOL0     H32782   1.470   8.060   3.262  4.6054 -2.6057 -0.4770
 1006MOL0     H32783   1.409   8.038   3.110  0.0147 -1.4411 -1.0679
 1006MOL0     H32784   1.536   7.793   3.244 -1.2124 -0.0568 -0.9447
 1006MOL0     H32785   1.493   7.810   3.084  0.2839  1.9945 -1.7384
 1006MOL0     H32786   1.710   7.990   3.229 -1.1085  2.0264 -0.8210
 1006MOL0     H32787   1.658   8.013   3.060 -3.8780  0.3650  0.3038
 1006MOL0     H32788   1.796   7.753   3.150  0.1068  0.6241  0.3303
 1006MOL0     H32789   1.749   7.797   2.988  3.2095 -0.6889 -1.7139
 1006MOL0     H32790   2.084   8.037   3.104  1.6899 -0.2811 -1.2937
 1006MOL0     H32791   1.123   7.799   3.369 -2.6113 -0.3712  0.1946
 1006MOL0     H32792   0.905   7.879   3.414 -0.2849  1.5875  2.8464
 1007MOL0     O32793   5.955   9.707  10.706 -0.4396 -0.2465 -0.0713
 1007MOL0     C32794   6.051   9.754  10.763 -0.8675 -1.1764 -0.8714
 1007MOL0     O32795   6.067   9.883  10.799 -0.6363  0.6986  0.1447
 1007MOL0     C32796   5.991   9.977  10.737 -0.2290  0.8570 -0.0211
 1007MOL0     C32797   6.049  10.066  10.645  0.2982  0.0159  0.3480
 1007MOL0     C32798   5.967  10.160  10.579 -0.3013  0.4154 -0.0187
 1007MOL0     C32799   5.827  10.170  10.604 -0.3581  0.1722  0.0388
 1007MOL0     O32800   5.761  10.257  10.534 -0.5280 -0.8115 -0.3791
 1007MOL0     C32801   5.661  10.186  10.453  0.1602 -0.4280  0.3922
 1007MOL0     C32802   5.612  10.283  10.341 -0.8568  0.8518  0.5963
 1007MOL0     C32803   5.461  10.262  10.305 -1.0972 -0.7853  0.1054
 1007MOL0     C32804   5.425  10.376  10.221 -0.8697 -0.1309  0.7257
 1007MOL0     C32805   5.277  10.370  10.168 -0.5594 -0.1799 -0.6298
 1007MOL0     C32806   5.230  10.512  10.134 -0.9390 -0.5782  0.0481
 1007MOL0     C32807   5.084  10.504  10.098  0.0079 -0.0895 -0.6211
 1007MOL0     C32808   5.006  10.628  10.078 -0.9374  0.1114  0.3627
 1007MOL0     N32809   5.043  10.699   9.954  0.0543  0.7728 -0.1699
 1007MOL0     C32810   4.961  10.773   9.869 -0.1486 -1.1562  0.6909
 1007MOL0     C32811   5.045  10.842   9.783  0.4468  1.2475  0.5954
 1007MOL0     C32812   5.008  10.931   9.666 -0.5925 -0.8338 -0.1935
 1007MOL0     C32813   5.023  10.846   9.536 -0.0935 -1.0749  1.1809
 1007MOL0     C32814   4.922  10.739   9.509 -0.6582 -0.1844  0.0927
 1007MOL0     C32815   4.792  10.804   9.480  0.6158  0.3810  0.6430
 1007MOL0     O32816   4.697  10.701   9.461 -0.1665 -0.4309 -0.0772
 1007MOL0     C32817   4.594  10.718   9.373  0.9652  0.7110 -0.6585
 1007MOL0     C32818   4.520  10.832   9.365 -0.0807 -1.3962  0.6996
 1007MOL0     C32819   4.413  10.842   9.282  0.1665  0.4741 -0.3713
 1007MOL0     C32820   4.358  10.730   9.215 -0.5779 -0.2587  0.5213
 1007MOL0     C32821   4.229  10.728   9.133 -1.0009 -0.4889  1.2520
 1007MOL0     O32822   4.182  10.853   9.107  0.2999 -0.7293 -0.6807
 1007MOL0     C32823   4.050  10.876   9.080 -0.4980  0.1770  0.2310
 1007MOL0     C32824   3.980  10.944   9.182  0.5043  0.3888  0.5355
 1007MOL0     C32825   3.844  10.965   9.189 -0.1463  0.3043  0.3808
 1007MOL0     C32826   3.771  10.927   9.075  0.0492  0.6893 -0.1163
 1007MOL0     O32827   3.630  10.943   9.060  0.5939  0.4175 -0.3842
 1007MOL0     C32828   3.555  10.880   9.166 -0.8112  1.0243  0.1382
 1007MOL0     C32829   3.409  10.891   9.121  0.4521  0.1266 -0.6342
 1007MOL0     C32830   3.366  10.782   9.022  0.1609 -0.0337  0.1617
 1007MOL0     C32831   3.230  10.797   8.956  0.1226 -1.0078 -1.0241
 1007MOL0     C32832   3.184  10.672   8.884 -1.0733 -0.4872 -0.0114
 1007MOL0     C32833   3.047  10.674   8.825 -0.3599  0.8987  0.4530
 1007MOL0     C32834   2.940  10.702   8.928 -0.2817  0.6662 -0.7204
 1007MOL0     C32835   2.803  10.697   8.855 -0.5319  0.1270  0.6811
 1007MOL0    Cl32836   2.676  10.726   8.972 -0.1357 -0.2932  0.2107
 1007MOL0     C32837   3.841  10.866   8.970 -0.6096  0.0972  0.8138
 1007MOL0     C32838   3.980  10.835   8.967  1.0835  0.7039 -0.5123
 1007MOL0     O32839   4.183  10.616   9.096  0.1992 -0.4345 -0.0058
 1007MOL0     C32840   4.441  10.613   9.223  0.3500  0.4019  0.5171
 1007MOL0     C32841   4.553  10.610   9.299  1.1653 -0.3533  0.5770
 1007MOL0     N32842   5.175  10.806   9.814  0.2651 -0.7635 -0.8440
 1007MOL0     N32843   5.171  10.738   9.918  0.2801 -0.5123  0.2398
 1007MOL0     C32844   5.769  10.088  10.697  0.2510  0.4944 -0.8754
 1007MOL0     C32845   5.844   9.989  10.760  0.3392  0.0317 -1.0641
 1007MOL0     C32846   6.160   9.658  10.785  0.3771 -1.0368 -0.9535
 1007MOL0     C32847   6.278   9.706  10.845 -0.4875 -0.1608  0.3277
 1007MOL0     C32848   6.383   9.618  10.859 -0.4510  1.7442 -0.5555
 1007MOL0     C32849   6.371   9.479  10.822  0.1299  0.2832  0.2450
 1007MOL0     O32850   6.484   9.405  10.839  0.4156 -0.0910 -0.0747
 1007MOL0     C32851   6.470   9.265  10.865  0.6327 -0.3193  0.0220
 1007MOL0     C32852   6.414   9.234  11.007 -0.7665 -0.0701  0.5192
 1007MOL0     C32853   6.510   9.269  11.117  0.3667 -0.0177  0.7188
 1007MOL0     C32854   6.470   9.222  11.253 -0.0004  0.1872  0.2252
 1007MOL0     C32855   6.555   9.283  11.357 -0.3588 -1.1861  0.0061
 1007MOL0     C32856   6.613   9.350  11.446  0.2787  0.8792  1.3964
 1007MOL0     C32857   6.251   9.436  10.766 -0.1431  0.2189 -0.3413
 1007MOL0     C32858   6.153   9.526  10.747  0.6577  0.1245  0.3134
 1007MOL0     H32859   6.153  10.057  10.617  0.9572  1.2656  2.1947
 1007MOL0     H32860   6.015  10.218  10.500  0.8920  2.3581  2.0374
 1007MOL0     H32861   5.576  10.153  10.513  0.3322 -0.7373  0.4672
 1007MOL0     H32862   5.708  10.101  10.403  1.1949 -1.3337  2.7614
 1007MOL0     H32863   5.695  10.271  10.271  0.2633 -1.0741  2.1576
 1007MOL0     H32864   5.620  10.373  10.403 -0.5159 -0.3752  2.3983
 1007MOL0     H32865   5.397  10.278  10.391 -2.6778  0.2715 -1.2124
 1007MOL0     H32866   5.449  10.161  10.266  1.9430 -2.6682  3.4089
 1007MOL0     H32867   5.426  10.458  10.293  0.5744 -1.3311  2.1522
 1007MOL0     H32868   5.496  10.391  10.139 -4.2045  0.2802 -2.3492
 1007MOL0     H32869   5.209  10.333  10.245  2.2677 -1.9721  1.1697
 1007MOL0     H32870   5.269  10.302  10.082 -2.5460 -0.5350 -0.2024
 1007MOL0     H32871   5.285  10.553  10.049 -0.6313  0.1348  0.5816
 1007MOL0     H32872   5.243  10.579  10.219  0.9859 -3.4839  2.2213
 1007MOL0     H32873   5.084  10.461   9.998  1.5914 -0.8041 -0.3402
 1007MOL0     H32874   5.036  10.433  10.167 -0.3991  0.5280 -0.2619
 1007MOL0     H32875   5.033  10.697  10.159 -0.0377 -0.2094  0.3409
 1007MOL0     H32876   4.902  10.595  10.075 -0.3238 -1.8688 -0.1849
 1007MOL0     H32877   4.854  10.777   9.889 -0.1711  3.0227  0.6422
 1007MOL0     H32878   5.076  11.017   9.660  1.5720 -2.5311 -1.3533
 1007MOL0     H32879   4.910  10.978   9.681 -0.9870 -1.2826 -1.2604
 1007MOL0     H32880   5.129  10.822   9.528  0.1988  0.8079 -2.7317
 1007MOL0     H32881   5.002  10.913   9.452  0.8244  0.4069  2.0914
 1007MOL0     H32882   4.958  10.680   9.424  0.5367  0.0615  0.4100
 1007MOL0     H32883   4.914  10.671   9.594  0.5371  0.3039  0.6173
 1007MOL0     H32884   4.791  10.859   9.385 -0.2551  0.6509  0.8033
 1007MOL0     H32885   4.755  10.872   9.557 -2.8478  1.3053 -1.6064
 1007MOL0     H32886   4.543  10.926   9.416  0.4844 -0.3842 -1.3148
 1007MOL0     H32887   4.379  10.944   9.270  2.6303  1.0784 -3.8345
 1007MOL0     H32888   4.043  10.979   9.263  1.3223 -1.7021  0.8762
 1007MOL0     H32889   3.797  11.025   9.265  0.4789  0.0736  0.9581
 1007MOL0     H32890   3.569  10.938   9.257 -0.7903  0.3584  0.5682
 1007MOL0     H32891   3.593  10.778   9.174  0.2804  1.3298 -0.8509
 1007MOL0     H32892   3.385  10.992   9.085 -2.1760 -0.3115 -0.2878
 1007MOL0     H32893   3.355  10.875   9.215  1.7158  1.8571  0.4700
 1007MOL0     H32894   3.359  10.691   9.081  2.2295  1.6048  3.2355
 1007MOL0     H32895   3.443  10.778   8.944 -0.2509  0.5836 -0.2843
 1007MOL0     H32896   3.160  10.818   9.038  0.2119 -4.8582  0.2073
 1007MOL0     H32897   3.234  10.885   8.890  1.7322  0.6634  1.1832
 1007MOL0     H32898   3.197  10.585   8.948 -1.1079  0.9345  2.0557
 1007MOL0     H32899   3.257  10.666   8.802  0.2328 -0.8051  1.1406
 1007MOL0     H32900   3.048  10.579   8.771  1.6937  0.3779  1.2976
 1007MOL0     H32901   3.044  10.753   8.750 -2.2486  0.3973 -0.0491
 1007MOL0     H32902   2.952  10.635   9.013 -0.3729  1.4776 -0.0465
 1007MOL0     H32903   2.968  10.797   8.974  1.2959 -0.3280  0.4411
 1007MOL0     H32904   2.784  10.598   8.812  0.6692  1.0274 -2.1678
 1007MOL0     H32905   2.809  10.759   8.766  1.7713  0.1499  0.7941
 1007MOL0     H32906   3.784  10.836   8.883  1.0245  0.5853 -0.4847
 1007MOL0     H32907   4.030  10.770   8.896  1.5400 -1.6190  1.7508
 1007MOL0     H32908   4.408  10.534   9.157 -0.1744  1.8495 -1.0181
 1007MOL0     H32909   4.610  10.518   9.300  2.0636  0.1948  0.8954
 1007MOL0     H32910   5.663  10.092  10.717 -0.0477  0.9758 -2.4219
 1007MOL0     H32911   5.806   9.909  10.822  2.8356 -2.1217 -2.1317
 1007MOL0     H32912   6.276   9.808  10.882  0.1562 -0.5808  1.5618
 1007MOL0     H32913   6.480   9.647  10.899 -0.5572  0.4934  0.6938
 1007MOL0     H32914   6.563   9.214  10.840 -0.0216 -1.3714 -0.3016
 1007MOL0     H32915   6.400   9.213  10.799 -1.6103  0.1632  1.9159
 1007MOL0     H32916   6.325   9.294  11.030 -0.3078 -0.4159  3.5414
 1007MOL0     H32917   6.405   9.126  11.013  0.6526 -0.2974 -0.7868
 1007MOL0     H32918   6.506   9.379  11.121 -1.7968  0.0834 -1.5259
 1007MOL0     H32919   6.616   9.250  11.096  0.1683 -1.2841  0.8039
 1007MOL0     H32920   6.362   9.232  11.267 -0.4309 -2.8835 -0.0641
 1007MOL0     H32921   6.489   9.115  11.241 -3.0427 -0.4922  0.5308
 1007MOL0     H32922   6.669   9.376  11.533 -0.2275  0.1177  1.9672
 1007MOL0     H32923   6.241   9.342  10.714 -1.6785 -0.0764  0.4497
 1007MOL0     H32924   6.063   9.504  10.691  1.1211 -0.2027 -0.3199
 1008MOL0     O32925   7.622   1.122   5.479  0.5711 -0.2737 -0.5525
 1008MOL0     C32926   7.658   1.066   5.582  0.6101  0.2060 -0.6782
 1008MOL0     O32927   7.609   1.068   5.710  1.1081  0.0841 -0.8968
 1008MOL0     C32928   7.487   1.129   5.735  0.7003 -0.0616 -0.3699
 1008MOL0     C32929   7.384   1.059   5.808  0.5083 -0.5697  0.4196
 1008MOL0     C32930   7.269   1.125   5.834  0.2613  0.0601 -0.3568
 1008MOL0     C32931   7.236   1.257   5.798 -0.5415 -1.2933 -0.5729
 1008MOL0     O32932   7.120   1.317   5.824 -0.0063  0.0156 -0.4359
 1008MOL0     C32933   6.998   1.259   5.786 -0.4480 -0.3895 -0.6443
 1008MOL0     C32934   6.902   1.370   5.751  0.0084 -0.1852  0.0026
 1008MOL0     C32935   6.770   1.311   5.697 -0.1820 -0.0830  0.3555
 1008MOL0     C32936   6.681   1.409   5.634 -0.0192  0.1881 -0.9904
 1008MOL0     C32937   6.545   1.338   5.603 -0.6518 -0.1590  0.6054
 1008MOL0     C32938   6.452   1.437   5.535 -0.5988  0.1467 -0.6053
 1008MOL0     C32939   6.511   1.491   5.409 -0.1984 -0.2707  1.4753
 1008MOL0     C32940   6.404   1.469   5.296 -0.3100 -0.0617  0.8892
 1008MOL0     N32941   6.277   1.554   5.311 -0.4567  0.3837 -0.0967
 1008MOL0     C32942   6.161   1.514   5.375 -0.0537 -0.3265  0.8361
 1008MOL0     C32943   6.080   1.626   5.377 -0.0801  0.2044 -0.5968
 1008MOL0     C32944   5.945   1.640   5.447 -0.0093  0.5763 -0.1134
 1008MOL0     C32945   5.836   1.682   5.356 -0.3242  0.1441  0.2865
 1008MOL0     C32946   5.841   1.823   5.276  0.5084 -0.5253 -1.5246
 1008MOL0     C32947   5.906   1.940   5.356 -0.3880  0.3795  0.1635
 1008MOL0     O32948   5.827   1.951   5.481 -0.8977 -0.0520  1.1551
 1008MOL0     C32949   5.729   2.045   5.469 -0.3493 -0.2043  0.3539
 1008MOL0     C32950   5.761   2.183   5.462  0.1394  1.0190  0.0739
 1008MOL0     C32951   5.655   2.274   5.454  0.1016  0.0846 -0.6661
 1008MOL0     C32952   5.527   2.220   5.447 -0.1214 -0.0849 -0.2452
 1008MOL0     C32953   5.416   2.320   5.442  0.0762  0.9022  0.2373
 1008MOL0     O32954   5.417   2.424   5.527  0.4542  0.1848 -0.2671
 1008MOL0     C32955   5.309   2.505   5.529  0.4008 -0.8104  0.3722
 1008MOL0     C32956   5.187   2.456   5.563  0.1317 -0.3903  0.1885
 1008MOL0     C32957   5.071   2.522   5.571 -0.8153 -0.9051 -0.0689
 1008MOL0     C32958   5.075   2.661   5.538  0.5116 -0.0103  0.6042
 1008MOL0     O32959   4.976   2.752   5.540  0.0369  0.0443 -1.1428
 1008MOL0     C32960   4.842   2.704   5.535  1.2043 -0.1043 -0.3594
 1008MOL0     C32961   4.740   2.804   5.492  1.5721  0.4398 -0.0409
 1008MOL0     C32962   4.744   2.934   5.571  1.0533 -0.0772  0.2079
 1008MOL0     C32963   4.601   3.002   5.544  0.0551  0.2620  0.0014
 1008MOL0     C32964   4.597   3.139   5.617 -0.3801  0.4123 -0.0595
 1008MOL0     C32965   4.649   3.259   5.529 -0.1053  0.1481  0.0586
 1008MOL0     C32966   4.635   3.394   5.598 -0.9122  0.0701  0.5058
 1008MOL0     C32967   4.714   3.502   5.530  0.4532 -0.8452  0.2065
 1008MOL0    Cl32968   4.891   3.479   5.557 -0.0116  0.1071 -0.3677
 1008MOL0     C32969   5.195   2.711   5.495  0.5939  0.6242  0.9329
 1008MOL0     C32970   5.314   2.640   5.495 -0.0613 -0.1975  0.3634
 1008MOL0     O32971   5.330   2.294   5.358 -0.5270  0.2238  0.0665
 1008MOL0     C32972   5.502   2.087   5.445 -1.0914  0.0082 -0.5354
 1008MOL0     C32973   5.603   1.996   5.447  0.1297  0.9576  0.6141
 1008MOL0     N32974   6.145   1.725   5.298  0.3175 -0.5851  0.3499
 1008MOL0     N32975   6.251   1.672   5.256  0.2815  0.5269 -0.2516
 1008MOL0     C32976   7.338   1.323   5.726  1.1312  0.5681  0.4615
 1008MOL0     C32977   7.462   1.267   5.702 -0.9319  0.1266 -0.4307
 1008MOL0     C32978   7.781   0.991   5.567 -0.3506  1.5725  0.1641
 1008MOL0     C32979   7.843   0.920   5.682  0.3737 -0.3231  0.1970
 1008MOL0     C32980   7.956   0.846   5.670  0.5260  1.0358  0.5126
 1008MOL0     C32981   8.020   0.854   5.545  1.0521 -0.7551  0.8371
 1008MOL0     O32982   8.139   0.793   5.510 -0.5103 -1.1338  0.2622
 1008MOL0     C32983   8.195   0.728   5.625 -0.0155 -0.3635  0.0713
 1008MOL0     C32984   8.331   0.659   5.591 -0.6174  0.1172 -0.9381
 1008MOL0     C32985   8.439   0.759   5.548 -0.6205  0.0795  0.0067
 1008MOL0     C32986   8.575   0.687   5.556  0.7008  0.1957 -0.4101
 1008MOL0     C32987   8.586   0.582   5.452  0.1821 -1.2449  0.1624
 1008MOL0     C32988   8.603   0.502   5.364 -0.6721 -0.0763 -0.0674
 1008MOL0     C32989   7.964   0.910   5.442  0.8646 -0.0901  0.4031
 1008MOL0     C32990   7.851   0.988   5.450 -0.5201 -0.0959  0.8256
 1008MOL0     H32991   7.417   0.964   5.848  2.0292 -1.2051 -2.1014
 1008MOL0     H32992   7.191   1.077   5.892  0.1748 -1.1147 -1.4135
 1008MOL0     H32993   6.961   1.211   5.877  0.5049  2.0082  1.1158
 1008MOL0     H32994   7.021   1.203   5.695  1.1602  0.3364 -0.7184
 1008MOL0     H32995   6.941   1.436   5.673 -0.1411  0.1248  0.1867
 1008MOL0     H32996   6.876   1.432   5.838  2.1728  0.1503  0.4654
 1008MOL0     H32997   6.712   1.261   5.775 -1.5805 -2.8823 -2.2362
 1008MOL0     H32998   6.784   1.229   5.626 -2.7498 -1.3044  1.1272
 1008MOL0     H32999   6.661   1.491   5.704 -0.9044 -1.0053  0.2048
 1008MOL0     H33000   6.719   1.442   5.537 -2.0434 -0.5046 -2.0828
 1008MOL0     H33001   6.507   1.303   5.700 -1.1292  0.0992  0.5175
 1008MOL0     H33002   6.557   1.254   5.533  1.2477 -0.0442  0.7462
 1008MOL0     H33003   6.439   1.511   5.614  0.2634 -0.4379  0.1068
 1008MOL0     H33004   6.356   1.384   5.532 -1.5439  1.6542  1.0409
 1008MOL0     H33005   6.542   1.595   5.408 -1.6160  0.1648  0.3364
 1008MOL0     H33006   6.600   1.442   5.370 -0.3413 -0.4632  1.3872
 1008MOL0     H33007   6.372   1.365   5.287  0.2838 -0.1331 -0.5775
 1008MOL0     H33008   6.455   1.500   5.204 -0.3821  1.0701  1.2109
 1008MOL0     H33009   6.144   1.416   5.419 -0.0581 -1.5012 -1.6180
 1008MOL0     H33010   5.953   1.712   5.529 -0.9263  3.4281 -2.3690
 1008MOL0     H33011   5.914   1.547   5.496 -1.3064  1.1946  0.2674
 1008MOL0     H33012   5.742   1.682   5.411 -0.3947  0.2211  0.1655
 1008MOL0     H33013   5.844   1.610   5.274  2.8357 -0.0175  0.6107
 1008MOL0     H33014   5.907   1.827   5.189  1.8161  1.3866 -0.4863
 1008MOL0     H33015   5.741   1.836   5.233  0.1771 -1.5436 -1.1108
 1008MOL0     H33016   5.914   2.032   5.299  4.0010 -0.3653 -0.7443
 1008MOL0     H33017   6.012   1.918   5.372 -0.4250  1.3947  2.1148
 1008MOL0     H33018   5.869   2.187   5.473  0.0788  0.0617  1.2781
 1008MOL0     H33019   5.675   2.380   5.442  0.0308 -0.1727 -3.5838
 1008MOL0     H33020   5.176   2.352   5.593  0.9390 -0.1470  1.3964
 1008MOL0     H33021   4.985   2.468   5.609 -0.8030  0.6243  2.2972
 1008MOL0     H33022   4.813   2.665   5.634 -2.4015 -1.6410 -1.8470
 1008MOL0     H33023   4.826   2.615   5.474 -1.5340  0.8592 -1.1456
 1008MOL0     H33024   4.639   2.762   5.495  1.6560 -0.0560  5.1099
 1008MOL0     H33025   4.766   2.838   5.392 -0.6340  2.8964  0.0867
 1008MOL0     H33026   4.817   3.004   5.529 -2.6877  2.3990 -2.8730
 1008MOL0     H33027   4.755   2.916   5.679  2.3085  0.2627  0.1539
 1008MOL0     H33028   4.587   3.007   5.436 -1.2968 -1.8363  0.0162
 1008MOL0     H33029   4.514   2.942   5.571 -1.2406  2.7177  1.6609
 1008MOL0     H33030   4.643   3.131   5.716 -1.4234 -0.3737  0.3811
 1008MOL0     H33031   4.491   3.154   5.640 -0.5782 -1.7274  0.6702
 1008MOL0     H33032   4.573   3.249   5.451 -1.2286 -1.8639  1.3447
 1008MOL0     H33033   4.754   3.255   5.499  0.3995  1.3664  1.5205
 1008MOL0     H33034   4.531   3.425   5.601 -0.1629  2.9910 -0.3278
 1008MOL0     H33035   4.666   3.388   5.702 -0.1371  0.3334  0.3025
 1008MOL0     H33036   4.686   3.600   5.569  2.2075 -0.1556 -0.1369
 1008MOL0     H33037   4.696   3.510   5.422  0.3417  2.9498  0.3865
 1008MOL0     H33038   5.204   2.816   5.468 -2.1319  1.1162  1.5836
 1008MOL0     H33039   5.405   2.680   5.453  0.1042 -0.5904  0.3390
 1008MOL0     H33040   5.405   2.038   5.446 -1.4786  0.6784  2.0818
 1008MOL0     H33041   5.579   1.890   5.447  1.0147  0.7420  1.5703
 1008MOL0     H33042   7.321   1.429   5.712  0.0549  0.5557  1.5479
 1008MOL0     H33043   7.543   1.333   5.671  0.9203 -1.2058  1.3253
 1008MOL0     H33044   7.795   0.928   5.780  0.0400  1.8395 -0.1124
 1008MOL0     H33045   7.996   0.810   5.765  0.8401 -1.3163 -0.4354
 1008MOL0     H33046   8.135   0.641   5.654  3.0782 -2.4412  0.7898
 1008MOL0     H33047   8.208   0.793   5.711 -0.4981 -2.3148  1.6935
 1008MOL0     H33048   8.368   0.612   5.682 -1.2400  0.6794 -0.3920
 1008MOL0     H33049   8.311   0.580   5.518  3.1384 -1.4742 -0.5104
 1008MOL0     H33050   8.444   0.851   5.607  0.2071  0.6703 -0.9479
 1008MOL0     H33051   8.415   0.784   5.444 -1.1818 -1.5694 -0.2868
 1008MOL0     H33052   8.654   0.761   5.541 -1.6820  3.6154  2.1089
 1008MOL0     H33053   8.596   0.638   5.651  4.6120 -0.7168 -1.5639
 1008MOL0     H33054   8.622   0.435   5.283  0.2299 -1.0864  0.9271
 1008MOL0     H33055   8.022   0.893   5.352  2.4411 -2.3415  1.7609
 1008MOL0     H33056   7.831   1.027   5.351  0.0993 -0.4904  0.5351
 1009MOL0     O33057   1.881   3.252   4.167 -0.3407 -0.9023 -0.1358
 1009MOL0     C33058   1.842   3.141   4.214 -0.7172  0.0172  0.3822
 1009MOL0     O33059   1.738   3.070   4.176 -0.0096 -0.1362  0.6379
 1009MOL0     C33060   1.637   3.128   4.098  0.5352  0.9109  0.1160
 1009MOL0     C33061   1.584   3.069   3.982  0.4412 -0.5603 -0.8113
 1009MOL0     C33062   1.479   3.142   3.909  0.5054 -0.5645 -0.4606
 1009MOL0     C33063   1.432   3.264   3.968 -0.0493  0.0440  0.1186
 1009MOL0     O33064   1.347   3.334   3.894 -0.8075 -0.2269 -0.3172
 1009MOL0     C33065   1.399   3.459   3.845  0.4680  0.5358  0.6797
 1009MOL0     C33066   1.328   3.530   3.732  0.1959 -0.2593 -0.3989
 1009MOL0     C33067   1.223   3.434   3.661  0.8960 -0.0616 -0.2582
 1009MOL0     C33068   1.165   3.515   3.545  0.4826 -0.2823  0.0422
 1009MOL0     C33069   1.066   3.422   3.468  0.8336 -0.1643 -0.0580
 1009MOL0     C33070   1.003   3.491   3.343 -0.9370  0.4628  0.0219
 1009MOL0     C33071   0.912   3.411   3.245 -0.1646 -0.5091 -0.8922
 1009MOL0     C33072   0.783   3.361   3.313  0.2946  0.2299 -0.0317
 1009MOL0     N33073   0.697   3.280   3.231  0.3936  0.0020  0.5019
 1009MOL0     C33074   0.594   3.326   3.150 -0.2027 -0.4119  0.3168
 1009MOL0     C33075   0.562   3.219   3.070  0.5583 -0.2505 -0.6281
 1009MOL0     C33076   0.466   3.241   2.960  1.3660  0.9131 -0.5206
 1009MOL0     C33077   0.329   3.159   2.978 -0.5299 -0.6316 -0.4014
 1009MOL0     C33078   0.250   3.165   2.847  1.1990 -0.5548  0.5374
 1009MOL0     C33079   0.205   3.308   2.801 -0.8773  0.2468  0.2806
 1009MOL0     O33080   0.146   3.387   2.901 -0.4528 -0.2722 -0.7132
 1009MOL0     C33081   0.013   3.372   2.930 -0.6302  1.0613 -0.3020
 1009MOL0     C33082  -0.064   3.278   2.864  0.1106 -0.2338 -0.3604
 1009MOL0     C33083  -0.198   3.252   2.906  0.6063  0.6776  0.6490
 1009MOL0     C33084  -0.265   3.344   2.996 -0.8028 -0.9096  0.4607
 1009MOL0     C33085  -0.405   3.335   3.013  0.2431 -1.2784  0.6968
 1009MOL0     O33086  -0.472   3.455   3.034  0.2725 -0.4079  0.8624
 1009MOL0     C33087  -0.606   3.476   3.040 -0.1020  0.2111  0.8111
 1009MOL0     C33088  -0.702   3.374   3.066 -0.6445 -0.1520 -0.4903
 1009MOL0     C33089  -0.835   3.406   3.064  0.1888  0.2382 -0.1696
 1009MOL0     C33090  -0.880   3.540   3.065 -0.1910  0.1349  0.1031
 1009MOL0     O33091  -1.014   3.567   3.089  0.0121  0.0185 -0.8125
 1009MOL0     C33092  -1.025   3.613   3.228 -0.1194  0.0510 -0.5075
 1009MOL0     C33093  -1.116   3.534   3.311  0.0513  0.3403  0.1952
 1009MOL0     C33094  -1.258   3.558   3.253  0.2734  0.6550 -0.4408
 1009MOL0     C33095  -1.356   3.459   3.328  0.3329 -0.3295 -0.5884
 1009MOL0     C33096  -1.499   3.511   3.290 -0.6849  0.0252 -0.0340
 1009MOL0     C33097  -1.601   3.427   3.363  0.3161  0.4143 -0.3933
 1009MOL0     C33098  -1.744   3.479   3.348  0.1397  0.5038 -0.4610
 1009MOL0     C33099  -1.845   3.381   3.405 -0.3168 -0.0546  0.2744
 1009MOL0    Cl33100  -2.013   3.453   3.378 -0.1585 -0.1290 -0.1974
 1009MOL0     C33101  -0.786   3.649   3.049  0.3298 -0.2610  0.3973
 1009MOL0     C33102  -0.644   3.611   3.041  0.6803  0.0371  0.3007
 1009MOL0     O33103  -0.460   3.224   3.018  0.1344 -0.0820 -0.4593
 1009MOL0     C33104  -0.180   3.438   3.064  0.0346 -0.1253 -0.2124
 1009MOL0     C33105  -0.051   3.446   3.030  0.0725 -0.5841  0.5754
 1009MOL0     N33106   0.647   3.111   3.097  0.3549  0.4977  0.0035
 1009MOL0     N33107   0.737   3.154   3.185  0.2768 -0.5067 -1.0891
 1009MOL0     C33108   1.491   3.319   4.078 -0.2739 -0.3545 -0.6281
 1009MOL0     C33109   1.587   3.245   4.155  0.5761  0.2579  0.2075
 1009MOL0     C33110   1.920   3.079   4.325 -0.5142  0.3642  0.0130
 1009MOL0     C33111   2.051   3.114   4.347  0.1404  0.0435 -0.0267
 1009MOL0     C33112   2.126   3.052   4.453  0.1463 -0.3331  0.0670
 1009MOL0     C33113   2.069   2.946   4.526  0.0849  0.5899  0.3448
 1009MOL0     O33114   2.139   2.893   4.624 -0.2196  0.5965 -0.1912
 1009MOL0     C33115   2.129   2.968   4.743 -0.1969 -0.3365 -0.2353
 1009MOL0     C33116   2.143   2.867   4.857 -0.4080 -0.5427  0.2582
 1009MOL0     C33117   2.292   2.823   4.881 -0.0040 -0.0938  0.0547
 1009MOL0     C33118   2.320   2.802   5.026  0.4082 -0.5587  0.4480
 1009MOL0     C33119   2.241   2.686   5.089 -0.1465 -0.3690  0.7399
 1009MOL0     C33120   2.175   2.595   5.143 -0.4178  0.5171 -0.5788
 1009MOL0     C33121   1.946   2.893   4.485  0.1533  0.1301  0.0029
 1009MOL0     C33122   1.874   2.963   4.398  1.1804  0.4323  0.9126
 1009MOL0     H33123   1.618   2.973   3.942  0.1423 -1.2271  0.4849
 1009MOL0     H33124   1.435   3.087   3.826  0.2434 -4.3074  1.9101
 1009MOL0     H33125   1.499   3.438   3.807  0.4794  0.8186  0.5557
 1009MOL0     H33126   1.404   3.535   3.924  0.5618  2.2879 -0.9538
 1009MOL0     H33127   1.399   3.572   3.660  2.2537 -2.6028  0.1525
 1009MOL0     H33128   1.287   3.621   3.779 -1.1102 -0.5079 -1.0064
 1009MOL0     H33129   1.140   3.409   3.727  0.6267  2.0036  0.2295
 1009MOL0     H33130   1.267   3.336   3.640  0.0053 -0.8082  1.1861
 1009MOL0     H33131   1.102   3.598   3.580 -0.9540 -1.2947 -0.0841
 1009MOL0     H33132   1.243   3.560   3.483  0.9627 -2.0915 -0.7191
 1009MOL0     H33133   0.990   3.393   3.541  2.4062 -0.8080  1.3893
 1009MOL0     H33134   1.108   3.325   3.441  0.2236 -0.3728 -0.2846
 1009MOL0     H33135   1.076   3.532   3.273  2.1471 -1.3717  1.9491
 1009MOL0     H33136   0.959   3.584   3.380 -0.2399  0.0810  1.9101
 1009MOL0     H33137   0.887   3.465   3.154 -2.5828 -3.1200 -1.9160
 1009MOL0     H33138   0.982   3.334   3.210  4.4180  3.1272 -0.7201
 1009MOL0     H33139   0.724   3.447   3.346 -0.6923 -0.7271  0.7587
 1009MOL0     H33140   0.813   3.301   3.399  0.2279 -1.4070 -1.1084
 1009MOL0     H33141   0.553   3.426   3.146 -0.2486 -0.4575 -1.0888
 1009MOL0     H33142   0.520   3.225   2.867  1.4888 -1.1062 -0.1376
 1009MOL0     H33143   0.436   3.346   2.969  0.5837  0.8126 -1.7855
 1009MOL0     H33144   0.274   3.203   3.061 -0.8061  1.2702 -1.5428
 1009MOL0     H33145   0.341   3.054   3.008 -0.2596 -0.5306 -0.1594
 1009MOL0     H33146   0.310   3.120   2.767 -0.9653  0.6713 -1.8962
 1009MOL0     H33147   0.160   3.105   2.861  1.3105 -1.0676 -0.8392
 1009MOL0     H33148   0.133   3.306   2.719 -1.1084  0.1077  0.4854
 1009MOL0     H33149   0.299   3.353   2.766 -0.9388  0.0175 -0.1937
 1009MOL0     H33150  -0.034   3.217   2.779  1.7961 -1.3771  0.9838
 1009MOL0     H33151  -0.263   3.185   2.852 -1.6498  2.4184  1.0457
 1009MOL0     H33152  -0.664   3.272   3.066  1.5102  0.5423  1.4906
 1009MOL0     H33153  -0.910   3.330   3.084 -1.7771  1.7982 -1.1976
 1009MOL0     H33154  -1.063   3.715   3.222  0.3227  0.4186  2.0042
 1009MOL0     H33155  -0.926   3.630   3.272  0.5672  2.3953 -2.6858
 1009MOL0     H33156  -1.113   3.560   3.417  0.6746  0.7028  0.0873
 1009MOL0     H33157  -1.089   3.428   3.306 -2.6135 -0.3994 -0.8644
 1009MOL0     H33158  -1.264   3.528   3.148  3.6421 -0.5936 -0.3692
 1009MOL0     H33159  -1.302   3.658   3.263 -3.0900 -0.3613 -3.1038
 1009MOL0     H33160  -1.346   3.358   3.288 -2.3208 -1.1447  0.5910
 1009MOL0     H33161  -1.341   3.473   3.435 -1.9992 -1.1842 -0.0787
 1009MOL0     H33162  -1.516   3.513   3.182  0.7201  2.0821 -0.2752
 1009MOL0     H33163  -1.509   3.616   3.320  0.5000 -0.3208  1.6618
 1009MOL0     H33164  -1.568   3.437   3.467 -0.6880  0.2485 -0.0467
 1009MOL0     H33165  -1.584   3.326   3.327  1.0427 -0.3508  1.8793
 1009MOL0     H33166  -1.749   3.574   3.400 -0.1285 -0.8240  2.1011
 1009MOL0     H33167  -1.775   3.484   3.243 -5.2010 -0.0441  0.7703
 1009MOL0     H33168  -1.837   3.364   3.513  1.3870 -1.4168 -0.0213
 1009MOL0     H33169  -1.847   3.283   3.357 -0.8337  1.1489 -2.3280
 1009MOL0     H33170  -0.814   3.753   3.032  1.7402  0.0857  0.1042
 1009MOL0     H33171  -0.569   3.685   3.017 -0.5883  0.7430 -1.6670
 1009MOL0     H33172  -0.232   3.516   3.119 -0.6474  2.3554 -3.9141
 1009MOL0     H33173   0.009   3.525   3.075 -0.2369  0.2503 -0.4119
 1009MOL0     H33174   1.453   3.419   4.100 -0.2113 -0.5223  0.2510
 1009MOL0     H33175   1.642   3.296   4.234  1.8205  2.0174 -1.6817
 1009MOL0     H33176   2.098   3.195   4.293  1.9746  0.7029  2.3875
 1009MOL0     H33177   2.226   3.087   4.479 -0.1890  0.9139 -0.2701
 1009MOL0     H33178   2.033   3.020   4.744  0.2595  0.6213  2.3930
 1009MOL0     H33179   2.210   3.040   4.759  1.3381 -2.3485  1.9355
 1009MOL0     H33180   2.101   2.902   4.951  0.5212  1.9627 -0.1816
 1009MOL0     H33181   2.091   2.776   4.825  0.1126 -0.4363 -0.9506
 1009MOL0     H33182   2.365   2.901   4.858 -1.0589  2.4228  4.2991
 1009MOL0     H33183   2.319   2.731   4.827 -2.6380 -0.1487 -1.3259
 1009MOL0     H33184   2.426   2.784   5.044 -0.1785 -1.3888  3.5981
 1009MOL0     H33185   2.303   2.889   5.090  0.9132 -0.8832  1.0304
 1009MOL0     H33186   2.156   2.503   5.196  8.1328 -1.7409  0.0647
 1009MOL0     H33187   1.885   2.813   4.525 -0.1615 -0.9671 -2.4830
 1009MOL0     H33188   1.776   2.923   4.373  0.7680  1.1740  1.3005
 1010MOL0     O33189  11.353   2.662   4.129 -0.8636  0.0506 -0.3477
 1010MOL0     C33190  11.383   2.700   4.244 -0.3469  0.0888  0.4727
 1010MOL0     O33191  11.299   2.760   4.343  0.1383 -0.4841  0.7612
 1010MOL0     C33192  11.169   2.747   4.320  0.7190  0.1796  0.0723
 1010MOL0     C33193  11.105   2.821   4.222 -0.5970  0.1140  0.5233
 1010MOL0     C33194  10.967   2.804   4.202  0.1461  0.3733  0.2303
 1010MOL0     C33195  10.898   2.712   4.284  0.7333  0.9773 -0.5820
 1010MOL0     O33196  10.765   2.691   4.260 -0.1667  1.0045 -0.7936
 1010MOL0     C33197  10.681   2.737   4.369 -0.7821 -0.1503  0.7588
 1010MOL0     C33198  10.550   2.780   4.306 -0.0376 -0.2852  1.0502
 1010MOL0     C33199  10.561   2.901   4.216  0.3552  0.0302  0.2041
 1010MOL0     C33200  10.440   2.962   4.153  0.0717  0.4421  0.1059
 1010MOL0     C33201  10.369   2.869   4.063  0.2726  0.0372 -0.3062
 1010MOL0     C33202  10.249   2.943   4.005  0.5505  0.6169  0.4855
 1010MOL0     C33203  10.178   2.867   3.896 -0.1892  0.4439 -0.0108
 1010MOL0     C33204  10.139   2.724   3.920 -0.1496 -0.0431 -0.4395
 1010MOL0     N33205  10.029   2.678   3.840  0.2470 -0.3648  0.2147
 1010MOL0     C33206  10.046   2.645   3.706  0.2080 -0.1374  0.2987
 1010MOL0     C33207   9.925   2.612   3.662  0.1122  0.0393  0.0634
 1010MOL0     C33208   9.876   2.550   3.531  0.5265  1.5982  0.0102
 1010MOL0     C33209   9.966   2.427   3.504 -0.5894  0.3567  1.0780
 1010MOL0     C33210   9.943   2.309   3.588  0.1373  0.4778 -0.5495
 1010MOL0     C33211  10.035   2.191   3.568  0.4935 -0.0412  0.1077
 1010MOL0     O33212  10.002   2.125   3.448 -0.7946  0.0278 -0.5237
 1010MOL0     C33213   9.926   2.008   3.469 -0.4586 -0.1819  0.2429
 1010MOL0     C33214   9.986   1.889   3.427  0.1615  0.1077 -0.8888
 1010MOL0     C33215   9.913   1.765   3.428  0.4683 -0.0004  0.1783
 1010MOL0     C33216   9.784   1.769   3.490 -0.3331 -0.2323 -0.2981
 1010MOL0     C33217   9.702   1.642   3.507 -0.5373 -0.4595 -1.6019
 1010MOL0     O33218   9.762   1.539   3.447 -0.7593 -0.6294 -0.2428
 1010MOL0     C33219   9.705   1.419   3.422 -0.0711 -0.3212  0.5340
 1010MOL0     C33220   9.604   1.353   3.492 -0.4319 -0.1049  0.3609
 1010MOL0     C33221   9.568   1.223   3.464 -0.6471  0.5768 -0.3600
 1010MOL0     C33222   9.635   1.148   3.376 -0.3258 -0.3938  0.1994
 1010MOL0     O33223   9.628   1.018   3.352  0.8556  0.3336  0.0586
 1010MOL0     C33224   9.509   0.951   3.397  0.3677  1.3019  0.5892
 1010MOL0     C33225   9.503   0.814   3.328 -0.8071 -0.6872 -0.5340
 1010MOL0     C33226   9.616   0.723   3.380 -0.0013  0.6937  0.0143
 1010MOL0     C33227   9.585   0.573   3.332  0.2768 -0.2244  0.5536
 1010MOL0     C33228   9.694   0.473   3.383  0.7137 -0.4387  1.1641
 1010MOL0     C33229   9.654   0.326   3.389 -0.6989  0.1076 -0.1946
 1010MOL0     C33230   9.616   0.246   3.258 -0.5915  0.7539  0.0391
 1010MOL0     C33231   9.737   0.207   3.174 -0.4007 -0.4350  0.3664
 1010MOL0    Cl33232   9.797   0.344   3.061 -0.2488  0.3806  0.0749
 1010MOL0     C33233   9.716   1.217   3.286  0.3181  0.1893 -0.4099
 1010MOL0     C33234   9.754   1.347   3.308  0.4812 -0.7350 -0.0251
 1010MOL0     O33235   9.600   1.641   3.580 -0.1786  0.7148  0.5819
 1010MOL0     C33236   9.725   1.894   3.515  0.2333  0.4127  0.2240
 1010MOL0     C33237   9.792   2.009   3.499  0.2386 -0.4811  0.1918
 1010MOL0     N33238   9.834   2.619   3.771  0.6982 -1.0491  0.4376
 1010MOL0     N33239   9.900   2.667   3.873  0.7339 -0.0265  0.2087
 1010MOL0     C33240  10.956   2.635   4.379 -0.5842 -0.4008  0.3700
 1010MOL0     C33241  11.091   2.661   4.398  0.3470 -0.1267  0.2349
 1010MOL0     C33242  11.526   2.682   4.292 -1.5923 -0.8341  0.2489
 1010MOL0     C33243  11.574   2.759   4.401  0.9887 -0.5337  1.0248
 1010MOL0     C33244  11.705   2.744   4.444  0.1968 -0.0650  0.8229
 1010MOL0     C33245  11.791   2.659   4.382  0.4116  0.6269 -0.3224
 1010MOL0     O33246  11.919   2.663   4.432 -0.4138  0.4932  0.2596
 1010MOL0     C33247  12.010   2.549   4.407 -0.5628 -0.5457 -0.5274
 1010MOL0     C33248  12.157   2.582   4.421 -0.7212  0.5687  0.2905
 1010MOL0     C33249  12.204   2.590   4.572  0.8707  0.1760  0.1094
 1010MOL0     C33250  12.355   2.598   4.585 -0.0914 -0.0899 -0.4008
 1010MOL0     C33251  12.419   2.470   4.607 -0.4252 -0.2457  0.0934
 1010MOL0     C33252  12.491   2.374   4.633  1.4108 -0.2322  0.1325
 1010MOL0     C33253  11.749   2.593   4.263 -0.0837 -0.3364 -0.6311
 1010MOL0     C33254  11.620   2.604   4.220 -0.0707 -0.1101 -1.1727
 1010MOL0     H33255  11.156   2.895   4.160 -0.8068 -2.2328 -2.6838
 1010MOL0     H33256  10.928   2.873   4.128 -0.7353 -0.3126  0.0480
 1010MOL0     H33257  10.729   2.818   4.424 -0.1840 -2.0221  3.1324
 1010MOL0     H33258  10.655   2.658   4.439  1.3022 -3.2351 -1.6865
 1010MOL0     H33259  10.477   2.791   4.386  2.4665 -1.1901  3.6386
 1010MOL0     H33260  10.515   2.700   4.240  3.7522 -1.3373  0.0335
 1010MOL0     H33261  10.638   2.886   4.140 -0.0035  0.5824 -0.2772
 1010MOL0     H33262  10.601   2.984   4.274  2.1910 -0.3650 -0.4491
 1010MOL0     H33263  10.374   2.979   4.239  3.4487  1.8785  2.6586
 1010MOL0     H33264  10.477   3.050   4.100 -1.2673  1.4407  0.7447
 1010MOL0     H33265  10.341   2.775   4.113  1.0243  0.7347  1.4892
 1010MOL0     H33266  10.430   2.839   3.978  0.1115  0.2956 -0.5136
 1010MOL0     H33267  10.283   3.041   3.972 -0.3684  1.6775  2.5202
 1010MOL0     H33268  10.177   2.969   4.083  1.4243 -2.1045  2.3731
 1010MOL0     H33269  10.084   2.918   3.872 -1.0918 -0.7467  0.8580
 1010MOL0     H33270  10.240   2.870   3.806 -1.1230  1.5473 -0.6538
 1010MOL0     H33271  10.109   2.710   4.025  1.9362  2.1680  0.5442
 1010MOL0     H33272  10.228   2.667   3.895 -1.9290 -2.6694 -1.2439
 1010MOL0     H33273  10.139   2.657   3.651 -0.1715  0.3464 -0.2480
 1010MOL0     H33274   9.882   2.625   3.451  0.5584  0.7648 -0.7820
 1010MOL0     H33275   9.779   2.500   3.540  2.2206 -1.9497  0.1552
 1010MOL0     H33276  10.070   2.458   3.524 -0.1430  0.4385 -1.1053
 1010MOL0     H33277   9.956   2.403   3.398 -2.1352  0.1957  1.2439
 1010MOL0     H33278   9.953   2.335   3.694 -3.0727 -1.3052  0.3257
 1010MOL0     H33279   9.838   2.281   3.573  0.8562 -3.0765  0.1989
 1010MOL0     H33280  10.026   2.120   3.650  0.4720 -0.2615 -0.0834
 1010MOL0     H33281  10.138   2.226   3.558  1.2041 -1.9534  0.3363
 1010MOL0     H33282  10.089   1.891   3.392  1.1658 -0.3568  1.7955
 1010MOL0     H33283   9.960   1.680   3.378  0.5284  0.4096 -0.4637
 1010MOL0     H33284   9.568   1.395   3.586  1.0912 -1.7726  1.7777
 1010MOL0     H33285   9.491   1.166   3.516 -2.0605 -0.1931 -3.1256
 1010MOL0     H33286   9.418   1.002   3.365  0.4622 -0.0614 -2.1629
 1010MOL0     H33287   9.509   0.940   3.506 -1.4329  2.1820  0.7076
 1010MOL0     H33288   9.522   0.829   3.222  1.9070  1.0729  0.0975
 1010MOL0     H33289   9.399   0.783   3.340 -0.4648 -1.0406  2.2057
 1010MOL0     H33290   9.608   0.723   3.490  0.0281 -0.8773  0.0415
 1010MOL0     H33291   9.715   0.754   3.346  1.2146 -3.4271 -0.8139
 1010MOL0     H33292   9.486   0.552   3.372 -0.5828 -1.1509 -1.8926
 1010MOL0     H33293   9.585   0.571   3.223 -0.9994 -0.4903  0.5448
 1010MOL0     H33294   9.711   0.506   3.486  1.0624  0.7635  0.7347
 1010MOL0     H33295   9.785   0.480   3.322 -0.0799  3.1195  0.1780
 1010MOL0     H33296   9.575   0.324   3.465  0.2789  2.0478  0.9290
 1010MOL0     H33297   9.738   0.270   3.433 -3.3632 -3.2632  1.1162
 1010MOL0     H33298   9.558   0.159   3.290 -0.0213 -1.9047 -5.1616
 1010MOL0     H33299   9.553   0.297   3.184  0.5647 -0.4589 -1.8592
 1010MOL0     H33300   9.697   0.133   3.103  0.9460  1.1167 -2.1526
 1010MOL0     H33301   9.814   0.153   3.229 -0.8410  1.5430  3.0901
 1010MOL0     H33302   9.751   1.163   3.199  2.2988 -1.4089  1.2684
 1010MOL0     H33303   9.837   1.398   3.260  1.4703  1.9314  4.0052
 1010MOL0     H33304   9.617   1.906   3.517  0.3345  1.3625  0.4927
 1010MOL0     H33305   9.741   2.100   3.529 -1.3460 -1.8782  2.1008
 1010MOL0     H33306  10.901   2.553   4.423 -3.8253  1.9936  1.1369
 1010MOL0     H33307  11.142   2.607   4.477 -3.0181 -0.4094  2.3934
 1010MOL0     H33308  11.503   2.829   4.445 -0.2273  1.3621 -3.3627
 1010MOL0     H33309  11.721   2.801   4.535 -0.7883  0.1762  0.8666
 1010MOL0     H33310  11.998   2.513   4.305 -1.2938  0.4960 -0.8219
 1010MOL0     H33311  11.980   2.461   4.465 -2.7445 -0.6591 -1.7178
 1010MOL0     H33312  12.208   2.503   4.364 -1.6714 -0.7524  1.1992
 1010MOL0     H33313  12.178   2.677   4.371 -0.4100  0.1681 -0.3692
 1010MOL0     H33314  12.162   2.511   4.634 -0.6654  0.5427 -0.4254
 1010MOL0     H33315  12.149   2.674   4.615 -0.5070 -0.3200 -0.6191
 1010MOL0     H33316  12.385   2.639   4.488  1.1357  1.4146  0.5615
 1010MOL0     H33317  12.382   2.675   4.658  0.2014 -0.0940 -0.5027
 1010MOL0     H33318  12.550   2.285   4.632 -2.3509 -2.9746 -1.8795
 1010MOL0     H33319  11.819   2.538   4.200  3.3150  0.9820  1.7268
 1010MOL0     H33320  11.580   2.549   4.136 -0.6105 -0.0281 -0.9793
 1011MOL0     O33321  10.868  10.106   3.862  0.5865 -0.6191 -0.1546
 1011MOL0     C33322  10.746  10.087   3.888 -1.0064 -0.0789  0.7388
 1011MOL0     O33323  10.667  10.147   3.982  0.4617  0.8414  0.4276
 1011MOL0     C33324  10.688  10.276   4.040  0.7648  0.0306  0.6850
 1011MOL0     C33325  10.783  10.366   4.005 -0.1612 -0.5872 -0.0997
 1011MOL0     C33326  10.790  10.497   4.061 -0.2238 -0.1561 -0.4077
 1011MOL0     C33327  10.695  10.535   4.154 -0.1060 -0.8795 -0.0842
 1011MOL0     O33328  10.706  10.657   4.211  0.0230  0.0712  0.2869
 1011MOL0     C33329  10.771  10.763   4.132 -0.6484 -0.5407  0.4964
 1011MOL0     C33330  10.720  10.899   4.164  0.0586 -1.2836 -0.2553
 1011MOL0     C33331  10.576  10.935   4.129  0.7399  0.2865 -0.1913
 1011MOL0     C33332  10.557  10.972   3.985 -0.2991 -0.3959  0.1453
 1011MOL0     C33333  10.412  10.985   3.940  0.2661  0.2218  0.7110
 1011MOL0     C33334  10.405  10.961   3.787  0.2408 -0.1651 -0.3892
 1011MOL0     C33335  10.261  10.960   3.744 -0.2267  0.3885  0.1328
 1011MOL0     C33336  10.246  10.952   3.590  0.2083 -0.3582  0.1458
 1011MOL0     N33337  10.109  10.964   3.539 -0.3076  0.1017  0.5796
 1011MOL0     C33338  10.007  10.874   3.574  0.0277 -0.9762 -0.1324
 1011MOL0     C33339   9.905  10.901   3.488 -0.0151 -0.3812  0.0090
 1011MOL0     C33340   9.783  10.823   3.487 -1.3256 -0.8873 -1.1262
 1011MOL0     C33341   9.663  10.906   3.538  0.7241 -0.4703 -0.4087
 1011MOL0     C33342   9.621  10.854   3.680 -0.6965  0.0163  0.9174
 1011MOL0     C33343   9.476  10.874   3.699 -0.2427 -0.0958  0.4277
 1011MOL0     O33344   9.400  10.758   3.664 -0.2127  0.6869  0.8799
 1011MOL0     C33345   9.266  10.743   3.677 -0.4015 -0.3171  1.1272
 1011MOL0     C33346   9.214  10.613   3.683  0.9337  0.3664 -0.1091
 1011MOL0     C33347   9.068  10.596   3.691  0.5633 -0.3718  0.2449
 1011MOL0     C33348   8.983  10.713   3.690 -0.0455 -1.2180  1.5237
 1011MOL0     C33349   8.838  10.699   3.695  0.6740 -1.1590  0.1420
 1011MOL0     O33350   8.765  10.815   3.694  0.2064  0.3824  0.0903
 1011MOL0     C33351   8.631  10.810   3.712 -1.1163  0.3741 -1.4189
 1011MOL0     C33352   8.584  10.775   3.839  0.0199 -0.5085 -0.5760
 1011MOL0     C33353   8.450  10.753   3.863 -0.0224 -0.6336  0.1832
 1011MOL0     C33354   8.359  10.758   3.759  0.2770  0.0229  0.9653
 1011MOL0     O33355   8.228  10.727   3.755  0.8114 -0.0978  0.0520
 1011MOL0     C33356   8.167  10.674   3.870 -0.3170 -0.5783  0.0201
 1011MOL0     C33357   8.028  10.674   3.850  0.4597 -0.4785  0.2961
 1011MOL0     C33358   7.961  10.611   3.971  0.6493  0.5785  0.1085
 1011MOL0     C33359   7.810  10.607   3.952  0.4110  0.1592 -0.3516
 1011MOL0     C33360   7.738  10.518   4.052 -0.5405  0.4651  0.2124
 1011MOL0     C33361   7.587  10.495   4.022 -0.4381 -0.9701 -0.2743
 1011MOL0     C33362   7.521  10.398   4.124 -0.3037 -0.3834 -0.0083
 1011MOL0     C33363   7.366  10.422   4.140 -0.3554 -1.6909  0.0318
 1011MOL0    Cl33364   7.309  10.265   4.206 -0.1550  0.0895  0.1081
 1011MOL0     C33365   8.406  10.787   3.630 -0.0858 -0.0355  0.5704
 1011MOL0     C33366   8.541  10.810   3.613  0.6288  0.1459  0.5646
 1011MOL0     O33367   8.792  10.590   3.713  0.8658  0.2879 -0.0635
 1011MOL0     C33368   9.046  10.842   3.679  0.6176 -0.1112  0.0565
 1011MOL0     C33369   9.186  10.862   3.675 -1.6512  0.1658 -0.6554
 1011MOL0     N33370   9.938  11.010   3.411  0.0342  0.4639 -0.0810
 1011MOL0     N33371  10.059  11.050   3.444 -0.3299 -0.1737 -0.5282
 1011MOL0     C33372  10.596  10.451   4.193  0.0573  0.1553  0.2425
 1011MOL0     C33373  10.595  10.324   4.130  1.0471  0.9565 -0.3941
 1011MOL0     C33374  10.677   9.993   3.798 -1.0009  0.4769  0.4290
 1011MOL0     C33375  10.744   9.897   3.722 -0.1320 -0.1973  0.7645
 1011MOL0     C33376  10.662   9.809   3.640 -0.8165  0.4976 -0.8845
 1011MOL0     C33377  10.522   9.810   3.633 -0.0924  0.1040 -0.6398
 1011MOL0     O33378  10.445   9.725   3.571  0.1869  0.6178 -0.1944
 1011MOL0     C33379  10.497   9.614   3.497  0.8099 -0.4017 -0.3311
 1011MOL0     C33380  10.471   9.644   3.347  0.3716 -0.5012  0.0532
 1011MOL0     C33381  10.325   9.612   3.331  0.7986  0.1556  1.4564
 1011MOL0     C33382  10.252   9.656   3.205  0.1072  0.2553  0.1573
 1011MOL0     C33383  10.256   9.796   3.166  0.8608 -0.2260  0.2139
 1011MOL0     C33384  10.262   9.911   3.132 -0.2831  1.0221  0.1544
 1011MOL0     C33385  10.461   9.909   3.715  0.5970  0.3804 -0.8166
 1011MOL0     C33386  10.536   9.995   3.791  0.3144  0.1637 -1.3077
 1011MOL0     H33387  10.869  10.325   3.954 -2.9244 -5.3867 -1.4915
 1011MOL0     H33388  10.875  10.556   4.029 -1.0191  2.3910  1.7644
 1011MOL0     H33389  10.751  10.753   4.025 -1.5421  1.3959  0.4325
 1011MOL0     H33390  10.877  10.766   4.157  0.1930 -2.3320 -2.4630
 1011MOL0     H33391  10.780  10.977   4.117 -0.2217  1.9387  4.0619
 1011MOL0     H33392  10.726  10.927   4.270 -2.3783  0.2377 -0.4262
 1011MOL0     H33393  10.544  11.025   4.183  1.3188 -1.8008  4.0864
 1011MOL0     H33394  10.502  10.859   4.154 -1.5523  1.9650 -1.5418
 1011MOL0     H33395  10.632  11.047   3.956  2.4862 -1.7494  3.1718
 1011MOL0     H33396  10.587  10.876   3.942  1.5537  0.7641 -1.3199
 1011MOL0     H33397  10.383  11.088   3.959 -1.2450  0.3975 -2.0061
 1011MOL0     H33398  10.353  10.916   4.001 -0.2696 -2.2726 -2.3232
 1011MOL0     H33399  10.446  10.861   3.772  0.6242 -0.4080  1.8738
 1011MOL0     H33400  10.460  11.037   3.731  0.3212  0.8713  1.0370
 1011MOL0     H33401  10.219  10.864   3.776  3.1821 -1.9526 -1.7135
 1011MOL0     H33402  10.210  11.051   3.777  1.3297  1.5150 -0.3997
 1011MOL0     H33403  10.284  10.856   3.553  0.2972  0.0141 -0.7501
 1011MOL0     H33404  10.306  11.027   3.537 -0.5188  1.3876  1.6692
 1011MOL0     H33405  10.023  10.790   3.641 -0.6189 -2.1302 -1.3799
 1011MOL0     H33406   9.786  10.732   3.547 -0.9638  0.6520  1.2892
 1011MOL0     H33407   9.747  10.795   3.387 -1.5676  0.9849 -1.5905
 1011MOL0     H33408   9.581  10.900   3.466  0.8402 -1.0269 -0.4997
 1011MOL0     H33409   9.689  11.011   3.558  2.1046 -1.1341  1.6221
 1011MOL0     H33410   9.651  10.749   3.689  1.0643  0.1266 -2.3265
 1011MOL0     H33411   9.671  10.922   3.750 -1.7653  0.1273  1.5938
 1011MOL0     H33412   9.445  10.961   3.641 -0.0616 -1.6974 -2.2173
 1011MOL0     H33413   9.461  10.877   3.808  2.1342 -2.3233  0.9229
 1011MOL0     H33414   9.278  10.525   3.685  0.7801  0.2392 -0.6523
 1011MOL0     H33415   9.028  10.496   3.704 -2.5023  0.6659 -0.3069
 1011MOL0     H33416   8.656  10.767   3.920  0.4804  0.4368 -0.8830
 1011MOL0     H33417   8.437  10.703   3.959  1.5006 -0.2297  0.6432
 1011MOL0     H33418   8.186  10.727   3.965  0.5317 -3.1777  1.3952
 1011MOL0     H33419   8.200  10.571   3.887 -0.2367 -0.7711 -1.2609
 1011MOL0     H33420   8.010  10.620   3.756  2.3863  0.1214 -0.4736
 1011MOL0     H33421   7.980  10.771   3.834 -0.2897 -0.9019 -0.0628
 1011MOL0     H33422   7.990  10.664   4.062  1.3643 -3.7474  2.7162
 1011MOL0     H33423   7.994  10.507   3.978  5.1835  1.8916  2.9384
 1011MOL0     H33424   7.778  10.712   3.954  3.2995  1.1671  3.2862
 1011MOL0     H33425   7.784  10.575   3.850 -0.3265  0.7407 -0.3569
 1011MOL0     H33426   7.757  10.565   4.149 -0.8882  0.5757  0.2255
 1011MOL0     H33427   7.793  10.423   4.043 -1.5163 -0.0487 -0.4398
 1011MOL0     H33428   7.573  10.479   3.915  1.1824 -0.2444 -0.6238
 1011MOL0     H33429   7.545  10.595   4.040  4.8841  1.0173  4.0945
 1011MOL0     H33430   7.539  10.304   4.070  1.5128  0.6892 -1.3664
 1011MOL0     H33431   7.569  10.405   4.222  2.0869  1.8193 -1.2208
 1011MOL0     H33432   7.313  10.431   4.044 -0.7050 -5.0344 -0.2193
 1011MOL0     H33433   7.349  10.501   4.213 -0.0445 -2.0339  0.4834
 1011MOL0     H33434   8.343  10.821   3.549  1.4691 -0.2994 -0.8077
 1011MOL0     H33435   8.577  10.842   3.516 -0.2924  1.4514  0.6115
 1011MOL0     H33436   8.995  10.937   3.667  0.9386  0.0661  0.1031
 1011MOL0     H33437   9.230  10.960   3.670 -1.6110  0.1737 -0.2333
 1011MOL0     H33438  10.516  10.483   4.260  1.7372  1.6735  1.6215
 1011MOL0     H33439  10.514  10.261   4.166  2.4577 -0.8760 -0.3069
 1011MOL0     H33440  10.851   9.892   3.709 -0.0538  3.3792 -1.2115
 1011MOL0     H33441  10.719   9.741   3.578 -0.6731 -0.0147 -0.2148
 1011MOL0     H33442  10.442   9.524   3.527 -1.9813  1.7042  1.4133
 1011MOL0     H33443  10.602   9.591   3.514  0.6252 -0.0533  1.5838
 1011MOL0     H33444  10.507   9.743   3.316  1.2427 -0.8807 -0.1910
 1011MOL0     H33445  10.527   9.569   3.290 -0.9260 -1.0157 -0.5846
 1011MOL0     H33446  10.266   9.653   3.414  0.7471  4.2274 -0.3424
 1011MOL0     H33447  10.318   9.503   3.325  0.5334 -0.0001  3.6017
 1011MOL0     H33448  10.276   9.591   3.120 -0.5240  1.2812 -0.8288
 1011MOL0     H33449  10.145   9.641   3.218  0.2743 -0.5118  0.6738
 1011MOL0     H33450  10.274  10.005   3.080 -0.9070  1.2811  0.4717
 1011MOL0     H33451  10.353   9.902   3.721  0.3382  2.1321 -2.4481
 1011MOL0     H33452  10.489  10.066   3.858  1.4436  0.2088 -0.5370
 1012MOL0     O33453   5.256   3.916   1.566 -0.4906 -0.0247  0.0338
 1012MOL0     C33454   5.144   3.865   1.568 -1.1091  0.4486  0.1977
 1012MOL0     O33455   5.019   3.935   1.552  0.1510  0.2281  0.1270
 1012MOL0     C33456   5.017   4.066   1.568 -0.3890 -0.1334 -0.3462
 1012MOL0     C33457   5.095   4.140   1.657  0.2952 -0.6259  0.0320
 1012MOL0     C33458   5.053   4.269   1.696 -0.1767  0.3348 -0.6443
 1012MOL0     C33459   4.945   4.326   1.631 -0.1664 -0.6050 -0.3987
 1012MOL0     O33460   4.888   4.452   1.655  0.0622 -0.1332 -0.0104
 1012MOL0     C33461   4.838   4.472   1.789  0.2173 -0.4563  0.0722
 1012MOL0     C33462   4.764   4.603   1.795 -0.0911 -0.4097 -0.5375
 1012MOL0     C33463   4.629   4.615   1.722  0.3599 -0.0495  0.3928
 1012MOL0     C33464   4.558   4.743   1.757  0.5969 -0.3530  0.0997
 1012MOL0     C33465   4.430   4.779   1.669  0.5664 -0.0918  0.2496
 1012MOL0     C33466   4.477   4.807   1.528  0.5990 -0.5441 -0.2436
 1012MOL0     C33467   4.362   4.860   1.435 -0.7232  0.3821 -0.1306
 1012MOL0     C33468   4.273   4.740   1.401 -0.8564 -0.6532 -1.2597
 1012MOL0     N33469   4.196   4.747   1.281  0.2017 -0.1811  0.5966
 1012MOL0     C33470   4.250   4.752   1.155 -0.6412  0.4028 -0.4178
 1012MOL0     C33471   4.145   4.750   1.063  0.4802  0.3303  0.0257
 1012MOL0     C33472   4.166   4.750   0.916  0.4848  0.3372 -0.3534
 1012MOL0     C33473   4.072   4.650   0.836  0.3618  0.6154  0.7995
 1012MOL0     C33474   4.056   4.695   0.693  0.6622  0.1926  0.6128
 1012MOL0     C33475   4.003   4.842   0.668  0.3756 -0.0817  0.0534
 1012MOL0     O33476   3.942   4.850   0.536  0.0243 -0.3171  0.0030
 1012MOL0     C33477   3.816   4.796   0.509 -0.0827 -0.2778 -0.1580
 1012MOL0     C33478   3.783   4.765   0.380  0.0794 -0.7349  0.5877
 1012MOL0     C33479   3.651   4.725   0.342 -0.4630 -0.9880 -0.9554
 1012MOL0     C33480   3.553   4.700   0.443 -0.4960  0.1664 -0.7053
 1012MOL0     C33481   3.413   4.662   0.421 -0.4459 -0.1014  0.0110
 1012MOL0     O33482   3.333   4.584   0.515 -0.4632 -0.2454  0.0148
 1012MOL0     C33483   3.199   4.579   0.493 -0.4666  0.3737  0.0056
 1012MOL0     C33484   3.134   4.468   0.462  0.8004  0.7623  0.7173
 1012MOL0     C33485   2.994   4.481   0.424  0.5241 -0.0875  0.0861
 1012MOL0     C33486   2.920   4.598   0.429 -0.6263 -0.1063 -1.0232
 1012MOL0     O33487   2.788   4.624   0.401 -0.2558  0.8734  0.8940
 1012MOL0     C33488   2.730   4.544   0.298 -0.1393 -0.2627 -0.7377
 1012MOL0     C33489   2.589   4.614   0.271  0.0952 -0.3335  0.2178
 1012MOL0     C33490   2.480   4.517   0.207 -0.1073 -1.3458  0.6317
 1012MOL0     C33491   2.347   4.590   0.196 -0.1541  0.5189  0.0308
 1012MOL0     C33492   2.233   4.504   0.141 -0.3275 -0.0809  0.0790
 1012MOL0     C33493   2.119   4.600   0.125  0.9703  0.0120  0.1090
 1012MOL0     C33494   1.998   4.523   0.061 -0.5036 -0.4980 -0.3199
 1012MOL0     C33495   2.027   4.474  -0.084  0.9971  1.2846  1.1217
 1012MOL0    Cl33496   1.888   4.388  -0.130 -0.0109  0.3170 -0.4356
 1012MOL0     C33497   2.992   4.713   0.474  1.3190  0.0044 -0.0634
 1012MOL0     C33498   3.134   4.705   0.500  0.5986  0.4992 -0.0417
 1012MOL0     O33499   3.375   4.716   0.317 -0.2240  0.2390  0.6995
 1012MOL0     C33500   3.599   4.721   0.576 -0.1943 -0.4444  0.6596
 1012MOL0     C33501   3.729   4.767   0.605 -0.6015  0.7273 -0.8247
 1012MOL0     N33502   4.024   4.756   1.137 -0.2187  0.3284  0.3263
 1012MOL0     N33503   4.058   4.753   1.263 -0.1526  0.2591  0.1545
 1012MOL0     C33504   4.878   4.257   1.531  0.0376 -0.8946 -0.3021
 1012MOL0     C33505   4.917   4.130   1.497 -0.9153  0.1785  0.3139
 1012MOL0     C33506   5.139   3.728   1.604  0.0746  0.8775 -1.3638
 1012MOL0     C33507   5.020   3.653   1.613  0.2445  0.1475  0.4731
 1012MOL0     C33508   5.017   3.516   1.639 -0.3097 -1.2995 -0.1351
 1012MOL0     C33509   5.138   3.444   1.665  0.4134 -0.4217 -0.4107
 1012MOL0     O33510   5.119   3.311   1.656  0.1932  0.8580  0.0536
 1012MOL0     C33511   5.207   3.240   1.571 -0.2981 -0.0548  0.3423
 1012MOL0     C33512   5.196   3.093   1.560 -0.0403  0.9538 -0.6806
 1012MOL0     C33513   5.264   3.038   1.433  0.1155 -1.2835  0.1365
 1012MOL0     C33514   5.242   2.884   1.434 -0.0212 -0.2405 -0.3310
 1012MOL0     C33515   5.230   2.833   1.302  0.3599 -0.0074  0.5249
 1012MOL0     C33516   5.215   2.784   1.191  0.9770 -0.7790  0.0454
 1012MOL0     C33517   5.260   3.516   1.668  0.2321  0.8144 -0.1716
 1012MOL0     C33518   5.253   3.650   1.635  0.1699  0.0616  0.3993
 1012MOL0     H33519   5.170   4.083   1.711 -1.2233 -2.0080  0.7613
 1012MOL0     H33520   5.096   4.329   1.776 -0.3576  3.7401 -2.9077
 1012MOL0     H33521   4.920   4.482   1.860 -0.9420  2.1654  1.1896
 1012MOL0     H33522   4.775   4.386   1.814 -0.2323  0.3687  1.9864
 1012MOL0     H33523   4.840   4.666   1.748 -0.5364  0.9283  0.4637
 1012MOL0     H33524   4.742   4.649   1.892  0.6319 -1.7375  0.2817
 1012MOL0     H33525   4.560   4.535   1.751 -1.6294  0.1787 -3.1062
 1012MOL0     H33526   4.642   4.608   1.613  0.8502  1.0820  0.3649
 1012MOL0     H33527   4.524   4.726   1.859 -2.2064  1.0396 -0.4907
 1012MOL0     H33528   4.627   4.826   1.772  0.0830 -0.4597  4.1088
 1012MOL0     H33529   4.386   4.873   1.706  0.2431  1.0897 -2.7824
 1012MOL0     H33530   4.360   4.695   1.663 -0.3407  0.7208 -2.2406
 1012MOL0     H33531   4.535   4.723   1.488 -0.2944 -1.2917  0.0129
 1012MOL0     H33532   4.545   4.893   1.540  2.0527 -1.3298 -2.1775
 1012MOL0     H33533   4.308   4.945   1.476  0.5304  0.0918  2.3383
 1012MOL0     H33534   4.413   4.902   1.348  2.5687 -1.0065  0.9734
 1012MOL0     H33535   4.206   4.737   1.488  1.5367  0.4086  0.7539
 1012MOL0     H33536   4.326   4.644   1.403 -0.7780 -0.7776 -4.4714
 1012MOL0     H33537   4.356   4.753   1.133 -0.3924 -2.1829  0.3527
 1012MOL0     H33538   4.270   4.728   0.891  0.3954 -0.5505  0.0117
 1012MOL0     H33539   4.133   4.852   0.892 -3.5994 -0.3051  1.5908
 1012MOL0     H33540   3.969   4.642   0.873  0.8893  1.2063  2.5090
 1012MOL0     H33541   4.117   4.551   0.831 -0.6888  0.1338  0.6624
 1012MOL0     H33542   4.146   4.690   0.632 -0.7924  0.0319 -1.6531
 1012MOL0     H33543   3.985   4.623   0.651  1.8731  0.3550 -1.9170
 1012MOL0     H33544   4.072   4.926   0.683  0.8306 -0.6519  1.2665
 1012MOL0     H33545   3.928   4.869   0.742  2.9494  3.1007  1.7605
 1012MOL0     H33546   3.854   4.782   0.300 -1.5423  1.1324 -0.5325
 1012MOL0     H33547   3.624   4.731   0.237 -0.9607  1.5789 -0.7529
 1012MOL0     H33548   3.186   4.373   0.468 -1.5324 -0.5089  2.9021
 1012MOL0     H33549   2.946   4.387   0.397  1.5712 -0.1033 -1.9621
 1012MOL0     H33550   2.712   4.443   0.335 -1.3912  0.2104  0.0073
 1012MOL0     H33551   2.785   4.544   0.203  2.1489  1.3693  0.4834
 1012MOL0     H33552   2.596   4.698   0.201 -3.3609 -1.3705 -1.5959
 1012MOL0     H33553   2.554   4.658   0.365 -2.1520  0.5787 -0.9858
 1012MOL0     H33554   2.463   4.420   0.255 -2.4077  0.3583  3.6520
 1012MOL0     H33555   2.502   4.509   0.101 -0.0089  1.7641  0.3452
 1012MOL0     H33556   2.314   4.625   0.294 -0.8396  2.5826 -0.8819
 1012MOL0     H33557   2.363   4.678   0.133  2.0074  0.0690 -0.1136
 1012MOL0     H33558   2.215   4.418   0.206  4.6464 -2.3886 -1.1205
 1012MOL0     H33559   2.266   4.479   0.039 -1.8338 -0.4664 -0.3305
 1012MOL0     H33560   2.141   4.683   0.057 -0.5021  3.1947  3.2218
 1012MOL0     H33561   2.082   4.656   0.211  2.1901  3.4722 -1.4476
 1012MOL0     H33562   1.972   4.434   0.120 -0.9142 -0.6519 -0.7281
 1012MOL0     H33563   1.910   4.588   0.069  0.9352  1.3145  1.7288
 1012MOL0     H33564   2.112   4.406  -0.091  0.2344  0.3974  0.1376
 1012MOL0     H33565   2.030   4.550  -0.163 -4.7193 -1.3868 -2.3722
 1012MOL0     H33566   2.944   4.810   0.479  0.2647 -0.5140  0.2469
 1012MOL0     H33567   3.185   4.792   0.539 -0.6497  1.3156 -0.1493
 1012MOL0     H33568   3.530   4.696   0.657 -0.3146 -2.8869 -0.1102
 1012MOL0     H33569   3.744   4.781   0.712  0.0508  2.0438 -1.0774
 1012MOL0     H33570   4.787   4.301   1.492 -1.0107 -1.6762  1.1290
 1012MOL0     H33571   4.866   4.078   1.417  2.9741  0.9863 -3.0597
 1012MOL0     H33572   4.924   3.695   1.588 -0.4023 -1.2455  0.4991
 1012MOL0     H33573   4.931   3.451   1.630 -1.5789 -0.1202  2.3988
 1012MOL0     H33574   5.309   3.265   1.601 -0.6290 -2.3160  3.9571
 1012MOL0     H33575   5.187   3.281   1.472  1.1251  0.0174  0.0581
 1012MOL0     H33576   5.246   3.038   1.639 -0.3098 -0.3099 -1.3647
 1012MOL0     H33577   5.093   3.056   1.566  0.6033 -0.7103  1.0395
 1012MOL0     H33578   5.369   3.064   1.448  0.0455 -0.6658 -0.3942
 1012MOL0     H33579   5.222   3.082   1.342  2.8347  0.1866 -0.5036
 1012MOL0     H33580   5.321   2.848   1.500 -0.4464 -0.3558  0.1225
 1012MOL0     H33581   5.139   2.875   1.468 -0.2975  0.6940 -0.8552
 1012MOL0     H33582   5.188   2.754   1.093 -4.5098  1.0749  0.6513
 1012MOL0     H33583   5.353   3.462   1.688  0.8697  1.6883 -0.7101
 1012MOL0     H33584   5.344   3.709   1.641  1.0114 -1.1383 -0.1667
 1013MOL0     O33585   0.802   1.166   5.682  0.3486  0.6408 -0.9118
 1013MOL0     C33586   0.832   1.281   5.653  1.0254 -0.6539  0.3061
 1013MOL0     O33587   0.740   1.365   5.590 -0.8155 -0.1444 -0.0272
 1013MOL0     C33588   0.636   1.303   5.523 -0.1608 -0.2501 -0.2765
 1013MOL0     C33589   0.651   1.192   5.437  0.7060 -0.0730 -0.0854
 1013MOL0     C33590   0.546   1.140   5.361  0.3237  0.0831 -0.3151
 1013MOL0     C33591   0.424   1.218   5.355 -0.3876 -0.2956 -0.0655
 1013MOL0     O33592   0.322   1.186   5.269  0.0431  0.1023  0.9382
 1013MOL0     C33593   0.348   1.113   5.143  0.1222  0.0454 -0.3730
 1013MOL0     C33594   0.244   1.150   5.043  0.2236  0.7097  0.7230
 1013MOL0     C33595   0.280   1.084   4.918 -0.2477 -0.2932  0.5932
 1013MOL0     C33596   0.172   1.089   4.816 -0.3192 -0.5095  0.5905
 1013MOL0     C33597   0.140   1.232   4.762  0.1683  0.2184 -0.5826
 1013MOL0     C33598   0.073   1.207   4.632  0.2290 -0.5004  0.5460
 1013MOL0     C33599   0.177   1.174   4.523 -1.6581 -0.4590  0.7066
 1013MOL0     C33600   0.159   1.030   4.464 -0.9115 -0.0699  0.1091
 1013MOL0     N33601   0.267   1.000   4.372 -0.1455  0.7093 -0.3244
 1013MOL0     C33602   0.273   1.057   4.249 -1.0497 -0.1276  0.4134
 1013MOL0     C33603   0.363   0.973   4.181  0.2292  0.5147 -0.4038
 1013MOL0     C33604   0.413   0.987   4.039 -0.0952 -0.0088 -0.0315
 1013MOL0     C33605   0.302   1.017   3.929 -0.6394  0.2910 -0.4096
 1013MOL0     C33606   0.194   0.902   3.934  0.2666  0.6001  0.3128
 1013MOL0     C33607   0.072   0.943   3.853  0.3678  0.1876 -0.1488
 1013MOL0     O33608  -0.001   1.048   3.921  0.3977 -0.2106  0.2768
 1013MOL0     C33609  -0.126   1.082   3.882  0.2772  0.2358  0.7072
 1013MOL0     C33610  -0.160   1.216   3.905 -1.4121  0.3169 -0.3444
 1013MOL0     C33611  -0.291   1.261   3.869  0.3876  0.0345  0.6240
 1013MOL0     C33612  -0.385   1.178   3.807 -1.1361  0.3034  0.5766
 1013MOL0     C33613  -0.521   1.220   3.745 -0.2012  0.1032 -0.6959
 1013MOL0     O33614  -0.603   1.126   3.679 -1.3940 -0.2280  0.0554
 1013MOL0     C33615  -0.736   1.157   3.682  0.3344  0.1850 -0.3735
 1013MOL0     C33616  -0.809   1.174   3.569 -0.1256 -0.1797 -0.4015
 1013MOL0     C33617  -0.947   1.209   3.576  0.0821 -0.5281  0.1116
 1013MOL0     C33618  -1.020   1.209   3.693 -0.3452  0.2421 -0.9352
 1013MOL0     O33619  -1.152   1.237   3.692  0.0002  0.4215  0.0365
 1013MOL0     C33620  -1.198   1.377   3.698  1.4115  1.3351  0.3329
 1013MOL0     C33621  -1.083   1.486   3.690 -0.4644 -0.2028  0.3781
 1013MOL0     C33622  -1.040   1.522   3.834 -0.0911 -0.1031  0.6261
 1013MOL0     C33623  -0.904   1.593   3.824 -0.1140  0.1614 -0.0169
 1013MOL0     C33624  -0.909   1.732   3.763 -0.3400 -0.3655  1.1407
 1013MOL0     C33625  -0.771   1.797   3.780 -0.0208 -0.8893  0.6203
 1013MOL0     C33626  -0.664   1.730   3.708 -1.2654 -1.0040  0.2606
 1013MOL0     C33627  -0.552   1.828   3.657 -0.7953 -1.6669  0.8905
 1013MOL0    Cl33628  -0.503   1.965   3.773 -0.2876 -0.4717 -0.2900
 1013MOL0     C33629  -0.953   1.162   3.806 -0.0083 -0.1400  0.2805
 1013MOL0     C33630  -0.809   1.145   3.803 -0.7094  0.5299 -0.7824
 1013MOL0     O33631  -0.531   1.340   3.740  0.3617 -0.1572 -1.2530
 1013MOL0     C33632  -0.347   1.048   3.782 -0.7574 -0.0105 -0.5980
 1013MOL0     C33633  -0.216   1.002   3.820  0.1608 -0.2634 -0.3076
 1013MOL0     N33634   0.427   0.899   4.276 -0.1602  0.7304  0.5252
 1013MOL0     N33635   0.365   0.911   4.387 -0.4017 -0.5860  0.4937
 1013MOL0     C33636   0.414   1.342   5.435 -0.4368  0.0591 -0.3950
 1013MOL0     C33637   0.520   1.378   5.522  0.4515  0.8279 -1.1452
 1013MOL0     C33638   0.969   1.330   5.689 -0.6009 -0.2739 -0.3291
 1013MOL0     C33639   0.991   1.467   5.705  0.0383  0.4143  0.5232
 1013MOL0     C33640   1.122   1.517   5.720 -0.2671  0.6315  0.1427
 1013MOL0     C33641   1.240   1.428   5.730 -0.0602 -0.3389 -0.8646
 1013MOL0     O33642   1.368   1.484   5.756  0.8418  0.0694  0.0728
 1013MOL0     C33643   1.452   1.436   5.866 -0.4392 -1.2655 -0.2661
 1013MOL0     C33644   1.577   1.520   5.856  0.2376 -0.1705 -0.3360
 1013MOL0     C33645   1.689   1.464   5.938  0.2521  0.2677 -0.7000
 1013MOL0     C33646   1.805   1.561   5.937  0.1433 -1.0450  0.4671
 1013MOL0     C33647   1.921   1.503   5.986  0.9787 -0.3416  0.1652
 1013MOL0     C33648   2.013   1.450   6.036  0.0145  0.3399  0.3492
 1013MOL0     C33649   1.214   1.294   5.723 -0.0581 -0.1086  0.1313
 1013MOL0     C33650   1.085   1.246   5.708  0.3182 -0.5261  0.3996
 1013MOL0     H33651   0.750   1.150   5.422  1.2055  1.0126  0.1081
 1013MOL0     H33652   0.552   1.043   5.312 -4.4173 -0.0486 -1.0973
 1013MOL0     H33653   0.356   1.004   5.150  3.2950  0.1896 -0.1927
 1013MOL0     H33654   0.444   1.154   5.108  1.2169 -1.8967  0.1796
 1013MOL0     H33655   0.239   1.259   5.036  0.7264  0.6606 -0.7623
 1013MOL0     H33656   0.151   1.102   5.074  1.5556 -3.9466 -1.6235
 1013MOL0     H33657   0.276   0.975   4.927  2.0893 -0.5198 -0.2924
 1013MOL0     H33658   0.370   1.121   4.868 -0.4632 -0.8646 -0.2412
 1013MOL0     H33659   0.214   1.020   4.743 -0.1085  0.4387 -0.2155
 1013MOL0     H33660   0.071   1.055   4.842 -1.6582  0.3291 -2.9169
 1013MOL0     H33661   0.233   1.289   4.754  0.1276  0.0792 -2.5088
 1013MOL0     H33662   0.083   1.277   4.844  1.3628 -3.3569  2.4860
 1013MOL0     H33663   0.025   1.299   4.597  0.2644 -1.4362 -2.2399
 1013MOL0     H33664  -0.009   1.135   4.637  2.0847 -2.9152 -1.2229
 1013MOL0     H33665   0.178   1.254   4.449 -0.2878  2.6401  3.8132
 1013MOL0     H33666   0.278   1.188   4.562  1.2996 -1.5179 -5.3080
 1013MOL0     H33667   0.061   1.013   4.419 -0.9520 -2.0010  0.8262
 1013MOL0     H33668   0.163   0.966   4.553  0.5910  0.3738  0.3814
 1013MOL0     H33669   0.209   1.141   4.225  1.6278  2.5304  1.9254
 1013MOL0     H33670   0.471   0.900   4.009  1.2944  1.4002 -1.5882
 1013MOL0     H33671   0.490   1.063   4.048  3.2029 -3.1754  0.8613
 1013MOL0     H33672   0.352   1.017   3.832 -2.4191  0.1680 -1.3803
 1013MOL0     H33673   0.251   1.111   3.954 -2.3016 -1.3258  2.8893
 1013MOL0     H33674   0.254   0.824   3.886 -1.5028 -0.9415  0.4812
 1013MOL0     H33675   0.178   0.868   4.037 -0.1074  0.1478  0.1098
 1013MOL0     H33676   0.002   0.859   3.843 -0.4450  0.5427  2.1293
 1013MOL0     H33677   0.114   0.969   3.755  0.1467  0.6757 -0.1139
 1013MOL0     H33678  -0.087   1.279   3.955 -1.4113 -0.3331  0.4912
 1013MOL0     H33679  -0.332   1.360   3.887  1.4716  0.1841  2.5852
 1013MOL0     H33680  -0.755   1.167   3.475  1.8792  1.8082  0.5183
 1013MOL0     H33681  -0.998   1.227   3.483  0.3869 -3.3708 -0.7069
 1013MOL0     H33682  -1.255   1.400   3.789 -0.0094 -0.1529 -0.1311
 1013MOL0     H33683  -1.263   1.396   3.612 -0.5778  1.2099  1.7257
 1013MOL0     H33684  -1.116   1.578   3.641  1.3377  1.4282  2.0070
 1013MOL0     H33685  -0.997   1.454   3.630 -0.6848  2.7284 -1.6891
 1013MOL0     H33686  -1.032   1.429   3.891 -2.8539 -0.8928 -0.1092
 1013MOL0     H33687  -1.108   1.592   3.883  1.2190  1.5226  0.2228
 1013MOL0     H33688  -0.873   1.604   3.928  2.9863 -0.9969 -0.7288
 1013MOL0     H33689  -0.833   1.541   3.759 -0.8606  1.2462 -1.7705
 1013MOL0     H33690  -0.991   1.784   3.814 -0.0401  1.3842 -0.0813
 1013MOL0     H33691  -0.933   1.734   3.656  4.0224  0.7354 -0.0317
 1013MOL0     H33692  -0.746   1.807   3.886  2.4199  1.6577 -0.0607
 1013MOL0     H33693  -0.787   1.901   3.749  1.8414 -1.2469 -1.9107
 1013MOL0     H33694  -0.618   1.654   3.771  1.1943 -0.2563 -0.5046
 1013MOL0     H33695  -0.703   1.674   3.622 -0.8327 -0.5971 -0.1992
 1013MOL0     H33696  -0.604   1.875   3.573  1.7232  1.4952  0.9163
 1013MOL0     H33697  -0.464   1.778   3.615  1.8187  1.3441  2.3517
 1013MOL0     H33698  -1.019   1.156   3.892 -2.1274  1.0142 -1.1875
 1013MOL0     H33699  -0.773   1.108   3.898 -0.8226 -2.4559 -1.7903
 1013MOL0     H33700  -0.411   0.977   3.731  2.3592 -1.7940 -2.3115
 1013MOL0     H33701  -0.199   0.897   3.797 -1.4820 -0.6795  0.2486
 1013MOL0     H33702   0.335   1.416   5.442  2.8822  3.8228  2.9641
 1013MOL0     H33703   0.528   1.464   5.587 -0.4831  2.0449 -2.5787
 1013MOL0     H33704   0.905   1.532   5.713 -1.9038 -1.7414 -1.2982
 1013MOL0     H33705   1.133   1.625   5.724  1.2684  0.4532  1.5727
 1013MOL0     H33706   1.484   1.331   5.861 -0.3963 -1.2764  0.1969
 1013MOL0     H33707   1.405   1.458   5.963 -1.0005 -1.8080 -0.4098
 1013MOL0     H33708   1.613   1.539   5.755  2.9045  0.2945  0.6348
 1013MOL0     H33709   1.557   1.621   5.892 -3.3935 -0.4587 -1.1701
 1013MOL0     H33710   1.703   1.363   5.898 -1.8245 -0.5480  0.4891
 1013MOL0     H33711   1.650   1.453   6.039 -2.1542  2.5582 -1.2720
 1013MOL0     H33712   1.821   1.588   5.832  0.7948 -0.2927  0.7485
 1013MOL0     H33713   1.772   1.640   6.006  0.5313 -1.7046  1.4265
 1013MOL0     H33714   2.099   1.399   6.072  1.0488  2.3328  0.8641
 1013MOL0     H33715   1.299   1.230   5.744  0.6608  0.7853  0.0006
 1013MOL0     H33716   1.083   1.139   5.724 -0.3206 -0.5730  0.0446
 1014MOL0     O33717   5.546  10.126  10.934 -0.0860 -1.0429  0.0863
 1014MOL0     C33718   5.548  10.127  11.057  0.0813 -0.1989  0.3328
 1014MOL0     O33719   5.539  10.021  11.136  0.4277  0.2204  1.3107
 1014MOL0     C33720   5.494   9.915  11.059  0.7803 -0.3240  0.4095
 1014MOL0     C33721   5.598   9.840  11.007  0.5406  0.5944 -0.6607
 1014MOL0     C33722   5.566   9.722  10.942 -0.0953 -0.1892 -0.3661
 1014MOL0     C33723   5.438   9.675  10.938  0.2768 -0.0656  0.3428
 1014MOL0     O33724   5.414   9.559  10.864  0.5204  0.2311  0.4508
 1014MOL0     C33725   5.279   9.506  10.864 -0.1440  0.1851  0.9096
 1014MOL0     C33726   5.196   9.585  10.761 -0.5819  0.1236  0.1314
 1014MOL0     C33727   5.145   9.499  10.647  0.5505  0.2475 -0.7187
 1014MOL0     C33728   5.055   9.580  10.560  0.2801  0.5563  0.1277
 1014MOL0     C33729   4.920   9.614  10.631  0.3532  0.4689  0.0263
 1014MOL0     C33730   4.836   9.498  10.661  0.1724  0.4900 -0.5059
 1014MOL0     C33731   4.690   9.534  10.651 -0.3806 -0.8147 -0.1317
 1014MOL0     C33732   4.617   9.399  10.675  0.6378  0.7212  0.0393
 1014MOL0     N33733   4.485   9.420  10.743  0.7474  0.2426  0.1687
 1014MOL0     C33734   4.460   9.474  10.864  0.0457 -0.1238  0.0030
 1014MOL0     C33735   4.326   9.490  10.876  0.2464  0.7700  1.1491
 1014MOL0     C33736   4.248   9.550  10.988 -0.2136 -0.2848 -0.2504
 1014MOL0     C33737   4.256   9.468  11.113 -0.2946 -0.2219  0.1674
 1014MOL0     C33738   4.191   9.532  11.223  0.3229 -0.4480 -1.0114
 1014MOL0     C33739   4.036   9.561  11.213 -0.0343 -0.1504 -0.1240
 1014MOL0     O33740   3.955   9.445  11.225  0.5749  0.1353  0.0288
 1014MOL0     C33741   3.819   9.458  11.256 -1.1349  0.7207 -0.2255
 1014MOL0     C33742   3.750   9.338  11.281  1.0187  0.2299 -0.4516
 1014MOL0     C33743   3.613   9.342  11.287  0.4810 -0.0940 -0.2900
 1014MOL0     C33744   3.542   9.460  11.298  0.1733  0.6172  1.0956
 1014MOL0     C33745   3.393   9.451  11.316  0.8550 -0.1243 -0.0925
 1014MOL0     O33746   3.321   9.562  11.285  0.5948 -0.1217  0.2126
 1014MOL0     C33747   3.185   9.575  11.281 -0.0527 -0.4921  0.6765
 1014MOL0     C33748   3.135   9.663  11.187  1.4898 -1.2517  0.3659
 1014MOL0     C33749   2.999   9.681  11.185  0.7502  0.0870 -0.9595
 1014MOL0     C33750   2.901   9.605  11.264 -0.7492 -0.2594  0.3558
 1014MOL0     O33751   2.774   9.635  11.244  0.4102 -0.1110 -1.1317
 1014MOL0     C33752   2.695   9.672  11.364 -0.5425  0.2744 -0.7598
 1014MOL0     C33753   2.649   9.812  11.341  0.6722 -0.3976  0.1243
 1014MOL0     C33754   2.550   9.829  11.223  0.0155 -0.0193 -0.2570
 1014MOL0     C33755   2.418   9.768  11.260 -0.1669 -0.2963  1.1740
 1014MOL0     C33756   2.302   9.807  11.161 -0.1136 -0.1113 -0.7432
 1014MOL0     C33757   2.172   9.760  11.211  0.6746 -0.1759  0.3505
 1014MOL0     C33758   2.053   9.813  11.122 -0.0740 -0.5690 -0.3086
 1014MOL0     C33759   2.064   9.777  10.975  0.0678 -0.5601  0.1808
 1014MOL0    Cl33760   1.912   9.832  10.888  0.2799 -0.4579 -0.1221
 1014MOL0     C33761   2.951   9.508  11.353  0.2324 -0.0560 -0.3337
 1014MOL0     C33762   3.096   9.488  11.356  0.8012 -1.3175 -0.4171
 1014MOL0     O33763   3.346   9.351  11.371 -0.8357 -0.2067 -0.2586
 1014MOL0     C33764   3.615   9.585  11.296  0.2877  1.3506  0.1571
 1014MOL0     C33765   3.754   9.585  11.267 -0.4028  0.2163 -0.3668
 1014MOL0     N33766   4.273   9.430  10.766  0.5536 -0.4180 -0.7230
 1014MOL0     N33767   4.371   9.378  10.692  0.6327  0.9009  0.7857
 1014MOL0     C33768   5.330   9.755  10.991 -0.4965  0.2070  1.0779
 1014MOL0     C33769   5.358   9.875  11.053 -1.6091 -0.5689 -0.1051
 1014MOL0     C33770   5.550  10.265  11.124  1.0125 -0.0501 -0.0822
 1014MOL0     C33771   5.490  10.280  11.246 -0.3916  0.5442 -0.2570
 1014MOL0     C33772   5.502  10.398  11.321 -0.3339  0.3889 -0.1009
 1014MOL0     C33773   5.587  10.501  11.279  0.0023 -0.6581 -1.6872
 1014MOL0     O33774   5.610  10.606  11.374  0.0310 -0.3671  0.8678
 1014MOL0     C33775   5.700  10.710  11.335  0.9711 -0.1475  0.0199
 1014MOL0     C33776   5.716  10.810  11.440 -0.1446 -1.1078 -0.0090
 1014MOL0     C33777   5.810  10.929  11.401 -0.7631 -0.1342  0.3935
 1014MOL0     C33778   5.845  11.024  11.524 -0.6207  0.9466 -0.4187
 1014MOL0     C33779   5.741  11.125  11.514  0.1782 -1.1889  0.2280
 1014MOL0     C33780   5.644  11.199  11.504  0.2803  0.0638 -0.3552
 1014MOL0     C33781   5.643  10.492  11.151  0.7774  0.1037 -0.1491
 1014MOL0     C33782   5.614  10.377  11.073  0.1429  0.3872 -0.6278
 1014MOL0     H33783   5.704   9.856  11.024  0.5371  2.4369 -1.9876
 1014MOL0     H33784   5.647   9.654  10.915  1.3739  1.6999 -0.9194
 1014MOL0     H33785   5.231   9.508  10.963 -0.4361  0.3364  0.7639
 1014MOL0     H33786   5.275   9.399  10.840  0.1533  0.1152  1.1599
 1014MOL0     H33787   5.267   9.659  10.723  0.9337 -1.3468 -0.0244
 1014MOL0     H33788   5.115   9.642  10.808  0.2951  0.4711  1.2672
 1014MOL0     H33789   5.093   9.415  10.694  1.2097  0.2921  0.1270
 1014MOL0     H33790   5.228   9.459  10.589 -0.1158 -1.0860 -0.7903
 1014MOL0     H33791   5.105   9.671  10.527 -2.0304  1.6701 -0.5734
 1014MOL0     H33792   5.029   9.519  10.473 -1.2092  1.2965  0.0158
 1014MOL0     H33793   4.863   9.681  10.567 -1.3428 -0.6293  0.3367
 1014MOL0     H33794   4.929   9.678  10.719 -3.9490  0.5755  0.5946
 1014MOL0     H33795   4.864   9.456  10.758 -0.3050 -0.2620 -0.6789
 1014MOL0     H33796   4.853   9.424  10.582 -1.2413  0.4662 -0.8307
 1014MOL0     H33797   4.656   9.609  10.723 -1.0472  0.3492 -1.6054
 1014MOL0     H33798   4.666   9.578  10.554  0.4036  1.7191  0.7525
 1014MOL0     H33799   4.677   9.325  10.728 -0.9911 -1.2824 -0.7503
 1014MOL0     H33800   4.598   9.353  10.578 -0.4877  2.0577 -0.4182
 1014MOL0     H33801   4.529   9.511  10.940 -3.5477  2.4636  2.3312
 1014MOL0     H33802   4.141   9.545  10.969 -0.7306 -0.6097  2.3535
 1014MOL0     H33803   4.280   9.654  10.998 -1.1057  0.2502 -2.3529
 1014MOL0     H33804   4.359   9.460  11.150 -0.8637 -0.4941  1.8071
 1014MOL0     H33805   4.205   9.371  11.112 -3.5600  1.3575  0.4177
 1014MOL0     H33806   4.204   9.456  11.301  1.8753 -1.6611 -2.3902
 1014MOL0     H33807   4.249   9.619  11.256  0.9482 -1.4052  0.5078
 1014MOL0     H33808   4.015   9.609  11.117  2.1594  0.0883 -0.5345
 1014MOL0     H33809   4.005   9.640  11.281 -2.9845 -0.9627 -0.3682
 1014MOL0     H33810   3.794   9.239  11.286 -3.0290 -1.7230  0.7212
 1014MOL0     H33811   3.569   9.243  11.286  1.4344 -0.5340  0.2530
 1014MOL0     H33812   3.192   9.712  11.109 -0.8244  2.9300  0.9927
 1014MOL0     H33813   2.947   9.758  11.129 -3.0276 -1.8779 -0.5179
 1014MOL0     H33814   2.751   9.662  11.458 -1.6784 -0.5728 -0.1445
 1014MOL0     H33815   2.622   9.591  11.374 -0.1276  0.0497  0.7606
 1014MOL0     H33816   2.740   9.870  11.325  1.6485 -2.7143 -4.6767
 1014MOL0     H33817   2.596   9.847  11.430 -1.0161  1.7928 -1.6394
 1014MOL0     H33818   2.579   9.779  11.130  0.7150 -0.5996  0.2670
 1014MOL0     H33819   2.537   9.934  11.197  0.1019 -0.2586 -1.3251
 1014MOL0     H33820   2.420   9.660  11.276 -1.3223  0.1120  4.9191
 1014MOL0     H33821   2.411   9.820  11.356  2.6435  3.2020 -0.2555
 1014MOL0     H33822   2.324   9.760  11.065  0.4002 -1.6554  0.1007
 1014MOL0     H33823   2.292   9.916  11.153  5.2022  0.8468  1.0317
 1014MOL0     H33824   2.145   9.796  11.311 -1.0543 -0.7008  0.1149
 1014MOL0     H33825   2.162   9.651  11.214 -2.2260 -0.0304 -0.3906
 1014MOL0     H33826   1.960   9.772  11.163 -0.0622  2.8732  3.9623
 1014MOL0     H33827   2.029   9.920  11.125 -2.4829 -1.0595  1.0025
 1014MOL0     H33828   2.068   9.668  10.970  0.3490 -0.4913 -2.0019
 1014MOL0     H33829   2.142   9.844  10.936 -2.3325  4.0386  2.3965
 1014MOL0     H33830   2.885   9.448  11.415 -0.1731  2.2634  1.6284
 1014MOL0     H33831   3.145   9.417  11.422  0.9944 -2.8314 -2.1047
 1014MOL0     H33832   3.584   9.683  11.332  1.4857  1.2367  1.6327
 1014MOL0     H33833   3.804   9.681  11.257 -0.7368  0.6301  1.4405
 1014MOL0     H33834   5.224   9.734  10.982 -0.2874  0.0743 -4.0533
 1014MOL0     H33835   5.280   9.926  11.109 -2.7489 -1.0959 -1.1918
 1014MOL0     H33836   5.431  10.197  11.283 -1.5262  0.9791 -1.0224
 1014MOL0     H33837   5.460  10.383  11.420 -3.0153 -1.6899 -1.4171
 1014MOL0     H33838   5.668  10.753  11.240  0.8058  0.0302  0.1556
 1014MOL0     H33839   5.799  10.667  11.318  0.2654 -1.7784 -0.1320
 1014MOL0     H33840   5.617  10.849  11.465  0.0303 -0.8798  0.3338
 1014MOL0     H33841   5.757  10.767  11.531  0.6397 -0.9309 -0.2685
 1014MOL0     H33842   5.766  10.993  11.325 -0.7785  2.5870  2.5184
 1014MOL0     H33843   5.905  10.897  11.359 -0.2352  0.1660  1.3119
 1014MOL0     H33844   5.839  10.980  11.624 -2.9487  1.7578 -0.1335
 1014MOL0     H33845   5.943  11.067  11.505  0.5988 -2.3448 -2.3578
 1014MOL0     H33846   5.557  11.261  11.504 -0.9455 -1.5626 -1.1226
 1014MOL0     H33847   5.695  10.575  11.105 -1.0792 -0.4809 -3.6083
 1014MOL0     H33848   5.657  10.386  10.974  2.4494 -0.5430  0.2165
 1015MOL0     O33849   4.840   4.977   0.024  0.1732  0.7739 -0.1971
 1015MOL0     C33850   4.867   4.873  -0.040 -0.3666 -0.1134  0.1392
 1015MOL0     O33851   4.782   4.767  -0.064  0.0987 -0.7218  1.1162
 1015MOL0     C33852   4.653   4.776  -0.041 -1.0434 -0.2877  0.3147
 1015MOL0     C33853   4.582   4.876   0.024 -0.1494 -0.1915 -0.6346
 1015MOL0     C33854   4.442   4.865   0.058  0.4388 -0.0320  0.2463
 1015MOL0     C33855   4.368   4.756   0.014  0.6188  0.9836 -0.5561
 1015MOL0     O33856   4.234   4.749   0.049  0.2356  0.2501  0.1750
 1015MOL0     C33857   4.168   4.625   0.021  0.2318 -0.1050  0.5258
 1015MOL0     C33858   4.019   4.649   0.054 -0.6464  1.0567  0.0027
 1015MOL0     C33859   3.947   4.733  -0.040  0.2996  0.0864  0.6931
 1015MOL0     C33860   3.829   4.805   0.034 -0.6063  0.3887  0.1083
 1015MOL0     C33861   3.748   4.897  -0.058 -0.5268  0.3080  0.2397
 1015MOL0     C33862   3.621   4.941   0.019  0.7124  0.3231  0.0849
 1015MOL0     C33863   3.501   4.846  -0.005  0.4616  0.1670  0.7004
 1015MOL0     C33864   3.363   4.912   0.029 -0.7503  0.0288  0.4699
 1015MOL0     N33865   3.259   4.833  -0.048  0.4495 -0.7130 -0.2931
 1015MOL0     C33866   3.148   4.789   0.021 -0.1074 -0.0469  0.5217
 1015MOL0     C33867   3.066   4.757  -0.074  1.0902 -0.8659 -0.2846
 1015MOL0     C33868   2.920   4.722  -0.040  0.4677  0.3820 -0.2968
 1015MOL0     C33869   2.842   4.658  -0.157  0.4165  0.0574 -0.3054
 1015MOL0     C33870   2.697   4.640  -0.101  0.2367  0.0672 -0.5124
 1015MOL0     C33871   2.601   4.762  -0.123  0.0708 -0.1877  0.1040
 1015MOL0     O33872   2.617   4.871  -0.032  0.2389 -0.0873 -0.1496
 1015MOL0     C33873   2.526   4.974  -0.025 -0.3795 -0.2185 -0.3034
 1015MOL0     C33874   2.508   5.029   0.108 -0.5485 -0.0854 -0.2314
 1015MOL0     C33875   2.415   5.118   0.126 -0.4293 -0.5616  0.6901
 1015MOL0     C33876   2.341   5.175   0.023  0.0426  0.2205 -0.2887
 1015MOL0     C33877   2.237   5.276   0.051  0.0597 -1.0016  0.5002
 1015MOL0     O33878   2.198   5.291   0.188 -0.6554 -0.0655  0.0972
 1015MOL0     C33879   2.107   5.391   0.217 -0.2421  0.4336  0.3830
 1015MOL0     C33880   2.149   5.512   0.273  0.3438 -0.8650  0.3107
 1015MOL0     C33881   2.056   5.604   0.310  0.5543 -1.0548 -0.7158
 1015MOL0     C33882   1.916   5.584   0.286  0.3091  0.1125  0.3612
 1015MOL0     O33883   1.814   5.667   0.314 -0.0937 -0.0197 -0.1238
 1015MOL0     C33884   1.841   5.795   0.364  0.6412  0.4016  0.1973
 1015MOL0     C33885   1.707   5.841   0.424 -0.3555  0.4218  0.1364
 1015MOL0     C33886   1.695   5.989   0.440 -0.1104  0.4414 -0.4834
 1015MOL0     C33887   1.558   6.037   0.481  0.1566  0.1066 -0.5286
 1015MOL0     C33888   1.529   6.028   0.634 -0.0432  0.6613  0.4909
 1015MOL0     C33889   1.389   6.020   0.690  0.5752  0.6238 -0.2726
 1015MOL0     C33890   1.390   6.016   0.845 -0.7157  0.2099 -0.4175
 1015MOL0     C33891   1.438   6.147   0.914 -0.4319 -0.5846 -0.1437
 1015MOL0    Cl33892   1.473   6.115   1.087 -0.4180  0.7842 -0.0479
 1015MOL0     C33893   1.880   5.468   0.216 -0.1013 -0.1440 -0.0712
 1015MOL0     C33894   1.974   5.369   0.191  0.1098  0.0413  0.1605
 1015MOL0     O33895   2.201   5.343  -0.044 -0.3845  0.2258  0.1166
 1015MOL0     C33896   2.368   5.132  -0.110 -0.2362  0.5365  0.5600
 1015MOL0     C33897   2.450   5.023  -0.129 -0.1543 -0.1965 -0.0465
 1015MOL0     N33898   3.130   4.787  -0.195  0.3485 -0.1231  0.2408
 1015MOL0     N33899   3.244   4.835  -0.176 -0.1546 -0.0887  1.3530
 1015MOL0     C33900   4.439   4.659  -0.065  0.7886  0.8840  0.9718
 1015MOL0     C33901   4.573   4.676  -0.089  0.5461  0.2515  0.2331
 1015MOL0     C33902   5.009   4.836  -0.072 -0.6425  0.7207  0.3484
 1015MOL0     C33903   5.109   4.930  -0.055 -0.4184 -0.0174 -0.4100
 1015MOL0     C33904   5.238   4.903  -0.091  0.5879 -0.4795  0.1973
 1015MOL0     C33905   5.274   4.775  -0.116  0.2935 -0.2453  0.9016
 1015MOL0     O33906   5.401   4.736  -0.149 -0.4756  0.0299  0.1926
 1015MOL0     C33907   5.498   4.823  -0.190 -0.8611  0.0252  1.2055
 1015MOL0     C33908   5.557   4.750  -0.322 -0.4291  0.2697 -0.1268
 1015MOL0     C33909   5.457   4.738  -0.431  1.3365  0.0863 -0.1076
 1015MOL0     C33910   5.538   4.677  -0.548  0.5113  0.2632  0.7988
 1015MOL0     C33911   5.597   4.789  -0.633  0.7160  0.4807 -0.2097
 1015MOL0     C33912   5.642   4.885  -0.696 -0.0602 -0.0610 -0.7962
 1015MOL0     C33913   5.180   4.682  -0.135  0.2927 -0.2860  0.0984
 1015MOL0     C33914   5.039   4.710  -0.121 -0.2874 -0.6539 -0.6494
 1015MOL0     H33915   4.621   4.970   0.062  1.7118 -0.6437 -1.3007
 1015MOL0     H33916   4.387   4.950   0.096 -1.5609 -0.1443 -2.1346
 1015MOL0     H33917   4.209   4.549   0.089 -1.1543  0.1036  1.6461
 1015MOL0     H33918   4.163   4.593  -0.084  0.6580  1.1882  0.0996
 1015MOL0     H33919   4.017   4.690   0.155 -1.7608 -0.8885  0.8316
 1015MOL0     H33920   3.968   4.552   0.048  1.3391  0.0311 -1.8207
 1015MOL0     H33921   3.905   4.665  -0.115 -1.5218  2.8690 -1.0141
 1015MOL0     H33922   4.010   4.808  -0.090 -2.3520  1.5725 -0.6514
 1015MOL0     H33923   3.769   4.719   0.067  3.9489 -3.0464  0.2977
 1015MOL0     H33924   3.869   4.858   0.121 -1.6307 -0.3078  1.0465
 1015MOL0     H33925   3.733   4.855  -0.158  0.1186  1.5451 -0.3974
 1015MOL0     H33926   3.807   4.988  -0.070 -1.0510  0.5410 -0.6930
 1015MOL0     H33927   3.600   5.042  -0.016  1.7816  1.0685  1.4857
 1015MOL0     H33928   3.633   4.947   0.128  1.3528  1.1761 -0.0239
 1015MOL0     H33929   3.495   4.811  -0.108 -1.7410  0.7893  0.5767
 1015MOL0     H33930   3.508   4.753   0.053  0.5908 -1.2233 -1.4311
 1015MOL0     H33931   3.363   5.017  -0.002  0.8780 -0.6222 -2.0197
 1015MOL0     H33932   3.351   4.893   0.136 -2.8286 -1.5697  0.0155
 1015MOL0     H33933   3.140   4.791   0.130  1.2333  1.5859  0.6471
 1015MOL0     H33934   2.876   4.818  -0.010  3.1710  1.5331  0.3155
 1015MOL0     H33935   2.924   4.658   0.048  1.3207 -1.0477 -1.3220
 1015MOL0     H33936   2.886   4.561  -0.181 -1.4177 -1.0483  0.5523
 1015MOL0     H33937   2.833   4.715  -0.249 -0.3448 -3.6647 -2.7519
 1015MOL0     H33938   2.655   4.553  -0.153  2.8485 -2.2047  0.8949
 1015MOL0     H33939   2.694   4.612   0.005  0.5950  0.5914 -0.3631
 1015MOL0     H33940   2.501   4.723  -0.102 -0.0305  0.2839  0.5052
 1015MOL0     H33941   2.600   4.794  -0.228 -0.7013  1.6576  0.6448
 1015MOL0     H33942   2.565   4.976   0.184  0.3612 -1.1830 -1.6212
 1015MOL0     H33943   2.392   5.146   0.228  1.8166 -0.3272  1.1732
 1015MOL0     H33944   2.255   5.527   0.288 -0.1351  1.6076  1.7826
 1015MOL0     H33945   2.097   5.688   0.365 -0.8273 -2.4632  2.7620
 1015MOL0     H33946   1.885   5.860   0.288  2.3121 -0.4713  0.3847
 1015MOL0     H33947   1.915   5.802   0.444  0.6224  4.5692  0.0562
 1015MOL0     H33948   1.703   5.808   0.529  3.4281 -2.0064 -0.3178
 1015MOL0     H33949   1.622   5.802   0.366  1.8429 -1.3191 -2.1175
 1015MOL0     H33950   1.728   6.030   0.344  3.0083 -2.8876 -1.0676
 1015MOL0     H33951   1.766   6.005   0.521  1.1681 -2.7499 -0.8016
 1015MOL0     H33952   1.531   6.140   0.455  3.0337  0.6810 -1.5694
 1015MOL0     H33953   1.489   5.967   0.432  1.1863  0.1738 -2.1651
 1015MOL0     H33954   1.584   6.112   0.676  1.4161  0.3609 -0.7282
 1015MOL0     H33955   1.578   5.934   0.663 -1.5270  0.0391  1.1116
 1015MOL0     H33956   1.341   5.928   0.658  0.9494  0.4412 -0.3162
 1015MOL0     H33957   1.336   6.103   0.644 -0.7940 -0.4115 -0.6134
 1015MOL0     H33958   1.292   5.999   0.891 -1.1105  0.5869 -1.0999
 1015MOL0     H33959   1.464   5.940   0.874  0.4347  2.2576  2.5390
 1015MOL0     H33960   1.377   6.237   0.900 -0.6559 -0.8165 -0.6896
 1015MOL0     H33961   1.538   6.172   0.878 -1.5064 -0.3793 -3.2871
 1015MOL0     H33962   1.780   5.453   0.177  0.2309 -1.2182 -0.5424
 1015MOL0     H33963   1.952   5.283   0.129  2.4854  1.7904 -3.3950
 1015MOL0     H33964   2.324   5.186  -0.193  0.5468  2.2824  1.2170
 1015MOL0     H33965   2.472   4.985  -0.228  1.6380  1.2276 -0.2267
 1015MOL0     H33966   4.389   4.571  -0.104 -1.5549  1.9106  1.4785
 1015MOL0     H33967   4.633   4.609  -0.151  0.3735 -0.1729  0.5184
 1015MOL0     H33968   5.082   5.029  -0.018 -2.9677 -0.7978  0.0504
 1015MOL0     H33969   5.312   4.982  -0.090 -0.7140  0.7666  0.3639
 1015MOL0     H33970   5.571   4.834  -0.110 -0.7737  1.1004  0.9983
 1015MOL0     H33971   5.462   4.921  -0.224  0.0449 -0.6662 -2.1291
 1015MOL0     H33972   5.638   4.813  -0.362  1.6494 -1.7039  0.7966
 1015MOL0     H33973   5.601   4.655  -0.291  1.5227  1.2801  0.3294
 1015MOL0     H33974   5.416   4.831  -0.472  1.3744 -1.0491 -3.0082
 1015MOL0     H33975   5.373   4.674  -0.404  1.5249  0.3146  1.0430
 1015MOL0     H33976   5.613   4.601  -0.527 -1.4272 -2.3299 -0.9626
 1015MOL0     H33977   5.474   4.631  -0.625  0.9454  2.7212 -1.1486
 1015MOL0     H33978   5.677   4.974  -0.743 -2.6702  1.1584 -0.6102
 1015MOL0     H33979   5.221   4.591  -0.177  0.4091  0.5833 -1.8216
 1015MOL0     H33980   4.961   4.640  -0.149  0.1488 -0.6426 -1.9779
 1016MOL0     O33981   1.358  10.767   2.413 -0.7577  0.0501 -0.1134
 1016MOL0     C33982   1.375  10.892   2.400 -0.4581 -0.8162 -1.2107
 1016MOL0     O33983   1.281  10.981   2.348  0.1373  0.2793  0.4781
 1016MOL0     C33984   1.150  10.946   2.316  0.9058  0.0538 -1.1881
 1016MOL0     C33985   1.078  10.829   2.361  0.0270 -0.1622  0.9812
 1016MOL0     C33986   0.957  10.796   2.304  0.1314  0.7051 -0.7695
 1016MOL0     C33987   0.905  10.870   2.203 -0.3750  0.8897  0.4199
 1016MOL0     O33988   0.792  10.818   2.140  0.7543 -0.0754 -0.3419
 1016MOL0     C33989   0.753  10.839   2.007 -0.1819  0.2676 -0.7551
 1016MOL0     C33990   0.639  10.752   1.959 -0.2841  0.0716 -0.1449
 1016MOL0     C33991   0.520  10.747   2.053 -0.9979 -0.3885  0.2086
 1016MOL0     C33992   0.407  10.652   2.006  1.5580 -1.0693 -0.7244
 1016MOL0     C33993   0.317  10.643   2.132  0.5592  0.1485  0.4818
 1016MOL0     C33994   0.173  10.597   2.087 -0.3661  0.2736 -0.6610
 1016MOL0     C33995   0.058  10.589   2.187  0.3537 -0.3831 -0.1263
 1016MOL0     C33996   0.084  10.497   2.309  0.4664 -0.0333 -0.1313
 1016MOL0     N33997  -0.053  10.482   2.361  0.3775 -0.3912 -0.1039
 1016MOL0     C33998  -0.136  10.370   2.334 -0.4085  0.6184  0.1472
 1016MOL0     C33999  -0.249  10.387   2.403 -0.3777  0.5838 -0.4962
 1016MOL0     C34000  -0.340  10.270   2.425  0.3537 -0.1765  0.7457
 1016MOL0     C34001  -0.459  10.272   2.335  0.2281  0.6543  0.1423
 1016MOL0     C34002  -0.543  10.395   2.358 -0.6428  1.6011 -0.3248
 1016MOL0     C34003  -0.602  10.390   2.498  0.3879  0.8505  0.7458
 1016MOL0     O34004  -0.728  10.471   2.507 -0.6887  0.1340 -0.3732
 1016MOL0     C34005  -0.850  10.424   2.456 -0.6409 -0.2058 -1.0481
 1016MOL0     C34006  -0.862  10.291   2.396  0.4255  0.3457 -0.0805
 1016MOL0     C34007  -0.988  10.254   2.351 -0.0641 -0.5289  0.1388
 1016MOL0     C34008  -1.101  10.327   2.388  0.5739 -0.6865 -0.8099
 1016MOL0     C34009  -1.237  10.281   2.356 -0.9752  0.0002 -0.4161
 1016MOL0     O34010  -1.346  10.336   2.425  0.4577  1.1705  0.0097
 1016MOL0     C34011  -1.466  10.297   2.371 -0.5672  0.9793  0.1300
 1016MOL0     C34012  -1.527  10.379   2.278 -0.5783  0.3096  0.6314
 1016MOL0     C34013  -1.656  10.345   2.228  0.8427  0.4591  0.0409
 1016MOL0     C34014  -1.723  10.229   2.272 -0.5164 -1.2284 -0.3843
 1016MOL0     O34015  -1.857  10.202   2.236  0.2448 -0.7414 -0.0271
 1016MOL0     C34016  -1.879  10.069   2.186 -0.4219  0.8710 -0.3295
 1016MOL0     C34017  -1.859  10.087   2.033  0.2864 -0.0229 -0.1504
 1016MOL0     C34018  -1.894   9.953   1.966  0.5703  0.0043  0.2761
 1016MOL0     C34019  -1.852   9.960   1.810  0.0000 -0.0516  0.2747
 1016MOL0     C34020  -1.869   9.837   1.717 -0.1763 -0.2686 -0.1530
 1016MOL0     C34021  -1.809   9.882   1.581 -0.1634 -0.3977 -0.3007
 1016MOL0     C34022  -1.859   9.781   1.477  0.2146  0.3107 -0.0143
 1016MOL0     C34023  -1.842   9.825   1.337 -1.0957 -0.6651 -0.4028
 1016MOL0    Cl34024  -1.680   9.852   1.308  0.4594 -0.4400 -0.1531
 1016MOL0     C34025  -1.659  10.156   2.373 -0.4139  0.0791 -0.0174
 1016MOL0     C34026  -1.532  10.188   2.421 -0.5022  0.5385 -0.3285
 1016MOL0     O34027  -1.240  10.201   2.260  0.0886  0.5127  0.0407
 1016MOL0     C34028  -1.089  10.447   2.463 -0.2200 -0.0678 -0.2025
 1016MOL0     C34029  -0.960  10.494   2.493 -0.3477 -0.2345  0.1884
 1016MOL0     N34030  -0.232  10.506   2.478 -0.6242  0.1448 -0.4760
 1016MOL0     N34031  -0.128  10.567   2.440 -0.2384 -0.9553 -0.1526
 1016MOL0     C34032   0.965  10.993   2.168 -0.2314 -0.1638 -0.6518
 1016MOL0     C34033   1.088  11.031   2.231 -0.1540 -0.5189  0.3487
 1016MOL0     C34034   1.502  10.942   2.464  0.6554 -0.8093  0.0383
 1016MOL0     C34035   1.553  11.069   2.443 -0.1218  1.0920  0.3679
 1016MOL0     C34036   1.678  11.113   2.482 -0.0917 -0.7094 -0.7732
 1016MOL0     C34037   1.769  11.017   2.549  0.5869 -0.3131  0.1457
 1016MOL0     O34038   1.894  11.066   2.571  0.4431  0.4176  0.4008
 1016MOL0     C34039   1.992  10.977   2.639 -0.4029  0.5651  0.6861
 1016MOL0     C34040   2.039  10.867   2.550  0.3499 -0.0963 -0.4058
 1016MOL0     C34041   2.085  10.738   2.630 -0.2955 -0.0392  0.5138
 1016MOL0     C34042   2.220  10.766   2.704 -0.3871 -0.1843 -0.7292
 1016MOL0     C34043   2.329  10.770   2.607 -0.0238  0.4146  0.7398
 1016MOL0     C34044   2.405  10.788   2.514  0.0853  0.8512  0.5059
 1016MOL0     C34045   1.710  10.893   2.589 -0.4622  0.4889  0.4835
 1016MOL0     C34046   1.580  10.860   2.545 -1.1903 -0.9543  0.5765
 1016MOL0     H34047   1.117  10.765   2.439  0.9221  2.3371  2.6985
 1016MOL0     H34048   0.909  10.703   2.330 -1.6375  1.8299  0.1382
 1016MOL0     H34049   0.839  10.805   1.949  0.0036  1.3418 -1.1357
 1016MOL0     H34050   0.737  10.947   1.999 -4.0730 -0.0989  0.0870
 1016MOL0     H34051   0.683  10.659   1.923  2.0972  0.6235  1.1074
 1016MOL0     H34052   0.598  10.786   1.863 -0.8920 -0.5457 -0.1117
 1016MOL0     H34053   0.490  10.850   2.073  2.6057  0.9895 -0.5936
 1016MOL0     H34054   0.561  10.712   2.149  0.6347  1.5310  0.2920
 1016MOL0     H34055   0.349  10.700   1.926 -1.2748 -1.9514  0.6459
 1016MOL0     H34056   0.440  10.551   1.981  1.8489 -1.6048  1.5859
 1016MOL0     H34057   0.305  10.742   2.178  0.9595  0.4473 -0.0440
 1016MOL0     H34058   0.368  10.570   2.196 -0.7702 -0.1255  1.2594
 1016MOL0     H34059   0.182  10.508   2.024  0.4401  0.8985 -1.4612
 1016MOL0     H34060   0.142  10.672   2.014 -1.9037 -3.0979 -3.7486
 1016MOL0     H34061   0.026  10.685   2.229  0.2369 -0.7631  0.6739
 1016MOL0     H34062  -0.027  10.549   2.131 -0.5426  2.5891 -1.0490
 1016MOL0     H34063   0.151  10.553   2.376 -0.9433  0.4741  0.9063
 1016MOL0     H34064   0.116  10.397   2.281 -2.5072 -0.5323 -2.1567
 1016MOL0     H34065  -0.115  10.275   2.287 -1.5886 -0.5352  1.8522
 1016MOL0     H34066  -0.378  10.273   2.528  0.3601 -1.3304  0.7945
 1016MOL0     H34067  -0.283  10.176   2.423 -1.1557 -1.1165 -0.7687
 1016MOL0     H34068  -0.518  10.181   2.345  2.5717 -1.1301 -1.1744
 1016MOL0     H34069  -0.418  10.272   2.233  1.8818  1.1907  0.7751
 1016MOL0     H34070  -0.494  10.491   2.337  1.6403  0.2490 -1.5404
 1016MOL0     H34071  -0.626  10.374   2.291 -0.7990  0.4085  0.2213
 1016MOL0     H34072  -0.531  10.422   2.575  0.8662 -1.1115  1.1771
 1016MOL0     H34073  -0.621  10.284   2.517  0.6548  0.5758 -0.4607
 1016MOL0     H34074  -0.774  10.232   2.368 -0.8281 -1.3723 -0.5710
 1016MOL0     H34075  -1.005  10.163   2.295 -0.6201  0.9270 -2.2068
 1016MOL0     H34076  -1.462  10.460   2.247  2.6104 -1.9039  1.0621
 1016MOL0     H34077  -1.708  10.400   2.151 -0.6551  0.0179  0.6962
 1016MOL0     H34078  -1.981  10.036   2.208 -0.0197  0.2688  0.7482
 1016MOL0     H34079  -1.808   9.994   2.223  0.2098  1.7251  0.2343
 1016MOL0     H34080  -1.761  10.129   2.007  0.5122  0.7114  1.7193
 1016MOL0     H34081  -1.925  10.163   1.993  0.1443  0.9129  1.7365
 1016MOL0     H34082  -2.002   9.938   1.971  0.6246 -0.3679  0.4020
 1016MOL0     H34083  -1.849   9.865   2.013 -2.4169 -1.1459  1.1625
 1016MOL0     H34084  -1.908  10.038   1.759 -1.5434 -2.3672 -1.8257
 1016MOL0     H34085  -1.746   9.983   1.824  0.3831 -1.0595 -0.7881
 1016MOL0     H34086  -1.976   9.816   1.711  0.1037 -1.7948 -0.3164
 1016MOL0     H34087  -1.814   9.752   1.761 -1.9475  0.6366  4.3900
 1016MOL0     H34088  -1.699   9.879   1.584 -0.1647 -0.6425 -0.4505
 1016MOL0     H34089  -1.835   9.985   1.556  1.0048  0.7017  2.5702
 1016MOL0     H34090  -1.801   9.689   1.478  1.0105  0.7817 -0.8721
 1016MOL0     H34091  -1.967   9.769   1.487 -0.1804  1.6144 -2.0463
 1016MOL0     H34092  -1.904   9.915   1.329 -0.6732  0.0344  2.9668
 1016MOL0     H34093  -1.884   9.745   1.275  0.2804  0.2972 -2.6954
 1016MOL0     H34094  -1.715  10.069   2.405  2.9286 -2.0009  0.6572
 1016MOL0     H34095  -1.485  10.126   2.497 -2.0397 -0.6376 -0.2963
 1016MOL0     H34096  -1.184  10.496   2.483 -0.1495  1.4574 -3.1636
 1016MOL0     H34097  -0.961  10.587   2.548  0.4785  1.4309 -2.4128
 1016MOL0     H34098   0.917  11.056   2.094  1.4665 -0.0257 -1.6714
 1016MOL0     H34099   1.144  11.122   2.211  3.8975 -2.0531  3.3888
 1016MOL0     H34100   1.491  11.147   2.398  3.5984  2.3198 -3.3069
 1016MOL0     H34101   1.715  11.213   2.462 -0.8070 -0.0585  0.9232
 1016MOL0     H34102   1.952  10.936   2.732 -2.3378  2.6732  0.8497
 1016MOL0     H34103   2.082  11.035   2.662  1.2449 -0.1224 -3.1715
 1016MOL0     H34104   1.961  10.840   2.477 -0.9629 -2.2583  1.6404
 1016MOL0     H34105   2.122  10.903   2.488 -1.3180  1.8701 -1.6139
 1016MOL0     H34106   2.106  10.649   2.571  0.1315  2.4579 -3.5080
 1016MOL0     H34107   2.008  10.711   2.703 -0.1918  1.7149  1.3391
 1016MOL0     H34108   2.205  10.862   2.753 -0.0789  0.0922 -1.1644
 1016MOL0     H34109   2.233  10.683   2.774 -1.8293  3.0226  3.7723
 1016MOL0     H34110   2.483  10.802   2.443  1.7181 -1.3023  1.7641
 1016MOL0     H34111   1.755  10.828   2.663 -0.2304 -0.2292 -0.2776
 1016MOL0     H34112   1.539  10.763   2.573  1.7951 -1.9760  1.8920
 1017MOL0     O34113   6.067   8.858   6.963  0.5778 -0.1371  0.6996
 1017MOL0     C34114   5.963   8.807   6.927 -0.1190 -0.0046 -1.1954
 1017MOL0     O34115   5.941   8.746   6.807 -0.4496  0.8526  0.1258
 1017MOL0     C34116   6.054   8.719   6.730 -1.1313 -1.1479  0.3241
 1017MOL0     C34117   6.143   8.821   6.692  0.7227 -0.4633  0.1129
 1017MOL0     C34118   6.256   8.788   6.609 -0.2864  0.1514  0.0919
 1017MOL0     C34119   6.278   8.654   6.572 -0.9038  0.3089 -0.8417
 1017MOL0     O34120   6.382   8.614   6.494 -0.3503  1.4520  0.4419
 1017MOL0     C34121   6.378   8.675   6.360 -1.0504  0.3273 -0.0104
 1017MOL0     C34122   6.481   8.613   6.266  0.0691  0.8426  0.0330
 1017MOL0     C34123   6.628   8.611   6.331 -0.1592  1.0197 -0.4272
 1017MOL0     C34124   6.681   8.751   6.307 -0.6979 -0.6899 -0.0816
 1017MOL0     C34125   6.789   8.801   6.400 -0.3180 -0.6368 -0.1241
 1017MOL0     C34126   6.877   8.917   6.355 -0.8312 -0.0392  0.4779
 1017MOL0     C34127   6.802   9.053   6.326 -0.5984  0.0886  0.5030
 1017MOL0     C34128   6.728   9.103   6.444 -0.4582 -0.2860 -0.1774
 1017MOL0     N34129   6.820   9.130   6.553  0.4800  0.7629  0.1544
 1017MOL0     C34130   6.840   9.044   6.660 -0.4947  0.2630 -0.9105
 1017MOL0     C34131   6.930   9.111   6.742  0.3883 -0.0409 -0.4252
 1017MOL0     C34132   6.973   9.061   6.872 -0.5358  0.2479 -0.2361
 1017MOL0     C34133   7.124   9.047   6.860 -0.3487 -0.9485  0.0898
 1017MOL0     C34134   7.188   9.073   6.999  0.0635  0.1169  0.5628
 1017MOL0     C34135   7.253   8.928   7.055  0.0042 -0.1788  0.2164
 1017MOL0     O34136   7.356   8.906   6.960  0.3904  0.1153 -0.1989
 1017MOL0     C34137   7.491   8.927   7.000 -0.0742  1.2305 -0.2087
 1017MOL0     C34138   7.550   8.858   7.110  0.1029  0.3519 -0.5300
 1017MOL0     C34139   7.677   8.866   7.138 -0.9668  0.9163 -0.1338
 1017MOL0     C34140   7.762   8.935   7.058 -0.3417  0.3594  0.0122
 1017MOL0     C34141   7.911   8.945   7.076 -0.0018  0.5554  0.1559
 1017MOL0     O34142   7.990   9.037   7.014 -0.5529  0.7573 -0.6189
 1017MOL0     C34143   8.125   9.042   7.047 -0.0229  0.2580  1.0230
 1017MOL0     C34144   8.168   9.125   7.151  0.1162  0.5219  0.5334
 1017MOL0     C34145   8.298   9.112   7.206 -0.6573 -0.0154  0.7079
 1017MOL0     C34146   8.395   9.039   7.134  1.3972  0.3695 -0.4286
 1017MOL0     O34147   8.522   9.017   7.188  0.3002  0.2214  0.1159
 1017MOL0     C34148   8.630   8.987   7.101 -0.7796  0.4860  1.1611
 1017MOL0     C34149   8.687   9.101   7.021 -0.1516  0.0368  0.3221
 1017MOL0     C34150   8.803   9.048   6.927  0.0951  0.7807 -0.3700
 1017MOL0     C34151   8.881   9.163   6.867 -0.0021 -0.1073 -1.1495
 1017MOL0     C34152   9.024   9.139   6.848  0.0340 -0.0373  0.4645
 1017MOL0     C34153   9.101   9.116   6.973  0.9158  0.0186  0.2194
 1017MOL0     C34154   9.245   9.116   6.955 -0.3957 -0.1583 -0.2831
 1017MOL0     C34155   9.298   9.261   6.918  0.4567 -0.4777  0.1440
 1017MOL0    Cl34156   9.468   9.275   6.916  0.0600  0.4817  0.0509
 1017MOL0     C34157   8.348   8.966   7.021 -0.1261  1.0886 -0.2419
 1017MOL0     C34158   8.215   8.968   6.972 -0.3699  0.1609 -0.3492
 1017MOL0     O34159   7.952   8.867   7.158  0.1174  0.6313  1.3254
 1017MOL0     C34160   7.713   8.993   6.940 -0.1171 -0.4137  0.8644
 1017MOL0     C34161   7.577   8.985   6.915 -0.1308  0.0880 -0.3501
 1017MOL0     N34162   6.959   9.223   6.672  0.2844  0.3017 -0.2129
 1017MOL0     N34163   6.891   9.239   6.573 -0.3086  0.2612  1.1105
 1017MOL0     C34164   6.191   8.554   6.621  0.8336 -1.0426  0.0883
 1017MOL0     C34165   6.073   8.591   6.686  0.3186  0.1831 -0.5746
 1017MOL0     C34166   5.849   8.817   7.021 -1.0295  0.2453 -0.0614
 1017MOL0     C34167   5.734   8.753   6.996  0.7381  0.3937  0.0087
 1017MOL0     C34168   5.619   8.772   7.065  0.3693  0.1543  1.1035
 1017MOL0     C34169   5.614   8.871   7.158 -1.0239  0.1659 -0.7165
 1017MOL0     O34170   5.507   8.888   7.227  0.3955 -0.9898  0.4461
 1017MOL0     C34171   5.430   9.004   7.178 -0.1440 -0.9243  0.2364
 1017MOL0     C34172   5.281   8.997   7.214  0.5006  0.3017  0.7382
 1017MOL0     C34173   5.200   8.904   7.111  0.3313  0.5221  0.0134
 1017MOL0     C34174   5.045   8.924   7.120  0.5752 -0.2443  0.3169
 1017MOL0     C34175   4.984   8.866   7.243 -0.2266  1.0457  0.2453
 1017MOL0     C34176   4.942   8.836   7.352 -0.8202  0.4840  0.3204
 1017MOL0     C34177   5.734   8.937   7.195  0.3546 -0.0070 -0.3290
 1017MOL0     C34178   5.852   8.906   7.125  0.0058  0.5937  0.5768
 1017MOL0     H34179   6.131   8.928   6.710 -0.9854 -0.8848  1.8181
 1017MOL0     H34180   6.323   8.864   6.570 -2.4599  2.1855  0.1125
 1017MOL0     H34181   6.400   8.782   6.365  2.9539 -0.2594 -1.0043
 1017MOL0     H34182   6.277   8.667   6.319 -2.1037 -0.8333  2.6443
 1017MOL0     H34183   6.487   8.659   6.167 -1.1819 -0.9170 -0.9192
 1017MOL0     H34184   6.452   8.509   6.251  1.6878  0.4391 -0.5573
 1017MOL0     H34185   6.690   8.538   6.278  0.1977  2.4181 -2.0405
 1017MOL0     H34186   6.627   8.590   6.439  1.1261 -3.6572 -1.1031
 1017MOL0     H34187   6.726   8.751   6.207 -0.6113  1.7594 -0.1102
 1017MOL0     H34188   6.607   8.830   6.295  1.3103  1.3144 -0.0387
 1017MOL0     H34189   6.857   8.722   6.433  1.9562  1.4895  0.5350
 1017MOL0     H34190   6.733   8.816   6.493  1.4866  1.5704  0.7029
 1017MOL0     H34191   6.924   8.889   6.260  0.2909 -2.2046  1.5821
 1017MOL0     H34192   6.961   8.932   6.425 -1.4967  2.7223  0.8177
 1017MOL0     H34193   6.871   9.132   6.295 -2.6142  3.5032  3.8452
 1017MOL0     H34194   6.721   9.030   6.255 -2.5766  0.1565  2.6082
 1017MOL0     H34195   6.653   9.038   6.490  1.2744 -0.3680  2.8097
 1017MOL0     H34196   6.674   9.195   6.421 -1.0592 -0.2059  1.4141
 1017MOL0     H34197   6.804   8.941   6.666  1.4984 -0.4282  0.0466
 1017MOL0     H34198   6.924   8.969   6.905  0.1339  0.5566  1.7084
 1017MOL0     H34199   6.955   9.135   6.951 -0.9370  1.2638 -1.2397
 1017MOL0     H34200   7.163   9.116   6.785 -0.3251 -2.5504 -1.4454
 1017MOL0     H34201   7.150   8.949   6.818 -3.5055 -0.7477 -2.8079
 1017MOL0     H34202   7.263   9.152   6.984 -0.2593  0.1411 -1.0832
 1017MOL0     H34203   7.116   9.116   7.069  0.0926  0.5263  0.3399
 1017MOL0     H34204   7.170   8.857   7.053  0.1641 -0.4274 -2.8859
 1017MOL0     H34205   7.290   8.959   7.153  1.2214  1.5964 -0.7381
 1017MOL0     H34206   7.500   8.794   7.182  0.0925  1.4116  0.4401
 1017MOL0     H34207   7.713   8.818   7.228 -3.1378  1.2168  0.9538
 1017MOL0     H34208   8.094   9.189   7.198  1.7905  3.4594 -0.4881
 1017MOL0     H34209   8.320   9.174   7.292 -2.6283 -1.6934  2.5412
 1017MOL0     H34210   8.620   8.894   7.045  0.6124 -0.1984  2.0145
 1017MOL0     H34211   8.713   8.972   7.170  0.0422  0.9349  0.2933
 1017MOL0     H34212   8.725   9.179   7.088  1.7946 -0.4763 -0.1288
 1017MOL0     H34213   8.612   9.149   6.957  0.3965  0.2928 -0.1295
 1017MOL0     H34214   8.770   8.997   6.836 -2.0834  0.4104  0.5463
 1017MOL0     H34215   8.860   8.970   6.979 -2.0634  0.4201  1.6659
 1017MOL0     H34216   8.820   9.186   6.779 -2.2435 -0.0215  0.3564
 1017MOL0     H34217   8.872   9.250   6.932  2.1373 -0.3972 -0.4116
 1017MOL0     H34218   9.057   9.224   6.788 -1.6204 -1.6850 -3.0774
 1017MOL0     H34219   9.033   9.050   6.784 -2.4942  0.5813 -0.8836
 1017MOL0     H34220   9.065   9.023   7.018 -0.5360 -0.4836 -1.8824
 1017MOL0     H34221   9.065   9.189   7.046 -2.0388 -1.3680  0.2830
 1017MOL0     H34222   9.279   9.103   7.058  0.3501  2.5981 -0.0865
 1017MOL0     H34223   9.267   9.036   6.884  1.9166 -1.8758  2.2002
 1017MOL0     H34224   9.257   9.349   6.970 -1.3405  0.8181 -3.1312
 1017MOL0     H34225   9.282   9.293   6.815  1.4464  4.6976  1.2771
 1017MOL0     H34226   8.414   8.907   6.957  1.6115  1.5801  1.0317
 1017MOL0     H34227   8.180   8.907   6.890 -2.2193 -2.2076  2.0429
 1017MOL0     H34228   7.770   9.063   6.880 -2.0858  2.1971  1.8559
 1017MOL0     H34229   7.522   9.034   6.835 -0.5298 -0.2510 -0.2890
 1017MOL0     H34230   6.225   8.458   6.584  0.7526  0.3751 -4.1501
 1017MOL0     H34231   5.996   8.522   6.720 -0.1387  0.9382 -0.0455
 1017MOL0     H34232   5.724   8.670   6.927 -3.8832  0.7856 -0.1040
 1017MOL0     H34233   5.536   8.704   7.052  0.1217  0.3425  1.6574
 1017MOL0     H34234   5.449   9.023   7.072 -0.4706  0.1134  0.3503
 1017MOL0     H34235   5.471   9.085   7.240  2.6867 -0.6292 -1.8766
 1017MOL0     H34236   5.269   8.954   7.313  0.9960 -0.1293  0.6118
 1017MOL0     H34237   5.244   9.098   7.196 -3.8722 -1.5115 -2.4060
 1017MOL0     H34238   5.228   8.800   7.131  0.0881  0.8595  2.4729
 1017MOL0     H34239   5.240   8.932   7.014  2.3995  0.3804  0.7801
 1017MOL0     H34240   5.019   9.029   7.106 -0.0352 -0.7072 -2.6774
 1017MOL0     H34241   5.007   8.880   7.028 -1.1698 -0.7074  1.2104
 1017MOL0     H34242   4.919   8.803   7.452 -0.6885 -0.6943 -0.0191
 1017MOL0     H34243   5.742   9.000   7.284 -0.2482 -1.6720  0.9579
 1017MOL0     H34244   5.952   8.934   7.157 -0.0301  2.4946 -0.7993
 1018MOL0     O34245   8.260   2.127   1.859 -0.4336  0.5551 -0.4459
 1018MOL0     C34246   8.293   2.017   1.910 -0.0005 -0.3826  0.3198
 1018MOL0     O34247   8.407   1.999   1.978 -0.0502 -0.0937 -0.1180
 1018MOL0     C34248   8.500   2.098   2.000 -0.0964 -0.4086  0.1056
 1018MOL0     C34249   8.563   2.101   2.127 -0.3974  0.9967 -0.2982
 1018MOL0     C34250   8.679   2.171   2.154  0.3004 -0.7634 -0.6013
 1018MOL0     C34251   8.740   2.259   2.059 -0.8564 -0.2022 -0.6980
 1018MOL0     O34252   8.862   2.318   2.067  0.0294  0.1303  0.0667
 1018MOL0     C34253   8.935   2.307   2.189 -0.4339 -0.7780 -0.2105
 1018MOL0     C34254   9.068   2.392   2.181 -0.9531 -0.8805  0.5300
 1018MOL0     C34255   9.051   2.519   2.108 -0.0757  0.3638  1.0226
 1018MOL0     C34256   8.960   2.607   2.197 -0.2120  0.6603  0.4854
 1018MOL0     C34257   8.956   2.738   2.131  0.1004  0.6833 -0.5170
 1018MOL0     C34258   8.860   2.743   2.013 -0.5455 -0.4547  0.6255
 1018MOL0     C34259   8.886   2.869   1.925  0.0982 -0.2101 -0.3997
 1018MOL0     C34260   8.804   2.995   1.981 -0.2751  0.5251 -0.7694
 1018MOL0     N34261   8.815   3.111   1.898  0.3289  0.0766 -0.5423
 1018MOL0     C34262   8.754   3.127   1.779  0.2665 -0.1998  0.4195
 1018MOL0     C34263   8.813   3.236   1.719 -0.4421 -1.1731  0.6286
 1018MOL0     C34264   8.763   3.310   1.592  0.7556 -0.6786  0.6655
 1018MOL0     C34265   8.606   3.309   1.568 -0.4880  0.5008  0.3440
 1018MOL0     C34266   8.573   3.223   1.447 -0.3048  0.1897  0.6899
 1018MOL0     C34267   8.437   3.162   1.454  0.9721 -0.0016 -0.0434
 1018MOL0     O34268   8.410   3.057   1.367 -0.1866 -0.5660 -0.3449
 1018MOL0     C34269   8.285   3.000   1.379 -0.7585  0.0850  0.6798
 1018MOL0     C34270   8.165   3.073   1.396  0.1986  0.7238  0.2501
 1018MOL0     C34271   8.040   3.004   1.379 -0.1923  1.1289 -1.1939
 1018MOL0     C34272   8.039   2.862   1.353 -0.3073 -0.1923 -0.0741
 1018MOL0     C34273   7.906   2.801   1.324  0.2627 -0.1130  0.1592
 1018MOL0     O34274   7.799   2.888   1.312  0.1350  0.1057 -0.2530
 1018MOL0     C34275   7.665   2.851   1.293 -1.4123 -0.2161  0.0609
 1018MOL0     C34276   7.601   2.732   1.339  0.0533  0.3897 -0.3359
 1018MOL0     C34277   7.464   2.709   1.323 -0.5430  0.0114 -0.3966
 1018MOL0     C34278   7.392   2.802   1.238  0.1372  1.0265  0.4002
 1018MOL0     O34279   7.267   2.764   1.199  0.6203  0.0442 -0.9523
 1018MOL0     C34280   7.171   2.728   1.305  0.2976 -0.4473 -1.5037
 1018MOL0     C34281   7.027   2.711   1.251  0.2163 -0.2341 -1.5496
 1018MOL0     C34282   6.980   2.849   1.195 -0.5187 -0.2761  0.3719
 1018MOL0     C34283   6.837   2.851   1.126  0.5072  0.4865  0.9491
 1018MOL0     C34284   6.715   2.832   1.221  0.0224 -0.0241  0.3513
 1018MOL0     C34285   6.582   2.846   1.150  0.3586  0.1940  0.8977
 1018MOL0     C34286   6.466   2.848   1.246  0.0152 -0.1404 -0.1377
 1018MOL0     C34287   6.339   2.802   1.182 -0.2497  0.0682 -0.3652
 1018MOL0    Cl34288   6.206   2.781   1.296  0.7407  0.1758 -0.2301
 1018MOL0     C34289   7.455   2.917   1.179  0.1017  0.0482 -0.1303
 1018MOL0     C34290   7.586   2.937   1.212 -0.4302 -0.3553 -1.1116
 1018MOL0     O34291   7.899   2.681   1.309  1.3235  0.1888 -0.2135
 1018MOL0     C34292   8.158   2.796   1.348  1.3825 -0.7065  0.6826
 1018MOL0     C34293   8.276   2.861   1.354  0.3295 -0.1330 -0.5372
 1018MOL0     N34294   8.913   3.276   1.807 -0.3067 -0.0248 -0.2497
 1018MOL0     N34295   8.913   3.196   1.902  0.1570  0.2482 -0.1400
 1018MOL0     C34296   8.671   2.274   1.934 -0.3060  1.1297  0.4845
 1018MOL0     C34297   8.551   2.190   1.905 -0.6267  0.3771  1.1821
 1018MOL0     C34298   8.192   1.905   1.912 -0.1962  0.2082  0.0145
 1018MOL0     C34299   8.055   1.925   1.881 -0.7418 -0.3605  0.6910
 1018MOL0     C34300   7.963   1.823   1.849 -0.0643 -0.4607 -0.5601
 1018MOL0     C34301   7.999   1.693   1.862 -0.3455 -0.8481 -0.1044
 1018MOL0     O34302   7.918   1.584   1.841  0.2797  0.8661  0.3816
 1018MOL0     C34303   7.809   1.595   1.754  0.2343 -0.0721  0.2228
 1018MOL0     C34304   7.717   1.471   1.757  0.0295  0.0098 -0.7147
 1018MOL0     C34305   7.597   1.512   1.667  0.3792  1.6419  0.1646
 1018MOL0     C34306   7.489   1.399   1.650 -1.1421 -0.3453 -0.5894
 1018MOL0     C34307   7.430   1.363   1.784 -0.6043 -0.5125  0.5469
 1018MOL0     C34308   7.407   1.333   1.904  0.4992  0.7002 -0.4723
 1018MOL0     C34309   8.121   1.671   1.926  0.3989 -0.1774  0.5904
 1018MOL0     C34310   8.223   1.771   1.942 -0.6691 -0.3124  1.0950
 1018MOL0     H34311   8.537   2.034   2.208  5.8788 -2.9829 -0.9188
 1018MOL0     H34312   8.722   2.156   2.252 -1.2091  0.4248  0.2981
 1018MOL0     H34313   8.964   2.205   2.216  0.2308 -0.3016  0.9362
 1018MOL0     H34314   8.854   2.350   2.249 -1.6818 -3.0308 -0.1717
 1018MOL0     H34315   9.147   2.336   2.130 -1.1585 -0.4628 -0.2520
 1018MOL0     H34316   9.106   2.419   2.280  2.4519 -0.9271 -0.6438
 1018MOL0     H34317   9.012   2.511   2.006  2.4984  0.9623 -0.1026
 1018MOL0     H34318   9.145   2.574   2.099  0.7005 -1.1144 -0.7236
 1018MOL0     H34319   8.861   2.560   2.199  0.9417 -2.0734 -1.3318
 1018MOL0     H34320   8.982   2.608   2.304 -1.4440  2.0917  0.7557
 1018MOL0     H34321   9.059   2.763   2.106  1.1489 -1.3999  1.3466
 1018MOL0     H34322   8.924   2.811   2.206 -0.6798 -0.8792  0.7476
 1018MOL0     H34323   8.759   2.732   2.054 -0.1484 -1.9280  1.2812
 1018MOL0     H34324   8.858   2.656   1.946 -0.4871  1.3506 -1.8265
 1018MOL0     H34325   8.993   2.891   1.926 -0.0249  1.7590  5.0246
 1018MOL0     H34326   8.867   2.831   1.824 -1.0234 -0.6537 -0.0418
 1018MOL0     H34327   8.835   3.005   2.085  2.8077 -0.2121 -1.5071
 1018MOL0     H34328   8.696   2.979   1.990 -0.0458 -0.5667  0.2505
 1018MOL0     H34329   8.664   3.082   1.736  0.3142  0.7271 -0.7022
 1018MOL0     H34330   8.815   3.270   1.505 -0.2458  1.3099 -0.9415
 1018MOL0     H34331   8.803   3.412   1.601  0.4463 -0.5268  0.3682
 1018MOL0     H34332   8.570   3.411   1.550 -0.7552  0.4221  0.4290
 1018MOL0     H34333   8.560   3.279   1.662 -0.5081  2.1853  0.9001
 1018MOL0     H34334   8.580   3.287   1.359 -3.5109 -0.3842 -0.1208
 1018MOL0     H34335   8.633   3.132   1.437 -2.4250 -1.5957  2.8742
 1018MOL0     H34336   8.377   3.252   1.437 -0.4106  0.2255  4.5637
 1018MOL0     H34337   8.424   3.124   1.556  1.1820  0.1361  0.0375
 1018MOL0     H34338   8.147   3.179   1.409 -4.4799  0.0458  1.0943
 1018MOL0     H34339   7.949   3.064   1.374 -0.5417  0.7349  0.0308
 1018MOL0     H34340   7.655   2.657   1.395  1.7782  1.2595 -0.7860
 1018MOL0     H34341   7.422   2.614   1.355 -1.3679  0.4934 -0.0221
 1018MOL0     H34342   7.172   2.812   1.375 -0.1974  0.1326 -2.1820
 1018MOL0     H34343   7.205   2.644   1.366  0.5552  1.1539  0.7065
 1018MOL0     H34344   6.965   2.680   1.336  2.8025  0.6559  0.7979
 1018MOL0     H34345   7.030   2.645   1.164 -0.5240  0.6740 -2.2896
 1018MOL0     H34346   7.060   2.883   1.129  0.7983  0.5583  2.2992
 1018MOL0     H34347   6.989   2.925   1.273 -0.1929 -0.4300  0.4858
 1018MOL0     H34348   6.812   2.943   1.073  0.5706  0.6834  1.2590
 1018MOL0     H34349   6.835   2.772   1.050  3.3540  3.9222 -3.1965
 1018MOL0     H34350   6.712   2.911   1.297 -0.0989 -1.0823  1.4921
 1018MOL0     H34351   6.711   2.734   1.269  0.2626  0.3461  1.1460
 1018MOL0     H34352   6.568   2.763   1.080  2.3724 -0.7144  1.5200
 1018MOL0     H34353   6.573   2.938   1.091 -1.2645 -0.8180 -0.5427
 1018MOL0     H34354   6.492   2.785   1.332 -1.4539 -0.0073  0.4347
 1018MOL0     H34355   6.451   2.949   1.285  1.1350  0.5747 -1.4753
 1018MOL0     H34356   6.351   2.710   1.124 -3.3825  0.5845 -2.0546
 1018MOL0     H34357   6.299   2.876   1.111  0.9675  1.0614 -0.0591
 1018MOL0     H34358   7.395   2.994   1.131  0.8273 -0.3934 -1.8377
 1018MOL0     H34359   7.634   3.028   1.180  3.2017 -1.6252  0.2166
 1018MOL0     H34360   8.158   2.690   1.324 -1.1410 -0.7929  0.8796
 1018MOL0     H34361   8.359   2.793   1.335 -0.1200 -1.7255  2.5282
 1018MOL0     H34362   8.723   2.336   1.862  3.2534  1.4240  3.0392
 1018MOL0     H34363   8.500   2.197   1.810  2.0560  2.1379 -0.2507
 1018MOL0     H34364   8.022   2.023   1.847  0.4247 -0.3938 -0.6089
 1018MOL0     H34365   7.866   1.860   1.815 -1.5482 -0.6532  3.0464
 1018MOL0     H34366   7.844   1.629   1.657 -0.1536 -1.6495 -0.5100
 1018MOL0     H34367   7.741   1.670   1.797  1.5410  0.8570  0.7155
 1018MOL0     H34368   7.759   1.381   1.711 -5.5814 -3.8829  0.8083
 1018MOL0     H34369   7.695   1.452   1.863  3.9564 -1.0569  0.0615
 1018MOL0     H34370   7.629   1.535   1.565  0.1393 -0.8243 -0.5363
 1018MOL0     H34371   7.546   1.601   1.705 -1.4253  0.1727  1.3952
 1018MOL0     H34372   7.409   1.436   1.586 -0.8873 -1.9891 -1.9222
 1018MOL0     H34373   7.534   1.308   1.609  2.3185  1.4434 -1.1831
 1018MOL0     H34374   7.368   1.313   2.001  3.0433  2.7253  1.1119
 1018MOL0     H34375   8.145   1.568   1.954 -1.1055 -0.2642  1.6870
 1018MOL0     H34376   8.325   1.741   1.968  0.3723  0.0853 -2.0653
 1019MOL0     O34377   2.503   9.583  10.895  0.4421  1.1402  0.4621
 1019MOL0     C34378   2.561   9.539  10.787 -0.2129  0.2183 -0.3900
 1019MOL0     O34379   2.500   9.542  10.669 -0.5728  0.0726  0.0084
 1019MOL0     C34380   2.365   9.573  10.658  1.4602  0.3424 -0.5001
 1019MOL0     C34381   2.324   9.704  10.674 -0.4316 -0.0280 -0.0735
 1019MOL0     C34382   2.200   9.758  10.641 -0.2995 -0.6573 -0.2571
 1019MOL0     C34383   2.114   9.669  10.582  0.4584 -0.0937 -0.4665
 1019MOL0     O34384   1.983   9.723  10.563  0.6104  1.0880  0.1467
 1019MOL0     C34385   1.869   9.634  10.541 -0.5536  0.8370 -0.0818
 1019MOL0     C34386   1.730   9.712  10.548  0.8503  0.5095 -0.7291
 1019MOL0     C34387   1.705   9.816  10.436 -0.1415 -0.2577 -0.0884
 1019MOL0     C34388   1.705   9.758  10.289 -0.3624 -0.0256 -0.2078
 1019MOL0     C34389   1.594   9.659  10.271 -0.7001  0.0047  1.0705
 1019MOL0     C34390   1.552   9.652  10.121 -0.4606 -0.2626 -0.0995
 1019MOL0     C34391   1.454   9.529  10.098 -1.4825 -0.6061 -0.3201
 1019MOL0     C34392   1.434   9.503   9.948  0.6699  0.5604  0.9083
 1019MOL0     N34393   1.362   9.376   9.924 -0.1360 -0.9875  0.1656
 1019MOL0     C34394   1.242   9.341   9.978  0.0373 -0.2452  0.1713
 1019MOL0     C34395   1.195   9.236   9.903 -0.1779 -0.4100 -0.0486
 1019MOL0     C34396   1.071   9.154   9.923 -0.8091  0.1175 -0.6881
 1019MOL0     C34397   1.011   9.116   9.784  0.2132 -0.3203  0.2111
 1019MOL0     C34398   0.870   9.046   9.796  0.7669 -0.6799 -0.4249
 1019MOL0     C34399   0.793   9.014   9.678  0.4660 -0.3930  0.2626
 1019MOL0     O34400   0.733   8.890   9.699  0.3582 -0.6537  0.4528
 1019MOL0     C34401   0.600   8.881   9.722  0.2949 -0.3843  0.0066
 1019MOL0     C34402   0.507   8.982   9.747 -0.9452 -0.5759  0.5247
 1019MOL0     C34403   0.368   8.958   9.752  0.0333 -0.4588 -0.1661
 1019MOL0     C34404   0.320   8.834   9.724  1.2503  0.6034 -0.1154
 1019MOL0     C34405   0.173   8.806   9.703  0.1432 -0.4293  0.5776
 1019MOL0     O34406   0.135   8.676   9.705  0.6293 -0.7668  0.8210
 1019MOL0     C34407  -0.001   8.639   9.695  0.6270  1.3960  0.7070
 1019MOL0     C34408  -0.025   8.495   9.689  0.1772 -0.2742  0.7011
 1019MOL0     C34409  -0.159   8.449   9.703 -0.9296  0.0071  0.9288
 1019MOL0     C34410  -0.276   8.522   9.703 -0.4881 -1.2272 -0.0226
 1019MOL0     O34411  -0.393   8.454   9.710 -0.3068 -0.5566  0.4585
 1019MOL0     C34412  -0.510   8.536   9.687 -0.4551 -0.5470 -0.9575
 1019MOL0     C34413  -0.615   8.439   9.641  0.7254 -0.1074 -0.2505
 1019MOL0     C34414  -0.668   8.351   9.755  0.1054  1.1646  0.1155
 1019MOL0     C34415  -0.792   8.281   9.691 -0.0444 -0.0637 -0.0896
 1019MOL0     C34416  -0.841   8.182   9.787  0.4647 -0.3894 -0.6030
 1019MOL0     C34417  -0.933   8.248   9.893  0.4024 -0.0754 -0.1996
 1019MOL0     C34418  -1.034   8.146   9.951  1.0827  0.9997  0.9865
 1019MOL0     C34419  -0.964   8.046  10.039  0.2270  0.5437  0.2166
 1019MOL0    Cl34420  -0.897   7.901   9.939  0.4118 -0.4634 -0.5161
 1019MOL0     C34421  -0.260   8.665   9.713  0.1529  0.2418 -0.1175
 1019MOL0     C34422  -0.126   8.718   9.712  0.3435 -0.0329 -0.5741
 1019MOL0     O34423   0.102   8.901   9.667 -0.5404  0.3153  0.7434
 1019MOL0     C34424   0.404   8.730   9.715 -0.0418 -0.4671  0.1896
 1019MOL0     C34425   0.541   8.756   9.719 -0.3308 -0.2951 -0.2273
 1019MOL0     N34426   1.302   9.197   9.823  0.1695  0.2271  0.5344
 1019MOL0     N34427   1.396   9.287   9.833 -0.3390 -0.9091  0.3878
 1019MOL0     C34428   2.137   9.527  10.577 -0.5406  0.1200 -0.9518
 1019MOL0     C34429   2.266   9.480  10.615  0.3213  1.0613  0.5208
 1019MOL0     C34430   2.701   9.479  10.799  0.2615 -0.4293 -0.0617
 1019MOL0     C34431   2.782   9.453  10.685  0.1995  0.1936 -1.1828
 1019MOL0     C34432   2.918   9.426  10.709 -0.6002  0.5196 -0.5307
 1019MOL0     C34433   2.965   9.401  10.836 -1.1943 -0.5047 -0.3155
 1019MOL0     O34434   3.102   9.375  10.837 -0.2340  0.2391  0.3127
 1019MOL0     C34435   3.161   9.374  10.966 -0.7707  1.0656  0.2790
 1019MOL0     C34436   3.297   9.300  10.968  0.1079  0.3789 -0.5886
 1019MOL0     C34437   3.405   9.357  10.872  0.3424  1.3412 -0.6512
 1019MOL0     C34438   3.390   9.319  10.730 -0.3417  0.8587  0.5893
 1019MOL0     C34439   3.509   9.356  10.655  0.7660 -1.8992  1.0103
 1019MOL0     C34440   3.601   9.409  10.594  0.2601  0.5162  0.2522
 1019MOL0     C34441   2.883   9.419  10.944 -0.8367  0.4719  0.1808
 1019MOL0     C34442   2.753   9.457  10.923  0.5611  0.6187  0.5547
 1019MOL0     H34443   2.392   9.775  10.719 -0.6660 -0.9020  1.7438
 1019MOL0     H34444   2.175   9.862  10.661 -0.1225 -1.0663  2.4366
 1019MOL0     H34445   1.881   9.559  10.620 -1.2777  1.6603  0.8283
 1019MOL0     H34446   1.865   9.593  10.440 -3.6312 -0.3206  0.4096
 1019MOL0     H34447   1.714   9.759  10.646  0.9569 -2.0658  0.6106
 1019MOL0     H34448   1.655   9.632  10.541 -0.2651  1.0262  3.0609
 1019MOL0     H34449   1.774   9.901  10.433  0.1408 -0.4744  0.1648
 1019MOL0     H34450   1.604   9.855  10.452 -0.0213  0.7773 -1.6291
 1019MOL0     H34451   1.692   9.841  10.220 -0.6180  1.8198  1.9333
 1019MOL0     H34452   1.803   9.717  10.264  0.3633 -0.6515  3.1398
 1019MOL0     H34453   1.509   9.696  10.328 -0.1175  1.4709  1.0270
 1019MOL0     H34454   1.622   9.560  10.307 -0.5102 -0.3976 -0.1126
 1019MOL0     H34455   1.644   9.648  10.061 -0.8410  2.4141 -0.9889
 1019MOL0     H34456   1.509   9.749  10.098  1.8245  0.7580 -0.4106
 1019MOL0     H34457   1.499   9.436  10.132  1.4457  0.4131 -1.0610
 1019MOL0     H34458   1.363   9.540  10.157 -1.7122 -1.4971 -0.5021
 1019MOL0     H34459   1.535   9.486   9.910 -0.4317 -0.1713 -1.9304
 1019MOL0     H34460   1.373   9.581   9.903 -0.7181 -0.3817  1.0858
 1019MOL0     H34461   1.190   9.385  10.062  0.2866 -1.9485  1.2753
 1019MOL0     H34462   0.998   9.203   9.988  1.3337  1.0532  1.1069
 1019MOL0     H34463   1.107   9.063   9.973  3.4018  3.2699  2.7707
 1019MOL0     H34464   1.087   9.048   9.746  1.0732 -0.8472  2.7195
 1019MOL0     H34465   1.023   9.200   9.714  5.0211 -2.0246 -1.3664
 1019MOL0     H34466   0.892   8.959   9.858  1.0523  0.1158  0.6131
 1019MOL0     H34467   0.806   9.107   9.859  3.0263 -2.1360  3.6533
 1019MOL0     H34468   0.855   9.002   9.589  2.0740 -0.8619  1.4079
 1019MOL0     H34469   0.715   9.089   9.661 -2.4760 -3.8640 -3.5472
 1019MOL0     H34470   0.548   9.082   9.759  1.6103 -1.2794 -1.3886
 1019MOL0     H34471   0.301   9.040   9.776 -1.2369 -0.9399 -1.8659
 1019MOL0     H34472   0.054   8.421   9.688  2.2057  1.7430  2.0876
 1019MOL0     H34473  -0.175   8.342   9.704 -2.0780  0.1631  0.5371
 1019MOL0     H34474  -0.487   8.611   9.611  0.5279 -0.8894 -1.0118
 1019MOL0     H34475  -0.531   8.591   9.779  1.1477 -3.6139  1.4282
 1019MOL0     H34476  -0.563   8.383   9.563  0.4730  2.5482 -2.4948
 1019MOL0     H34477  -0.692   8.495   9.586  2.0057  3.8905  1.6573
 1019MOL0     H34478  -0.673   8.407   9.849  2.0989  0.7045  0.5318
 1019MOL0     H34479  -0.594   8.276   9.782 -0.0942  0.4603 -1.1960
 1019MOL0     H34480  -0.861   8.365   9.674 -0.1015 -0.1038 -0.0476
 1019MOL0     H34481  -0.779   8.238   9.592 -3.0122  2.5894 -1.8202
 1019MOL0     H34482  -0.756   8.133   9.834 -0.3940  0.3328  1.8745
 1019MOL0     H34483  -0.891   8.112   9.719  0.0482 -1.4234  0.7286
 1019MOL0     H34484  -0.983   8.338   9.854 -0.8951 -0.6078  0.1822
 1019MOL0     H34485  -0.869   8.293   9.969 -1.1710  1.7014  0.1656
 1019MOL0     H34486  -1.113   8.193  10.010 -0.8164  0.0918 -0.6771
 1019MOL0     H34487  -1.088   8.090   9.874  1.2649  1.0064  0.8547
 1019MOL0     H34488  -1.036   8.007  10.111  0.0936  1.6763  0.7149
 1019MOL0     H34489  -0.885   8.100  10.091 -0.3123 -0.5129  2.2386
 1019MOL0     H34490  -0.340   8.732   9.743  1.0589  0.0789  3.1038
 1019MOL0     H34491  -0.120   8.822   9.741 -4.4102  0.9166 -2.0948
 1019MOL0     H34492   0.373   8.626   9.707  3.5543 -2.0006  2.9672
 1019MOL0     H34493   0.613   8.677   9.700 -0.0331  0.5594 -3.1219
 1019MOL0     H34494   2.058   9.458  10.551 -0.5867 -0.4922  0.7441
 1019MOL0     H34495   2.304   9.380  10.596  0.5336  1.5779 -2.2729
 1019MOL0     H34496   2.744   9.478  10.586 -1.0550 -0.7274 -0.9681
 1019MOL0     H34497   2.981   9.416  10.622  2.1666 -0.6092  1.4630
 1019MOL0     H34498   3.092   9.331  11.040  1.0144 -1.7240  0.4892
 1019MOL0     H34499   3.182   9.474  11.004 -2.6348  0.7119  2.4183
 1019MOL0     H34500   3.334   9.314  11.070  0.3247  2.4560 -0.9054
 1019MOL0     H34501   3.282   9.193  10.951 -0.3887  0.6628 -2.1965
 1019MOL0     H34502   3.495   9.311  10.912 -0.8031 -0.4542 -0.0435
 1019MOL0     H34503   3.411   9.467  10.877  2.1231  1.2862 -1.1270
 1019MOL0     H34504   3.370   9.212  10.717 -1.3535  1.3379 -2.7070
 1019MOL0     H34505   3.301   9.372  10.696 -0.3499  0.7648  0.4627
 1019MOL0     H34506   3.665   9.476  10.540  1.8772 -0.1672  1.2638
 1019MOL0     H34507   2.901   9.411  11.051 -2.8174  0.4940  0.5646
 1019MOL0     H34508   2.697   9.486  11.011  1.6102 -0.2839  1.5594
 1020MOL0     O34509   2.005   2.255   9.068 -0.2379 -0.2259 -0.4909
 1020MOL0     C34510   2.081   2.155   9.094  0.2408 -0.6544  0.1392
 1020MOL0     O34511   2.047   2.024   9.090 -0.0688 -0.1485  0.0638
 1020MOL0     C34512   1.928   1.973   9.051  0.6684 -0.1205  0.4449
 1020MOL0     C34513   1.837   2.034   8.971  1.3647 -0.4915  1.1763
 1020MOL0     C34514   1.725   1.963   8.919 -1.2675  0.1057 -0.2824
 1020MOL0     C34515   1.704   1.831   8.960  0.0005  0.5773  0.2783
 1020MOL0     O34516   1.606   1.759   8.908 -0.6009  0.0653 -0.0632
 1020MOL0     C34517   1.551   1.800   8.785  0.5742 -0.5038  0.2131
 1020MOL0     C34518   1.422   1.887   8.813 -0.5467 -0.6252 -0.1046
 1020MOL0     C34519   1.310   1.874   8.703 -0.1733 -0.6034  0.3030
 1020MOL0     C34520   1.341   1.970   8.589 -0.1153 -0.2232 -0.3562
 1020MOL0     C34521   1.205   2.019   8.526 -0.3151 -0.1755 -1.3097
 1020MOL0     C34522   1.237   2.090   8.402 -0.2207  0.1835  0.5343
 1020MOL0     C34523   1.130   2.091   8.293 -0.7725 -0.2859 -0.1087
 1020MOL0     C34524   0.998   2.164   8.325 -0.5873  0.4952 -0.2030
 1020MOL0     N34525   0.928   2.185   8.194 -0.0328 -0.0639 -0.2131
 1020MOL0     C34526   0.883   2.089   8.114  0.1913  0.0595  0.0664
 1020MOL0     C34527   0.830   2.159   8.009  0.1594  0.4036  0.2564
 1020MOL0     C34528   0.738   2.100   7.904 -0.1169  0.2794 -0.4233
 1020MOL0     C34529   0.597   2.073   7.961 -0.2230 -0.1669 -0.4815
 1020MOL0     C34530   0.519   2.001   7.846 -0.3223  0.4085 -0.2969
 1020MOL0     C34531   0.393   1.916   7.869 -0.2010 -0.0409 -0.1210
 1020MOL0     O34532   0.366   1.857   7.740 -0.6657  0.1293 -0.1361
 1020MOL0     C34533   0.233   1.827   7.702 -0.6815  0.4121 -0.3699
 1020MOL0     C34534   0.115   1.870   7.763 -0.6306  0.3095  0.0748
 1020MOL0     C34535  -0.006   1.815   7.713  0.5388  0.1694  0.8059
 1020MOL0     C34536  -0.016   1.726   7.608 -0.5962  0.2370  0.8829
 1020MOL0     C34537  -0.149   1.666   7.560 -0.2987  0.5215  0.9665
 1020MOL0     O34538  -0.144   1.604   7.443 -0.1661 -0.1879 -0.4610
 1020MOL0     C34539  -0.261   1.558   7.378  0.9950 -0.2283 -0.9014
 1020MOL0     C34540  -0.392   1.616   7.397 -0.0238  0.1083  0.3682
 1020MOL0     C34541  -0.498   1.571   7.318 -0.0320  0.5866  0.2779
 1020MOL0     C34542  -0.480   1.463   7.229  0.2535 -1.3378 -0.5133
 1020MOL0     O34543  -0.602   1.424   7.175  0.7059  0.4956 -0.7919
 1020MOL0     C34544  -0.608   1.297   7.105 -0.3295 -0.0024 -0.1251
 1020MOL0     C34545  -0.752   1.235   7.108  1.0034  0.4805 -0.3631
 1020MOL0     C34546  -0.849   1.300   7.006  0.2206 -0.5480  0.8542
 1020MOL0     C34547  -0.993   1.268   7.030  0.8789 -0.5404  0.9110
 1020MOL0     C34548  -1.091   1.276   6.907  0.2163 -0.6047  0.1117
 1020MOL0     C34549  -1.229   1.228   6.946 -1.4721  0.4682  0.2320
 1020MOL0     C34550  -1.317   1.186   6.830 -0.0049  0.3531  0.1755
 1020MOL0     C34551  -1.462   1.199   6.866  0.1439  0.3024 -0.4105
 1020MOL0    Cl34552  -1.496   1.136   7.023 -0.1519  0.3483 -0.5443
 1020MOL0     C34553  -0.354   1.411   7.207 -0.0992 -0.9670 -0.3790
 1020MOL0     C34554  -0.248   1.446   7.291 -0.5845 -0.5459  0.7528
 1020MOL0     O34555  -0.251   1.690   7.631 -0.1586  0.8658  0.6208
 1020MOL0     C34556   0.106   1.686   7.541  0.9373 -1.0307  0.5729
 1020MOL0     C34557   0.224   1.734   7.594  0.0208  0.3765 -1.2466
 1020MOL0     N34558   0.844   2.294   8.023 -0.2829  0.2241 -0.6528
 1020MOL0     N34559   0.913   2.314   8.140 -0.6220  0.3593 -0.1692
 1020MOL0     C34560   1.795   1.768   9.046  0.0931 -0.4265 -0.2643
 1020MOL0     C34561   1.906   1.845   9.098  0.2789 -0.1516 -0.1102
 1020MOL0     C34562   2.214   2.190   9.152  0.8362  0.3439  0.2921
 1020MOL0     C34563   2.309   2.103   9.204 -1.0192  0.5911 -0.3914
 1020MOL0     C34564   2.441   2.141   9.248 -0.0744  0.6714 -0.3000
 1020MOL0     C34565   2.481   2.273   9.243 -0.2584 -0.8302  0.2272
 1020MOL0     O34566   2.610   2.300   9.272  0.3826 -0.1580 -0.5268
 1020MOL0     C34567   2.645   2.439   9.272  1.1373 -0.2671 -0.7533
 1020MOL0     C34568   2.787   2.462   9.268 -0.1280 -0.2606 -0.9145
 1020MOL0     C34569   2.853   2.378   9.381 -0.8450 -0.1823  0.0853
 1020MOL0     C34570   2.989   2.440   9.422 -0.5573  0.7617 -0.3662
 1020MOL0     C34571   3.060   2.354   9.528  0.1385  0.5333  0.1117
 1020MOL0     C34572   3.112   2.275   9.606 -0.5553  0.3815  0.3990
 1020MOL0     C34573   2.387   2.366   9.189  0.5996 -0.0149 -0.3805
 1020MOL0     C34574   2.257   2.327   9.149 -1.0069  0.2111 -0.5222
 1020MOL0     H34575   1.837   2.137   8.937  0.0285 -0.4635  1.2176
 1020MOL0     H34576   1.650   2.013   8.859 -0.2734  2.1011  0.0475
 1020MOL0     H34577   1.520   1.712   8.729 -1.2890  0.0078  0.3573
 1020MOL0     H34578   1.617   1.851   8.714 -1.2804  2.1219  0.2175
 1020MOL0     H34579   1.461   1.984   8.846  0.0938 -0.3203 -1.6824
 1020MOL0     H34580   1.373   1.853   8.905  0.1591  1.9860  1.3642
 1020MOL0     H34581   1.213   1.912   8.736 -1.0661 -2.3830 -0.1319
 1020MOL0     H34582   1.305   1.768   8.677  0.9909 -0.6833  0.3399
 1020MOL0     H34583   1.399   2.060   8.607  1.3119 -1.4034  1.2617
 1020MOL0     H34584   1.398   1.913   8.516  0.1186 -0.7161  0.2027
 1020MOL0     H34585   1.163   2.095   8.593 -0.1435 -1.0879 -0.1327
 1020MOL0     H34586   1.135   1.938   8.500  0.1388 -0.9598 -0.1750
 1020MOL0     H34587   1.324   2.041   8.356 -2.9908 -2.4750 -2.4247
 1020MOL0     H34588   1.267   2.192   8.425 -1.2797  0.3672  1.1794
 1020MOL0     H34589   1.182   2.152   8.217 -0.3174 -2.2203 -1.4226
 1020MOL0     H34590   1.126   1.991   8.249  1.2152  0.2226 -1.6073
 1020MOL0     H34591   1.013   2.263   8.367 -0.9108 -0.3243  1.9620
 1020MOL0     H34592   0.936   2.104   8.391  2.6258 -1.9930  0.8399
 1020MOL0     H34593   0.874   1.981   8.123 -0.2079  0.1564  0.9245
 1020MOL0     H34594   0.775   2.002   7.872  0.5039  0.5007 -0.3901
 1020MOL0     H34595   0.743   2.172   7.822 -0.6347  0.5588 -0.2131
 1020MOL0     H34596   0.544   2.164   7.992 -0.3739  0.0977 -1.4708
 1020MOL0     H34597   0.609   2.000   8.041  0.5686 -0.6157 -0.9925
 1020MOL0     H34598   0.509   2.067   7.759 -2.0656  0.4559 -0.0775
 1020MOL0     H34599   0.585   1.917   7.819 -0.5723 -0.7800  2.4395
 1020MOL0     H34600   0.310   1.974   7.910 -3.4205 -3.0673 -1.8261
 1020MOL0     H34601   0.409   1.838   7.944  1.2087  2.1188  2.0011
 1020MOL0     H34602   0.129   1.939   7.846  1.5745 -1.7661  1.5752
 1020MOL0     H34603  -0.091   1.864   7.760  0.6570  2.3456 -1.0726
 1020MOL0     H34604  -0.408   1.706   7.455  0.4443 -0.1488  0.9125
 1020MOL0     H34605  -0.599   1.611   7.323 -0.2507  1.0593 -4.0241
 1020MOL0     H34606  -0.529   1.239   7.154  1.9762  2.9060 -0.1353
 1020MOL0     H34607  -0.571   1.312   7.004  0.9212 -0.8167  0.1931
 1020MOL0     H34608  -0.780   1.249   7.213  4.1379 -4.3005  1.4521
 1020MOL0     H34609  -0.754   1.127   7.091  2.8137 -0.0607  2.1939
 1020MOL0     H34610  -0.819   1.265   6.906 -1.2395 -0.2525  0.2928
 1020MOL0     H34611  -0.835   1.408   7.003  0.3903 -0.5886 -0.5699
 1020MOL0     H34612  -0.992   1.164   7.063 -1.1765 -0.0391  2.7454
 1020MOL0     H34613  -1.028   1.329   7.114 -0.7182 -0.8178  0.4647
 1020MOL0     H34614  -1.059   1.220   6.818  0.5682  1.2463 -0.9808
 1020MOL0     H34615  -1.094   1.382   6.882  0.0601 -0.5945  0.1717
 1020MOL0     H34616  -1.277   1.313   6.996 -2.3437  1.5510 -2.3299
 1020MOL0     H34617  -1.232   1.144   7.016 -0.4908  1.1745  1.1573
 1020MOL0     H34618  -1.299   1.242   6.738 -0.2256 -0.3141 -0.2867
 1020MOL0     H34619  -1.299   1.079   6.812 -2.5793  0.1575 -1.8420
 1020MOL0     H34620  -1.522   1.152   6.788 -0.8213 -0.1601  0.5788
 1020MOL0     H34621  -1.495   1.303   6.874 -0.8310 -0.0417  0.3086
 1020MOL0     H34622  -0.349   1.329   7.136  0.2607  0.9463 -2.6974
 1020MOL0     H34623  -0.146   1.410   7.301  0.6571  2.7174  1.1099
 1020MOL0     H34624   0.117   1.624   7.452 -1.2178  1.7743 -1.8740
 1020MOL0     H34625   0.317   1.685   7.568  0.6763 -0.3952  2.0231
 1020MOL0     H34626   1.766   1.671   9.085  0.0575 -0.4023 -0.2298
 1020MOL0     H34627   1.977   1.797   9.163  0.4190 -0.7232 -0.6699
 1020MOL0     H34628   2.275   2.000   9.210  0.4019  0.1715  1.2702
 1020MOL0     H34629   2.507   2.058   9.273 -3.3326 -1.6911  1.2943
 1020MOL0     H34630   2.603   2.491   9.359  1.4155 -2.2708  0.6403
 1020MOL0     H34631   2.615   2.486   9.177 -0.0157  3.6162  1.3013
 1020MOL0     H34632   2.822   2.436   9.168 -0.2737 -0.4404 -0.9220
 1020MOL0     H34633   2.803   2.568   9.285 -1.2253 -0.1890 -0.2102
 1020MOL0     H34634   2.882   2.277   9.350 -0.7029  0.3926 -1.8344
 1020MOL0     H34635   2.785   2.379   9.466 -0.8608  0.8570  0.0658
 1020MOL0     H34636   3.048   2.440   9.330 -1.8848 -0.0948 -1.2650
 1020MOL0     H34637   2.990   2.543   9.458  0.0553  0.8384 -0.5905
 1020MOL0     H34638   3.170   2.236   9.687  1.7234  2.7151 -0.0082
 1020MOL0     H34639   2.405   2.473   9.183 -0.2777  0.2790  1.4515
 1020MOL0     H34640   2.203   2.409   9.103  0.7555  1.4028 -0.5819
 1021MOL0     O34641   5.161   4.290  10.040  0.8359  0.9437 -0.0281
 1021MOL0     C34642   5.205   4.203   9.968 -0.2205  0.0047 -0.1066
 1021MOL0     O34643   5.138   4.088   9.938 -0.1579 -0.3572 -0.1306
 1021MOL0     C34644   5.010   4.080   9.985 -0.9966 -0.6897 -0.1065
 1021MOL0     C34645   4.987   4.009  10.102  0.8741  0.1997  0.5574
 1021MOL0     C34646   4.861   3.997  10.156  0.4124  0.3835 -0.9330
 1021MOL0     C34647   4.756   4.048  10.087 -0.1492 -0.3392  0.5208
 1021MOL0     O34648   4.634   4.039  10.148  0.3814  1.5717 -0.8881
 1021MOL0     C34649   4.535   4.151  10.152 -0.0723 -0.4832 -1.1044
 1021MOL0     C34650   4.405   4.080  10.205 -0.3079  0.6371 -0.3826
 1021MOL0     C34651   4.290   4.175  10.218  0.0427 -0.2186 -0.2463
 1021MOL0     C34652   4.156   4.111  10.282  0.0769 -0.0961  0.6064
 1021MOL0     C34653   4.039   4.210  10.295  0.7806  0.2072  0.5922
 1021MOL0     C34654   3.912   4.136  10.350 -0.9696  0.3041  1.1368
 1021MOL0     C34655   3.844   4.034  10.249 -0.2522  0.0588  0.4346
 1021MOL0     C34656   3.737   3.939  10.308 -0.1547 -0.3086  0.6363
 1021MOL0     N34657   3.608   4.002  10.347 -0.6656  0.1040 -0.2006
 1021MOL0     C34658   3.604   4.088  10.453  1.0323  0.4330 -1.0352
 1021MOL0     C34659   3.476   4.062  10.498  0.0440  0.3739 -0.1119
 1021MOL0     C34660   3.399   4.124  10.614  0.4461  1.2469  0.6217
 1021MOL0     C34661   3.256   4.181  10.573 -0.0717  0.6069 -0.3394
 1021MOL0     C34662   3.145   4.083  10.625 -0.0416  0.9689  0.3837
 1021MOL0     C34663   3.009   4.125  10.582  0.2210  0.1832 -0.4633
 1021MOL0     O34664   2.984   4.267  10.600 -0.6764  0.4150  0.0211
 1021MOL0     C34665   2.863   4.312  10.551 -0.9074 -0.9093  0.6811
 1021MOL0     C34666   2.834   4.451  10.584 -0.3759  0.4532  0.0060
 1021MOL0     C34667   2.721   4.516  10.549 -0.4161  0.4743  0.8763
 1021MOL0     C34668   2.622   4.453  10.470  0.3348 -0.9954 -0.3251
 1021MOL0     C34669   2.502   4.525  10.426  0.4958  0.8182  0.8895
 1021MOL0     O34670   2.507   4.654  10.412 -0.7821  0.8349  0.2295
 1021MOL0     C34671   2.394   4.726  10.403 -0.1837  0.0900  0.5264
 1021MOL0     C34672   2.386   4.833  10.487 -0.5344  0.2776  0.0878
 1021MOL0     C34673   2.271   4.908  10.490 -0.1944  0.2754 -0.5936
 1021MOL0     C34674   2.158   4.872  10.402  0.0903 -0.2309  0.5335
 1021MOL0     O34675   2.042   4.944  10.419  0.3174 -0.9027 -0.2878
 1021MOL0     C34676   1.920   4.888  10.360  0.1605 -0.6552  0.2804
 1021MOL0     C34677   1.794   4.967  10.403 -0.8837  0.3644  0.7660
 1021MOL0     C34678   1.799   5.114  10.372  0.1959  0.0770  0.2472
 1021MOL0     C34679   1.656   5.169  10.337  0.0931 -0.5169  0.2670
 1021MOL0     C34680   1.632   5.317  10.376 -0.6942  0.2388  0.3456
 1021MOL0     C34681   1.490   5.376  10.335 -0.0301  0.9972 -0.0235
 1021MOL0     C34682   1.373   5.289  10.386  0.4543  0.1007  0.2560
 1021MOL0     C34683   1.247   5.373  10.420  0.5526  0.2676 -0.0235
 1021MOL0    Cl34684   1.108   5.270  10.455 -0.2862 -0.2050 -0.2828
 1021MOL0     C34685   2.178   4.767  10.312 -0.1665 -0.4446 -0.0694
 1021MOL0     C34686   2.293   4.696  10.314 -0.4813  0.7327 -0.3491
 1021MOL0     O34687   2.406   4.452  10.398 -0.4009 -0.5151 -0.4270
 1021MOL0     C34688   2.635   4.315  10.444  0.2211  0.2556  0.2393
 1021MOL0     C34689   2.759   4.252  10.471  0.3596 -0.4498 -0.1761
 1021MOL0     N34690   3.409   3.985  10.407  0.1785  0.3910  0.1790
 1021MOL0     N34691   3.490   3.943  10.320  0.8139  0.3739 -0.2556
 1021MOL0     C34692   4.773   4.114   9.963 -0.7072  0.0954  0.0162
 1021MOL0     C34693   4.904   4.131   9.910  0.6965  0.0196 -0.2033
 1021MOL0     C34694   5.346   4.213   9.920  0.5512  0.2096 -0.0912
 1021MOL0     C34695   5.417   4.333   9.904 -0.1474 -0.5313 -0.5526
 1021MOL0     C34696   5.538   4.337   9.837 -0.7026 -0.3120  0.1568
 1021MOL0     C34697   5.600   4.217   9.796  0.9946  0.4558  0.2209
 1021MOL0     O34698   5.726   4.216   9.738  0.0020  0.0401 -0.9175
 1021MOL0     C34699   5.794   4.346   9.729  0.2521  0.4875  0.0078
 1021MOL0     C34700   5.912   4.332   9.641 -1.3187  0.4806  0.5933
 1021MOL0     C34701   6.019   4.237   9.704  0.1672 -1.1412 -0.1506
 1021MOL0     C34702   6.156   4.262   9.652 -0.1690 -0.6340  0.3436
 1021MOL0     C34703   6.179   4.229   9.509 -0.1242 -0.4564  0.4535
 1021MOL0     C34704   6.206   4.188   9.395  0.9441 -0.2418 -0.3195
 1021MOL0     C34705   5.525   4.099   9.802  0.1454 -0.0599 -0.2817
 1021MOL0     C34706   5.405   4.098   9.874 -0.2139  0.2849 -0.9534
 1021MOL0     H34707   5.066   3.948  10.146 -0.0594 -0.5267  1.2815
 1021MOL0     H34708   4.860   3.952  10.255  1.7826  0.9373 -0.6459
 1021MOL0     H34709   4.522   4.203  10.057  0.1878  0.5919 -0.5740
 1021MOL0     H34710   4.567   4.219  10.232  0.1259 -2.2136  0.3352
 1021MOL0     H34711   4.420   4.042  10.307  1.9723  0.0540 -0.8686
 1021MOL0     H34712   4.389   3.994  10.140 -2.3340  1.3260 -0.8517
 1021MOL0     H34713   4.263   4.223  10.124  0.4895 -2.2766 -1.4665
 1021MOL0     H34714   4.318   4.256  10.287 -1.3226  0.1097 -0.0460
 1021MOL0     H34715   4.137   4.039  10.202  3.0916  0.7019 -0.9978
 1021MOL0     H34716   4.174   4.054  10.373 -2.0409  0.5515  1.4990
 1021MOL0     H34717   4.007   4.250  10.198  0.9230 -1.3549 -0.1391
 1021MOL0     H34718   4.069   4.289  10.364  0.5816 -1.5843  2.8603
 1021MOL0     H34719   3.842   4.208  10.393  1.9876  3.3872  1.1622
 1021MOL0     H34720   3.956   4.072  10.427  0.2547  1.5599  1.5136
 1021MOL0     H34721   3.788   4.087  10.171  1.0276 -0.5647 -0.9657
 1021MOL0     H34722   3.914   3.960  10.209 -1.7075 -1.8665  1.3372
 1021MOL0     H34723   3.772   3.898  10.403 -0.5218 -2.4335 -0.0805
 1021MOL0     H34724   3.728   3.864  10.228 -1.4513  1.5757 -1.0947
 1021MOL0     H34725   3.677   4.150  10.503  0.1410  0.6467  0.0341
 1021MOL0     H34726   3.457   4.214  10.637  2.4052  0.6289 -1.5925
 1021MOL0     H34727   3.404   4.058  10.701  0.1849 -1.8953 -1.6130
 1021MOL0     H34728   3.243   4.214  10.470 -0.0216  1.5222 -0.0655
 1021MOL0     H34729   3.240   4.271  10.634  0.5819  0.2482  0.3816
 1021MOL0     H34730   3.161   3.982  10.587  3.3381  0.2890  3.1438
 1021MOL0     H34731   3.142   4.085  10.735  2.2413  6.2791  0.6392
 1021MOL0     H34732   2.942   4.055  10.631  3.5192 -0.7792  3.1432
 1021MOL0     H34733   2.993   4.093  10.479  1.4870 -2.7129  0.1423
 1021MOL0     H34734   2.902   4.503  10.652  1.1596  0.0528 -1.1712
 1021MOL0     H34735   2.721   4.622  10.574  0.2441  1.2092 -1.8735
 1021MOL0     H34736   2.463   4.839  10.564 -0.2833  0.9234 -0.2099
 1021MOL0     H34737   2.276   4.992  10.558  0.3146  0.3548 -0.7266
 1021MOL0     H34738   1.899   4.785  10.392 -2.2963  0.3666  2.3624
 1021MOL0     H34739   1.922   4.876  10.252  0.4120 -3.3212  0.5072
 1021MOL0     H34740   1.767   4.959  10.509 -1.3367 -2.4731  0.5065
 1021MOL0     H34741   1.706   4.929  10.353  0.7072  0.5357 -2.3851
 1021MOL0     H34742   1.867   5.129  10.288 -1.6354 -1.1431 -1.5324
 1021MOL0     H34743   1.842   5.179  10.450 -1.2594 -0.2140  1.3411
 1021MOL0     H34744   1.646   5.169  10.228  1.9297  0.3535  0.0610
 1021MOL0     H34745   1.578   5.117  10.394 -0.1433  0.3559  0.7560
 1021MOL0     H34746   1.704   5.376  10.318  0.1413  0.0305  1.1560
 1021MOL0     H34747   1.647   5.336  10.482  0.6706 -0.0929  0.2214
 1021MOL0     H34748   1.493   5.401  10.229  0.3515  0.7982 -0.0625
 1021MOL0     H34749   1.490   5.473  10.386 -0.9336  4.0454 -5.1628
 1021MOL0     H34750   1.365   5.208  10.313 -2.7794  0.5487 -0.0198
 1021MOL0     H34751   1.400   5.230  10.475  2.6347  1.5018  0.5901
 1021MOL0     H34752   1.224   5.440  10.337 -0.3809  1.6194  1.2689
 1021MOL0     H34753   1.258   5.436  10.509 -5.3204  1.9590 -0.1085
 1021MOL0     H34754   2.107   4.749  10.232 -0.1012 -0.1537 -0.1941
 1021MOL0     H34755   2.298   4.604  10.257  2.2953 -1.0443  2.4041
 1021MOL0     H34756   2.551   4.275  10.388 -1.4583 -1.1035  3.4613
 1021MOL0     H34757   2.761   4.150  10.434 -0.8263  0.0526 -1.7360
 1021MOL0     H34758   4.690   4.154   9.904 -0.4809  1.3195  0.4858
 1021MOL0     H34759   4.932   4.175   9.816  3.1746 -2.0524 -0.5216
 1021MOL0     H34760   5.385   4.430   9.942 -0.0793  0.1102 -2.0390
 1021MOL0     H34761   5.578   4.436   9.822 -2.3171  0.4997  0.8671
 1021MOL0     H34762   5.822   4.399   9.821  0.7516  1.4547 -0.6805
 1021MOL0     H34763   5.735   4.419   9.672 -0.9556  1.6327  2.5559
 1021MOL0     H34764   5.879   4.298   9.542 -4.0472  3.3899  0.3480
 1021MOL0     H34765   5.958   4.428   9.618  2.8223 -2.3278 -6.1630
 1021MOL0     H34766   5.998   4.129   9.707  1.2432 -1.3605 -0.2344
 1021MOL0     H34767   6.029   4.271   9.807 -0.3312  0.0299 -0.4745
 1021MOL0     H34768   6.185   4.367   9.653 -1.4430 -0.2598 -0.1230
 1021MOL0     H34769   6.224   4.214   9.724  0.3168 -2.4047 -1.2038
 1021MOL0     H34770   6.240   4.136   9.308  0.0286 -2.7734  0.7604
 1021MOL0     H34771   5.564   4.004   9.767  0.0382 -0.1675 -0.1092
 1021MOL0     H34772   5.349   4.009   9.901  0.0606  0.6442  0.9530
 1022MOL0     O34773   9.610   1.432  11.161 -0.5039  0.4105  0.2058
 1022MOL0     C34774   9.729   1.462  11.136  0.5637  0.8640  0.2610
 1022MOL0     O34775   9.792   1.406  11.025  0.9237  0.2761  0.4897
 1022MOL0     C34776   9.727   1.314  10.952 -0.5619  0.1806  0.1324
 1022MOL0     C34777   9.702   1.183  10.998  0.4072  0.8632  0.2661
 1022MOL0     C34778   9.621   1.092  10.935 -0.0734 -0.4065 -0.1076
 1022MOL0     C34779   9.543   1.146  10.832  0.1850 -1.4898 -0.5474
 1022MOL0     O34780   9.461   1.072  10.756  0.2294 -0.1171 -0.0195
 1022MOL0     C34781   9.509   0.939  10.722 -0.5849 -0.4836  1.6340
 1022MOL0     C34782   9.454   0.885  10.582 -0.2696  0.0341  0.2648
 1022MOL0     C34783   9.305   0.859  10.582  0.5104 -0.3154 -0.0146
 1022MOL0     C34784   9.244   0.842  10.440 -0.1200 -0.0247  0.9670
 1022MOL0     C34785   9.091   0.804  10.429 -0.8203 -0.1232 -0.5278
 1022MOL0     C34786   9.062   0.657  10.476  0.3591 -0.0781  0.2585
 1022MOL0     C34787   8.917   0.625  10.432  0.3089  0.9410 -0.6955
 1022MOL0     C34788   8.845   0.492  10.474 -0.0917 -0.0749  0.3445
 1022MOL0     N34789   8.709   0.483  10.416  0.0131 -0.3725  0.6757
 1022MOL0     C34790   8.640   0.365  10.392 -0.2108 -0.3109 -0.2243
 1022MOL0     C34791   8.517   0.405  10.383  0.2312  0.6902  0.1695
 1022MOL0     C34792   8.396   0.312  10.371  0.5063  0.8460 -0.0028
 1022MOL0     C34793   8.364   0.265  10.229  0.1444  0.3804  0.7917
 1022MOL0     C34794   8.364   0.376  10.119 -0.4581  0.3550 -1.4041
 1022MOL0     C34795   8.263   0.489  10.141  0.6038  0.7093  0.8126
 1022MOL0     O34796   8.131   0.436  10.109  0.4032 -0.2956 -0.2305
 1022MOL0     C34797   8.034   0.528  10.114 -0.2322  0.8540 -0.8925
 1022MOL0     C34798   8.044   0.657  10.180  0.2540 -0.1688  0.7053
 1022MOL0     C34799   7.928   0.737  10.203  0.2397  0.8245  0.5945
 1022MOL0     C34800   7.807   0.690  10.153  0.2347  0.0207  0.5351
 1022MOL0     C34801   7.689   0.785  10.151 -0.0388  0.1489  0.0990
 1022MOL0     O34802   7.578   0.754  10.075 -0.5144  0.1967  0.7302
 1022MOL0     C34803   7.459   0.822  10.077 -0.0371  0.7027  1.4181
 1022MOL0     C34804   7.385   0.845   9.958  0.0078 -0.1923 -0.0556
 1022MOL0     C34805   7.259   0.898   9.959  0.2288 -0.0152  0.3458
 1022MOL0     C34806   7.186   0.923  10.078  0.4126  0.1528  0.3216
 1022MOL0     O34807   7.061   0.987  10.066  0.3990  0.4646  0.1994
 1022MOL0     C34808   6.962   0.947  10.175 -0.6523  0.3032 -0.9218
 1022MOL0     C34809   6.815   0.952  10.129  0.2015  0.8419  0.0674
 1022MOL0     C34810   6.712   0.901  10.239 -0.2127 -0.2610  0.3977
 1022MOL0     C34811   6.565   0.870  10.196 -0.4143 -0.1367 -0.4727
 1022MOL0     C34812   6.482   0.841  10.319 -1.0260  0.3282  0.6523
 1022MOL0     C34813   6.495   0.692  10.364 -0.3130  0.2612  0.0391
 1022MOL0     C34814   6.436   0.683  10.512 -0.0132 -0.0327 -0.0620
 1022MOL0     C34815   6.396   0.541  10.548  0.2804 -0.1606  0.1770
 1022MOL0    Cl34816   6.527   0.433  10.503  0.1886 -0.1434 -0.7797
 1022MOL0     C34817   7.257   0.906  10.196 -0.7055  0.1610 -0.6159
 1022MOL0     C34818   7.393   0.859  10.198 -0.8757  0.5445  0.1668
 1022MOL0     O34819   7.696   0.867  10.235  0.1770  0.5657  0.4755
 1022MOL0     C34820   7.806   0.564  10.087 -0.1115  0.7678 -0.0091
 1022MOL0     C34821   7.913   0.478  10.074  0.0586 -0.1237  0.3035
 1022MOL0     N34822   8.505   0.537  10.385 -0.3395  0.5126 -0.9663
 1022MOL0     N34823   8.621   0.588  10.398  0.1708 -0.2734 -0.3705
 1022MOL0     C34824   9.564   1.279  10.788  0.3210  0.5669  0.5668
 1022MOL0     C34825   9.666   1.356  10.834 -0.1633 -0.0031  0.3446
 1022MOL0     C34826   9.801   1.560  11.218  0.3582  0.1251  0.2260
 1022MOL0     C34827   9.932   1.591  11.189 -0.1972 -1.0101  0.5034
 1022MOL0     C34828   9.995   1.686  11.268 -0.6178  0.2688  0.6397
 1022MOL0     C34829   9.936   1.764  11.371 -0.1402 -0.0878  0.3417
 1022MOL0     O34830   9.998   1.863  11.443 -0.8882  0.2204 -0.0778
 1022MOL0     C34831  10.062   1.957  11.369  0.8844 -0.0635 -0.1562
 1022MOL0     C34832  10.144   2.047  11.460 -0.0291  0.1986 -0.7433
 1022MOL0     C34833  10.217   2.143  11.383  0.0785 -1.7831  0.0473
 1022MOL0     C34834  10.321   2.224  11.469  0.1934  0.3400 -0.1694
 1022MOL0     C34835  10.462   2.236  11.417  0.9201 -0.1790 -0.1886
 1022MOL0     C34836  10.576   2.241  11.377  0.3161 -0.4408  0.3030
 1022MOL0     C34837   9.811   1.719  11.403 -0.0168 -0.2995  0.8583
 1022MOL0     C34838   9.745   1.620  11.331  0.3480 -0.6977 -0.5485
 1022MOL0     H34839   9.741   1.159  11.096  2.4834 -1.7825 -1.0559
 1022MOL0     H34840   9.603   0.996  10.984  2.6896 -0.4994  0.8833
 1022MOL0     H34841   9.474   0.869  10.799 -2.5243 -4.1822 -2.2169
 1022MOL0     H34842   9.617   0.943  10.703 -0.6732  1.4278  1.3292
 1022MOL0     H34843   9.498   0.794  10.542 -1.8548  0.8169 -3.7995
 1022MOL0     H34844   9.476   0.967  10.513  2.0328  0.5481  1.5119
 1022MOL0     H34845   9.246   0.944  10.617 -0.9622  0.3487 -3.6608
 1022MOL0     H34846   9.277   0.774  10.645 -0.4034  0.1000  0.1552
 1022MOL0     H34847   9.272   0.928  10.378  2.3778 -1.2042  0.3215
 1022MOL0     H34848   9.296   0.757  10.394 -1.0112  0.2764 -0.6633
 1022MOL0     H34849   9.072   0.819  10.323  0.7234  4.2376 -0.3584
 1022MOL0     H34850   9.044   0.878  10.494 -1.3797  0.4102 -1.5225
 1022MOL0     H34851   9.066   0.660  10.585 -0.2683 -0.0591  0.2857
 1022MOL0     H34852   9.138   0.588  10.439  0.9680 -0.1134  1.5326
 1022MOL0     H34853   8.860   0.709  10.473  1.1254  0.7488  0.8882
 1022MOL0     H34854   8.918   0.617  10.323  0.1263  2.1184 -0.7990
 1022MOL0     H34855   8.832   0.489  10.582 -0.5219  1.7856  0.3885
 1022MOL0     H34856   8.909   0.414  10.432 -0.4578  0.5639 -1.4761
 1022MOL0     H34857   8.675   0.263  10.401 -1.2339 -0.6347  0.1908
 1022MOL0     H34858   8.306   0.364  10.407  1.4491  3.6578 -1.3873
 1022MOL0     H34859   8.412   0.222  10.430 -1.4179  1.6962  1.9382
 1022MOL0     H34860   8.267   0.215  10.225 -1.1313  2.7004 -3.6450
 1022MOL0     H34861   8.446   0.198  10.201 -0.2402 -0.3395  1.3779
 1022MOL0     H34862   8.467   0.411  10.111  0.8187 -2.6310  0.2366
 1022MOL0     H34863   8.341   0.329  10.023  2.1968 -2.2851 -0.8836
 1022MOL0     H34864   8.279   0.566  10.065 -1.3370 -1.2605 -1.7583
 1022MOL0     H34865   8.267   0.532  10.242  2.3063  0.3031  0.9561
 1022MOL0     H34866   8.133   0.712  10.210  1.9039 -1.2724 -1.8319
 1022MOL0     H34867   7.933   0.845  10.217 -4.6688  1.7213 -2.2088
 1022MOL0     H34868   7.443   0.828   9.868  1.0748  1.5590  0.2628
 1022MOL0     H34869   7.209   0.912   9.865  2.3038 -1.3942 -1.0531
 1022MOL0     H34870   6.974   1.004  10.268 -0.5954  0.9705 -1.3309
 1022MOL0     H34871   6.991   0.847  10.208  2.0679  1.5038  0.7007
 1022MOL0     H34872   6.814   0.879  10.048  1.9130 -0.3560  1.0708
 1022MOL0     H34873   6.776   1.051  10.101  2.7349  1.9075  0.0643
 1022MOL0     H34874   6.702   0.982  10.313  2.8830  1.4247 -0.8689
 1022MOL0     H34875   6.751   0.815  10.295 -3.7341 -1.6275  1.0540
 1022MOL0     H34876   6.526   0.963  10.153  1.3833  0.6848 -0.4371
 1022MOL0     H34877   6.576   0.784  10.129  1.3483 -1.7991  1.7821
 1022MOL0     H34878   6.378   0.870  10.301 -1.2065 -0.4927  0.3010
 1022MOL0     H34879   6.520   0.906  10.397  1.8115 -1.2553  0.7227
 1022MOL0     H34880   6.599   0.662  10.350 -0.6110 -0.8883  0.1777
 1022MOL0     H34881   6.433   0.635  10.295 -1.5776  1.9006 -0.2350
 1022MOL0     H34882   6.510   0.723  10.582 -1.3675 -2.5427  3.0633
 1022MOL0     H34883   6.355   0.753  10.534  0.7228  0.2358  2.0164
 1022MOL0     H34884   6.317   0.523  10.475  2.4977  4.0880 -3.7471
 1022MOL0     H34885   6.382   0.535  10.657  0.5949  0.8990  0.2828
 1022MOL0     H34886   7.207   0.947  10.283  2.5992 -0.0239  1.5388
 1022MOL0     H34887   7.433   0.817  10.289 -0.4315  0.7630  0.0756
 1022MOL0     H34888   7.708   0.543  10.043  0.2581 -2.2636  0.4000
 1022MOL0     H34889   7.895   0.388  10.017 -2.6865  1.0534 -0.9197
 1022MOL0     H34890   9.502   1.310  10.706  0.5869  3.3239  1.3194
 1022MOL0     H34891   9.686   1.456  10.798 -0.3568  0.1170  0.5679
 1022MOL0     H34892   9.989   1.565  11.100  0.7957  1.6074  0.3072
 1022MOL0     H34893  10.093   1.722  11.239  0.3102 -1.0204  2.0609
 1022MOL0     H34894   9.991   2.024  11.320  0.2756  1.9752  3.2296
 1022MOL0     H34895  10.134   1.914  11.298  0.6030 -0.8653  0.0448
 1022MOL0     H34896  10.081   2.106  11.527 -1.2607 -1.5354 -0.2893
 1022MOL0     H34897  10.218   1.983  11.510 -2.2151 -1.8054  0.1508
 1022MOL0     H34898  10.155   2.221  11.339  1.8077 -0.8730 -0.8650
 1022MOL0     H34899  10.261   2.091  11.298  1.6109  1.9431 -1.6544
 1022MOL0     H34900  10.265   2.317  11.481 -1.2035 -0.5132  0.1376
 1022MOL0     H34901  10.316   2.191  11.573 -1.1272 -1.2660 -0.6857
 1022MOL0     H34902  10.673   2.250  11.333  2.9796 -3.5184  4.8548
 1022MOL0     H34903   9.756   1.773  11.480 -1.0557  1.9021 -1.2532
 1022MOL0     H34904   9.644   1.594  11.360 -0.2057 -0.0618 -1.8414
 1023MOL0     O34905   8.713   6.294   9.082 -0.8990 -0.2618  0.4661
 1023MOL0     C34906   8.781   6.391   9.052 -0.0354 -0.0349  0.6385
 1023MOL0     O34907   8.736   6.514   9.012 -0.6892 -0.3006 -0.2596
 1023MOL0     C34908   8.605   6.554   9.012  0.3703  0.1577 -0.1579
 1023MOL0     C34909   8.497   6.501   9.084 -0.2153 -0.6696  0.2881
 1023MOL0     C34910   8.371   6.548   9.051 -0.0785  0.3786  1.2304
 1023MOL0     C34911   8.356   6.662   8.971  0.2050  0.1312 -0.6870
 1023MOL0     O34912   8.234   6.727   8.968  0.8630  0.3716  0.8243
 1023MOL0     C34913   8.209   6.816   9.077 -0.7344  0.4482  0.0040
 1023MOL0     C34914   8.081   6.798   9.143 -0.7436  0.4042  0.6250
 1023MOL0     C34915   7.962   6.839   9.058 -0.0131 -0.0943  0.0300
 1023MOL0     C34916   7.817   6.854   9.128  0.3974 -1.5548 -0.5228
 1023MOL0     C34917   7.714   6.886   9.023 -0.4020 -0.4111  0.3926
 1023MOL0     C34918   7.659   6.764   8.950 -0.8104  0.9287  0.5969
 1023MOL0     C34919   7.523   6.799   8.885 -0.4309 -0.3085 -0.1960
 1023MOL0     C34920   7.466   6.695   8.788  0.2803 -0.0675  0.2223
 1023MOL0     N34921   7.560   6.648   8.684 -0.0386  0.2705  0.3006
 1023MOL0     C34922   7.593   6.516   8.670 -0.0287 -0.3336 -0.0378
 1023MOL0     C34923   7.671   6.515   8.557  0.7107  0.3414  0.8265
 1023MOL0     C34924   7.697   6.389   8.482 -0.5333  1.0704  0.1404
 1023MOL0     C34925   7.641   6.397   8.339 -0.5561 -0.4312 -0.3097
 1023MOL0     C34926   7.615   6.258   8.279  0.6279 -0.1252 -0.3708
 1023MOL0     C34927   7.577   6.269   8.128 -0.3293 -0.1710 -0.8996
 1023MOL0     O34928   7.488   6.161   8.100 -0.1274  0.1538  0.2479
 1023MOL0     C34929   7.356   6.155   8.146 -0.0993  0.1423  0.2875
 1023MOL0     C34930   7.282   6.265   8.183 -0.6388  1.0924 -0.0293
 1023MOL0     C34931   7.161   6.239   8.258 -0.5166 -0.1881  0.0675
 1023MOL0     C34932   7.119   6.113   8.296 -0.0630  0.0568 -0.3063
 1023MOL0     C34933   7.003   6.098   8.374  0.4685  1.2279 -0.0413
 1023MOL0     O34934   6.921   6.206   8.394  0.6159  0.2235 -0.0998
 1023MOL0     C34935   6.819   6.214   8.485  0.0102  0.9355  0.6694
 1023MOL0     C34936   6.736   6.330   8.479  0.0890  0.1207 -0.2365
 1023MOL0     C34937   6.625   6.352   8.572  0.1915  0.6811 -0.1405
 1023MOL0     C34938   6.594   6.256   8.667 -0.1028 -0.1810 -0.0174
 1023MOL0     O34939   6.496   6.289   8.759 -0.3705  0.7994 -0.3461
 1023MOL0     C34940   6.385   6.196   8.737 -0.2627 -0.6439 -0.0782
 1023MOL0     C34941   6.253   6.260   8.710  0.5331 -1.7173  0.8885
 1023MOL0     C34942   6.145   6.158   8.674 -0.5407 -0.7446  0.3492
 1023MOL0     C34943   6.109   6.059   8.786  0.3053 -0.0250  0.2091
 1023MOL0     C34944   5.975   5.991   8.743 -1.2383  0.5152  0.1258
 1023MOL0     C34945   5.862   6.060   8.673 -0.0745  0.9214  1.0024
 1023MOL0     C34946   5.808   6.171   8.763  0.7735  0.0661 -0.1033
 1023MOL0     C34947   5.677   6.124   8.835 -0.0505  0.2285  0.3825
 1023MOL0    Cl34948   5.673   5.961   8.921  0.9055 -0.2205 -0.0145
 1023MOL0     C34949   6.679   6.142   8.673 -0.2087 -0.2992 -0.6280
 1023MOL0     C34950   6.789   6.117   8.584 -0.5007 -0.4830  0.8008
 1023MOL0     O34951   6.978   5.984   8.405  0.0318  0.1591  0.2833
 1023MOL0     C34952   7.196   5.999   8.248  0.2389  0.4835  0.7098
 1023MOL0     C34953   7.310   6.026   8.170 -0.1806  0.1552  0.1007
 1023MOL0     N34954   7.691   6.639   8.514 -1.0539 -0.5494 -0.7868
 1023MOL0     N34955   7.613   6.715   8.580 -0.4339  0.4678  1.1333
 1023MOL0     C34956   8.466   6.728   8.921 -0.5043 -0.6148  0.9067
 1023MOL0     C34957   8.591   6.668   8.936  0.5936 -0.0340 -0.7208
 1023MOL0     C34958   8.924   6.366   9.057 -0.4287  0.3284 -0.3372
 1023MOL0     C34959   9.003   6.458   8.984 -1.1544 -0.4296  0.8771
 1023MOL0     C34960   9.145   6.427   8.961 -0.4035 -0.2862 -0.3330
 1023MOL0     C34961   9.194   6.311   9.013 -0.5114 -0.0248 -0.7105
 1023MOL0     O34962   9.327   6.297   8.981 -0.2198  0.2156  0.9356
 1023MOL0     C34963   9.425   6.327   9.073 -0.2651 -0.0835 -0.0624
 1023MOL0     C34964   9.517   6.439   9.023 -0.4157  0.0625 -0.1667
 1023MOL0     C34965   9.561   6.535   9.142 -0.4118 -0.4857 -0.1044
 1023MOL0     C34966   9.686   6.614   9.111  0.1002  0.1988 -0.9338
 1023MOL0     C34967   9.701   6.721   9.205  0.3525 -0.3386 -0.2691
 1023MOL0     C34968   9.718   6.805   9.294  0.3003  1.0548 -0.5910
 1023MOL0     C34969   9.113   6.216   9.079 -0.5400 -0.8508  0.0307
 1023MOL0     C34970   8.983   6.244   9.112 -0.2726 -0.2102  0.4996
 1023MOL0     H34971   8.514   6.413   9.145 -3.6580 -3.7024 -2.6707
 1023MOL0     H34972   8.279   6.512   9.095 -1.2295  0.5135 -0.9324
 1023MOL0     H34973   8.235   6.921   9.061 -1.1837  0.5560 -0.0308
 1023MOL0     H34974   8.282   6.779   9.150  0.1797 -2.0700 -2.0456
 1023MOL0     H34975   8.088   6.845   9.241  1.9015 -0.4234  0.9072
 1023MOL0     H34976   8.065   6.691   9.164 -2.1442  0.5656  0.4753
 1023MOL0     H34977   7.950   6.766   8.977  1.4630  1.8090 -2.0253
 1023MOL0     H34978   7.988   6.933   9.008 -0.9363 -0.8848 -2.0464
 1023MOL0     H34979   7.796   6.767   9.190  0.1862  1.0351  3.3549
 1023MOL0     H34980   7.822   6.940   9.196 -0.3360 -2.1674  0.3141
 1023MOL0     H34981   7.745   6.970   8.959 -1.4798  1.1232  1.7786
 1023MOL0     H34982   7.627   6.936   9.068 -1.7764 -0.9244 -1.5685
 1023MOL0     H34983   7.627   6.688   9.021  0.4923 -1.1255 -0.8879
 1023MOL0     H34984   7.724   6.720   8.874  0.2295 -1.1968  2.6419
 1023MOL0     H34985   7.446   6.806   8.963 -0.6591  5.2573 -0.5039
 1023MOL0     H34986   7.536   6.896   8.835  2.3611 -0.0207  0.9200
 1023MOL0     H34987   7.374   6.736   8.746 -0.5262 -0.8973  1.1224
 1023MOL0     H34988   7.439   6.610   8.851  1.3328  0.7374  1.8220
 1023MOL0     H34989   7.546   6.434   8.723  3.1730 -2.0392  0.4388
 1023MOL0     H34990   7.656   6.306   8.540 -1.0966 -0.1504 -1.9240
 1023MOL0     H34991   7.806   6.378   8.486 -0.5283 -0.1224 -1.8801
 1023MOL0     H34992   7.709   6.455   8.276  1.3076 -1.4716  0.6624
 1023MOL0     H34993   7.547   6.452   8.352 -0.6790 -0.9012  0.9301
 1023MOL0     H34994   7.708   6.204   8.295  0.8173  0.6376  1.3820
 1023MOL0     H34995   7.538   6.200   8.331  1.8218 -1.7527 -0.3741
 1023MOL0     H34996   7.664   6.263   8.063  1.5394  2.7039  1.1295
 1023MOL0     H34997   7.513   6.354   8.103 -3.1474 -1.2560  1.9002
 1023MOL0     H34998   7.317   6.362   8.149 -4.0883  1.8973 -1.6868
 1023MOL0     H34999   7.117   6.331   8.297  2.3264  0.8868  1.0127
 1023MOL0     H35000   6.754   6.416   8.414  0.5943  0.6386  0.5707
 1023MOL0     H35001   6.559   6.438   8.561 -2.6736 -1.4793 -1.1027
 1023MOL0     H35002   6.356   6.141   8.827 -3.9619 -1.3287 -1.5048
 1023MOL0     H35003   6.404   6.127   8.655 -2.6670  1.9937 -3.1358
 1023MOL0     H35004   6.251   6.334   8.629 -1.6042 -0.6444  1.8256
 1023MOL0     H35005   6.215   6.305   8.802 -1.6249 -3.2169  0.8000
 1023MOL0     H35006   6.174   6.096   8.589  3.7036  0.8118  0.4007
 1023MOL0     H35007   6.057   6.220   8.660 -0.9447 -0.5887  3.0742
 1023MOL0     H35008   6.183   5.978   8.784 -2.1323 -2.5999  3.5210
 1023MOL0     H35009   6.096   6.102   8.885 -1.8654 -0.6832  0.2582
 1023MOL0     H35010   5.927   5.934   8.824 -1.3838  1.8054  0.9790
 1023MOL0     H35011   6.020   5.911   8.683  1.8500  1.5494  0.8634
 1023MOL0     H35012   5.783   5.988   8.652  2.9352 -2.0716 -1.2140
 1023MOL0     H35013   5.894   6.098   8.575  2.2998 -2.2448  0.3813
 1023MOL0     H35014   5.883   6.212   8.831 -0.4893  1.6482  0.4100
 1023MOL0     H35015   5.782   6.255   8.697  0.1626  0.2240  0.3358
 1023MOL0     H35016   5.600   6.131   8.758  0.3072 -0.9247 -0.1028
 1023MOL0     H35017   5.651   6.198   8.912 -1.0995 -3.5408  4.0306
 1023MOL0     H35018   6.658   6.076   8.756 -1.1505 -0.6197 -1.1018
 1023MOL0     H35019   6.848   6.028   8.603  1.8293  0.8927  0.4948
 1023MOL0     H35020   7.156   5.900   8.267 -1.8262  1.6497  2.9609
 1023MOL0     H35021   7.370   5.942   8.136  2.4484  1.7487  0.4935
 1023MOL0     H35022   8.456   6.821   8.866  3.0582 -0.2012  0.7490
 1023MOL0     H35023   8.673   6.721   8.888 -0.7774 -1.2228 -4.7339
 1023MOL0     H35024   8.981   6.550   8.931 -1.7327 -1.0330  0.0393
 1023MOL0     H35025   9.216   6.479   8.897  2.4895  0.9653  3.5499
 1023MOL0     H35026   9.475   6.235   9.102  0.0860  0.2625  0.4441
 1023MOL0     H35027   9.384   6.353   9.171 -0.1497  0.3194 -0.1188
 1023MOL0     H35028   9.603   6.391   8.976 -2.0053 -3.1615 -0.0850
 1023MOL0     H35029   9.469   6.503   8.948  1.0284 -1.3995 -2.4774
 1023MOL0     H35030   9.567   6.480   9.237  1.8980  3.4972  2.3444
 1023MOL0     H35031   9.473   6.599   9.144 -0.3568 -0.3446 -1.4583
 1023MOL0     H35032   9.769   6.544   9.122 -1.5000 -1.5433  1.1022
 1023MOL0     H35033   9.698   6.652   9.010 -0.6014  1.2346 -0.6503
 1023MOL0     H35034   9.726   6.883   9.368 -0.5184  0.2236  0.4213
 1023MOL0     H35035   9.152   6.117   9.098  0.7962 -0.7685 -2.0127
 1023MOL0     H35036   8.923   6.168   9.162  1.0389  0.4983  3.3435
 1024MOL0     O35037   7.908  11.033   4.696  0.1727  0.0756  1.4108
 1024MOL0     C35038   7.970  11.018   4.589  0.1867  0.0018 -0.1521
 1024MOL0     O35039   7.925  10.943   4.479  0.5894  0.4854  0.2315
 1024MOL0     C35040   7.812  10.874   4.497  0.3879 -0.3582 -0.7847
 1024MOL0     C35041   7.817  10.735   4.524 -0.2076 -0.3722  0.2518
 1024MOL0     C35042   7.702  10.657   4.538  0.4896  0.6070 -0.6928
 1024MOL0     C35043   7.576  10.724   4.551 -1.0128  0.2377 -0.7409
 1024MOL0     O35044   7.451  10.669   4.586 -0.3553  0.1017 -0.4863
 1024MOL0     C35045   7.419  10.531   4.557  0.4316  0.0934  0.3296
 1024MOL0     C35046   7.270  10.528   4.568  0.2345 -0.5815 -0.4763
 1024MOL0     C35047   7.200  10.599   4.449 -0.4049 -0.1595 -0.2239
 1024MOL0     C35048   7.044  10.599   4.460  0.6696  0.1586  0.4865
 1024MOL0     C35049   6.975  10.628   4.333  0.3413 -0.5463 -0.0259
 1024MOL0     C35050   6.821  10.620   4.343 -0.7770 -0.4249 -0.3162
 1024MOL0     C35051   6.739  10.655   4.219 -0.3213 -0.5839  1.3973
 1024MOL0     C35052   6.746  10.566   4.104 -0.0591  0.3335 -0.2599
 1024MOL0     N35053   6.641  10.598   3.996 -0.0161 -0.2873  0.1733
 1024MOL0     C35054   6.507  10.561   3.980  0.0282 -0.1099  0.0337
 1024MOL0     C35055   6.465  10.632   3.871  0.6088  0.2738  0.7052
 1024MOL0     C35056   6.325  10.608   3.814 -0.3468  0.2793  0.0170
 1024MOL0     C35057   6.228  10.720   3.851  0.4161 -0.8847  0.4880
 1024MOL0     C35058   6.257  10.854   3.780  0.0387  0.3922 -0.4178
 1024MOL0     C35059   6.266  10.856   3.622  0.8146 -0.1278 -0.4167
 1024MOL0     O35060   6.303  10.986   3.563 -0.0126  0.2347  0.2485
 1024MOL0     C35061   6.420  11.043   3.596  1.1091  0.5367 -0.0241
 1024MOL0     C35062   6.426  11.177   3.584 -1.2246  0.2691 -0.3108
 1024MOL0     C35063   6.544  11.246   3.606 -0.3943  0.5313  0.4537
 1024MOL0     C35064   6.647  11.180   3.669 -0.5683  0.0569 -0.4250
 1024MOL0     C35065   6.776  11.260   3.707  0.4489 -0.0539 -0.1321
 1024MOL0     O35066   6.773  11.392   3.667 -0.6431 -0.3707  0.0342
 1024MOL0     C35067   6.875  11.471   3.713 -0.7708  0.2594  0.1462
 1024MOL0     C35068   6.843  11.564   3.812 -0.4593 -0.5848  0.6477
 1024MOL0     C35069   6.943  11.650   3.861  1.0013  0.0817  0.1982
 1024MOL0     C35070   7.074  11.632   3.825  0.6583 -0.2208  0.9830
 1024MOL0     O35071   7.158  11.729   3.877  0.3032  0.5389  0.5751
 1024MOL0     C35072   7.291  11.680   3.910 -0.2653 -0.0529 -0.1320
 1024MOL0     C35073   7.373  11.801   3.982 -0.1107  0.2182  0.7794
 1024MOL0     C35074   7.525  11.786   3.979  0.1974 -0.6744  0.1708
 1024MOL0     C35075   7.601  11.915   3.978 -0.5445  1.3986  0.3237
 1024MOL0     C35076   7.757  11.901   3.953 -0.1036  1.1789 -0.4830
 1024MOL0     C35077   7.828  11.818   4.064 -0.1277 -1.0122 -1.1144
 1024MOL0     C35078   7.849  11.904   4.187  0.1465 -0.1361  0.2837
 1024MOL0     C35079   7.940  11.832   4.288 -1.0257 -0.1860  0.0549
 1024MOL0    Cl35080   7.961  11.924   4.444 -0.2840 -0.1380  0.1030
 1024MOL0     C35081   7.103  11.544   3.718 -0.0890 -0.0987 -0.3825
 1024MOL0     C35082   7.008  11.468   3.661  0.6485  0.1609  1.1434
 1024MOL0     O35083   6.858  11.208   3.777  0.1214 -0.1189  0.1078
 1024MOL0     C35084   6.648  11.047   3.681 -0.2027  0.1475  0.2203
 1024MOL0     C35085   6.530  10.977   3.641 -0.3384  0.8246 -0.8383
 1024MOL0     N35086   6.568  10.709   3.824 -0.5468 -0.0892  0.2969
 1024MOL0     N35087   6.677  10.674   3.883 -1.3444  0.7189  0.5819
 1024MOL0     C35088   7.578  10.865   4.539 -0.4928  0.4905  0.1978
 1024MOL0     C35089   7.688  10.940   4.513 -0.1509 -1.0129  0.8371
 1024MOL0     C35090   8.095  11.094   4.574 -0.4775  0.5842 -1.0470
 1024MOL0     C35091   8.129  11.208   4.655  0.3844  0.4494 -0.5437
 1024MOL0     C35092   8.254  11.272   4.626  0.4922 -0.0308 -0.0298
 1024MOL0     C35093   8.347  11.225   4.537  0.2342  0.2327  0.1582
 1024MOL0     O35094   8.470  11.287   4.510  0.6921  0.2853  0.0110
 1024MOL0     C35095   8.516  11.393   4.591  0.6637 -0.6891  0.4019
 1024MOL0     C35096   8.651  11.432   4.538 -0.3052 -0.5426  0.4366
 1024MOL0     C35097   8.753  11.318   4.539  0.4970 -0.5531 -0.4823
 1024MOL0     C35098   8.882  11.343   4.474 -1.2500  0.3450 -0.3027
 1024MOL0     C35099   8.975  11.220   4.482  0.5352  0.5633  0.2780
 1024MOL0     C35100   9.058  11.136   4.488 -0.4731  0.2651  0.7560
 1024MOL0     C35101   8.308  11.115   4.452 -0.2255  0.1141  0.1516
 1024MOL0     C35102   8.182  11.055   4.476  0.3487  0.1279  0.4731
 1024MOL0     H35103   7.911  10.683   4.510 -0.4387 -0.5576 -0.6959
 1024MOL0     H35104   7.701  10.548   4.546  0.0211  0.6694  0.2416
 1024MOL0     H35105   7.468  10.461   4.625 -0.1551  0.3001  0.9776
 1024MOL0     H35106   7.457  10.510   4.457 -0.8887  1.2570 -0.4446
 1024MOL0     H35107   7.234  10.572   4.661  2.3058  1.5638 -0.5839
 1024MOL0     H35108   7.240  10.424   4.580 -1.3407 -0.1060 -0.1443
 1024MOL0     H35109   7.225  10.543   4.358  0.5307 -1.0163  0.5294
 1024MOL0     H35110   7.233  10.703   4.445  2.1370 -0.9109 -0.5104
 1024MOL0     H35111   7.017  10.499   4.494 -0.5979  0.6714  1.0789
 1024MOL0     H35112   7.008  10.665   4.540  2.1075  0.7846  0.6439
 1024MOL0     H35113   7.014  10.565   4.253 -3.3533  0.4441 -2.9027
 1024MOL0     H35114   7.001  10.729   4.300  0.2588 -0.9893 -1.4860
 1024MOL0     H35115   6.788  10.687   4.423  1.0544 -3.0182  2.8599
 1024MOL0     H35116   6.786  10.530   4.393 -1.8008  2.1790  4.2575
 1024MOL0     H35117   6.633  10.660   4.246 -0.1086 -1.0795  2.3579
 1024MOL0     H35118   6.773  10.754   4.186 -2.0125 -0.9155 -1.7161
 1024MOL0     H35119   6.739  10.470   4.155  0.9204  1.4992  2.1961
 1024MOL0     H35120   6.847  10.567   4.063  0.4465 -1.4064  0.8461
 1024MOL0     H35121   6.451  10.491   4.042 -0.0325 -1.7042 -1.7537
 1024MOL0     H35122   6.298  10.508   3.848  0.7584  0.1761  0.6522
 1024MOL0     H35123   6.322  10.609   3.705  1.5472 -0.9601 -0.0904
 1024MOL0     H35124   6.238  10.739   3.959 -0.5021 -0.6065  0.5286
 1024MOL0     H35125   6.124  10.693   3.828  0.4296 -1.9615  1.5711
 1024MOL0     H35126   6.176  10.922   3.805 -2.4891 -3.0401  1.6245
 1024MOL0     H35127   6.355  10.880   3.820  1.6618 -2.3249 -2.2540
 1024MOL0     H35128   6.161  10.839   3.594 -0.6436 -0.2202  4.2845
 1024MOL0     H35129   6.335  10.777   3.592  2.1764  0.8986 -0.0691
 1024MOL0     H35130   6.338  11.216   3.535 -1.7980 -3.5638 -2.7531
 1024MOL0     H35131   6.549  11.344   3.558 -0.0995 -0.3820 -1.4899
 1024MOL0     H35132   6.739  11.572   3.843 -1.4021 -2.1206 -1.8248
 1024MOL0     H35133   6.918  11.714   3.945  0.8422 -0.1622  0.3393
 1024MOL0     H35134   7.346  11.647   3.822 -1.6653 -0.7939 -0.7734
 1024MOL0     H35135   7.293  11.595   3.978 -0.9700  0.4292  0.5192
 1024MOL0     H35136   7.343  11.810   4.087  1.7842  1.2305  1.2772
 1024MOL0     H35137   7.344  11.887   3.921  1.2511 -1.8639 -3.1268
 1024MOL0     H35138   7.561  11.726   3.895  3.4502 -1.0191  1.6729
 1024MOL0     H35139   7.556  11.730   4.067  3.7694 -1.4139 -1.4092
 1024MOL0     H35140   7.577  11.965   3.883  2.8686  0.5310 -1.1854
 1024MOL0     H35141   7.583  11.979   4.065 -0.1707  1.1515  0.5888
 1024MOL0     H35142   7.798  12.002   3.958  0.8353  0.7711  3.2900
 1024MOL0     H35143   7.769  11.853   3.856  0.6152  0.0401  0.1349
 1024MOL0     H35144   7.921  11.783   4.018 -0.9117 -1.0600 -2.7443
 1024MOL0     H35145   7.767  11.729   4.083 -3.8585  1.0922 -2.3349
 1024MOL0     H35146   7.888  12.002   4.158 -1.1836 -0.1203 -1.6990
 1024MOL0     H35147   7.750  11.910   4.233  0.7925  1.2933  1.5866
 1024MOL0     H35148   8.042  11.825   4.248 -1.4647  2.6178 -1.8043
 1024MOL0     H35149   7.905  11.730   4.307 -1.3983 -0.0824 -0.0631
 1024MOL0     H35150   7.204  11.531   3.683  0.6989 -0.3372  1.8129
 1024MOL0     H35151   7.029  11.400   3.580 -0.3967  0.7297  0.3707
 1024MOL0     H35152   6.730  10.995   3.729  0.1559 -0.2598 -0.7920
 1024MOL0     H35153   6.534  10.869   3.655 -1.1917  0.9973  1.2103
 1024MOL0     H35154   7.485  10.919   4.553  0.6312  2.4324  0.6129
 1024MOL0     H35155   7.683  11.047   4.499  1.7077 -0.9281  0.6796
 1024MOL0     H35156   8.065  11.240   4.737 -0.2568  0.1737 -0.9375
 1024MOL0     H35157   8.276  11.361   4.685  5.5414 -1.2971  0.5269
 1024MOL0     H35158   8.523  11.366   4.697  1.0902 -2.9325 -0.1439
 1024MOL0     H35159   8.466  11.490   4.597  5.4808  2.0108  3.7984
 1024MOL0     H35160   8.628  11.468   4.438 -0.3352 -0.2590  0.5442
 1024MOL0     H35161   8.691  11.519   4.590 -1.8542 -0.0468  0.8274
 1024MOL0     H35162   8.698  11.235   4.493 -0.2529 -0.0807 -0.4457
 1024MOL0     H35163   8.776  11.285   4.641  2.3680 -1.1770 -1.0658
 1024MOL0     H35164   8.872  11.371   4.369 -1.7219 -0.6605 -0.5325
 1024MOL0     H35165   8.929  11.419   4.538 -0.4839 -1.1446  0.9700
 1024MOL0     H35166   9.130  11.058   4.506  0.9526  2.4058  6.5816
 1024MOL0     H35167   8.371  11.074   4.373 -1.3610 -1.5558  0.0511
 1024MOL0     H35168   8.153  10.985   4.398  1.8684  0.3265 -0.3121
  11.36532  11.36532  11.36532
